Protein in INSANE! Membrane UpperLeaflet>POPC=1.0 LowerLeaflet>POPC=1.0
244257
   22AUC    AUC    1  19.953   6.631   7.500
   23AUC    AUC    2  20.199   6.631   7.348
   24AUC    AUC    3  20.199   6.631   7.651
   25AUC    AUC    4  19.708   6.631   7.348
   26AUC    AUC    5  19.708   6.631   7.651
   27AUC    AUC    6  19.802   6.876   7.500
   28AUC    AUC    7  20.105   6.876   7.500
   29AUC    AUC    8  19.802   6.385   7.500
   30AUC    AUC    9  20.105   6.385   7.500
   31AUC    AUC   10  19.953   6.479   7.745
   32AUC    AUC   11  19.953   6.782   7.745
   33AUC    AUC   12  19.953   6.479   7.254
   34AUC    AUC   13  19.953   6.782   7.254
   35AUC    AUC   14  20.444   6.631   7.196
   36AUC    AUC   15  20.444   6.631   7.500
   37AUC    AUC   16  20.444   6.631   7.803
   38AUC    AUC   17  19.462   6.631   7.196
   39AUC    AUC   18  19.462   6.631   7.500
   40AUC    AUC   19  19.462   6.631   7.803
   41AUC    AUC   20  19.650   7.121   7.500
   42AUC    AUC   21  19.953   7.121   7.500
   43AUC    AUC   22  20.257   7.121   7.500
   44AUC    AUC   23  19.650   6.140   7.500
   45AUC    AUC   24  19.953   6.140   7.500
   46AUC    AUC   25  20.257   6.140   7.500
   47AUC    AUC   26  19.953   6.327   7.991
   48AUC    AUC   27  19.953   6.631   7.991
   49AUC    AUC   28  19.953   6.934   7.991
   50AUC    AUC   29  19.953   6.327   7.009
   51AUC    AUC   30  19.953   6.631   7.009
   52AUC    AUC   31  19.953   6.934   7.009
   53AUC    AUC   32  20.199   6.479   7.897
   54AUC    AUC   33  20.199   6.782   7.897
   55AUC    AUC   34  20.199   6.479   7.103
   56AUC    AUC   35  20.199   6.782   7.103
   57AUC    AUC   36  19.708   6.479   7.897
   58AUC    AUC   37  19.708   6.782   7.897
   59AUC    AUC   38  19.708   6.479   7.103
   60AUC    AUC   39  19.708   6.782   7.103
   61AUC    AUC   40  20.350   6.876   7.348
   62AUC    AUC   41  20.350   6.876   7.651
   63AUC    AUC   42  19.556   6.876   7.348
   64AUC    AUC   43  19.556   6.876   7.651
   65AUC    AUC   44  20.350   6.385   7.348
   66AUC    AUC   45  20.350   6.385   7.651
   67AUC    AUC   46  19.556   6.385   7.348
   68AUC    AUC   47  19.556   6.385   7.651
   69AUC    AUC   48  19.802   7.028   7.745
   70AUC    AUC   49  20.105   7.028   7.745
   71AUC    AUC   50  19.802   6.233   7.745
   72AUC    AUC   51  20.105   6.233   7.745
   73AUC    AUC   52  19.802   7.028   7.254
   74AUC    AUC   53  20.105   7.028   7.254
   75AUC    AUC   54  19.802   6.233   7.254
   76AUC    AUC   55  20.105   6.233   7.254
   77AUSL   AUS   56  20.362   6.631   8.080
   78AUSL   AUS   57  20.218   6.214   8.011
   79AUL    AUL   58  20.444   6.327   8.294
   80THSLK    S   59  20.336   6.026   8.156
   81ETHY    C1   60  20.432   5.658   8.412
   82ETHY    C1   61  20.610   5.275   8.753
   83ETHY    C1   62  20.852   4.975   9.130
   84ETHY    C1   63  21.148   4.756   9.534
   85THSLK    S   64  20.461   6.584   8.327
   86ETHY    C1   65  20.688   6.434   8.694
   87ETHY    C1   66  20.972   6.346   9.148
   88ETHY    C1   67  21.256   6.368   9.607
   89ETHY    C1   68  21.533   6.490  10.061
   90AUSL   AUS   69  20.117   6.479   8.173
   91AUSL   AUS   70  19.790   6.782   8.173
   92AUL    AUL   71  19.953   6.631   8.482
   93THSLK    S   72  20.198   6.428   8.418
   94ETHY    C1   73  20.288   6.210   8.810
   95ETHY    C1   74  20.416   6.036   9.308
   96ETHY    C1   75  20.562   5.971   9.823
   97ETHY    C1   76  20.719   6.005  10.346
   98THSLK    S   77  19.703   6.742   8.432
   99ETHY    C1   78  19.614   6.668   8.874
  100ETHY    C1   79  19.490   6.670   9.403
  101ETHY    C1   80  19.345   6.779   9.912
  102ETHY    C1   81  19.182   6.983  10.392
  103AUSL   AUS   82  20.117   6.782   8.173
  104AUSL   AUS   83  20.463   6.895   7.916
  105AUL    AUL   84  20.444   6.934   8.294
  106THSLK    S   85  20.204   6.834   8.416
  107ETHY    C1   86  20.292   7.051   8.809
  108ETHY    C1   87  20.417   7.224   9.308
  109ETHY    C1   88  20.562   7.290   9.823
  110ETHY    C1   89  20.725   7.257  10.345
  111THSLK    S   90  20.639   7.001   8.079
  112ETHY    C1   91  21.001   7.051   8.355
  113ETHY    C1   92  21.408   7.200   8.681
  114ETHY    C1   93  21.770   7.449   8.995
  115ETHY    C1   94  22.082   7.785   9.293
  116AUSL   AUS   95  20.362   6.631   6.920
  117AUSL   AUS   96  20.218   7.047   6.990
  118AUL    AUL   97  20.444   6.934   6.706
  119THSLK    S   98  20.466   6.584   6.676
  120ETHY    C1   99  20.693   6.434   6.308
  121ETHY    C1  100  20.972   6.346   5.851
  122ETHY    C1  101  21.256   6.368   5.393
  123ETHY    C1  102  21.538   6.490   4.941
  124THSLK    S  103  20.395   7.166   6.820
  125ETHY    C1  104  20.667   7.307   6.480
  126ETHY    C1  105  20.945   7.554   6.085
  127ETHY    C1  106  21.161   7.887   5.720
  128ETHY    C1  107  21.318   8.294   5.391
  129AUSL   AUS  108  20.117   6.479   6.826
  130AUSL   AUS  109  20.463   6.366   7.083
  131AUL    AUL  110  20.444   6.327   6.706
  132THSLK    S  111  20.603   6.175   6.939
  133ETHY    C1  112  20.836   5.858   6.707
  134ETHY    C1  113  21.166   5.551   6.403
  135ETHY    C1  114  21.546   5.342   6.083
  136ETHY    C1  115  21.967   5.225   5.754
  137THSLK    S  116  20.204   6.427   6.583
  138ETHY    C1  117  20.292   6.210   6.191
  139ETHY    C1  118  20.417   6.037   5.692
  140ETHY    C1  119  20.562   5.971   5.176
  141ETHY    C1  120  20.725   6.004   4.656
  142AUSL   AUS  121  20.117   6.782   6.826
  143AUSL   AUS  122  19.790   6.479   6.826
  144AUL    AUL  123  19.953   6.631   6.518
  145THSLK    S  124  19.694   6.427   6.586
  146ETHY    C1  125  19.555   6.212   6.206
  147ETHY    C1  126  19.398   6.041   5.717
  148ETHY    C1  127  19.259   5.975   5.199
  149ETHY    C1  128  19.143   6.006   4.666
  150THSLK    S  129  20.219   6.743   6.572
  151ETHY    C1  130  20.356   6.666   6.142
  152ETHY    C1  131  20.509   6.666   5.622
  153ETHY    C1  132  20.647   6.775   5.112
  154ETHY    C1  133  20.770   6.982   4.621
  155AUSL   AUS  134  19.544   6.631   8.080
  156AUSL   AUS  135  19.689   7.047   8.011
  157AUL    AUL  136  19.462   6.934   8.294
  158THSLK    S  137  19.440   6.584   8.325
  159ETHY    C1  138  19.214   6.434   8.691
  160ETHY    C1  139  18.934   6.346   9.148
  161ETHY    C1  140  18.651   6.368   9.607
  162ETHY    C1  141  18.368   6.490  10.058
  163THSLK    S  142  19.566   7.180   8.201
  164ETHY    C1  143  19.470   7.375   8.604
  165ETHY    C1  144  19.297   7.656   9.034
  166ETHY    C1  145  19.054   7.982   9.390
  167ETHY    C1  146  18.753   8.341   9.671
  168AUSL   AUS  147  19.790   6.479   8.173
  169AUSL   AUS  148  19.443   6.366   7.916
  170AUL    AUL  149  19.462   6.327   8.294
  171THSLK    S  150  19.264   6.200   8.032
  172ETHY    C1  151  18.903   5.953   8.166
  173ETHY    C1  152  18.498   5.687   8.410
  174ETHY    C1  153  18.137   5.467   8.745
  175ETHY    C1  154  17.821   5.294   9.156
  176THSLK    S  155  19.688   6.429   8.413
  177ETHY    C1  156  19.550   6.214   8.793
  178ETHY    C1  157  19.397   6.041   9.284
  179ETHY    C1  158  19.260   5.975   9.800
  180ETHY    C1  159  19.136   6.007  10.332
  181AUSL   AUS  160  19.544   6.631   6.920
  182AUSL   AUS  161  19.689   6.214   6.990
  183AUL    AUL  162  19.462   6.327   6.706
  184THSLK    S  163  19.445   6.584   6.673
  185ETHY    C1  164  19.218   6.434   6.305
  186ETHY    C1  165  18.935   6.346   5.851
  187ETHY    C1  166  18.651   6.368   5.393
  188ETHY    C1  167  18.374   6.490   4.938
  189THSLK    S  168  19.515   6.039   6.865
  190ETHY    C1  169  19.243   5.726   6.673
  191ETHY    C1  170  18.962   5.378   6.367
  192ETHY    C1  171  18.745   5.070   5.980
  193ETHY    C1  172  18.593   4.803   5.528
  194AUSL   AUS  173  19.790   6.782   6.826
  195AUSL   AUS  174  19.443   6.895   7.083
  196AUL    AUL  175  19.462   6.934   6.706
  197THSLK    S  176  19.307   7.026   6.893
  198ETHY    C1  177  19.073   7.147   6.518
  199ETHY    C1  178  18.741   7.335   6.132
  200ETHY    C1  179  18.361   7.574   5.833
  201ETHY    C1  180  17.944   7.854   5.618
  202THSLK    S  181  19.709   6.744   6.566
  203ETHY    C1  182  19.619   6.669   6.124
  204ETHY    C1  183  19.491   6.670   5.597
  205ETHY    C1  184  19.345   6.779   5.089
  206ETHY    C1  185  19.188   6.985   4.608
  207AUSL   AUS  186  20.533   7.040   7.500
  208AUSL   AUS  187  20.463   6.895   7.083
  209AUL    AUL  188  20.747   7.121   7.196
  210THSLK    S  189  20.643   7.002   6.925
  211ETHY    C1  190  21.004   7.052   6.648
  212ETHY    C1  191  21.408   7.200   6.319
  213ETHY    C1  192  21.770   7.449   6.005
  214ETHY    C1  193  22.086   7.786   5.713
  215THSLK    S  194  20.803   7.101   7.503
  216ETHY    C1  195  21.250   7.201   7.502
  217ETHY    C1  196  21.752   7.407   7.500
  218ETHY    C1  197  22.199   7.709   7.500
  219ETHY    C1  198  22.587   8.093   7.503
  220AUSL   AUS  199  20.627   6.794   7.348
  221AUSL   AUS  200  20.627   6.467   7.651
  222AUL    AUL  201  20.935   6.631   7.500
  223THSLK    S  202  20.889   6.841   7.345
  224ETHY    C1  203  21.339   6.810   7.270
  225ETHY    C1  204  21.871   6.865   7.179
  226ETHY    C1  205  22.378   7.028   7.091
  227ETHY    C1  206  22.853   7.286   7.011
  228THSLK    S  207  20.864   6.330   7.659
  229ETHY    C1  208  21.235   6.072   7.726
  230ETHY    C1  209  21.721   5.846   7.808
  231ETHY    C1  210  22.240   5.726   7.896
  232ETHY    C1  211  22.778   5.704   7.989
  233AUSL   AUS  212  20.627   6.794   7.651
  234AUSL   AUS  213  20.370   7.141   7.764
  235AUL    AUL  214  20.747   7.121   7.803
  236THSLK    S  215  20.555   7.265   7.924
  237ETHY    C1  216  20.912   7.457   8.136
  238ETHY    C1  217  21.289   7.764   8.377
  239ETHY    C1  218  21.590   8.151   8.602
  240ETHY    C1  219  21.817   8.602   8.809
  241THSLK    S  220  20.888   6.840   7.661
  242ETHY    C1  221  21.339   6.810   7.734
  243ETHY    C1  222  21.872   6.865   7.821
  244ETHY    C1  223  22.378   7.028   7.908
  245ETHY    C1  224  22.852   7.286   7.995
  246AUSL   AUS  225  19.373   7.040   7.500
  247AUSL   AUS  226  19.443   6.895   7.916
  248AUL    AUL  227  19.159   7.121   7.803
  249THSLK    S  228  19.303   7.021   8.107
  250ETHY    C1  229  19.070   7.142   8.482
  251ETHY    C1  230  18.741   7.335   8.868
  252ETHY    C1  231  18.361   7.574   9.166
  253ETHY    C1  232  17.940   7.849   9.381
  254THSLK    S  233  19.152   7.180   7.503
  255ETHY    C1  234  18.863   7.535   7.502
  256ETHY    C1  235  18.455   7.892   7.500
  257ETHY    C1  236  17.985   8.156   7.500
  258ETHY    C1  237  17.467   8.332   7.503
  259AUSL   AUS  238  19.280   6.794   7.348
  260AUSL   AUS  239  19.537   7.141   7.236
  261AUL    AUL  240  19.159   7.121   7.196
  262THSLK    S  241  19.043   6.908   7.303
  263ETHY    C1  242  18.671   7.082   7.101
  264ETHY    C1  243  18.185   7.258   6.936
  265ETHY    C1  244  17.667   7.390   6.868
  266ETHY    C1  245  17.129   7.482   6.890
  267THSLK    S  246  19.417   7.308   7.056
  268ETHY    C1  247  19.265   7.627   6.765
  269ETHY    C1  248  19.011   8.007   6.473
  270ETHY    C1  249  18.678   8.375   6.260
  271ETHY    C1  250  18.282   8.725   6.122
  272AUSL   AUS  251  19.280   6.794   7.651
  273AUSL   AUS  252  19.280   6.467   7.348
  274AUL    AUL  253  18.972   6.631   7.500
  275THSLK    S  254  19.018   6.392   7.384
  276ETHY    C1  255  18.568   6.341   7.446
  277ETHY    C1  256  18.035   6.238   7.434
  278ETHY    C1  257  17.528   6.088   7.327
  279ETHY    C1  258  17.055   5.895   7.135
  280THSLK    S  259  19.042   6.902   7.699
  281ETHY    C1  260  18.671   7.078   7.901
  282ETHY    C1  261  18.185   7.257   8.063
  283ETHY    C1  262  17.667   7.390   8.133
  284ETHY    C1  263  17.128   7.476   8.114
  285AUSL   AUS  264  20.533   6.221   7.500
  286AUSL   AUS  265  20.463   6.366   7.916
  287AUL    AUL  266  20.747   6.140   7.803
  288THSLK    S  267  20.754   6.081   7.503
  289ETHY    C1  268  21.043   5.726   7.502
  290ETHY    C1  269  21.452   5.369   7.500
  291ETHY    C1  270  21.922   5.105   7.500
  292ETHY    C1  271  22.439   4.929   7.503
  293THSLK    S  272  20.600   6.176   8.066
  294ETHY    C1  273  20.833   5.859   8.297
  295ETHY    C1  274  21.166   5.552   8.598
  296ETHY    C1  275  21.546   5.342   8.918
  297ETHY    C1  276  21.963   5.226   9.250
  298AUSL   AUS  277  20.627   6.467   7.348
  299AUSL   AUS  278  20.370   6.120   7.236
  300AUL    AUL  279  20.747   6.140   7.196
  301THSLK    S  280  20.865   6.330   7.346
  302ETHY    C1  281  21.236   6.072   7.279
  303ETHY    C1  282  21.721   5.846   7.192
  304ETHY    C1  283  22.240   5.726   7.103
  305ETHY    C1  284  22.779   5.704   7.018
  306THSLK    S  285  20.493   5.929   7.099
  307ETHY    C1  286  20.643   5.527   6.942
  308ETHY    C1  287  20.896   5.097   6.728
  309ETHY    C1  288  21.228   4.741   6.495
  310ETHY    C1  289  21.627   4.460   6.249
  311AUSL   AUS  290  19.373   6.221   7.500
  312AUSL   AUS  291  19.443   6.366   7.083
  313AUL    AUL  292  19.159   6.140   7.196
  314THSLK    S  293  19.268   6.195   6.966
  315ETHY    C1  294  18.906   5.949   6.833
  316ETHY    C1  295  18.498   5.686   6.589
  317ETHY    C1  296  18.137   5.467   6.255
  318ETHY    C1  297  17.825   5.289   5.843
  319THSLK    S  298  19.103   6.160   7.503
  320ETHY    C1  299  18.657   6.060   7.502
  321ETHY    C1  300  18.155   5.854   7.500
  322ETHY    C1  301  17.708   5.552   7.500
  323ETHY    C1  302  17.320   5.168   7.503
  324AUSL   AUS  303  19.280   6.467   7.651
  325AUSL   AUS  304  19.537   6.120   7.764
  326AUL    AUL  305  19.159   6.140   7.803
  327THSLK    S  306  19.349   5.972   7.881
  328ETHY    C1  307  18.993   5.696   7.958
  329ETHY    C1  308  18.618   5.339   8.122
  330ETHY    C1  309  18.317   4.965   8.367
  331ETHY    C1  310  18.086   4.583   8.682
  332THSLK    S  311  19.017   6.397   7.618
  333ETHY    C1  312  18.567   6.345   7.557
  334ETHY    C1  313  18.035   6.239   7.566
  335ETHY    C1  314  17.528   6.088   7.673
  336ETHY    C1  315  17.054   5.900   7.867
  337AUSL   AUS  316  19.953   7.211   7.909
  338AUSL   AUS  317  19.537   7.141   7.764
  339AUL    AUL  318  19.650   7.425   7.991
  340THSLK    S  319  19.414   7.303   7.948
  341ETHY    C1  320  19.263   7.623   8.237
  342ETHY    C1  321  19.010   8.006   8.527
  343ETHY    C1  322  18.678   8.374   8.740
  344ETHY    C1  323  18.279   8.720   8.881
  345THSLK    S  324  19.991   7.442   8.034
  346ETHY    C1  325  20.119   7.768   8.327
  347ETHY    C1  326  20.196   8.200   8.646
  348ETHY    C1  327  20.177   8.665   8.920
  349ETHY    C1  328  20.071   9.150   9.147
  350AUSL   AUS  329  19.802   7.304   7.663
  351AUSL   AUS  330  20.105   7.304   7.336
  352AUL    AUL  331  19.953   7.612   7.500
  353THSLK    S  332  19.839   7.556   7.772
  354ETHY    C1  333  19.912   7.980   7.929
  355ETHY    C1  334  19.909   8.496   8.095
  356ETHY    C1  335  19.801   9.007   8.229
  357ETHY    C1  336  19.597   9.503   8.336
  358THSLK    S  337  20.156   7.544   7.237
  359ETHY    C1  338  20.369   7.921   7.091
  360ETHY    C1  339  20.539   8.410   6.929
  361ETHY    C1  340  20.606   8.928   6.792
  362ETHY    C1  341  20.577   9.462   6.682
  363AUSL   AUS  342  20.105   7.304   7.663
  364AUSL   AUS  343  20.218   7.047   8.011
  365AUL    AUL  344  20.257   7.425   7.991
  366THSLK    S  345  20.391   7.164   8.184
  367ETHY    C1  346  20.664   7.305   8.522
  368ETHY    C1  347  20.945   7.554   8.915
  369ETHY    C1  348  21.161   7.887   9.279
  370ETHY    C1  349  21.313   8.292   9.614
  371THSLK    S  350  20.155   7.542   7.768
  372ETHY    C1  351  20.368   7.921   7.913
  373ETHY    C1  352  20.539   8.410   8.072
  374ETHY    C1  353  20.606   8.928   8.207
  375ETHY    C1  354  20.575   9.461   8.325
  376AUSL   AUS  355  19.953   6.050   7.909
  377AUSL   AUS  356  20.370   6.120   7.764
  378AUL    AUL  357  20.257   5.836   7.991
  379THSLK    S  358  19.912   5.793   7.992
  380ETHY    C1  359  19.785   5.384   8.152
  381ETHY    C1  360  19.711   4.903   8.391
  382ETHY    C1  361  19.730   4.451   8.684
  383ETHY    C1  362  19.832   4.033   9.021
  384THSLK    S  363  20.490   5.930   7.907
  385ETHY    C1  364  20.641   5.528   8.062
  386ETHY    C1  365  20.896   5.097   8.272
  387ETHY    C1  366  21.228   4.741   8.505
  388ETHY    C1  367  21.624   4.462   8.758
  389AUSL   AUS  368  19.802   5.957   7.663
  390AUSL   AUS  369  19.689   6.214   8.011
  391AUL    AUL  370  19.650   5.836   7.991
  392THSLK    S  371  19.751   5.712   7.744
  393ETHY    C1  372  19.538   5.313   7.812
  394ETHY    C1  373  19.367   4.810   7.925
  395ETHY    C1  374  19.301   4.296   8.072
  396ETHY    C1  375  19.330   3.781   8.252
  397THSLK    S  376  19.511   6.044   8.136
  398ETHY    C1  377  19.239   5.729   8.327
  399ETHY    C1  378  18.961   5.378   8.633
  400ETHY    C1  379  18.745   5.070   9.019
  401ETHY    C1  380  18.589   4.808   9.473
  402AUSL   AUS  381  20.105   5.957   7.663
  403AUSL   AUS  382  19.802   5.957   7.336
  404AUL    AUL  383  19.953   5.649   7.500
  405THSLK    S  384  19.752   5.710   7.261
  406ETHY    C1  385  19.539   5.312   7.192
  407ETHY    C1  386  19.367   4.810   7.076
  408ETHY    C1  387  19.301   4.296   6.927
  409ETHY    C1  388  19.332   3.779   6.754
  410THSLK    S  389  20.066   5.698   7.748
  411ETHY    C1  390  19.994   5.253   7.829
  412ETHY    C1  391  19.997   4.724   7.948
  413ETHY    C1  392  20.106   4.216   8.095
  414ETHY    C1  393  20.308   3.738   8.264
  415AUSL   AUS  394  19.953   7.211   7.091
  416AUSL   AUS  395  20.370   7.141   7.236
  417AUL    AUL  396  20.257   7.425   7.009
  418THSLK    S  397  19.995   7.445   6.971
  419ETHY    C1  398  20.122   7.770   6.676
  420ETHY    C1  399  20.196   8.200   6.353
  421ETHY    C1  400  20.177   8.665   6.080
  422ETHY    C1  401  20.074   9.153   5.857
  423THSLK    S  402  20.557   7.266   7.081
  424ETHY    C1  403  20.914   7.458   6.869
  425ETHY    C1  404  21.289   7.764   6.623
  426ETHY    C1  405  21.590   8.151   6.398
  427ETHY    C1  406  21.820   8.603   6.197
  428AUSL   AUS  407  19.802   7.304   7.336
  429AUSL   AUS  408  19.689   7.047   6.990
  430AUL    AUL  409  19.650   7.425   7.009
  431THSLK    S  410  19.841   7.558   7.233
  432ETHY    C1  411  19.913   7.981   7.074
  433ETHY    C1  412  19.910   8.497   6.906
  434ETHY    C1  413  19.801   9.007   6.770
  435ETHY    C1  414  19.599   9.505   6.670
  436THSLK    S  415  19.570   7.184   6.800
  437ETHY    C1  416  19.474   7.378   6.396
  438ETHY    C1  417  19.297   7.656   5.966
  439ETHY    C1  418  19.054   7.981   5.611
  440ETHY    C1  419  18.758   8.346   5.330
  441AUSL   AUS  420  19.953   6.050   7.091
  442AUSL   AUS  421  19.537   6.120   7.236
  443AUL    AUL  422  19.650   5.836   7.009
  444THSLK    S  423  19.352   5.967   7.122
  445ETHY    C1  424  18.995   5.693   7.044
  446ETHY    C1  425  18.618   5.339   6.878
  447ETHY    C1  426  18.316   4.965   6.633
  448ETHY    C1  427  18.089   4.578   6.321
  449THSLK    S  428  19.915   5.790   7.013
  450ETHY    C1  429  19.787   5.382   6.852
  451ETHY    C1  430  19.711   4.903   6.609
  452ETHY    C1  431  19.730   4.451   6.315
  453ETHY    C1  432  19.836   4.030   5.983
  454AUSL   AUS  433  20.105   5.957   7.336
  455AUSL   AUS  434  20.218   6.214   6.990
  456AUL    AUL  435  20.257   5.836   7.009
  457THSLK    S  436  20.068   5.697   7.258
  458ETHY    C1  437  19.995   5.252   7.175
  459ETHY    C1  438  19.997   4.724   7.052
  460ETHY    C1  439  20.105   4.216   6.905
  461ETHY    C1  440  20.310   3.737   6.742
  462THSLK    S  441  20.341   6.024   6.847
  463ETHY    C1  442  20.436   5.656   6.592
  464ETHY    C1  443  20.610   5.275   6.247
  465ETHY    C1  444  20.852   4.975   5.870
  466ETHY    C1  445  21.153   4.754   5.471
  467AUC    AUC  446  -0.562  30.564   7.500
  468AUC    AUC  447  -0.316  30.564   7.348
  469AUC    AUC  448  -0.316  30.564   7.651
  470AUC    AUC  449  -0.807  30.564   7.348
  471AUC    AUC  450  -0.807  30.564   7.651
  472AUC    AUC  451  -0.713  30.809   7.500
  473AUC    AUC  452  -0.410  30.809   7.500
  474AUC    AUC  453  -0.713  30.318   7.500
  475AUC    AUC  454  -0.410  30.318   7.500
  476AUC    AUC  455  -0.562  30.412   7.745
  477AUC    AUC  456  -0.562  30.715   7.745
  478AUC    AUC  457  -0.562  30.412   7.254
  479AUC    AUC  458  -0.562  30.715   7.254
  480AUC    AUC  459  -0.071  30.564   7.196
  481AUC    AUC  460  -0.071  30.564   7.500
  482AUC    AUC  461  -0.071  30.564   7.803
  483AUC    AUC  462  -1.053  30.564   7.196
  484AUC    AUC  463  -1.053  30.564   7.500
  485AUC    AUC  464  -1.053  30.564   7.803
  486AUC    AUC  465  -0.865  31.054   7.500
  487AUC    AUC  466  -0.562  31.054   7.500
  488AUC    AUC  467  -0.258  31.054   7.500
  489AUC    AUC  468  -0.865  30.073   7.500
  490AUC    AUC  469  -0.562  30.073   7.500
  491AUC    AUC  470  -0.258  30.073   7.500
  492AUC    AUC  471  -0.562  30.260   7.991
  493AUC    AUC  472  -0.562  30.564   7.991
  494AUC    AUC  473  -0.562  30.867   7.991
  495AUC    AUC  474  -0.562  30.260   7.009
  496AUC    AUC  475  -0.562  30.564   7.009
  497AUC    AUC  476  -0.562  30.867   7.009
  498AUC    AUC  477  -0.316  30.412   7.897
  499AUC    AUC  478  -0.316  30.715   7.897
  500AUC    AUC  479  -0.316  30.412   7.103
  501AUC    AUC  480  -0.316  30.715   7.103
  502AUC    AUC  481  -0.807  30.412   7.897
  503AUC    AUC  482  -0.807  30.715   7.897
  504AUC    AUC  483  -0.807  30.412   7.103
  505AUC    AUC  484  -0.807  30.715   7.103
  506AUC    AUC  485  -0.165  30.809   7.348
  507AUC    AUC  486  -0.165  30.809   7.651
  508AUC    AUC  487  -0.959  30.809   7.348
  509AUC    AUC  488  -0.959  30.809   7.651
  510AUC    AUC  489  -0.165  30.318   7.348
  511AUC    AUC  490  -0.165  30.318   7.651
  512AUC    AUC  491  -0.959  30.318   7.348
  513AUC    AUC  492  -0.959  30.318   7.651
  514AUC    AUC  493  -0.713  30.961   7.745
  515AUC    AUC  494  -0.410  30.961   7.745
  516AUC    AUC  495  -0.713  30.166   7.745
  517AUC    AUC  496  -0.410  30.166   7.745
  518AUC    AUC  497  -0.713  30.961   7.254
  519AUC    AUC  498  -0.410  30.961   7.254
  520AUC    AUC  499  -0.713  30.166   7.254
  521AUC    AUC  500  -0.410  30.166   7.254
  522AUSL   AUS  501  -0.153  30.564   8.080
  523AUSL   AUS  502  -0.297  30.147   8.011
  524AUL    AUL  503  -0.071  30.260   8.294
  525THSLK    S  504  -0.179  29.959   8.156
  526ETHY    C1  505  -0.083  29.591   8.412
  527ETHY    C1  506   0.095  29.208   8.753
  528ETHY    C1  507   0.337  28.908   9.130
  529ETHY    C1  508   0.633  28.689   9.534
  530THSLK    S  509  -0.054  30.517   8.327
  531ETHY    C1  510   0.173  30.367   8.694
  532ETHY    C1  511   0.457  30.279   9.148
  533ETHY    C1  512   0.741  30.301   9.607
  534ETHY    C1  513   1.018  30.423  10.061
  535AUSL   AUS  514  -0.398  30.412   8.173
  536AUSL   AUS  515  -0.725  30.715   8.173
  537AUL    AUL  516  -0.562  30.564   8.482
  538THSLK    S  517  -0.317  30.361   8.418
  539ETHY    C1  518  -0.227  30.143   8.810
  540ETHY    C1  519  -0.099  29.969   9.308
  541ETHY    C1  520   0.047  29.904   9.823
  542ETHY    C1  521   0.204  29.938  10.346
  543THSLK    S  522  -0.812  30.675   8.432
  544ETHY    C1  523  -0.901  30.601   8.874
  545ETHY    C1  524  -1.025  30.603   9.403
  546ETHY    C1  525  -1.170  30.712   9.912
  547ETHY    C1  526  -1.333  30.916  10.392
  548AUSL   AUS  527  -0.398  30.715   8.173
  549AUSL   AUS  528  -0.052  30.828   7.916
  550AUL    AUL  529  -0.071  30.867   8.294
  551THSLK    S  530  -0.311  30.767   8.416
  552ETHY    C1  531  -0.223  30.984   8.809
  553ETHY    C1  532  -0.098  31.157   9.308
  554ETHY    C1  533   0.047  31.223   9.823
  555ETHY    C1  534   0.210  31.190  10.345
  556THSLK    S  535   0.124  30.934   8.079
  557ETHY    C1  536   0.486  30.984   8.355
  558ETHY    C1  537   0.893  31.133   8.681
  559ETHY    C1  538   1.255  31.382   8.995
  560ETHY    C1  539   1.567  31.718   9.293
  561AUSL   AUS  540  -0.153  30.564   6.920
  562AUSL   AUS  541  -0.297  30.980   6.990
  563AUL    AUL  542  -0.071  30.867   6.706
  564THSLK    S  543  -0.049  30.517   6.676
  565ETHY    C1  544   0.178  30.367   6.308
  566ETHY    C1  545   0.457  30.279   5.851
  567ETHY    C1  546   0.741  30.301   5.393
  568ETHY    C1  547   1.023  30.423   4.941
  569THSLK    S  548  -0.120  31.099   6.820
  570ETHY    C1  549   0.152  31.240   6.480
  571ETHY    C1  550   0.430  31.487   6.085
  572ETHY    C1  551   0.646  31.820   5.720
  573ETHY    C1  552   0.803  32.227   5.391
  574AUSL   AUS  553  -0.398  30.412   6.826
  575AUSL   AUS  554  -0.052  30.299   7.083
  576AUL    AUL  555  -0.071  30.260   6.706
  577THSLK    S  556   0.088  30.108   6.939
  578ETHY    C1  557   0.321  29.791   6.707
  579ETHY    C1  558   0.651  29.484   6.403
  580ETHY    C1  559   1.031  29.275   6.083
  581ETHY    C1  560   1.452  29.158   5.754
  582THSLK    S  561  -0.311  30.360   6.583
  583ETHY    C1  562  -0.223  30.143   6.191
  584ETHY    C1  563  -0.098  29.970   5.692
  585ETHY    C1  564   0.047  29.904   5.176
  586ETHY    C1  565   0.210  29.937   4.656
  587AUSL   AUS  566  -0.398  30.715   6.826
  588AUSL   AUS  567  -0.725  30.412   6.826
  589AUL    AUL  568  -0.562  30.564   6.518
  590THSLK    S  569  -0.821  30.360   6.586
  591ETHY    C1  570  -0.960  30.145   6.206
  592ETHY    C1  571  -1.117  29.974   5.717
  593ETHY    C1  572  -1.256  29.908   5.199
  594ETHY    C1  573  -1.372  29.939   4.666
  595THSLK    S  574  -0.296  30.676   6.572
  596ETHY    C1  575  -0.159  30.599   6.142
  597ETHY    C1  576  -0.006  30.599   5.622
  598ETHY    C1  577   0.132  30.708   5.112
  599ETHY    C1  578   0.255  30.915   4.621
  600AUSL   AUS  579  -0.971  30.564   8.080
  601AUSL   AUS  580  -0.826  30.980   8.011
  602AUL    AUL  581  -1.053  30.867   8.294
  603THSLK    S  582  -1.075  30.517   8.325
  604ETHY    C1  583  -1.301  30.367   8.691
  605ETHY    C1  584  -1.581  30.279   9.148
  606ETHY    C1  585  -1.864  30.301   9.607
  607ETHY    C1  586  -2.147  30.423  10.058
  608THSLK    S  587  -0.949  31.113   8.201
  609ETHY    C1  588  -1.045  31.308   8.604
  610ETHY    C1  589  -1.218  31.589   9.034
  611ETHY    C1  590  -1.461  31.915   9.390
  612ETHY    C1  591  -1.762  32.274   9.671
  613AUSL   AUS  592  -0.725  30.412   8.173
  614AUSL   AUS  593  -1.072  30.299   7.916
  615AUL    AUL  594  -1.053  30.260   8.294
  616THSLK    S  595  -1.251  30.133   8.032
  617ETHY    C1  596  -1.612  29.886   8.166
  618ETHY    C1  597  -2.017  29.620   8.410
  619ETHY    C1  598  -2.378  29.400   8.745
  620ETHY    C1  599  -2.694  29.227   9.156
  621THSLK    S  600  -0.827  30.362   8.413
  622ETHY    C1  601  -0.965  30.147   8.793
  623ETHY    C1  602  -1.118  29.974   9.284
  624ETHY    C1  603  -1.255  29.908   9.800
  625ETHY    C1  604  -1.379  29.940  10.332
  626AUSL   AUS  605  -0.971  30.564   6.920
  627AUSL   AUS  606  -0.826  30.147   6.990
  628AUL    AUL  607  -1.053  30.260   6.706
  629THSLK    S  608  -1.070  30.517   6.673
  630ETHY    C1  609  -1.297  30.367   6.305
  631ETHY    C1  610  -1.580  30.279   5.851
  632ETHY    C1  611  -1.864  30.301   5.393
  633ETHY    C1  612  -2.141  30.423   4.938
  634THSLK    S  613  -1.000  29.972   6.865
  635ETHY    C1  614  -1.272  29.659   6.673
  636ETHY    C1  615  -1.553  29.311   6.367
  637ETHY    C1  616  -1.770  29.003   5.980
  638ETHY    C1  617  -1.922  28.736   5.528
  639AUSL   AUS  618  -0.725  30.715   6.826
  640AUSL   AUS  619  -1.072  30.828   7.083
  641AUL    AUL  620  -1.053  30.867   6.706
  642THSLK    S  621  -1.208  30.959   6.893
  643ETHY    C1  622  -1.442  31.080   6.518
  644ETHY    C1  623  -1.774  31.268   6.132
  645ETHY    C1  624  -2.154  31.507   5.833
  646ETHY    C1  625  -2.571  31.787   5.618
  647THSLK    S  626  -0.806  30.677   6.566
  648ETHY    C1  627  -0.896  30.602   6.124
  649ETHY    C1  628  -1.024  30.603   5.597
  650ETHY    C1  629  -1.170  30.712   5.089
  651ETHY    C1  630  -1.327  30.918   4.608
  652AUSL   AUS  631   0.018  30.973   7.500
  653AUSL   AUS  632  -0.052  30.828   7.083
  654AUL    AUL  633   0.232  31.054   7.196
  655THSLK    S  634   0.128  30.935   6.925
  656ETHY    C1  635   0.489  30.985   6.648
  657ETHY    C1  636   0.893  31.133   6.319
  658ETHY    C1  637   1.255  31.382   6.005
  659ETHY    C1  638   1.571  31.719   5.713
  660THSLK    S  639   0.288  31.034   7.503
  661ETHY    C1  640   0.735  31.134   7.502
  662ETHY    C1  641   1.237  31.340   7.500
  663ETHY    C1  642   1.684  31.642   7.500
  664ETHY    C1  643   2.072  32.026   7.503
  665AUSL   AUS  644   0.112  30.727   7.348
  666AUSL   AUS  645   0.112  30.400   7.651
  667AUL    AUL  646   0.420  30.564   7.500
  668THSLK    S  647   0.374  30.774   7.345
  669ETHY    C1  648   0.824  30.743   7.270
  670ETHY    C1  649   1.356  30.798   7.179
  671ETHY    C1  650   1.863  30.961   7.091
  672ETHY    C1  651   2.338  31.219   7.011
  673THSLK    S  652   0.349  30.263   7.659
  674ETHY    C1  653   0.720  30.005   7.726
  675ETHY    C1  654   1.206  29.779   7.808
  676ETHY    C1  655   1.725  29.659   7.896
  677ETHY    C1  656   2.263  29.637   7.989
  678AUSL   AUS  657   0.112  30.727   7.651
  679AUSL   AUS  658  -0.145  31.074   7.764
  680AUL    AUL  659   0.232  31.054   7.803
  681THSLK    S  660   0.040  31.198   7.924
  682ETHY    C1  661   0.397  31.390   8.136
  683ETHY    C1  662   0.774  31.697   8.377
  684ETHY    C1  663   1.075  32.084   8.602
  685ETHY    C1  664   1.302  32.535   8.809
  686THSLK    S  665   0.373  30.773   7.661
  687ETHY    C1  666   0.824  30.743   7.734
  688ETHY    C1  667   1.357  30.798   7.821
  689ETHY    C1  668   1.863  30.961   7.908
  690ETHY    C1  669   2.337  31.219   7.995
  691AUSL   AUS  670  -1.142  30.973   7.500
  692AUSL   AUS  671  -1.072  30.828   7.916
  693AUL    AUL  672  -1.356  31.054   7.803
  694THSLK    S  673  -1.212  30.954   8.107
  695ETHY    C1  674  -1.445  31.075   8.482
  696ETHY    C1  675  -1.774  31.268   8.868
  697ETHY    C1  676  -2.154  31.507   9.166
  698ETHY    C1  677  -2.575  31.782   9.381
  699THSLK    S  678  -1.363  31.113   7.503
  700ETHY    C1  679  -1.652  31.468   7.502
  701ETHY    C1  680  -2.060  31.825   7.500
  702ETHY    C1  681  -2.530  32.089   7.500
  703ETHY    C1  682  -3.048  32.265   7.503
  704AUSL   AUS  683  -1.235  30.727   7.348
  705AUSL   AUS  684  -0.978  31.074   7.236
  706AUL    AUL  685  -1.356  31.054   7.196
  707THSLK    S  686  -1.472  30.841   7.303
  708ETHY    C1  687  -1.844  31.015   7.101
  709ETHY    C1  688  -2.330  31.191   6.936
  710ETHY    C1  689  -2.848  31.323   6.868
  711ETHY    C1  690  -3.386  31.415   6.890
  712THSLK    S  691  -1.098  31.241   7.056
  713ETHY    C1  692  -1.250  31.560   6.765
  714ETHY    C1  693  -1.504  31.940   6.473
  715ETHY    C1  694  -1.837  32.308   6.260
  716ETHY    C1  695  -2.233  32.658   6.122
  717AUSL   AUS  696  -1.235  30.727   7.651
  718AUSL   AUS  697  -1.235  30.400   7.348
  719AUL    AUL  698  -1.543  30.564   7.500
  720THSLK    S  699  -1.497  30.325   7.384
  721ETHY    C1  700  -1.947  30.274   7.446
  722ETHY    C1  701  -2.480  30.171   7.434
  723ETHY    C1  702  -2.987  30.021   7.327
  724ETHY    C1  703  -3.460  29.828   7.135
  725THSLK    S  704  -1.473  30.835   7.699
  726ETHY    C1  705  -1.844  31.011   7.901
  727ETHY    C1  706  -2.330  31.190   8.063
  728ETHY    C1  707  -2.848  31.323   8.133
  729ETHY    C1  708  -3.387  31.409   8.114
  730AUSL   AUS  709   0.018  30.154   7.500
  731AUSL   AUS  710  -0.052  30.299   7.916
  732AUL    AUL  711   0.232  30.073   7.803
  733THSLK    S  712   0.239  30.014   7.503
  734ETHY    C1  713   0.528  29.659   7.502
  735ETHY    C1  714   0.937  29.302   7.500
  736ETHY    C1  715   1.407  29.038   7.500
  737ETHY    C1  716   1.924  28.862   7.503
  738THSLK    S  717   0.085  30.109   8.066
  739ETHY    C1  718   0.318  29.792   8.297
  740ETHY    C1  719   0.651  29.485   8.598
  741ETHY    C1  720   1.031  29.275   8.918
  742ETHY    C1  721   1.448  29.159   9.250
  743AUSL   AUS  722   0.112  30.400   7.348
  744AUSL   AUS  723  -0.145  30.053   7.236
  745AUL    AUL  724   0.232  30.073   7.196
  746THSLK    S  725   0.350  30.263   7.346
  747ETHY    C1  726   0.721  30.005   7.279
  748ETHY    C1  727   1.206  29.779   7.192
  749ETHY    C1  728   1.725  29.659   7.103
  750ETHY    C1  729   2.264  29.637   7.018
  751THSLK    S  730  -0.022  29.862   7.099
  752ETHY    C1  731   0.128  29.460   6.942
  753ETHY    C1  732   0.381  29.030   6.728
  754ETHY    C1  733   0.713  28.674   6.495
  755ETHY    C1  734   1.112  28.393   6.249
  756AUSL   AUS  735  -1.142  30.154   7.500
  757AUSL   AUS  736  -1.072  30.299   7.083
  758AUL    AUL  737  -1.356  30.073   7.196
  759THSLK    S  738  -1.247  30.128   6.966
  760ETHY    C1  739  -1.609  29.882   6.833
  761ETHY    C1  740  -2.017  29.619   6.589
  762ETHY    C1  741  -2.378  29.400   6.255
  763ETHY    C1  742  -2.690  29.222   5.843
  764THSLK    S  743  -1.412  30.093   7.503
  765ETHY    C1  744  -1.858  29.993   7.502
  766ETHY    C1  745  -2.360  29.787   7.500
  767ETHY    C1  746  -2.807  29.485   7.500
  768ETHY    C1  747  -3.195  29.101   7.503
  769AUSL   AUS  748  -1.235  30.400   7.651
  770AUSL   AUS  749  -0.978  30.053   7.764
  771AUL    AUL  750  -1.356  30.073   7.803
  772THSLK    S  751  -1.166  29.905   7.881
  773ETHY    C1  752  -1.522  29.629   7.958
  774ETHY    C1  753  -1.897  29.272   8.122
  775ETHY    C1  754  -2.198  28.898   8.367
  776ETHY    C1  755  -2.429  28.516   8.682
  777THSLK    S  756  -1.498  30.330   7.618
  778ETHY    C1  757  -1.948  30.278   7.557
  779ETHY    C1  758  -2.480  30.172   7.566
  780ETHY    C1  759  -2.987  30.021   7.673
  781ETHY    C1  760  -3.461  29.833   7.867
  782AUSL   AUS  761  -0.562  31.144   7.909
  783AUSL   AUS  762  -0.978  31.074   7.764
  784AUL    AUL  763  -0.865  31.358   7.991
  785THSLK    S  764  -1.101  31.236   7.948
  786ETHY    C1  765  -1.252  31.556   8.237
  787ETHY    C1  766  -1.505  31.939   8.527
  788ETHY    C1  767  -1.837  32.307   8.740
  789ETHY    C1  768  -2.236  32.653   8.881
  790THSLK    S  769  -0.524  31.375   8.034
  791ETHY    C1  770  -0.396  31.701   8.327
  792ETHY    C1  771  -0.319  32.133   8.646
  793ETHY    C1  772  -0.338  32.598   8.920
  794ETHY    C1  773  -0.444  33.083   9.147
  795AUSL   AUS  774  -0.713  31.237   7.663
  796AUSL   AUS  775  -0.410  31.237   7.336
  797AUL    AUL  776  -0.562  31.545   7.500
  798THSLK    S  777  -0.676  31.489   7.772
  799ETHY    C1  778  -0.603  31.913   7.929
  800ETHY    C1  779  -0.606  32.429   8.095
  801ETHY    C1  780  -0.714  32.940   8.229
  802ETHY    C1  781  -0.918  33.436   8.336
  803THSLK    S  782  -0.359  31.477   7.237
  804ETHY    C1  783  -0.146  31.854   7.091
  805ETHY    C1  784   0.024  32.343   6.929
  806ETHY    C1  785   0.091  32.861   6.792
  807ETHY    C1  786   0.062  33.395   6.682
  808AUSL   AUS  787  -0.410  31.237   7.663
  809AUSL   AUS  788  -0.297  30.980   8.011
  810AUL    AUL  789  -0.258  31.358   7.991
  811THSLK    S  790  -0.124  31.097   8.184
  812ETHY    C1  791   0.149  31.238   8.522
  813ETHY    C1  792   0.430  31.487   8.915
  814ETHY    C1  793   0.646  31.820   9.279
  815ETHY    C1  794   0.798  32.225   9.614
  816THSLK    S  795  -0.360  31.475   7.768
  817ETHY    C1  796  -0.147  31.854   7.913
  818ETHY    C1  797   0.024  32.343   8.072
  819ETHY    C1  798   0.091  32.861   8.207
  820ETHY    C1  799   0.060  33.394   8.325
  821AUSL   AUS  800  -0.562  29.983   7.909
  822AUSL   AUS  801  -0.145  30.053   7.764
  823AUL    AUL  802  -0.258  29.769   7.991
  824THSLK    S  803  -0.603  29.726   7.992
  825ETHY    C1  804  -0.730  29.317   8.152
  826ETHY    C1  805  -0.804  28.836   8.391
  827ETHY    C1  806  -0.785  28.384   8.684
  828ETHY    C1  807  -0.683  27.966   9.021
  829THSLK    S  808  -0.025  29.863   7.907
  830ETHY    C1  809   0.126  29.461   8.062
  831ETHY    C1  810   0.381  29.030   8.272
  832ETHY    C1  811   0.713  28.674   8.505
  833ETHY    C1  812   1.109  28.395   8.758
  834AUSL   AUS  813  -0.713  29.890   7.663
  835AUSL   AUS  814  -0.826  30.147   8.011
  836AUL    AUL  815  -0.865  29.769   7.991
  837THSLK    S  816  -0.764  29.645   7.744
  838ETHY    C1  817  -0.977  29.246   7.812
  839ETHY    C1  818  -1.148  28.743   7.925
  840ETHY    C1  819  -1.214  28.229   8.072
  841ETHY    C1  820  -1.185  27.714   8.252
  842THSLK    S  821  -1.004  29.977   8.136
  843ETHY    C1  822  -1.276  29.662   8.327
  844ETHY    C1  823  -1.554  29.311   8.633
  845ETHY    C1  824  -1.770  29.003   9.019
  846ETHY    C1  825  -1.926  28.741   9.473
  847AUSL   AUS  826  -0.410  29.890   7.663
  848AUSL   AUS  827  -0.713  29.890   7.336
  849AUL    AUL  828  -0.562  29.582   7.500
  850THSLK    S  829  -0.763  29.643   7.261
  851ETHY    C1  830  -0.976  29.245   7.192
  852ETHY    C1  831  -1.148  28.743   7.076
  853ETHY    C1  832  -1.214  28.229   6.927
  854ETHY    C1  833  -1.183  27.712   6.754
  855THSLK    S  834  -0.449  29.631   7.748
  856ETHY    C1  835  -0.521  29.186   7.829
  857ETHY    C1  836  -0.518  28.657   7.948
  858ETHY    C1  837  -0.409  28.149   8.095
  859ETHY    C1  838  -0.207  27.671   8.264
  860AUSL   AUS  839  -0.562  31.144   7.091
  861AUSL   AUS  840  -0.145  31.074   7.236
  862AUL    AUL  841  -0.258  31.358   7.009
  863THSLK    S  842  -0.520  31.378   6.971
  864ETHY    C1  843  -0.393  31.703   6.676
  865ETHY    C1  844  -0.319  32.133   6.353
  866ETHY    C1  845  -0.338  32.598   6.080
  867ETHY    C1  846  -0.441  33.086   5.857
  868THSLK    S  847   0.042  31.199   7.081
  869ETHY    C1  848   0.399  31.391   6.869
  870ETHY    C1  849   0.774  31.697   6.623
  871ETHY    C1  850   1.075  32.084   6.398
  872ETHY    C1  851   1.305  32.536   6.197
  873AUSL   AUS  852  -0.713  31.237   7.336
  874AUSL   AUS  853  -0.826  30.980   6.990
  875AUL    AUL  854  -0.865  31.358   7.009
  876THSLK    S  855  -0.674  31.491   7.233
  877ETHY    C1  856  -0.602  31.914   7.074
  878ETHY    C1  857  -0.605  32.430   6.906
  879ETHY    C1  858  -0.714  32.940   6.770
  880ETHY    C1  859  -0.916  33.438   6.670
  881THSLK    S  860  -0.945  31.117   6.800
  882ETHY    C1  861  -1.041  31.311   6.396
  883ETHY    C1  862  -1.218  31.589   5.966
  884ETHY    C1  863  -1.461  31.914   5.611
  885ETHY    C1  864  -1.757  32.279   5.330
  886AUSL   AUS  865  -0.562  29.983   7.091
  887AUSL   AUS  866  -0.978  30.053   7.236
  888AUL    AUL  867  -0.865  29.769   7.009
  889THSLK    S  868  -1.163  29.900   7.122
  890ETHY    C1  869  -1.520  29.626   7.044
  891ETHY    C1  870  -1.897  29.272   6.878
  892ETHY    C1  871  -2.199  28.898   6.633
  893ETHY    C1  872  -2.426  28.511   6.321
  894THSLK    S  873  -0.600  29.723   7.013
  895ETHY    C1  874  -0.728  29.315   6.852
  896ETHY    C1  875  -0.804  28.836   6.609
  897ETHY    C1  876  -0.785  28.384   6.315
  898ETHY    C1  877  -0.679  27.963   5.983
  899AUSL   AUS  878  -0.410  29.890   7.336
  900AUSL   AUS  879  -0.297  30.147   6.990
  901AUL    AUL  880  -0.258  29.769   7.009
  902THSLK    S  881  -0.447  29.630   7.258
  903ETHY    C1  882  -0.520  29.185   7.175
  904ETHY    C1  883  -0.518  28.657   7.052
  905ETHY    C1  884  -0.410  28.149   6.905
  906ETHY    C1  885  -0.205  27.670   6.742
  907THSLK    S  886  -0.174  29.957   6.847
  908ETHY    C1  887  -0.079  29.589   6.592
  909ETHY    C1  888   0.095  29.208   6.247
  910ETHY    C1  889   0.337  28.908   5.870
  911ETHY    C1  890   0.638  28.687   5.471
  912AUC    AUC  891  30.636  15.459   7.500
  913AUC    AUC  892  30.882  15.459   7.348
  914AUC    AUC  893  30.882  15.459   7.651
  915AUC    AUC  894  30.391  15.459   7.348
  916AUC    AUC  895  30.391  15.459   7.651
  917AUC    AUC  896  30.485  15.704   7.500
  918AUC    AUC  897  30.788  15.704   7.500
  919AUC    AUC  898  30.485  15.213   7.500
  920AUC    AUC  899  30.788  15.213   7.500
  921AUC    AUC  900  30.636  15.307   7.745
  922AUC    AUC  901  30.636  15.610   7.745
  923AUC    AUC  902  30.636  15.307   7.254
  924AUC    AUC  903  30.636  15.610   7.254
  925AUC    AUC  904  31.127  15.459   7.196
  926AUC    AUC  905  31.127  15.459   7.500
  927AUC    AUC  906  31.127  15.459   7.803
  928AUC    AUC  907  30.145  15.459   7.196
  929AUC    AUC  908  30.145  15.459   7.500
  930AUC    AUC  909  30.145  15.459   7.803
  931AUC    AUC  910  30.333  15.949   7.500
  932AUC    AUC  911  30.636  15.949   7.500
  933AUC    AUC  912  30.940  15.949   7.500
  934AUC    AUC  913  30.333  14.968   7.500
  935AUC    AUC  914  30.636  14.968   7.500
  936AUC    AUC  915  30.940  14.968   7.500
  937AUC    AUC  916  30.636  15.155   7.991
  938AUC    AUC  917  30.636  15.459   7.991
  939AUC    AUC  918  30.636  15.762   7.991
  940AUC    AUC  919  30.636  15.155   7.009
  941AUC    AUC  920  30.636  15.459   7.009
  942AUC    AUC  921  30.636  15.762   7.009
  943AUC    AUC  922  30.882  15.307   7.897
  944AUC    AUC  923  30.882  15.610   7.897
  945AUC    AUC  924  30.882  15.307   7.103
  946AUC    AUC  925  30.882  15.610   7.103
  947AUC    AUC  926  30.391  15.307   7.897
  948AUC    AUC  927  30.391  15.610   7.897
  949AUC    AUC  928  30.391  15.307   7.103
  950AUC    AUC  929  30.391  15.610   7.103
  951AUC    AUC  930  31.033  15.704   7.348
  952AUC    AUC  931  31.033  15.704   7.651
  953AUC    AUC  932  30.239  15.704   7.348
  954AUC    AUC  933  30.239  15.704   7.651
  955AUC    AUC  934  31.033  15.213   7.348
  956AUC    AUC  935  31.033  15.213   7.651
  957AUC    AUC  936  30.239  15.213   7.348
  958AUC    AUC  937  30.239  15.213   7.651
  959AUC    AUC  938  30.485  15.856   7.745
  960AUC    AUC  939  30.788  15.856   7.745
  961AUC    AUC  940  30.485  15.061   7.745
  962AUC    AUC  941  30.788  15.061   7.745
  963AUC    AUC  942  30.485  15.856   7.254
  964AUC    AUC  943  30.788  15.856   7.254
  965AUC    AUC  944  30.485  15.061   7.254
  966AUC    AUC  945  30.788  15.061   7.254
  967AUSL   AUS  946  31.045  15.459   8.080
  968AUSL   AUS  947  30.901  15.042   8.011
  969AUL    AUL  948  31.127  15.155   8.294
  970THSLK    S  949  31.019  14.854   8.156
  971ETHY    C1  950  31.115  14.486   8.412
  972ETHY    C1  951  31.293  14.103   8.753
  973ETHY    C1  952  31.535  13.803   9.130
  974ETHY    C1  953  31.831  13.584   9.534
  975THSLK    S  954  31.144  15.412   8.327
  976ETHY    C1  955  31.371  15.262   8.694
  977ETHY    C1  956  31.655  15.174   9.148
  978ETHY    C1  957  31.939  15.196   9.607
  979ETHY    C1  958  32.216  15.318  10.061
  980AUSL   AUS  959  30.800  15.307   8.173
  981AUSL   AUS  960  30.473  15.610   8.173
  982AUL    AUL  961  30.636  15.459   8.482
  983THSLK    S  962  30.881  15.256   8.418
  984ETHY    C1  963  30.971  15.038   8.810
  985ETHY    C1  964  31.099  14.864   9.308
  986ETHY    C1  965  31.245  14.799   9.823
  987ETHY    C1  966  31.402  14.833  10.346
  988THSLK    S  967  30.386  15.570   8.432
  989ETHY    C1  968  30.297  15.496   8.874
  990ETHY    C1  969  30.173  15.498   9.403
  991ETHY    C1  970  30.028  15.607   9.912
  992ETHY    C1  971  29.865  15.811  10.392
  993AUSL   AUS  972  30.800  15.610   8.173
  994AUSL   AUS  973  31.146  15.723   7.916
  995AUL    AUL  974  31.127  15.762   8.294
  996THSLK    S  975  30.887  15.662   8.416
  997ETHY    C1  976  30.975  15.879   8.809
  998ETHY    C1  977  31.100  16.052   9.308
  999ETHY    C1  978  31.245  16.118   9.823
 1000ETHY    C1  979  31.408  16.085  10.345
 1001THSLK    S  980  31.322  15.829   8.079
 1002ETHY    C1  981  31.684  15.879   8.355
 1003ETHY    C1  982  32.091  16.028   8.681
 1004ETHY    C1  983  32.453  16.277   8.995
 1005ETHY    C1  984  32.765  16.613   9.293
 1006AUSL   AUS  985  31.045  15.459   6.920
 1007AUSL   AUS  986  30.901  15.875   6.990
 1008AUL    AUL  987  31.127  15.762   6.706
 1009THSLK    S  988  31.149  15.412   6.676
 1010ETHY    C1  989  31.376  15.262   6.308
 1011ETHY    C1  990  31.655  15.174   5.851
 1012ETHY    C1  991  31.939  15.196   5.393
 1013ETHY    C1  992  32.221  15.318   4.941
 1014THSLK    S  993  31.078  15.994   6.820
 1015ETHY    C1  994  31.350  16.135   6.480
 1016ETHY    C1  995  31.628  16.382   6.085
 1017ETHY    C1  996  31.844  16.715   5.720
 1018ETHY    C1  997  32.001  17.122   5.391
 1019AUSL   AUS  998  30.800  15.307   6.826
 1020AUSL   AUS  999  31.146  15.194   7.083
 1021AUL    AUL 1000  31.127  15.155   6.706
 1022THSLK    S 1001  31.286  15.003   6.939
 1023ETHY    C1 1002  31.519  14.686   6.707
 1024ETHY    C1 1003  31.849  14.379   6.403
 1025ETHY    C1 1004  32.229  14.170   6.083
 1026ETHY    C1 1005  32.650  14.053   5.754
 1027THSLK    S 1006  30.887  15.255   6.583
 1028ETHY    C1 1007  30.975  15.038   6.191
 1029ETHY    C1 1008  31.100  14.865   5.692
 1030ETHY    C1 1009  31.245  14.799   5.176
 1031ETHY    C1 1010  31.408  14.832   4.656
 1032AUSL   AUS 1011  30.800  15.610   6.826
 1033AUSL   AUS 1012  30.473  15.307   6.826
 1034AUL    AUL 1013  30.636  15.459   6.518
 1035THSLK    S 1014  30.377  15.255   6.586
 1036ETHY    C1 1015  30.238  15.040   6.206
 1037ETHY    C1 1016  30.081  14.869   5.717
 1038ETHY    C1 1017  29.942  14.803   5.199
 1039ETHY    C1 1018  29.826  14.834   4.666
 1040THSLK    S 1019  30.902  15.571   6.572
 1041ETHY    C1 1020  31.039  15.494   6.142
 1042ETHY    C1 1021  31.192  15.494   5.622
 1043ETHY    C1 1022  31.330  15.603   5.112
 1044ETHY    C1 1023  31.453  15.810   4.621
 1045AUSL   AUS 1024  30.227  15.459   8.080
 1046AUSL   AUS 1025  30.372  15.875   8.011
 1047AUL    AUL 1026  30.145  15.762   8.294
 1048THSLK    S 1027  30.123  15.412   8.325
 1049ETHY    C1 1028  29.897  15.262   8.691
 1050ETHY    C1 1029  29.617  15.174   9.148
 1051ETHY    C1 1030  29.334  15.196   9.607
 1052ETHY    C1 1031  29.051  15.318  10.058
 1053THSLK    S 1032  30.249  16.008   8.201
 1054ETHY    C1 1033  30.153  16.203   8.604
 1055ETHY    C1 1034  29.980  16.484   9.034
 1056ETHY    C1 1035  29.737  16.810   9.390
 1057ETHY    C1 1036  29.436  17.169   9.671
 1058AUSL   AUS 1037  30.473  15.307   8.173
 1059AUSL   AUS 1038  30.126  15.194   7.916
 1060AUL    AUL 1039  30.145  15.155   8.294
 1061THSLK    S 1040  29.947  15.028   8.032
 1062ETHY    C1 1041  29.586  14.781   8.166
 1063ETHY    C1 1042  29.181  14.515   8.410
 1064ETHY    C1 1043  28.820  14.295   8.745
 1065ETHY    C1 1044  28.504  14.122   9.156
 1066THSLK    S 1045  30.371  15.257   8.413
 1067ETHY    C1 1046  30.233  15.042   8.793
 1068ETHY    C1 1047  30.080  14.869   9.284
 1069ETHY    C1 1048  29.943  14.803   9.800
 1070ETHY    C1 1049  29.819  14.835  10.332
 1071AUSL   AUS 1050  30.227  15.459   6.920
 1072AUSL   AUS 1051  30.372  15.042   6.990
 1073AUL    AUL 1052  30.145  15.155   6.706
 1074THSLK    S 1053  30.128  15.412   6.673
 1075ETHY    C1 1054  29.901  15.262   6.305
 1076ETHY    C1 1055  29.618  15.174   5.851
 1077ETHY    C1 1056  29.334  15.196   5.393
 1078ETHY    C1 1057  29.057  15.318   4.938
 1079THSLK    S 1058  30.198  14.867   6.865
 1080ETHY    C1 1059  29.926  14.554   6.673
 1081ETHY    C1 1060  29.645  14.206   6.367
 1082ETHY    C1 1061  29.428  13.898   5.980
 1083ETHY    C1 1062  29.276  13.631   5.528
 1084AUSL   AUS 1063  30.473  15.610   6.826
 1085AUSL   AUS 1064  30.126  15.723   7.083
 1086AUL    AUL 1065  30.145  15.762   6.706
 1087THSLK    S 1066  29.990  15.854   6.893
 1088ETHY    C1 1067  29.756  15.975   6.518
 1089ETHY    C1 1068  29.424  16.163   6.132
 1090ETHY    C1 1069  29.044  16.402   5.833
 1091ETHY    C1 1070  28.627  16.682   5.618
 1092THSLK    S 1071  30.392  15.572   6.566
 1093ETHY    C1 1072  30.302  15.497   6.124
 1094ETHY    C1 1073  30.174  15.498   5.597
 1095ETHY    C1 1074  30.028  15.607   5.089
 1096ETHY    C1 1075  29.871  15.813   4.608
 1097AUSL   AUS 1076  31.216  15.868   7.500
 1098AUSL   AUS 1077  31.146  15.723   7.083
 1099AUL    AUL 1078  31.430  15.949   7.196
 1100THSLK    S 1079  31.326  15.830   6.925
 1101ETHY    C1 1080  31.687  15.880   6.648
 1102ETHY    C1 1081  32.091  16.028   6.319
 1103ETHY    C1 1082  32.453  16.277   6.005
 1104ETHY    C1 1083  32.769  16.614   5.713
 1105THSLK    S 1084  31.486  15.929   7.503
 1106ETHY    C1 1085  31.933  16.029   7.502
 1107ETHY    C1 1086  32.435  16.235   7.500
 1108ETHY    C1 1087  32.882  16.537   7.500
 1109ETHY    C1 1088  33.270  16.921   7.503
 1110AUSL   AUS 1089  31.310  15.622   7.348
 1111AUSL   AUS 1090  31.310  15.295   7.651
 1112AUL    AUL 1091  31.618  15.459   7.500
 1113THSLK    S 1092  31.572  15.669   7.345
 1114ETHY    C1 1093  32.022  15.638   7.270
 1115ETHY    C1 1094  32.554  15.693   7.179
 1116ETHY    C1 1095  33.061  15.856   7.091
 1117ETHY    C1 1096  33.536  16.114   7.011
 1118THSLK    S 1097  31.547  15.158   7.659
 1119ETHY    C1 1098  31.918  14.900   7.726
 1120ETHY    C1 1099  32.404  14.674   7.808
 1121ETHY    C1 1100  32.923  14.554   7.896
 1122ETHY    C1 1101  33.461  14.532   7.989
 1123AUSL   AUS 1102  31.310  15.622   7.651
 1124AUSL   AUS 1103  31.053  15.969   7.764
 1125AUL    AUL 1104  31.430  15.949   7.803
 1126THSLK    S 1105  31.238  16.093   7.924
 1127ETHY    C1 1106  31.595  16.285   8.136
 1128ETHY    C1 1107  31.972  16.592   8.377
 1129ETHY    C1 1108  32.273  16.979   8.602
 1130ETHY    C1 1109  32.500  17.430   8.809
 1131THSLK    S 1110  31.571  15.668   7.661
 1132ETHY    C1 1111  32.022  15.638   7.734
 1133ETHY    C1 1112  32.555  15.693   7.821
 1134ETHY    C1 1113  33.061  15.856   7.908
 1135ETHY    C1 1114  33.535  16.114   7.995
 1136AUSL   AUS 1115  30.056  15.868   7.500
 1137AUSL   AUS 1116  30.126  15.723   7.916
 1138AUL    AUL 1117  29.842  15.949   7.803
 1139THSLK    S 1118  29.986  15.849   8.107
 1140ETHY    C1 1119  29.753  15.970   8.482
 1141ETHY    C1 1120  29.424  16.163   8.868
 1142ETHY    C1 1121  29.044  16.402   9.166
 1143ETHY    C1 1122  28.623  16.677   9.381
 1144THSLK    S 1123  29.835  16.008   7.503
 1145ETHY    C1 1124  29.546  16.363   7.502
 1146ETHY    C1 1125  29.138  16.720   7.500
 1147ETHY    C1 1126  28.668  16.984   7.500
 1148ETHY    C1 1127  28.150  17.160   7.503
 1149AUSL   AUS 1128  29.963  15.622   7.348
 1150AUSL   AUS 1129  30.220  15.969   7.236
 1151AUL    AUL 1130  29.842  15.949   7.196
 1152THSLK    S 1131  29.726  15.736   7.303
 1153ETHY    C1 1132  29.354  15.910   7.101
 1154ETHY    C1 1133  28.868  16.086   6.936
 1155ETHY    C1 1134  28.350  16.218   6.868
 1156ETHY    C1 1135  27.812  16.310   6.890
 1157THSLK    S 1136  30.100  16.136   7.056
 1158ETHY    C1 1137  29.948  16.455   6.765
 1159ETHY    C1 1138  29.694  16.835   6.473
 1160ETHY    C1 1139  29.361  17.203   6.260
 1161ETHY    C1 1140  28.965  17.553   6.122
 1162AUSL   AUS 1141  29.963  15.622   7.651
 1163AUSL   AUS 1142  29.963  15.295   7.348
 1164AUL    AUL 1143  29.655  15.459   7.500
 1165THSLK    S 1144  29.701  15.220   7.384
 1166ETHY    C1 1145  29.251  15.169   7.446
 1167ETHY    C1 1146  28.718  15.066   7.434
 1168ETHY    C1 1147  28.211  14.916   7.327
 1169ETHY    C1 1148  27.738  14.723   7.135
 1170THSLK    S 1149  29.725  15.730   7.699
 1171ETHY    C1 1150  29.354  15.906   7.901
 1172ETHY    C1 1151  28.868  16.085   8.063
 1173ETHY    C1 1152  28.350  16.218   8.133
 1174ETHY    C1 1153  27.811  16.304   8.114
 1175AUSL   AUS 1154  31.216  15.049   7.500
 1176AUSL   AUS 1155  31.146  15.194   7.916
 1177AUL    AUL 1156  31.430  14.968   7.803
 1178THSLK    S 1157  31.437  14.909   7.503
 1179ETHY    C1 1158  31.726  14.554   7.502
 1180ETHY    C1 1159  32.135  14.197   7.500
 1181ETHY    C1 1160  32.605  13.933   7.500
 1182ETHY    C1 1161  33.122  13.757   7.503
 1183THSLK    S 1162  31.283  15.004   8.066
 1184ETHY    C1 1163  31.516  14.687   8.297
 1185ETHY    C1 1164  31.849  14.380   8.598
 1186ETHY    C1 1165  32.229  14.170   8.918
 1187ETHY    C1 1166  32.646  14.054   9.250
 1188AUSL   AUS 1167  31.310  15.295   7.348
 1189AUSL   AUS 1168  31.053  14.948   7.236
 1190AUL    AUL 1169  31.430  14.968   7.196
 1191THSLK    S 1170  31.548  15.158   7.346
 1192ETHY    C1 1171  31.919  14.900   7.279
 1193ETHY    C1 1172  32.404  14.674   7.192
 1194ETHY    C1 1173  32.923  14.554   7.103
 1195ETHY    C1 1174  33.462  14.532   7.018
 1196THSLK    S 1175  31.176  14.757   7.099
 1197ETHY    C1 1176  31.326  14.355   6.942
 1198ETHY    C1 1177  31.579  13.925   6.728
 1199ETHY    C1 1178  31.911  13.569   6.495
 1200ETHY    C1 1179  32.310  13.288   6.249
 1201AUSL   AUS 1180  30.056  15.049   7.500
 1202AUSL   AUS 1181  30.126  15.194   7.083
 1203AUL    AUL 1182  29.842  14.968   7.196
 1204THSLK    S 1183  29.951  15.023   6.966
 1205ETHY    C1 1184  29.589  14.777   6.833
 1206ETHY    C1 1185  29.181  14.514   6.589
 1207ETHY    C1 1186  28.820  14.295   6.255
 1208ETHY    C1 1187  28.508  14.117   5.843
 1209THSLK    S 1188  29.786  14.988   7.503
 1210ETHY    C1 1189  29.340  14.888   7.502
 1211ETHY    C1 1190  28.838  14.682   7.500
 1212ETHY    C1 1191  28.391  14.380   7.500
 1213ETHY    C1 1192  28.003  13.996   7.503
 1214AUSL   AUS 1193  29.963  15.295   7.651
 1215AUSL   AUS 1194  30.220  14.948   7.764
 1216AUL    AUL 1195  29.842  14.968   7.803
 1217THSLK    S 1196  30.032  14.800   7.881
 1218ETHY    C1 1197  29.676  14.524   7.958
 1219ETHY    C1 1198  29.301  14.167   8.122
 1220ETHY    C1 1199  29.000  13.793   8.367
 1221ETHY    C1 1200  28.769  13.411   8.682
 1222THSLK    S 1201  29.700  15.225   7.618
 1223ETHY    C1 1202  29.250  15.173   7.557
 1224ETHY    C1 1203  28.718  15.067   7.566
 1225ETHY    C1 1204  28.211  14.916   7.673
 1226ETHY    C1 1205  27.737  14.728   7.867
 1227AUSL   AUS 1206  30.636  16.039   7.909
 1228AUSL   AUS 1207  30.220  15.969   7.764
 1229AUL    AUL 1208  30.333  16.253   7.991
 1230THSLK    S 1209  30.097  16.131   7.948
 1231ETHY    C1 1210  29.946  16.451   8.237
 1232ETHY    C1 1211  29.693  16.834   8.527
 1233ETHY    C1 1212  29.361  17.202   8.740
 1234ETHY    C1 1213  28.962  17.548   8.881
 1235THSLK    S 1214  30.674  16.270   8.034
 1236ETHY    C1 1215  30.802  16.596   8.327
 1237ETHY    C1 1216  30.879  17.028   8.646
 1238ETHY    C1 1217  30.860  17.493   8.920
 1239ETHY    C1 1218  30.754  17.978   9.147
 1240AUSL   AUS 1219  30.485  16.132   7.663
 1241AUSL   AUS 1220  30.788  16.132   7.336
 1242AUL    AUL 1221  30.636  16.440   7.500
 1243THSLK    S 1222  30.522  16.384   7.772
 1244ETHY    C1 1223  30.595  16.808   7.929
 1245ETHY    C1 1224  30.592  17.324   8.095
 1246ETHY    C1 1225  30.484  17.835   8.229
 1247ETHY    C1 1226  30.280  18.331   8.336
 1248THSLK    S 1227  30.839  16.372   7.237
 1249ETHY    C1 1228  31.052  16.749   7.091
 1250ETHY    C1 1229  31.222  17.238   6.929
 1251ETHY    C1 1230  31.289  17.756   6.792
 1252ETHY    C1 1231  31.260  18.290   6.682
 1253AUSL   AUS 1232  30.788  16.132   7.663
 1254AUSL   AUS 1233  30.901  15.875   8.011
 1255AUL    AUL 1234  30.940  16.253   7.991
 1256THSLK    S 1235  31.074  15.992   8.184
 1257ETHY    C1 1236  31.347  16.133   8.522
 1258ETHY    C1 1237  31.628  16.382   8.915
 1259ETHY    C1 1238  31.844  16.715   9.279
 1260ETHY    C1 1239  31.996  17.120   9.614
 1261THSLK    S 1240  30.838  16.370   7.768
 1262ETHY    C1 1241  31.051  16.749   7.913
 1263ETHY    C1 1242  31.222  17.238   8.072
 1264ETHY    C1 1243  31.289  17.756   8.207
 1265ETHY    C1 1244  31.258  18.289   8.325
 1266AUSL   AUS 1245  30.636  14.878   7.909
 1267AUSL   AUS 1246  31.053  14.948   7.764
 1268AUL    AUL 1247  30.940  14.664   7.991
 1269THSLK    S 1248  30.595  14.621   7.992
 1270ETHY    C1 1249  30.468  14.212   8.152
 1271ETHY    C1 1250  30.394  13.731   8.391
 1272ETHY    C1 1251  30.413  13.279   8.684
 1273ETHY    C1 1252  30.515  12.861   9.021
 1274THSLK    S 1253  31.173  14.758   7.907
 1275ETHY    C1 1254  31.324  14.356   8.062
 1276ETHY    C1 1255  31.579  13.925   8.272
 1277ETHY    C1 1256  31.911  13.569   8.505
 1278ETHY    C1 1257  32.307  13.290   8.758
 1279AUSL   AUS 1258  30.485  14.785   7.663
 1280AUSL   AUS 1259  30.372  15.042   8.011
 1281AUL    AUL 1260  30.333  14.664   7.991
 1282THSLK    S 1261  30.434  14.540   7.744
 1283ETHY    C1 1262  30.221  14.141   7.812
 1284ETHY    C1 1263  30.050  13.638   7.925
 1285ETHY    C1 1264  29.984  13.124   8.072
 1286ETHY    C1 1265  30.013  12.609   8.252
 1287THSLK    S 1266  30.194  14.872   8.136
 1288ETHY    C1 1267  29.922  14.557   8.327
 1289ETHY    C1 1268  29.644  14.206   8.633
 1290ETHY    C1 1269  29.428  13.898   9.019
 1291ETHY    C1 1270  29.272  13.636   9.473
 1292AUSL   AUS 1271  30.788  14.785   7.663
 1293AUSL   AUS 1272  30.485  14.785   7.336
 1294AUL    AUL 1273  30.636  14.477   7.500
 1295THSLK    S 1274  30.435  14.538   7.261
 1296ETHY    C1 1275  30.222  14.140   7.192
 1297ETHY    C1 1276  30.050  13.638   7.076
 1298ETHY    C1 1277  29.984  13.124   6.927
 1299ETHY    C1 1278  30.015  12.607   6.754
 1300THSLK    S 1279  30.749  14.526   7.748
 1301ETHY    C1 1280  30.677  14.081   7.829
 1302ETHY    C1 1281  30.680  13.552   7.948
 1303ETHY    C1 1282  30.789  13.044   8.095
 1304ETHY    C1 1283  30.991  12.566   8.264
 1305AUSL   AUS 1284  30.636  16.039   7.091
 1306AUSL   AUS 1285  31.053  15.969   7.236
 1307AUL    AUL 1286  30.940  16.253   7.009
 1308THSLK    S 1287  30.678  16.273   6.971
 1309ETHY    C1 1288  30.805  16.598   6.676
 1310ETHY    C1 1289  30.879  17.028   6.353
 1311ETHY    C1 1290  30.860  17.493   6.080
 1312ETHY    C1 1291  30.757  17.981   5.857
 1313THSLK    S 1292  31.240  16.094   7.081
 1314ETHY    C1 1293  31.597  16.286   6.869
 1315ETHY    C1 1294  31.972  16.592   6.623
 1316ETHY    C1 1295  32.273  16.979   6.398
 1317ETHY    C1 1296  32.503  17.431   6.197
 1318AUSL   AUS 1297  30.485  16.132   7.336
 1319AUSL   AUS 1298  30.372  15.875   6.990
 1320AUL    AUL 1299  30.333  16.253   7.009
 1321THSLK    S 1300  30.524  16.386   7.233
 1322ETHY    C1 1301  30.596  16.809   7.074
 1323ETHY    C1 1302  30.593  17.325   6.906
 1324ETHY    C1 1303  30.484  17.835   6.770
 1325ETHY    C1 1304  30.282  18.333   6.670
 1326THSLK    S 1305  30.253  16.012   6.800
 1327ETHY    C1 1306  30.157  16.206   6.396
 1328ETHY    C1 1307  29.980  16.484   5.966
 1329ETHY    C1 1308  29.737  16.809   5.611
 1330ETHY    C1 1309  29.441  17.174   5.330
 1331AUSL   AUS 1310  30.636  14.878   7.091
 1332AUSL   AUS 1311  30.220  14.948   7.236
 1333AUL    AUL 1312  30.333  14.664   7.009
 1334THSLK    S 1313  30.035  14.795   7.122
 1335ETHY    C1 1314  29.678  14.521   7.044
 1336ETHY    C1 1315  29.301  14.167   6.878
 1337ETHY    C1 1316  28.999  13.793   6.633
 1338ETHY    C1 1317  28.772  13.406   6.321
 1339THSLK    S 1318  30.598  14.618   7.013
 1340ETHY    C1 1319  30.470  14.210   6.852
 1341ETHY    C1 1320  30.394  13.731   6.609
 1342ETHY    C1 1321  30.413  13.279   6.315
 1343ETHY    C1 1322  30.519  12.858   5.983
 1344AUSL   AUS 1323  30.788  14.785   7.336
 1345AUSL   AUS 1324  30.901  15.042   6.990
 1346AUL    AUL 1325  30.940  14.664   7.009
 1347THSLK    S 1326  30.751  14.525   7.258
 1348ETHY    C1 1327  30.678  14.080   7.175
 1349ETHY    C1 1328  30.680  13.552   7.052
 1350ETHY    C1 1329  30.788  13.044   6.905
 1351ETHY    C1 1330  30.993  12.565   6.742
 1352THSLK    S 1331  31.024  14.852   6.847
 1353ETHY    C1 1332  31.119  14.484   6.592
 1354ETHY    C1 1333  31.293  14.103   6.247
 1355ETHY    C1 1334  31.535  13.803   5.870
 1356ETHY    C1 1335  31.836  13.582   5.471
 1357AUC    AUC 1336   0.490   2.506   7.500
 1358AUC    AUC 1337   0.736   2.506   7.348
 1359AUC    AUC 1338   0.736   2.506   7.651
 1360AUC    AUC 1339   0.245   2.506   7.348
 1361AUC    AUC 1340   0.245   2.506   7.651
 1362AUC    AUC 1341   0.339   2.751   7.500
 1363AUC    AUC 1342   0.642   2.751   7.500
 1364AUC    AUC 1343   0.339   2.260   7.500
 1365AUC    AUC 1344   0.642   2.260   7.500
 1366AUC    AUC 1345   0.490   2.354   7.745
 1367AUC    AUC 1346   0.490   2.657   7.745
 1368AUC    AUC 1347   0.490   2.354   7.254
 1369AUC    AUC 1348   0.490   2.657   7.254
 1370AUC    AUC 1349   0.981   2.506   7.196
 1371AUC    AUC 1350   0.981   2.506   7.500
 1372AUC    AUC 1351   0.981   2.506   7.803
 1373AUC    AUC 1352  -0.001   2.506   7.196
 1374AUC    AUC 1353  -0.001   2.506   7.500
 1375AUC    AUC 1354  -0.001   2.506   7.803
 1376AUC    AUC 1355   0.187   2.996   7.500
 1377AUC    AUC 1356   0.490   2.996   7.500
 1378AUC    AUC 1357   0.794   2.996   7.500
 1379AUC    AUC 1358   0.187   2.015   7.500
 1380AUC    AUC 1359   0.490   2.015   7.500
 1381AUC    AUC 1360   0.794   2.015   7.500
 1382AUC    AUC 1361   0.490   2.202   7.991
 1383AUC    AUC 1362   0.490   2.506   7.991
 1384AUC    AUC 1363   0.490   2.809   7.991
 1385AUC    AUC 1364   0.490   2.202   7.009
 1386AUC    AUC 1365   0.490   2.506   7.009
 1387AUC    AUC 1366   0.490   2.809   7.009
 1388AUC    AUC 1367   0.736   2.354   7.897
 1389AUC    AUC 1368   0.736   2.657   7.897
 1390AUC    AUC 1369   0.736   2.354   7.103
 1391AUC    AUC 1370   0.736   2.657   7.103
 1392AUC    AUC 1371   0.245   2.354   7.897
 1393AUC    AUC 1372   0.245   2.657   7.897
 1394AUC    AUC 1373   0.245   2.354   7.103
 1395AUC    AUC 1374   0.245   2.657   7.103
 1396AUC    AUC 1375   0.887   2.751   7.348
 1397AUC    AUC 1376   0.887   2.751   7.651
 1398AUC    AUC 1377   0.093   2.751   7.348
 1399AUC    AUC 1378   0.093   2.751   7.651
 1400AUC    AUC 1379   0.887   2.260   7.348
 1401AUC    AUC 1380   0.887   2.260   7.651
 1402AUC    AUC 1381   0.093   2.260   7.348
 1403AUC    AUC 1382   0.093   2.260   7.651
 1404AUC    AUC 1383   0.339   2.903   7.745
 1405AUC    AUC 1384   0.642   2.903   7.745
 1406AUC    AUC 1385   0.339   2.108   7.745
 1407AUC    AUC 1386   0.642   2.108   7.745
 1408AUC    AUC 1387   0.339   2.903   7.254
 1409AUC    AUC 1388   0.642   2.903   7.254
 1410AUC    AUC 1389   0.339   2.108   7.254
 1411AUC    AUC 1390   0.642   2.108   7.254
 1412AUSL   AUS 1391   0.899   2.506   8.080
 1413AUSL   AUS 1392   0.755   2.089   8.011
 1414AUL    AUL 1393   0.981   2.202   8.294
 1415THSLK    S 1394   0.873   1.901   8.156
 1416ETHY    C1 1395   0.969   1.533   8.412
 1417ETHY    C1 1396   1.147   1.150   8.753
 1418ETHY    C1 1397   1.389   0.850   9.130
 1419ETHY    C1 1398   1.685   0.631   9.534
 1420THSLK    S 1399   0.998   2.459   8.327
 1421ETHY    C1 1400   1.225   2.309   8.694
 1422ETHY    C1 1401   1.509   2.221   9.148
 1423ETHY    C1 1402   1.793   2.243   9.607
 1424ETHY    C1 1403   2.070   2.365  10.061
 1425AUSL   AUS 1404   0.654   2.354   8.173
 1426AUSL   AUS 1405   0.327   2.657   8.173
 1427AUL    AUL 1406   0.490   2.506   8.482
 1428THSLK    S 1407   0.735   2.303   8.418
 1429ETHY    C1 1408   0.825   2.085   8.810
 1430ETHY    C1 1409   0.953   1.911   9.308
 1431ETHY    C1 1410   1.099   1.846   9.823
 1432ETHY    C1 1411   1.256   1.880  10.346
 1433THSLK    S 1412   0.240   2.617   8.432
 1434ETHY    C1 1413   0.151   2.543   8.874
 1435ETHY    C1 1414   0.027   2.545   9.403
 1436ETHY    C1 1415  -0.118   2.654   9.912
 1437ETHY    C1 1416  -0.281   2.858  10.392
 1438AUSL   AUS 1417   0.654   2.657   8.173
 1439AUSL   AUS 1418   1.000   2.770   7.916
 1440AUL    AUL 1419   0.981   2.809   8.294
 1441THSLK    S 1420   0.741   2.709   8.416
 1442ETHY    C1 1421   0.829   2.926   8.809
 1443ETHY    C1 1422   0.954   3.099   9.308
 1444ETHY    C1 1423   1.099   3.165   9.823
 1445ETHY    C1 1424   1.262   3.132  10.345
 1446THSLK    S 1425   1.176   2.876   8.079
 1447ETHY    C1 1426   1.538   2.926   8.355
 1448ETHY    C1 1427   1.945   3.075   8.681
 1449ETHY    C1 1428   2.307   3.324   8.995
 1450ETHY    C1 1429   2.619   3.660   9.293
 1451AUSL   AUS 1430   0.899   2.506   6.920
 1452AUSL   AUS 1431   0.755   2.922   6.990
 1453AUL    AUL 1432   0.981   2.809   6.706
 1454THSLK    S 1433   1.003   2.459   6.676
 1455ETHY    C1 1434   1.230   2.309   6.308
 1456ETHY    C1 1435   1.509   2.221   5.851
 1457ETHY    C1 1436   1.793   2.243   5.393
 1458ETHY    C1 1437   2.075   2.365   4.941
 1459THSLK    S 1438   0.932   3.041   6.820
 1460ETHY    C1 1439   1.204   3.182   6.480
 1461ETHY    C1 1440   1.482   3.429   6.085
 1462ETHY    C1 1441   1.698   3.762   5.720
 1463ETHY    C1 1442   1.855   4.169   5.391
 1464AUSL   AUS 1443   0.654   2.354   6.826
 1465AUSL   AUS 1444   1.000   2.241   7.083
 1466AUL    AUL 1445   0.981   2.202   6.706
 1467THSLK    S 1446   1.140   2.050   6.939
 1468ETHY    C1 1447   1.373   1.733   6.707
 1469ETHY    C1 1448   1.703   1.426   6.403
 1470ETHY    C1 1449   2.083   1.217   6.083
 1471ETHY    C1 1450   2.504   1.100   5.754
 1472THSLK    S 1451   0.741   2.302   6.583
 1473ETHY    C1 1452   0.829   2.085   6.191
 1474ETHY    C1 1453   0.954   1.912   5.692
 1475ETHY    C1 1454   1.099   1.846   5.176
 1476ETHY    C1 1455   1.262   1.879   4.656
 1477AUSL   AUS 1456   0.654   2.657   6.826
 1478AUSL   AUS 1457   0.327   2.354   6.826
 1479AUL    AUL 1458   0.490   2.506   6.518
 1480THSLK    S 1459   0.231   2.302   6.586
 1481ETHY    C1 1460   0.092   2.087   6.206
 1482ETHY    C1 1461  -0.065   1.916   5.717
 1483ETHY    C1 1462  -0.204   1.850   5.199
 1484ETHY    C1 1463  -0.320   1.881   4.666
 1485THSLK    S 1464   0.756   2.618   6.572
 1486ETHY    C1 1465   0.893   2.541   6.142
 1487ETHY    C1 1466   1.046   2.541   5.622
 1488ETHY    C1 1467   1.184   2.650   5.112
 1489ETHY    C1 1468   1.307   2.857   4.621
 1490AUSL   AUS 1469   0.081   2.506   8.080
 1491AUSL   AUS 1470   0.226   2.922   8.011
 1492AUL    AUL 1471  -0.001   2.809   8.294
 1493THSLK    S 1472  -0.023   2.459   8.325
 1494ETHY    C1 1473  -0.249   2.309   8.691
 1495ETHY    C1 1474  -0.529   2.221   9.148
 1496ETHY    C1 1475  -0.812   2.243   9.607
 1497ETHY    C1 1476  -1.095   2.365  10.058
 1498THSLK    S 1477   0.103   3.055   8.201
 1499ETHY    C1 1478   0.007   3.250   8.604
 1500ETHY    C1 1479  -0.166   3.531   9.034
 1501ETHY    C1 1480  -0.409   3.857   9.390
 1502ETHY    C1 1481  -0.710   4.216   9.671
 1503AUSL   AUS 1482   0.327   2.354   8.173
 1504AUSL   AUS 1483  -0.020   2.241   7.916
 1505AUL    AUL 1484  -0.001   2.202   8.294
 1506THSLK    S 1485  -0.199   2.075   8.032
 1507ETHY    C1 1486  -0.560   1.828   8.166
 1508ETHY    C1 1487  -0.965   1.562   8.410
 1509ETHY    C1 1488  -1.326   1.342   8.745
 1510ETHY    C1 1489  -1.642   1.169   9.156
 1511THSLK    S 1490   0.225   2.304   8.413
 1512ETHY    C1 1491   0.087   2.089   8.793
 1513ETHY    C1 1492  -0.066   1.916   9.284
 1514ETHY    C1 1493  -0.203   1.850   9.800
 1515ETHY    C1 1494  -0.327   1.882  10.332
 1516AUSL   AUS 1495   0.081   2.506   6.920
 1517AUSL   AUS 1496   0.226   2.089   6.990
 1518AUL    AUL 1497  -0.001   2.202   6.706
 1519THSLK    S 1498  -0.018   2.459   6.673
 1520ETHY    C1 1499  -0.245   2.309   6.305
 1521ETHY    C1 1500  -0.528   2.221   5.851
 1522ETHY    C1 1501  -0.812   2.243   5.393
 1523ETHY    C1 1502  -1.089   2.365   4.938
 1524THSLK    S 1503   0.052   1.914   6.865
 1525ETHY    C1 1504  -0.220   1.601   6.673
 1526ETHY    C1 1505  -0.501   1.253   6.367
 1527ETHY    C1 1506  -0.718   0.945   5.980
 1528ETHY    C1 1507  -0.870   0.678   5.528
 1529AUSL   AUS 1508   0.327   2.657   6.826
 1530AUSL   AUS 1509  -0.020   2.770   7.083
 1531AUL    AUL 1510  -0.001   2.809   6.706
 1532THSLK    S 1511  -0.156   2.901   6.893
 1533ETHY    C1 1512  -0.390   3.022   6.518
 1534ETHY    C1 1513  -0.722   3.210   6.132
 1535ETHY    C1 1514  -1.102   3.449   5.833
 1536ETHY    C1 1515  -1.519   3.729   5.618
 1537THSLK    S 1516   0.246   2.619   6.566
 1538ETHY    C1 1517   0.156   2.544   6.124
 1539ETHY    C1 1518   0.028   2.545   5.597
 1540ETHY    C1 1519  -0.118   2.654   5.089
 1541ETHY    C1 1520  -0.275   2.860   4.608
 1542AUSL   AUS 1521   1.070   2.915   7.500
 1543AUSL   AUS 1522   1.000   2.770   7.083
 1544AUL    AUL 1523   1.284   2.996   7.196
 1545THSLK    S 1524   1.180   2.877   6.925
 1546ETHY    C1 1525   1.541   2.927   6.648
 1547ETHY    C1 1526   1.945   3.075   6.319
 1548ETHY    C1 1527   2.307   3.324   6.005
 1549ETHY    C1 1528   2.623   3.661   5.713
 1550THSLK    S 1529   1.340   2.976   7.503
 1551ETHY    C1 1530   1.787   3.076   7.502
 1552ETHY    C1 1531   2.289   3.282   7.500
 1553ETHY    C1 1532   2.736   3.584   7.500
 1554ETHY    C1 1533   3.124   3.968   7.503
 1555AUSL   AUS 1534   1.164   2.669   7.348
 1556AUSL   AUS 1535   1.164   2.342   7.651
 1557AUL    AUL 1536   1.472   2.506   7.500
 1558THSLK    S 1537   1.426   2.716   7.345
 1559ETHY    C1 1538   1.876   2.685   7.270
 1560ETHY    C1 1539   2.408   2.740   7.179
 1561ETHY    C1 1540   2.915   2.903   7.091
 1562ETHY    C1 1541   3.390   3.161   7.011
 1563THSLK    S 1542   1.401   2.205   7.659
 1564ETHY    C1 1543   1.772   1.947   7.726
 1565ETHY    C1 1544   2.258   1.721   7.808
 1566ETHY    C1 1545   2.777   1.601   7.896
 1567ETHY    C1 1546   3.315   1.579   7.989
 1568AUSL   AUS 1547   1.164   2.669   7.651
 1569AUSL   AUS 1548   0.907   3.016   7.764
 1570AUL    AUL 1549   1.284   2.996   7.803
 1571THSLK    S 1550   1.092   3.140   7.924
 1572ETHY    C1 1551   1.449   3.332   8.136
 1573ETHY    C1 1552   1.826   3.639   8.377
 1574ETHY    C1 1553   2.127   4.026   8.602
 1575ETHY    C1 1554   2.354   4.477   8.809
 1576THSLK    S 1555   1.425   2.715   7.661
 1577ETHY    C1 1556   1.876   2.685   7.734
 1578ETHY    C1 1557   2.409   2.740   7.821
 1579ETHY    C1 1558   2.915   2.903   7.908
 1580ETHY    C1 1559   3.389   3.161   7.995
 1581AUSL   AUS 1560  -0.090   2.915   7.500
 1582AUSL   AUS 1561  -0.020   2.770   7.916
 1583AUL    AUL 1562  -0.304   2.996   7.803
 1584THSLK    S 1563  -0.160   2.896   8.107
 1585ETHY    C1 1564  -0.393   3.017   8.482
 1586ETHY    C1 1565  -0.722   3.210   8.868
 1587ETHY    C1 1566  -1.102   3.449   9.166
 1588ETHY    C1 1567  -1.523   3.724   9.381
 1589THSLK    S 1568  -0.311   3.055   7.503
 1590ETHY    C1 1569  -0.600   3.410   7.502
 1591ETHY    C1 1570  -1.008   3.767   7.500
 1592ETHY    C1 1571  -1.478   4.031   7.500
 1593ETHY    C1 1572  -1.996   4.207   7.503
 1594AUSL   AUS 1573  -0.183   2.669   7.348
 1595AUSL   AUS 1574   0.074   3.016   7.236
 1596AUL    AUL 1575  -0.304   2.996   7.196
 1597THSLK    S 1576  -0.420   2.783   7.303
 1598ETHY    C1 1577  -0.792   2.957   7.101
 1599ETHY    C1 1578  -1.278   3.133   6.936
 1600ETHY    C1 1579  -1.796   3.265   6.868
 1601ETHY    C1 1580  -2.334   3.357   6.890
 1602THSLK    S 1581  -0.046   3.183   7.056
 1603ETHY    C1 1582  -0.198   3.502   6.765
 1604ETHY    C1 1583  -0.452   3.882   6.473
 1605ETHY    C1 1584  -0.785   4.250   6.260
 1606ETHY    C1 1585  -1.181   4.600   6.122
 1607AUSL   AUS 1586  -0.183   2.669   7.651
 1608AUSL   AUS 1587  -0.183   2.342   7.348
 1609AUL    AUL 1588  -0.491   2.506   7.500
 1610THSLK    S 1589  -0.445   2.267   7.384
 1611ETHY    C1 1590  -0.895   2.216   7.446
 1612ETHY    C1 1591  -1.428   2.113   7.434
 1613ETHY    C1 1592  -1.935   1.963   7.327
 1614ETHY    C1 1593  -2.408   1.770   7.135
 1615THSLK    S 1594  -0.421   2.777   7.699
 1616ETHY    C1 1595  -0.792   2.953   7.901
 1617ETHY    C1 1596  -1.278   3.132   8.063
 1618ETHY    C1 1597  -1.796   3.265   8.133
 1619ETHY    C1 1598  -2.335   3.351   8.114
 1620AUSL   AUS 1599   1.070   2.096   7.500
 1621AUSL   AUS 1600   1.000   2.241   7.916
 1622AUL    AUL 1601   1.284   2.015   7.803
 1623THSLK    S 1602   1.291   1.956   7.503
 1624ETHY    C1 1603   1.580   1.601   7.502
 1625ETHY    C1 1604   1.989   1.244   7.500
 1626ETHY    C1 1605   2.459   0.980   7.500
 1627ETHY    C1 1606   2.976   0.804   7.503
 1628THSLK    S 1607   1.137   2.051   8.066
 1629ETHY    C1 1608   1.370   1.734   8.297
 1630ETHY    C1 1609   1.703   1.427   8.598
 1631ETHY    C1 1610   2.083   1.217   8.918
 1632ETHY    C1 1611   2.500   1.101   9.250
 1633AUSL   AUS 1612   1.164   2.342   7.348
 1634AUSL   AUS 1613   0.907   1.995   7.236
 1635AUL    AUL 1614   1.284   2.015   7.196
 1636THSLK    S 1615   1.402   2.205   7.346
 1637ETHY    C1 1616   1.773   1.947   7.279
 1638ETHY    C1 1617   2.258   1.721   7.192
 1639ETHY    C1 1618   2.777   1.601   7.103
 1640ETHY    C1 1619   3.316   1.579   7.018
 1641THSLK    S 1620   1.030   1.804   7.099
 1642ETHY    C1 1621   1.180   1.402   6.942
 1643ETHY    C1 1622   1.433   0.972   6.728
 1644ETHY    C1 1623   1.765   0.616   6.495
 1645ETHY    C1 1624   2.164   0.335   6.249
 1646AUSL   AUS 1625  -0.090   2.096   7.500
 1647AUSL   AUS 1626  -0.020   2.241   7.083
 1648AUL    AUL 1627  -0.304   2.015   7.196
 1649THSLK    S 1628  -0.195   2.070   6.966
 1650ETHY    C1 1629  -0.557   1.824   6.833
 1651ETHY    C1 1630  -0.965   1.561   6.589
 1652ETHY    C1 1631  -1.326   1.342   6.255
 1653ETHY    C1 1632  -1.638   1.164   5.843
 1654THSLK    S 1633  -0.360   2.035   7.503
 1655ETHY    C1 1634  -0.806   1.935   7.502
 1656ETHY    C1 1635  -1.308   1.729   7.500
 1657ETHY    C1 1636  -1.755   1.427   7.500
 1658ETHY    C1 1637  -2.143   1.043   7.503
 1659AUSL   AUS 1638  -0.183   2.342   7.651
 1660AUSL   AUS 1639   0.074   1.995   7.764
 1661AUL    AUL 1640  -0.304   2.015   7.803
 1662THSLK    S 1641  -0.114   1.847   7.881
 1663ETHY    C1 1642  -0.470   1.571   7.958
 1664ETHY    C1 1643  -0.845   1.214   8.122
 1665ETHY    C1 1644  -1.146   0.840   8.367
 1666ETHY    C1 1645  -1.377   0.458   8.682
 1667THSLK    S 1646  -0.446   2.272   7.618
 1668ETHY    C1 1647  -0.896   2.220   7.557
 1669ETHY    C1 1648  -1.428   2.114   7.566
 1670ETHY    C1 1649  -1.935   1.963   7.673
 1671ETHY    C1 1650  -2.409   1.775   7.867
 1672AUSL   AUS 1651   0.490   3.086   7.909
 1673AUSL   AUS 1652   0.074   3.016   7.764
 1674AUL    AUL 1653   0.187   3.300   7.991
 1675THSLK    S 1654  -0.049   3.178   7.948
 1676ETHY    C1 1655  -0.200   3.498   8.237
 1677ETHY    C1 1656  -0.453   3.881   8.527
 1678ETHY    C1 1657  -0.785   4.249   8.740
 1679ETHY    C1 1658  -1.184   4.595   8.881
 1680THSLK    S 1659   0.528   3.317   8.034
 1681ETHY    C1 1660   0.656   3.643   8.327
 1682ETHY    C1 1661   0.733   4.075   8.646
 1683ETHY    C1 1662   0.714   4.540   8.920
 1684ETHY    C1 1663   0.608   5.025   9.147
 1685AUSL   AUS 1664   0.339   3.179   7.663
 1686AUSL   AUS 1665   0.642   3.179   7.336
 1687AUL    AUL 1666   0.490   3.487   7.500
 1688THSLK    S 1667   0.376   3.431   7.772
 1689ETHY    C1 1668   0.449   3.855   7.929
 1690ETHY    C1 1669   0.446   4.371   8.095
 1691ETHY    C1 1670   0.338   4.882   8.229
 1692ETHY    C1 1671   0.134   5.378   8.336
 1693THSLK    S 1672   0.693   3.419   7.237
 1694ETHY    C1 1673   0.906   3.796   7.091
 1695ETHY    C1 1674   1.076   4.285   6.929
 1696ETHY    C1 1675   1.143   4.803   6.792
 1697ETHY    C1 1676   1.114   5.337   6.682
 1698AUSL   AUS 1677   0.642   3.179   7.663
 1699AUSL   AUS 1678   0.755   2.922   8.011
 1700AUL    AUL 1679   0.794   3.300   7.991
 1701THSLK    S 1680   0.928   3.039   8.184
 1702ETHY    C1 1681   1.201   3.180   8.522
 1703ETHY    C1 1682   1.482   3.429   8.915
 1704ETHY    C1 1683   1.698   3.762   9.279
 1705ETHY    C1 1684   1.850   4.167   9.614
 1706THSLK    S 1685   0.692   3.417   7.768
 1707ETHY    C1 1686   0.905   3.796   7.913
 1708ETHY    C1 1687   1.076   4.285   8.072
 1709ETHY    C1 1688   1.143   4.803   8.207
 1710ETHY    C1 1689   1.112   5.336   8.325
 1711AUSL   AUS 1690   0.490   1.925   7.909
 1712AUSL   AUS 1691   0.907   1.995   7.764
 1713AUL    AUL 1692   0.794   1.711   7.991
 1714THSLK    S 1693   0.449   1.668   7.992
 1715ETHY    C1 1694   0.322   1.259   8.152
 1716ETHY    C1 1695   0.248   0.778   8.391
 1717ETHY    C1 1696   0.267   0.326   8.684
 1718ETHY    C1 1697   0.369  -0.092   9.021
 1719THSLK    S 1698   1.027   1.805   7.907
 1720ETHY    C1 1699   1.178   1.403   8.062
 1721ETHY    C1 1700   1.433   0.972   8.272
 1722ETHY    C1 1701   1.765   0.616   8.505
 1723ETHY    C1 1702   2.161   0.337   8.758
 1724AUSL   AUS 1703   0.339   1.832   7.663
 1725AUSL   AUS 1704   0.226   2.089   8.011
 1726AUL    AUL 1705   0.187   1.711   7.991
 1727THSLK    S 1706   0.288   1.587   7.744
 1728ETHY    C1 1707   0.075   1.188   7.812
 1729ETHY    C1 1708  -0.096   0.685   7.925
 1730ETHY    C1 1709  -0.162   0.171   8.072
 1731ETHY    C1 1710  -0.133  -0.344   8.252
 1732THSLK    S 1711   0.048   1.919   8.136
 1733ETHY    C1 1712  -0.224   1.604   8.327
 1734ETHY    C1 1713  -0.502   1.253   8.633
 1735ETHY    C1 1714  -0.718   0.945   9.019
 1736ETHY    C1 1715  -0.874   0.683   9.473
 1737AUSL   AUS 1716   0.642   1.832   7.663
 1738AUSL   AUS 1717   0.339   1.832   7.336
 1739AUL    AUL 1718   0.490   1.524   7.500
 1740THSLK    S 1719   0.289   1.585   7.261
 1741ETHY    C1 1720   0.076   1.187   7.192
 1742ETHY    C1 1721  -0.096   0.685   7.076
 1743ETHY    C1 1722  -0.162   0.171   6.927
 1744ETHY    C1 1723  -0.131  -0.346   6.754
 1745THSLK    S 1724   0.603   1.573   7.748
 1746ETHY    C1 1725   0.531   1.128   7.829
 1747ETHY    C1 1726   0.534   0.599   7.948
 1748ETHY    C1 1727   0.643   0.091   8.095
 1749ETHY    C1 1728   0.845  -0.387   8.264
 1750AUSL   AUS 1729   0.490   3.086   7.091
 1751AUSL   AUS 1730   0.907   3.016   7.236
 1752AUL    AUL 1731   0.794   3.300   7.009
 1753THSLK    S 1732   0.532   3.320   6.971
 1754ETHY    C1 1733   0.659   3.645   6.676
 1755ETHY    C1 1734   0.733   4.075   6.353
 1756ETHY    C1 1735   0.714   4.540   6.080
 1757ETHY    C1 1736   0.611   5.028   5.857
 1758THSLK    S 1737   1.094   3.141   7.081
 1759ETHY    C1 1738   1.451   3.333   6.869
 1760ETHY    C1 1739   1.826   3.639   6.623
 1761ETHY    C1 1740   2.127   4.026   6.398
 1762ETHY    C1 1741   2.357   4.478   6.197
 1763AUSL   AUS 1742   0.339   3.179   7.336
 1764AUSL   AUS 1743   0.226   2.922   6.990
 1765AUL    AUL 1744   0.187   3.300   7.009
 1766THSLK    S 1745   0.378   3.433   7.233
 1767ETHY    C1 1746   0.450   3.856   7.074
 1768ETHY    C1 1747   0.447   4.372   6.906
 1769ETHY    C1 1748   0.338   4.882   6.770
 1770ETHY    C1 1749   0.136   5.380   6.670
 1771THSLK    S 1750   0.107   3.059   6.800
 1772ETHY    C1 1751   0.011   3.253   6.396
 1773ETHY    C1 1752  -0.166   3.531   5.966
 1774ETHY    C1 1753  -0.409   3.856   5.611
 1775ETHY    C1 1754  -0.705   4.221   5.330
 1776AUSL   AUS 1755   0.490   1.925   7.091
 1777AUSL   AUS 1756   0.074   1.995   7.236
 1778AUL    AUL 1757   0.187   1.711   7.009
 1779THSLK    S 1758  -0.111   1.842   7.122
 1780ETHY    C1 1759  -0.468   1.568   7.044
 1781ETHY    C1 1760  -0.845   1.214   6.878
 1782ETHY    C1 1761  -1.147   0.840   6.633
 1783ETHY    C1 1762  -1.374   0.453   6.321
 1784THSLK    S 1763   0.452   1.665   7.013
 1785ETHY    C1 1764   0.324   1.257   6.852
 1786ETHY    C1 1765   0.248   0.778   6.609
 1787ETHY    C1 1766   0.267   0.326   6.315
 1788ETHY    C1 1767   0.373  -0.095   5.983
 1789AUSL   AUS 1768   0.642   1.832   7.336
 1790AUSL   AUS 1769   0.755   2.089   6.990
 1791AUL    AUL 1770   0.794   1.711   7.009
 1792THSLK    S 1771   0.605   1.572   7.258
 1793ETHY    C1 1772   0.532   1.127   7.175
 1794ETHY    C1 1773   0.534   0.599   7.052
 1795ETHY    C1 1774   0.642   0.091   6.905
 1796ETHY    C1 1775   0.847  -0.388   6.742
 1797THSLK    S 1776   0.878   1.899   6.847
 1798ETHY    C1 1777   0.973   1.531   6.592
 1799ETHY    C1 1778   1.147   1.150   6.247
 1800ETHY    C1 1779   1.389   0.850   5.870
 1801ETHY    C1 1780   1.690   0.629   5.471
 1802AUC    AUC 1781  17.679  38.083   7.500
 1803AUC    AUC 1782  17.925  38.083   7.348
 1804AUC    AUC 1783  17.925  38.083   7.651
 1805AUC    AUC 1784  17.434  38.083   7.348
 1806AUC    AUC 1785  17.434  38.083   7.651
 1807AUC    AUC 1786  17.528  38.328   7.500
 1808AUC    AUC 1787  17.831  38.328   7.500
 1809AUC    AUC 1788  17.528  37.837   7.500
 1810AUC    AUC 1789  17.831  37.837   7.500
 1811AUC    AUC 1790  17.679  37.931   7.745
 1812AUC    AUC 1791  17.679  38.234   7.745
 1813AUC    AUC 1792  17.679  37.931   7.254
 1814AUC    AUC 1793  17.679  38.234   7.254
 1815AUC    AUC 1794  18.170  38.083   7.196
 1816AUC    AUC 1795  18.170  38.083   7.500
 1817AUC    AUC 1796  18.170  38.083   7.803
 1818AUC    AUC 1797  17.188  38.083   7.196
 1819AUC    AUC 1798  17.188  38.083   7.500
 1820AUC    AUC 1799  17.188  38.083   7.803
 1821AUC    AUC 1800  17.376  38.573   7.500
 1822AUC    AUC 1801  17.679  38.573   7.500
 1823AUC    AUC 1802  17.983  38.573   7.500
 1824AUC    AUC 1803  17.376  37.592   7.500
 1825AUC    AUC 1804  17.679  37.592   7.500
 1826AUC    AUC 1805  17.983  37.592   7.500
 1827AUC    AUC 1806  17.679  37.779   7.991
 1828AUC    AUC 1807  17.679  38.083   7.991
 1829AUC    AUC 1808  17.679  38.386   7.991
 1830AUC    AUC 1809  17.679  37.779   7.009
 1831AUC    AUC 1810  17.679  38.083   7.009
 1832AUC    AUC 1811  17.679  38.386   7.009
 1833AUC    AUC 1812  17.925  37.931   7.897
 1834AUC    AUC 1813  17.925  38.234   7.897
 1835AUC    AUC 1814  17.925  37.931   7.103
 1836AUC    AUC 1815  17.925  38.234   7.103
 1837AUC    AUC 1816  17.434  37.931   7.897
 1838AUC    AUC 1817  17.434  38.234   7.897
 1839AUC    AUC 1818  17.434  37.931   7.103
 1840AUC    AUC 1819  17.434  38.234   7.103
 1841AUC    AUC 1820  18.076  38.328   7.348
 1842AUC    AUC 1821  18.076  38.328   7.651
 1843AUC    AUC 1822  17.282  38.328   7.348
 1844AUC    AUC 1823  17.282  38.328   7.651
 1845AUC    AUC 1824  18.076  37.837   7.348
 1846AUC    AUC 1825  18.076  37.837   7.651
 1847AUC    AUC 1826  17.282  37.837   7.348
 1848AUC    AUC 1827  17.282  37.837   7.651
 1849AUC    AUC 1828  17.528  38.480   7.745
 1850AUC    AUC 1829  17.831  38.480   7.745
 1851AUC    AUC 1830  17.528  37.685   7.745
 1852AUC    AUC 1831  17.831  37.685   7.745
 1853AUC    AUC 1832  17.528  38.480   7.254
 1854AUC    AUC 1833  17.831  38.480   7.254
 1855AUC    AUC 1834  17.528  37.685   7.254
 1856AUC    AUC 1835  17.831  37.685   7.254
 1857AUSL   AUS 1836  18.088  38.083   8.080
 1858AUSL   AUS 1837  17.944  37.666   8.011
 1859AUL    AUL 1838  18.170  37.779   8.294
 1860THSLK    S 1839  18.062  37.478   8.156
 1861ETHY    C1 1840  18.158  37.110   8.412
 1862ETHY    C1 1841  18.336  36.727   8.753
 1863ETHY    C1 1842  18.578  36.427   9.130
 1864ETHY    C1 1843  18.874  36.208   9.534
 1865THSLK    S 1844  18.187  38.036   8.327
 1866ETHY    C1 1845  18.414  37.886   8.694
 1867ETHY    C1 1846  18.698  37.798   9.148
 1868ETHY    C1 1847  18.982  37.820   9.607
 1869ETHY    C1 1848  19.259  37.942  10.061
 1870AUSL   AUS 1849  17.843  37.931   8.173
 1871AUSL   AUS 1850  17.516  38.234   8.173
 1872AUL    AUL 1851  17.679  38.083   8.482
 1873THSLK    S 1852  17.924  37.880   8.418
 1874ETHY    C1 1853  18.014  37.662   8.810
 1875ETHY    C1 1854  18.142  37.488   9.308
 1876ETHY    C1 1855  18.288  37.423   9.823
 1877ETHY    C1 1856  18.445  37.457  10.346
 1878THSLK    S 1857  17.429  38.194   8.432
 1879ETHY    C1 1858  17.340  38.120   8.874
 1880ETHY    C1 1859  17.216  38.122   9.403
 1881ETHY    C1 1860  17.071  38.231   9.912
 1882ETHY    C1 1861  16.908  38.435  10.392
 1883AUSL   AUS 1862  17.843  38.234   8.173
 1884AUSL   AUS 1863  18.189  38.347   7.916
 1885AUL    AUL 1864  18.170  38.386   8.294
 1886THSLK    S 1865  17.930  38.286   8.416
 1887ETHY    C1 1866  18.018  38.503   8.809
 1888ETHY    C1 1867  18.143  38.676   9.308
 1889ETHY    C1 1868  18.288  38.742   9.823
 1890ETHY    C1 1869  18.451  38.709  10.345
 1891THSLK    S 1870  18.365  38.453   8.079
 1892ETHY    C1 1871  18.727  38.503   8.355
 1893ETHY    C1 1872  19.134  38.652   8.681
 1894ETHY    C1 1873  19.496  38.901   8.995
 1895ETHY    C1 1874  19.808  39.237   9.293
 1896AUSL   AUS 1875  18.088  38.083   6.920
 1897AUSL   AUS 1876  17.944  38.499   6.990
 1898AUL    AUL 1877  18.170  38.386   6.706
 1899THSLK    S 1878  18.192  38.036   6.676
 1900ETHY    C1 1879  18.419  37.886   6.308
 1901ETHY    C1 1880  18.698  37.798   5.851
 1902ETHY    C1 1881  18.982  37.820   5.393
 1903ETHY    C1 1882  19.264  37.942   4.941
 1904THSLK    S 1883  18.121  38.618   6.820
 1905ETHY    C1 1884  18.393  38.759   6.480
 1906ETHY    C1 1885  18.671  39.006   6.085
 1907ETHY    C1 1886  18.887  39.339   5.720
 1908ETHY    C1 1887  19.044  39.746   5.391
 1909AUSL   AUS 1888  17.843  37.931   6.826
 1910AUSL   AUS 1889  18.189  37.818   7.083
 1911AUL    AUL 1890  18.170  37.779   6.706
 1912THSLK    S 1891  18.329  37.627   6.939
 1913ETHY    C1 1892  18.562  37.310   6.707
 1914ETHY    C1 1893  18.892  37.003   6.403
 1915ETHY    C1 1894  19.272  36.794   6.083
 1916ETHY    C1 1895  19.693  36.677   5.754
 1917THSLK    S 1896  17.930  37.879   6.583
 1918ETHY    C1 1897  18.018  37.662   6.191
 1919ETHY    C1 1898  18.143  37.489   5.692
 1920ETHY    C1 1899  18.288  37.423   5.176
 1921ETHY    C1 1900  18.451  37.456   4.656
 1922AUSL   AUS 1901  17.843  38.234   6.826
 1923AUSL   AUS 1902  17.516  37.931   6.826
 1924AUL    AUL 1903  17.679  38.083   6.518
 1925THSLK    S 1904  17.420  37.879   6.586
 1926ETHY    C1 1905  17.281  37.664   6.206
 1927ETHY    C1 1906  17.124  37.493   5.717
 1928ETHY    C1 1907  16.985  37.427   5.199
 1929ETHY    C1 1908  16.869  37.458   4.666
 1930THSLK    S 1909  17.945  38.195   6.572
 1931ETHY    C1 1910  18.082  38.118   6.142
 1932ETHY    C1 1911  18.235  38.118   5.622
 1933ETHY    C1 1912  18.373  38.227   5.112
 1934ETHY    C1 1913  18.496  38.434   4.621
 1935AUSL   AUS 1914  17.270  38.083   8.080
 1936AUSL   AUS 1915  17.415  38.499   8.011
 1937AUL    AUL 1916  17.188  38.386   8.294
 1938THSLK    S 1917  17.166  38.036   8.325
 1939ETHY    C1 1918  16.940  37.886   8.691
 1940ETHY    C1 1919  16.660  37.798   9.148
 1941ETHY    C1 1920  16.377  37.820   9.607
 1942ETHY    C1 1921  16.094  37.942  10.058
 1943THSLK    S 1922  17.292  38.632   8.201
 1944ETHY    C1 1923  17.196  38.827   8.604
 1945ETHY    C1 1924  17.023  39.108   9.034
 1946ETHY    C1 1925  16.780  39.434   9.390
 1947ETHY    C1 1926  16.479  39.793   9.671
 1948AUSL   AUS 1927  17.516  37.931   8.173
 1949AUSL   AUS 1928  17.169  37.818   7.916
 1950AUL    AUL 1929  17.188  37.779   8.294
 1951THSLK    S 1930  16.990  37.652   8.032
 1952ETHY    C1 1931  16.629  37.405   8.166
 1953ETHY    C1 1932  16.224  37.139   8.410
 1954ETHY    C1 1933  15.863  36.919   8.745
 1955ETHY    C1 1934  15.547  36.746   9.156
 1956THSLK    S 1935  17.414  37.881   8.413
 1957ETHY    C1 1936  17.276  37.666   8.793
 1958ETHY    C1 1937  17.123  37.493   9.284
 1959ETHY    C1 1938  16.986  37.427   9.800
 1960ETHY    C1 1939  16.862  37.459  10.332
 1961AUSL   AUS 1940  17.270  38.083   6.920
 1962AUSL   AUS 1941  17.415  37.666   6.990
 1963AUL    AUL 1942  17.188  37.779   6.706
 1964THSLK    S 1943  17.171  38.036   6.673
 1965ETHY    C1 1944  16.944  37.886   6.305
 1966ETHY    C1 1945  16.661  37.798   5.851
 1967ETHY    C1 1946  16.377  37.820   5.393
 1968ETHY    C1 1947  16.100  37.942   4.938
 1969THSLK    S 1948  17.241  37.491   6.865
 1970ETHY    C1 1949  16.969  37.178   6.673
 1971ETHY    C1 1950  16.688  36.830   6.367
 1972ETHY    C1 1951  16.471  36.522   5.980
 1973ETHY    C1 1952  16.319  36.255   5.528
 1974AUSL   AUS 1953  17.516  38.234   6.826
 1975AUSL   AUS 1954  17.169  38.347   7.083
 1976AUL    AUL 1955  17.188  38.386   6.706
 1977THSLK    S 1956  17.033  38.478   6.893
 1978ETHY    C1 1957  16.799  38.599   6.518
 1979ETHY    C1 1958  16.467  38.787   6.132
 1980ETHY    C1 1959  16.087  39.026   5.833
 1981ETHY    C1 1960  15.670  39.306   5.618
 1982THSLK    S 1961  17.435  38.196   6.566
 1983ETHY    C1 1962  17.345  38.121   6.124
 1984ETHY    C1 1963  17.217  38.122   5.597
 1985ETHY    C1 1964  17.071  38.231   5.089
 1986ETHY    C1 1965  16.914  38.437   4.608
 1987AUSL   AUS 1966  18.259  38.492   7.500
 1988AUSL   AUS 1967  18.189  38.347   7.083
 1989AUL    AUL 1968  18.473  38.573   7.196
 1990THSLK    S 1969  18.369  38.454   6.925
 1991ETHY    C1 1970  18.730  38.504   6.648
 1992ETHY    C1 1971  19.134  38.652   6.319
 1993ETHY    C1 1972  19.496  38.901   6.005
 1994ETHY    C1 1973  19.812  39.238   5.713
 1995THSLK    S 1974  18.529  38.553   7.503
 1996ETHY    C1 1975  18.976  38.653   7.502
 1997ETHY    C1 1976  19.478  38.859   7.500
 1998ETHY    C1 1977  19.925  39.161   7.500
 1999ETHY    C1 1978  20.313  39.545   7.503
 2000AUSL   AUS 1979  18.353  38.246   7.348
 2001AUSL   AUS 1980  18.353  37.919   7.651
 2002AUL    AUL 1981  18.661  38.083   7.500
 2003THSLK    S 1982  18.615  38.293   7.345
 2004ETHY    C1 1983  19.065  38.262   7.270
 2005ETHY    C1 1984  19.597  38.317   7.179
 2006ETHY    C1 1985  20.104  38.480   7.091
 2007ETHY    C1 1986  20.579  38.738   7.011
 2008THSLK    S 1987  18.590  37.782   7.659
 2009ETHY    C1 1988  18.961  37.524   7.726
 2010ETHY    C1 1989  19.447  37.298   7.808
 2011ETHY    C1 1990  19.966  37.178   7.896
 2012ETHY    C1 1991  20.504  37.156   7.989
 2013AUSL   AUS 1992  18.353  38.246   7.651
 2014AUSL   AUS 1993  18.096  38.593   7.764
 2015AUL    AUL 1994  18.473  38.573   7.803
 2016THSLK    S 1995  18.281  38.717   7.924
 2017ETHY    C1 1996  18.638  38.909   8.136
 2018ETHY    C1 1997  19.015  39.216   8.377
 2019ETHY    C1 1998  19.316  39.603   8.602
 2020ETHY    C1 1999  19.543  40.054   8.809
 2021THSLK    S 2000  18.614  38.292   7.661
 2022ETHY    C1 2001  19.065  38.262   7.734
 2023ETHY    C1 2002  19.598  38.317   7.821
 2024ETHY    C1 2003  20.104  38.480   7.908
 2025ETHY    C1 2004  20.578  38.738   7.995
 2026AUSL   AUS 2005  17.099  38.492   7.500
 2027AUSL   AUS 2006  17.169  38.347   7.916
 2028AUL    AUL 2007  16.885  38.573   7.803
 2029THSLK    S 2008  17.029  38.473   8.107
 2030ETHY    C1 2009  16.796  38.594   8.482
 2031ETHY    C1 2010  16.467  38.787   8.868
 2032ETHY    C1 2011  16.087  39.026   9.166
 2033ETHY    C1 2012  15.666  39.301   9.381
 2034THSLK    S 2013  16.878  38.632   7.503
 2035ETHY    C1 2014  16.589  38.987   7.502
 2036ETHY    C1 2015  16.181  39.344   7.500
 2037ETHY    C1 2016  15.711  39.608   7.500
 2038ETHY    C1 2017  15.193  39.784   7.503
 2039AUSL   AUS 2018  17.006  38.246   7.348
 2040AUSL   AUS 2019  17.263  38.593   7.236
 2041AUL    AUL 2020  16.885  38.573   7.196
 2042THSLK    S 2021  16.769  38.360   7.303
 2043ETHY    C1 2022  16.397  38.534   7.101
 2044ETHY    C1 2023  15.911  38.710   6.936
 2045ETHY    C1 2024  15.393  38.842   6.868
 2046ETHY    C1 2025  14.855  38.934   6.890
 2047THSLK    S 2026  17.143  38.760   7.056
 2048ETHY    C1 2027  16.991  39.079   6.765
 2049ETHY    C1 2028  16.737  39.459   6.473
 2050ETHY    C1 2029  16.404  39.827   6.260
 2051ETHY    C1 2030  16.008  40.177   6.122
 2052AUSL   AUS 2031  17.006  38.246   7.651
 2053AUSL   AUS 2032  17.006  37.919   7.348
 2054AUL    AUL 2033  16.698  38.083   7.500
 2055THSLK    S 2034  16.744  37.844   7.384
 2056ETHY    C1 2035  16.294  37.793   7.446
 2057ETHY    C1 2036  15.761  37.690   7.434
 2058ETHY    C1 2037  15.254  37.540   7.327
 2059ETHY    C1 2038  14.781  37.347   7.135
 2060THSLK    S 2039  16.768  38.354   7.699
 2061ETHY    C1 2040  16.397  38.530   7.901
 2062ETHY    C1 2041  15.911  38.709   8.063
 2063ETHY    C1 2042  15.393  38.842   8.133
 2064ETHY    C1 2043  14.854  38.928   8.114
 2065AUSL   AUS 2044  18.259  37.673   7.500
 2066AUSL   AUS 2045  18.189  37.818   7.916
 2067AUL    AUL 2046  18.473  37.592   7.803
 2068THSLK    S 2047  18.480  37.533   7.503
 2069ETHY    C1 2048  18.769  37.178   7.502
 2070ETHY    C1 2049  19.178  36.821   7.500
 2071ETHY    C1 2050  19.648  36.557   7.500
 2072ETHY    C1 2051  20.165  36.381   7.503
 2073THSLK    S 2052  18.326  37.628   8.066
 2074ETHY    C1 2053  18.559  37.311   8.297
 2075ETHY    C1 2054  18.892  37.004   8.598
 2076ETHY    C1 2055  19.272  36.794   8.918
 2077ETHY    C1 2056  19.689  36.678   9.250
 2078AUSL   AUS 2057  18.353  37.919   7.348
 2079AUSL   AUS 2058  18.096  37.572   7.236
 2080AUL    AUL 2059  18.473  37.592   7.196
 2081THSLK    S 2060  18.591  37.782   7.346
 2082ETHY    C1 2061  18.962  37.524   7.279
 2083ETHY    C1 2062  19.447  37.298   7.192
 2084ETHY    C1 2063  19.966  37.178   7.103
 2085ETHY    C1 2064  20.505  37.156   7.018
 2086THSLK    S 2065  18.219  37.381   7.099
 2087ETHY    C1 2066  18.369  36.979   6.942
 2088ETHY    C1 2067  18.622  36.549   6.728
 2089ETHY    C1 2068  18.954  36.193   6.495
 2090ETHY    C1 2069  19.353  35.912   6.249
 2091AUSL   AUS 2070  17.099  37.673   7.500
 2092AUSL   AUS 2071  17.169  37.818   7.083
 2093AUL    AUL 2072  16.885  37.592   7.196
 2094THSLK    S 2073  16.994  37.647   6.966
 2095ETHY    C1 2074  16.632  37.401   6.833
 2096ETHY    C1 2075  16.224  37.138   6.589
 2097ETHY    C1 2076  15.863  36.919   6.255
 2098ETHY    C1 2077  15.551  36.741   5.843
 2099THSLK    S 2078  16.829  37.612   7.503
 2100ETHY    C1 2079  16.383  37.512   7.502
 2101ETHY    C1 2080  15.881  37.306   7.500
 2102ETHY    C1 2081  15.434  37.004   7.500
 2103ETHY    C1 2082  15.046  36.620   7.503
 2104AUSL   AUS 2083  17.006  37.919   7.651
 2105AUSL   AUS 2084  17.263  37.572   7.764
 2106AUL    AUL 2085  16.885  37.592   7.803
 2107THSLK    S 2086  17.075  37.424   7.881
 2108ETHY    C1 2087  16.719  37.148   7.958
 2109ETHY    C1 2088  16.344  36.791   8.122
 2110ETHY    C1 2089  16.043  36.417   8.367
 2111ETHY    C1 2090  15.812  36.035   8.682
 2112THSLK    S 2091  16.743  37.849   7.618
 2113ETHY    C1 2092  16.293  37.797   7.557
 2114ETHY    C1 2093  15.761  37.691   7.566
 2115ETHY    C1 2094  15.254  37.540   7.673
 2116ETHY    C1 2095  14.780  37.352   7.867
 2117AUSL   AUS 2096  17.679  38.663   7.909
 2118AUSL   AUS 2097  17.263  38.593   7.764
 2119AUL    AUL 2098  17.376  38.877   7.991
 2120THSLK    S 2099  17.140  38.755   7.948
 2121ETHY    C1 2100  16.989  39.075   8.237
 2122ETHY    C1 2101  16.736  39.458   8.527
 2123ETHY    C1 2102  16.404  39.826   8.740
 2124ETHY    C1 2103  16.005  40.172   8.881
 2125THSLK    S 2104  17.717  38.894   8.034
 2126ETHY    C1 2105  17.845  39.220   8.327
 2127ETHY    C1 2106  17.922  39.652   8.646
 2128ETHY    C1 2107  17.903  40.117   8.920
 2129ETHY    C1 2108  17.797  40.602   9.147
 2130AUSL   AUS 2109  17.528  38.756   7.663
 2131AUSL   AUS 2110  17.831  38.756   7.336
 2132AUL    AUL 2111  17.679  39.064   7.500
 2133THSLK    S 2112  17.565  39.008   7.772
 2134ETHY    C1 2113  17.638  39.432   7.929
 2135ETHY    C1 2114  17.635  39.948   8.095
 2136ETHY    C1 2115  17.527  40.459   8.229
 2137ETHY    C1 2116  17.323  40.955   8.336
 2138THSLK    S 2117  17.882  38.996   7.237
 2139ETHY    C1 2118  18.095  39.373   7.091
 2140ETHY    C1 2119  18.265  39.862   6.929
 2141ETHY    C1 2120  18.332  40.380   6.792
 2142ETHY    C1 2121  18.303  40.914   6.682
 2143AUSL   AUS 2122  17.831  38.756   7.663
 2144AUSL   AUS 2123  17.944  38.499   8.011
 2145AUL    AUL 2124  17.983  38.877   7.991
 2146THSLK    S 2125  18.117  38.616   8.184
 2147ETHY    C1 2126  18.390  38.757   8.522
 2148ETHY    C1 2127  18.671  39.006   8.915
 2149ETHY    C1 2128  18.887  39.339   9.279
 2150ETHY    C1 2129  19.039  39.744   9.614
 2151THSLK    S 2130  17.881  38.994   7.768
 2152ETHY    C1 2131  18.094  39.373   7.913
 2153ETHY    C1 2132  18.265  39.862   8.072
 2154ETHY    C1 2133  18.332  40.380   8.207
 2155ETHY    C1 2134  18.301  40.913   8.325
 2156AUSL   AUS 2135  17.679  37.502   7.909
 2157AUSL   AUS 2136  18.096  37.572   7.764
 2158AUL    AUL 2137  17.983  37.288   7.991
 2159THSLK    S 2138  17.638  37.245   7.992
 2160ETHY    C1 2139  17.511  36.836   8.152
 2161ETHY    C1 2140  17.437  36.355   8.391
 2162ETHY    C1 2141  17.456  35.903   8.684
 2163ETHY    C1 2142  17.558  35.485   9.021
 2164THSLK    S 2143  18.216  37.382   7.907
 2165ETHY    C1 2144  18.367  36.980   8.062
 2166ETHY    C1 2145  18.622  36.549   8.272
 2167ETHY    C1 2146  18.954  36.193   8.505
 2168ETHY    C1 2147  19.350  35.914   8.758
 2169AUSL   AUS 2148  17.528  37.409   7.663
 2170AUSL   AUS 2149  17.415  37.666   8.011
 2171AUL    AUL 2150  17.376  37.288   7.991
 2172THSLK    S 2151  17.477  37.164   7.744
 2173ETHY    C1 2152  17.264  36.765   7.812
 2174ETHY    C1 2153  17.093  36.262   7.925
 2175ETHY    C1 2154  17.027  35.748   8.072
 2176ETHY    C1 2155  17.056  35.233   8.252
 2177THSLK    S 2156  17.237  37.496   8.136
 2178ETHY    C1 2157  16.965  37.181   8.327
 2179ETHY    C1 2158  16.687  36.830   8.633
 2180ETHY    C1 2159  16.471  36.522   9.019
 2181ETHY    C1 2160  16.315  36.260   9.473
 2182AUSL   AUS 2161  17.831  37.409   7.663
 2183AUSL   AUS 2162  17.528  37.409   7.336
 2184AUL    AUL 2163  17.679  37.101   7.500
 2185THSLK    S 2164  17.478  37.162   7.261
 2186ETHY    C1 2165  17.265  36.764   7.192
 2187ETHY    C1 2166  17.093  36.262   7.076
 2188ETHY    C1 2167  17.027  35.748   6.927
 2189ETHY    C1 2168  17.058  35.231   6.754
 2190THSLK    S 2169  17.792  37.150   7.748
 2191ETHY    C1 2170  17.720  36.705   7.829
 2192ETHY    C1 2171  17.723  36.176   7.948
 2193ETHY    C1 2172  17.832  35.668   8.095
 2194ETHY    C1 2173  18.034  35.190   8.264
 2195AUSL   AUS 2174  17.679  38.663   7.091
 2196AUSL   AUS 2175  18.096  38.593   7.236
 2197AUL    AUL 2176  17.983  38.877   7.009
 2198THSLK    S 2177  17.721  38.897   6.971
 2199ETHY    C1 2178  17.848  39.222   6.676
 2200ETHY    C1 2179  17.922  39.652   6.353
 2201ETHY    C1 2180  17.903  40.117   6.080
 2202ETHY    C1 2181  17.800  40.605   5.857
 2203THSLK    S 2182  18.283  38.718   7.081
 2204ETHY    C1 2183  18.640  38.910   6.869
 2205ETHY    C1 2184  19.015  39.216   6.623
 2206ETHY    C1 2185  19.316  39.603   6.398
 2207ETHY    C1 2186  19.546  40.055   6.197
 2208AUSL   AUS 2187  17.528  38.756   7.336
 2209AUSL   AUS 2188  17.415  38.499   6.990
 2210AUL    AUL 2189  17.376  38.877   7.009
 2211THSLK    S 2190  17.567  39.010   7.233
 2212ETHY    C1 2191  17.639  39.433   7.074
 2213ETHY    C1 2192  17.636  39.949   6.906
 2214ETHY    C1 2193  17.527  40.459   6.770
 2215ETHY    C1 2194  17.325  40.957   6.670
 2216THSLK    S 2195  17.296  38.636   6.800
 2217ETHY    C1 2196  17.200  38.830   6.396
 2218ETHY    C1 2197  17.023  39.108   5.966
 2219ETHY    C1 2198  16.780  39.433   5.611
 2220ETHY    C1 2199  16.484  39.798   5.330
 2221AUSL   AUS 2200  17.679  37.502   7.091
 2222AUSL   AUS 2201  17.263  37.572   7.236
 2223AUL    AUL 2202  17.376  37.288   7.009
 2224THSLK    S 2203  17.078  37.419   7.122
 2225ETHY    C1 2204  16.721  37.145   7.044
 2226ETHY    C1 2205  16.344  36.791   6.878
 2227ETHY    C1 2206  16.042  36.417   6.633
 2228ETHY    C1 2207  15.815  36.030   6.321
 2229THSLK    S 2208  17.641  37.242   7.013
 2230ETHY    C1 2209  17.513  36.834   6.852
 2231ETHY    C1 2210  17.437  36.355   6.609
 2232ETHY    C1 2211  17.456  35.903   6.315
 2233ETHY    C1 2212  17.562  35.482   5.983
 2234AUSL   AUS 2213  17.831  37.409   7.336
 2235AUSL   AUS 2214  17.944  37.666   6.990
 2236AUL    AUL 2215  17.983  37.288   7.009
 2237THSLK    S 2216  17.794  37.149   7.258
 2238ETHY    C1 2217  17.721  36.704   7.175
 2239ETHY    C1 2218  17.723  36.176   7.052
 2240ETHY    C1 2219  17.831  35.668   6.905
 2241ETHY    C1 2220  18.036  35.189   6.742
 2242THSLK    S 2221  18.067  37.476   6.847
 2243ETHY    C1 2222  18.162  37.108   6.592
 2244ETHY    C1 2223  18.336  36.727   6.247
 2245ETHY    C1 2224  18.578  36.427   5.870
 2246ETHY    C1 2225  18.879  36.206   5.471
 2247AUC    AUC 2226  40.269  18.151   7.500
 2248AUC    AUC 2227  40.515  18.151   7.348
 2249AUC    AUC 2228  40.515  18.151   7.651
 2250AUC    AUC 2229  40.024  18.151   7.348
 2251AUC    AUC 2230  40.024  18.151   7.651
 2252AUC    AUC 2231  40.118  18.396   7.500
 2253AUC    AUC 2232  40.421  18.396   7.500
 2254AUC    AUC 2233  40.118  17.905   7.500
 2255AUC    AUC 2234  40.421  17.905   7.500
 2256AUC    AUC 2235  40.269  17.999   7.745
 2257AUC    AUC 2236  40.269  18.302   7.745
 2258AUC    AUC 2237  40.269  17.999   7.254
 2259AUC    AUC 2238  40.269  18.302   7.254
 2260AUC    AUC 2239  40.760  18.151   7.196
 2261AUC    AUC 2240  40.760  18.151   7.500
 2262AUC    AUC 2241  40.760  18.151   7.803
 2263AUC    AUC 2242  39.778  18.151   7.196
 2264AUC    AUC 2243  39.778  18.151   7.500
 2265AUC    AUC 2244  39.778  18.151   7.803
 2266AUC    AUC 2245  39.966  18.641   7.500
 2267AUC    AUC 2246  40.269  18.641   7.500
 2268AUC    AUC 2247  40.573  18.641   7.500
 2269AUC    AUC 2248  39.966  17.660   7.500
 2270AUC    AUC 2249  40.269  17.660   7.500
 2271AUC    AUC 2250  40.573  17.660   7.500
 2272AUC    AUC 2251  40.269  17.847   7.991
 2273AUC    AUC 2252  40.269  18.151   7.991
 2274AUC    AUC 2253  40.269  18.454   7.991
 2275AUC    AUC 2254  40.269  17.847   7.009
 2276AUC    AUC 2255  40.269  18.151   7.009
 2277AUC    AUC 2256  40.269  18.454   7.009
 2278AUC    AUC 2257  40.515  17.999   7.897
 2279AUC    AUC 2258  40.515  18.302   7.897
 2280AUC    AUC 2259  40.515  17.999   7.103
 2281AUC    AUC 2260  40.515  18.302   7.103
 2282AUC    AUC 2261  40.024  17.999   7.897
 2283AUC    AUC 2262  40.024  18.302   7.897
 2284AUC    AUC 2263  40.024  17.999   7.103
 2285AUC    AUC 2264  40.024  18.302   7.103
 2286AUC    AUC 2265  40.666  18.396   7.348
 2287AUC    AUC 2266  40.666  18.396   7.651
 2288AUC    AUC 2267  39.872  18.396   7.348
 2289AUC    AUC 2268  39.872  18.396   7.651
 2290AUC    AUC 2269  40.666  17.905   7.348
 2291AUC    AUC 2270  40.666  17.905   7.651
 2292AUC    AUC 2271  39.872  17.905   7.348
 2293AUC    AUC 2272  39.872  17.905   7.651
 2294AUC    AUC 2273  40.118  18.548   7.745
 2295AUC    AUC 2274  40.421  18.548   7.745
 2296AUC    AUC 2275  40.118  17.753   7.745
 2297AUC    AUC 2276  40.421  17.753   7.745
 2298AUC    AUC 2277  40.118  18.548   7.254
 2299AUC    AUC 2278  40.421  18.548   7.254
 2300AUC    AUC 2279  40.118  17.753   7.254
 2301AUC    AUC 2280  40.421  17.753   7.254
 2302AUSL   AUS 2281  40.678  18.151   8.080
 2303AUSL   AUS 2282  40.534  17.734   8.011
 2304AUL    AUL 2283  40.760  17.847   8.294
 2305THSLK    S 2284  40.652  17.546   8.156
 2306ETHY    C1 2285  40.748  17.178   8.412
 2307ETHY    C1 2286  40.926  16.795   8.753
 2308ETHY    C1 2287  41.168  16.495   9.130
 2309ETHY    C1 2288  41.464  16.276   9.534
 2310THSLK    S 2289  40.777  18.104   8.327
 2311ETHY    C1 2290  41.004  17.954   8.694
 2312ETHY    C1 2291  41.288  17.866   9.148
 2313ETHY    C1 2292  41.572  17.888   9.607
 2314ETHY    C1 2293  41.849  18.010  10.061
 2315AUSL   AUS 2294  40.433  17.999   8.173
 2316AUSL   AUS 2295  40.106  18.302   8.173
 2317AUL    AUL 2296  40.269  18.151   8.482
 2318THSLK    S 2297  40.514  17.948   8.418
 2319ETHY    C1 2298  40.604  17.730   8.810
 2320ETHY    C1 2299  40.732  17.556   9.308
 2321ETHY    C1 2300  40.878  17.491   9.823
 2322ETHY    C1 2301  41.035  17.525  10.346
 2323THSLK    S 2302  40.019  18.262   8.432
 2324ETHY    C1 2303  39.930  18.188   8.874
 2325ETHY    C1 2304  39.806  18.190   9.403
 2326ETHY    C1 2305  39.661  18.299   9.912
 2327ETHY    C1 2306  39.498  18.503  10.392
 2328AUSL   AUS 2307  40.433  18.302   8.173
 2329AUSL   AUS 2308  40.779  18.415   7.916
 2330AUL    AUL 2309  40.760  18.454   8.294
 2331THSLK    S 2310  40.520  18.354   8.416
 2332ETHY    C1 2311  40.608  18.571   8.809
 2333ETHY    C1 2312  40.733  18.744   9.308
 2334ETHY    C1 2313  40.878  18.810   9.823
 2335ETHY    C1 2314  41.041  18.777  10.345
 2336THSLK    S 2315  40.955  18.521   8.079
 2337ETHY    C1 2316  41.317  18.571   8.355
 2338ETHY    C1 2317  41.724  18.720   8.681
 2339ETHY    C1 2318  42.086  18.969   8.995
 2340ETHY    C1 2319  42.398  19.305   9.293
 2341AUSL   AUS 2320  40.678  18.151   6.920
 2342AUSL   AUS 2321  40.534  18.567   6.990
 2343AUL    AUL 2322  40.760  18.454   6.706
 2344THSLK    S 2323  40.782  18.104   6.676
 2345ETHY    C1 2324  41.009  17.954   6.308
 2346ETHY    C1 2325  41.288  17.866   5.851
 2347ETHY    C1 2326  41.572  17.888   5.393
 2348ETHY    C1 2327  41.854  18.010   4.941
 2349THSLK    S 2328  40.711  18.686   6.820
 2350ETHY    C1 2329  40.983  18.827   6.480
 2351ETHY    C1 2330  41.261  19.074   6.085
 2352ETHY    C1 2331  41.477  19.407   5.720
 2353ETHY    C1 2332  41.634  19.814   5.391
 2354AUSL   AUS 2333  40.433  17.999   6.826
 2355AUSL   AUS 2334  40.779  17.886   7.083
 2356AUL    AUL 2335  40.760  17.847   6.706
 2357THSLK    S 2336  40.919  17.695   6.939
 2358ETHY    C1 2337  41.152  17.378   6.707
 2359ETHY    C1 2338  41.482  17.071   6.403
 2360ETHY    C1 2339  41.862  16.862   6.083
 2361ETHY    C1 2340  42.283  16.745   5.754
 2362THSLK    S 2341  40.520  17.947   6.583
 2363ETHY    C1 2342  40.608  17.730   6.191
 2364ETHY    C1 2343  40.733  17.557   5.692
 2365ETHY    C1 2344  40.878  17.491   5.176
 2366ETHY    C1 2345  41.041  17.524   4.656
 2367AUSL   AUS 2346  40.433  18.302   6.826
 2368AUSL   AUS 2347  40.106  17.999   6.826
 2369AUL    AUL 2348  40.269  18.151   6.518
 2370THSLK    S 2349  40.010  17.947   6.586
 2371ETHY    C1 2350  39.871  17.732   6.206
 2372ETHY    C1 2351  39.714  17.561   5.717
 2373ETHY    C1 2352  39.575  17.495   5.199
 2374ETHY    C1 2353  39.459  17.526   4.666
 2375THSLK    S 2354  40.535  18.263   6.572
 2376ETHY    C1 2355  40.672  18.186   6.142
 2377ETHY    C1 2356  40.825  18.186   5.622
 2378ETHY    C1 2357  40.963  18.295   5.112
 2379ETHY    C1 2358  41.086  18.502   4.621
 2380AUSL   AUS 2359  39.860  18.151   8.080
 2381AUSL   AUS 2360  40.005  18.567   8.011
 2382AUL    AUL 2361  39.778  18.454   8.294
 2383THSLK    S 2362  39.756  18.104   8.325
 2384ETHY    C1 2363  39.530  17.954   8.691
 2385ETHY    C1 2364  39.250  17.866   9.148
 2386ETHY    C1 2365  38.967  17.888   9.607
 2387ETHY    C1 2366  38.684  18.010  10.058
 2388THSLK    S 2367  39.882  18.700   8.201
 2389ETHY    C1 2368  39.786  18.895   8.604
 2390ETHY    C1 2369  39.613  19.176   9.034
 2391ETHY    C1 2370  39.370  19.502   9.390
 2392ETHY    C1 2371  39.069  19.861   9.671
 2393AUSL   AUS 2372  40.106  17.999   8.173
 2394AUSL   AUS 2373  39.759  17.886   7.916
 2395AUL    AUL 2374  39.778  17.847   8.294
 2396THSLK    S 2375  39.580  17.720   8.032
 2397ETHY    C1 2376  39.219  17.473   8.166
 2398ETHY    C1 2377  38.814  17.207   8.410
 2399ETHY    C1 2378  38.453  16.987   8.745
 2400ETHY    C1 2379  38.137  16.814   9.156
 2401THSLK    S 2380  40.004  17.949   8.413
 2402ETHY    C1 2381  39.866  17.734   8.793
 2403ETHY    C1 2382  39.713  17.561   9.284
 2404ETHY    C1 2383  39.576  17.495   9.800
 2405ETHY    C1 2384  39.452  17.527  10.332
 2406AUSL   AUS 2385  39.860  18.151   6.920
 2407AUSL   AUS 2386  40.005  17.734   6.990
 2408AUL    AUL 2387  39.778  17.847   6.706
 2409THSLK    S 2388  39.761  18.104   6.673
 2410ETHY    C1 2389  39.534  17.954   6.305
 2411ETHY    C1 2390  39.251  17.866   5.851
 2412ETHY    C1 2391  38.967  17.888   5.393
 2413ETHY    C1 2392  38.690  18.010   4.938
 2414THSLK    S 2393  39.831  17.559   6.865
 2415ETHY    C1 2394  39.559  17.246   6.673
 2416ETHY    C1 2395  39.278  16.898   6.367
 2417ETHY    C1 2396  39.061  16.590   5.980
 2418ETHY    C1 2397  38.909  16.323   5.528
 2419AUSL   AUS 2398  40.106  18.302   6.826
 2420AUSL   AUS 2399  39.759  18.415   7.083
 2421AUL    AUL 2400  39.778  18.454   6.706
 2422THSLK    S 2401  39.623  18.546   6.893
 2423ETHY    C1 2402  39.389  18.667   6.518
 2424ETHY    C1 2403  39.057  18.855   6.132
 2425ETHY    C1 2404  38.677  19.094   5.833
 2426ETHY    C1 2405  38.260  19.374   5.618
 2427THSLK    S 2406  40.025  18.264   6.566
 2428ETHY    C1 2407  39.935  18.189   6.124
 2429ETHY    C1 2408  39.807  18.190   5.597
 2430ETHY    C1 2409  39.661  18.299   5.089
 2431ETHY    C1 2410  39.504  18.505   4.608
 2432AUSL   AUS 2411  40.849  18.560   7.500
 2433AUSL   AUS 2412  40.779  18.415   7.083
 2434AUL    AUL 2413  41.063  18.641   7.196
 2435THSLK    S 2414  40.959  18.522   6.925
 2436ETHY    C1 2415  41.320  18.572   6.648
 2437ETHY    C1 2416  41.724  18.720   6.319
 2438ETHY    C1 2417  42.086  18.969   6.005
 2439ETHY    C1 2418  42.402  19.306   5.713
 2440THSLK    S 2419  41.119  18.621   7.503
 2441ETHY    C1 2420  41.566  18.721   7.502
 2442ETHY    C1 2421  42.068  18.927   7.500
 2443ETHY    C1 2422  42.515  19.229   7.500
 2444ETHY    C1 2423  42.903  19.613   7.503
 2445AUSL   AUS 2424  40.943  18.314   7.348
 2446AUSL   AUS 2425  40.943  17.987   7.651
 2447AUL    AUL 2426  41.251  18.151   7.500
 2448THSLK    S 2427  41.205  18.361   7.345
 2449ETHY    C1 2428  41.655  18.330   7.270
 2450ETHY    C1 2429  42.187  18.385   7.179
 2451ETHY    C1 2430  42.694  18.548   7.091
 2452ETHY    C1 2431  43.169  18.806   7.011
 2453THSLK    S 2432  41.180  17.850   7.659
 2454ETHY    C1 2433  41.551  17.592   7.726
 2455ETHY    C1 2434  42.037  17.366   7.808
 2456ETHY    C1 2435  42.556  17.246   7.896
 2457ETHY    C1 2436  43.094  17.224   7.989
 2458AUSL   AUS 2437  40.943  18.314   7.651
 2459AUSL   AUS 2438  40.686  18.661   7.764
 2460AUL    AUL 2439  41.063  18.641   7.803
 2461THSLK    S 2440  40.871  18.785   7.924
 2462ETHY    C1 2441  41.228  18.977   8.136
 2463ETHY    C1 2442  41.605  19.284   8.377
 2464ETHY    C1 2443  41.906  19.671   8.602
 2465ETHY    C1 2444  42.133  20.122   8.809
 2466THSLK    S 2445  41.204  18.360   7.661
 2467ETHY    C1 2446  41.655  18.330   7.734
 2468ETHY    C1 2447  42.188  18.385   7.821
 2469ETHY    C1 2448  42.694  18.548   7.908
 2470ETHY    C1 2449  43.168  18.806   7.995
 2471AUSL   AUS 2450  39.689  18.560   7.500
 2472AUSL   AUS 2451  39.759  18.415   7.916
 2473AUL    AUL 2452  39.475  18.641   7.803
 2474THSLK    S 2453  39.619  18.541   8.107
 2475ETHY    C1 2454  39.386  18.662   8.482
 2476ETHY    C1 2455  39.057  18.855   8.868
 2477ETHY    C1 2456  38.677  19.094   9.166
 2478ETHY    C1 2457  38.256  19.369   9.381
 2479THSLK    S 2458  39.468  18.700   7.503
 2480ETHY    C1 2459  39.179  19.055   7.502
 2481ETHY    C1 2460  38.771  19.412   7.500
 2482ETHY    C1 2461  38.301  19.676   7.500
 2483ETHY    C1 2462  37.783  19.852   7.503
 2484AUSL   AUS 2463  39.596  18.314   7.348
 2485AUSL   AUS 2464  39.853  18.661   7.236
 2486AUL    AUL 2465  39.475  18.641   7.196
 2487THSLK    S 2466  39.359  18.428   7.303
 2488ETHY    C1 2467  38.987  18.602   7.101
 2489ETHY    C1 2468  38.501  18.778   6.936
 2490ETHY    C1 2469  37.983  18.910   6.868
 2491ETHY    C1 2470  37.445  19.002   6.890
 2492THSLK    S 2471  39.733  18.828   7.056
 2493ETHY    C1 2472  39.581  19.147   6.765
 2494ETHY    C1 2473  39.327  19.527   6.473
 2495ETHY    C1 2474  38.994  19.895   6.260
 2496ETHY    C1 2475  38.598  20.245   6.122
 2497AUSL   AUS 2476  39.596  18.314   7.651
 2498AUSL   AUS 2477  39.596  17.987   7.348
 2499AUL    AUL 2478  39.288  18.151   7.500
 2500THSLK    S 2479  39.334  17.912   7.384
 2501ETHY    C1 2480  38.884  17.861   7.446
 2502ETHY    C1 2481  38.351  17.758   7.434
 2503ETHY    C1 2482  37.844  17.608   7.327
 2504ETHY    C1 2483  37.371  17.415   7.135
 2505THSLK    S 2484  39.358  18.422   7.699
 2506ETHY    C1 2485  38.987  18.598   7.901
 2507ETHY    C1 2486  38.501  18.777   8.063
 2508ETHY    C1 2487  37.983  18.910   8.133
 2509ETHY    C1 2488  37.444  18.996   8.114
 2510AUSL   AUS 2489  40.849  17.741   7.500
 2511AUSL   AUS 2490  40.779  17.886   7.916
 2512AUL    AUL 2491  41.063  17.660   7.803
 2513THSLK    S 2492  41.070  17.601   7.503
 2514ETHY    C1 2493  41.359  17.246   7.502
 2515ETHY    C1 2494  41.768  16.889   7.500
 2516ETHY    C1 2495  42.238  16.625   7.500
 2517ETHY    C1 2496  42.755  16.449   7.503
 2518THSLK    S 2497  40.916  17.696   8.066
 2519ETHY    C1 2498  41.149  17.379   8.297
 2520ETHY    C1 2499  41.482  17.072   8.598
 2521ETHY    C1 2500  41.862  16.862   8.918
 2522ETHY    C1 2501  42.279  16.746   9.250
 2523AUSL   AUS 2502  40.943  17.987   7.348
 2524AUSL   AUS 2503  40.686  17.640   7.236
 2525AUL    AUL 2504  41.063  17.660   7.196
 2526THSLK    S 2505  41.181  17.850   7.346
 2527ETHY    C1 2506  41.552  17.592   7.279
 2528ETHY    C1 2507  42.037  17.366   7.192
 2529ETHY    C1 2508  42.556  17.246   7.103
 2530ETHY    C1 2509  43.095  17.224   7.018
 2531THSLK    S 2510  40.809  17.449   7.099
 2532ETHY    C1 2511  40.959  17.047   6.942
 2533ETHY    C1 2512  41.212  16.617   6.728
 2534ETHY    C1 2513  41.544  16.261   6.495
 2535ETHY    C1 2514  41.943  15.980   6.249
 2536AUSL   AUS 2515  39.689  17.741   7.500
 2537AUSL   AUS 2516  39.759  17.886   7.083
 2538AUL    AUL 2517  39.475  17.660   7.196
 2539THSLK    S 2518  39.584  17.715   6.966
 2540ETHY    C1 2519  39.222  17.469   6.833
 2541ETHY    C1 2520  38.814  17.206   6.589
 2542ETHY    C1 2521  38.453  16.987   6.255
 2543ETHY    C1 2522  38.141  16.809   5.843
 2544THSLK    S 2523  39.419  17.680   7.503
 2545ETHY    C1 2524  38.973  17.580   7.502
 2546ETHY    C1 2525  38.471  17.374   7.500
 2547ETHY    C1 2526  38.024  17.072   7.500
 2548ETHY    C1 2527  37.636  16.688   7.503
 2549AUSL   AUS 2528  39.596  17.987   7.651
 2550AUSL   AUS 2529  39.853  17.640   7.764
 2551AUL    AUL 2530  39.475  17.660   7.803
 2552THSLK    S 2531  39.665  17.492   7.881
 2553ETHY    C1 2532  39.309  17.216   7.958
 2554ETHY    C1 2533  38.934  16.859   8.122
 2555ETHY    C1 2534  38.633  16.485   8.367
 2556ETHY    C1 2535  38.402  16.103   8.682
 2557THSLK    S 2536  39.333  17.917   7.618
 2558ETHY    C1 2537  38.883  17.865   7.557
 2559ETHY    C1 2538  38.351  17.759   7.566
 2560ETHY    C1 2539  37.844  17.608   7.673
 2561ETHY    C1 2540  37.370  17.420   7.867
 2562AUSL   AUS 2541  40.269  18.731   7.909
 2563AUSL   AUS 2542  39.853  18.661   7.764
 2564AUL    AUL 2543  39.966  18.945   7.991
 2565THSLK    S 2544  39.730  18.823   7.948
 2566ETHY    C1 2545  39.579  19.143   8.237
 2567ETHY    C1 2546  39.326  19.526   8.527
 2568ETHY    C1 2547  38.994  19.894   8.740
 2569ETHY    C1 2548  38.595  20.240   8.881
 2570THSLK    S 2549  40.307  18.962   8.034
 2571ETHY    C1 2550  40.435  19.288   8.327
 2572ETHY    C1 2551  40.512  19.720   8.646
 2573ETHY    C1 2552  40.493  20.185   8.920
 2574ETHY    C1 2553  40.387  20.670   9.147
 2575AUSL   AUS 2554  40.118  18.824   7.663
 2576AUSL   AUS 2555  40.421  18.824   7.336
 2577AUL    AUL 2556  40.269  19.132   7.500
 2578THSLK    S 2557  40.155  19.076   7.772
 2579ETHY    C1 2558  40.228  19.500   7.929
 2580ETHY    C1 2559  40.225  20.016   8.095
 2581ETHY    C1 2560  40.117  20.527   8.229
 2582ETHY    C1 2561  39.913  21.023   8.336
 2583THSLK    S 2562  40.472  19.064   7.237
 2584ETHY    C1 2563  40.685  19.441   7.091
 2585ETHY    C1 2564  40.855  19.930   6.929
 2586ETHY    C1 2565  40.922  20.448   6.792
 2587ETHY    C1 2566  40.893  20.982   6.682
 2588AUSL   AUS 2567  40.421  18.824   7.663
 2589AUSL   AUS 2568  40.534  18.567   8.011
 2590AUL    AUL 2569  40.573  18.945   7.991
 2591THSLK    S 2570  40.707  18.684   8.184
 2592ETHY    C1 2571  40.980  18.825   8.522
 2593ETHY    C1 2572  41.261  19.074   8.915
 2594ETHY    C1 2573  41.477  19.407   9.279
 2595ETHY    C1 2574  41.629  19.812   9.614
 2596THSLK    S 2575  40.471  19.062   7.768
 2597ETHY    C1 2576  40.684  19.441   7.913
 2598ETHY    C1 2577  40.855  19.930   8.072
 2599ETHY    C1 2578  40.922  20.448   8.207
 2600ETHY    C1 2579  40.891  20.981   8.325
 2601AUSL   AUS 2580  40.269  17.570   7.909
 2602AUSL   AUS 2581  40.686  17.640   7.764
 2603AUL    AUL 2582  40.573  17.356   7.991
 2604THSLK    S 2583  40.228  17.313   7.992
 2605ETHY    C1 2584  40.101  16.904   8.152
 2606ETHY    C1 2585  40.027  16.423   8.391
 2607ETHY    C1 2586  40.046  15.971   8.684
 2608ETHY    C1 2587  40.148  15.553   9.021
 2609THSLK    S 2588  40.806  17.450   7.907
 2610ETHY    C1 2589  40.957  17.048   8.062
 2611ETHY    C1 2590  41.212  16.617   8.272
 2612ETHY    C1 2591  41.544  16.261   8.505
 2613ETHY    C1 2592  41.940  15.982   8.758
 2614AUSL   AUS 2593  40.118  17.477   7.663
 2615AUSL   AUS 2594  40.005  17.734   8.011
 2616AUL    AUL 2595  39.966  17.356   7.991
 2617THSLK    S 2596  40.067  17.232   7.744
 2618ETHY    C1 2597  39.854  16.833   7.812
 2619ETHY    C1 2598  39.683  16.330   7.925
 2620ETHY    C1 2599  39.617  15.816   8.072
 2621ETHY    C1 2600  39.646  15.301   8.252
 2622THSLK    S 2601  39.827  17.564   8.136
 2623ETHY    C1 2602  39.555  17.249   8.327
 2624ETHY    C1 2603  39.277  16.898   8.633
 2625ETHY    C1 2604  39.061  16.590   9.019
 2626ETHY    C1 2605  38.905  16.328   9.473
 2627AUSL   AUS 2606  40.421  17.477   7.663
 2628AUSL   AUS 2607  40.118  17.477   7.336
 2629AUL    AUL 2608  40.269  17.169   7.500
 2630THSLK    S 2609  40.068  17.230   7.261
 2631ETHY    C1 2610  39.855  16.832   7.192
 2632ETHY    C1 2611  39.683  16.330   7.076
 2633ETHY    C1 2612  39.617  15.816   6.927
 2634ETHY    C1 2613  39.648  15.299   6.754
 2635THSLK    S 2614  40.382  17.218   7.748
 2636ETHY    C1 2615  40.310  16.773   7.829
 2637ETHY    C1 2616  40.313  16.244   7.948
 2638ETHY    C1 2617  40.422  15.736   8.095
 2639ETHY    C1 2618  40.624  15.258   8.264
 2640AUSL   AUS 2619  40.269  18.731   7.091
 2641AUSL   AUS 2620  40.686  18.661   7.236
 2642AUL    AUL 2621  40.573  18.945   7.009
 2643THSLK    S 2622  40.311  18.965   6.971
 2644ETHY    C1 2623  40.438  19.290   6.676
 2645ETHY    C1 2624  40.512  19.720   6.353
 2646ETHY    C1 2625  40.493  20.185   6.080
 2647ETHY    C1 2626  40.390  20.673   5.857
 2648THSLK    S 2627  40.873  18.786   7.081
 2649ETHY    C1 2628  41.230  18.978   6.869
 2650ETHY    C1 2629  41.605  19.284   6.623
 2651ETHY    C1 2630  41.906  19.671   6.398
 2652ETHY    C1 2631  42.136  20.123   6.197
 2653AUSL   AUS 2632  40.118  18.824   7.336
 2654AUSL   AUS 2633  40.005  18.567   6.990
 2655AUL    AUL 2634  39.966  18.945   7.009
 2656THSLK    S 2635  40.157  19.078   7.233
 2657ETHY    C1 2636  40.229  19.501   7.074
 2658ETHY    C1 2637  40.226  20.017   6.906
 2659ETHY    C1 2638  40.117  20.527   6.770
 2660ETHY    C1 2639  39.915  21.025   6.670
 2661THSLK    S 2640  39.886  18.704   6.800
 2662ETHY    C1 2641  39.790  18.898   6.396
 2663ETHY    C1 2642  39.613  19.176   5.966
 2664ETHY    C1 2643  39.370  19.501   5.611
 2665ETHY    C1 2644  39.074  19.866   5.330
 2666AUSL   AUS 2645  40.269  17.570   7.091
 2667AUSL   AUS 2646  39.853  17.640   7.236
 2668AUL    AUL 2647  39.966  17.356   7.009
 2669THSLK    S 2648  39.668  17.487   7.122
 2670ETHY    C1 2649  39.311  17.213   7.044
 2671ETHY    C1 2650  38.934  16.859   6.878
 2672ETHY    C1 2651  38.632  16.485   6.633
 2673ETHY    C1 2652  38.405  16.098   6.321
 2674THSLK    S 2653  40.231  17.310   7.013
 2675ETHY    C1 2654  40.103  16.902   6.852
 2676ETHY    C1 2655  40.027  16.423   6.609
 2677ETHY    C1 2656  40.046  15.971   6.315
 2678ETHY    C1 2657  40.152  15.550   5.983
 2679AUSL   AUS 2658  40.421  17.477   7.336
 2680AUSL   AUS 2659  40.534  17.734   6.990
 2681AUL    AUL 2660  40.573  17.356   7.009
 2682THSLK    S 2661  40.384  17.217   7.258
 2683ETHY    C1 2662  40.311  16.772   7.175
 2684ETHY    C1 2663  40.313  16.244   7.052
 2685ETHY    C1 2664  40.421  15.736   6.905
 2686ETHY    C1 2665  40.626  15.257   6.742
 2687THSLK    S 2666  40.657  17.544   6.847
 2688ETHY    C1 2667  40.752  17.176   6.592
 2689ETHY    C1 2668  40.926  16.795   6.247
 2690ETHY    C1 2669  41.168  16.495   5.870
 2691ETHY    C1 2670  41.469  16.274   5.471
 2692AUC    AUC 2671  10.039  13.307   7.500
 2693AUC    AUC 2672  10.285  13.307   7.348
 2694AUC    AUC 2673  10.285  13.307   7.651
 2695AUC    AUC 2674   9.794  13.307   7.348
 2696AUC    AUC 2675   9.794  13.307   7.651
 2697AUC    AUC 2676   9.888  13.552   7.500
 2698AUC    AUC 2677  10.191  13.552   7.500
 2699AUC    AUC 2678   9.888  13.061   7.500
 2700AUC    AUC 2679  10.191  13.061   7.500
 2701AUC    AUC 2680  10.039  13.155   7.745
 2702AUC    AUC 2681  10.039  13.458   7.745
 2703AUC    AUC 2682  10.039  13.155   7.254
 2704AUC    AUC 2683  10.039  13.458   7.254
 2705AUC    AUC 2684  10.530  13.307   7.196
 2706AUC    AUC 2685  10.530  13.307   7.500
 2707AUC    AUC 2686  10.530  13.307   7.803
 2708AUC    AUC 2687   9.548  13.307   7.196
 2709AUC    AUC 2688   9.548  13.307   7.500
 2710AUC    AUC 2689   9.548  13.307   7.803
 2711AUC    AUC 2690   9.736  13.797   7.500
 2712AUC    AUC 2691  10.039  13.797   7.500
 2713AUC    AUC 2692  10.343  13.797   7.500
 2714AUC    AUC 2693   9.736  12.816   7.500
 2715AUC    AUC 2694  10.039  12.816   7.500
 2716AUC    AUC 2695  10.343  12.816   7.500
 2717AUC    AUC 2696  10.039  13.003   7.991
 2718AUC    AUC 2697  10.039  13.307   7.991
 2719AUC    AUC 2698  10.039  13.610   7.991
 2720AUC    AUC 2699  10.039  13.003   7.009
 2721AUC    AUC 2700  10.039  13.307   7.009
 2722AUC    AUC 2701  10.039  13.610   7.009
 2723AUC    AUC 2702  10.285  13.155   7.897
 2724AUC    AUC 2703  10.285  13.458   7.897
 2725AUC    AUC 2704  10.285  13.155   7.103
 2726AUC    AUC 2705  10.285  13.458   7.103
 2727AUC    AUC 2706   9.794  13.155   7.897
 2728AUC    AUC 2707   9.794  13.458   7.897
 2729AUC    AUC 2708   9.794  13.155   7.103
 2730AUC    AUC 2709   9.794  13.458   7.103
 2731AUC    AUC 2710  10.436  13.552   7.348
 2732AUC    AUC 2711  10.436  13.552   7.651
 2733AUC    AUC 2712   9.642  13.552   7.348
 2734AUC    AUC 2713   9.642  13.552   7.651
 2735AUC    AUC 2714  10.436  13.061   7.348
 2736AUC    AUC 2715  10.436  13.061   7.651
 2737AUC    AUC 2716   9.642  13.061   7.348
 2738AUC    AUC 2717   9.642  13.061   7.651
 2739AUC    AUC 2718   9.888  13.704   7.745
 2740AUC    AUC 2719  10.191  13.704   7.745
 2741AUC    AUC 2720   9.888  12.909   7.745
 2742AUC    AUC 2721  10.191  12.909   7.745
 2743AUC    AUC 2722   9.888  13.704   7.254
 2744AUC    AUC 2723  10.191  13.704   7.254
 2745AUC    AUC 2724   9.888  12.909   7.254
 2746AUC    AUC 2725  10.191  12.909   7.254
 2747AUSL   AUS 2726  10.448  13.307   8.080
 2748AUSL   AUS 2727  10.304  12.890   8.011
 2749AUL    AUL 2728  10.530  13.003   8.294
 2750THSLK    S 2729  10.422  12.702   8.156
 2751ETHY    C1 2730  10.518  12.334   8.412
 2752ETHY    C1 2731  10.696  11.951   8.753
 2753ETHY    C1 2732  10.938  11.651   9.130
 2754ETHY    C1 2733  11.234  11.432   9.534
 2755THSLK    S 2734  10.547  13.260   8.327
 2756ETHY    C1 2735  10.774  13.110   8.694
 2757ETHY    C1 2736  11.058  13.022   9.148
 2758ETHY    C1 2737  11.342  13.044   9.607
 2759ETHY    C1 2738  11.619  13.166  10.061
 2760AUSL   AUS 2739  10.203  13.155   8.173
 2761AUSL   AUS 2740   9.876  13.458   8.173
 2762AUL    AUL 2741  10.039  13.307   8.482
 2763THSLK    S 2742  10.284  13.104   8.418
 2764ETHY    C1 2743  10.374  12.886   8.810
 2765ETHY    C1 2744  10.502  12.712   9.308
 2766ETHY    C1 2745  10.648  12.647   9.823
 2767ETHY    C1 2746  10.805  12.681  10.346
 2768THSLK    S 2747   9.789  13.418   8.432
 2769ETHY    C1 2748   9.700  13.344   8.874
 2770ETHY    C1 2749   9.576  13.346   9.403
 2771ETHY    C1 2750   9.431  13.455   9.912
 2772ETHY    C1 2751   9.268  13.659  10.392
 2773AUSL   AUS 2752  10.203  13.458   8.173
 2774AUSL   AUS 2753  10.549  13.571   7.916
 2775AUL    AUL 2754  10.530  13.610   8.294
 2776THSLK    S 2755  10.290  13.510   8.416
 2777ETHY    C1 2756  10.378  13.727   8.809
 2778ETHY    C1 2757  10.503  13.900   9.308
 2779ETHY    C1 2758  10.648  13.966   9.823
 2780ETHY    C1 2759  10.811  13.933  10.345
 2781THSLK    S 2760  10.725  13.677   8.079
 2782ETHY    C1 2761  11.087  13.727   8.355
 2783ETHY    C1 2762  11.494  13.876   8.681
 2784ETHY    C1 2763  11.856  14.125   8.995
 2785ETHY    C1 2764  12.168  14.461   9.293
 2786AUSL   AUS 2765  10.448  13.307   6.920
 2787AUSL   AUS 2766  10.304  13.723   6.990
 2788AUL    AUL 2767  10.530  13.610   6.706
 2789THSLK    S 2768  10.552  13.260   6.676
 2790ETHY    C1 2769  10.779  13.110   6.308
 2791ETHY    C1 2770  11.058  13.022   5.851
 2792ETHY    C1 2771  11.342  13.044   5.393
 2793ETHY    C1 2772  11.624  13.166   4.941
 2794THSLK    S 2773  10.481  13.842   6.820
 2795ETHY    C1 2774  10.753  13.983   6.480
 2796ETHY    C1 2775  11.031  14.230   6.085
 2797ETHY    C1 2776  11.247  14.563   5.720
 2798ETHY    C1 2777  11.404  14.970   5.391
 2799AUSL   AUS 2778  10.203  13.155   6.826
 2800AUSL   AUS 2779  10.549  13.042   7.083
 2801AUL    AUL 2780  10.530  13.003   6.706
 2802THSLK    S 2781  10.689  12.851   6.939
 2803ETHY    C1 2782  10.922  12.534   6.707
 2804ETHY    C1 2783  11.252  12.227   6.403
 2805ETHY    C1 2784  11.632  12.018   6.083
 2806ETHY    C1 2785  12.053  11.901   5.754
 2807THSLK    S 2786  10.290  13.103   6.583
 2808ETHY    C1 2787  10.378  12.886   6.191
 2809ETHY    C1 2788  10.503  12.713   5.692
 2810ETHY    C1 2789  10.648  12.647   5.176
 2811ETHY    C1 2790  10.811  12.680   4.656
 2812AUSL   AUS 2791  10.203  13.458   6.826
 2813AUSL   AUS 2792   9.876  13.155   6.826
 2814AUL    AUL 2793  10.039  13.307   6.518
 2815THSLK    S 2794   9.780  13.103   6.586
 2816ETHY    C1 2795   9.641  12.888   6.206
 2817ETHY    C1 2796   9.484  12.717   5.717
 2818ETHY    C1 2797   9.345  12.651   5.199
 2819ETHY    C1 2798   9.229  12.682   4.666
 2820THSLK    S 2799  10.305  13.419   6.572
 2821ETHY    C1 2800  10.442  13.342   6.142
 2822ETHY    C1 2801  10.595  13.342   5.622
 2823ETHY    C1 2802  10.733  13.451   5.112
 2824ETHY    C1 2803  10.856  13.658   4.621
 2825AUSL   AUS 2804   9.630  13.307   8.080
 2826AUSL   AUS 2805   9.775  13.723   8.011
 2827AUL    AUL 2806   9.548  13.610   8.294
 2828THSLK    S 2807   9.526  13.260   8.325
 2829ETHY    C1 2808   9.300  13.110   8.691
 2830ETHY    C1 2809   9.020  13.022   9.148
 2831ETHY    C1 2810   8.737  13.044   9.607
 2832ETHY    C1 2811   8.454  13.166  10.058
 2833THSLK    S 2812   9.652  13.856   8.201
 2834ETHY    C1 2813   9.556  14.051   8.604
 2835ETHY    C1 2814   9.383  14.332   9.034
 2836ETHY    C1 2815   9.140  14.658   9.390
 2837ETHY    C1 2816   8.839  15.017   9.671
 2838AUSL   AUS 2817   9.876  13.155   8.173
 2839AUSL   AUS 2818   9.529  13.042   7.916
 2840AUL    AUL 2819   9.548  13.003   8.294
 2841THSLK    S 2820   9.350  12.876   8.032
 2842ETHY    C1 2821   8.989  12.629   8.166
 2843ETHY    C1 2822   8.584  12.363   8.410
 2844ETHY    C1 2823   8.223  12.143   8.745
 2845ETHY    C1 2824   7.907  11.970   9.156
 2846THSLK    S 2825   9.774  13.105   8.413
 2847ETHY    C1 2826   9.636  12.890   8.793
 2848ETHY    C1 2827   9.483  12.717   9.284
 2849ETHY    C1 2828   9.346  12.651   9.800
 2850ETHY    C1 2829   9.222  12.683  10.332
 2851AUSL   AUS 2830   9.630  13.307   6.920
 2852AUSL   AUS 2831   9.775  12.890   6.990
 2853AUL    AUL 2832   9.548  13.003   6.706
 2854THSLK    S 2833   9.531  13.260   6.673
 2855ETHY    C1 2834   9.304  13.110   6.305
 2856ETHY    C1 2835   9.021  13.022   5.851
 2857ETHY    C1 2836   8.737  13.044   5.393
 2858ETHY    C1 2837   8.460  13.166   4.938
 2859THSLK    S 2838   9.601  12.715   6.865
 2860ETHY    C1 2839   9.329  12.402   6.673
 2861ETHY    C1 2840   9.048  12.054   6.367
 2862ETHY    C1 2841   8.831  11.746   5.980
 2863ETHY    C1 2842   8.679  11.479   5.528
 2864AUSL   AUS 2843   9.876  13.458   6.826
 2865AUSL   AUS 2844   9.529  13.571   7.083
 2866AUL    AUL 2845   9.548  13.610   6.706
 2867THSLK    S 2846   9.393  13.702   6.893
 2868ETHY    C1 2847   9.159  13.823   6.518
 2869ETHY    C1 2848   8.827  14.011   6.132
 2870ETHY    C1 2849   8.447  14.250   5.833
 2871ETHY    C1 2850   8.030  14.530   5.618
 2872THSLK    S 2851   9.795  13.420   6.566
 2873ETHY    C1 2852   9.705  13.345   6.124
 2874ETHY    C1 2853   9.577  13.346   5.597
 2875ETHY    C1 2854   9.431  13.455   5.089
 2876ETHY    C1 2855   9.274  13.661   4.608
 2877AUSL   AUS 2856  10.619  13.716   7.500
 2878AUSL   AUS 2857  10.549  13.571   7.083
 2879AUL    AUL 2858  10.833  13.797   7.196
 2880THSLK    S 2859  10.729  13.678   6.925
 2881ETHY    C1 2860  11.090  13.728   6.648
 2882ETHY    C1 2861  11.494  13.876   6.319
 2883ETHY    C1 2862  11.856  14.125   6.005
 2884ETHY    C1 2863  12.172  14.462   5.713
 2885THSLK    S 2864  10.889  13.777   7.503
 2886ETHY    C1 2865  11.336  13.877   7.502
 2887ETHY    C1 2866  11.838  14.083   7.500
 2888ETHY    C1 2867  12.285  14.385   7.500
 2889ETHY    C1 2868  12.673  14.769   7.503
 2890AUSL   AUS 2869  10.713  13.470   7.348
 2891AUSL   AUS 2870  10.713  13.143   7.651
 2892AUL    AUL 2871  11.021  13.307   7.500
 2893THSLK    S 2872  10.975  13.517   7.345
 2894ETHY    C1 2873  11.425  13.486   7.270
 2895ETHY    C1 2874  11.957  13.541   7.179
 2896ETHY    C1 2875  12.464  13.704   7.091
 2897ETHY    C1 2876  12.939  13.962   7.011
 2898THSLK    S 2877  10.950  13.006   7.659
 2899ETHY    C1 2878  11.321  12.748   7.726
 2900ETHY    C1 2879  11.807  12.522   7.808
 2901ETHY    C1 2880  12.326  12.402   7.896
 2902ETHY    C1 2881  12.864  12.380   7.989
 2903AUSL   AUS 2882  10.713  13.470   7.651
 2904AUSL   AUS 2883  10.456  13.817   7.764
 2905AUL    AUL 2884  10.833  13.797   7.803
 2906THSLK    S 2885  10.641  13.941   7.924
 2907ETHY    C1 2886  10.998  14.133   8.136
 2908ETHY    C1 2887  11.375  14.440   8.377
 2909ETHY    C1 2888  11.676  14.827   8.602
 2910ETHY    C1 2889  11.903  15.278   8.809
 2911THSLK    S 2890  10.974  13.516   7.661
 2912ETHY    C1 2891  11.425  13.486   7.734
 2913ETHY    C1 2892  11.958  13.541   7.821
 2914ETHY    C1 2893  12.464  13.704   7.908
 2915ETHY    C1 2894  12.938  13.962   7.995
 2916AUSL   AUS 2895   9.459  13.716   7.500
 2917AUSL   AUS 2896   9.529  13.571   7.916
 2918AUL    AUL 2897   9.245  13.797   7.803
 2919THSLK    S 2898   9.389  13.697   8.107
 2920ETHY    C1 2899   9.156  13.818   8.482
 2921ETHY    C1 2900   8.827  14.011   8.868
 2922ETHY    C1 2901   8.447  14.250   9.166
 2923ETHY    C1 2902   8.026  14.525   9.381
 2924THSLK    S 2903   9.238  13.856   7.503
 2925ETHY    C1 2904   8.949  14.211   7.502
 2926ETHY    C1 2905   8.541  14.568   7.500
 2927ETHY    C1 2906   8.071  14.832   7.500
 2928ETHY    C1 2907   7.553  15.008   7.503
 2929AUSL   AUS 2908   9.366  13.470   7.348
 2930AUSL   AUS 2909   9.623  13.817   7.236
 2931AUL    AUL 2910   9.245  13.797   7.196
 2932THSLK    S 2911   9.129  13.584   7.303
 2933ETHY    C1 2912   8.757  13.758   7.101
 2934ETHY    C1 2913   8.271  13.934   6.936
 2935ETHY    C1 2914   7.753  14.066   6.868
 2936ETHY    C1 2915   7.215  14.158   6.890
 2937THSLK    S 2916   9.503  13.984   7.056
 2938ETHY    C1 2917   9.351  14.303   6.765
 2939ETHY    C1 2918   9.097  14.683   6.473
 2940ETHY    C1 2919   8.764  15.051   6.260
 2941ETHY    C1 2920   8.368  15.401   6.122
 2942AUSL   AUS 2921   9.366  13.470   7.651
 2943AUSL   AUS 2922   9.366  13.143   7.348
 2944AUL    AUL 2923   9.058  13.307   7.500
 2945THSLK    S 2924   9.104  13.068   7.384
 2946ETHY    C1 2925   8.654  13.017   7.446
 2947ETHY    C1 2926   8.121  12.914   7.434
 2948ETHY    C1 2927   7.614  12.764   7.327
 2949ETHY    C1 2928   7.141  12.571   7.135
 2950THSLK    S 2929   9.128  13.578   7.699
 2951ETHY    C1 2930   8.757  13.754   7.901
 2952ETHY    C1 2931   8.271  13.933   8.063
 2953ETHY    C1 2932   7.753  14.066   8.133
 2954ETHY    C1 2933   7.214  14.152   8.114
 2955AUSL   AUS 2934  10.619  12.897   7.500
 2956AUSL   AUS 2935  10.549  13.042   7.916
 2957AUL    AUL 2936  10.833  12.816   7.803
 2958THSLK    S 2937  10.840  12.757   7.503
 2959ETHY    C1 2938  11.129  12.402   7.502
 2960ETHY    C1 2939  11.538  12.045   7.500
 2961ETHY    C1 2940  12.008  11.781   7.500
 2962ETHY    C1 2941  12.525  11.605   7.503
 2963THSLK    S 2942  10.686  12.852   8.066
 2964ETHY    C1 2943  10.919  12.535   8.297
 2965ETHY    C1 2944  11.252  12.228   8.598
 2966ETHY    C1 2945  11.632  12.018   8.918
 2967ETHY    C1 2946  12.049  11.902   9.250
 2968AUSL   AUS 2947  10.713  13.143   7.348
 2969AUSL   AUS 2948  10.456  12.796   7.236
 2970AUL    AUL 2949  10.833  12.816   7.196
 2971THSLK    S 2950  10.951  13.006   7.346
 2972ETHY    C1 2951  11.322  12.748   7.279
 2973ETHY    C1 2952  11.807  12.522   7.192
 2974ETHY    C1 2953  12.326  12.402   7.103
 2975ETHY    C1 2954  12.865  12.380   7.018
 2976THSLK    S 2955  10.579  12.605   7.099
 2977ETHY    C1 2956  10.729  12.203   6.942
 2978ETHY    C1 2957  10.982  11.773   6.728
 2979ETHY    C1 2958  11.314  11.417   6.495
 2980ETHY    C1 2959  11.713  11.136   6.249
 2981AUSL   AUS 2960   9.459  12.897   7.500
 2982AUSL   AUS 2961   9.529  13.042   7.083
 2983AUL    AUL 2962   9.245  12.816   7.196
 2984THSLK    S 2963   9.354  12.871   6.966
 2985ETHY    C1 2964   8.992  12.625   6.833
 2986ETHY    C1 2965   8.584  12.362   6.589
 2987ETHY    C1 2966   8.223  12.143   6.255
 2988ETHY    C1 2967   7.911  11.965   5.843
 2989THSLK    S 2968   9.189  12.836   7.503
 2990ETHY    C1 2969   8.743  12.736   7.502
 2991ETHY    C1 2970   8.241  12.530   7.500
 2992ETHY    C1 2971   7.794  12.228   7.500
 2993ETHY    C1 2972   7.406  11.844   7.503
 2994AUSL   AUS 2973   9.366  13.143   7.651
 2995AUSL   AUS 2974   9.623  12.796   7.764
 2996AUL    AUL 2975   9.245  12.816   7.803
 2997THSLK    S 2976   9.435  12.648   7.881
 2998ETHY    C1 2977   9.079  12.372   7.958
 2999ETHY    C1 2978   8.704  12.015   8.122
 3000ETHY    C1 2979   8.403  11.641   8.367
 3001ETHY    C1 2980   8.172  11.259   8.682
 3002THSLK    S 2981   9.103  13.073   7.618
 3003ETHY    C1 2982   8.653  13.021   7.557
 3004ETHY    C1 2983   8.121  12.915   7.566
 3005ETHY    C1 2984   7.614  12.764   7.673
 3006ETHY    C1 2985   7.140  12.576   7.867
 3007AUSL   AUS 2986  10.039  13.887   7.909
 3008AUSL   AUS 2987   9.623  13.817   7.764
 3009AUL    AUL 2988   9.736  14.101   7.991
 3010THSLK    S 2989   9.500  13.979   7.948
 3011ETHY    C1 2990   9.349  14.299   8.237
 3012ETHY    C1 2991   9.096  14.682   8.527
 3013ETHY    C1 2992   8.764  15.050   8.740
 3014ETHY    C1 2993   8.365  15.396   8.881
 3015THSLK    S 2994  10.077  14.118   8.034
 3016ETHY    C1 2995  10.205  14.444   8.327
 3017ETHY    C1 2996  10.282  14.876   8.646
 3018ETHY    C1 2997  10.263  15.341   8.920
 3019ETHY    C1 2998  10.157  15.826   9.147
 3020AUSL   AUS 2999   9.888  13.980   7.663
 3021AUSL   AUS 3000  10.191  13.980   7.336
 3022AUL    AUL 3001  10.039  14.288   7.500
 3023THSLK    S 3002   9.925  14.232   7.772
 3024ETHY    C1 3003   9.998  14.656   7.929
 3025ETHY    C1 3004   9.995  15.172   8.095
 3026ETHY    C1 3005   9.887  15.683   8.229
 3027ETHY    C1 3006   9.683  16.179   8.336
 3028THSLK    S 3007  10.242  14.220   7.237
 3029ETHY    C1 3008  10.455  14.597   7.091
 3030ETHY    C1 3009  10.625  15.086   6.929
 3031ETHY    C1 3010  10.692  15.604   6.792
 3032ETHY    C1 3011  10.663  16.138   6.682
 3033AUSL   AUS 3012  10.191  13.980   7.663
 3034AUSL   AUS 3013  10.304  13.723   8.011
 3035AUL    AUL 3014  10.343  14.101   7.991
 3036THSLK    S 3015  10.477  13.840   8.184
 3037ETHY    C1 3016  10.750  13.981   8.522
 3038ETHY    C1 3017  11.031  14.230   8.915
 3039ETHY    C1 3018  11.247  14.563   9.279
 3040ETHY    C1 3019  11.399  14.968   9.614
 3041THSLK    S 3020  10.241  14.218   7.768
 3042ETHY    C1 3021  10.454  14.597   7.913
 3043ETHY    C1 3022  10.625  15.086   8.072
 3044ETHY    C1 3023  10.692  15.604   8.207
 3045ETHY    C1 3024  10.661  16.137   8.325
 3046AUSL   AUS 3025  10.039  12.726   7.909
 3047AUSL   AUS 3026  10.456  12.796   7.764
 3048AUL    AUL 3027  10.343  12.512   7.991
 3049THSLK    S 3028   9.998  12.469   7.992
 3050ETHY    C1 3029   9.871  12.060   8.152
 3051ETHY    C1 3030   9.797  11.579   8.391
 3052ETHY    C1 3031   9.816  11.127   8.684
 3053ETHY    C1 3032   9.918  10.709   9.021
 3054THSLK    S 3033  10.576  12.606   7.907
 3055ETHY    C1 3034  10.727  12.204   8.062
 3056ETHY    C1 3035  10.982  11.773   8.272
 3057ETHY    C1 3036  11.314  11.417   8.505
 3058ETHY    C1 3037  11.710  11.138   8.758
 3059AUSL   AUS 3038   9.888  12.633   7.663
 3060AUSL   AUS 3039   9.775  12.890   8.011
 3061AUL    AUL 3040   9.736  12.512   7.991
 3062THSLK    S 3041   9.837  12.388   7.744
 3063ETHY    C1 3042   9.624  11.989   7.812
 3064ETHY    C1 3043   9.453  11.486   7.925
 3065ETHY    C1 3044   9.387  10.972   8.072
 3066ETHY    C1 3045   9.416  10.457   8.252
 3067THSLK    S 3046   9.597  12.720   8.136
 3068ETHY    C1 3047   9.325  12.405   8.327
 3069ETHY    C1 3048   9.047  12.054   8.633
 3070ETHY    C1 3049   8.831  11.746   9.019
 3071ETHY    C1 3050   8.675  11.484   9.473
 3072AUSL   AUS 3051  10.191  12.633   7.663
 3073AUSL   AUS 3052   9.888  12.633   7.336
 3074AUL    AUL 3053  10.039  12.325   7.500
 3075THSLK    S 3054   9.838  12.386   7.261
 3076ETHY    C1 3055   9.625  11.988   7.192
 3077ETHY    C1 3056   9.453  11.486   7.076
 3078ETHY    C1 3057   9.387  10.972   6.927
 3079ETHY    C1 3058   9.418  10.455   6.754
 3080THSLK    S 3059  10.152  12.374   7.748
 3081ETHY    C1 3060  10.080  11.929   7.829
 3082ETHY    C1 3061  10.083  11.400   7.948
 3083ETHY    C1 3062  10.192  10.892   8.095
 3084ETHY    C1 3063  10.394  10.414   8.264
 3085AUSL   AUS 3064  10.039  13.887   7.091
 3086AUSL   AUS 3065  10.456  13.817   7.236
 3087AUL    AUL 3066  10.343  14.101   7.009
 3088THSLK    S 3067  10.081  14.121   6.971
 3089ETHY    C1 3068  10.208  14.446   6.676
 3090ETHY    C1 3069  10.282  14.876   6.353
 3091ETHY    C1 3070  10.263  15.341   6.080
 3092ETHY    C1 3071  10.160  15.829   5.857
 3093THSLK    S 3072  10.643  13.942   7.081
 3094ETHY    C1 3073  11.000  14.134   6.869
 3095ETHY    C1 3074  11.375  14.440   6.623
 3096ETHY    C1 3075  11.676  14.827   6.398
 3097ETHY    C1 3076  11.906  15.279   6.197
 3098AUSL   AUS 3077   9.888  13.980   7.336
 3099AUSL   AUS 3078   9.775  13.723   6.990
 3100AUL    AUL 3079   9.736  14.101   7.009
 3101THSLK    S 3080   9.927  14.234   7.233
 3102ETHY    C1 3081   9.999  14.657   7.074
 3103ETHY    C1 3082   9.996  15.173   6.906
 3104ETHY    C1 3083   9.887  15.683   6.770
 3105ETHY    C1 3084   9.685  16.181   6.670
 3106THSLK    S 3085   9.656  13.860   6.800
 3107ETHY    C1 3086   9.560  14.054   6.396
 3108ETHY    C1 3087   9.383  14.332   5.966
 3109ETHY    C1 3088   9.140  14.657   5.611
 3110ETHY    C1 3089   8.844  15.022   5.330
 3111AUSL   AUS 3090  10.039  12.726   7.091
 3112AUSL   AUS 3091   9.623  12.796   7.236
 3113AUL    AUL 3092   9.736  12.512   7.009
 3114THSLK    S 3093   9.438  12.643   7.122
 3115ETHY    C1 3094   9.081  12.369   7.044
 3116ETHY    C1 3095   8.704  12.015   6.878
 3117ETHY    C1 3096   8.402  11.641   6.633
 3118ETHY    C1 3097   8.175  11.254   6.321
 3119THSLK    S 3098  10.001  12.466   7.013
 3120ETHY    C1 3099   9.873  12.058   6.852
 3121ETHY    C1 3100   9.797  11.579   6.609
 3122ETHY    C1 3101   9.816  11.127   6.315
 3123ETHY    C1 3102   9.922  10.706   5.983
 3124AUSL   AUS 3103  10.191  12.633   7.336
 3125AUSL   AUS 3104  10.304  12.890   6.990
 3126AUL    AUL 3105  10.343  12.512   7.009
 3127THSLK    S 3106  10.154  12.373   7.258
 3128ETHY    C1 3107  10.081  11.928   7.175
 3129ETHY    C1 3108  10.083  11.400   7.052
 3130ETHY    C1 3109  10.191  10.892   6.905
 3131ETHY    C1 3110  10.396  10.413   6.742
 3132THSLK    S 3111  10.427  12.700   6.847
 3133ETHY    C1 3112  10.522  12.332   6.592
 3134ETHY    C1 3113  10.696  11.951   6.247
 3135ETHY    C1 3114  10.938  11.651   5.870
 3136ETHY    C1 3115  11.239  11.430   5.471
 3137AUC    AUC 3116  45.892  35.454   7.500
 3138AUC    AUC 3117  46.138  35.454   7.348
 3139AUC    AUC 3118  46.138  35.454   7.651
 3140AUC    AUC 3119  45.647  35.454   7.348
 3141AUC    AUC 3120  45.647  35.454   7.651
 3142AUC    AUC 3121  45.741  35.699   7.500
 3143AUC    AUC 3122  46.044  35.699   7.500
 3144AUC    AUC 3123  45.741  35.208   7.500
 3145AUC    AUC 3124  46.044  35.208   7.500
 3146AUC    AUC 3125  45.892  35.302   7.745
 3147AUC    AUC 3126  45.892  35.605   7.745
 3148AUC    AUC 3127  45.892  35.302   7.254
 3149AUC    AUC 3128  45.892  35.605   7.254
 3150AUC    AUC 3129  46.383  35.454   7.196
 3151AUC    AUC 3130  46.383  35.454   7.500
 3152AUC    AUC 3131  46.383  35.454   7.803
 3153AUC    AUC 3132  45.401  35.454   7.196
 3154AUC    AUC 3133  45.401  35.454   7.500
 3155AUC    AUC 3134  45.401  35.454   7.803
 3156AUC    AUC 3135  45.589  35.944   7.500
 3157AUC    AUC 3136  45.892  35.944   7.500
 3158AUC    AUC 3137  46.196  35.944   7.500
 3159AUC    AUC 3138  45.589  34.963   7.500
 3160AUC    AUC 3139  45.892  34.963   7.500
 3161AUC    AUC 3140  46.196  34.963   7.500
 3162AUC    AUC 3141  45.892  35.150   7.991
 3163AUC    AUC 3142  45.892  35.454   7.991
 3164AUC    AUC 3143  45.892  35.757   7.991
 3165AUC    AUC 3144  45.892  35.150   7.009
 3166AUC    AUC 3145  45.892  35.454   7.009
 3167AUC    AUC 3146  45.892  35.757   7.009
 3168AUC    AUC 3147  46.138  35.302   7.897
 3169AUC    AUC 3148  46.138  35.605   7.897
 3170AUC    AUC 3149  46.138  35.302   7.103
 3171AUC    AUC 3150  46.138  35.605   7.103
 3172AUC    AUC 3151  45.647  35.302   7.897
 3173AUC    AUC 3152  45.647  35.605   7.897
 3174AUC    AUC 3153  45.647  35.302   7.103
 3175AUC    AUC 3154  45.647  35.605   7.103
 3176AUC    AUC 3155  46.289  35.699   7.348
 3177AUC    AUC 3156  46.289  35.699   7.651
 3178AUC    AUC 3157  45.495  35.699   7.348
 3179AUC    AUC 3158  45.495  35.699   7.651
 3180AUC    AUC 3159  46.289  35.208   7.348
 3181AUC    AUC 3160  46.289  35.208   7.651
 3182AUC    AUC 3161  45.495  35.208   7.348
 3183AUC    AUC 3162  45.495  35.208   7.651
 3184AUC    AUC 3163  45.741  35.851   7.745
 3185AUC    AUC 3164  46.044  35.851   7.745
 3186AUC    AUC 3165  45.741  35.056   7.745
 3187AUC    AUC 3166  46.044  35.056   7.745
 3188AUC    AUC 3167  45.741  35.851   7.254
 3189AUC    AUC 3168  46.044  35.851   7.254
 3190AUC    AUC 3169  45.741  35.056   7.254
 3191AUC    AUC 3170  46.044  35.056   7.254
 3192AUSL   AUS 3171  46.301  35.454   8.080
 3193AUSL   AUS 3172  46.157  35.037   8.011
 3194AUL    AUL 3173  46.383  35.150   8.294
 3195THSLK    S 3174  46.275  34.849   8.156
 3196ETHY    C1 3175  46.371  34.481   8.412
 3197ETHY    C1 3176  46.549  34.098   8.753
 3198ETHY    C1 3177  46.791  33.798   9.130
 3199ETHY    C1 3178  47.087  33.579   9.534
 3200THSLK    S 3179  46.400  35.407   8.327
 3201ETHY    C1 3180  46.627  35.257   8.694
 3202ETHY    C1 3181  46.911  35.169   9.148
 3203ETHY    C1 3182  47.195  35.191   9.607
 3204ETHY    C1 3183  47.472  35.313  10.061
 3205AUSL   AUS 3184  46.056  35.302   8.173
 3206AUSL   AUS 3185  45.729  35.605   8.173
 3207AUL    AUL 3186  45.892  35.454   8.482
 3208THSLK    S 3187  46.137  35.251   8.418
 3209ETHY    C1 3188  46.227  35.033   8.810
 3210ETHY    C1 3189  46.355  34.859   9.308
 3211ETHY    C1 3190  46.501  34.794   9.823
 3212ETHY    C1 3191  46.658  34.828  10.346
 3213THSLK    S 3192  45.642  35.565   8.432
 3214ETHY    C1 3193  45.553  35.491   8.874
 3215ETHY    C1 3194  45.429  35.493   9.403
 3216ETHY    C1 3195  45.284  35.602   9.912
 3217ETHY    C1 3196  45.121  35.806  10.392
 3218AUSL   AUS 3197  46.056  35.605   8.173
 3219AUSL   AUS 3198  46.402  35.718   7.916
 3220AUL    AUL 3199  46.383  35.757   8.294
 3221THSLK    S 3200  46.143  35.657   8.416
 3222ETHY    C1 3201  46.231  35.874   8.809
 3223ETHY    C1 3202  46.356  36.047   9.308
 3224ETHY    C1 3203  46.501  36.113   9.823
 3225ETHY    C1 3204  46.664  36.080  10.345
 3226THSLK    S 3205  46.578  35.824   8.079
 3227ETHY    C1 3206  46.940  35.874   8.355
 3228ETHY    C1 3207  47.347  36.023   8.681
 3229ETHY    C1 3208  47.709  36.272   8.995
 3230ETHY    C1 3209  48.021  36.608   9.293
 3231AUSL   AUS 3210  46.301  35.454   6.920
 3232AUSL   AUS 3211  46.157  35.870   6.990
 3233AUL    AUL 3212  46.383  35.757   6.706
 3234THSLK    S 3213  46.405  35.407   6.676
 3235ETHY    C1 3214  46.632  35.257   6.308
 3236ETHY    C1 3215  46.911  35.169   5.851
 3237ETHY    C1 3216  47.195  35.191   5.393
 3238ETHY    C1 3217  47.477  35.313   4.941
 3239THSLK    S 3218  46.334  35.989   6.820
 3240ETHY    C1 3219  46.606  36.130   6.480
 3241ETHY    C1 3220  46.884  36.377   6.085
 3242ETHY    C1 3221  47.100  36.710   5.720
 3243ETHY    C1 3222  47.257  37.117   5.391
 3244AUSL   AUS 3223  46.056  35.302   6.826
 3245AUSL   AUS 3224  46.402  35.189   7.083
 3246AUL    AUL 3225  46.383  35.150   6.706
 3247THSLK    S 3226  46.542  34.998   6.939
 3248ETHY    C1 3227  46.775  34.681   6.707
 3249ETHY    C1 3228  47.105  34.374   6.403
 3250ETHY    C1 3229  47.485  34.165   6.083
 3251ETHY    C1 3230  47.906  34.048   5.754
 3252THSLK    S 3231  46.143  35.250   6.583
 3253ETHY    C1 3232  46.231  35.033   6.191
 3254ETHY    C1 3233  46.356  34.860   5.692
 3255ETHY    C1 3234  46.501  34.794   5.176
 3256ETHY    C1 3235  46.664  34.827   4.656
 3257AUSL   AUS 3236  46.056  35.605   6.826
 3258AUSL   AUS 3237  45.729  35.302   6.826
 3259AUL    AUL 3238  45.892  35.454   6.518
 3260THSLK    S 3239  45.633  35.250   6.586
 3261ETHY    C1 3240  45.494  35.035   6.206
 3262ETHY    C1 3241  45.337  34.864   5.717
 3263ETHY    C1 3242  45.198  34.798   5.199
 3264ETHY    C1 3243  45.082  34.829   4.666
 3265THSLK    S 3244  46.158  35.566   6.572
 3266ETHY    C1 3245  46.295  35.489   6.142
 3267ETHY    C1 3246  46.448  35.489   5.622
 3268ETHY    C1 3247  46.586  35.598   5.112
 3269ETHY    C1 3248  46.709  35.805   4.621
 3270AUSL   AUS 3249  45.483  35.454   8.080
 3271AUSL   AUS 3250  45.628  35.870   8.011
 3272AUL    AUL 3251  45.401  35.757   8.294
 3273THSLK    S 3252  45.379  35.407   8.325
 3274ETHY    C1 3253  45.153  35.257   8.691
 3275ETHY    C1 3254  44.873  35.169   9.148
 3276ETHY    C1 3255  44.590  35.191   9.607
 3277ETHY    C1 3256  44.307  35.313  10.058
 3278THSLK    S 3257  45.505  36.003   8.201
 3279ETHY    C1 3258  45.409  36.198   8.604
 3280ETHY    C1 3259  45.236  36.479   9.034
 3281ETHY    C1 3260  44.993  36.805   9.390
 3282ETHY    C1 3261  44.692  37.164   9.671
 3283AUSL   AUS 3262  45.729  35.302   8.173
 3284AUSL   AUS 3263  45.382  35.189   7.916
 3285AUL    AUL 3264  45.401  35.150   8.294
 3286THSLK    S 3265  45.203  35.023   8.032
 3287ETHY    C1 3266  44.842  34.776   8.166
 3288ETHY    C1 3267  44.437  34.510   8.410
 3289ETHY    C1 3268  44.076  34.290   8.745
 3290ETHY    C1 3269  43.760  34.117   9.156
 3291THSLK    S 3270  45.627  35.252   8.413
 3292ETHY    C1 3271  45.489  35.037   8.793
 3293ETHY    C1 3272  45.336  34.864   9.284
 3294ETHY    C1 3273  45.199  34.798   9.800
 3295ETHY    C1 3274  45.075  34.830  10.332
 3296AUSL   AUS 3275  45.483  35.454   6.920
 3297AUSL   AUS 3276  45.628  35.037   6.990
 3298AUL    AUL 3277  45.401  35.150   6.706
 3299THSLK    S 3278  45.384  35.407   6.673
 3300ETHY    C1 3279  45.157  35.257   6.305
 3301ETHY    C1 3280  44.874  35.169   5.851
 3302ETHY    C1 3281  44.590  35.191   5.393
 3303ETHY    C1 3282  44.313  35.313   4.938
 3304THSLK    S 3283  45.454  34.862   6.865
 3305ETHY    C1 3284  45.182  34.549   6.673
 3306ETHY    C1 3285  44.901  34.201   6.367
 3307ETHY    C1 3286  44.684  33.893   5.980
 3308ETHY    C1 3287  44.532  33.626   5.528
 3309AUSL   AUS 3288  45.729  35.605   6.826
 3310AUSL   AUS 3289  45.382  35.718   7.083
 3311AUL    AUL 3290  45.401  35.757   6.706
 3312THSLK    S 3291  45.246  35.849   6.893
 3313ETHY    C1 3292  45.012  35.970   6.518
 3314ETHY    C1 3293  44.680  36.158   6.132
 3315ETHY    C1 3294  44.300  36.397   5.833
 3316ETHY    C1 3295  43.883  36.677   5.618
 3317THSLK    S 3296  45.648  35.567   6.566
 3318ETHY    C1 3297  45.558  35.492   6.124
 3319ETHY    C1 3298  45.430  35.493   5.597
 3320ETHY    C1 3299  45.284  35.602   5.089
 3321ETHY    C1 3300  45.127  35.808   4.608
 3322AUSL   AUS 3301  46.472  35.863   7.500
 3323AUSL   AUS 3302  46.402  35.718   7.083
 3324AUL    AUL 3303  46.686  35.944   7.196
 3325THSLK    S 3304  46.582  35.825   6.925
 3326ETHY    C1 3305  46.943  35.875   6.648
 3327ETHY    C1 3306  47.347  36.023   6.319
 3328ETHY    C1 3307  47.709  36.272   6.005
 3329ETHY    C1 3308  48.025  36.609   5.713
 3330THSLK    S 3309  46.742  35.924   7.503
 3331ETHY    C1 3310  47.189  36.024   7.502
 3332ETHY    C1 3311  47.691  36.230   7.500
 3333ETHY    C1 3312  48.138  36.532   7.500
 3334ETHY    C1 3313  48.526  36.916   7.503
 3335AUSL   AUS 3314  46.566  35.617   7.348
 3336AUSL   AUS 3315  46.566  35.290   7.651
 3337AUL    AUL 3316  46.874  35.454   7.500
 3338THSLK    S 3317  46.828  35.664   7.345
 3339ETHY    C1 3318  47.278  35.633   7.270
 3340ETHY    C1 3319  47.810  35.688   7.179
 3341ETHY    C1 3320  48.317  35.851   7.091
 3342ETHY    C1 3321  48.792  36.109   7.011
 3343THSLK    S 3322  46.803  35.153   7.659
 3344ETHY    C1 3323  47.174  34.895   7.726
 3345ETHY    C1 3324  47.660  34.669   7.808
 3346ETHY    C1 3325  48.179  34.549   7.896
 3347ETHY    C1 3326  48.717  34.527   7.989
 3348AUSL   AUS 3327  46.566  35.617   7.651
 3349AUSL   AUS 3328  46.309  35.964   7.764
 3350AUL    AUL 3329  46.686  35.944   7.803
 3351THSLK    S 3330  46.494  36.088   7.924
 3352ETHY    C1 3331  46.851  36.280   8.136
 3353ETHY    C1 3332  47.228  36.587   8.377
 3354ETHY    C1 3333  47.529  36.974   8.602
 3355ETHY    C1 3334  47.756  37.425   8.809
 3356THSLK    S 3335  46.827  35.663   7.661
 3357ETHY    C1 3336  47.278  35.633   7.734
 3358ETHY    C1 3337  47.811  35.688   7.821
 3359ETHY    C1 3338  48.317  35.851   7.908
 3360ETHY    C1 3339  48.791  36.109   7.995
 3361AUSL   AUS 3340  45.312  35.863   7.500
 3362AUSL   AUS 3341  45.382  35.718   7.916
 3363AUL    AUL 3342  45.098  35.944   7.803
 3364THSLK    S 3343  45.242  35.844   8.107
 3365ETHY    C1 3344  45.009  35.965   8.482
 3366ETHY    C1 3345  44.680  36.158   8.868
 3367ETHY    C1 3346  44.300  36.397   9.166
 3368ETHY    C1 3347  43.879  36.672   9.381
 3369THSLK    S 3348  45.091  36.003   7.503
 3370ETHY    C1 3349  44.802  36.358   7.502
 3371ETHY    C1 3350  44.394  36.715   7.500
 3372ETHY    C1 3351  43.924  36.979   7.500
 3373ETHY    C1 3352  43.406  37.155   7.503
 3374AUSL   AUS 3353  45.219  35.617   7.348
 3375AUSL   AUS 3354  45.476  35.964   7.236
 3376AUL    AUL 3355  45.098  35.944   7.196
 3377THSLK    S 3356  44.982  35.731   7.303
 3378ETHY    C1 3357  44.610  35.905   7.101
 3379ETHY    C1 3358  44.124  36.081   6.936
 3380ETHY    C1 3359  43.606  36.213   6.868
 3381ETHY    C1 3360  43.068  36.305   6.890
 3382THSLK    S 3361  45.356  36.131   7.056
 3383ETHY    C1 3362  45.204  36.450   6.765
 3384ETHY    C1 3363  44.950  36.830   6.473
 3385ETHY    C1 3364  44.617  37.198   6.260
 3386ETHY    C1 3365  44.221  37.548   6.122
 3387AUSL   AUS 3366  45.219  35.617   7.651
 3388AUSL   AUS 3367  45.219  35.290   7.348
 3389AUL    AUL 3368  44.911  35.454   7.500
 3390THSLK    S 3369  44.957  35.215   7.384
 3391ETHY    C1 3370  44.507  35.164   7.446
 3392ETHY    C1 3371  43.974  35.061   7.434
 3393ETHY    C1 3372  43.467  34.911   7.327
 3394ETHY    C1 3373  42.994  34.718   7.135
 3395THSLK    S 3374  44.981  35.725   7.699
 3396ETHY    C1 3375  44.610  35.901   7.901
 3397ETHY    C1 3376  44.124  36.080   8.063
 3398ETHY    C1 3377  43.606  36.213   8.133
 3399ETHY    C1 3378  43.067  36.299   8.114
 3400AUSL   AUS 3379  46.472  35.044   7.500
 3401AUSL   AUS 3380  46.402  35.189   7.916
 3402AUL    AUL 3381  46.686  34.963   7.803
 3403THSLK    S 3382  46.693  34.904   7.503
 3404ETHY    C1 3383  46.982  34.549   7.502
 3405ETHY    C1 3384  47.391  34.192   7.500
 3406ETHY    C1 3385  47.861  33.928   7.500
 3407ETHY    C1 3386  48.378  33.752   7.503
 3408THSLK    S 3387  46.539  34.999   8.066
 3409ETHY    C1 3388  46.772  34.682   8.297
 3410ETHY    C1 3389  47.105  34.375   8.598
 3411ETHY    C1 3390  47.485  34.165   8.918
 3412ETHY    C1 3391  47.902  34.049   9.250
 3413AUSL   AUS 3392  46.566  35.290   7.348
 3414AUSL   AUS 3393  46.309  34.943   7.236
 3415AUL    AUL 3394  46.686  34.963   7.196
 3416THSLK    S 3395  46.804  35.153   7.346
 3417ETHY    C1 3396  47.175  34.895   7.279
 3418ETHY    C1 3397  47.660  34.669   7.192
 3419ETHY    C1 3398  48.179  34.549   7.103
 3420ETHY    C1 3399  48.718  34.527   7.018
 3421THSLK    S 3400  46.432  34.752   7.099
 3422ETHY    C1 3401  46.582  34.350   6.942
 3423ETHY    C1 3402  46.835  33.920   6.728
 3424ETHY    C1 3403  47.167  33.564   6.495
 3425ETHY    C1 3404  47.566  33.283   6.249
 3426AUSL   AUS 3405  45.312  35.044   7.500
 3427AUSL   AUS 3406  45.382  35.189   7.083
 3428AUL    AUL 3407  45.098  34.963   7.196
 3429THSLK    S 3408  45.207  35.018   6.966
 3430ETHY    C1 3409  44.845  34.772   6.833
 3431ETHY    C1 3410  44.437  34.509   6.589
 3432ETHY    C1 3411  44.076  34.290   6.255
 3433ETHY    C1 3412  43.764  34.112   5.843
 3434THSLK    S 3413  45.042  34.983   7.503
 3435ETHY    C1 3414  44.596  34.883   7.502
 3436ETHY    C1 3415  44.094  34.677   7.500
 3437ETHY    C1 3416  43.647  34.375   7.500
 3438ETHY    C1 3417  43.259  33.991   7.503
 3439AUSL   AUS 3418  45.219  35.290   7.651
 3440AUSL   AUS 3419  45.476  34.943   7.764
 3441AUL    AUL 3420  45.098  34.963   7.803
 3442THSLK    S 3421  45.288  34.795   7.881
 3443ETHY    C1 3422  44.932  34.519   7.958
 3444ETHY    C1 3423  44.557  34.162   8.122
 3445ETHY    C1 3424  44.256  33.788   8.367
 3446ETHY    C1 3425  44.025  33.406   8.682
 3447THSLK    S 3426  44.956  35.220   7.618
 3448ETHY    C1 3427  44.506  35.168   7.557
 3449ETHY    C1 3428  43.974  35.062   7.566
 3450ETHY    C1 3429  43.467  34.911   7.673
 3451ETHY    C1 3430  42.993  34.723   7.867
 3452AUSL   AUS 3431  45.892  36.034   7.909
 3453AUSL   AUS 3432  45.476  35.964   7.764
 3454AUL    AUL 3433  45.589  36.248   7.991
 3455THSLK    S 3434  45.353  36.126   7.948
 3456ETHY    C1 3435  45.202  36.446   8.237
 3457ETHY    C1 3436  44.949  36.829   8.527
 3458ETHY    C1 3437  44.617  37.197   8.740
 3459ETHY    C1 3438  44.218  37.543   8.881
 3460THSLK    S 3439  45.930  36.265   8.034
 3461ETHY    C1 3440  46.058  36.591   8.327
 3462ETHY    C1 3441  46.135  37.023   8.646
 3463ETHY    C1 3442  46.116  37.488   8.920
 3464ETHY    C1 3443  46.010  37.973   9.147
 3465AUSL   AUS 3444  45.741  36.127   7.663
 3466AUSL   AUS 3445  46.044  36.127   7.336
 3467AUL    AUL 3446  45.892  36.435   7.500
 3468THSLK    S 3447  45.778  36.379   7.772
 3469ETHY    C1 3448  45.851  36.803   7.929
 3470ETHY    C1 3449  45.848  37.319   8.095
 3471ETHY    C1 3450  45.740  37.830   8.229
 3472ETHY    C1 3451  45.536  38.326   8.336
 3473THSLK    S 3452  46.095  36.367   7.237
 3474ETHY    C1 3453  46.308  36.744   7.091
 3475ETHY    C1 3454  46.478  37.233   6.929
 3476ETHY    C1 3455  46.545  37.751   6.792
 3477ETHY    C1 3456  46.516  38.285   6.682
 3478AUSL   AUS 3457  46.044  36.127   7.663
 3479AUSL   AUS 3458  46.157  35.870   8.011
 3480AUL    AUL 3459  46.196  36.248   7.991
 3481THSLK    S 3460  46.330  35.987   8.184
 3482ETHY    C1 3461  46.603  36.128   8.522
 3483ETHY    C1 3462  46.884  36.377   8.915
 3484ETHY    C1 3463  47.100  36.710   9.279
 3485ETHY    C1 3464  47.252  37.115   9.614
 3486THSLK    S 3465  46.094  36.365   7.768
 3487ETHY    C1 3466  46.307  36.744   7.913
 3488ETHY    C1 3467  46.478  37.233   8.072
 3489ETHY    C1 3468  46.545  37.751   8.207
 3490ETHY    C1 3469  46.514  38.284   8.325
 3491AUSL   AUS 3470  45.892  34.873   7.909
 3492AUSL   AUS 3471  46.309  34.943   7.764
 3493AUL    AUL 3472  46.196  34.659   7.991
 3494THSLK    S 3473  45.851  34.616   7.992
 3495ETHY    C1 3474  45.724  34.207   8.152
 3496ETHY    C1 3475  45.650  33.726   8.391
 3497ETHY    C1 3476  45.669  33.274   8.684
 3498ETHY    C1 3477  45.771  32.856   9.021
 3499THSLK    S 3478  46.429  34.753   7.907
 3500ETHY    C1 3479  46.580  34.351   8.062
 3501ETHY    C1 3480  46.835  33.920   8.272
 3502ETHY    C1 3481  47.167  33.564   8.505
 3503ETHY    C1 3482  47.563  33.285   8.758
 3504AUSL   AUS 3483  45.741  34.780   7.663
 3505AUSL   AUS 3484  45.628  35.037   8.011
 3506AUL    AUL 3485  45.589  34.659   7.991
 3507THSLK    S 3486  45.690  34.535   7.744
 3508ETHY    C1 3487  45.477  34.136   7.812
 3509ETHY    C1 3488  45.306  33.633   7.925
 3510ETHY    C1 3489  45.240  33.119   8.072
 3511ETHY    C1 3490  45.269  32.604   8.252
 3512THSLK    S 3491  45.450  34.867   8.136
 3513ETHY    C1 3492  45.178  34.552   8.327
 3514ETHY    C1 3493  44.900  34.201   8.633
 3515ETHY    C1 3494  44.684  33.893   9.019
 3516ETHY    C1 3495  44.528  33.631   9.473
 3517AUSL   AUS 3496  46.044  34.780   7.663
 3518AUSL   AUS 3497  45.741  34.780   7.336
 3519AUL    AUL 3498  45.892  34.472   7.500
 3520THSLK    S 3499  45.691  34.533   7.261
 3521ETHY    C1 3500  45.478  34.135   7.192
 3522ETHY    C1 3501  45.306  33.633   7.076
 3523ETHY    C1 3502  45.240  33.119   6.927
 3524ETHY    C1 3503  45.271  32.602   6.754
 3525THSLK    S 3504  46.005  34.521   7.748
 3526ETHY    C1 3505  45.933  34.076   7.829
 3527ETHY    C1 3506  45.936  33.547   7.948
 3528ETHY    C1 3507  46.045  33.039   8.095
 3529ETHY    C1 3508  46.247  32.561   8.264
 3530AUSL   AUS 3509  45.892  36.034   7.091
 3531AUSL   AUS 3510  46.309  35.964   7.236
 3532AUL    AUL 3511  46.196  36.248   7.009
 3533THSLK    S 3512  45.934  36.268   6.971
 3534ETHY    C1 3513  46.061  36.593   6.676
 3535ETHY    C1 3514  46.135  37.023   6.353
 3536ETHY    C1 3515  46.116  37.488   6.080
 3537ETHY    C1 3516  46.013  37.976   5.857
 3538THSLK    S 3517  46.496  36.089   7.081
 3539ETHY    C1 3518  46.853  36.281   6.869
 3540ETHY    C1 3519  47.228  36.587   6.623
 3541ETHY    C1 3520  47.529  36.974   6.398
 3542ETHY    C1 3521  47.759  37.426   6.197
 3543AUSL   AUS 3522  45.741  36.127   7.336
 3544AUSL   AUS 3523  45.628  35.870   6.990
 3545AUL    AUL 3524  45.589  36.248   7.009
 3546THSLK    S 3525  45.780  36.381   7.233
 3547ETHY    C1 3526  45.852  36.804   7.074
 3548ETHY    C1 3527  45.849  37.320   6.906
 3549ETHY    C1 3528  45.740  37.830   6.770
 3550ETHY    C1 3529  45.538  38.328   6.670
 3551THSLK    S 3530  45.509  36.007   6.800
 3552ETHY    C1 3531  45.413  36.201   6.396
 3553ETHY    C1 3532  45.236  36.479   5.966
 3554ETHY    C1 3533  44.993  36.804   5.611
 3555ETHY    C1 3534  44.697  37.169   5.330
 3556AUSL   AUS 3535  45.892  34.873   7.091
 3557AUSL   AUS 3536  45.476  34.943   7.236
 3558AUL    AUL 3537  45.589  34.659   7.009
 3559THSLK    S 3538  45.291  34.790   7.122
 3560ETHY    C1 3539  44.934  34.516   7.044
 3561ETHY    C1 3540  44.557  34.162   6.878
 3562ETHY    C1 3541  44.255  33.788   6.633
 3563ETHY    C1 3542  44.028  33.401   6.321
 3564THSLK    S 3543  45.854  34.613   7.013
 3565ETHY    C1 3544  45.726  34.205   6.852
 3566ETHY    C1 3545  45.650  33.726   6.609
 3567ETHY    C1 3546  45.669  33.274   6.315
 3568ETHY    C1 3547  45.775  32.853   5.983
 3569AUSL   AUS 3548  46.044  34.780   7.336
 3570AUSL   AUS 3549  46.157  35.037   6.990
 3571AUL    AUL 3550  46.196  34.659   7.009
 3572THSLK    S 3551  46.007  34.520   7.258
 3573ETHY    C1 3552  45.934  34.075   7.175
 3574ETHY    C1 3553  45.936  33.547   7.052
 3575ETHY    C1 3554  46.044  33.039   6.905
 3576ETHY    C1 3555  46.249  32.560   6.742
 3577THSLK    S 3556  46.280  34.847   6.847
 3578ETHY    C1 3557  46.375  34.479   6.592
 3579ETHY    C1 3558  46.549  34.098   6.247
 3580ETHY    C1 3559  46.791  33.798   5.870
 3581ETHY    C1 3560  47.092  33.577   5.471
 3582AUC    AUC 3561  39.904  48.092   7.500
 3583AUC    AUC 3562  40.150  48.092   7.348
 3584AUC    AUC 3563  40.150  48.092   7.651
 3585AUC    AUC 3564  39.659  48.092   7.348
 3586AUC    AUC 3565  39.659  48.092   7.651
 3587AUC    AUC 3566  39.753  48.337   7.500
 3588AUC    AUC 3567  40.056  48.337   7.500
 3589AUC    AUC 3568  39.753  47.846   7.500
 3590AUC    AUC 3569  40.056  47.846   7.500
 3591AUC    AUC 3570  39.904  47.940   7.745
 3592AUC    AUC 3571  39.904  48.243   7.745
 3593AUC    AUC 3572  39.904  47.940   7.254
 3594AUC    AUC 3573  39.904  48.243   7.254
 3595AUC    AUC 3574  40.395  48.092   7.196
 3596AUC    AUC 3575  40.395  48.092   7.500
 3597AUC    AUC 3576  40.395  48.092   7.803
 3598AUC    AUC 3577  39.413  48.092   7.196
 3599AUC    AUC 3578  39.413  48.092   7.500
 3600AUC    AUC 3579  39.413  48.092   7.803
 3601AUC    AUC 3580  39.601  48.582   7.500
 3602AUC    AUC 3581  39.904  48.582   7.500
 3603AUC    AUC 3582  40.208  48.582   7.500
 3604AUC    AUC 3583  39.601  47.601   7.500
 3605AUC    AUC 3584  39.904  47.601   7.500
 3606AUC    AUC 3585  40.208  47.601   7.500
 3607AUC    AUC 3586  39.904  47.788   7.991
 3608AUC    AUC 3587  39.904  48.092   7.991
 3609AUC    AUC 3588  39.904  48.395   7.991
 3610AUC    AUC 3589  39.904  47.788   7.009
 3611AUC    AUC 3590  39.904  48.092   7.009
 3612AUC    AUC 3591  39.904  48.395   7.009
 3613AUC    AUC 3592  40.150  47.940   7.897
 3614AUC    AUC 3593  40.150  48.243   7.897
 3615AUC    AUC 3594  40.150  47.940   7.103
 3616AUC    AUC 3595  40.150  48.243   7.103
 3617AUC    AUC 3596  39.659  47.940   7.897
 3618AUC    AUC 3597  39.659  48.243   7.897
 3619AUC    AUC 3598  39.659  47.940   7.103
 3620AUC    AUC 3599  39.659  48.243   7.103
 3621AUC    AUC 3600  40.301  48.337   7.348
 3622AUC    AUC 3601  40.301  48.337   7.651
 3623AUC    AUC 3602  39.507  48.337   7.348
 3624AUC    AUC 3603  39.507  48.337   7.651
 3625AUC    AUC 3604  40.301  47.846   7.348
 3626AUC    AUC 3605  40.301  47.846   7.651
 3627AUC    AUC 3606  39.507  47.846   7.348
 3628AUC    AUC 3607  39.507  47.846   7.651
 3629AUC    AUC 3608  39.753  48.489   7.745
 3630AUC    AUC 3609  40.056  48.489   7.745
 3631AUC    AUC 3610  39.753  47.694   7.745
 3632AUC    AUC 3611  40.056  47.694   7.745
 3633AUC    AUC 3612  39.753  48.489   7.254
 3634AUC    AUC 3613  40.056  48.489   7.254
 3635AUC    AUC 3614  39.753  47.694   7.254
 3636AUC    AUC 3615  40.056  47.694   7.254
 3637AUSL   AUS 3616  40.313  48.092   8.080
 3638AUSL   AUS 3617  40.169  47.675   8.011
 3639AUL    AUL 3618  40.395  47.788   8.294
 3640THSLK    S 3619  40.287  47.487   8.156
 3641ETHY    C1 3620  40.383  47.119   8.412
 3642ETHY    C1 3621  40.561  46.736   8.753
 3643ETHY    C1 3622  40.803  46.436   9.130
 3644ETHY    C1 3623  41.099  46.217   9.534
 3645THSLK    S 3624  40.412  48.045   8.327
 3646ETHY    C1 3625  40.639  47.895   8.694
 3647ETHY    C1 3626  40.923  47.807   9.148
 3648ETHY    C1 3627  41.207  47.829   9.607
 3649ETHY    C1 3628  41.484  47.951  10.061
 3650AUSL   AUS 3629  40.068  47.940   8.173
 3651AUSL   AUS 3630  39.741  48.243   8.173
 3652AUL    AUL 3631  39.904  48.092   8.482
 3653THSLK    S 3632  40.149  47.889   8.418
 3654ETHY    C1 3633  40.239  47.671   8.810
 3655ETHY    C1 3634  40.367  47.497   9.308
 3656ETHY    C1 3635  40.513  47.432   9.823
 3657ETHY    C1 3636  40.670  47.466  10.346
 3658THSLK    S 3637  39.654  48.203   8.432
 3659ETHY    C1 3638  39.565  48.129   8.874
 3660ETHY    C1 3639  39.441  48.131   9.403
 3661ETHY    C1 3640  39.296  48.240   9.912
 3662ETHY    C1 3641  39.133  48.444  10.392
 3663AUSL   AUS 3642  40.068  48.243   8.173
 3664AUSL   AUS 3643  40.414  48.356   7.916
 3665AUL    AUL 3644  40.395  48.395   8.294
 3666THSLK    S 3645  40.155  48.295   8.416
 3667ETHY    C1 3646  40.243  48.512   8.809
 3668ETHY    C1 3647  40.368  48.685   9.308
 3669ETHY    C1 3648  40.513  48.751   9.823
 3670ETHY    C1 3649  40.676  48.718  10.345
 3671THSLK    S 3650  40.590  48.462   8.079
 3672ETHY    C1 3651  40.952  48.512   8.355
 3673ETHY    C1 3652  41.359  48.661   8.681
 3674ETHY    C1 3653  41.721  48.910   8.995
 3675ETHY    C1 3654  42.033  49.246   9.293
 3676AUSL   AUS 3655  40.313  48.092   6.920
 3677AUSL   AUS 3656  40.169  48.508   6.990
 3678AUL    AUL 3657  40.395  48.395   6.706
 3679THSLK    S 3658  40.417  48.045   6.676
 3680ETHY    C1 3659  40.644  47.895   6.308
 3681ETHY    C1 3660  40.923  47.807   5.851
 3682ETHY    C1 3661  41.207  47.829   5.393
 3683ETHY    C1 3662  41.489  47.951   4.941
 3684THSLK    S 3663  40.346  48.627   6.820
 3685ETHY    C1 3664  40.618  48.768   6.480
 3686ETHY    C1 3665  40.896  49.015   6.085
 3687ETHY    C1 3666  41.112  49.348   5.720
 3688ETHY    C1 3667  41.269  49.755   5.391
 3689AUSL   AUS 3668  40.068  47.940   6.826
 3690AUSL   AUS 3669  40.414  47.827   7.083
 3691AUL    AUL 3670  40.395  47.788   6.706
 3692THSLK    S 3671  40.554  47.636   6.939
 3693ETHY    C1 3672  40.787  47.319   6.707
 3694ETHY    C1 3673  41.117  47.012   6.403
 3695ETHY    C1 3674  41.497  46.803   6.083
 3696ETHY    C1 3675  41.918  46.686   5.754
 3697THSLK    S 3676  40.155  47.888   6.583
 3698ETHY    C1 3677  40.243  47.671   6.191
 3699ETHY    C1 3678  40.368  47.498   5.692
 3700ETHY    C1 3679  40.513  47.432   5.176
 3701ETHY    C1 3680  40.676  47.465   4.656
 3702AUSL   AUS 3681  40.068  48.243   6.826
 3703AUSL   AUS 3682  39.741  47.940   6.826
 3704AUL    AUL 3683  39.904  48.092   6.518
 3705THSLK    S 3684  39.645  47.888   6.586
 3706ETHY    C1 3685  39.506  47.673   6.206
 3707ETHY    C1 3686  39.349  47.502   5.717
 3708ETHY    C1 3687  39.210  47.436   5.199
 3709ETHY    C1 3688  39.094  47.467   4.666
 3710THSLK    S 3689  40.170  48.204   6.572
 3711ETHY    C1 3690  40.307  48.127   6.142
 3712ETHY    C1 3691  40.460  48.127   5.622
 3713ETHY    C1 3692  40.598  48.236   5.112
 3714ETHY    C1 3693  40.721  48.443   4.621
 3715AUSL   AUS 3694  39.495  48.092   8.080
 3716AUSL   AUS 3695  39.640  48.508   8.011
 3717AUL    AUL 3696  39.413  48.395   8.294
 3718THSLK    S 3697  39.391  48.045   8.325
 3719ETHY    C1 3698  39.165  47.895   8.691
 3720ETHY    C1 3699  38.885  47.807   9.148
 3721ETHY    C1 3700  38.602  47.829   9.607
 3722ETHY    C1 3701  38.319  47.951  10.058
 3723THSLK    S 3702  39.517  48.641   8.201
 3724ETHY    C1 3703  39.421  48.836   8.604
 3725ETHY    C1 3704  39.248  49.117   9.034
 3726ETHY    C1 3705  39.005  49.443   9.390
 3727ETHY    C1 3706  38.704  49.802   9.671
 3728AUSL   AUS 3707  39.741  47.940   8.173
 3729AUSL   AUS 3708  39.394  47.827   7.916
 3730AUL    AUL 3709  39.413  47.788   8.294
 3731THSLK    S 3710  39.215  47.661   8.032
 3732ETHY    C1 3711  38.854  47.414   8.166
 3733ETHY    C1 3712  38.449  47.148   8.410
 3734ETHY    C1 3713  38.088  46.928   8.745
 3735ETHY    C1 3714  37.772  46.755   9.156
 3736THSLK    S 3715  39.639  47.890   8.413
 3737ETHY    C1 3716  39.501  47.675   8.793
 3738ETHY    C1 3717  39.348  47.502   9.284
 3739ETHY    C1 3718  39.211  47.436   9.800
 3740ETHY    C1 3719  39.087  47.468  10.332
 3741AUSL   AUS 3720  39.495  48.092   6.920
 3742AUSL   AUS 3721  39.640  47.675   6.990
 3743AUL    AUL 3722  39.413  47.788   6.706
 3744THSLK    S 3723  39.396  48.045   6.673
 3745ETHY    C1 3724  39.169  47.895   6.305
 3746ETHY    C1 3725  38.886  47.807   5.851
 3747ETHY    C1 3726  38.602  47.829   5.393
 3748ETHY    C1 3727  38.325  47.951   4.938
 3749THSLK    S 3728  39.466  47.500   6.865
 3750ETHY    C1 3729  39.194  47.187   6.673
 3751ETHY    C1 3730  38.913  46.839   6.367
 3752ETHY    C1 3731  38.696  46.531   5.980
 3753ETHY    C1 3732  38.544  46.264   5.528
 3754AUSL   AUS 3733  39.741  48.243   6.826
 3755AUSL   AUS 3734  39.394  48.356   7.083
 3756AUL    AUL 3735  39.413  48.395   6.706
 3757THSLK    S 3736  39.258  48.487   6.893
 3758ETHY    C1 3737  39.024  48.608   6.518
 3759ETHY    C1 3738  38.692  48.796   6.132
 3760ETHY    C1 3739  38.312  49.035   5.833
 3761ETHY    C1 3740  37.895  49.315   5.618
 3762THSLK    S 3741  39.660  48.205   6.566
 3763ETHY    C1 3742  39.570  48.130   6.124
 3764ETHY    C1 3743  39.442  48.131   5.597
 3765ETHY    C1 3744  39.296  48.240   5.089
 3766ETHY    C1 3745  39.139  48.446   4.608
 3767AUSL   AUS 3746  40.484  48.501   7.500
 3768AUSL   AUS 3747  40.414  48.356   7.083
 3769AUL    AUL 3748  40.698  48.582   7.196
 3770THSLK    S 3749  40.594  48.463   6.925
 3771ETHY    C1 3750  40.955  48.513   6.648
 3772ETHY    C1 3751  41.359  48.661   6.319
 3773ETHY    C1 3752  41.721  48.910   6.005
 3774ETHY    C1 3753  42.037  49.247   5.713
 3775THSLK    S 3754  40.754  48.562   7.503
 3776ETHY    C1 3755  41.201  48.662   7.502
 3777ETHY    C1 3756  41.703  48.868   7.500
 3778ETHY    C1 3757  42.150  49.170   7.500
 3779ETHY    C1 3758  42.538  49.554   7.503
 3780AUSL   AUS 3759  40.578  48.255   7.348
 3781AUSL   AUS 3760  40.578  47.928   7.651
 3782AUL    AUL 3761  40.886  48.092   7.500
 3783THSLK    S 3762  40.840  48.302   7.345
 3784ETHY    C1 3763  41.290  48.271   7.270
 3785ETHY    C1 3764  41.822  48.326   7.179
 3786ETHY    C1 3765  42.329  48.489   7.091
 3787ETHY    C1 3766  42.804  48.747   7.011
 3788THSLK    S 3767  40.815  47.791   7.659
 3789ETHY    C1 3768  41.186  47.533   7.726
 3790ETHY    C1 3769  41.672  47.307   7.808
 3791ETHY    C1 3770  42.191  47.187   7.896
 3792ETHY    C1 3771  42.729  47.165   7.989
 3793AUSL   AUS 3772  40.578  48.255   7.651
 3794AUSL   AUS 3773  40.321  48.602   7.764
 3795AUL    AUL 3774  40.698  48.582   7.803
 3796THSLK    S 3775  40.506  48.726   7.924
 3797ETHY    C1 3776  40.863  48.918   8.136
 3798ETHY    C1 3777  41.240  49.225   8.377
 3799ETHY    C1 3778  41.541  49.612   8.602
 3800ETHY    C1 3779  41.768  50.063   8.809
 3801THSLK    S 3780  40.839  48.301   7.661
 3802ETHY    C1 3781  41.290  48.271   7.734
 3803ETHY    C1 3782  41.823  48.326   7.821
 3804ETHY    C1 3783  42.329  48.489   7.908
 3805ETHY    C1 3784  42.803  48.747   7.995
 3806AUSL   AUS 3785  39.324  48.501   7.500
 3807AUSL   AUS 3786  39.394  48.356   7.916
 3808AUL    AUL 3787  39.110  48.582   7.803
 3809THSLK    S 3788  39.254  48.482   8.107
 3810ETHY    C1 3789  39.021  48.603   8.482
 3811ETHY    C1 3790  38.692  48.796   8.868
 3812ETHY    C1 3791  38.312  49.035   9.166
 3813ETHY    C1 3792  37.891  49.310   9.381
 3814THSLK    S 3793  39.103  48.641   7.503
 3815ETHY    C1 3794  38.814  48.996   7.502
 3816ETHY    C1 3795  38.406  49.353   7.500
 3817ETHY    C1 3796  37.936  49.617   7.500
 3818ETHY    C1 3797  37.418  49.793   7.503
 3819AUSL   AUS 3798  39.231  48.255   7.348
 3820AUSL   AUS 3799  39.488  48.602   7.236
 3821AUL    AUL 3800  39.110  48.582   7.196
 3822THSLK    S 3801  38.994  48.369   7.303
 3823ETHY    C1 3802  38.622  48.543   7.101
 3824ETHY    C1 3803  38.136  48.719   6.936
 3825ETHY    C1 3804  37.618  48.851   6.868
 3826ETHY    C1 3805  37.080  48.943   6.890
 3827THSLK    S 3806  39.368  48.769   7.056
 3828ETHY    C1 3807  39.216  49.088   6.765
 3829ETHY    C1 3808  38.962  49.468   6.473
 3830ETHY    C1 3809  38.629  49.836   6.260
 3831ETHY    C1 3810  38.233  50.186   6.122
 3832AUSL   AUS 3811  39.231  48.255   7.651
 3833AUSL   AUS 3812  39.231  47.928   7.348
 3834AUL    AUL 3813  38.923  48.092   7.500
 3835THSLK    S 3814  38.969  47.853   7.384
 3836ETHY    C1 3815  38.519  47.802   7.446
 3837ETHY    C1 3816  37.986  47.699   7.434
 3838ETHY    C1 3817  37.479  47.549   7.327
 3839ETHY    C1 3818  37.006  47.356   7.135
 3840THSLK    S 3819  38.993  48.363   7.699
 3841ETHY    C1 3820  38.622  48.539   7.901
 3842ETHY    C1 3821  38.136  48.718   8.063
 3843ETHY    C1 3822  37.618  48.851   8.133
 3844ETHY    C1 3823  37.079  48.937   8.114
 3845AUSL   AUS 3824  40.484  47.682   7.500
 3846AUSL   AUS 3825  40.414  47.827   7.916
 3847AUL    AUL 3826  40.698  47.601   7.803
 3848THSLK    S 3827  40.705  47.542   7.503
 3849ETHY    C1 3828  40.994  47.187   7.502
 3850ETHY    C1 3829  41.403  46.830   7.500
 3851ETHY    C1 3830  41.873  46.566   7.500
 3852ETHY    C1 3831  42.390  46.390   7.503
 3853THSLK    S 3832  40.551  47.637   8.066
 3854ETHY    C1 3833  40.784  47.320   8.297
 3855ETHY    C1 3834  41.117  47.013   8.598
 3856ETHY    C1 3835  41.497  46.803   8.918
 3857ETHY    C1 3836  41.914  46.687   9.250
 3858AUSL   AUS 3837  40.578  47.928   7.348
 3859AUSL   AUS 3838  40.321  47.581   7.236
 3860AUL    AUL 3839  40.698  47.601   7.196
 3861THSLK    S 3840  40.816  47.791   7.346
 3862ETHY    C1 3841  41.187  47.533   7.279
 3863ETHY    C1 3842  41.672  47.307   7.192
 3864ETHY    C1 3843  42.191  47.187   7.103
 3865ETHY    C1 3844  42.730  47.165   7.018
 3866THSLK    S 3845  40.444  47.390   7.099
 3867ETHY    C1 3846  40.594  46.988   6.942
 3868ETHY    C1 3847  40.847  46.558   6.728
 3869ETHY    C1 3848  41.179  46.202   6.495
 3870ETHY    C1 3849  41.578  45.921   6.249
 3871AUSL   AUS 3850  39.324  47.682   7.500
 3872AUSL   AUS 3851  39.394  47.827   7.083
 3873AUL    AUL 3852  39.110  47.601   7.196
 3874THSLK    S 3853  39.219  47.656   6.966
 3875ETHY    C1 3854  38.857  47.410   6.833
 3876ETHY    C1 3855  38.449  47.147   6.589
 3877ETHY    C1 3856  38.088  46.928   6.255
 3878ETHY    C1 3857  37.776  46.750   5.843
 3879THSLK    S 3858  39.054  47.621   7.503
 3880ETHY    C1 3859  38.608  47.521   7.502
 3881ETHY    C1 3860  38.106  47.315   7.500
 3882ETHY    C1 3861  37.659  47.013   7.500
 3883ETHY    C1 3862  37.271  46.629   7.503
 3884AUSL   AUS 3863  39.231  47.928   7.651
 3885AUSL   AUS 3864  39.488  47.581   7.764
 3886AUL    AUL 3865  39.110  47.601   7.803
 3887THSLK    S 3866  39.300  47.433   7.881
 3888ETHY    C1 3867  38.944  47.157   7.958
 3889ETHY    C1 3868  38.569  46.800   8.122
 3890ETHY    C1 3869  38.268  46.426   8.367
 3891ETHY    C1 3870  38.037  46.044   8.682
 3892THSLK    S 3871  38.968  47.858   7.618
 3893ETHY    C1 3872  38.518  47.806   7.557
 3894ETHY    C1 3873  37.986  47.700   7.566
 3895ETHY    C1 3874  37.479  47.549   7.673
 3896ETHY    C1 3875  37.005  47.361   7.867
 3897AUSL   AUS 3876  39.904  48.672   7.909
 3898AUSL   AUS 3877  39.488  48.602   7.764
 3899AUL    AUL 3878  39.601  48.886   7.991
 3900THSLK    S 3879  39.365  48.764   7.948
 3901ETHY    C1 3880  39.214  49.084   8.237
 3902ETHY    C1 3881  38.961  49.467   8.527
 3903ETHY    C1 3882  38.629  49.835   8.740
 3904ETHY    C1 3883  38.230  50.181   8.881
 3905THSLK    S 3884  39.942  48.903   8.034
 3906ETHY    C1 3885  40.070  49.229   8.327
 3907ETHY    C1 3886  40.147  49.661   8.646
 3908ETHY    C1 3887  40.128  50.126   8.920
 3909ETHY    C1 3888  40.022  50.611   9.147
 3910AUSL   AUS 3889  39.753  48.765   7.663
 3911AUSL   AUS 3890  40.056  48.765   7.336
 3912AUL    AUL 3891  39.904  49.073   7.500
 3913THSLK    S 3892  39.790  49.017   7.772
 3914ETHY    C1 3893  39.863  49.441   7.929
 3915ETHY    C1 3894  39.860  49.957   8.095
 3916ETHY    C1 3895  39.752  50.468   8.229
 3917ETHY    C1 3896  39.548  50.964   8.336
 3918THSLK    S 3897  40.107  49.005   7.237
 3919ETHY    C1 3898  40.320  49.382   7.091
 3920ETHY    C1 3899  40.490  49.871   6.929
 3921ETHY    C1 3900  40.557  50.389   6.792
 3922ETHY    C1 3901  40.528  50.923   6.682
 3923AUSL   AUS 3902  40.056  48.765   7.663
 3924AUSL   AUS 3903  40.169  48.508   8.011
 3925AUL    AUL 3904  40.208  48.886   7.991
 3926THSLK    S 3905  40.342  48.625   8.184
 3927ETHY    C1 3906  40.615  48.766   8.522
 3928ETHY    C1 3907  40.896  49.015   8.915
 3929ETHY    C1 3908  41.112  49.348   9.279
 3930ETHY    C1 3909  41.264  49.753   9.614
 3931THSLK    S 3910  40.106  49.003   7.768
 3932ETHY    C1 3911  40.319  49.382   7.913
 3933ETHY    C1 3912  40.490  49.871   8.072
 3934ETHY    C1 3913  40.557  50.389   8.207
 3935ETHY    C1 3914  40.526  50.922   8.325
 3936AUSL   AUS 3915  39.904  47.511   7.909
 3937AUSL   AUS 3916  40.321  47.581   7.764
 3938AUL    AUL 3917  40.208  47.297   7.991
 3939THSLK    S 3918  39.863  47.254   7.992
 3940ETHY    C1 3919  39.736  46.845   8.152
 3941ETHY    C1 3920  39.662  46.364   8.391
 3942ETHY    C1 3921  39.681  45.912   8.684
 3943ETHY    C1 3922  39.783  45.494   9.021
 3944THSLK    S 3923  40.441  47.391   7.907
 3945ETHY    C1 3924  40.592  46.989   8.062
 3946ETHY    C1 3925  40.847  46.558   8.272
 3947ETHY    C1 3926  41.179  46.202   8.505
 3948ETHY    C1 3927  41.575  45.923   8.758
 3949AUSL   AUS 3928  39.753  47.418   7.663
 3950AUSL   AUS 3929  39.640  47.675   8.011
 3951AUL    AUL 3930  39.601  47.297   7.991
 3952THSLK    S 3931  39.702  47.173   7.744
 3953ETHY    C1 3932  39.489  46.774   7.812
 3954ETHY    C1 3933  39.318  46.271   7.925
 3955ETHY    C1 3934  39.252  45.757   8.072
 3956ETHY    C1 3935  39.281  45.242   8.252
 3957THSLK    S 3936  39.462  47.505   8.136
 3958ETHY    C1 3937  39.190  47.190   8.327
 3959ETHY    C1 3938  38.912  46.839   8.633
 3960ETHY    C1 3939  38.696  46.531   9.019
 3961ETHY    C1 3940  38.540  46.269   9.473
 3962AUSL   AUS 3941  40.056  47.418   7.663
 3963AUSL   AUS 3942  39.753  47.418   7.336
 3964AUL    AUL 3943  39.904  47.110   7.500
 3965THSLK    S 3944  39.703  47.171   7.261
 3966ETHY    C1 3945  39.490  46.773   7.192
 3967ETHY    C1 3946  39.318  46.271   7.076
 3968ETHY    C1 3947  39.252  45.757   6.927
 3969ETHY    C1 3948  39.283  45.240   6.754
 3970THSLK    S 3949  40.017  47.159   7.748
 3971ETHY    C1 3950  39.945  46.714   7.829
 3972ETHY    C1 3951  39.948  46.185   7.948
 3973ETHY    C1 3952  40.057  45.677   8.095
 3974ETHY    C1 3953  40.259  45.199   8.264
 3975AUSL   AUS 3954  39.904  48.672   7.091
 3976AUSL   AUS 3955  40.321  48.602   7.236
 3977AUL    AUL 3956  40.208  48.886   7.009
 3978THSLK    S 3957  39.946  48.906   6.971
 3979ETHY    C1 3958  40.073  49.231   6.676
 3980ETHY    C1 3959  40.147  49.661   6.353
 3981ETHY    C1 3960  40.128  50.126   6.080
 3982ETHY    C1 3961  40.025  50.614   5.857
 3983THSLK    S 3962  40.508  48.727   7.081
 3984ETHY    C1 3963  40.865  48.919   6.869
 3985ETHY    C1 3964  41.240  49.225   6.623
 3986ETHY    C1 3965  41.541  49.612   6.398
 3987ETHY    C1 3966  41.771  50.064   6.197
 3988AUSL   AUS 3967  39.753  48.765   7.336
 3989AUSL   AUS 3968  39.640  48.508   6.990
 3990AUL    AUL 3969  39.601  48.886   7.009
 3991THSLK    S 3970  39.792  49.019   7.233
 3992ETHY    C1 3971  39.864  49.442   7.074
 3993ETHY    C1 3972  39.861  49.958   6.906
 3994ETHY    C1 3973  39.752  50.468   6.770
 3995ETHY    C1 3974  39.550  50.966   6.670
 3996THSLK    S 3975  39.521  48.645   6.800
 3997ETHY    C1 3976  39.425  48.839   6.396
 3998ETHY    C1 3977  39.248  49.117   5.966
 3999ETHY    C1 3978  39.005  49.442   5.611
 4000ETHY    C1 3979  38.709  49.807   5.330
 4001AUSL   AUS 3980  39.904  47.511   7.091
 4002AUSL   AUS 3981  39.488  47.581   7.236
 4003AUL    AUL 3982  39.601  47.297   7.009
 4004THSLK    S 3983  39.303  47.428   7.122
 4005ETHY    C1 3984  38.946  47.154   7.044
 4006ETHY    C1 3985  38.569  46.800   6.878
 4007ETHY    C1 3986  38.267  46.426   6.633
 4008ETHY    C1 3987  38.040  46.039   6.321
 4009THSLK    S 3988  39.866  47.251   7.013
 4010ETHY    C1 3989  39.738  46.843   6.852
 4011ETHY    C1 3990  39.662  46.364   6.609
 4012ETHY    C1 3991  39.681  45.912   6.315
 4013ETHY    C1 3992  39.787  45.491   5.983
 4014AUSL   AUS 3993  40.056  47.418   7.336
 4015AUSL   AUS 3994  40.169  47.675   6.990
 4016AUL    AUL 3995  40.208  47.297   7.009
 4017THSLK    S 3996  40.019  47.158   7.258
 4018ETHY    C1 3997  39.946  46.713   7.175
 4019ETHY    C1 3998  39.948  46.185   7.052
 4020ETHY    C1 3999  40.056  45.677   6.905
 4021ETHY    C1 4000  40.261  45.198   6.742
 4022THSLK    S 4001  40.292  47.485   6.847
 4023ETHY    C1 4002  40.387  47.117   6.592
 4024ETHY    C1 4003  40.561  46.736   6.247
 4025ETHY    C1 4004  40.803  46.436   5.870
 4026ETHY    C1 4005  41.104  46.215   5.471
 4027AUC    AUC 4006  20.704  17.294   7.500
 4028AUC    AUC 4007  20.950  17.294   7.348
 4029AUC    AUC 4008  20.950  17.294   7.651
 4030AUC    AUC 4009  20.459  17.294   7.348
 4031AUC    AUC 4010  20.459  17.294   7.651
 4032AUC    AUC 4011  20.553  17.539   7.500
 4033AUC    AUC 4012  20.856  17.539   7.500
 4034AUC    AUC 4013  20.553  17.048   7.500
 4035AUC    AUC 4014  20.856  17.048   7.500
 4036AUC    AUC 4015  20.704  17.142   7.745
 4037AUC    AUC 4016  20.704  17.445   7.745
 4038AUC    AUC 4017  20.704  17.142   7.254
 4039AUC    AUC 4018  20.704  17.445   7.254
 4040AUC    AUC 4019  21.195  17.294   7.196
 4041AUC    AUC 4020  21.195  17.294   7.500
 4042AUC    AUC 4021  21.195  17.294   7.803
 4043AUC    AUC 4022  20.213  17.294   7.196
 4044AUC    AUC 4023  20.213  17.294   7.500
 4045AUC    AUC 4024  20.213  17.294   7.803
 4046AUC    AUC 4025  20.401  17.784   7.500
 4047AUC    AUC 4026  20.704  17.784   7.500
 4048AUC    AUC 4027  21.008  17.784   7.500
 4049AUC    AUC 4028  20.401  16.803   7.500
 4050AUC    AUC 4029  20.704  16.803   7.500
 4051AUC    AUC 4030  21.008  16.803   7.500
 4052AUC    AUC 4031  20.704  16.990   7.991
 4053AUC    AUC 4032  20.704  17.294   7.991
 4054AUC    AUC 4033  20.704  17.597   7.991
 4055AUC    AUC 4034  20.704  16.990   7.009
 4056AUC    AUC 4035  20.704  17.294   7.009
 4057AUC    AUC 4036  20.704  17.597   7.009
 4058AUC    AUC 4037  20.950  17.142   7.897
 4059AUC    AUC 4038  20.950  17.445   7.897
 4060AUC    AUC 4039  20.950  17.142   7.103
 4061AUC    AUC 4040  20.950  17.445   7.103
 4062AUC    AUC 4041  20.459  17.142   7.897
 4063AUC    AUC 4042  20.459  17.445   7.897
 4064AUC    AUC 4043  20.459  17.142   7.103
 4065AUC    AUC 4044  20.459  17.445   7.103
 4066AUC    AUC 4045  21.101  17.539   7.348
 4067AUC    AUC 4046  21.101  17.539   7.651
 4068AUC    AUC 4047  20.307  17.539   7.348
 4069AUC    AUC 4048  20.307  17.539   7.651
 4070AUC    AUC 4049  21.101  17.048   7.348
 4071AUC    AUC 4050  21.101  17.048   7.651
 4072AUC    AUC 4051  20.307  17.048   7.348
 4073AUC    AUC 4052  20.307  17.048   7.651
 4074AUC    AUC 4053  20.553  17.691   7.745
 4075AUC    AUC 4054  20.856  17.691   7.745
 4076AUC    AUC 4055  20.553  16.896   7.745
 4077AUC    AUC 4056  20.856  16.896   7.745
 4078AUC    AUC 4057  20.553  17.691   7.254
 4079AUC    AUC 4058  20.856  17.691   7.254
 4080AUC    AUC 4059  20.553  16.896   7.254
 4081AUC    AUC 4060  20.856  16.896   7.254
 4082AUSL   AUS 4061  21.113  17.294   8.080
 4083AUSL   AUS 4062  20.969  16.877   8.011
 4084AUL    AUL 4063  21.195  16.990   8.294
 4085THSLK    S 4064  21.087  16.689   8.156
 4086ETHY    C1 4065  21.183  16.321   8.412
 4087ETHY    C1 4066  21.361  15.938   8.753
 4088ETHY    C1 4067  21.603  15.638   9.130
 4089ETHY    C1 4068  21.899  15.419   9.534
 4090THSLK    S 4069  21.212  17.247   8.327
 4091ETHY    C1 4070  21.439  17.097   8.694
 4092ETHY    C1 4071  21.723  17.009   9.148
 4093ETHY    C1 4072  22.007  17.031   9.607
 4094ETHY    C1 4073  22.284  17.153  10.061
 4095AUSL   AUS 4074  20.868  17.142   8.173
 4096AUSL   AUS 4075  20.541  17.445   8.173
 4097AUL    AUL 4076  20.704  17.294   8.482
 4098THSLK    S 4077  20.949  17.091   8.418
 4099ETHY    C1 4078  21.039  16.873   8.810
 4100ETHY    C1 4079  21.167  16.699   9.308
 4101ETHY    C1 4080  21.313  16.634   9.823
 4102ETHY    C1 4081  21.470  16.668  10.346
 4103THSLK    S 4082  20.454  17.405   8.432
 4104ETHY    C1 4083  20.365  17.331   8.874
 4105ETHY    C1 4084  20.241  17.333   9.403
 4106ETHY    C1 4085  20.096  17.442   9.912
 4107ETHY    C1 4086  19.933  17.646  10.392
 4108AUSL   AUS 4087  20.868  17.445   8.173
 4109AUSL   AUS 4088  21.214  17.558   7.916
 4110AUL    AUL 4089  21.195  17.597   8.294
 4111THSLK    S 4090  20.955  17.497   8.416
 4112ETHY    C1 4091  21.043  17.714   8.809
 4113ETHY    C1 4092  21.168  17.887   9.308
 4114ETHY    C1 4093  21.313  17.953   9.823
 4115ETHY    C1 4094  21.476  17.920  10.345
 4116THSLK    S 4095  21.390  17.664   8.079
 4117ETHY    C1 4096  21.752  17.714   8.355
 4118ETHY    C1 4097  22.159  17.863   8.681
 4119ETHY    C1 4098  22.521  18.112   8.995
 4120ETHY    C1 4099  22.833  18.448   9.293
 4121AUSL   AUS 4100  21.113  17.294   6.920
 4122AUSL   AUS 4101  20.969  17.710   6.990
 4123AUL    AUL 4102  21.195  17.597   6.706
 4124THSLK    S 4103  21.217  17.247   6.676
 4125ETHY    C1 4104  21.444  17.097   6.308
 4126ETHY    C1 4105  21.723  17.009   5.851
 4127ETHY    C1 4106  22.007  17.031   5.393
 4128ETHY    C1 4107  22.289  17.153   4.941
 4129THSLK    S 4108  21.146  17.829   6.820
 4130ETHY    C1 4109  21.418  17.970   6.480
 4131ETHY    C1 4110  21.696  18.217   6.085
 4132ETHY    C1 4111  21.912  18.550   5.720
 4133ETHY    C1 4112  22.069  18.957   5.391
 4134AUSL   AUS 4113  20.868  17.142   6.826
 4135AUSL   AUS 4114  21.214  17.029   7.083
 4136AUL    AUL 4115  21.195  16.990   6.706
 4137THSLK    S 4116  21.354  16.838   6.939
 4138ETHY    C1 4117  21.587  16.521   6.707
 4139ETHY    C1 4118  21.917  16.214   6.403
 4140ETHY    C1 4119  22.297  16.005   6.083
 4141ETHY    C1 4120  22.718  15.888   5.754
 4142THSLK    S 4121  20.955  17.090   6.583
 4143ETHY    C1 4122  21.043  16.873   6.191
 4144ETHY    C1 4123  21.168  16.700   5.692
 4145ETHY    C1 4124  21.313  16.634   5.176
 4146ETHY    C1 4125  21.476  16.667   4.656
 4147AUSL   AUS 4126  20.868  17.445   6.826
 4148AUSL   AUS 4127  20.541  17.142   6.826
 4149AUL    AUL 4128  20.704  17.294   6.518
 4150THSLK    S 4129  20.445  17.090   6.586
 4151ETHY    C1 4130  20.306  16.875   6.206
 4152ETHY    C1 4131  20.149  16.704   5.717
 4153ETHY    C1 4132  20.010  16.638   5.199
 4154ETHY    C1 4133  19.894  16.669   4.666
 4155THSLK    S 4134  20.970  17.406   6.572
 4156ETHY    C1 4135  21.107  17.329   6.142
 4157ETHY    C1 4136  21.260  17.329   5.622
 4158ETHY    C1 4137  21.398  17.438   5.112
 4159ETHY    C1 4138  21.521  17.645   4.621
 4160AUSL   AUS 4139  20.295  17.294   8.080
 4161AUSL   AUS 4140  20.440  17.710   8.011
 4162AUL    AUL 4141  20.213  17.597   8.294
 4163THSLK    S 4142  20.191  17.247   8.325
 4164ETHY    C1 4143  19.965  17.097   8.691
 4165ETHY    C1 4144  19.685  17.009   9.148
 4166ETHY    C1 4145  19.402  17.031   9.607
 4167ETHY    C1 4146  19.119  17.153  10.058
 4168THSLK    S 4147  20.317  17.843   8.201
 4169ETHY    C1 4148  20.221  18.038   8.604
 4170ETHY    C1 4149  20.048  18.319   9.034
 4171ETHY    C1 4150  19.805  18.645   9.390
 4172ETHY    C1 4151  19.504  19.004   9.671
 4173AUSL   AUS 4152  20.541  17.142   8.173
 4174AUSL   AUS 4153  20.194  17.029   7.916
 4175AUL    AUL 4154  20.213  16.990   8.294
 4176THSLK    S 4155  20.015  16.863   8.032
 4177ETHY    C1 4156  19.654  16.616   8.166
 4178ETHY    C1 4157  19.249  16.350   8.410
 4179ETHY    C1 4158  18.888  16.130   8.745
 4180ETHY    C1 4159  18.572  15.957   9.156
 4181THSLK    S 4160  20.439  17.092   8.413
 4182ETHY    C1 4161  20.301  16.877   8.793
 4183ETHY    C1 4162  20.148  16.704   9.284
 4184ETHY    C1 4163  20.011  16.638   9.800
 4185ETHY    C1 4164  19.887  16.670  10.332
 4186AUSL   AUS 4165  20.295  17.294   6.920
 4187AUSL   AUS 4166  20.440  16.877   6.990
 4188AUL    AUL 4167  20.213  16.990   6.706
 4189THSLK    S 4168  20.196  17.247   6.673
 4190ETHY    C1 4169  19.969  17.097   6.305
 4191ETHY    C1 4170  19.686  17.009   5.851
 4192ETHY    C1 4171  19.402  17.031   5.393
 4193ETHY    C1 4172  19.125  17.153   4.938
 4194THSLK    S 4173  20.266  16.702   6.865
 4195ETHY    C1 4174  19.994  16.389   6.673
 4196ETHY    C1 4175  19.713  16.041   6.367
 4197ETHY    C1 4176  19.496  15.733   5.980
 4198ETHY    C1 4177  19.344  15.466   5.528
 4199AUSL   AUS 4178  20.541  17.445   6.826
 4200AUSL   AUS 4179  20.194  17.558   7.083
 4201AUL    AUL 4180  20.213  17.597   6.706
 4202THSLK    S 4181  20.058  17.689   6.893
 4203ETHY    C1 4182  19.824  17.810   6.518
 4204ETHY    C1 4183  19.492  17.998   6.132
 4205ETHY    C1 4184  19.112  18.237   5.833
 4206ETHY    C1 4185  18.695  18.517   5.618
 4207THSLK    S 4186  20.460  17.407   6.566
 4208ETHY    C1 4187  20.370  17.332   6.124
 4209ETHY    C1 4188  20.242  17.333   5.597
 4210ETHY    C1 4189  20.096  17.442   5.089
 4211ETHY    C1 4190  19.939  17.648   4.608
 4212AUSL   AUS 4191  21.284  17.703   7.500
 4213AUSL   AUS 4192  21.214  17.558   7.083
 4214AUL    AUL 4193  21.498  17.784   7.196
 4215THSLK    S 4194  21.394  17.665   6.925
 4216ETHY    C1 4195  21.755  17.715   6.648
 4217ETHY    C1 4196  22.159  17.863   6.319
 4218ETHY    C1 4197  22.521  18.112   6.005
 4219ETHY    C1 4198  22.837  18.449   5.713
 4220THSLK    S 4199  21.554  17.764   7.503
 4221ETHY    C1 4200  22.001  17.864   7.502
 4222ETHY    C1 4201  22.503  18.070   7.500
 4223ETHY    C1 4202  22.950  18.372   7.500
 4224ETHY    C1 4203  23.338  18.756   7.503
 4225AUSL   AUS 4204  21.378  17.457   7.348
 4226AUSL   AUS 4205  21.378  17.130   7.651
 4227AUL    AUL 4206  21.686  17.294   7.500
 4228THSLK    S 4207  21.640  17.504   7.345
 4229ETHY    C1 4208  22.090  17.473   7.270
 4230ETHY    C1 4209  22.622  17.528   7.179
 4231ETHY    C1 4210  23.129  17.691   7.091
 4232ETHY    C1 4211  23.604  17.949   7.011
 4233THSLK    S 4212  21.615  16.993   7.659
 4234ETHY    C1 4213  21.986  16.735   7.726
 4235ETHY    C1 4214  22.472  16.509   7.808
 4236ETHY    C1 4215  22.991  16.389   7.896
 4237ETHY    C1 4216  23.529  16.367   7.989
 4238AUSL   AUS 4217  21.378  17.457   7.651
 4239AUSL   AUS 4218  21.121  17.804   7.764
 4240AUL    AUL 4219  21.498  17.784   7.803
 4241THSLK    S 4220  21.306  17.928   7.924
 4242ETHY    C1 4221  21.663  18.120   8.136
 4243ETHY    C1 4222  22.040  18.427   8.377
 4244ETHY    C1 4223  22.341  18.814   8.602
 4245ETHY    C1 4224  22.568  19.265   8.809
 4246THSLK    S 4225  21.639  17.503   7.661
 4247ETHY    C1 4226  22.090  17.473   7.734
 4248ETHY    C1 4227  22.623  17.528   7.821
 4249ETHY    C1 4228  23.129  17.691   7.908
 4250ETHY    C1 4229  23.603  17.949   7.995
 4251AUSL   AUS 4230  20.124  17.703   7.500
 4252AUSL   AUS 4231  20.194  17.558   7.916
 4253AUL    AUL 4232  19.910  17.784   7.803
 4254THSLK    S 4233  20.054  17.684   8.107
 4255ETHY    C1 4234  19.821  17.805   8.482
 4256ETHY    C1 4235  19.492  17.998   8.868
 4257ETHY    C1 4236  19.112  18.237   9.166
 4258ETHY    C1 4237  18.691  18.512   9.381
 4259THSLK    S 4238  19.903  17.843   7.503
 4260ETHY    C1 4239  19.614  18.198   7.502
 4261ETHY    C1 4240  19.206  18.555   7.500
 4262ETHY    C1 4241  18.736  18.819   7.500
 4263ETHY    C1 4242  18.218  18.995   7.503
 4264AUSL   AUS 4243  20.031  17.457   7.348
 4265AUSL   AUS 4244  20.288  17.804   7.236
 4266AUL    AUL 4245  19.910  17.784   7.196
 4267THSLK    S 4246  19.794  17.571   7.303
 4268ETHY    C1 4247  19.422  17.745   7.101
 4269ETHY    C1 4248  18.936  17.921   6.936
 4270ETHY    C1 4249  18.418  18.053   6.868
 4271ETHY    C1 4250  17.880  18.145   6.890
 4272THSLK    S 4251  20.168  17.971   7.056
 4273ETHY    C1 4252  20.016  18.290   6.765
 4274ETHY    C1 4253  19.762  18.670   6.473
 4275ETHY    C1 4254  19.429  19.038   6.260
 4276ETHY    C1 4255  19.033  19.388   6.122
 4277AUSL   AUS 4256  20.031  17.457   7.651
 4278AUSL   AUS 4257  20.031  17.130   7.348
 4279AUL    AUL 4258  19.723  17.294   7.500
 4280THSLK    S 4259  19.769  17.055   7.384
 4281ETHY    C1 4260  19.319  17.004   7.446
 4282ETHY    C1 4261  18.786  16.901   7.434
 4283ETHY    C1 4262  18.279  16.751   7.327
 4284ETHY    C1 4263  17.806  16.558   7.135
 4285THSLK    S 4264  19.793  17.565   7.699
 4286ETHY    C1 4265  19.422  17.741   7.901
 4287ETHY    C1 4266  18.936  17.920   8.063
 4288ETHY    C1 4267  18.418  18.053   8.133
 4289ETHY    C1 4268  17.879  18.139   8.114
 4290AUSL   AUS 4269  21.284  16.884   7.500
 4291AUSL   AUS 4270  21.214  17.029   7.916
 4292AUL    AUL 4271  21.498  16.803   7.803
 4293THSLK    S 4272  21.505  16.744   7.503
 4294ETHY    C1 4273  21.794  16.389   7.502
 4295ETHY    C1 4274  22.203  16.032   7.500
 4296ETHY    C1 4275  22.673  15.768   7.500
 4297ETHY    C1 4276  23.190  15.592   7.503
 4298THSLK    S 4277  21.351  16.839   8.066
 4299ETHY    C1 4278  21.584  16.522   8.297
 4300ETHY    C1 4279  21.917  16.215   8.598
 4301ETHY    C1 4280  22.297  16.005   8.918
 4302ETHY    C1 4281  22.714  15.889   9.250
 4303AUSL   AUS 4282  21.378  17.130   7.348
 4304AUSL   AUS 4283  21.121  16.783   7.236
 4305AUL    AUL 4284  21.498  16.803   7.196
 4306THSLK    S 4285  21.616  16.993   7.346
 4307ETHY    C1 4286  21.987  16.735   7.279
 4308ETHY    C1 4287  22.472  16.509   7.192
 4309ETHY    C1 4288  22.991  16.389   7.103
 4310ETHY    C1 4289  23.530  16.367   7.018
 4311THSLK    S 4290  21.244  16.592   7.099
 4312ETHY    C1 4291  21.394  16.190   6.942
 4313ETHY    C1 4292  21.647  15.760   6.728
 4314ETHY    C1 4293  21.979  15.404   6.495
 4315ETHY    C1 4294  22.378  15.123   6.249
 4316AUSL   AUS 4295  20.124  16.884   7.500
 4317AUSL   AUS 4296  20.194  17.029   7.083
 4318AUL    AUL 4297  19.910  16.803   7.196
 4319THSLK    S 4298  20.019  16.858   6.966
 4320ETHY    C1 4299  19.657  16.612   6.833
 4321ETHY    C1 4300  19.249  16.349   6.589
 4322ETHY    C1 4301  18.888  16.130   6.255
 4323ETHY    C1 4302  18.576  15.952   5.843
 4324THSLK    S 4303  19.854  16.823   7.503
 4325ETHY    C1 4304  19.408  16.723   7.502
 4326ETHY    C1 4305  18.906  16.517   7.500
 4327ETHY    C1 4306  18.459  16.215   7.500
 4328ETHY    C1 4307  18.071  15.831   7.503
 4329AUSL   AUS 4308  20.031  17.130   7.651
 4330AUSL   AUS 4309  20.288  16.783   7.764
 4331AUL    AUL 4310  19.910  16.803   7.803
 4332THSLK    S 4311  20.100  16.635   7.881
 4333ETHY    C1 4312  19.744  16.359   7.958
 4334ETHY    C1 4313  19.369  16.002   8.122
 4335ETHY    C1 4314  19.068  15.628   8.367
 4336ETHY    C1 4315  18.837  15.246   8.682
 4337THSLK    S 4316  19.768  17.060   7.618
 4338ETHY    C1 4317  19.318  17.008   7.557
 4339ETHY    C1 4318  18.786  16.902   7.566
 4340ETHY    C1 4319  18.279  16.751   7.673
 4341ETHY    C1 4320  17.805  16.563   7.867
 4342AUSL   AUS 4321  20.704  17.874   7.909
 4343AUSL   AUS 4322  20.288  17.804   7.764
 4344AUL    AUL 4323  20.401  18.088   7.991
 4345THSLK    S 4324  20.165  17.966   7.948
 4346ETHY    C1 4325  20.014  18.286   8.237
 4347ETHY    C1 4326  19.761  18.669   8.527
 4348ETHY    C1 4327  19.429  19.037   8.740
 4349ETHY    C1 4328  19.030  19.383   8.881
 4350THSLK    S 4329  20.742  18.105   8.034
 4351ETHY    C1 4330  20.870  18.431   8.327
 4352ETHY    C1 4331  20.947  18.863   8.646
 4353ETHY    C1 4332  20.928  19.328   8.920
 4354ETHY    C1 4333  20.822  19.813   9.147
 4355AUSL   AUS 4334  20.553  17.967   7.663
 4356AUSL   AUS 4335  20.856  17.967   7.336
 4357AUL    AUL 4336  20.704  18.275   7.500
 4358THSLK    S 4337  20.590  18.219   7.772
 4359ETHY    C1 4338  20.663  18.643   7.929
 4360ETHY    C1 4339  20.660  19.159   8.095
 4361ETHY    C1 4340  20.552  19.670   8.229
 4362ETHY    C1 4341  20.348  20.166   8.336
 4363THSLK    S 4342  20.907  18.207   7.237
 4364ETHY    C1 4343  21.120  18.584   7.091
 4365ETHY    C1 4344  21.290  19.073   6.929
 4366ETHY    C1 4345  21.357  19.591   6.792
 4367ETHY    C1 4346  21.328  20.125   6.682
 4368AUSL   AUS 4347  20.856  17.967   7.663
 4369AUSL   AUS 4348  20.969  17.710   8.011
 4370AUL    AUL 4349  21.008  18.088   7.991
 4371THSLK    S 4350  21.142  17.827   8.184
 4372ETHY    C1 4351  21.415  17.968   8.522
 4373ETHY    C1 4352  21.696  18.217   8.915
 4374ETHY    C1 4353  21.912  18.550   9.279
 4375ETHY    C1 4354  22.064  18.955   9.614
 4376THSLK    S 4355  20.906  18.205   7.768
 4377ETHY    C1 4356  21.119  18.584   7.913
 4378ETHY    C1 4357  21.290  19.073   8.072
 4379ETHY    C1 4358  21.357  19.591   8.207
 4380ETHY    C1 4359  21.326  20.124   8.325
 4381AUSL   AUS 4360  20.704  16.713   7.909
 4382AUSL   AUS 4361  21.121  16.783   7.764
 4383AUL    AUL 4362  21.008  16.499   7.991
 4384THSLK    S 4363  20.663  16.456   7.992
 4385ETHY    C1 4364  20.536  16.047   8.152
 4386ETHY    C1 4365  20.462  15.566   8.391
 4387ETHY    C1 4366  20.481  15.114   8.684
 4388ETHY    C1 4367  20.583  14.696   9.021
 4389THSLK    S 4368  21.241  16.593   7.907
 4390ETHY    C1 4369  21.392  16.191   8.062
 4391ETHY    C1 4370  21.647  15.760   8.272
 4392ETHY    C1 4371  21.979  15.404   8.505
 4393ETHY    C1 4372  22.375  15.125   8.758
 4394AUSL   AUS 4373  20.553  16.620   7.663
 4395AUSL   AUS 4374  20.440  16.877   8.011
 4396AUL    AUL 4375  20.401  16.499   7.991
 4397THSLK    S 4376  20.502  16.375   7.744
 4398ETHY    C1 4377  20.289  15.976   7.812
 4399ETHY    C1 4378  20.118  15.473   7.925
 4400ETHY    C1 4379  20.052  14.959   8.072
 4401ETHY    C1 4380  20.081  14.444   8.252
 4402THSLK    S 4381  20.262  16.707   8.136
 4403ETHY    C1 4382  19.990  16.392   8.327
 4404ETHY    C1 4383  19.712  16.041   8.633
 4405ETHY    C1 4384  19.496  15.733   9.019
 4406ETHY    C1 4385  19.340  15.471   9.473
 4407AUSL   AUS 4386  20.856  16.620   7.663
 4408AUSL   AUS 4387  20.553  16.620   7.336
 4409AUL    AUL 4388  20.704  16.312   7.500
 4410THSLK    S 4389  20.503  16.373   7.261
 4411ETHY    C1 4390  20.290  15.975   7.192
 4412ETHY    C1 4391  20.118  15.473   7.076
 4413ETHY    C1 4392  20.052  14.959   6.927
 4414ETHY    C1 4393  20.083  14.442   6.754
 4415THSLK    S 4394  20.817  16.361   7.748
 4416ETHY    C1 4395  20.745  15.916   7.829
 4417ETHY    C1 4396  20.748  15.387   7.948
 4418ETHY    C1 4397  20.857  14.879   8.095
 4419ETHY    C1 4398  21.059  14.401   8.264
 4420AUSL   AUS 4399  20.704  17.874   7.091
 4421AUSL   AUS 4400  21.121  17.804   7.236
 4422AUL    AUL 4401  21.008  18.088   7.009
 4423THSLK    S 4402  20.746  18.108   6.971
 4424ETHY    C1 4403  20.873  18.433   6.676
 4425ETHY    C1 4404  20.947  18.863   6.353
 4426ETHY    C1 4405  20.928  19.328   6.080
 4427ETHY    C1 4406  20.825  19.816   5.857
 4428THSLK    S 4407  21.308  17.929   7.081
 4429ETHY    C1 4408  21.665  18.121   6.869
 4430ETHY    C1 4409  22.040  18.427   6.623
 4431ETHY    C1 4410  22.341  18.814   6.398
 4432ETHY    C1 4411  22.571  19.266   6.197
 4433AUSL   AUS 4412  20.553  17.967   7.336
 4434AUSL   AUS 4413  20.440  17.710   6.990
 4435AUL    AUL 4414  20.401  18.088   7.009
 4436THSLK    S 4415  20.592  18.221   7.233
 4437ETHY    C1 4416  20.664  18.644   7.074
 4438ETHY    C1 4417  20.661  19.160   6.906
 4439ETHY    C1 4418  20.552  19.670   6.770
 4440ETHY    C1 4419  20.350  20.168   6.670
 4441THSLK    S 4420  20.321  17.847   6.800
 4442ETHY    C1 4421  20.225  18.041   6.396
 4443ETHY    C1 4422  20.048  18.319   5.966
 4444ETHY    C1 4423  19.805  18.644   5.611
 4445ETHY    C1 4424  19.509  19.009   5.330
 4446AUSL   AUS 4425  20.704  16.713   7.091
 4447AUSL   AUS 4426  20.288  16.783   7.236
 4448AUL    AUL 4427  20.401  16.499   7.009
 4449THSLK    S 4428  20.103  16.630   7.122
 4450ETHY    C1 4429  19.746  16.356   7.044
 4451ETHY    C1 4430  19.369  16.002   6.878
 4452ETHY    C1 4431  19.067  15.628   6.633
 4453ETHY    C1 4432  18.840  15.241   6.321
 4454THSLK    S 4433  20.666  16.453   7.013
 4455ETHY    C1 4434  20.538  16.045   6.852
 4456ETHY    C1 4435  20.462  15.566   6.609
 4457ETHY    C1 4436  20.481  15.114   6.315
 4458ETHY    C1 4437  20.587  14.693   5.983
 4459AUSL   AUS 4438  20.856  16.620   7.336
 4460AUSL   AUS 4439  20.969  16.877   6.990
 4461AUL    AUL 4440  21.008  16.499   7.009
 4462THSLK    S 4441  20.819  16.360   7.258
 4463ETHY    C1 4442  20.746  15.915   7.175
 4464ETHY    C1 4443  20.748  15.387   7.052
 4465ETHY    C1 4444  20.856  14.879   6.905
 4466ETHY    C1 4445  21.061  14.400   6.742
 4467THSLK    S 4446  21.092  16.687   6.847
 4468ETHY    C1 4447  21.187  16.319   6.592
 4469ETHY    C1 4448  21.361  15.938   6.247
 4470ETHY    C1 4449  21.603  15.638   5.870
 4471ETHY    C1 4450  21.904  15.417   5.471
 4472POPC   NC3 4451   2.754  14.436   9.450
 4472POPC   PO4 4452   2.814  14.393   9.150
 4472POPC   GL1 4453   2.724  14.364   8.850
 4472POPC   GL2 4454   2.849  14.354   8.850
 4472POPC   C1A 4455   2.733  14.404   8.550
 4472POPC   D2A 4456   2.754  14.378   8.250
 4472POPC   C3A 4457   2.808  14.403   7.950
 4472POPC   C4A 4458   2.738  14.390   7.650
 4472POPC   C1B 4459   2.876  14.226   8.550
 4472POPC   C2B 4460   2.942  14.177   8.250
 4472POPC   C3B 4461   2.897  14.255   7.950
 4472POPC   C4B 4462   2.913  14.165   7.650
 4473POPC   NC3 4463  15.910  30.682   9.450
 4473POPC   PO4 4464  15.906  30.695   9.150
 4473POPC   GL1 4465  15.953  30.735   8.850
 4473POPC   GL2 4466  15.809  30.664   8.850
 4473POPC   C1A 4467  15.957  30.676   8.550
 4473POPC   D2A 4468  15.965  30.698   8.250
 4473POPC   C3A 4469  15.950  30.727   7.950
 4473POPC   C4A 4470  15.915  30.661   7.650
 4473POPC   C1B 4471  15.760  30.566   8.550
 4473POPC   C2B 4472  15.726  30.576   8.250
 4473POPC   C3B 4473  15.785  30.539   7.950
 4473POPC   C4B 4474  15.785  30.563   7.650
 4474POPC   NC3 4475  33.074   1.217   9.450
 4474POPC   PO4 4476  33.059   1.195   9.150
 4474POPC   GL1 4477  33.049   1.202   8.850
 4474POPC   GL2 4478  33.089   1.380   8.850
 4474POPC   C1A 4479  33.031   1.220   8.550
 4474POPC   D2A 4480  33.074   1.220   8.250
 4474POPC   C3A 4481  33.048   1.170   7.950
 4474POPC   C4A 4482  33.040   1.247   7.650
 4474POPC   C1B 4483  33.026   1.434   8.550
 4474POPC   C2B 4484  33.037   1.474   8.250
 4474POPC   C3B 4485  33.048   1.435   7.950
 4474POPC   C4B 4486  33.062   1.474   7.650
 4475POPC   NC3 4487  33.058  36.115   9.450
 4475POPC   PO4 4488  33.042  36.150   9.150
 4475POPC   GL1 4489  32.999  36.097   8.850
 4475POPC   GL2 4490  32.929  36.282   8.850
 4475POPC   C1A 4491  33.037  36.136   8.550
 4475POPC   D2A 4492  33.038  36.100   8.250
 4475POPC   C3A 4493  33.003  36.078   7.950
 4475POPC   C4A 4494  33.035  36.092   7.650
 4475POPC   C1B 4495  32.939  36.342   8.550
 4475POPC   C2B 4496  32.935  36.377   8.250
 4475POPC   C3B 4497  32.853  36.391   7.950
 4475POPC   C4B 4498  32.846  36.308   7.650
 4476POPC   NC3 4499   2.781  40.783   9.450
 4476POPC   PO4 4500   2.765  40.784   9.150
 4476POPC   GL1 4501   2.760  40.812   8.850
 4476POPC   GL2 4502   2.733  40.649   8.850
 4476POPC   C1A 4503   2.770  40.736   8.550
 4476POPC   D2A 4504   2.761  40.734   8.250
 4476POPC   C3A 4505   2.762  40.829   7.950
 4476POPC   C4A 4506   2.767  40.760   7.650
 4476POPC   C1B 4507   2.594  40.575   8.550
 4476POPC   C2B 4508   2.573  40.610   8.250
 4476POPC   C3B 4509   2.582  40.628   7.950
 4476POPC   C4B 4510   2.651  40.617   7.650
 4477POPC   NC3 4511  30.654  31.521   9.450
 4477POPC   PO4 4512  30.692  31.470   9.150
 4477POPC   GL1 4513  30.742  31.445   8.850
 4477POPC   GL2 4514  30.685  31.633   8.850
 4477POPC   C1A 4515  30.686  31.477   8.550
 4477POPC   D2A 4516  30.693  31.470   8.250
 4477POPC   C3A 4517  30.728  31.463   7.950
 4477POPC   C4A 4518  30.686  31.467   7.650
 4477POPC   C1B 4519  30.720  31.727   8.550
 4477POPC   C2B 4520  30.671  31.751   8.250
 4477POPC   C3B 4521  30.700  31.741   7.950
 4477POPC   C4B 4522  30.678  31.768   7.650
 4478POPC   NC3 4523  39.221  15.919   9.450
 4478POPC   PO4 4524  39.242  15.942   9.150
 4478POPC   GL1 4525  39.198  15.916   8.850
 4478POPC   GL2 4526  39.174  15.995   8.850
 4478POPC   C1A 4527  39.188  15.958   8.550
 4478POPC   D2A 4528  39.216  15.932   8.250
 4478POPC   C3A 4529  39.194  15.915   7.950
 4478POPC   C4A 4530  39.241  15.983   7.650
 4478POPC   C1B 4531  39.016  16.181   8.550
 4478POPC   C2B 4532  39.028  16.092   8.250
 4478POPC   C3B 4533  39.062  16.168   7.950
 4478POPC   C4B 4534  39.085  16.126   7.650
 4479POPC   NC3 4535  19.812   1.168   9.450
 4479POPC   PO4 4536  19.854   1.220   9.150
 4479POPC   GL1 4537  19.844   1.246   8.850
 4479POPC   GL2 4538  19.813   1.307   8.850
 4479POPC   C1A 4539  19.786   1.197   8.550
 4479POPC   D2A 4540  19.854   1.193   8.250
 4479POPC   C3A 4541  19.836   1.233   7.950
 4479POPC   C4A 4542  19.785   1.197   7.650
 4479POPC   C1B 4543  19.738   1.395   8.550
 4479POPC   C2B 4544  19.662   1.395   8.250
 4479POPC   C3B 4545  19.653   1.444   7.950
 4479POPC   C4B 4546  19.706   1.393   7.650
 4480POPC   NC3 4547  28.344   2.741   9.450
 4480POPC   PO4 4548  28.376   2.778   9.150
 4480POPC   GL1 4549  28.414   2.775   8.850
 4480POPC   GL2 4550  28.328   2.888   8.850
 4480POPC   C1A 4551  28.360   2.790   8.550
 4480POPC   D2A 4552  28.354   2.724   8.250
 4480POPC   C3A 4553  28.350   2.767   7.950
 4480POPC   C4A 4554  28.401   2.806   7.650
 4480POPC   C1B 4555  28.383   3.017   8.550
 4480POPC   C2B 4556  28.318   3.013   8.250
 4480POPC   C3B 4557  28.356   2.970   7.950
 4480POPC   C4B 4558  28.306   3.029   7.650
 4481POPC   NC3 4559   4.353  18.254   9.450
 4481POPC   PO4 4560   4.321  18.236   9.150
 4481POPC   GL1 4561   4.340  18.326   8.850
 4481POPC   GL2 4562   4.240  18.383   8.850
 4481POPC   C1A 4563   4.307  18.293   8.550
 4481POPC   D2A 4564   4.352  18.265   8.250
 4481POPC   C3A 4565   4.318  18.273   7.950
 4481POPC   C4A 4566   4.323  18.278   7.650
 4481POPC   C1B 4567   4.220  18.472   8.550
 4481POPC   C2B 4568   4.234  18.543   8.250
 4481POPC   C3B 4569   4.170  18.490   7.950
 4481POPC   C4B 4570   4.177  18.512   7.650
 4482POPC   NC3 4571  12.898   9.732   9.450
 4482POPC   PO4 4572  12.882   9.742   9.150
 4482POPC   GL1 4573  12.896   9.769   8.850
 4482POPC   GL2 4574  12.697   9.694   8.850
 4482POPC   C1A 4575  12.858   9.797   8.550
 4482POPC   D2A 4576  12.819   9.723   8.250
 4482POPC   C3A 4577  12.883   9.782   7.950
 4482POPC   C4A 4578  12.817   9.732   7.650
 4482POPC   C1B 4579  12.635   9.690   8.550
 4482POPC   C2B 4580  12.650   9.682   8.250
 4482POPC   C3B 4581  12.633   9.651   7.950
 4482POPC   C4B 4582  12.654   9.684   7.650
 4483POPC   NC3 4583  32.223   1.949   9.450
 4483POPC   PO4 4584  32.231   1.947   9.150
 4483POPC   GL1 4585  32.217   2.037   8.850
 4483POPC   GL2 4586  32.269   1.853   8.850
 4483POPC   C1A 4587  32.257   1.999   8.550
 4483POPC   D2A 4588  32.251   1.993   8.250
 4483POPC   C3A 4589  32.263   2.005   7.950
 4483POPC   C4A 4590  32.251   1.946   7.650
 4483POPC   C1B 4591  32.367   1.771   8.550
 4483POPC   C2B 4592  32.349   1.728   8.250
 4483POPC   C3B 4593  32.310   1.744   7.950
 4483POPC   C4B 4594  32.338   1.727   7.650
 4484POPC   NC3 4595  33.759  17.482   9.450
 4484POPC   PO4 4596  33.816  17.481   9.150
 4484POPC   GL1 4597  33.842  17.497   8.850
 4484POPC   GL2 4598  33.715  17.408   8.850
 4484POPC   C1A 4599  33.792  17.533   8.550
 4484POPC   D2A 4600  33.801  17.520   8.250
 4484POPC   C3A 4601  33.801  17.551   7.950
 4484POPC   C4A 4602  33.829  17.473   7.650
 4484POPC   C1B 4603  33.617  17.440   8.550
 4484POPC   C2B 4604  33.573  17.385   8.250
 4484POPC   C3B 4605  33.598  17.398   7.950
 4484POPC   C4B 4606  33.600  17.355   7.650
 4485POPC   NC3 4607  15.998  22.198   9.450
 4485POPC   PO4 4608  15.967  22.174   9.150
 4485POPC   GL1 4609  15.954  22.175   8.850
 4485POPC   GL2 4610  15.970  22.318   8.850
 4485POPC   C1A 4611  15.966  22.118   8.550
 4485POPC   D2A 4612  15.930  22.135   8.250
 4485POPC   C3A 4613  15.955  22.201   7.950
 4485POPC   C4A 4614  16.001  22.130   7.650
 4485POPC   C1B 4615  15.909  22.428   8.550
 4485POPC   C2B 4616  15.975  22.437   8.250
 4485POPC   C3B 4617  15.969  22.447   7.950
 4485POPC   C4B 4618  15.904  22.368   7.650
 4486POPC   NC3 4619  15.133  41.544   9.450
 4486POPC   PO4 4620  15.143  41.565   9.150
 4486POPC   GL1 4621  15.174  41.550   8.850
 4486POPC   GL2 4622  15.206  41.721   8.850
 4486POPC   C1A 4623  15.195  41.547   8.550
 4486POPC   D2A 4624  15.160  41.588   8.250
 4486POPC   C3A 4625  15.177  41.531   7.950
 4486POPC   C4A 4626  15.139  41.534   7.650
 4486POPC   C1B 4627  15.140  41.773   8.550
 4486POPC   C2B 4628  15.216  41.793   8.250
 4486POPC   C3B 4629  15.178  41.807   7.950
 4486POPC   C4B 4630  15.128  41.765   7.650
 4487POPC   NC3 4631   1.214  41.554   9.450
 4487POPC   PO4 4632   1.259  41.583   9.150
 4487POPC   GL1 4633   1.236  41.537   8.850
 4487POPC   GL2 4634   1.279  41.628   8.850
 4487POPC   C1A 4635   1.181  41.517   8.550
 4487POPC   D2A 4636   1.187  41.554   8.250
 4487POPC   C3A 4637   1.218  41.550   7.950
 4487POPC   C4A 4638   1.212  41.602   7.650
 4487POPC   C1B 4639   1.252  41.787   8.550
 4487POPC   C2B 4640   1.295  41.757   8.250
 4487POPC   C3B 4641   1.332  41.762   7.950
 4487POPC   C4B 4642   1.295  41.766   7.650
 4488POPC   NC3 4643  39.968  13.661   9.450
 4488POPC   PO4 4644  39.957  13.669   9.150
 4488POPC   GL1 4645  39.990  13.597   8.850
 4488POPC   GL2 4646  40.136  13.657   8.850
 4488POPC   C1A 4647  40.041  13.600   8.550
 4488POPC   D2A 4648  39.991  13.604   8.250
 4488POPC   C3A 4649  40.004  13.637   7.950
 4488POPC   C4A 4650  40.042  13.631   7.650
 4488POPC   C1B 4651  40.206  13.668   8.550
 4488POPC   C2B 4652  40.229  13.623   8.250
 4488POPC   C3B 4653  40.285  13.615   7.950
 4488POPC   C4B 4654  40.258  13.651   7.650
 4489POPC   NC3 4655  42.364  22.147   9.450
 4489POPC   PO4 4656  42.321  22.159   9.150
 4489POPC   GL1 4657  42.290  22.182   8.850
 4489POPC   GL2 4658  42.285  22.307   8.850
 4489POPC   C1A 4659  42.301  22.210   8.550
 4489POPC   D2A 4660  42.313  22.186   8.250
 4489POPC   C3A 4661  42.301  22.140   7.950
 4489POPC   C4A 4662  42.357  22.155   7.650
 4489POPC   C1B 4663  42.266  22.423   8.550
 4489POPC   C2B 4664  42.284  22.389   8.250
 4489POPC   C3B 4665  42.335  22.380   7.950
 4489POPC   C4B 4666  42.286  22.433   7.650
 4490POPC   NC3 4667  29.191   5.094   9.450
 4490POPC   PO4 4668  29.101   5.106   9.150
 4490POPC   GL1 4669  29.114   5.109   8.850
 4490POPC   GL2 4670  29.229   5.028   8.850
 4490POPC   C1A 4671  29.119   5.050   8.550
 4490POPC   D2A 4672  29.162   5.112   8.250
 4490POPC   C3A 4673  29.136   5.109   7.950
 4490POPC   C4A 4674  29.102   5.083   7.650
 4490POPC   C1B 4675  29.344   4.971   8.550
 4490POPC   C2B 4676  29.382   5.023   8.250
 4490POPC   C3B 4677  29.350   5.027   7.950
 4490POPC   C4B 4678  29.389   4.975   7.650
 4491POPC   NC3 4679  15.951  26.818   9.450
 4491POPC   PO4 4680  15.906  26.787   9.150
 4491POPC   GL1 4681  15.950  26.815   8.850
 4491POPC   GL2 4682  16.065  26.719   8.850
 4491POPC   C1A 4683  15.934  26.845   8.550
 4491POPC   D2A 4684  16.002  26.793   8.250
 4491POPC   C3A 4685  15.937  26.805   7.950
 4491POPC   C4A 4686  15.999  26.845   7.650
 4491POPC   C1B 4687  16.148  26.623   8.550
 4491POPC   C2B 4688  16.106  26.661   8.250
 4491POPC   C3B 4689  16.121  26.689   7.950
 4491POPC   C4B 4690  16.191  26.649   7.650
 4492POPC   NC3 4691   5.070  29.121   9.450
 4492POPC   PO4 4692   5.126  29.180   9.150
 4492POPC   GL1 4693   5.091  29.126   8.850
 4492POPC   GL2 4694   5.052  29.255   8.850
 4492POPC   C1A 4695   5.118  29.147   8.550
 4492POPC   D2A 4696   5.078  29.146   8.250
 4492POPC   C3A 4697   5.139  29.098   7.950
 4492POPC   C4A 4698   5.108  29.132   7.650
 4492POPC   C1B 4699   5.134  29.400   8.550
 4492POPC   C2B 4700   5.135  29.368   8.250
 4492POPC   C3B 4701   5.114  29.420   7.950
 4492POPC   C4B 4702   5.107  29.362   7.650
 4493POPC   NC3 4703  20.562  27.573   9.450
 4493POPC   PO4 4704  20.646  27.574   9.150
 4493POPC   GL1 4705  20.595  27.557   8.850
 4493POPC   GL2 4706  20.648  27.670   8.850
 4493POPC   C1A 4707  20.578  27.577   8.550
 4493POPC   D2A 4708  20.562  27.547   8.250
 4493POPC   C3A 4709  20.604  27.615   7.950
 4493POPC   C4A 4710  20.598  27.617   7.650
 4493POPC   C1B 4711  20.717  27.881   8.550
 4493POPC   C2B 4712  20.693  27.798   8.250
 4493POPC   C3B 4713  20.631  27.824   7.950
 4493POPC   C4B 4714  20.704  27.815   7.650
 4494POPC   NC3 4715  29.910  40.776   9.450
 4494POPC   PO4 4716  29.910  40.795   9.150
 4494POPC   GL1 4717  29.964  40.748   8.850
 4494POPC   GL2 4718  29.783  40.741   8.850
 4494POPC   C1A 4719  29.931  40.744   8.550
 4494POPC   D2A 4720  29.941  40.796   8.250
 4494POPC   C3A 4721  29.884  40.747   7.950
 4494POPC   C4A 4722  29.898  40.796   7.650
 4494POPC   C1B 4723  29.630  40.804   8.550
 4494POPC   C2B 4724  29.710  40.781   8.250
 4494POPC   C3B 4725  29.685  40.757   7.950
 4494POPC   C4B 4726  29.680  40.726   7.650
 4495POPC   NC3 4727   4.284  34.615   9.450
 4495POPC   PO4 4728   4.312  34.537   9.150
 4495POPC   GL1 4729   4.335  34.581   8.850
 4495POPC   GL2 4730   4.199  34.658   8.850
 4495POPC   C1A 4731   4.278  34.588   8.550
 4495POPC   D2A 4732   4.359  34.544   8.250
 4495POPC   C3A 4733   4.327  34.591   7.950
 4495POPC   C4A 4734   4.314  34.602   7.650
 4495POPC   C1B 4735   4.118  34.774   8.550
 4495POPC   C2B 4736   4.167  34.736   8.250
 4495POPC   C3B 4737   4.167  34.727   7.950
 4495POPC   C4B 4738   4.184  34.772   7.650
 4496POPC   NC3 4739  33.061  27.608   9.450
 4496POPC   PO4 4740  32.983  27.641   9.150
 4496POPC   GL1 4741  32.979  27.636   8.850
 4496POPC   GL2 4742  32.889  27.553   8.850
 4496POPC   C1A 4743  32.977  27.606   8.550
 4496POPC   D2A 4744  32.983  27.618   8.250
 4496POPC   C3A 4745  33.024  27.597   7.950
 4496POPC   C4A 4746  33.024  27.545   7.650
 4496POPC   C1B 4747  32.732  27.543   8.550
 4496POPC   C2B 4748  32.793  27.571   8.250
 4496POPC   C3B 4749  32.752  27.529   7.950
 4496POPC   C4B 4750  32.735  27.534   7.650
 4497POPC   NC3 4751  15.167  26.847   9.450
 4497POPC   PO4 4752  15.169  26.791   9.150
 4497POPC   GL1 4753  15.226  26.863   8.850
 4497POPC   GL2 4754  15.124  26.850   8.850
 4497POPC   C1A 4755  15.206  26.775   8.550
 4497POPC   D2A 4756  15.206  26.804   8.250
 4497POPC   C3A 4757  15.139  26.815   7.950
 4497POPC   C4A 4758  15.178  26.847   7.650
 4497POPC   C1B 4759  15.029  26.974   8.550
 4497POPC   C2B 4760  14.982  27.024   8.250
 4497POPC   C3B 4761  15.022  26.952   7.950
 4497POPC   C4B 4762  14.946  27.013   7.650
 4498POPC   NC3 4763  17.513   0.479   9.450
 4498POPC   PO4 4764  17.464   0.450   9.150
 4498POPC   GL1 4765  17.497   0.423   8.850
 4498POPC   GL2 4766  17.369   0.478   8.850
 4498POPC   C1A 4767  17.470   0.460   8.550
 4498POPC   D2A 4768  17.524   0.458   8.250
 4498POPC   C3A 4769  17.548   0.443   7.950
 4498POPC   C4A 4770  17.489   0.461   7.650
 4498POPC   C1B 4771  17.271   0.429   8.550
 4498POPC   C2B 4772  17.305   0.450   8.250
 4498POPC   C3B 4773  17.208   0.410   7.950
 4498POPC   C4B 4774  17.228   0.404   7.650
 4499POPC   NC3 4775  30.733  19.047   9.450
 4499POPC   PO4 4776  30.708  19.102   9.150
 4499POPC   GL1 4777  30.741  19.098   8.850
 4499POPC   GL2 4778  30.552  19.038   8.850
 4499POPC   C1A 4779  30.695  19.023   8.550
 4499POPC   D2A 4780  30.657  19.043   8.250
 4499POPC   C3A 4781  30.720  19.096   7.950
 4499POPC   C4A 4782  30.679  19.038   7.650
 4499POPC   C1B 4783  30.411  19.024   8.550
 4499POPC   C2B 4784  30.459  19.046   8.250
 4499POPC   C3B 4785  30.436  19.038   7.950
 4499POPC   C4B 4786  30.497  19.007   7.650
 4500POPC   NC3 4787   5.841  15.915   9.450
 4500POPC   PO4 4788   5.828  15.929   9.150
 4500POPC   GL1 4789   5.889  15.980   8.850
 4500POPC   GL2 4790   5.924  15.882   8.850
 4500POPC   C1A 4791   5.915  15.947   8.550
 4500POPC   D2A 4792   5.877  15.942   8.250
 4500POPC   C3A 4793   5.896  15.971   7.950
 4500POPC   C4A 4794   5.905  16.001   7.650
 4500POPC   C1B 4795   5.933  15.720   8.550
 4500POPC   C2B 4796   6.002  15.684   8.250
 4500POPC   C3B 4797   5.981  15.701   7.950
 4500POPC   C4B 4798   5.935  15.726   7.650
 4501POPC   NC3 4799  24.526   9.001   9.450
 4501POPC   PO4 4800  24.460   9.017   9.150
 4501POPC   GL1 4801  24.495   8.968   8.850
 4501POPC   GL2 4802  24.428   9.072   8.850
 4501POPC   C1A 4803  24.517   8.929   8.550
 4501POPC   D2A 4804  24.525   8.972   8.250
 4501POPC   C3A 4805  24.467   8.947   7.950
 4501POPC   C4A 4806  24.444   8.948   7.650
 4501POPC   C1B 4807  24.369   9.145   8.550
 4501POPC   C2B 4808  24.319   9.149   8.250
 4501POPC   C3B 4809  24.341   9.168   7.950
 4501POPC   C4B 4810  24.380   9.209   7.650
 4502POPC   NC3 4811  42.378  44.705   9.450
 4502POPC   PO4 4812  42.339  44.645   9.150
 4502POPC   GL1 4813  42.353  44.615   8.850
 4502POPC   GL2 4814  42.413  44.731   8.850
 4502POPC   C1A 4815  42.317  44.631   8.550
 4502POPC   D2A 4816  42.295  44.648   8.250
 4502POPC   C3A 4817  42.295  44.614   7.950
 4502POPC   C4A 4818  42.373  44.631   7.650
 4502POPC   C1B 4819  42.586  44.759   8.550
 4502POPC   C2B 4820  42.492  44.772   8.250
 4502POPC   C3B 4821  42.540  44.755   7.950
 4502POPC   C4B 4822  42.565  44.845   7.650
 4503POPC   NC3 4823   1.189  21.352   9.450
 4503POPC   PO4 4824   1.253  21.351   9.150
 4503POPC   GL1 4825   1.239  21.342   8.850
 4503POPC   GL2 4826   1.378  21.446   8.850
 4503POPC   C1A 4827   1.188  21.386   8.550
 4503POPC   D2A 4828   1.225  21.361   8.250
 4503POPC   C3A 4829   1.259  21.382   7.950
 4503POPC   C4A 4830   1.238  21.406   7.650
 4503POPC   C1B 4831   1.431  21.470   8.550
 4503POPC   C2B 4832   1.408  21.472   8.250
 4503POPC   C3B 4833   1.455  21.431   7.950
 4503POPC   C4B 4834   1.494  21.451   7.650
 4504POPC   NC3 4835  43.148   2.793   9.450
 4504POPC   PO4 4836  43.150   2.807   9.150
 4504POPC   GL1 4837  43.096   2.774   8.850
 4504POPC   GL2 4838  42.989   2.686   8.850
 4504POPC   C1A 4839  43.064   2.758   8.550
 4504POPC   D2A 4840  43.066   2.746   8.250
 4504POPC   C3A 4841  43.095   2.726   7.950
 4504POPC   C4A 4842  43.146   2.806   7.650
 4504POPC   C1B 4843  42.884   2.656   8.550
 4504POPC   C2B 4844  42.842   2.665   8.250
 4504POPC   C3B 4845  42.888   2.690   7.950
 4504POPC   C4B 4846  42.865   2.629   7.650
 4505POPC   NC3 4847  11.329  19.808   9.450
 4505POPC   PO4 4848  11.310  19.810   9.150
 4505POPC   GL1 4849  11.307  19.843   8.850
 4505POPC   GL2 4850  11.157  19.941   8.850
 4505POPC   C1A 4851  11.324  19.829   8.550
 4505POPC   D2A 4852  11.267  19.803   8.250
 4505POPC   C3A 4853  11.340  19.882   7.950
 4505POPC   C4A 4854  11.306  19.875   7.650
 4505POPC   C1B 4855  11.037  19.979   8.550
 4505POPC   C2B 4856  11.112  19.975   8.250
 4505POPC   C3B 4857  11.094  19.963   7.950
 4505POPC   C4B 4858  11.107  19.949   7.650
 4506POPC   NC3 4859  26.018   2.760   9.450
 4506POPC   PO4 4860  26.063   2.748   9.150
 4506POPC   GL1 4861  26.017   2.733   8.850
 4506POPC   GL2 4862  26.057   2.631   8.850
 4506POPC   C1A 4863  26.030   2.780   8.550
 4506POPC   D2A 4864  25.994   2.802   8.250
 4506POPC   C3A 4865  26.009   2.728   7.950
 4506POPC   C4A 4866  25.991   2.718   7.650
 4506POPC   C1B 4867  26.003   2.500   8.550
 4506POPC   C2B 4868  25.970   2.541   8.250
 4506POPC   C3B 4869  26.016   2.565   7.950
 4506POPC   C4B 4870  26.021   2.563   7.650
 4507POPC   NC3 4871  14.361  34.587   9.450
 4507POPC   PO4 4872  14.398  34.563   9.150
 4507POPC   GL1 4873  14.425  34.587   8.850
 4507POPC   GL2 4874  14.302  34.447   8.850
 4507POPC   C1A 4875  14.417  34.565   8.550
 4507POPC   D2A 4876  14.426  34.558   8.250
 4507POPC   C3A 4877  14.355  34.591   7.950
 4507POPC   C4A 4878  14.397  34.540   7.650
 4507POPC   C1B 4879  14.267  34.345   8.550
 4507POPC   C2B 4880  14.269  34.326   8.250
 4507POPC   C3B 4881  14.272  34.411   7.950
 4507POPC   C4B 4882  14.244  34.354   7.650
 4508POPC   NC3 4883  35.330   1.250   9.450
 4508POPC   PO4 4884  35.391   1.237   9.150
 4508POPC   GL1 4885  35.313   1.199   8.850
 4508POPC   GL2 4886  35.251   1.288   8.850
 4508POPC   C1A 4887  35.397   1.236   8.550
 4508POPC   D2A 4888  35.352   1.234   8.250
 4508POPC   C3A 4889  35.314   1.221   7.950
 4508POPC   C4A 4890  35.339   1.172   7.650
 4508POPC   C1B 4891  35.183   1.388   8.550
 4508POPC   C2B 4892  35.221   1.426   8.250
 4508POPC   C3B 4893  35.235   1.423   7.950
 4508POPC   C4B 4894  35.207   1.470   7.650
 4509POPC   NC3 4895  35.377  30.745   9.450
 4509POPC   PO4 4896  35.353  30.683   9.150
 4509POPC   GL1 4897  35.341  30.731   8.850
 4509POPC   GL2 4898  35.338  30.828   8.850
 4509POPC   C1A 4899  35.395  30.719   8.550
 4509POPC   D2A 4900  35.349  30.726   8.250
 4509POPC   C3A 4901  35.331  30.740   7.950
 4509POPC   C4A 4902  35.328  30.696   7.650
 4509POPC   C1B 4903  35.432  30.888   8.550
 4509POPC   C2B 4904  35.412  30.980   8.250
 4509POPC   C3B 4905  35.450  30.972   7.950
 4509POPC   C4B 4906  35.423  30.890   7.650
 4510POPC   NC3 4907  33.777   1.256   9.450
 4510POPC   PO4 4908  33.848   1.223   9.150
 4510POPC   GL1 4909  33.753   1.256   8.850
 4510POPC   GL2 4910  33.784   1.145   8.850
 4510POPC   C1A 4911  33.833   1.187   8.550
 4510POPC   D2A 4912  33.834   1.245   8.250
 4510POPC   C3A 4913  33.763   1.178   7.950
 4510POPC   C4A 4914  33.789   1.203   7.650
 4510POPC   C1B 4915  33.763   1.027   8.550
 4510POPC   C2B 4916  33.702   1.000   8.250
 4510POPC   C3B 4917  33.705   0.945   7.950
 4510POPC   C4B 4918  33.699   0.987   7.650
 4511POPC   NC3 4919  39.242  33.776   9.450
 4511POPC   PO4 4920  39.184  33.812   9.150
 4511POPC   GL1 4921  39.232  33.816   8.850
 4511POPC   GL2 4922  39.188  33.863   8.850
 4511POPC   C1A 4923  39.198  33.750   8.550
 4511POPC   D2A 4924  39.220  33.841   8.250
 4511POPC   C3A 4925  39.236  33.830   7.950
 4511POPC   C4A 4926  39.265  33.831   7.650
 4511POPC   C1B 4927  39.119  34.015   8.550
 4511POPC   C2B 4928  39.060  34.058   8.250
 4511POPC   C3B 4929  39.077  34.004   7.950
 4511POPC   C4B 4930  39.128  33.966   7.650
 4512POPC   NC3 4931  43.919  41.559   9.450
 4512POPC   PO4 4932  43.913  41.509   9.150
 4512POPC   GL1 4933  43.852  41.526   8.850
 4512POPC   GL2 4934  43.768  41.535   8.850
 4512POPC   C1A 4935  43.906  41.516   8.550
 4512POPC   D2A 4936  43.884  41.535   8.250
 4512POPC   C3A 4937  43.928  41.589   7.950
 4512POPC   C4A 4938  43.863  41.532   7.650
 4512POPC   C1B 4939  43.637  41.459   8.550
 4512POPC   C2B 4940  43.626  41.473   8.250
 4512POPC   C3B 4941  43.660  41.454   7.950
 4512POPC   C4B 4942  43.652  41.408   7.650
 4513POPC   NC3 4943  22.195  26.025   9.450
 4513POPC   PO4 4944  22.142  26.022   9.150
 4513POPC   GL1 4945  22.167  26.043   8.850
 4513POPC   GL2 4946  22.198  25.997   8.850
 4513POPC   C1A 4947  22.189  26.069   8.550
 4513POPC   D2A 4948  22.190  26.051   8.250
 4513POPC   C3A 4949  22.188  26.068   7.950
 4513POPC   C4A 4950  22.114  26.088   7.650
 4513POPC   C1B 4951  22.326  25.869   8.550
 4513POPC   C2B 4952  22.366  25.860   8.250
 4513POPC   C3B 4953  22.353  25.876   7.950
 4513POPC   C4B 4954  22.363  25.847   7.650
 4514POPC   NC3 4955  23.698   5.107   9.450
 4514POPC   PO4 4956  23.762   5.077   9.150
 4514POPC   GL1 4957  23.703   5.070   8.850
 4514POPC   GL2 4958  23.717   5.018   8.850
 4514POPC   C1A 4959  23.698   5.067   8.550
 4514POPC   D2A 4960  23.751   5.133   8.250
 4514POPC   C3A 4961  23.703   5.083   7.950
 4514POPC   C4A 4962  23.746   5.068   7.650
 4514POPC   C1B 4963  23.659   4.809   8.550
 4514POPC   C2B 4964  23.720   4.890   8.250
 4514POPC   C3B 4965  23.702   4.836   7.950
 4514POPC   C4B 4966  23.740   4.850   7.650
 4515POPC   NC3 4967  40.792  25.284   9.450
 4515POPC   PO4 4968  40.773  25.286   9.150
 4515POPC   GL1 4969  40.776  25.253   8.850
 4515POPC   GL2 4970  40.741  25.140   8.850
 4515POPC   C1A 4971  40.764  25.305   8.550
 4515POPC   D2A 4972  40.801  25.289   8.250
 4515POPC   C3A 4973  40.803  25.312   7.950
 4515POPC   C4A 4974  40.806  25.263   7.650
 4515POPC   C1B 4975  40.655  25.016   8.550
 4515POPC   C2B 4976  40.622  25.039   8.250
 4515POPC   C3B 4977  40.643  25.066   7.950
 4515POPC   C4B 4978  40.678  25.089   7.650
 4516POPC   NC3 4979  29.116  36.858   9.450
 4516POPC   PO4 4980  29.187  36.923   9.150
 4516POPC   GL1 4981  29.173  36.949   8.850
 4516POPC   GL2 4982  29.149  37.035   8.850
 4516POPC   C1A 4983  29.173  36.875   8.550
 4516POPC   D2A 4984  29.150  36.907   8.250
 4516POPC   C3A 4985  29.172  36.920   7.950
 4516POPC   C4A 4986  29.117  36.893   7.650
 4516POPC   C1B 4987  29.213  37.152   8.550
 4516POPC   C2B 4988  29.227  37.136   8.250
 4516POPC   C3B 4989  29.205  37.127   7.950
 4516POPC   C4B 4990  29.165  37.165   7.650
 4517POPC   NC3 4991   7.376  17.478   9.450
 4517POPC   PO4 4992   7.429  17.499   9.150
 4517POPC   GL1 4993   7.418  17.547   8.850
 4517POPC   GL2 4994   7.283  17.488   8.850
 4517POPC   C1A 4995   7.447  17.508   8.550
 4517POPC   D2A 4996   7.439  17.517   8.250
 4517POPC   C3A 4997   7.407  17.501   7.950
 4517POPC   C4A 4998   7.374  17.505   7.650
 4517POPC   C1B 4999   7.213  17.336   8.550
 4517POPC   C2B 5000   7.227  17.358   8.250
 4517POPC   C3B 5001   7.163  17.416   7.950
 4517POPC   C4B 5002   7.246  17.430   7.650
 4518POPC   NC3 5003  18.332  11.350   9.450
 4518POPC   PO4 5004  18.292  11.336   9.150
 4518POPC   GL1 5005  18.319  11.259   8.850
 4518POPC   GL2 5006  18.148  11.403   8.850
 4518POPC   C1A 5007  18.259  11.305   8.550
 4518POPC   D2A 5008  18.312  11.337   8.250
 4518POPC   C3A 5009  18.271  11.260   7.950
 4518POPC   C4A 5010  18.308  11.320   7.650
 4518POPC   C1B 5011  18.110  11.525   8.550
 4518POPC   C2B 5012  18.076  11.479   8.250
 4518POPC   C3B 5013  18.100  11.499   7.950
 4518POPC   C4B 5014  18.093  11.461   7.650
 4519POPC   NC3 5015  22.980   9.013   9.450
 4519POPC   PO4 5016  22.907   8.943   9.150
 4519POPC   GL1 5017  22.981   8.948   8.850
 4519POPC   GL2 5018  22.955   8.858   8.850
 4519POPC   C1A 5019  22.967   8.938   8.550
 4519POPC   D2A 5020  22.924   8.924   8.250
 4519POPC   C3A 5021  22.944   9.013   7.950
 4519POPC   C4A 5022  22.971   8.949   7.650
 4519POPC   C1B 5023  22.881   8.700   8.550
 4519POPC   C2B 5024  22.871   8.721   8.250
 4519POPC   C3B 5025  22.947   8.768   7.950
 4519POPC   C4B 5026  22.900   8.741   7.650
 4520POPC   NC3 5027  41.599  29.889   9.450
 4520POPC   PO4 5028  41.608  29.894   9.150
 4520POPC   GL1 5029  41.582  29.957   8.850
 4520POPC   GL2 5030  41.536  29.752   8.850
 4520POPC   C1A 5031  41.539  29.882   8.550
 4520POPC   D2A 5032  41.516  29.923   8.250
 4520POPC   C3A 5033  41.543  29.932   7.950
 4520POPC   C4A 5034  41.578  29.939   7.650
 4520POPC   C1B 5035  41.525  29.698   8.550
 4520POPC   C2B 5036  41.536  29.662   8.250
 4520POPC   C3B 5037  41.604  29.705   7.950
 4520POPC   C4B 5038  41.539  29.705   7.650
 4521POPC   NC3 5039  24.485  24.476   9.450
 4521POPC   PO4 5040  24.493  24.452   9.150
 4521POPC   GL1 5041  24.525  24.526   8.850
 4521POPC   GL2 5042  24.380  24.623   8.850
 4521POPC   C1A 5043  24.461  24.536   8.550
 4521POPC   D2A 5044  24.470  24.474   8.250
 4521POPC   C3A 5045  24.536  24.505   7.950
 4521POPC   C4A 5046  24.514  24.535   7.650
 4521POPC   C1B 5047  24.318  24.640   8.550
 4521POPC   C2B 5048  24.321  24.669   8.250
 4521POPC   C3B 5049  24.327  24.664   7.950
 4521POPC   C4B 5050  24.346  24.718   7.650
 4522POPC   NC3 5051  34.558  10.565   9.450
 4522POPC   PO4 5052  34.596  10.494   9.150
 4522POPC   GL1 5053  34.572  10.570   8.850
 4522POPC   GL2 5054  34.707  10.565   8.850
 4522POPC   C1A 5055  34.584  10.487   8.550
 4522POPC   D2A 5056  34.565  10.495   8.250
 4522POPC   C3A 5057  34.599  10.557   7.950
 4522POPC   C4A 5058  34.559  10.524   7.650
 4522POPC   C1B 5059  34.797  10.601   8.550
 4522POPC   C2B 5060  34.808  10.594   8.250
 4522POPC   C3B 5061  34.827  10.587   7.950
 4522POPC   C4B 5062  34.825  10.605   7.650
 4523POPC   NC3 5063  39.194  12.828   9.450
 4523POPC   PO4 5064  39.204  12.827   9.150
 4523POPC   GL1 5065  39.257  12.889   8.850
 4523POPC   GL2 5066  39.153  12.787   8.850
 4523POPC   C1A 5067  39.223  12.859   8.550
 4523POPC   D2A 5068  39.240  12.855   8.250
 4523POPC   C3A 5069  39.255  12.814   7.950
 4523POPC   C4A 5070  39.235  12.824   7.650
 4523POPC   C1B 5071  39.049  12.680   8.550
 4523POPC   C2B 5072  39.088  12.682   8.250
 4523POPC   C3B 5073  39.020  12.715   7.950
 4523POPC   C4B 5074  39.042  12.639   7.650
 4524POPC   NC3 5075  27.567  27.569   9.450
 4524POPC   PO4 5076  27.600  27.544   9.150
 4524POPC   GL1 5077  27.608  27.584   8.850
 4524POPC   GL2 5078  27.656  27.695   8.850
 4524POPC   C1A 5079  27.554  27.630   8.550
 4524POPC   D2A 5080  27.598  27.575   8.250
 4524POPC   C3A 5081  27.571  27.567   7.950
 4524POPC   C4A 5082  27.603  27.625   7.650
 4524POPC   C1B 5083  27.634  27.855   8.550
 4524POPC   C2B 5084  27.613  27.847   8.250
 4524POPC   C3B 5085  27.645  27.863   7.950
 4524POPC   C4B 5086  27.678  27.881   7.650
 4525POPC   NC3 5087  36.941  33.053   9.450
 4525POPC   PO4 5088  36.882  33.003   9.150
 4525POPC   GL1 5089  36.908  33.004   8.850
 4525POPC   GL2 5090  36.947  32.924   8.850
 4525POPC   C1A 5091  36.941  33.059   8.550
 4525POPC   D2A 5092  36.922  33.015   8.250
 4525POPC   C3A 5093  36.949  33.072   7.950
 4525POPC   C4A 5094  36.902  33.014   7.650
 4525POPC   C1B 5095  36.901  32.771   8.550
 4525POPC   C2B 5096  36.889  32.729   8.250
 4525POPC   C3B 5097  36.876  32.809   7.950
 4525POPC   C4B 5098  36.930  32.744   7.650
 4526POPC   NC3 5099  39.238  39.991   9.450
 4526POPC   PO4 5100  39.206  40.037   9.150
 4526POPC   GL1 5101  39.243  39.980   8.850
 4526POPC   GL2 5102  39.137  40.015   8.850
 4526POPC   C1A 5103  39.263  40.048   8.550
 4526POPC   D2A 5104  39.241  40.020   8.250
 4526POPC   C3A 5105  39.228  39.992   7.950
 4526POPC   C4A 5106  39.197  39.971   7.650
 4526POPC   C1B 5107  39.033  40.119   8.550
 4526POPC   C2B 5108  38.961  40.040   8.250
 4526POPC   C3B 5109  39.028  40.102   7.950
 4526POPC   C4B 5110  38.990  40.049   7.650
 4527POPC   NC3 5111  13.643  39.212   9.450
 4527POPC   PO4 5112  13.669  39.241   9.150
 4527POPC   GL1 5113  13.657  39.253   8.850
 4527POPC   GL2 5114  13.502  39.223   8.850
 4527POPC   C1A 5115  13.656  39.231   8.550
 4527POPC   D2A 5116  13.633  39.252   8.250
 4527POPC   C3A 5117  13.648  39.187   7.950
 4527POPC   C4A 5118  13.594  39.241   7.650
 4527POPC   C1B 5119  13.381  39.246   8.550
 4527POPC   C2B 5120  13.342  39.205   8.250
 4527POPC   C3B 5121  13.340  39.243   7.950
 4527POPC   C4B 5122  13.348  39.200   7.650
 4528POPC   NC3 5123  32.214   3.591   9.450
 4528POPC   PO4 5124  32.242   3.536   9.150
 4528POPC   GL1 5125  32.297   3.495   8.850
 4528POPC   GL2 5126  32.232   3.619   8.850
 4528POPC   C1A 5127  32.212   3.519   8.550
 4528POPC   D2A 5128  32.288   3.590   8.250
 4528POPC   C3A 5129  32.203   3.493   7.950
 4528POPC   C4A 5130  32.241   3.503   7.650
 4528POPC   C1B 5131  32.259   3.768   8.550
 4528POPC   C2B 5132  32.220   3.829   8.250
 4528POPC   C3B 5133  32.218   3.828   7.950
 4528POPC   C4B 5134  32.195   3.747   7.650
 4529POPC   NC3 5135  39.221  32.242   9.450
 4529POPC   PO4 5136  39.192  32.285   9.150
 4529POPC   GL1 5137  39.245  32.225   8.850
 4529POPC   GL2 5138  39.351  32.168   8.850
 4529POPC   C1A 5139  39.249  32.260   8.550
 4529POPC   D2A 5140  39.241  32.211   8.250
 4529POPC   C3A 5141  39.223  32.234   7.950
 4529POPC   C4A 5142  39.275  32.238   7.650
 4529POPC   C1B 5143  39.497  32.103   8.550
 4529POPC   C2B 5144  39.494  32.184   8.250
 4529POPC   C3B 5145  39.416  32.114   7.950
 4529POPC   C4B 5146  39.440  32.187   7.650
 4530POPC   NC3 5147  43.841  26.053   9.450
 4530POPC   PO4 5148  43.906  26.087   9.150
 4530POPC   GL1 5149  43.904  25.992   8.850
 4530POPC   GL2 5150  43.822  26.142   8.850
 4530POPC   C1A 5151  43.855  26.006   8.550
 4530POPC   D2A 5152  43.933  26.004   8.250
 4530POPC   C3A 5153  43.844  26.047   7.950
 4530POPC   C4A 5154  43.886  26.090   7.650
 4530POPC   C1B 5155  43.694  26.206   8.550
 4530POPC   C2B 5156  43.687  26.187   8.250
 4530POPC   C3B 5157  43.675  26.241   7.950
 4530POPC   C4B 5158  43.738  26.226   7.650
 4531POPC   NC3 5159  26.034  42.352   9.450
 4531POPC   PO4 5160  26.021  42.382   9.150
 4531POPC   GL1 5161  26.076  42.359   8.850
 4531POPC   GL2 5162  25.980  42.202   8.850
 4531POPC   C1A 5163  26.034  42.306   8.550
 4531POPC   D2A 5164  26.026  42.384   8.250
 4531POPC   C3A 5165  26.034  42.380   7.950
 4531POPC   C4A 5166  26.062  42.354   7.650
 4531POPC   C1B 5167  25.941  42.070   8.550
 4531POPC   C2B 5168  25.909  42.073   8.250
 4531POPC   C3B 5169  25.949  42.078   7.950
 4531POPC   C4B 5170  25.962  42.147   7.650
 4532POPC   NC3 5171  33.037  40.052   9.450
 4532POPC   PO4 5172  32.987  40.030   9.150
 4532POPC   GL1 5173  32.976  40.054   8.850
 4532POPC   GL2 5174  33.019  39.931   8.850
 4532POPC   C1A 5175  33.036  40.049   8.550
 4532POPC   D2A 5176  32.998  40.022   8.250
 4532POPC   C3A 5177  32.980  39.960   7.950
 4532POPC   C4A 5178  33.037  39.982   7.650
 4532POPC   C1B 5179  32.904  39.815   8.550
 4532POPC   C2B 5180  32.947  39.766   8.250
 4532POPC   C3B 5181  32.962  39.749   7.950
 4532POPC   C4B 5182  32.904  39.808   7.650
 4533POPC   NC3 5183  33.755  36.867   9.450
 4533POPC   PO4 5184  33.758  36.905   9.150
 4533POPC   GL1 5185  33.849  36.899   8.850
 4533POPC   GL2 5186  33.973  36.901   8.850
 4533POPC   C1A 5187  33.752  36.871   8.550
 4533POPC   D2A 5188  33.804  36.860   8.250
 4533POPC   C3A 5189  33.788  36.943   7.950
 4533POPC   C4A 5190  33.799  36.908   7.650
 4533POPC   C1B 5191  34.015  36.889   8.550
 4533POPC   C2B 5192  34.019  36.825   8.250
 4533POPC   C3B 5193  34.003  36.866   7.950
 4533POPC   C4B 5194  34.074  36.878   7.650
 4534POPC   NC3 5195  30.689  36.100   9.450
 4534POPC   PO4 5196  30.713  36.134   9.150
 4534POPC   GL1 5197  30.723  36.134   8.850
 4534POPC   GL2 5198  30.706  36.214   8.850
 4534POPC   C1A 5199  30.672  36.150   8.550
 4534POPC   D2A 5200  30.713  36.128   8.250
 4534POPC   C3A 5201  30.732  36.091   7.950
 4534POPC   C4A 5202  30.678  36.139   7.650
 4534POPC   C1B 5203  30.636  36.383   8.550
 4534POPC   C2B 5204  30.703  36.421   8.250
 4534POPC   C3B 5205  30.708  36.404   7.950
 4534POPC   C4B 5206  30.691  36.423   7.650
 4535POPC   NC3 5207   8.229  43.122   9.450
 4535POPC   PO4 5208   8.183  43.107   9.150
 4535POPC   GL1 5209   8.176  43.103   8.850
 4535POPC   GL2 5210   8.129  42.999   8.850
 4535POPC   C1A 5211   8.156  43.144   8.550
 4535POPC   D2A 5212   8.212  43.126   8.250
 4535POPC   C3A 5213   8.194  43.158   7.950
 4535POPC   C4A 5214   8.238  43.117   7.650
 4535POPC   C1B 5215   8.091  42.871   8.550
 4535POPC   C2B 5216   8.117  42.891   8.250
 4535POPC   C3B 5217   8.091  42.912   7.950
 4535POPC   C4B 5218   8.136  42.830   7.650
 4536POPC   NC3 5219  30.687  38.447   9.450
 4536POPC   PO4 5220  30.658  38.469   9.150
 4536POPC   GL1 5221  30.712  38.423   8.850
 4536POPC   GL2 5222  30.623  38.344   8.850
 4536POPC   C1A 5223  30.714  38.457   8.550
 4536POPC   D2A 5224  30.665  38.422   8.250
 4536POPC   C3A 5225  30.709  38.455   7.950
 4536POPC   C4A 5226  30.735  38.486   7.650
 4536POPC   C1B 5227  30.545  38.290   8.550
 4536POPC   C2B 5228  30.490  38.243   8.250
 4536POPC   C3B 5229  30.498  38.304   7.950
 4536POPC   C4B 5230  30.519  38.313   7.650
 4537POPC   NC3 5231  36.124  26.815   9.450
 4537POPC   PO4 5232  36.111  26.821   9.150
 4537POPC   GL1 5233  36.098  26.855   8.850
 4537POPC   GL2 5234  36.040  26.869   8.850
 4537POPC   C1A 5235  36.148  26.829   8.550
 4537POPC   D2A 5236  36.102  26.846   8.250
 4537POPC   C3A 5237  36.141  26.835   7.950
 4537POPC   C4A 5238  36.122  26.807   7.650
 4537POPC   C1B 5239  35.904  26.925   8.550
 4537POPC   C2B 5240  35.869  26.874   8.250
 4537POPC   C3B 5241  35.923  26.938   7.950
 4537POPC   C4B 5242  35.911  26.867   7.650
 4538POPC   NC3 5243  32.231  30.690   9.450
 4538POPC   PO4 5244  32.296  30.670   9.150
 4538POPC   GL1 5245  32.210  30.658   8.850
 4538POPC   GL2 5246  32.172  30.830   8.850
 4538POPC   C1A 5247  32.202  30.656   8.550
 4538POPC   D2A 5248  32.199  30.708   8.250
 4538POPC   C3A 5249  32.272  30.678   7.950
 4538POPC   C4A 5250  32.282  30.685   7.650
 4538POPC   C1B 5251  32.160  30.968   8.550
 4538POPC   C2B 5252  32.147  30.926   8.250
 4538POPC   C3B 5253  32.182  30.972   7.950
 4538POPC   C4B 5254  32.159  30.918   7.650
 4539POPC   NC3 5255  29.948   3.561   9.450
 4539POPC   PO4 5256  29.890   3.557   9.150
 4539POPC   GL1 5257  29.962   3.496   8.850
 4539POPC   GL2 5258  29.795   3.431   8.850
 4539POPC   C1A 5259  29.916   3.559   8.550
 4539POPC   D2A 5260  29.925   3.563   8.250
 4539POPC   C3A 5261  29.938   3.547   7.950
 4539POPC   C4A 5262  29.874   3.557   7.650
 4539POPC   C1B 5263  29.709   3.349   8.550
 4539POPC   C2B 5264  29.761   3.421   8.250
 4539POPC   C3B 5265  29.752   3.404   7.950
 4539POPC   C4B 5266  29.695   3.379   7.650
 4540POPC   NC3 5267  11.258  39.229   9.450
 4540POPC   PO4 5268  11.304  39.228   9.150
 4540POPC   GL1 5269  11.282  39.216   8.850
 4540POPC   GL2 5270  11.201  39.337   8.850
 4540POPC   C1A 5271  11.307  39.197   8.550
 4540POPC   D2A 5272  11.323  39.259   8.250
 4540POPC   C3A 5273  11.298  39.260   7.950
 4540POPC   C4A 5274  11.346  39.278   7.650
 4540POPC   C1B 5275  11.143  39.376   8.550
 4540POPC   C2B 5276  11.124  39.364   8.250
 4540POPC   C3B 5277  11.102  39.364   7.950
 4540POPC   C4B 5278  11.107  39.362   7.650
 4541POPC   NC3 5279   1.970  28.374   9.450
 4541POPC   PO4 5280   2.034  28.406   9.150
 4541POPC   GL1 5281   2.037  28.334   8.850
 4541POPC   GL2 5282   2.009  28.206   8.850
 4541POPC   C1A 5283   1.947  28.330   8.550
 4541POPC   D2A 5284   1.964  28.388   8.250
 4541POPC   C3A 5285   2.009  28.417   7.950
 4541POPC   C4A 5286   2.021  28.336   7.650
 4541POPC   C1B 5287   2.052  28.088   8.550
 4541POPC   C2B 5288   1.967  28.091   8.250
 4541POPC   C3B 5289   2.020  28.111   7.950
 4541POPC   C4B 5290   2.009  28.115   7.650
 4542POPC   NC3 5291  38.454  18.318   9.450
 4542POPC   PO4 5292  38.422  18.308   9.150
 4542POPC   GL1 5293  38.477  18.287   8.850
 4542POPC   GL2 5294  38.376  18.362   8.850
 4542POPC   C1A 5295  38.439  18.256   8.550
 4542POPC   D2A 5296  38.433  18.237   8.250
 4542POPC   C3A 5297  38.446  18.323   7.950
 4542POPC   C4A 5298  38.412  18.233   7.650
 4542POPC   C1B 5299  38.326  18.460   8.550
 4542POPC   C2B 5300  38.308  18.535   8.250
 4542POPC   C3B 5301  38.328  18.480   7.950
 4542POPC   C4B 5302  38.309  18.501   7.650
 4543POPC   NC3 5303   4.286  33.028   9.450
 4543POPC   PO4 5304   4.282  32.983   9.150
 4543POPC   GL1 5305   4.347  33.013   8.850
 4543POPC   GL2 5306   4.439  32.987   8.850
 4543POPC   C1A 5307   4.329  33.028   8.550
 4543POPC   D2A 5308   4.270  33.024   8.250
 4543POPC   C3A 5309   4.318  33.019   7.950
 4543POPC   C4A 5310   4.332  33.004   7.650
 4543POPC   C1B 5311   4.568  32.891   8.550
 4543POPC   C2B 5312   4.542  32.933   8.250
 4543POPC   C3B 5313   4.549  32.859   7.950
 4543POPC   C4B 5314   4.573  32.876   7.650
 4544POPC   NC3 5315   8.240  21.393   9.450
 4544POPC   PO4 5316   8.178  21.405   9.150
 4544POPC   GL1 5317   8.188  21.355   8.850
 4544POPC   GL2 5318   8.298  21.534   8.850
 4544POPC   C1A 5319   8.212  21.372   8.550
 4544POPC   D2A 5320   8.179  21.434   8.250
 4544POPC   C3A 5321   8.217  21.349   7.950
 4544POPC   C4A 5322   8.154  21.418   7.650
 4544POPC   C1B 5323   8.331  21.655   8.550
 4544POPC   C2B 5324   8.324  21.624   8.250
 4544POPC   C3B 5325   8.310  21.640   7.950
 4544POPC   C4B 5326   8.266  21.577   7.650
 4545POPC   NC3 5327  16.771  22.897   9.450
 4545POPC   PO4 5328  16.738  22.952   9.150
 4545POPC   GL1 5329  16.740  22.923   8.850
 4545POPC   GL2 5330  16.647  22.888   8.850
 4545POPC   C1A 5331  16.699  22.966   8.550
 4545POPC   D2A 5332  16.720  22.964   8.250
 4545POPC   C3A 5333  16.724  22.962   7.950
 4545POPC   C4A 5334  16.753  22.935   7.650
 4545POPC   C1B 5335  16.563  22.803   8.550
 4545POPC   C2B 5336  16.527  22.722   8.250
 4545POPC   C3B 5337  16.542  22.816   7.950
 4545POPC   C4B 5338  16.524  22.818   7.650
 4546POPC   NC3 5339  12.820  24.483   9.450
 4546POPC   PO4 5340  12.843  24.452   9.150
 4546POPC   GL1 5341  12.839  24.465   8.850
 4546POPC   GL2 5342  12.915  24.582   8.850
 4546POPC   C1A 5343  12.827  24.469   8.550
 4546POPC   D2A 5344  12.822  24.446   8.250
 4546POPC   C3A 5345  12.870  24.440   7.950
 4546POPC   C4A 5346  12.833  24.495   7.650
 4546POPC   C1B 5347  12.952  24.722   8.550
 4546POPC   C2B 5348  13.032  24.678   8.250
 4546POPC   C3B 5349  12.974  24.725   7.950
 4546POPC   C4B 5350  13.003  24.674   7.650
 4547POPC   NC3 5351  26.843  33.760   9.450
 4547POPC   PO4 5352  26.863  33.818   9.150
 4547POPC   GL1 5353  26.818  33.834   8.850
 4547POPC   GL2 5354  26.739  33.732   8.850
 4547POPC   C1A 5355  26.864  33.809   8.550
 4547POPC   D2A 5356  26.842  33.834   8.250
 4547POPC   C3A 5357  26.776  33.828   7.950
 4547POPC   C4A 5358  26.787  33.828   7.650
 4547POPC   C1B 5359  26.630  33.643   8.550
 4547POPC   C2B 5360  26.619  33.600   8.250
 4547POPC   C3B 5361  26.689  33.647   7.950
 4547POPC   C4B 5362  26.676  33.598   7.650
 4548POPC   NC3 5363  13.655  40.030   9.450
 4548POPC   PO4 5364  13.672  40.023   9.150
 4548POPC   GL1 5365  13.586  39.958   8.850
 4548POPC   GL2 5366  13.640  39.929   8.850
 4548POPC   C1A 5367  13.593  39.957   8.550
 4548POPC   D2A 5368  13.644  40.050   8.250
 4548POPC   C3A 5369  13.666  39.987   7.950
 4548POPC   C4A 5370  13.633  39.980   7.650
 4548POPC   C1B 5371  13.742  39.785   8.550
 4548POPC   C2B 5372  13.733  39.801   8.250
 4548POPC   C3B 5373  13.694  39.731   7.950
 4548POPC   C4B 5374  13.740  39.758   7.650
 4549POPC   NC3 5375  30.714  11.324   9.450
 4549POPC   PO4 5376  30.720  11.340   9.150
 4549POPC   GL1 5377  30.677  11.325   8.850
 4549POPC   GL2 5378  30.599  11.160   8.850
 4549POPC   C1A 5379  30.708  11.330   8.550
 4549POPC   D2A 5380  30.719  11.292   8.250
 4549POPC   C3A 5381  30.697  11.259   7.950
 4549POPC   C4A 5382  30.669  11.261   7.650
 4549POPC   C1B 5383  30.564  11.092   8.550
 4549POPC   C2B 5384  30.576  11.135   8.250
 4549POPC   C3B 5385  30.504  11.087   7.950
 4549POPC   C4B 5386  30.530  11.137   7.650
 4550POPC   NC3 5387  12.837  36.883   9.450
 4550POPC   PO4 5388  12.833  36.948   9.150
 4550POPC   GL1 5389  12.814  36.884   8.850
 4550POPC   GL2 5390  12.915  36.812   8.850
 4550POPC   C1A 5391  12.847  36.866   8.550
 4550POPC   D2A 5392  12.871  36.930   8.250
 4550POPC   C3A 5393  12.900  36.881   7.950
 4550POPC   C4A 5394  12.851  36.906   7.650
 4550POPC   C1B 5395  12.917  36.676   8.550
 4550POPC   C2B 5396  12.964  36.704   8.250
 4550POPC   C3B 5397  12.954  36.674   7.950
 4550POPC   C4B 5398  12.920  36.656   7.650
 4551POPC   NC3 5399  29.121  11.300   9.450
 4551POPC   PO4 5400  29.096  11.287   9.150
 4551POPC   GL1 5401  29.134  11.303   8.850
 4551POPC   GL2 5402  29.283  11.323   8.850
 4551POPC   C1A 5403  29.106  11.326   8.550
 4551POPC   D2A 5404  29.154  11.290   8.250
 4551POPC   C3A 5405  29.194  11.289   7.950
 4551POPC   C4A 5406  29.125  11.336   7.650
 4551POPC   C1B 5407  29.421  11.313   8.550
 4551POPC   C2B 5408  29.411  11.291   8.250
 4551POPC   C3B 5409  29.350  11.267   7.950
 4551POPC   C4B 5410  29.367  11.255   7.650
 4552POPC   NC3 5411  32.218   5.080   9.450
 4552POPC   PO4 5412  32.206   5.138   9.150
 4552POPC   GL1 5413  32.257   5.062   8.850
 4552POPC   GL2 5414  32.119   5.209   8.850
 4552POPC   C1A 5415  32.248   5.086   8.550
 4552POPC   D2A 5416  32.210   5.092   8.250
 4552POPC   C3A 5417  32.282   5.095   7.950
 4552POPC   C4A 5418  32.263   5.122   7.650
 4552POPC   C1B 5419  32.003   5.250   8.550
 4552POPC   C2B 5420  32.050   5.190   8.250
 4552POPC   C3B 5421  32.081   5.208   7.950
 4552POPC   C4B 5422  32.035   5.181   7.650
 4553POPC   NC3 5423  21.399   1.195   9.450
 4553POPC   PO4 5424  21.403   1.210   9.150
 4553POPC   GL1 5425  21.430   1.202   8.850
 4553POPC   GL2 5426  21.520   1.222   8.850
 4553POPC   C1A 5427  21.397   1.239   8.550
 4553POPC   D2A 5428  21.413   1.200   8.250
 4553POPC   C3A 5429  21.435   1.239   7.950
 4553POPC   C4A 5430  21.396   1.250   7.650
 4553POPC   C1B 5431  21.586   1.119   8.550
 4553POPC   C2B 5432  21.593   1.142   8.250
 4553POPC   C3B 5433  21.625   1.154   7.950
 4553POPC   C4B 5434  21.601   1.130   7.650
 4554POPC   NC3 5435   6.604  36.096   9.450
 4554POPC   PO4 5436   6.686  36.100   9.150
 4554POPC   GL1 5437   6.666  36.159   8.850
 4554POPC   GL2 5438   6.780  36.121   8.850
 4554POPC   C1A 5439   6.606  36.119   8.550
 4554POPC   D2A 5440   6.666  36.130   8.250
 4554POPC   C3A 5441   6.687  36.087   7.950
 4554POPC   C4A 5442   6.604  36.171   7.650
 4554POPC   C1B 5443   6.922  36.050   8.550
 4554POPC   C2B 5444   6.855  36.133   8.250
 4554POPC   C3B 5445   6.910  36.083   7.950
 4554POPC   C4B 5446   6.907  36.127   7.650
 4555POPC   NC3 5447   8.925  10.519   9.450
 4555POPC   PO4 5448   8.964  10.558   9.150
 4555POPC   GL1 5449   8.977  10.536   8.850
 4555POPC   GL2 5450   8.895  10.621   8.850
 4555POPC   C1A 5451   8.950  10.559   8.550
 4555POPC   D2A 5452   8.996  10.479   8.250
 4555POPC   C3A 5453   8.990  10.495   7.950
 4555POPC   C4A 5454   8.936  10.513   7.650
 4555POPC   C1B 5455   8.820  10.695   8.550
 4555POPC   C2B 5456   8.882  10.751   8.250
 4555POPC   C3B 5457   8.784  10.694   7.950
 4555POPC   C4B 5458   8.835  10.737   7.650
 4556POPC   NC3 5459  41.588  32.264   9.450
 4556POPC   PO4 5460  41.529  32.286   9.150
 4556POPC   GL1 5461  41.563  32.204   8.850
 4556POPC   GL2 5462  41.467  32.178   8.850
 4556POPC   C1A 5463  41.520  32.219   8.550
 4556POPC   D2A 5464  41.564  32.208   8.250
 4556POPC   C3A 5465  41.575  32.286   7.950
 4556POPC   C4A 5466  41.532  32.291   7.650
 4556POPC   C1B 5467  41.448  32.051   8.550
 4556POPC   C2B 5468  41.443  32.055   8.250
 4556POPC   C3B 5469  41.429  32.020   7.950
 4556POPC   C4B 5470  41.387  32.077   7.650
 4557POPC   NC3 5471  41.585  39.253   9.450
 4557POPC   PO4 5472  41.509  39.184   9.150
 4557POPC   GL1 5473  41.604  39.205   8.850
 4557POPC   GL2 5474  41.632  39.115   8.850
 4557POPC   C1A 5475  41.584  39.233   8.550
 4557POPC   D2A 5476  41.596  39.275   8.250
 4557POPC   C3A 5477  41.549  39.233   7.950
 4557POPC   C4A 5478  41.574  39.239   7.650
 4557POPC   C1B 5479  41.695  39.032   8.550
 4557POPC   C2B 5480  41.761  39.015   8.250
 4557POPC   C3B 5481  41.754  39.101   7.950
 4557POPC   C4B 5482  41.734  39.019   7.650
 4558POPC   NC3 5483   1.165  23.715   9.450
 4558POPC   PO4 5484   1.187  23.709   9.150
 4558POPC   GL1 5485   1.194  23.694   8.850
 4558POPC   GL2 5486   1.137  23.627   8.850
 4558POPC   C1A 5487   1.172  23.750   8.550
 4558POPC   D2A 5488   1.247  23.694   8.250
 4558POPC   C3A 5489   1.214  23.670   7.950
 4558POPC   C4A 5490   1.243  23.748   7.650
 4558POPC   C1B 5491   1.098  23.522   8.550
 4558POPC   C2B 5492   1.130  23.493   8.250
 4558POPC   C3B 5493   1.094  23.469   7.950
 4558POPC   C4B 5494   1.159  23.445   7.650
 4559POPC   NC3 5495  19.071  12.083   9.450
 4559POPC   PO4 5496  19.025  12.070   9.150
 4559POPC   GL1 5497  19.011  12.035   8.850
 4559POPC   GL2 5498  19.154  12.085   8.850
 4559POPC   C1A 5499  19.043  12.103   8.550
 4559POPC   D2A 5500  19.055  12.031   8.250
 4559POPC   C3A 5501  19.053  12.102   7.950
 4559POPC   C4A 5502  19.098  12.115   7.650
 4559POPC   C1B 5503  19.317  12.215   8.550
 4559POPC   C2B 5504  19.252  12.218   8.250
 4559POPC   C3B 5505  19.312  12.219   7.950
 4559POPC   C4B 5506  19.245  12.139   7.650
 4560POPC   NC3 5507  29.926  20.628   9.450
 4560POPC   PO4 5508  29.964  20.599   9.150
 4560POPC   GL1 5509  29.892  20.574   8.850
 4560POPC   GL2 5510  29.981  20.458   8.850
 4560POPC   C1A 5511  29.944  20.601   8.550
 4560POPC   D2A 5512  29.876  20.592   8.250
 4560POPC   C3A 5513  29.967  20.609   7.950
 4560POPC   C4A 5514  29.963  20.620   7.650
 4560POPC   C1B 5515  30.028  20.415   8.550
 4560POPC   C2B 5516  30.024  20.331   8.250
 4560POPC   C3B 5517  29.969  20.342   7.950
 4560POPC   C4B 5518  29.998  20.370   7.650
 4561POPC   NC3 5519  14.413  37.639   9.450
 4561POPC   PO4 5520  14.401  37.708   9.150
 4561POPC   GL1 5521  14.369  37.727   8.850
 4561POPC   GL2 5522  14.511  37.667   8.850
 4561POPC   C1A 5523  14.422  37.690   8.550
 4561POPC   D2A 5524  14.416  37.671   8.250
 4561POPC   C3A 5525  14.375  37.648   7.950
 4561POPC   C4A 5526  14.431  37.722   7.650
 4561POPC   C1B 5527  14.692  37.688   8.550
 4561POPC   C2B 5528  14.684  37.638   8.250
 4561POPC   C3B 5529  14.665  37.608   7.950
 4561POPC   C4B 5530  14.677  37.621   7.650
 4562POPC   NC3 5531   9.751  30.692   9.450
 4562POPC   PO4 5532   9.717  30.732   9.150
 4562POPC   GL1 5533   9.738  30.658   8.850
 4562POPC   GL2 5534   9.879  30.681   8.850
 4562POPC   C1A 5535   9.727  30.728   8.550
 4562POPC   D2A 5536   9.725  30.682   8.250
 4562POPC   C3A 5537   9.759  30.667   7.950
 4562POPC   C4A 5538   9.745  30.661   7.650
 4562POPC   C1B 5539   9.945  30.761   8.550
 4562POPC   C2B 5540   9.958  30.707   8.250
 4562POPC   C3B 5541   9.986  30.798   7.950
 4562POPC   C4B 5542   9.970  30.739   7.650
 4563POPC   NC3 5543  19.047  35.395   9.450
 4563POPC   PO4 5544  19.053  35.305   9.150
 4563POPC   GL1 5545  19.039  35.312   8.850
 4563POPC   GL2 5546  19.134  35.482   8.850
 4563POPC   C1A 5547  19.012  35.387   8.550
 4563POPC   D2A 5548  19.046  35.366   8.250
 4563POPC   C3A 5549  19.057  35.399   7.950
 4563POPC   C4A 5550  19.025  35.335   7.650
 4563POPC   C1B 5551  19.202  35.565   8.550
 4563POPC   C2B 5552  19.260  35.497   8.250
 4563POPC   C3B 5553  19.200  35.588   7.950
 4563POPC   C4B 5554  19.227  35.557   7.650
 4564POPC   NC3 5555   2.800  26.790   9.450
 4564POPC   PO4 5556   2.779  26.778   9.150
 4564POPC   GL1 5557   2.761  26.769   8.850
 4564POPC   GL2 5558   2.676  26.690   8.850
 4564POPC   C1A 5559   2.798  26.810   8.550
 4564POPC   D2A 5560   2.733  26.775   8.250
 4564POPC   C3A 5561   2.812  26.811   7.950
 4564POPC   C4A 5562   2.810  26.818   7.650
 4564POPC   C1B 5563   2.593  26.661   8.550
 4564POPC   C2B 5564   2.594  26.640   8.250
 4564POPC   C3B 5565   2.570  26.686   7.950
 4564POPC   C4B 5566   2.573  26.641   7.650
 4565POPC   NC3 5567  44.710   5.853   9.450
 4565POPC   PO4 5568  44.703   5.879   9.150
 4565POPC   GL1 5569  44.709   5.872   8.850
 4565POPC   GL2 5570  44.633   5.950   8.850
 4565POPC   C1A 5571  44.703   5.833   8.550
 4565POPC   D2A 5572  44.665   5.827   8.250
 4565POPC   C3A 5573  44.632   5.838   7.950
 4565POPC   C4A 5574  44.643   5.821   7.650
 4565POPC   C1B 5575  44.688   6.135   8.550
 4565POPC   C2B 5576  44.620   6.146   8.250
 4565POPC   C3B 5577  44.663   6.069   7.950
 4565POPC   C4B 5578  44.634   6.103   7.650
 4566POPC   NC3 5579  23.738  25.994   9.450
 4566POPC   PO4 5580  23.672  26.056   9.150
 4566POPC   GL1 5581  23.756  26.021   8.850
 4566POPC   GL2 5582  23.587  26.055   8.850
 4566POPC   C1A 5583  23.696  26.052   8.550
 4566POPC   D2A 5584  23.746  26.040   8.250
 4566POPC   C3A 5585  23.751  26.089   7.950
 4566POPC   C4A 5586  23.665  26.068   7.650
 4566POPC   C1B 5587  23.474  26.031   8.550
 4566POPC   C2B 5588  23.499  25.995   8.250
 4566POPC   C3B 5589  23.505  26.039   7.950
 4566POPC   C4B 5590  23.492  26.025   7.650
 4567POPC   NC3 5591  29.122   8.230   9.450
 4567POPC   PO4 5592  29.188   8.177   9.150
 4567POPC   GL1 5593  29.104   8.217   8.850
 4567POPC   GL2 5594  29.215   8.323   8.850
 4567POPC   C1A 5595  29.118   8.237   8.550
 4567POPC   D2A 5596  29.116   8.179   8.250
 4567POPC   C3A 5597  29.184   8.208   7.950
 4567POPC   C4A 5598  29.157   8.165   7.650
 4567POPC   C1B 5599  29.289   8.377   8.550
 4567POPC   C2B 5600  29.215   8.435   8.250
 4567POPC   C3B 5601  29.272   8.380   7.950
 4567POPC   C4B 5602  29.264   8.452   7.650
 4568POPC   NC3 5603  15.925  34.582   9.450
 4568POPC   PO4 5604  15.978  34.607   9.150
 4568POPC   GL1 5605  15.991  34.533   8.850
 4568POPC   GL2 5606  16.039  34.681   8.850
 4568POPC   C1A 5607  15.935  34.597   8.550
 4568POPC   D2A 5608  15.917  34.537   8.250
 4568POPC   C3A 5609  15.930  34.612   7.950
 4568POPC   C4A 5610  15.934  34.593   7.650
 4568POPC   C1B 5611  16.095  34.763   8.550
 4568POPC   C2B 5612  16.063  34.798   8.250
 4568POPC   C3B 5613  16.081  34.780   7.950
 4568POPC   C4B 5614  16.098  34.731   7.650
 4569POPC   NC3 5615  24.443  44.643   9.450
 4569POPC   PO4 5616  24.535  44.642   9.150
 4569POPC   GL1 5617  24.500  44.711   8.850
 4569POPC   GL2 5618  24.320  44.639   8.850
 4569POPC   C1A 5619  24.501  44.693   8.550
 4569POPC   D2A 5620  24.508  44.616   8.250
 4569POPC   C3A 5621  24.514  44.659   7.950
 4569POPC   C4A 5622  24.505  44.663   7.650
 4569POPC   C1B 5623  24.199  44.621   8.550
 4569POPC   C2B 5624  24.191  44.665   8.250
 4569POPC   C3B 5625  24.271  44.699   7.950
 4569POPC   C4B 5626  24.257  44.627   7.650
 4570POPC   NC3 5627  26.042   6.693   9.450
 4570POPC   PO4 5628  26.065   6.693   9.150
 4570POPC   GL1 5629  26.016   6.646   8.850
 4570POPC   GL2 5630  26.148   6.627   8.850
 4570POPC   C1A 5631  26.082   6.680   8.550
 4570POPC   D2A 5632  26.085   6.686   8.250
 4570POPC   C3A 5633  26.058   6.630   7.950
 4570POPC   C4A 5634  26.072   6.646   7.650
 4570POPC   C1B 5635  26.319   6.705   8.550
 4570POPC   C2B 5636  26.257   6.654   8.250
 4570POPC   C3B 5637  26.291   6.645   7.950
 4570POPC   C4B 5638  26.241   6.648   7.650
 4571POPC   NC3 5639  38.457   8.244   9.450
 4571POPC   PO4 5640  38.456   8.171   9.150
 4571POPC   GL1 5641  38.458   8.184   8.850
 4571POPC   GL2 5642  38.365   8.229   8.850
 4571POPC   C1A 5643  38.411   8.212   8.550
 4571POPC   D2A 5644  38.502   8.179   8.250
 4571POPC   C3A 5645  38.494   8.154   7.950
 4571POPC   C4A 5646  38.448   8.200   7.650
 4571POPC   C1B 5647  38.224   8.157   8.550
 4571POPC   C2B 5648  38.158   8.235   8.250
 4571POPC   C3B 5649  38.170   8.180   7.950
 4571POPC   C4B 5650  38.234   8.203   7.650
 4572POPC   NC3 5651  33.066  10.509   9.450
 4572POPC   PO4 5652  33.054  10.536   9.150
 4572POPC   GL1 5653  33.052  10.502   8.850
 4572POPC   GL2 5654  33.101  10.561   8.850
 4572POPC   C1A 5655  33.063  10.524   8.550
 4572POPC   D2A 5656  32.988  10.574   8.250
 4572POPC   C3A 5657  33.043  10.488   7.950
 4572POPC   C4A 5658  33.015  10.535   7.650
 4572POPC   C1B 5659  33.305  10.644   8.550
 4572POPC   C2B 5660  33.286  10.643   8.250
 4572POPC   C3B 5661  33.257  10.607   7.950
 4572POPC   C4B 5662  33.283  10.651   7.650
 4573POPC   NC3 5663  38.502  26.860   9.450
 4573POPC   PO4 5664  38.492  26.774   9.150
 4573POPC   GL1 5665  38.476  26.778   8.850
 4573POPC   GL2 5666  38.373  26.818   8.850
 4573POPC   C1A 5667  38.406  26.834   8.550
 4573POPC   D2A 5668  38.473  26.768   8.250
 4573POPC   C3A 5669  38.424  26.794   7.950
 4573POPC   C4A 5670  38.452  26.819   7.650
 4573POPC   C1B 5671  38.196  26.850   8.550
 4573POPC   C2B 5672  38.181  26.893   8.250
 4573POPC   C3B 5673  38.176  26.908   7.950
 4573POPC   C4B 5674  38.218  26.913   7.650
 4574POPC   NC3 5675  42.369  35.313   9.450
 4574POPC   PO4 5676  42.369  35.359   9.150
 4574POPC   GL1 5677  42.382  35.391   8.850
 4574POPC   GL2 5678  42.317  35.287   8.850
 4574POPC   C1A 5679  42.335  35.363   8.550
 4574POPC   D2A 5680  42.313  35.342   8.250
 4574POPC   C3A 5681  42.366  35.336   7.950
 4574POPC   C4A 5682  42.298  35.351   7.650
 4574POPC   C1B 5683  42.189  35.106   8.550
 4574POPC   C2B 5684  42.272  35.147   8.250
 4574POPC   C3B 5685  42.233  35.147   7.950
 4574POPC   C4B 5686  42.190  35.152   7.650
 4575POPC   NC3 5687  10.563  30.744   9.450
 4575POPC   PO4 5688  10.485  30.696   9.150
 4575POPC   GL1 5689  10.487  30.698   8.850
 4575POPC   GL2 5690  10.626  30.772   8.850
 4575POPC   C1A 5691  10.490  30.706   8.550
 4575POPC   D2A 5692  10.518  30.664   8.250
 4575POPC   C3A 5693  10.480  30.724   7.950
 4575POPC   C4A 5694  10.488  30.686   7.650
 4575POPC   C1B 5695  10.682  30.908   8.550
 4575POPC   C2B 5696  10.651  30.881   8.250
 4575POPC   C3B 5697  10.677  30.919   7.950
 4575POPC   C4B 5698  10.641  30.877   7.650
 4576POPC   NC3 5699  43.885  38.488   9.450
 4576POPC   PO4 5700  43.903  38.410   9.150
 4576POPC   GL1 5701  43.862  38.472   8.850
 4576POPC   GL2 5702  44.042  38.512   8.850
 4576POPC   C1A 5703  43.900  38.407   8.550
 4576POPC   D2A 5704  43.868  38.412   8.250
 4576POPC   C3A 5705  43.839  38.473   7.950
 4576POPC   C4A 5706  43.891  38.483   7.650
 4576POPC   C1B 5707  44.115  38.606   8.550
 4576POPC   C2B 5708  44.148  38.596   8.250
 4576POPC   C3B 5709  44.088  38.594   7.950
 4576POPC   C4B 5710  44.154  38.624   7.650
 4577POPC   NC3 5711  27.582  40.831   9.450
 4577POPC   PO4 5712  27.568  40.819   9.150
 4577POPC   GL1 5713  27.580  40.762   8.850
 4577POPC   GL2 5714  27.703  40.789   8.850
 4577POPC   C1A 5715  27.566  40.758   8.550
 4577POPC   D2A 5716  27.550  40.773   8.250
 4577POPC   C3A 5717  27.611  40.782   7.950
 4577POPC   C4A 5718  27.643  40.750   7.650
 4577POPC   C1B 5719  27.849  40.778   8.550
 4577POPC   C2B 5720  27.842  40.837   8.250
 4577POPC   C3B 5721  27.812  40.761   7.950
 4577POPC   C4B 5722  27.805  40.741   7.650
 4578POPC   NC3 5723   5.112  20.607   9.450
 4578POPC   PO4 5724   5.125  20.577   9.150
 4578POPC   GL1 5725   5.128  20.563   8.850
 4578POPC   GL2 5726   5.175  20.715   8.850
 4578POPC   C1A 5727   5.062  20.630   8.550
 4578POPC   D2A 5728   5.099  20.659   8.250
 4578POPC   C3A 5729   5.115  20.602   7.950
 4578POPC   C4A 5730   5.055  20.650   7.650
 4578POPC   C1B 5731   5.319  20.762   8.550
 4578POPC   C2B 5732   5.254  20.743   8.250
 4578POPC   C3B 5733   5.243  20.745   7.950
 4578POPC   C4B 5734   5.256  20.792   7.650
 4579POPC   NC3 5735  16.730  19.847   9.450
 4579POPC   PO4 5736  16.715  19.879   9.150
 4579POPC   GL1 5737  16.731  19.860   8.850
 4579POPC   GL2 5738  16.848  19.835   8.850
 4579POPC   C1A 5739  16.744  19.799   8.550
 4579POPC   D2A 5740  16.761  19.799   8.250
 4579POPC   C3A 5741  16.721  19.884   7.950
 4579POPC   C4A 5742  16.750  19.815   7.650
 4579POPC   C1B 5743  16.980  19.741   8.550
 4579POPC   C2B 5744  16.972  19.756   8.250
 4579POPC   C3B 5745  16.944  19.788   7.950
 4579POPC   C4B 5746  16.986  19.808   7.650
 4580POPC   NC3 5747   6.693   7.469   9.450
 4580POPC   PO4 5748   6.635   7.445   9.150
 4580POPC   GL1 5749   6.638   7.423   8.850
 4580POPC   GL2 5750   6.677   7.586   8.850
 4580POPC   C1A 5751   6.627   7.379   8.550
 4580POPC   D2A 5752   6.685   7.380   8.250
 4580POPC   C3A 5753   6.620   7.456   7.950
 4580POPC   C4A 5754   6.681   7.454   7.650
 4580POPC   C1B 5755   6.605   7.644   8.550
 4580POPC   C2B 5756   6.617   7.703   8.250
 4580POPC   C3B 5757   6.685   7.634   7.950
 4580POPC   C4B 5758   6.620   7.710   7.650
 4581POPC   NC3 5759  22.189   4.344   9.450
 4581POPC   PO4 5760  22.139   4.354   9.150
 4581POPC   GL1 5761  22.142   4.365   8.850
 4581POPC   GL2 5762  22.252   4.318   8.850
 4581POPC   C1A 5763  22.112   4.297   8.550
 4581POPC   D2A 5764  22.182   4.337   8.250
 4581POPC   C3A 5765  22.137   4.315   7.950
 4581POPC   C4A 5766  22.134   4.294   7.650
 4581POPC   C1B 5767  22.388   4.270   8.550
 4581POPC   C2B 5768  22.447   4.223   8.250
 4581POPC   C3B 5769  22.359   4.274   7.950
 4581POPC   C4B 5770  22.371   4.238   7.650
 4582POPC   NC3 5771  12.885  18.321   9.450
 4582POPC   PO4 5772  12.854  18.251   9.150
 4582POPC   GL1 5773  12.885  18.278   8.850
 4582POPC   GL2 5774  12.856  18.164   8.850
 4582POPC   C1A 5775  12.864  18.329   8.550
 4582POPC   D2A 5776  12.862  18.258   8.250
 4582POPC   C3A 5777  12.879  18.259   7.950
 4582POPC   C4A 5778  12.827  18.316   7.650
 4582POPC   C1B 5779  12.898  18.008   8.550
 4582POPC   C2B 5780  12.874  17.995   8.250
 4582POPC   C3B 5781  12.931  18.090   7.950
 4582POPC   C4B 5782  12.864  18.007   7.650
 4583POPC   NC3 5783  16.694  43.932   9.450
 4583POPC   PO4 5784  16.740  43.870   9.150
 4583POPC   GL1 5785  16.727  43.869   8.850
 4583POPC   GL2 5786  16.583  43.823   8.850
 4583POPC   C1A 5787  16.718  43.919   8.550
 4583POPC   D2A 5788  16.751  43.896   8.250
 4583POPC   C3A 5789  16.702  43.913   7.950
 4583POPC   C4A 5790  16.774  43.895   7.650
 4583POPC   C1B 5791  16.492  43.883   8.550
 4583POPC   C2B 5792  16.489  43.828   8.250
 4583POPC   C3B 5793  16.517  43.896   7.950
 4583POPC   C4B 5794  16.523  43.850   7.650
 4584POPC   NC3 5795   5.083  11.317   9.450
 4584POPC   PO4 5796   5.098  11.282   9.150
 4584POPC   GL1 5797   5.046  11.289   8.850
 4584POPC   GL2 5798   5.199  11.200   8.850
 4584POPC   C1A 5799   5.067  11.251   8.550
 4584POPC   D2A 5800   5.141  11.284   8.250
 4584POPC   C3A 5801   5.141  11.256   7.950
 4584POPC   C4A 5802   5.056  11.346   7.650
 4584POPC   C1B 5803   5.289  11.112   8.550
 4584POPC   C2B 5804   5.286  11.055   8.250
 4584POPC   C3B 5805   5.206  11.140   7.950
 4584POPC   C4B 5806   5.252  11.134   7.650
 4585POPC   NC3 5807  44.683  18.274   9.450
 4585POPC   PO4 5808  44.669  18.318   9.150
 4585POPC   GL1 5809  44.686  18.260   8.850
 4585POPC   GL2 5810  44.537  18.173   8.850
 4585POPC   C1A 5811  44.671  18.320   8.550
 4585POPC   D2A 5812  44.655  18.301   8.250
 4585POPC   C3A 5813  44.620  18.328   7.950
 4585POPC   C4A 5814  44.686  18.302   7.650
 4585POPC   C1B 5815  44.453  18.095   8.550
 4585POPC   C2B 5816  44.495  18.066   8.250
 4585POPC   C3B 5817  44.476  18.071   7.950
 4585POPC   C4B 5818  44.471  18.110   7.650
 4586POPC   NC3 5819  44.647  26.804   9.450
 4586POPC   PO4 5820  44.681  26.797   9.150
 4586POPC   GL1 5821  44.645  26.818   8.850
 4586POPC   GL2 5822  44.613  26.896   8.850
 4586POPC   C1A 5823  44.634  26.812   8.550
 4586POPC   D2A 5824  44.707  26.771   8.250
 4586POPC   C3A 5825  44.650  26.850   7.950
 4586POPC   C4A 5826  44.652  26.789   7.650
 4586POPC   C1B 5827  44.563  27.042   8.550
 4586POPC   C2B 5828  44.544  27.066   8.250
 4586POPC   C3B 5829  44.471  27.011   7.950
 4586POPC   C4B 5830  44.474  27.063   7.650
 4587POPC   NC3 5831  25.218   7.376   9.450
 4587POPC   PO4 5832  25.291   7.445   9.150
 4587POPC   GL1 5833  25.247   7.459   8.850
 4587POPC   GL2 5834  25.225   7.593   8.850
 4587POPC   C1A 5835  25.263   7.383   8.550
 4587POPC   D2A 5836  25.246   7.374   8.250
 4587POPC   C3A 5837  25.229   7.378   7.950
 4587POPC   C4A 5838  25.261   7.449   7.650
 4587POPC   C1B 5839  25.269   7.685   8.550
 4587POPC   C2B 5840  25.242   7.635   8.250
 4587POPC   C3B 5841  25.222   7.694   7.950
 4587POPC   C4B 5842  25.243   7.710   7.650
 4588POPC   NC3 5843  23.683  12.060   9.450
 4588POPC   PO4 5844  23.703  12.028   9.150
 4588POPC   GL1 5845  23.742  12.108   8.850
 4588POPC   GL2 5846  23.764  12.216   8.850
 4588POPC   C1A 5847  23.670  12.055   8.550
 4588POPC   D2A 5848  23.674  12.069   8.250
 4588POPC   C3A 5849  23.738  12.058   7.950
 4588POPC   C4A 5850  23.740  12.073   7.650
 4588POPC   C1B 5851  23.768  12.269   8.550
 4588POPC   C2B 5852  23.843  12.271   8.250
 4588POPC   C3B 5853  23.807  12.302   7.950
 4588POPC   C4B 5854  23.808  12.283   7.650
 4589POPC   NC3 5855   8.990   4.325   9.450
 4589POPC   PO4 5856   9.010   4.348   9.150
 4589POPC   GL1 5857   8.925   4.304   8.850
 4589POPC   GL2 5858   9.067   4.273   8.850
 4589POPC   C1A 5859   8.965   4.344   8.550
 4589POPC   D2A 5860   8.930   4.330   8.250
 4589POPC   C3A 5861   9.009   4.309   7.950
 4589POPC   C4A 5862   8.975   4.311   7.650
 4589POPC   C1B 5863   9.224   4.211   8.550
 4589POPC   C2B 5864   9.176   4.296   8.250
 4589POPC   C3B 5865   9.203   4.263   7.950
 4589POPC   C4B 5866   9.176   4.271   7.650
 4590POPC   NC3 5867  31.450  40.023   9.450
 4590POPC   PO4 5868  31.468  40.009   9.150
 4590POPC   GL1 5869  31.459  39.973   8.850
 4590POPC   GL2 5870  31.311  39.983   8.850
 4590POPC   C1A 5871  31.521  40.008   8.550
 4590POPC   D2A 5872  31.520  40.025   8.250
 4590POPC   C3A 5873  31.438  39.960   7.950
 4590POPC   C4A 5874  31.478  40.007   7.650
 4590POPC   C1B 5875  31.271  40.050   8.550
 4590POPC   C2B 5876  31.264  40.023   8.250
 4590POPC   C3B 5877  31.219  39.994   7.950
 4590POPC   C4B 5878  31.217  40.037   7.650
 4591POPC   NC3 5879  43.099  14.415   9.450
 4591POPC   PO4 5880  43.151  14.436   9.150
 4591POPC   GL1 5881  43.064  14.452   8.850
 4591POPC   GL2 5882  43.015  14.475   8.850
 4591POPC   C1A 5883  43.115  14.444   8.550
 4591POPC   D2A 5884  43.085  14.378   8.250
 4591POPC   C3A 5885  43.070  14.444   7.950
 4591POPC   C4A 5886  43.081  14.355   7.650
 4591POPC   C1B 5887  42.876  14.498   8.550
 4591POPC   C2B 5888  42.856  14.455   8.250
 4591POPC   C3B 5889  42.909  14.431   7.950
 4591POPC   C4B 5890  42.855  14.433   7.650
 4592POPC   NC3 5891  31.501   9.721   9.450
 4592POPC   PO4 5892  31.458   9.796   9.150
 4592POPC   GL1 5893  31.495   9.757   8.850
 4592POPC   GL2 5894  31.633   9.728   8.850
 4592POPC   C1A 5895  31.447   9.722   8.550
 4592POPC   D2A 5896  31.506   9.730   8.250
 4592POPC   C3A 5897  31.479   9.764   7.950
 4592POPC   C4A 5898  31.467   9.785   7.650
 4592POPC   C1B 5899  31.686   9.814   8.550
 4592POPC   C2B 5900  31.682   9.818   8.250
 4592POPC   C3B 5901  31.728   9.771   7.950
 4592POPC   C4B 5902  31.697   9.789   7.650
 4593POPC   NC3 5903  31.475   6.645   9.450
 4593POPC   PO4 5904  31.480   6.600   9.150
 4593POPC   GL1 5905  31.481   6.688   8.850
 4593POPC   GL2 5906  31.354   6.564   8.850
 4593POPC   C1A 5907  31.451   6.684   8.550
 4593POPC   D2A 5908  31.503   6.621   8.250
 4593POPC   C3A 5909  31.468   6.629   7.950
 4593POPC   C4A 5910  31.464   6.637   7.650
 4593POPC   C1B 5911  31.193   6.541   8.550
 4593POPC   C2B 5912  31.260   6.591   8.250
 4593POPC   C3B 5913  31.284   6.602   7.950
 4593POPC   C4B 5914  31.270   6.590   7.650
 4594POPC   NC3 5915  33.795  26.048   9.450
 4594POPC   PO4 5916  33.815  26.063   9.150
 4594POPC   GL1 5917  33.833  26.024   8.850
 4594POPC   GL2 5918  33.710  26.179   8.850
 4594POPC   C1A 5919  33.787  26.056   8.550
 4594POPC   D2A 5920  33.762  26.056   8.250
 4594POPC   C3A 5921  33.818  26.027   7.950
 4594POPC   C4A 5922  33.770  26.064   7.650
 4594POPC   C1B 5923  33.670  26.290   8.550
 4594POPC   C2B 5924  33.653  26.200   8.250
 4594POPC   C3B 5925  33.664  26.249   7.950
 4594POPC   C4B 5926  33.608  26.254   7.650
 4595POPC   NC3 5927  12.830  35.322   9.450
 4595POPC   PO4 5928  12.844  35.391   9.150
 4595POPC   GL1 5929  12.851  35.327   8.850
 4595POPC   GL2 5930  12.893  35.509   8.850
 4595POPC   C1A 5931  12.883  35.396   8.550
 4595POPC   D2A 5932  12.810  35.308   8.250
 4595POPC   C3A 5933  12.806  35.331   7.950
 4595POPC   C4A 5934  12.850  35.399   7.650
 4595POPC   C1B 5935  12.868  35.590   8.550
 4595POPC   C2B 5936  12.925  35.552   8.250
 4595POPC   C3B 5937  12.922  35.619   7.950
 4595POPC   C4B 5938  12.886  35.636   7.650
 4596POPC   NC3 5939  17.537  15.908   9.450
 4596POPC   PO4 5940  17.470  15.992   9.150
 4596POPC   GL1 5941  17.511  15.955   8.850
 4596POPC   GL2 5942  17.376  15.982   8.850
 4596POPC   C1A 5943  17.505  15.998   8.550
 4596POPC   D2A 5944  17.546  16.000   8.250
 4596POPC   C3A 5945  17.470  15.955   7.950
 4596POPC   C4A 5946  17.481  15.952   7.650
 4596POPC   C1B 5947  17.224  16.051   8.550
 4596POPC   C2B 5948  17.223  15.986   8.250
 4596POPC   C3B 5949  17.308  16.073   7.950
 4596POPC   C4B 5950  17.235  16.005   7.650
 4597POPC   NC3 5951   7.414  36.133   9.450
 4597POPC   PO4 5952   7.390  36.145   9.150
 4597POPC   GL1 5953   7.392  36.144   8.850
 4597POPC   GL2 5954   7.432  36.216   8.850
 4597POPC   C1A 5955   7.452  36.129   8.550
 4597POPC   D2A 5956   7.383  36.141   8.250
 4597POPC   C3A 5957   7.455  36.114   7.950
 4597POPC   C4A 5958   7.396  36.124   7.650
 4597POPC   C1B 5959   7.488  36.357   8.550
 4597POPC   C2B 5960   7.429  36.354   8.250
 4597POPC   C3B 5961   7.486  36.340   7.950
 4597POPC   C4B 5962   7.505  36.420   7.650
 4598POPC   NC3 5963  43.851  22.179   9.450
 4598POPC   PO4 5964  43.874  22.131   9.150
 4598POPC   GL1 5965  43.843  22.114   8.850
 4598POPC   GL2 5966  43.923  22.246   8.850
 4598POPC   C1A 5967  43.852  22.168   8.550
 4598POPC   D2A 5968  43.876  22.170   8.250
 4598POPC   C3A 5969  43.925  22.121   7.950
 4598POPC   C4A 5970  43.837  22.143   7.650
 4598POPC   C1B 5971  43.949  22.385   8.550
 4598POPC   C2B 5972  43.999  22.421   8.250
 4598POPC   C3B 5973  44.017  22.391   7.950
 4598POPC   C4B 5974  43.955  22.438   7.650
 4599POPC   NC3 5975  22.910  34.621   9.450
 4599POPC   PO4 5976  22.961  34.624   9.150
 4599POPC   GL1 5977  22.900  34.530   8.850
 4599POPC   GL2 5978  22.860  34.688   8.850
 4599POPC   C1A 5979  22.923  34.553   8.550
 4599POPC   D2A 5980  22.890  34.534   8.250
 4599POPC   C3A 5981  22.948  34.625   7.950
 4599POPC   C4A 5982  22.985  34.533   7.650
 4599POPC   C1B 5983  22.752  34.751   8.550
 4599POPC   C2B 5984  22.719  34.706   8.250
 4599POPC   C3B 5985  22.738  34.781   7.950
 4599POPC   C4B 5986  22.749  34.731   7.650
 4600POPC   NC3 5987  35.364  34.574   9.450
 4600POPC   PO4 5988  35.338  34.550   9.150
 4600POPC   GL1 5989  35.304  34.566   8.850
 4600POPC   GL2 5990  35.223  34.644   8.850
 4600POPC   C1A 5991  35.332  34.604   8.550
 4600POPC   D2A 5992  35.398  34.534   8.250
 4600POPC   C3A 5993  35.339  34.600   7.950
 4600POPC   C4A 5994  35.367  34.600   7.650
 4600POPC   C1B 5995  35.189  34.767   8.550
 4600POPC   C2B 5996  35.136  34.810   8.250
 4600POPC   C3B 5997  35.185  34.754   7.950
 4600POPC   C4B 5998  35.135  34.767   7.650
 4601POPC   NC3 5999  26.785  26.864   9.450
 4601POPC   PO4 6000  26.801  26.821   9.150
 4601POPC   GL1 6001  26.825  26.790   8.850
 4601POPC   GL2 6002  26.971  26.753   8.850
 4601POPC   C1A 6003  26.863  26.816   8.550
 4601POPC   D2A 6004  26.813  26.826   8.250
 4601POPC   C3A 6005  26.820  26.799   7.950
 4601POPC   C4A 6006  26.795  26.782   7.650
 4601POPC   C1B 6007  27.025  26.727   8.550
 4601POPC   C2B 6008  26.986  26.667   8.250
 4601POPC   C3B 6009  27.023  26.665   7.950
 4601POPC   C4B 6010  27.016  26.698   7.650
 4602POPC   NC3 6011  15.206  33.755   9.450
 4602POPC   PO4 6012  15.221  33.764   9.150
 4602POPC   GL1 6013  15.215  33.821   8.850
 4602POPC   GL2 6014  15.059  33.911   8.850
 4602POPC   C1A 6015  15.213  33.772   8.550
 4602POPC   D2A 6016  15.194  33.805   8.250
 4602POPC   C3A 6017  15.222  33.759   7.950
 4602POPC   C4A 6018  15.149  33.806   7.650
 4602POPC   C1B 6019  15.039  33.948   8.550
 4602POPC   C2B 6020  14.981  34.029   8.250
 4602POPC   C3B 6021  15.032  33.961   7.950
 4602POPC   C4B 6022  15.025  34.029   7.650
 4603POPC   NC3 6023  31.476  12.077   9.450
 4603POPC   PO4 6024  31.465  12.091   9.150
 4603POPC   GL1 6025  31.450  12.086   8.850
 4603POPC   GL2 6026  31.465  12.219   8.850
 4603POPC   C1A 6027  31.499  12.066   8.550
 4603POPC   D2A 6028  31.475  12.123   8.250
 4603POPC   C3A 6029  31.514  12.123   7.950
 4603POPC   C4A 6030  31.460  12.033   7.650
 4603POPC   C1B 6031  31.461  12.357   8.550
 4603POPC   C2B 6032  31.389  12.300   8.250
 4603POPC   C3B 6033  31.370  12.330   7.950
 4603POPC   C4B 6034  31.459  12.345   7.650
 4604POPC   NC3 6035  32.224  31.503   9.450
 4604POPC   PO4 6036  32.246  31.466   9.150
 4604POPC   GL1 6037  32.209  31.503   8.850
 4604POPC   GL2 6038  32.338  31.537   8.850
 4604POPC   C1A 6039  32.204  31.480   8.550
 4604POPC   D2A 6040  32.225  31.454   8.250
 4604POPC   C3A 6041  32.264  31.453   7.950
 4604POPC   C4A 6042  32.216  31.438   7.650
 4604POPC   C1B 6043  32.410  31.650   8.550
 4604POPC   C2B 6044  32.490  31.608   8.250
 4604POPC   C3B 6045  32.489  31.657   7.950
 4604POPC   C4B 6046  32.475  31.600   7.650
 4605POPC   NC3 6047   2.730  19.083   9.450
 4605POPC   PO4 6048   2.738  19.034   9.150
 4605POPC   GL1 6049   2.798  19.091   8.850
 4605POPC   GL2 6050   2.675  19.111   8.850
 4605POPC   C1A 6051   2.752  19.069   8.550
 4605POPC   D2A 6052   2.717  19.014   8.250
 4605POPC   C3A 6053   2.773  19.048   7.950
 4605POPC   C4A 6054   2.738  19.105   7.650
 4605POPC   C1B 6055   2.610  19.203   8.550
 4605POPC   C2B 6056   2.546  19.266   8.250
 4605POPC   C3B 6057   2.618  19.255   7.950
 4605POPC   C4B 6058   2.559  19.237   7.650
 4606POPC   NC3 6059  23.678  21.407   9.450
 4606POPC   PO4 6060  23.748  21.432   9.150
 4606POPC   GL1 6061  23.708  21.415   8.850
 4606POPC   GL2 6062  23.683  21.541   8.850
 4606POPC   C1A 6063  23.692  21.384   8.550
 4606POPC   D2A 6064  23.730  21.421   8.250
 4606POPC   C3A 6065  23.689  21.412   7.950
 4606POPC   C4A 6066  23.746  21.435   7.650
 4606POPC   C1B 6067  23.652  21.649   8.550
 4606POPC   C2B 6068  23.658  21.602   8.250
 4606POPC   C3B 6069  23.725  21.670   7.950
 4606POPC   C4B 6070  23.695  21.666   7.650
 4607POPC   NC3 6071  44.675  41.565   9.450
 4607POPC   PO4 6072  44.630  41.597   9.150
 4607POPC   GL1 6073  44.698  41.576   8.850
 4607POPC   GL2 6074  44.674  41.437   8.850
 4607POPC   C1A 6075  44.638  41.526   8.550
 4607POPC   D2A 6076  44.686  41.531   8.250
 4607POPC   C3A 6077  44.664  41.581   7.950
 4607POPC   C4A 6078  44.641  41.587   7.650
 4607POPC   C1B 6079  44.597  41.305   8.550
 4607POPC   C2B 6080  44.654  41.325   8.250
 4607POPC   C3B 6081  44.661  41.358   7.950
 4607POPC   C4B 6082  44.645  41.284   7.650
 4608POPC   NC3 6083  26.012  23.706   9.450
 4608POPC   PO4 6084  26.035  23.668   9.150
 4608POPC   GL1 6085  26.027  23.755   8.850
 4608POPC   GL2 6086  25.941  23.723   8.850
 4608POPC   C1A 6087  26.044  23.735   8.550
 4608POPC   D2A 6088  26.090  23.664   8.250
 4608POPC   C3A 6089  26.065  23.756   7.950
 4608POPC   C4A 6090  26.082  23.703   7.650
 4608POPC   C1B 6091  25.744  23.701   8.550
 4608POPC   C2B 6092  25.770  23.682   8.250
 4608POPC   C3B 6093  25.804  23.725   7.950
 4608POPC   C4B 6094  25.788  23.725   7.650
 4609POPC   NC3 6095  19.057  26.044   9.450
 4609POPC   PO4 6096  19.077  26.062   9.150
 4609POPC   GL1 6097  19.064  26.042   8.850
 4609POPC   GL2 6098  19.129  25.959   8.850
 4609POPC   C1A 6099  19.030  26.004   8.550
 4609POPC   D2A 6100  19.016  26.046   8.250
 4609POPC   C3A 6101  19.073  26.052   7.950
 4609POPC   C4A 6102  19.060  25.994   7.650
 4609POPC   C1B 6103  19.274  25.843   8.550
 4609POPC   C2B 6104  19.269  25.915   8.250
 4609POPC   C3B 6105  19.205  25.839   7.950
 4609POPC   C4B 6106  19.265  25.896   7.650
 4610POPC   NC3 6107   9.711  23.743   9.450
 4610POPC   PO4 6108   9.739  23.706   9.150
 4610POPC   GL1 6109   9.714  23.673   8.850
 4610POPC   GL2 6110   9.594  23.801   8.850
 4610POPC   C1A 6111   9.710  23.743   8.550
 4610POPC   D2A 6112   9.788  23.669   8.250
 4610POPC   C3A 6113   9.737  23.690   7.950
 4610POPC   C4A 6114   9.777  23.674   7.650
 4610POPC   C1B 6115   9.509  23.830   8.550
 4610POPC   C2B 6116   9.562  23.864   8.250
 4610POPC   C3B 6117   9.501  23.821   7.950
 4610POPC   C4B 6118   9.562  23.798   7.650
 4611POPC   NC3 6119  40.826  23.731   9.450
 4611POPC   PO4 6120  40.775  23.724   9.150
 4611POPC   GL1 6121  40.756  23.665   8.850
 4611POPC   GL2 6122  40.851  23.779   8.850
 4611POPC   C1A 6123  40.737  23.717   8.550
 4611POPC   D2A 6124  40.784  23.719   8.250
 4611POPC   C3A 6125  40.758  23.722   7.950
 4611POPC   C4A 6126  40.741  23.722   7.650
 4611POPC   C1B 6127  40.863  23.895   8.550
 4611POPC   C2B 6128  40.893  23.944   8.250
 4611POPC   C3B 6129  40.885  23.933   7.950
 4611POPC   C4B 6130  40.924  23.982   7.650
 4612POPC   NC3 6131  32.264  29.948   9.450
 4612POPC   PO4 6132  32.214  29.903   9.150
 4612POPC   GL1 6133  32.211  29.871   8.850
 4612POPC   GL2 6134  32.189  30.011   8.850
 4612POPC   C1A 6135  32.284  29.939   8.550
 4612POPC   D2A 6136  32.276  29.929   8.250
 4612POPC   C3A 6137  32.240  29.890   7.950
 4612POPC   C4A 6138  32.238  29.963   7.650
 4612POPC   C1B 6139  32.126  30.090   8.550
 4612POPC   C2B 6140  32.086  30.093   8.250
 4612POPC   C3B 6141  32.053  30.110   7.950
 4612POPC   C4B 6142  32.118  30.129   7.650
 4613POPC   NC3 6143   5.128  17.547   9.450
 4613POPC   PO4 6144   5.061  17.552   9.150
 4613POPC   GL1 6145   5.111  17.457   8.850
 4613POPC   GL2 6146   4.984  17.595   8.850
 4613POPC   C1A 6147   5.076  17.477   8.550
 4613POPC   D2A 6148   5.110  17.505   8.250
 4613POPC   C3A 6149   5.139  17.460   7.950
 4613POPC   C4A 6150   5.045  17.532   7.650
 4613POPC   C1B 6151   4.923  17.661   8.550
 4613POPC   C2B 6152   4.928  17.649   8.250
 4613POPC   C3B 6153   4.922  17.638   7.950
 4613POPC   C4B 6154   4.943  17.672   7.650
 4614POPC   NC3 6155  40.022  26.089   9.450
 4614POPC   PO4 6156  40.007  26.055   9.150
 4614POPC   GL1 6157  39.980  26.042   8.850
 4614POPC   GL2 6158  40.103  26.084   8.850
 4614POPC   C1A 6159  39.972  26.009   8.550
 4614POPC   D2A 6160  40.020  26.031   8.250
 4614POPC   C3A 6161  39.969  26.000   7.950
 4614POPC   C4A 6162  39.969  26.041   7.650
 4614POPC   C1B 6163  40.289  26.089   8.550
 4614POPC   C2B 6164  40.217  26.078   8.250
 4614POPC   C3B 6165  40.274  26.012   7.950
 4614POPC   C4B 6166  40.215  26.007   7.650
 4615POPC   NC3 6167  12.811  41.554   9.450
 4615POPC   PO4 6168  12.857  41.575   9.150
 4615POPC   GL1 6169  12.888  41.596   8.850
 4615POPC   GL2 6170  12.760  41.534   8.850
 4615POPC   C1A 6171  12.810  41.525   8.550
 4615POPC   D2A 6172  12.857  41.595   8.250
 4615POPC   C3A 6173  12.890  41.516   7.950
 4615POPC   C4A 6174  12.894  41.602   7.650
 4615POPC   C1B 6175  12.559  41.590   8.550
 4615POPC   C2B 6176  12.622  41.575   8.250
 4615POPC   C3B 6177  12.564  41.616   7.950
 4615POPC   C4B 6178  12.582  41.577   7.650
 4616POPC   NC3 6179   3.532  17.535   9.450
 4616POPC   PO4 6180   3.591  17.556   9.150
 4616POPC   GL1 6181   3.543  17.526   8.850
 4616POPC   GL2 6182   3.536  17.628   8.850
 4616POPC   C1A 6183   3.553  17.546   8.550
 4616POPC   D2A 6184   3.525  17.555   8.250
 4616POPC   C3A 6185   3.579  17.507   7.950
 4616POPC   C4A 6186   3.499  17.488   7.650
 4616POPC   C1B 6187   3.519  17.736   8.550
 4616POPC   C2B 6188   3.536  17.716   8.250
 4616POPC   C3B 6189   3.482  17.771   7.950
 4616POPC   C4B 6190   3.520  17.792   7.650
 4617POPC   NC3 6191  29.166  33.015   9.450
 4617POPC   PO4 6192  29.143  33.043   9.150
 4617POPC   GL1 6193  29.106  32.989   8.850
 4617POPC   GL2 6194  29.278  33.045   8.850
 4617POPC   C1A 6195  29.176  33.069   8.550
 4617POPC   D2A 6196  29.101  32.979   8.250
 4617POPC   C3A 6197  29.121  32.989   7.950
 4617POPC   C4A 6198  29.122  33.042   7.650
 4617POPC   C1B 6199  29.439  32.947   8.550
 4617POPC   C2B 6200  29.426  33.014   8.250
 4617POPC   C3B 6201  29.438  32.993   7.950
 4617POPC   C4B 6202  29.343  32.949   7.650
 4618POPC   NC3 6203  24.440  15.181   9.450
 4618POPC   PO4 6204  24.451  15.216   9.150
 4618POPC   GL1 6205  24.455  15.148   8.850
 4618POPC   GL2 6206  24.422  15.036   8.850
 4618POPC   C1A 6207  24.488  15.221   8.550
 4618POPC   D2A 6208  24.467  15.172   8.250
 4618POPC   C3A 6209  24.531  15.228   7.950
 4618POPC   C4A 6210  24.535  15.156   7.650
 4618POPC   C1B 6211  24.357  15.009   8.550
 4618POPC   C2B 6212  24.357  14.968   8.250
 4618POPC   C3B 6213  24.346  14.950   7.950
 4618POPC   C4B 6214  24.371  14.954   7.650
 4619POPC   NC3 6215  10.567  29.155   9.450
 4619POPC   PO4 6216  10.498  29.148   9.150
 4619POPC   GL1 6217  10.513  29.116   8.850
 4619POPC   GL2 6218  10.410  29.149   8.850
 4619POPC   C1A 6219  10.526  29.095   8.550
 4619POPC   D2A 6220  10.563  29.118   8.250
 4619POPC   C3A 6221  10.545  29.156   7.950
 4619POPC   C4A 6222  10.554  29.137   7.650
 4619POPC   C1B 6223  10.256  29.108   8.550
 4619POPC   C2B 6224  10.304  29.149   8.250
 4619POPC   C3B 6225  10.302  29.108   7.950
 4619POPC   C4B 6226  10.265  29.121   7.650
 4620POPC   NC3 6227  22.952  21.434   9.450
 4620POPC   PO4 6228  22.930  21.433   9.150
 4620POPC   GL1 6229  22.901  21.382   8.850
 4620POPC   GL2 6230  22.963  21.491   8.850
 4620POPC   C1A 6231  22.924  21.426   8.550
 4620POPC   D2A 6232  22.957  21.391   8.250
 4620POPC   C3A 6233  22.917  21.388   7.950
 4620POPC   C4A 6234  22.910  21.380   7.650
 4620POPC   C1B 6235  23.069  21.619   8.550
 4620POPC   C2B 6236  23.046  21.601   8.250
 4620POPC   C3B 6237  23.004  21.602   7.950
 4620POPC   C4B 6238  23.009  21.660   7.650
 4621POPC   NC3 6239   8.207  29.123   9.450
 4621POPC   PO4 6240   8.190  29.177   9.150
 4621POPC   GL1 6241   8.193  29.119   8.850
 4621POPC   GL2 6242   8.235  29.030   8.850
 4621POPC   C1A 6243   8.232  29.099   8.550
 4621POPC   D2A 6244   8.190  29.183   8.250
 4621POPC   C3A 6245   8.175  29.126   7.950
 4621POPC   C4A 6246   8.229  29.183   7.650
 4621POPC   C1B 6247   8.268  28.920   8.550
 4621POPC   C2B 6248   8.308  28.894   8.250
 4621POPC   C3B 6249   8.300  28.940   7.950
 4621POPC   C4B 6250   8.309  28.944   7.650
 4622POPC   NC3 6251   6.643  27.611   9.450
 4622POPC   PO4 6252   6.634  27.608   9.150
 4622POPC   GL1 6253   6.654  27.582   8.850
 4622POPC   GL2 6254   6.604  27.485   8.850
 4622POPC   C1A 6255   6.651  27.593   8.550
 4622POPC   D2A 6256   6.674  27.559   8.250
 4622POPC   C3A 6257   6.642  27.599   7.950
 4622POPC   C4A 6258   6.679  27.583   7.650
 4622POPC   C1B 6259   6.437  27.384   8.550
 4622POPC   C2B 6260   6.482  27.459   8.250
 4622POPC   C3B 6261   6.442  27.433   7.950
 4622POPC   C4B 6262   6.479  27.468   7.650
 4623POPC   NC3 6263  22.119  44.682   9.450
 4623POPC   PO4 6264  22.123  44.656   9.150
 4623POPC   GL1 6265  22.142  44.682   8.850
 4623POPC   GL2 6266  22.194  44.524   8.850
 4623POPC   C1A 6267  22.206  44.708   8.550
 4623POPC   D2A 6268  22.137  44.650   8.250
 4623POPC   C3A 6269  22.189  44.657   7.950
 4623POPC   C4A 6270  22.205  44.642   7.650
 4623POPC   C1B 6271  22.314  44.494   8.550
 4623POPC   C2B 6272  22.288  44.451   8.250
 4623POPC   C3B 6273  22.296  44.488   7.950
 4623POPC   C4B 6274  22.323  44.425   7.650
 4624POPC   NC3 6275  39.193  42.353   9.450
 4624POPC   PO4 6276  39.215  42.332   9.150
 4624POPC   GL1 6277  39.242  42.368   8.850
 4624POPC   GL2 6278  39.313  42.318   8.850
 4624POPC   C1A 6279  39.235  42.363   8.550
 4624POPC   D2A 6280  39.209  42.312   8.250
 4624POPC   C3A 6281  39.246  42.380   7.950
 4624POPC   C4A 6282  39.220  42.297   7.650
 4624POPC   C1B 6283  39.509  42.311   8.550
 4624POPC   C2B 6284  39.477  42.278   8.250
 4624POPC   C3B 6285  39.501  42.343   7.950
 4624POPC   C4B 6286  39.507  42.323   7.650
 4625POPC   NC3 6287  25.265   9.737   9.450
 4625POPC   PO4 6288  25.289   9.766   9.150
 4625POPC   GL1 6289  25.245   9.767   8.850
 4625POPC   GL2 6290  25.288   9.846   8.850
 4625POPC   C1A 6291  25.236   9.782   8.550
 4625POPC   D2A 6292  25.305   9.767   8.250
 4625POPC   C3A 6293  25.312   9.788   7.950
 4625POPC   C4A 6294  25.261   9.770   7.650
 4625POPC   C1B 6295  25.251   9.960   8.550
 4625POPC   C2B 6296  25.196   9.951   8.250
 4625POPC   C3B 6297  25.227  10.030   7.950
 4625POPC   C4B 6298  25.262   9.993   7.650
 4626POPC   NC3 6299   3.543  44.653   9.450
 4626POPC   PO4 6300   3.505  44.619   9.150
 4626POPC   GL1 6301   3.583  44.663   8.850
 4626POPC   GL2 6302   3.489  44.569   8.850
 4626POPC   C1A 6303   3.565  44.664   8.550
 4626POPC   D2A 6304   3.583  44.657   8.250
 4626POPC   C3A 6305   3.549  44.630   7.950
 4626POPC   C4A 6306   3.542  44.619   7.650
 4626POPC   C1B 6307   3.579  44.436   8.550
 4626POPC   C2B 6308   3.532  44.392   8.250
 4626POPC   C3B 6309   3.547  44.441   7.950
 4626POPC   C4B 6310   3.532  44.380   7.650
 4627POPC   NC3 6311   8.953  39.990   9.450
 4627POPC   PO4 6312   8.930  40.022   9.150
 4627POPC   GL1 6313   8.976  40.006   8.850
 4627POPC   GL2 6314   8.975  40.089   8.850
 4627POPC   C1A 6315   8.963  40.005   8.550
 4627POPC   D2A 6316   8.949  39.981   8.250
 4627POPC   C3A 6317   8.967  40.041   7.950
 4627POPC   C4A 6318   8.962  39.980   7.650
 4627POPC   C1B 6319   9.047  40.238   8.550
 4627POPC   C2B 6320   9.007  40.267   8.250
 4627POPC   C3B 6321   9.042  40.226   7.950
 4627POPC   C4B 6322   9.069  40.297   7.650
 4628POPC   NC3 6323   2.746  44.642   9.450
 4628POPC   PO4 6324   2.722  44.698   9.150
 4628POPC   GL1 6325   2.793  44.673   8.850
 4628POPC   GL2 6326   2.632  44.570   8.850
 4628POPC   C1A 6327   2.775  44.705   8.550
 4628POPC   D2A 6328   2.756  44.636   8.250
 4628POPC   C3A 6329   2.755  44.645   7.950
 4628POPC   C4A 6330   2.716  44.677   7.650
 4628POPC   C1B 6331   2.556  44.451   8.550
 4628POPC   C2B 6332   2.560  44.524   8.250
 4628POPC   C3B 6333   2.548  44.455   7.950
 4628POPC   C4B 6334   2.549  44.511   7.650
 4629POPC   NC3 6335  28.378  12.115   9.450
 4629POPC   PO4 6336  28.354  12.088   9.150
 4629POPC   GL1 6337  28.397  12.065   8.850
 4629POPC   GL2 6338  28.363  12.208   8.850
 4629POPC   C1A 6339  28.338  12.113   8.550
 4629POPC   D2A 6340  28.399  12.059   8.250
 4629POPC   C3A 6341  28.389  12.124   7.950
 4629POPC   C4A 6342  28.324  12.117   7.650
 4629POPC   C1B 6343  28.378  12.342   8.550
 4629POPC   C2B 6344  28.351  12.308   8.250
 4629POPC   C3B 6345  28.421  12.331   7.950
 4629POPC   C4B 6346  28.363  12.284   7.650
 4630POPC   NC3 6347  43.080  39.976   9.450
 4630POPC   PO4 6348  43.133  39.961   9.150
 4630POPC   GL1 6349  43.072  40.014   8.850
 4630POPC   GL2 6350  42.983  39.969   8.850
 4630POPC   C1A 6351  43.158  40.052   8.550
 4630POPC   D2A 6352  43.160  39.977   8.250
 4630POPC   C3A 6353  43.151  39.959   7.950
 4630POPC   C4A 6354  43.147  39.981   7.650
 4630POPC   C1B 6355  42.851  39.919   8.550
 4630POPC   C2B 6356  42.892  39.868   8.250
 4630POPC   C3B 6357  42.906  39.857   7.950
 4630POPC   C4B 6358  42.861  39.948   7.650
 4631POPC   NC3 6359  23.760  41.563   9.450
 4631POPC   PO4 6360  23.698  41.590   9.150
 4631POPC   GL1 6361  23.758  41.523   8.850
 4631POPC   GL2 6362  23.596  41.487   8.850
 4631POPC   C1A 6363  23.689  41.603   8.550
 4631POPC   D2A 6364  23.689  41.584   8.250
 4631POPC   C3A 6365  23.710  41.536   7.950
 4631POPC   C4A 6366  23.688  41.587   7.650
 4631POPC   C1B 6367  23.553  41.330   8.550
 4631POPC   C2B 6368  23.547  41.328   8.250
 4631POPC   C3B 6369  23.539  41.391   7.950
 4631POPC   C4B 6370  23.552  41.373   7.650
 4632POPC   NC3 6371  20.563   0.414   9.450
 4632POPC   PO4 6372  20.585   0.455   9.150
 4632POPC   GL1 6373  20.597   0.479   8.850
 4632POPC   GL2 6374  20.594   0.349   8.850
 4632POPC   C1A 6375  20.573   0.458   8.550
 4632POPC   D2A 6376  20.616   0.416   8.250
 4632POPC   C3A 6377  20.589   0.401   7.950
 4632POPC   C4A 6378  20.649   0.461   7.650
 4632POPC   C1B 6379  20.708   0.182   8.550
 4632POPC   C2B 6380  20.649   0.226   8.250
 4632POPC   C3B 6381  20.613   0.240   7.950
 4632POPC   C4B 6382  20.669   0.223   7.650
 4633POPC   NC3 6383   8.159  34.559   9.450
 4633POPC   PO4 6384   8.157  34.563   9.150
 4633POPC   GL1 6385   8.200  34.594   8.850
 4633POPC   GL2 6386   8.074  34.461   8.850
 4633POPC   C1A 6387   8.162  34.573   8.550
 4633POPC   D2A 6388   8.222  34.561   8.250
 4633POPC   C3A 6389   8.228  34.576   7.950
 4633POPC   C4A 6390   8.235  34.599   7.650
 4633POPC   C1B 6391   8.019  34.444   8.550
 4633POPC   C2B 6392   8.056  34.399   8.250
 4633POPC   C3B 6393   8.026  34.416   7.950
 4633POPC   C4B 6394   7.986  34.445   7.650
 4634POPC   NC3 6395  23.690  34.532   9.450
 4634POPC   PO4 6396  23.752  34.554   9.150
 4634POPC   GL1 6397  23.697  34.535   8.850
 4634POPC   GL2 6398  23.721  34.746   8.850
 4634POPC   C1A 6399  23.721  34.592   8.550
 4634POPC   D2A 6400  23.739  34.570   8.250
 4634POPC   C3A 6401  23.750  34.586   7.950
 4634POPC   C4A 6402  23.667  34.555   7.650
 4634POPC   C1B 6403  23.725  34.871   8.550
 4634POPC   C2B 6404  23.670  34.777   8.250
 4634POPC   C3B 6405  23.698  34.872   7.950
 4634POPC   C4B 6406  23.699  34.866   7.650
 4635POPC   NC3 6407  25.289  20.570   9.450
 4635POPC   PO4 6408  25.262  20.584   9.150
 4635POPC   GL1 6409  25.237  20.564   8.850
 4635POPC   GL2 6410  25.401  20.542   8.850
 4635POPC   C1A 6411  25.315  20.581   8.550
 4635POPC   D2A 6412  25.248  20.597   8.250
 4635POPC   C3A 6413  25.231  20.644   7.950
 4635POPC   C4A 6414  25.219  20.606   7.650
 4635POPC   C1B 6415  25.438  20.476   8.550
 4635POPC   C2B 6416  25.531  20.483   8.250
 4635POPC   C3B 6417  25.525  20.463   7.950
 4635POPC   C4B 6418  25.534  20.483   7.650
 4636POPC   NC3 6419  13.657   8.246   9.450
 4636POPC   PO4 6420  13.605   8.157   9.150
 4636POPC   GL1 6421  13.627   8.179   8.850
 4636POPC   GL2 6422  13.490   8.234   8.850
 4636POPC   C1A 6423  13.664   8.184   8.550
 4636POPC   D2A 6424  13.582   8.153   8.250
 4636POPC   C3A 6425  13.594   8.167   7.950
 4636POPC   C4A 6426  13.583   8.231   7.650
 4636POPC   C1B 6427  13.393   8.309   8.550
 4636POPC   C2B 6428  13.452   8.274   8.250
 4636POPC   C3B 6429  13.440   8.329   7.950
 4636POPC   C4B 6430  13.387   8.287   7.650
 4637POPC   NC3 6431  18.235   1.985   9.450
 4637POPC   PO4 6432  18.309   1.991   9.150
 4637POPC   GL1 6433  18.312   1.985   8.850
 4637POPC   GL2 6434  18.163   2.055   8.850
 4637POPC   C1A 6435  18.256   1.962   8.550
 4637POPC   D2A 6436  18.234   1.964   8.250
 4637POPC   C3A 6437  18.264   2.013   7.950
 4637POPC   C4A 6438  18.332   1.955   7.650
 4637POPC   C1B 6439  18.028   2.098   8.550
 4637POPC   C2B 6440  18.119   2.087   8.250
 4637POPC   C3B 6441  18.065   2.147   7.950
 4637POPC   C4B 6442  18.029   2.095   7.650
 4638POPC   NC3 6443  19.837  34.585   9.450
 4638POPC   PO4 6444  19.820  34.566   9.150
 4638POPC   GL1 6445  19.809  34.545   8.850
 4638POPC   GL2 6446  19.734  34.509   8.850
 4638POPC   C1A 6447  19.817  34.574   8.550
 4638POPC   D2A 6448  19.795  34.539   8.250
 4638POPC   C3A 6449  19.876  34.602   7.950
 4638POPC   C4A 6450  19.828  34.612   7.650
 4638POPC   C1B 6451  19.618  34.373   8.550
 4638POPC   C2B 6452  19.632  34.367   8.250
 4638POPC   C3B 6453  19.658  34.379   7.950
 4638POPC   C4B 6454  19.651  34.379   7.650
 4639POPC   NC3 6455  29.876   9.789   9.450
 4639POPC   PO4 6456  29.896   9.708   9.150
 4639POPC   GL1 6457  29.941   9.710   8.850
 4639POPC   GL2 6458  29.949   9.837   8.850
 4639POPC   C1A 6459  29.875   9.742   8.550
 4639POPC   D2A 6460  29.908   9.771   8.250
 4639POPC   C3A 6461  29.910   9.790   7.950
 4639POPC   C4A 6462  29.932   9.746   7.650
 4639POPC   C1B 6463  30.001   9.991   8.550
 4639POPC   C2B 6464  30.015  10.017   8.250
 4639POPC   C3B 6465  30.020  10.022   7.950
 4639POPC   C4B 6466  30.004  10.003   7.650
 4640POPC   NC3 6467  40.040   8.207   9.450
 4640POPC   PO4 6468  40.032   8.233   9.150
 4640POPC   GL1 6469  39.968   8.245   8.850
 4640POPC   GL2 6470  39.892   8.268   8.850
 4640POPC   C1A 6471  40.013   8.202   8.550
 4640POPC   D2A 6472  39.970   8.220   8.250
 4640POPC   C3A 6473  40.001   8.202   7.950
 4640POPC   C4A 6474  40.003   8.244   7.650
 4640POPC   C1B 6475  39.800   8.243   8.550
 4640POPC   C2B 6476  39.741   8.314   8.250
 4640POPC   C3B 6477  39.778   8.267   7.950
 4640POPC   C4B 6478  39.808   8.241   7.650
 4641POPC   NC3 6479  15.211  17.466   9.450
 4641POPC   PO4 6480  15.226  17.482   9.150
 4641POPC   GL1 6481  15.166  17.517   8.850
 4641POPC   GL2 6482  15.263  17.603   8.850
 4641POPC   C1A 6483  15.226  17.557   8.550
 4641POPC   D2A 6484  15.187  17.509   8.250
 4641POPC   C3A 6485  15.198  17.518   7.950
 4641POPC   C4A 6486  15.176  17.542   7.650
 4641POPC   C1B 6487  15.240  17.709   8.550
 4641POPC   C2B 6488  15.236  17.719   8.250
 4641POPC   C3B 6489  15.199  17.770   7.950
 4641POPC   C4B 6490  15.275  17.711   7.650
 4642POPC   NC3 6491  40.021  12.080   9.450
 4642POPC   PO4 6492  40.005  12.038   9.150
 4642POPC   GL1 6493  39.962  12.108   8.850
 4642POPC   GL2 6494  39.901  11.947   8.850
 4642POPC   C1A 6495  40.037  12.126   8.550
 4642POPC   D2A 6496  39.994  12.072   8.250
 4642POPC   C3A 6497  40.023  12.105   7.950
 4642POPC   C4A 6498  40.019  12.096   7.650
 4642POPC   C1B 6499  39.880  11.899   8.550
 4642POPC   C2B 6500  39.890  11.840   8.250
 4642POPC   C3B 6501  39.877  11.822   7.950
 4642POPC   C4B 6502  39.863  11.903   7.650
 4643POPC   NC3 6503   4.297  30.692   9.450
 4643POPC   PO4 6504   4.354  30.746   9.150
 4643POPC   GL1 6505   4.322  30.654   8.850
 4643POPC   GL2 6506   4.162  30.683   8.850
 4643POPC   C1A 6507   4.364  30.684   8.550
 4643POPC   D2A 6508   4.313  30.651   8.250
 4643POPC   C3A 6509   4.303  30.656   7.950
 4643POPC   C4A 6510   4.360  30.734   7.650
 4643POPC   C1B 6511   4.120  30.572   8.550
 4643POPC   C2B 6512   4.074  30.594   8.250
 4643POPC   C3B 6513   4.076  30.612   7.950
 4643POPC   C4B 6514   4.106  30.637   7.650
 4644POPC   NC3 6515  20.600  40.026   9.450
 4644POPC   PO4 6516  20.640  40.006   9.150
 4644POPC   GL1 6517  20.586  40.050   8.850
 4644POPC   GL2 6518  20.526  40.031   8.850
 4644POPC   C1A 6519  20.655  40.055   8.550
 4644POPC   D2A 6520  20.561  40.027   8.250
 4644POPC   C3A 6521  20.565  39.995   7.950
 4644POPC   C4A 6522  20.631  39.995   7.650
 4644POPC   C1B 6523  20.322  40.038   8.550
 4644POPC   C2B 6524  20.378  40.018   8.250
 4644POPC   C3B 6525  20.350  40.030   7.950
 4644POPC   C4B 6526  20.363  40.056   7.650
 4645POPC   NC3 6527   8.187  44.700   9.450
 4645POPC   PO4 6528   8.166  44.679   9.150
 4645POPC   GL1 6529   8.185  44.696   8.850
 4645POPC   GL2 6530   8.220  44.516   8.850
 4645POPC   C1A 6531   8.194  44.637   8.550
 4645POPC   D2A 6532   8.232  44.682   8.250
 4645POPC   C3A 6533   8.170  44.635   7.950
 4645POPC   C4A 6534   8.189  44.638   7.650
 4645POPC   C1B 6535   8.331  44.454   8.550
 4645POPC   C2B 6536   8.345  44.396   8.250
 4645POPC   C3B 6537   8.275  44.409   7.950
 4645POPC   C4B 6538   8.297  44.432   7.650
 4646POPC   NC3 6539  22.925  33.790   9.450
 4646POPC   PO4 6540  22.949  33.833   9.150
 4646POPC   GL1 6541  22.970  33.772   8.850
 4646POPC   GL2 6542  22.966  33.927   8.850
 4646POPC   C1A 6543  22.972  33.757   8.550
 4646POPC   D2A 6544  22.922  33.810   8.250
 4646POPC   C3A 6545  22.949  33.789   7.950
 4646POPC   C4A 6546  22.936  33.757   7.650
 4646POPC   C1B 6547  23.104  34.054   8.550
 4646POPC   C2B 6548  23.054  33.971   8.250
 4646POPC   C3B 6549  23.008  34.064   7.950
 4646POPC   C4B 6550  23.065  33.988   7.650
 4647POPC   NC3 6551  12.045  22.967   9.450
 4647POPC   PO4 6552  12.116  22.969   9.150
 4647POPC   GL1 6553  12.094  22.980   8.850
 4647POPC   GL2 6554  12.165  22.952   8.850
 4647POPC   C1A 6555  12.060  22.967   8.550
 4647POPC   D2A 6556  12.077  22.899   8.250
 4647POPC   C3A 6557  12.064  22.896   7.950
 4647POPC   C4A 6558  12.092  22.980   7.650
 4647POPC   C1B 6559  12.342  23.049   8.550
 4647POPC   C2B 6560  12.354  23.083   8.250
 4647POPC   C3B 6561  12.335  23.071   7.950
 4647POPC   C4B 6562  12.292  23.021   7.650
 4648POPC   NC3 6563  42.354   6.652   9.450
 4648POPC   PO4 6564  42.373   6.664   9.150
 4648POPC   GL1 6565  42.355   6.686   8.850
 4648POPC   GL2 6566  42.430   6.623   8.850
 4648POPC   C1A 6567  42.304   6.683   8.550
 4648POPC   D2A 6568  42.375   6.613   8.250
 4648POPC   C3A 6569  42.343   6.667   7.950
 4648POPC   C4A 6570  42.289   6.678   7.650
 4648POPC   C1B 6571  42.592   6.652   8.550
 4648POPC   C2B 6572  42.561   6.643   8.250
 4648POPC   C3B 6573  42.561   6.678   7.950
 4648POPC   C4B 6574  42.557   6.613   7.650
 4649POPC   NC3 6575   7.464   1.990   9.450
 4649POPC   PO4 6576   7.468   1.974   9.150
 4649POPC   GL1 6577   7.419   1.957   8.850
 4649POPC   GL2 6578   7.456   2.070   8.850
 4649POPC   C1A 6579   7.466   1.962   8.550
 4649POPC   D2A 6580   7.428   2.004   8.250
 4649POPC   C3A 6581   7.444   1.976   7.950
 4649POPC   C4A 6582   7.433   1.962   7.650
 4649POPC   C1B 6583   7.457   2.289   8.550
 4649POPC   C2B 6584   7.419   2.251   8.250
 4649POPC   C3B 6585   7.427   2.265   7.950
 4649POPC   C4B 6586   7.397   2.201   7.650
 4650POPC   NC3 6587  44.682  19.051   9.450
 4650POPC   PO4 6588  44.679  19.093   9.150
 4650POPC   GL1 6589  44.630  19.067   8.850
 4650POPC   GL2 6590  44.751  19.003   8.850
 4650POPC   C1A 6591  44.691  19.097   8.550
 4650POPC   D2A 6592  44.668  19.037   8.250
 4650POPC   C3A 6593  44.699  19.063   7.950
 4650POPC   C4A 6594  44.711  19.022   7.650
 4650POPC   C1B 6595  44.895  18.963   8.550
 4650POPC   C2B 6596  44.924  18.965   8.250
 4650POPC   C3B 6597  44.851  18.999   7.950
 4650POPC   C4B 6598  44.869  18.975   7.650
 4651POPC   NC3 6599  12.063  15.973   9.450
 4651POPC   PO4 6600  12.085  15.924   9.150
 4651POPC   GL1 6601  12.040  15.966   8.850
 4651POPC   GL2 6602  11.944  15.977   8.850
 4651POPC   C1A 6603  12.045  15.974   8.550
 4651POPC   D2A 6604  12.047  15.963   8.250
 4651POPC   C3A 6605  12.086  15.983   7.950
 4651POPC   C4A 6606  12.078  15.944   7.650
 4651POPC   C1B 6607  11.874  16.034   8.550
 4651POPC   C2B 6608  11.820  16.077   8.250
 4651POPC   C3B 6609  11.882  16.113   7.950
 4651POPC   C4B 6610  11.842  16.058   7.650
 4652POPC   NC3 6611  36.098  40.815   9.450
 4652POPC   PO4 6612  36.089  40.782   9.150
 4652POPC   GL1 6613  36.112  40.798   8.850
 4652POPC   GL2 6614  36.213  40.677   8.850
 4652POPC   C1A 6615  36.170  40.816   8.550
 4652POPC   D2A 6616  36.176  40.823   8.250
 4652POPC   C3A 6617  36.170  40.747   7.950
 4652POPC   C4A 6618  36.147  40.795   7.650
 4652POPC   C1B 6619  36.336  40.635   8.550
 4652POPC   C2B 6620  36.337  40.651   8.250
 4652POPC   C3B 6621  36.370  40.662   7.950
 4652POPC   C4B 6622  36.388  40.669   7.650
 4653POPC   NC3 6623  29.132   5.861   9.450
 4653POPC   PO4 6624  29.158   5.891   9.150
 4653POPC   GL1 6625  29.176   5.853   8.850
 4653POPC   GL2 6626  29.210   5.785   8.850
 4653POPC   C1A 6627  29.126   5.905   8.550
 4653POPC   D2A 6628  29.193   5.864   8.250
 4653POPC   C3A 6629  29.099   5.912   7.950
 4653POPC   C4A 6630  29.193   5.903   7.650
 4653POPC   C1B 6631  29.306   5.697   8.550
 4653POPC   C2B 6632  29.303   5.623   8.250
 4653POPC   C3B 6633  29.258   5.695   7.950
 4653POPC   C4B 6634  29.297   5.711   7.650
 4654POPC   NC3 6635  28.417   4.301   9.450
 4654POPC   PO4 6636  28.353   4.293   9.150
 4654POPC   GL1 6637  28.352   4.306   8.850
 4654POPC   GL2 6638  28.287   4.224   8.850
 4654POPC   C1A 6639  28.322   4.359   8.550
 4654POPC   D2A 6640  28.354   4.301   8.250
 4654POPC   C3A 6641  28.402   4.326   7.950
 4654POPC   C4A 6642  28.390   4.339   7.650
 4654POPC   C1B 6643  28.119   4.242   8.550
 4654POPC   C2B 6644  28.157   4.203   8.250
 4654POPC   C3B 6645  28.168   4.212   7.950
 4654POPC   C4B 6646  28.119   4.186   7.650
 4655POPC   NC3 6647  37.651  40.050   9.450
 4655POPC   PO4 6648  37.644  39.980   9.150
 4655POPC   GL1 6649  37.715  39.960   8.850
 4655POPC   GL2 6650  37.553  40.102   8.850
 4655POPC   C1A 6651  37.723  40.056   8.550
 4655POPC   D2A 6652  37.726  40.008   8.250
 4655POPC   C3A 6653  37.651  40.020   7.950
 4655POPC   C4A 6654  37.663  39.963   7.650
 4655POPC   C1B 6655  37.528  40.207   8.550
 4655POPC   C2B 6656  37.445  40.205   8.250
 4655POPC   C3B 6657  37.510  40.109   7.950
 4655POPC   C4B 6658  37.433  40.162   7.650
 4656POPC   NC3 6659  33.004  44.683   9.450
 4656POPC   PO4 6660  32.975  44.637   9.150
 4656POPC   GL1 6661  32.982  44.664   8.850
 4656POPC   GL2 6662  33.135  44.646   8.850
 4656POPC   C1A 6663  33.060  44.649   8.550
 4656POPC   D2A 6664  33.073  44.677   8.250
 4656POPC   C3A 6665  33.020  44.686   7.950
 4656POPC   C4A 6666  32.999  44.648   7.650
 4656POPC   C1B 6667  33.194  44.537   8.550
 4656POPC   C2B 6668  33.228  44.491   8.250
 4656POPC   C3B 6669  33.195  44.530   7.950
 4656POPC   C4B 6670  33.239  44.522   7.650
 4657POPC   NC3 6671  36.870  26.013   9.450
 4657POPC   PO4 6672  36.948  26.034   9.150
 4657POPC   GL1 6673  36.938  26.028   8.850
 4657POPC   GL2 6674  36.796  26.029   8.850
 4657POPC   C1A 6675  36.891  26.049   8.550
 4657POPC   D2A 6676  36.941  26.049   8.250
 4657POPC   C3A 6677  36.921  26.027   7.950
 4657POPC   C4A 6678  36.893  26.045   7.650
 4657POPC   C1B 6679  36.673  25.961   8.550
 4657POPC   C2B 6680  36.688  26.014   8.250
 4657POPC   C3B 6681  36.681  26.025   7.950
 4657POPC   C4B 6682  36.704  26.011   7.650
 4658POPC   NC3 6683  29.127  21.388   9.450
 4658POPC   PO4 6684  29.193  21.421   9.150
 4658POPC   GL1 6685  29.165  21.358   8.850
 4658POPC   GL2 6686  29.139  21.486   8.850
 4658POPC   C1A 6687  29.149  21.353   8.550
 4658POPC   D2A 6688  29.159  21.390   8.250
 4658POPC   C3A 6689  29.137  21.372   7.950
 4658POPC   C4A 6690  29.181  21.370   7.650
 4658POPC   C1B 6691  29.072  21.652   8.550
 4658POPC   C2B 6692  29.116  21.640   8.250
 4658POPC   C3B 6693  29.125  21.581   7.950
 4658POPC   C4B 6694  29.104  21.653   7.650
 4659POPC   NC3 6695  19.091  10.542   9.450
 4659POPC   PO4 6696  19.106  10.532   9.150
 4659POPC   GL1 6697  19.027  10.493   8.850
 4659POPC   GL2 6698  18.922  10.592   8.850
 4659POPC   C1A 6699  19.048  10.486   8.550
 4659POPC   D2A 6700  19.091  10.475   8.250
 4659POPC   C3A 6701  19.028  10.530   7.950
 4659POPC   C4A 6702  19.089  10.524   7.650
 4659POPC   C1B 6703  18.843  10.554   8.550
 4659POPC   C2B 6704  18.825  10.548   8.250
 4659POPC   C3B 6705  18.853  10.542   7.950
 4659POPC   C4B 6706  18.826  10.519   7.650
 4660POPC   NC3 6707  26.011   2.037   9.450
 4660POPC   PO4 6708  26.074   2.000   9.150
 4660POPC   GL1 6709  26.056   1.950   8.850
 4660POPC   GL2 6710  25.963   1.868   8.850
 4660POPC   C1A 6711  26.082   2.003   8.550
 4660POPC   D2A 6712  26.058   1.979   8.250
 4660POPC   C3A 6713  26.033   1.941   7.950
 4660POPC   C4A 6714  26.045   1.991   7.650
 4660POPC   C1B 6715  25.931   1.735   8.550
 4660POPC   C2B 6716  25.921   1.823   8.250
 4660POPC   C3B 6717  25.916   1.803   7.950
 4660POPC   C4B 6718  25.889   1.738   7.650
 4661POPC   NC3 6719  43.075   8.180   9.450
 4661POPC   PO4 6720  43.083   8.221   9.150
 4661POPC   GL1 6721  43.076   8.217   8.850
 4661POPC   GL2 6722  43.267   8.248   8.850
 4661POPC   C1A 6723  43.158   8.195   8.550
 4661POPC   D2A 6724  43.116   8.225   8.250
 4661POPC   C3A 6725  43.075   8.157   7.950
 4661POPC   C4A 6726  43.097   8.159   7.650
 4661POPC   C1B 6727  43.397   8.251   8.550
 4661POPC   C2B 6728  43.364   8.256   8.250
 4661POPC   C3B 6729  43.321   8.243   7.950
 4661POPC   C4B 6730  43.402   8.248   7.650
 4662POPC   NC3 6731  10.574  21.408   9.450
 4662POPC   PO4 6732  10.554  21.399   9.150
 4662POPC   GL1 6733  10.533  21.342   8.850
 4662POPC   GL2 6734  10.448  21.401   8.850
 4662POPC   C1A 6735  10.497  21.411   8.550
 4662POPC   D2A 6736  10.505  21.432   8.250
 4662POPC   C3A 6737  10.516  21.376   7.950
 4662POPC   C4A 6738  10.503  21.433   7.650
 4662POPC   C1B 6739  10.301  21.374   8.550
 4662POPC   C2B 6740  10.244  21.351   8.250
 4662POPC   C3B 6741  10.301  21.395   7.950
 4662POPC   C4B 6742  10.294  21.364   7.650
 4663POPC   NC3 6743   6.644   0.455   9.450
 4663POPC   PO4 6744   6.632   0.461   9.150
 4663POPC   GL1 6745   6.654   0.449   8.850
 4663POPC   GL2 6746   6.792   0.375   8.850
 4663POPC   C1A 6747   6.595   0.474   8.550
 4663POPC   D2A 6748   6.679   0.435   8.250
 4663POPC   C3A 6749   6.632   0.424   7.950
 4663POPC   C4A 6750   6.668   0.444   7.650
 4663POPC   C1B 6751   6.898   0.383   8.550
 4663POPC   C2B 6752   6.928   0.406   8.250
 4663POPC   C3B 6753   6.926   0.403   7.950
 4663POPC   C4B 6754   6.878   0.385   7.650
 4664POPC   NC3 6755  17.548  27.636   9.450
 4664POPC   PO4 6756  17.554  27.549   9.150
 4664POPC   GL1 6757  17.526  27.629   8.850
 4664POPC   GL2 6758  17.609  27.581   8.850
 4664POPC   C1A 6759  17.528  27.585   8.550
 4664POPC   D2A 6760  17.501  27.553   8.250
 4664POPC   C3A 6761  17.509  27.591   7.950
 4664POPC   C4A 6762  17.485  27.559   7.650
 4664POPC   C1B 6763  17.750  27.470   8.550
 4664POPC   C2B 6764  17.785  27.462   8.250
 4664POPC   C3B 6765  17.766  27.511   7.950
 4664POPC   C4B 6766  17.745  27.457   7.650
 4665POPC   NC3 6767   5.077  26.849   9.450
 4665POPC   PO4 6768   5.067  26.795   9.150
 4665POPC   GL1 6769   5.058  26.811   8.850
 4665POPC   GL2 6770   5.092  26.974   8.850
 4665POPC   C1A 6771   5.062  26.780   8.550
 4665POPC   D2A 6772   5.119  26.827   8.250
 4665POPC   C3A 6773   5.103  26.807   7.950
 4665POPC   C4A 6774   5.093  26.830   7.650
 4665POPC   C1B 6775   5.194  27.040   8.550
 4665POPC   C2B 6776   5.123  27.070   8.250
 4665POPC   C3B 6777   5.182  27.015   7.950
 4665POPC   C4B 6778   5.185  27.048   7.650
 4666POPC   NC3 6779  28.338  22.988   9.450
 4666POPC   PO4 6780  28.384  22.929   9.150
 4666POPC   GL1 6781  28.347  22.902   8.850
 4666POPC   GL2 6782  28.520  22.922   8.850
 4666POPC   C1A 6783  28.336  22.972   8.550
 4666POPC   D2A 6784  28.323  22.903   8.250
 4666POPC   C3A 6785  28.372  22.900   7.950
 4666POPC   C4A 6786  28.337  22.890   7.650
 4666POPC   C1B 6787  28.604  22.814   8.550
 4666POPC   C2B 6788  28.615  22.874   8.250
 4666POPC   C3B 6789  28.582  22.855   7.950
 4666POPC   C4B 6790  28.626  22.873   7.650
 4667POPC   NC3 6791  36.131   8.246   9.450
 4667POPC   PO4 6792  36.151   8.234   9.150
 4667POPC   GL1 6793  36.147   8.198   8.850
 4667POPC   GL2 6794  36.114   8.082   8.850
 4667POPC   C1A 6795  36.098   8.162   8.550
 4667POPC   D2A 6796  36.139   8.244   8.250
 4667POPC   C3A 6797  36.159   8.222   7.950
 4667POPC   C4A 6798  36.150   8.158   7.650
 4667POPC   C1B 6799  36.146   7.994   8.550
 4667POPC   C2B 6800  36.221   7.949   8.250
 4667POPC   C3B 6801  36.175   7.918   7.950
 4667POPC   C4B 6802  36.236   7.907   7.650
 4668POPC   NC3 6803   9.005   0.425   9.450
 4668POPC   PO4 6804   8.977   0.416   9.150
 4668POPC   GL1 6805   8.996   0.483   8.850
 4668POPC   GL2 6806   8.874   0.535   8.850
 4668POPC   C1A 6807   8.949   0.460   8.550
 4668POPC   D2A 6808   8.945   0.437   8.250
 4668POPC   C3A 6809   8.923   0.432   7.950
 4668POPC   C4A 6810   9.014   0.390   7.650
 4668POPC   C1B 6811   8.785   0.590   8.550
 4668POPC   C2B 6812   8.831   0.610   8.250
 4668POPC   C3B 6813   8.827   0.620   7.950
 4668POPC   C4B 6814   8.810   0.648   7.650
 4669POPC   NC3 6815  41.551   5.882   9.450
 4669POPC   PO4 6816  41.563   5.828   9.150
 4669POPC   GL1 6817  41.535   5.869   8.850
 4669POPC   GL2 6818  41.657   5.962   8.850
 4669POPC   C1A 6819  41.587   5.853   8.550
 4669POPC   D2A 6820  41.582   5.856   8.250
 4669POPC   C3A 6821  41.562   5.860   7.950
 4669POPC   C4A 6822  41.514   5.830   7.650
 4669POPC   C1B 6823  41.695   6.084   8.550
 4669POPC   C2B 6824  41.752   6.008   8.250
 4669POPC   C3B 6825  41.767   6.022   7.950
 4669POPC   C4B 6826  41.764   6.066   7.650
 4670POPC   NC3 6827  34.543   1.210   9.450
 4670POPC   PO4 6828  34.624   1.174   9.150
 4670POPC   GL1 6829  34.571   1.216   8.850
 4670POPC   GL2 6830  34.486   1.267   8.850
 4670POPC   C1A 6831  34.624   1.183   8.550
 4670POPC   D2A 6832  34.550   1.205   8.250
 4670POPC   C3A 6833  34.625   1.237   7.950
 4670POPC   C4A 6834  34.554   1.222   7.650
 4670POPC   C1B 6835  34.289   1.245   8.550
 4670POPC   C2B 6836  34.328   1.232   8.250
 4670POPC   C3B 6837  34.305   1.276   7.950
 4670POPC   C4B 6838  34.317   1.215   7.650
 4671POPC   NC3 6839  29.883  22.941   9.450
 4671POPC   PO4 6840  29.905  22.966   9.150
 4671POPC   GL1 6841  29.907  22.927   8.850
 4671POPC   GL2 6842  30.031  22.868   8.850
 4671POPC   C1A 6843  29.926  22.932   8.550
 4671POPC   D2A 6844  29.964  22.911   8.250
 4671POPC   C3A 6845  29.896  22.922   7.950
 4671POPC   C4A 6846  29.921  22.965   7.650
 4671POPC   C1B 6847  30.149  22.886   8.550
 4671POPC   C2B 6848  30.164  22.839   8.250
 4671POPC   C3B 6849  30.205  22.839   7.950
 4671POPC   C4B 6850  30.167  22.834   7.650
 4672POPC   NC3 6851  12.063  18.298   9.450
 4672POPC   PO4 6852  12.059  18.276   9.150
 4672POPC   GL1 6853  12.044  18.295   8.850
 4672POPC   GL2 6854  12.237  18.281   8.850
 4672POPC   C1A 6855  12.099  18.308   8.550
 4672POPC   D2A 6856  12.101  18.330   8.250
 4672POPC   C3A 6857  12.067  18.331   7.950
 4672POPC   C4A 6858  12.084  18.264   7.650
 4672POPC   C1B 6859  12.268  18.207   8.550
 4672POPC   C2B 6860  12.256  18.188   8.250
 4672POPC   C3B 6861  12.284  18.191   7.950
 4672POPC   C4B 6862  12.346  18.185   7.650
 4673POPC   NC3 6863  13.587  36.856   9.450
 4673POPC   PO4 6864  13.667  36.879   9.150
 4673POPC   GL1 6865  13.610  36.943   8.850
 4673POPC   GL2 6866  13.466  36.878   8.850
 4673POPC   C1A 6867  13.597  36.921   8.550
 4673POPC   D2A 6868  13.607  36.939   8.250
 4673POPC   C3A 6869  13.603  36.943   7.950
 4673POPC   C4A 6870  13.657  36.938   7.650
 4673POPC   C1B 6871  13.420  36.981   8.550
 4673POPC   C2B 6872  13.339  36.929   8.250
 4673POPC   C3B 6873  13.371  36.989   7.950
 4673POPC   C4B 6874  13.406  36.998   7.650
 4674POPC   NC3 6875  13.584  12.075   9.450
 4674POPC   PO4 6876  13.622  12.106   9.150
 4674POPC   GL1 6877  13.618  12.061   8.850
 4674POPC   GL2 6878  13.698  12.024   8.850
 4674POPC   C1A 6879  13.599  12.107   8.550
 4674POPC   D2A 6880  13.665  12.038   8.250
 4674POPC   C3A 6881  13.651  12.126   7.950
 4674POPC   C4A 6882  13.639  12.087   7.650
 4674POPC   C1B 6883  13.845  11.995   8.550
 4674POPC   C2B 6884  13.871  11.919   8.250
 4674POPC   C3B 6885  13.863  11.970   7.950
 4674POPC   C4B 6886  13.820  11.931   7.650
 4675POPC   NC3 6887   8.206  37.638   9.450
 4675POPC   PO4 6888   8.195  37.666   9.150
 4675POPC   GL1 6889   8.214  37.669   8.850
 4675POPC   GL2 6890   8.099  37.565   8.850
 4675POPC   C1A 6891   8.231  37.631   8.550
 4675POPC   D2A 6892   8.244  37.664   8.250
 4675POPC   C3A 6893   8.212  37.716   7.950
 4675POPC   C4A 6894   8.198  37.689   7.650
 4675POPC   C1B 6895   7.963  37.596   8.550
 4675POPC   C2B 6896   7.999  37.511   8.250
 4675POPC   C3B 6897   8.007  37.597   7.950
 4675POPC   C4B 6898   8.004  37.544   7.650
 4676POPC   NC3 6899   1.175  22.908   9.450
 4676POPC   PO4 6900   1.200  22.908   9.150
 4676POPC   GL1 6901   1.174  22.955   8.850
 4676POPC   GL2 6902   1.256  22.886   8.850
 4676POPC   C1A 6903   1.236  22.904   8.550
 4676POPC   D2A 6904   1.215  22.962   8.250
 4676POPC   C3A 6905   1.186  22.930   7.950
 4676POPC   C4A 6906   1.200  22.905   7.650
 4676POPC   C1B 6907   1.403  22.753   8.550
 4676POPC   C2B 6908   1.386  22.793   8.250
 4676POPC   C3B 6909   1.380  22.769   7.950
 4676POPC   C4B 6910   1.386  22.707   7.650
 4677POPC   NC3 6911  44.666  11.349   9.450
 4677POPC   PO4 6912  44.699  11.269   9.150
 4677POPC   GL1 6913  44.651  11.326   8.850
 4677POPC   GL2 6914  44.746  11.274   8.850
 4677POPC   C1A 6915  44.670  11.315   8.550
 4677POPC   D2A 6916  44.638  11.292   8.250
 4677POPC   C3A 6917  44.691  11.318   7.950
 4677POPC   C4A 6918  44.626  11.332   7.650
 4677POPC   C1B 6919  44.899  11.279   8.550
 4677POPC   C2B 6920  44.901  11.293   8.250
 4677POPC   C3B 6921  44.908  11.302   7.950
 4677POPC   C4B 6922  44.921  11.349   7.650
 4678POPC   NC3 6923  14.410  21.400   9.450
 4678POPC   PO4 6924  14.453  21.412   9.150
 4678POPC   GL1 6925  14.452  21.349   8.850
 4678POPC   GL2 6926  14.509  21.309   8.850
 4678POPC   C1A 6927  14.392  21.433   8.550
 4678POPC   D2A 6928  14.391  21.379   8.250
 4678POPC   C3A 6929  14.410  21.421   7.950
 4678POPC   C4A 6930  14.356  21.421   7.650
 4678POPC   C1B 6931  14.618  21.302   8.550
 4678POPC   C2B 6932  14.591  21.319   8.250
 4678POPC   C3B 6933  14.634  21.235   7.950
 4678POPC   C4B 6934  14.631  21.284   7.650
 4679POPC   NC3 6935  15.988  33.764   9.450
 4679POPC   PO4 6936  15.948  33.837   9.150
 4679POPC   GL1 6937  15.905  33.815   8.850
 4679POPC   GL2 6938  15.860  33.813   8.850
 4679POPC   C1A 6939  15.947  33.802   8.550
 4679POPC   D2A 6940  15.938  33.763   8.250
 4679POPC   C3A 6941  15.916  33.843   7.950
 4679POPC   C4A 6942  15.995  33.796   7.650
 4679POPC   C1B 6943  15.712  33.838   8.550
 4679POPC   C2B 6944  15.669  33.842   8.250
 4679POPC   C3B 6945  15.751  33.818   7.950
 4679POPC   C4B 6946  15.732  33.796   7.650
 4680POPC   NC3 6947  11.345  26.005   9.450
 4680POPC   PO4 6948  11.297  26.025   9.150
 4680POPC   GL1 6949  11.307  26.056   8.850
 4680POPC   GL2 6950  11.259  26.118   8.850
 4680POPC   C1A 6951  11.273  26.021   8.550
 4680POPC   D2A 6952  11.266  26.018   8.250
 4680POPC   C3A 6953  11.308  26.010   7.950
 4680POPC   C4A 6954  11.334  26.037   7.650
 4680POPC   C1B 6955  11.185  26.202   8.550
 4680POPC   C2B 6956  11.125  26.284   8.250
 4680POPC   C3B 6957  11.190  26.211   7.950
 4680POPC   C4B 6958  11.111  26.246   7.650
 4681POPC   NC3 6959  33.844  27.577   9.450
 4681POPC   PO4 6960  33.812  27.567   9.150
 4681POPC   GL1 6961  33.790  27.613   8.850
 4681POPC   GL2 6962  33.677  27.705   8.850
 4681POPC   C1A 6963  33.800  27.611   8.550
 4681POPC   D2A 6964  33.804  27.585   8.250
 4681POPC   C3A 6965  33.838  27.617   7.950
 4681POPC   C4A 6966  33.775  27.616   7.650
 4681POPC   C1B 6967  33.584  27.774   8.550
 4681POPC   C2B 6968  33.610  27.732   8.250
 4681POPC   C3B 6969  33.625  27.764   7.950
 4681POPC   C4B 6970  33.579  27.719   7.650
 4682POPC   NC3 6971  22.897   6.662   9.450
 4682POPC   PO4 6972  22.924   6.597   9.150
 4682POPC   GL1 6973  22.985   6.647   8.850
 4682POPC   GL2 6974  22.828   6.684   8.850
 4682POPC   C1A 6975  22.914   6.660   8.550
 4682POPC   D2A 6976  22.931   6.667   8.250
 4682POPC   C3A 6977  22.889   6.678   7.950
 4682POPC   C4A 6978  22.905   6.610   7.650
 4682POPC   C1B 6979  22.700   6.835   8.550
 4682POPC   C2B 6980  22.728   6.775   8.250
 4682POPC   C3B 6981  22.724   6.811   7.950
 4682POPC   C4B 6982  22.731   6.792   7.650
 4683POPC   NC3 6983   5.877  22.919   9.450
 4683POPC   PO4 6984   5.860  22.959   9.150
 4683POPC   GL1 6985   5.845  22.932   8.850
 4683POPC   GL2 6986   5.958  22.999   8.850
 4683POPC   C1A 6987   5.917  22.910   8.550
 4683POPC   D2A 6988   5.917  22.921   8.250
 4683POPC   C3A 6989   5.871  22.979   7.950
 4683POPC   C4A 6990   5.904  22.983   7.650
 4683POPC   C1B 6991   6.071  23.079   8.550
 4683POPC   C2B 6992   6.017  23.078   8.250
 4683POPC   C3B 6993   6.088  23.092   7.950
 4683POPC   C4B 6994   6.019  23.144   7.650
 4684POPC   NC3 6995   5.117  30.686   9.450
 4684POPC   PO4 6996   5.104  30.675   9.150
 4684POPC   GL1 6997   5.058  30.700   8.850
 4684POPC   GL2 6998   5.121  30.852   8.850
 4684POPC   C1A 6999   5.136  30.738   8.550
 4684POPC   D2A 7000   5.123  30.652   8.250
 4684POPC   C3A 7001   5.071  30.670   7.950
 4684POPC   C4A 7002   5.115  30.698   7.650
 4684POPC   C1B 7003   5.230  30.920   8.550
 4684POPC   C2B 7004   5.191  30.893   8.250
 4684POPC   C3B 7005   5.190  30.920   7.950
 4684POPC   C4B 7006   5.145  30.911   7.650
 4685POPC   NC3 7007   9.784  19.830   9.450
 4685POPC   PO4 7008   9.749  19.851   9.150
 4685POPC   GL1 7009   9.728  19.822   8.850
 4685POPC   GL2 7010   9.833  19.921   8.850
 4685POPC   C1A 7011   9.714  19.828   8.550
 4685POPC   D2A 7012   9.772  19.800   8.250
 4685POPC   C3A 7013   9.720  19.865   7.950
 4685POPC   C4A 7014   9.762  19.798   7.650
 4685POPC   C1B 7015   9.814  20.023   8.550
 4685POPC   C2B 7016   9.871  20.083   8.250
 4685POPC   C3B 7017   9.792  20.106   7.950
 4685POPC   C4B 7018   9.871  20.088   7.650
 4686POPC   NC3 7019  20.590  44.670   9.450
 4686POPC   PO4 7020  20.583  44.629   9.150
 4686POPC   GL1 7021  20.613  44.692   8.850
 4686POPC   GL2 7022  20.748  44.553   8.850
 4686POPC   C1A 7023  20.656  44.683   8.550
 4686POPC   D2A 7024  20.590  44.710   8.250
 4686POPC   C3A 7025  20.632  44.690   7.950
 4686POPC   C4A 7026  20.652  44.698   7.650
 4686POPC   C1B 7027  20.856  44.508   8.550
 4686POPC   C2B 7028  20.812  44.557   8.250
 4686POPC   C3B 7029  20.782  44.521   7.950
 4686POPC   C4B 7030  20.793  44.553   7.650
 4687POPC   NC3 7031  44.697  20.608   9.450
 4687POPC   PO4 7032  44.626  20.618   9.150
 4687POPC   GL1 7033  44.671  20.620   8.850
 4687POPC   GL2 7034  44.680  20.457   8.850
 4687POPC   C1A 7035  44.660  20.659   8.550
 4687POPC   D2A 7036  44.690  20.600   8.250
 4687POPC   C3A 7037  44.647  20.562   7.950
 4687POPC   C4A 7038  44.631  20.585   7.650
 4687POPC   C1B 7039  44.782  20.347   8.550
 4687POPC   C2B 7040  44.765  20.370   8.250
 4687POPC   C3B 7041  44.783  20.412   7.950
 4687POPC   C4B 7042  44.732  20.403   7.650
 4688POPC   NC3 7043   2.749   5.895   9.450
 4688POPC   PO4 7044   2.774   5.913   9.150
 4688POPC   GL1 7045   2.786   5.855   8.850
 4688POPC   GL2 7046   2.738   5.751   8.850
 4688POPC   C1A 7047   2.746   5.903   8.550
 4688POPC   D2A 7048   2.739   5.890   8.250
 4688POPC   C3A 7049   2.736   5.876   7.950
 4688POPC   C4A 7050   2.758   5.910   7.650
 4688POPC   C1B 7051   2.758   5.618   8.550
 4688POPC   C2B 7052   2.808   5.651   8.250
 4688POPC   C3B 7053   2.801   5.613   7.950
 4688POPC   C4B 7054   2.743   5.571   7.650
 4689POPC   NC3 7055   0.444  10.513   9.450
 4689POPC   PO4 7056   0.437  10.565   9.150
 4689POPC   GL1 7057   0.389  10.537   8.850
 4689POPC   GL2 7058   0.610  10.516   8.850
 4689POPC   C1A 7059   0.416  10.556   8.550
 4689POPC   D2A 7060   0.434  10.571   8.250
 4689POPC   C3A 7061   0.454  10.496   7.950
 4689POPC   C4A 7062   0.439  10.542   7.650
 4689POPC   C1B 7063   0.719  10.519   8.550
 4689POPC   C2B 7064   0.685  10.471   8.250
 4689POPC   C3B 7065   0.689  10.495   7.950
 4689POPC   C4B 7066   0.705  10.530   7.650
 4690POPC   NC3 7067   2.764  22.913   9.450
 4690POPC   PO4 7068   2.737  22.898   9.150
 4690POPC   GL1 7069   2.791  22.914   8.850
 4690POPC   GL2 7070   2.632  23.058   8.850
 4690POPC   C1A 7071   2.787  22.947   8.550
 4690POPC   D2A 7072   2.735  22.937   8.250
 4690POPC   C3A 7073   2.807  22.980   7.950
 4690POPC   C4A 7074   2.741  22.975   7.650
 4690POPC   C1B 7075   2.571  23.113   8.550
 4690POPC   C2B 7076   2.623  23.050   8.250
 4690POPC   C3B 7077   2.616  23.063   7.950
 4690POPC   C4B 7078   2.560  23.066   7.650
 4691POPC   NC3 7079  12.092   8.237   9.450
 4691POPC   PO4 7080  12.112   8.179   9.150
 4691POPC   GL1 7081  12.080   8.188   8.850
 4691POPC   GL2 7082  12.124   8.060   8.850
 4691POPC   C1A 7083  12.123   8.216   8.550
 4691POPC   D2A 7084  12.035   8.191   8.250
 4691POPC   C3A 7085  12.042   8.224   7.950
 4691POPC   C4A 7086  12.112   8.162   7.650
 4691POPC   C1B 7087  12.225   8.028   8.550
 4691POPC   C2B 7088  12.278   7.994   8.250
 4691POPC   C3B 7089  12.261   7.980   7.950
 4691POPC   C4B 7090  12.220   7.989   7.650
 4692POPC   NC3 7091  17.524  32.280   9.450
 4692POPC   PO4 7092  17.543  32.201   9.150
 4692POPC   GL1 7093  17.503  32.268   8.850
 4692POPC   GL2 7094  17.524  32.183   8.850
 4692POPC   C1A 7095  17.501  32.228   8.550
 4692POPC   D2A 7096  17.547  32.209   8.250
 4692POPC   C3A 7097  17.554  32.265   7.950
 4692POPC   C4A 7098  17.522  32.255   7.650
 4692POPC   C1B 7099  17.598  32.050   8.550
 4692POPC   C2B 7100  17.583  31.982   8.250
 4692POPC   C3B 7101  17.607  32.056   7.950
 4692POPC   C4B 7102  17.646  31.995   7.650
 4693POPC   NC3 7103  27.619  24.506   9.450
 4693POPC   PO4 7104  27.572  24.509   9.150
 4693POPC   GL1 7105  27.565  24.496   8.850
 4693POPC   GL2 7106  27.504  24.549   8.850
 4693POPC   C1A 7107  27.561  24.446   8.550
 4693POPC   D2A 7108  27.566  24.451   8.250
 4693POPC   C3A 7109  27.575  24.486   7.950
 4693POPC   C4A 7110  27.607  24.493   7.650
 4693POPC   C1B 7111  27.421  24.720   8.550
 4693POPC   C2B 7112  27.410  24.676   8.250
 4693POPC   C3B 7113  27.403  24.740   7.950
 4693POPC   C4B 7114  27.463  24.687   7.650
 4694POPC   NC3 7115   7.392  32.282   9.450
 4694POPC   PO4 7116   7.418  32.223   9.150
 4694POPC   GL1 7117   7.447  32.201   8.850
 4694POPC   GL2 7118   7.330  32.287   8.850
 4694POPC   C1A 7119   7.445  32.266   8.550
 4694POPC   D2A 7120   7.374  32.220   8.250
 4694POPC   C3A 7121   7.454  32.219   7.950
 4694POPC   C4A 7122   7.390  32.210   7.650
 4694POPC   C1B 7123   7.221  32.301   8.550
 4694POPC   C2B 7124   7.209  32.295   8.250
 4694POPC   C3B 7125   7.126  32.293   7.950
 4694POPC   C4B 7126   7.145  32.314   7.650
 4695POPC   NC3 7127  29.933  25.273   9.450
 4695POPC   PO4 7128  29.883  25.313   9.150
 4695POPC   GL1 7129  29.921  25.280   8.850
 4695POPC   GL2 7130  30.026  25.304   8.850
 4695POPC   C1A 7131  29.950  25.273   8.550
 4695POPC   D2A 7132  29.939  25.248   8.250
 4695POPC   C3A 7133  29.875  25.272   7.950
 4695POPC   C4A 7134  29.938  25.241   7.650
 4695POPC   C1B 7135  30.107  25.459   8.550
 4695POPC   C2B 7136  30.116  25.435   8.250
 4695POPC   C3B 7137  30.087  25.468   7.950
 4695POPC   C4B 7138  30.097  25.404   7.650
 4696POPC   NC3 7139   9.005  19.854   9.450
 4696POPC   PO4 7140   8.935  19.824   9.150
 4696POPC   GL1 7141   8.976  19.856   8.850
 4696POPC   GL2 7142   9.038  19.725   8.850
 4696POPC   C1A 7143   8.960  19.802   8.550
 4696POPC   D2A 7144   8.923  19.840   8.250
 4696POPC   C3A 7145   8.925  19.797   7.950
 4696POPC   C4A 7146   8.976  19.824   7.650
 4696POPC   C1B 7147   9.148  19.648   8.550
 4696POPC   C2B 7148   9.155  19.719   8.250
 4696POPC   C3B 7149   9.206  19.631   7.950
 4696POPC   C4B 7150   9.171  19.636   7.650
 4697POPC   NC3 7151   2.782  32.246   9.450
 4697POPC   PO4 7152   2.784  32.257   9.150
 4697POPC   GL1 7153   2.776  32.264   8.850
 4697POPC   GL2 7154   2.875  32.358   8.850
 4697POPC   C1A 7155   2.810  32.283   8.550
 4697POPC   D2A 7156   2.733  32.266   8.250
 4697POPC   C3A 7157   2.772  32.274   7.950
 4697POPC   C4A 7158   2.794  32.218   7.650
 4697POPC   C1B 7159   2.923  32.412   8.550
 4697POPC   C2B 7160   2.880  32.454   8.250
 4697POPC   C3B 7161   2.902  32.416   7.950
 4697POPC   C4B 7162   2.976  32.443   7.650
 4698POPC   NC3 7163  19.857  26.819   9.450
 4698POPC   PO4 7164  19.796  26.843   9.150
 4698POPC   GL1 7165  19.827  26.817   8.850
 4698POPC   GL2 7166  19.933  26.741   8.850
 4698POPC   C1A 7167  19.846  26.852   8.550
 4698POPC   D2A 7168  19.871  26.856   8.250
 4698POPC   C3A 7169  19.884  26.854   7.950
 4698POPC   C4A 7170  19.802  26.831   7.650
 4698POPC   C1B 7171  20.044  26.668   8.550
 4698POPC   C2B 7172  19.979  26.633   8.250
 4698POPC   C3B 7173  19.979  26.698   7.950
 4698POPC   C4B 7174  20.057  26.619   7.650
 4699POPC   NC3 7175  19.102  42.290   9.450
 4699POPC   PO4 7176  19.107  42.370   9.150
 4699POPC   GL1 7177  19.039  42.300   8.850
 4699POPC   GL2 7178  19.119  42.268   8.850
 4699POPC   C1A 7179  19.047  42.365   8.550
 4699POPC   D2A 7180  19.100  42.359   8.250
 4699POPC   C3A 7181  19.104  42.347   7.950
 4699POPC   C4A 7182  19.028  42.305   7.650
 4699POPC   C1B 7183  19.256  42.226   8.550
 4699POPC   C2B 7184  19.252  42.177   8.250
 4699POPC   C3B 7185  19.229  42.157   7.950
 4699POPC   C4B 7186  19.228  42.208   7.650
 4700POPC   NC3 7187  28.381   8.972   9.450
 4700POPC   PO4 7188  28.341   8.992   9.150
 4700POPC   GL1 7189  28.401   8.998   8.850
 4700POPC   GL2 7190  28.396   8.857   8.850
 4700POPC   C1A 7191  28.361   9.009   8.550
 4700POPC   D2A 7192  28.409   8.952   8.250
 4700POPC   C3A 7193  28.347   9.012   7.950
 4700POPC   C4A 7194  28.361   8.955   7.650
 4700POPC   C1B 7195  28.470   8.770   8.550
 4700POPC   C2B 7196  28.405   8.682   8.250
 4700POPC   C3B 7197  28.408   8.754   7.950
 4700POPC   C4B 7198  28.405   8.717   7.650
 4701POPC   NC3 7199  31.448  22.913   9.450
 4701POPC   PO4 7200  31.471  22.946   9.150
 4701POPC   GL1 7201  31.440  22.890   8.850
 4701POPC   GL2 7202  31.365  22.843   8.850
 4701POPC   C1A 7203  31.464  22.983   8.550
 4701POPC   D2A 7204  31.459  22.965   8.250
 4701POPC   C3A 7205  31.514  22.983   7.950
 4701POPC   C4A 7206  31.499  22.947   7.650
 4701POPC   C1B 7207  31.358  22.705   8.550
 4701POPC   C2B 7208  31.288  22.750   8.250
 4701POPC   C3B 7209  31.375  22.757   7.950
 4701POPC   C4B 7210  31.372  22.752   7.650
 4702POPC   NC3 7211  30.740  34.535   9.450
 4702POPC   PO4 7212  30.732  34.555   9.150
 4702POPC   GL1 7213  30.693  34.576   8.850
 4702POPC   GL2 7214  30.586  34.571   8.850
 4702POPC   C1A 7215  30.684  34.572   8.550
 4702POPC   D2A 7216  30.702  34.543   8.250
 4702POPC   C3A 7217  30.661  34.586   7.950
 4702POPC   C4A 7218  30.668  34.583   7.650
 4702POPC   C1B 7219  30.419  34.575   8.550
 4702POPC   C2B 7220  30.490  34.545   8.250
 4702POPC   C3B 7221  30.450  34.550   7.950
 4702POPC   C4B 7222  30.483  34.529   7.650
 4703POPC   NC3 7223  31.488  30.669   9.450
 4703POPC   PO4 7224  31.441  30.655   9.150
 4703POPC   GL1 7225  31.478  30.650   8.850
 4703POPC   GL2 7226  31.459  30.618   8.850
 4703POPC   C1A 7227  31.482  30.741   8.550
 4703POPC   D2A 7228  31.499  30.669   8.250
 4703POPC   C3A 7229  31.502  30.746   7.950
 4703POPC   C4A 7230  31.505  30.701   7.650
 4703POPC   C1B 7231  31.573  30.469   8.550
 4703POPC   C2B 7232  31.518  30.417   8.250
 4703POPC   C3B 7233  31.553  30.455   7.950
 4703POPC   C4B 7234  31.581  30.453   7.650
 4704POPC   NC3 7235   2.008  24.536   9.450
 4704POPC   PO4 7236   2.013  24.525   9.150
 4704POPC   GL1 7237   1.943  24.456   8.850
 4704POPC   GL2 7238   1.983  24.586   8.850
 4704POPC   C1A 7239   2.004  24.494   8.550
 4704POPC   D2A 7240   1.993  24.484   8.250
 4704POPC   C3A 7241   1.956  24.445   7.950
 4704POPC   C4A 7242   2.034  24.526   7.650
 4704POPC   C1B 7243   1.980  24.776   8.550
 4704POPC   C2B 7244   2.044  24.688   8.250
 4704POPC   C3B 7245   2.034  24.756   7.950
 4704POPC   C4B 7246   2.054  24.714   7.650
 4705POPC   NC3 7247  20.649  40.741   9.450
 4705POPC   PO4 7248  20.658  40.824   9.150
 4705POPC   GL1 7249  20.606  40.795   8.850
 4705POPC   GL2 7250  20.704  40.704   8.850
 4705POPC   C1A 7251  20.620  40.739   8.550
 4705POPC   D2A 7252  20.644  40.740   8.250
 4705POPC   C3A 7253  20.606  40.739   7.950
 4705POPC   C4A 7254  20.570  40.812   7.650
 4705POPC   C1B 7255  20.791  40.620   8.550
 4705POPC   C2B 7256  20.805  40.620   8.250
 4705POPC   C3B 7257  20.801  40.632   7.950
 4705POPC   C4B 7258  20.844  40.644   7.650
 4706POPC   NC3 7259  22.976  28.415   9.450
 4706POPC   PO4 7260  22.964  28.351   9.150
 4706POPC   GL1 7261  22.971  28.404   8.850
 4706POPC   GL2 7262  22.808  28.351   8.850
 4706POPC   C1A 7263  22.920  28.378   8.550
 4706POPC   D2A 7264  22.902  28.347   8.250
 4706POPC   C3A 7265  22.899  28.352   7.950
 4706POPC   C4A 7266  22.940  28.383   7.650
 4706POPC   C1B 7267  22.719  28.341   8.550
 4706POPC   C2B 7268  22.702  28.362   8.250
 4706POPC   C3B 7269  22.721  28.310   7.950
 4706POPC   C4B 7270  22.655  28.356   7.650
 4707POPC   NC3 7271  32.271  44.686   9.450
 4707POPC   PO4 7272  32.279  44.689   9.150
 4707POPC   GL1 7273  32.275  44.613   8.850
 4707POPC   GL2 7274  32.419  44.690   8.850
 4707POPC   C1A 7275  32.247  44.658   8.550
 4707POPC   D2A 7276  32.246  44.664   8.250
 4707POPC   C3A 7277  32.202  44.622   7.950
 4707POPC   C4A 7278  32.241  44.696   7.650
 4707POPC   C1B 7279  32.472  44.719   8.550
 4707POPC   C2B 7280  32.540  44.699   8.250
 4707POPC   C3B 7281  32.518  44.628   7.950
 4707POPC   C4B 7282  32.465  44.689   7.650
 4708POPC   NC3 7283  26.024  29.900   9.450
 4708POPC   PO4 7284  26.018  29.918   9.150
 4708POPC   GL1 7285  26.054  29.917   8.850
 4708POPC   GL2 7286  26.050  29.826   8.850
 4708POPC   C1A 7287  26.077  29.933   8.550
 4708POPC   D2A 7288  26.028  29.970   8.250
 4708POPC   C3A 7289  26.036  29.940   7.950
 4708POPC   C4A 7290  26.029  29.944   7.650
 4708POPC   C1B 7291  25.957  29.703   8.550
 4708POPC   C2B 7292  25.986  29.669   8.250
 4708POPC   C3B 7293  25.997  29.721   7.950
 4708POPC   C4B 7294  25.977  29.702   7.650
 4709POPC   NC3 7295   7.382   5.100   9.450
 4709POPC   PO4 7296   7.412   5.127   9.150
 4709POPC   GL1 7297   7.385   5.064   8.850
 4709POPC   GL2 7298   7.421   4.968   8.850
 4709POPC   C1A 7299   7.384   5.108   8.550
 4709POPC   D2A 7300   7.431   5.099   8.250
 4709POPC   C3A 7301   7.451   5.051   7.950
 4709POPC   C4A 7302   7.374   5.060   7.650
 4709POPC   C1B 7303   7.350   4.870   8.550
 4709POPC   C2B 7304   7.290   4.862   8.250
 4709POPC   C3B 7305   7.304   4.869   7.950
 4709POPC   C4B 7306   7.334   4.901   7.650
 4710POPC   NC3 7307  40.794  26.037   9.450
 4710POPC   PO4 7308  40.751  26.018   9.150
 4710POPC   GL1 7309  40.818  26.009   8.850
 4710POPC   GL2 7310  40.915  26.047   8.850
 4710POPC   C1A 7311  40.804  26.062   8.550
 4710POPC   D2A 7312  40.796  26.068   8.250
 4710POPC   C3A 7313  40.825  26.015   7.950
 4710POPC   C4A 7314  40.763  26.061   7.650
 4710POPC   C1B 7315  41.004  26.046   8.550
 4710POPC   C2B 7316  41.045  26.123   8.250
 4710POPC   C3B 7317  41.043  26.128   7.950
 4710POPC   C4B 7318  40.991  26.077   7.650
 4711POPC   NC3 7319  39.972  33.766   9.450
 4711POPC   PO4 7320  39.963  33.775   9.150
 4711POPC   GL1 7321  40.039  33.809   8.850
 4711POPC   GL2 7322  40.014  33.659   8.850
 4711POPC   C1A 7323  40.020  33.757   8.550
 4711POPC   D2A 7324  40.005  33.830   8.250
 4711POPC   C3A 7325  40.013  33.798   7.950
 4711POPC   C4A 7326  39.997  33.826   7.650
 4711POPC   C1B 7327  40.056  33.552   8.550
 4711POPC   C2B 7328  40.085  33.538   8.250
 4711POPC   C3B 7329  40.005  33.526   7.950
 4711POPC   C4B 7330  40.034  33.543   7.650
 4712POPC   NC3 7331  36.871  38.446   9.450
 4712POPC   PO4 7332  36.877  38.473   9.150
 4712POPC   GL1 7333  36.906  38.452   8.850
 4712POPC   GL2 7334  36.978  38.348   8.850
 4712POPC   C1A 7335  36.908  38.413   8.550
 4712POPC   D2A 7336  36.908  38.423   8.250
 4712POPC   C3A 7337  36.891  38.408   7.950
 4712POPC   C4A 7338  36.904  38.428   7.650
 4712POPC   C1B 7339  37.042  38.257   8.550
 4712POPC   C2B 7340  36.969  38.224   8.250
 4712POPC   C3B 7341  37.018  38.241   7.950
 4712POPC   C4B 7342  37.004  38.268   7.650
 4713POPC   NC3 7343  36.097  20.606   9.450
 4713POPC   PO4 7344  36.118  20.638   9.150
 4713POPC   GL1 7345  36.121  20.586   8.850
 4713POPC   GL2 7346  36.221  20.483   8.850
 4713POPC   C1A 7347  36.083  20.586   8.550
 4713POPC   D2A 7348  36.113  20.640   8.250
 4713POPC   C3A 7349  36.113  20.561   7.950
 4713POPC   C4A 7350  36.079  20.597   7.650
 4713POPC   C1B 7351  36.313  20.460   8.550
 4713POPC   C2B 7352  36.265  20.371   8.250
 4713POPC   C3B 7353  36.325  20.456   7.950
 4713POPC   C4B 7354  36.293  20.369   7.650
 4714POPC   NC3 7355   8.938  39.250   9.450
 4714POPC   PO4 7356   8.973  39.240   9.150
 4714POPC   GL1 7357   8.993  39.272   8.850
 4714POPC   GL2 7358   8.911  39.065   8.850
 4714POPC   C1A 7359   8.944  39.228   8.550
 4714POPC   D2A 7360   8.963  39.203   8.250
 4714POPC   C3A 7361   8.931  39.231   7.950
 4714POPC   C4A 7362   8.995  39.270   7.650
 4714POPC   C1B 7363   8.881  38.975   8.550
 4714POPC   C2B 7364   8.875  38.976   8.250
 4714POPC   C3B 7365   8.927  39.034   7.950
 4714POPC   C4B 7366   8.940  38.965   7.650
 4715POPC   NC3 7367  15.951  13.590   9.450
 4715POPC   PO4 7368  15.942  13.648   9.150
 4715POPC   GL1 7369  15.950  13.607   8.850
 4715POPC   GL2 7370  16.036  13.619   8.850
 4715POPC   C1A 7371  15.937  13.674   8.550
 4715POPC   D2A 7372  15.991  13.664   8.250
 4715POPC   C3A 7373  15.952  13.678   7.950
 4715POPC   C4A 7374  15.982  13.598   7.650
 4715POPC   C1B 7375  16.175  13.499   8.550
 4715POPC   C2B 7376  16.139  13.534   8.250
 4715POPC   C3B 7377  16.216  13.492   7.950
 4715POPC   C4B 7378  16.183  13.495   7.650
 4716POPC   NC3 7379  31.475  27.593   9.450
 4716POPC   PO4 7380  31.444  27.561   9.150
 4716POPC   GL1 7381  31.452  27.589   8.850
 4716POPC   GL2 7382  31.601  27.664   8.850
 4716POPC   C1A 7383  31.497  27.620   8.550
 4716POPC   D2A 7384  31.487  27.629   8.250
 4716POPC   C3A 7385  31.428  27.631   7.950
 4716POPC   C4A 7386  31.506  27.588   7.650
 4716POPC   C1B 7387  31.652  27.753   8.550
 4716POPC   C2B 7388  31.627  27.777   8.250
 4716POPC   C3B 7389  31.632  27.751   7.950
 4716POPC   C4B 7390  31.720  27.758   7.650
 4717POPC   NC3 7391  25.265  12.096   9.450
 4717POPC   PO4 7392  25.248  12.059   9.150
 4717POPC   GL1 7393  25.232  12.107   8.850
 4717POPC   GL2 7394  25.419  12.090   8.850
 4717POPC   C1A 7395  25.241  12.034   8.550
 4717POPC   D2A 7396  25.240  12.048   8.250
 4717POPC   C3A 7397  25.229  12.094   7.950
 4717POPC   C4A 7398  25.294  12.052   7.650
 4717POPC   C1B 7399  25.494  12.190   8.550
 4717POPC   C2B 7400  25.524  12.140   8.250
 4717POPC   C3B 7401  25.478  12.133   7.950
 4717POPC   C4B 7402  25.503  12.145   7.650
 4718POPC   NC3 7403  29.931  29.136   9.450
 4718POPC   PO4 7404  29.969  29.157   9.150
 4718POPC   GL1 7405  29.876  29.159   8.850
 4718POPC   GL2 7406  29.990  29.091   8.850
 4718POPC   C1A 7407  29.946  29.137   8.550
 4718POPC   D2A 7408  29.926  29.192   8.250
 4718POPC   C3A 7409  29.925  29.130   7.950
 4718POPC   C4A 7410  29.885  29.172   7.650
 4718POPC   C1B 7411  30.176  28.984   8.550
 4718POPC   C2B 7412  30.114  29.053   8.250
 4718POPC   C3B 7413  30.132  28.982   7.950
 4718POPC   C4B 7414  30.141  29.027   7.650
 4719POPC   NC3 7415  36.087   5.887   9.450
 4719POPC   PO4 7416  36.102   5.906   9.150
 4719POPC   GL1 7417  36.096   5.885   8.850
 4719POPC   GL2 7418  36.065   5.942   8.850
 4719POPC   C1A 7419  36.137   5.889   8.550
 4719POPC   D2A 7420  36.157   5.834   8.250
 4719POPC   C3A 7421  36.121   5.902   7.950
 4719POPC   C4A 7422  36.161   5.882   7.650
 4719POPC   C1B 7423  36.083   6.073   8.550
 4719POPC   C2B 7424  36.068   6.139   8.250
 4719POPC   C3B 7425  36.026   6.093   7.950
 4719POPC   C4B 7426  36.084   6.092   7.650
 4720POPC   NC3 7427   7.463  21.385   9.450
 4720POPC   PO4 7428   7.371  21.394   9.150
 4720POPC   GL1 7429   7.383  21.349   8.850
 4720POPC   GL2 7430   7.472  21.486   8.850
 4720POPC   C1A 7431   7.413  21.337   8.550
 4720POPC   D2A 7432   7.457  21.428   8.250
 4720POPC   C3A 7433   7.411  21.404   7.950
 4720POPC   C4A 7434   7.403  21.376   7.650
 4720POPC   C1B 7435   7.532  21.580   8.550
 4720POPC   C2B 7436   7.521  21.592   8.250
 4720POPC   C3B 7437   7.537  21.584   7.950
 4720POPC   C4B 7438   7.584  21.596   7.650
 4721POPC   NC3 7439  34.599   8.229   9.450
 4721POPC   PO4 7440  34.532   8.148   9.150
 4721POPC   GL1 7441  34.542   8.240   8.850
 4721POPC   GL2 7442  34.529   8.293   8.850
 4721POPC   C1A 7443  34.541   8.180   8.550
 4721POPC   D2A 7444  34.590   8.209   8.250
 4721POPC   C3A 7445  34.624   8.160   7.950
 4721POPC   C4A 7446  34.607   8.209   7.650
 4721POPC   C1B 7447  34.468   8.468   8.550
 4721POPC   C2B 7448  34.451   8.394   8.250
 4721POPC   C3B 7449  34.460   8.477   7.950
 4721POPC   C4B 7450  34.449   8.444   7.650
 4722POPC   NC3 7451  31.450  12.859   9.450
 4722POPC   PO4 7452  31.453  12.865   9.150
 4722POPC   GL1 7453  31.428  12.870   8.850
 4722POPC   GL2 7454  31.338  12.772   8.850
 4722POPC   C1A 7455  31.499  12.831   8.550
 4722POPC   D2A 7456  31.473  12.872   8.250
 4722POPC   C3A 7457  31.494  12.858   7.950
 4722POPC   C4A 7458  31.427  12.816   7.650
 4722POPC   C1B 7459  31.231  12.667   8.550
 4722POPC   C2B 7460  31.250  12.734   8.250
 4722POPC   C3B 7461  31.294  12.670   7.950
 4722POPC   C4B 7462  31.302  12.682   7.650
 4723POPC   NC3 7463  12.830  22.985   9.450
 4723POPC   PO4 7464  12.870  22.896   9.150
 4723POPC   GL1 7465  12.847  22.953   8.850
 4723POPC   GL2 7466  12.726  22.875   8.850
 4723POPC   C1A 7467  12.885  22.906   8.550
 4723POPC   D2A 7468  12.835  22.969   8.250
 4723POPC   C3A 7469  12.857  22.915   7.950
 4723POPC   C4A 7470  12.822  22.916   7.650
 4723POPC   C1B 7471  12.568  22.900   8.550
 4723POPC   C2B 7472  12.555  22.932   8.250
 4723POPC   C3B 7473  12.642  22.950   7.950
 4723POPC   C4B 7474  12.583  22.897   7.650
 4724POPC   NC3 7475  40.813  36.173   9.450
 4724POPC   PO4 7476  40.796  36.140   9.150
 4724POPC   GL1 7477  40.741  36.178   8.850
 4724POPC   GL2 7478  40.674  36.051   8.850
 4724POPC   C1A 7479  40.807  36.155   8.550
 4724POPC   D2A 7480  40.784  36.166   8.250
 4724POPC   C3A 7481  40.758  36.155   7.950
 4724POPC   C4A 7482  40.771  36.148   7.650
 4724POPC   C1B 7483  40.634  35.925   8.550
 4724POPC   C2B 7484  40.618  35.957   8.250
 4724POPC   C3B 7485  40.619  35.951   7.950
 4724POPC   C4B 7486  40.651  35.909   7.650
 4725POPC   NC3 7487  18.262  24.470   9.450
 4725POPC   PO4 7488  18.243  24.502   9.150
 4725POPC   GL1 7489  18.330  24.494   8.850
 4725POPC   GL2 7490  18.371  24.503   8.850
 4725POPC   C1A 7491  18.318  24.498   8.550
 4725POPC   D2A 7492  18.236  24.456   8.250
 4725POPC   C3A 7493  18.295  24.480   7.950
 4725POPC   C4A 7494  18.291  24.533   7.650
 4725POPC   C1B 7495  18.473  24.598   8.550
 4725POPC   C2B 7496  18.480  24.586   8.250
 4725POPC   C3B 7497  18.488  24.532   7.950
 4725POPC   C4B 7498  18.549  24.566   7.650
 4726POPC   NC3 7499  14.417  42.305   9.450
 4726POPC   PO4 7500  14.386  42.354   9.150
 4726POPC   GL1 7501  14.416  42.339   8.850
 4726POPC   GL2 7502  14.371  42.277   8.850
 4726POPC   C1A 7503  14.390  42.308   8.550
 4726POPC   D2A 7504  14.388  42.306   8.250
 4726POPC   C3A 7505  14.387  42.307   7.950
 4726POPC   C4A 7506  14.384  42.372   7.650
 4726POPC   C1B 7507  14.295  42.130   8.550
 4726POPC   C2B 7508  14.247  42.120   8.250
 4726POPC   C3B 7509  14.229  42.138   7.950
 4726POPC   C4B 7510  14.263  42.160   7.650
 4727POPC   NC3 7511  26.778   9.728   9.450
 4727POPC   PO4 7512  26.814   9.709   9.150
 4727POPC   GL1 7513  26.853   9.791   8.850
 4727POPC   GL2 7514  26.755   9.685   8.850
 4727POPC   C1A 7515  26.800   9.782   8.550
 4727POPC   D2A 7516  26.800   9.755   8.250
 4727POPC   C3A 7517  26.821   9.710   7.950
 4727POPC   C4A 7518  26.860   9.784   7.650
 4727POPC   C1B 7519  26.593   9.591   8.550
 4727POPC   C2B 7520  26.595   9.551   8.250
 4727POPC   C3B 7521  26.643   9.606   7.950
 4727POPC   C4B 7522  26.647   9.559   7.650
 4728POPC   NC3 7523  12.839  27.566   9.450
 4728POPC   PO4 7524  12.879  27.592   9.150
 4728POPC   GL1 7525  12.857  27.559   8.850
 4728POPC   GL2 7526  12.993  27.570   8.850
 4728POPC   C1A 7527  12.812  27.598   8.550
 4728POPC   D2A 7528  12.831  27.629   8.250
 4728POPC   C3A 7529  12.825  27.586   7.950
 4728POPC   C4A 7530  12.861  27.626   7.650
 4728POPC   C1B 7531  13.084  27.590   8.550
 4728POPC   C2B 7532  13.071  27.586   8.250
 4728POPC   C3B 7533  13.078  27.534   7.950
 4728POPC   C4B 7534  13.077  27.516   7.650
 4729POPC   NC3 7535  23.669  39.982   9.450
 4729POPC   PO4 7536  23.759  40.031   9.150
 4729POPC   GL1 7537  23.704  40.027   8.850
 4729POPC   GL2 7538  23.679  40.138   8.850
 4729POPC   C1A 7539  23.684  40.034   8.550
 4729POPC   D2A 7540  23.675  39.970   8.250
 4729POPC   C3A 7541  23.672  40.020   7.950
 4729POPC   C4A 7542  23.707  40.017   7.650
 4729POPC   C1B 7543  23.605  40.272   8.550
 4729POPC   C2B 7544  23.594  40.201   8.250
 4729POPC   C3B 7545  23.591  40.179   7.950
 4729POPC   C4B 7546  23.603  40.272   7.650
 4730POPC   NC3 7547  14.405  12.886   9.450
 4730POPC   PO4 7548  14.385  12.866   9.150
 4730POPC   GL1 7549  14.402  12.866   8.850
 4730POPC   GL2 7550  14.325  12.924   8.850
 4730POPC   C1A 7551  14.401  12.848   8.550
 4730POPC   D2A 7552  14.419  12.874   8.250
 4730POPC   C3A 7553  14.445  12.900   7.950
 4730POPC   C4A 7554  14.404  12.840   7.650
 4730POPC   C1B 7555  14.298  13.092   8.550
 4730POPC   C2B 7556  14.350  13.112   8.250
 4730POPC   C3B 7557  14.321  13.088   7.950
 4730POPC   C4B 7558  14.258  13.095   7.650
 4731POPC   NC3 7559  11.328   5.896   9.450
 4731POPC   PO4 7560  11.312   5.868   9.150
 4731POPC   GL1 7561  11.280   5.883   8.850
 4731POPC   GL2 7562  11.327   6.038   8.850
 4731POPC   C1A 7563  11.271   5.879   8.550
 4731POPC   D2A 7564  11.253   5.854   8.250
 4731POPC   C3A 7565  11.259   5.879   7.950
 4731POPC   C4A 7566  11.296   5.863   7.650
 4731POPC   C1B 7567  11.352   6.112   8.550
 4731POPC   C2B 7568  11.396   6.070   8.250
 4731POPC   C3B 7569  11.376   6.089   7.950
 4731POPC   C4B 7570  11.381   6.147   7.650
 4732POPC   NC3 7571  43.076   8.963   9.450
 4732POPC   PO4 7572  43.127   8.932   9.150
 4732POPC   GL1 7573  43.086   8.982   8.850
 4732POPC   GL2 7574  43.234   9.068   8.850
 4732POPC   C1A 7575  43.075   8.999   8.550
 4732POPC   D2A 7576  43.090   8.978   8.250
 4732POPC   C3A 7577  43.114   8.962   7.950
 4732POPC   C4A 7578  43.152   8.994   7.650
 4732POPC   C1B 7579  43.289   9.198   8.550
 4732POPC   C2B 7580  43.275   9.201   8.250
 4732POPC   C3B 7581  43.310   9.132   7.950
 4732POPC   C4B 7582  43.256   9.201   7.650
 4733POPC   NC3 7583   9.777   9.773   9.450
 4733POPC   PO4 7584   9.760   9.725   9.150
 4733POPC   GL1 7585   9.770   9.713   8.850
 4733POPC   GL2 7586   9.696   9.863   8.850
 4733POPC   C1A 7587   9.797   9.726   8.550
 4733POPC   D2A 7588   9.760   9.737   8.250
 4733POPC   C3A 7589   9.787   9.753   7.950
 4733POPC   C4A 7590   9.720   9.769   7.650
 4733POPC   C1B 7591   9.676   9.993   8.550
 4733POPC   C2B 7592   9.687   9.983   8.250
 4733POPC   C3B 7593   9.665  10.019   7.950
 4733POPC   C4B 7594   9.696   9.941   7.650
 4734POPC   NC3 7595  32.229  25.296   9.450
 4734POPC   PO4 7596  32.206  25.246   9.150
 4734POPC   GL1 7597  32.255  25.271   8.850
 4734POPC   GL2 7598  32.178  25.405   8.850
 4734POPC   C1A 7599  32.230  25.252   8.550
 4734POPC   D2A 7600  32.210  25.248   8.250
 4734POPC   C3A 7601  32.243  25.263   7.950
 4734POPC   C4A 7602  32.276  25.274   7.650
 4734POPC   C1B 7603  32.219  25.546   8.550
 4734POPC   C2B 7604  32.159  25.515   8.250
 4734POPC   C3B 7605  32.182  25.537   7.950
 4734POPC   C4B 7606  32.181  25.505   7.650
 4735POPC   NC3 7607  26.814  26.053   9.450
 4735POPC   PO4 7608  26.808  26.060   9.150
 4735POPC   GL1 7609  26.823  26.062   8.850
 4735POPC   GL2 7610  26.856  26.147   8.850
 4735POPC   C1A 7611  26.794  26.018   8.550
 4735POPC   D2A 7612  26.801  26.025   8.250
 4735POPC   C3A 7613  26.773  25.998   7.950
 4735POPC   C4A 7614  26.785  26.051   7.650
 4735POPC   C1B 7615  26.852  26.281   8.550
 4735POPC   C2B 7616  26.785  26.280   8.250
 4735POPC   C3B 7617  26.846  26.250   7.950
 4735POPC   C4B 7618  26.859  26.243   7.650
 4736POPC   NC3 7619  28.407  39.199   9.450
 4736POPC   PO4 7620  28.373  39.245   9.150
 4736POPC   GL1 7621  28.396  39.239   8.850
 4736POPC   GL2 7622  28.274  39.259   8.850
 4736POPC   C1A 7623  28.341  39.234   8.550
 4736POPC   D2A 7624  28.412  39.265   8.250
 4736POPC   C3A 7625  28.405  39.266   7.950
 4736POPC   C4A 7626  28.379  39.207   7.650
 4736POPC   C1B 7627  28.093  39.245   8.550
 4736POPC   C2B 7628  28.168  39.191   8.250
 4736POPC   C3B 7629  28.123  39.193   7.950
 4736POPC   C4B 7630  28.108  39.178   7.650
 4737POPC   NC3 7631  43.865  19.809   9.450
 4737POPC   PO4 7632  43.850  19.882   9.150
 4737POPC   GL1 7633  43.865  19.787   8.850
 4737POPC   GL2 7634  43.951  19.882   8.850
 4737POPC   C1A 7635  43.935  19.803   8.550
 4737POPC   D2A 7636  43.879  19.824   8.250
 4737POPC   C3A 7637  43.857  19.873   7.950
 4737POPC   C4A 7638  43.916  19.873   7.650
 4737POPC   C1B 7639  44.124  19.954   8.550
 4737POPC   C2B 7640  44.143  19.954   8.250
 4737POPC   C3B 7641  44.068  19.958   7.950
 4737POPC   C4B 7642  44.104  19.989   7.650
 4738POPC   NC3 7643  34.593  22.904   9.450
 4738POPC   PO4 7644  34.585  22.983   9.150
 4738POPC   GL1 7645  34.538  22.970   8.850
 4738POPC   GL2 7646  34.659  23.024   8.850
 4738POPC   C1A 7647  34.540  22.977   8.550
 4738POPC   D2A 7648  34.563  22.916   8.250
 4738POPC   C3A 7649  34.605  22.963   7.950
 4738POPC   C4A 7650  34.561  22.901   7.650
 4738POPC   C1B 7651  34.756  23.153   8.550
 4738POPC   C2B 7652  34.703  23.162   8.250
 4738POPC   C3B 7653  34.708  23.144   7.950
 4738POPC   C4B 7654  34.704  23.097   7.650
 4739POPC   NC3 7655  39.202  43.904   9.450
 4739POPC   PO4 7656  39.266  43.893   9.150
 4739POPC   GL1 7657  39.182  43.886   8.850
 4739POPC   GL2 7658  39.342  43.970   8.850
 4739POPC   C1A 7659  39.206  43.907   8.550
 4739POPC   D2A 7660  39.236  43.936   8.250
 4739POPC   C3A 7661  39.186  43.931   7.950
 4739POPC   C4A 7662  39.209  43.891   7.650
 4739POPC   C1B 7663  39.476  43.953   8.550
 4739POPC   C2B 7664  39.441  43.995   8.250
 4739POPC   C3B 7665  39.425  44.020   7.950
 4739POPC   C4B 7666  39.444  44.002   7.650
 4740POPC   NC3 7667  14.356  19.831   9.450
 4740POPC   PO4 7668  14.401  19.857   9.150
 4740POPC   GL1 7669  14.403  19.824   8.850
 4740POPC   GL2 7670  14.439  19.724   8.850
 4740POPC   C1A 7671  14.368  19.816   8.550
 4740POPC   D2A 7672  14.363  19.878   8.250
 4740POPC   C3A 7673  14.376  19.814   7.950
 4740POPC   C4A 7674  14.392  19.787   7.650
 4740POPC   C1B 7675  14.463  19.571   8.550
 4740POPC   C2B 7676  14.397  19.585   8.250
 4740POPC   C3B 7677  14.385  19.584   7.950
 4740POPC   C4B 7678  14.403  19.556   7.650
 4741POPC   NC3 7679  40.010  10.550   9.450
 4741POPC   PO4 7680  40.010  10.493   9.150
 4741POPC   GL1 7681  39.981  10.567   8.850
 4741POPC   GL2 7682  40.047  10.592   8.850
 4741POPC   C1A 7683  40.033  10.502   8.550
 4741POPC   D2A 7684  39.958  10.492   8.250
 4741POPC   C3A 7685  39.985  10.508   7.950
 4741POPC   C4A 7686  40.011  10.510   7.650
 4741POPC   C1B 7687  40.108  10.741   8.550
 4741POPC   C2B 7688  40.108  10.724   8.250
 4741POPC   C3B 7689  40.148  10.714   7.950
 4741POPC   C4B 7690  40.154  10.715   7.650
 4742POPC   NC3 7691  44.687  42.322   9.450
 4742POPC   PO4 7692  44.675  42.362   9.150
 4742POPC   GL1 7693  44.637  42.364   8.850
 4742POPC   GL2 7694  44.582  42.239   8.850
 4742POPC   C1A 7695  44.614  42.353   8.550
 4742POPC   D2A 7696  44.643  42.320   8.250
 4742POPC   C3A 7697  44.619  42.354   7.950
 4742POPC   C4A 7698  44.615  42.373   7.650
 4742POPC   C1B 7699  44.559  42.077   8.550
 4742POPC   C2B 7700  44.569  42.078   8.250
 4742POPC   C3B 7701  44.618  42.064   7.950
 4742POPC   C4B 7702  44.554  42.134   7.650
 4743POPC   NC3 7703   0.414  39.959   9.450
 4743POPC   PO4 7704   0.435  39.995   9.150
 4743POPC   GL1 7705   0.446  40.010   8.850
 4743POPC   GL2 7706   0.571  39.964   8.850
 4743POPC   C1A 7707   0.431  39.989   8.550
 4743POPC   D2A 7708   0.390  40.053   8.250
 4743POPC   C3A 7709   0.423  40.019   7.950
 4743POPC   C4A 7710   0.445  39.998   7.650
 4743POPC   C1B 7711   0.631  39.861   8.550
 4743POPC   C2B 7712   0.618  39.884   8.250
 4743POPC   C3B 7713   0.632  39.843   7.950
 4743POPC   C4B 7714   0.594  39.831   7.650
 4744POPC   NC3 7715  11.288  36.166   9.450
 4744POPC   PO4 7716  11.326  36.131   9.150
 4744POPC   GL1 7717  11.278  36.123   8.850
 4744POPC   GL2 7718  11.373  36.005   8.850
 4744POPC   C1A 7719  11.327  36.079   8.550
 4744POPC   D2A 7720  11.265  36.135   8.250
 4744POPC   C3A 7721  11.328  36.099   7.950
 4744POPC   C4A 7722  11.308  36.109   7.650
 4744POPC   C1B 7723  11.483  35.929   8.550
 4744POPC   C2B 7724  11.451  35.931   8.250
 4744POPC   C3B 7725  11.399  35.872   7.950
 4744POPC   C4B 7726  11.440  35.949   7.650
 4745POPC   NC3 7727  30.665  39.266   9.450
 4745POPC   PO4 7728  30.656  39.196   9.150
 4745POPC   GL1 7729  30.681  39.216   8.850
 4745POPC   GL2 7730  30.840  39.179   8.850
 4745POPC   C1A 7731  30.661  39.280   8.550
 4745POPC   D2A 7732  30.746  39.275   8.250
 4745POPC   C3A 7733  30.696  39.221   7.950
 4745POPC   C4A 7734  30.731  39.216   7.650
 4745POPC   C1B 7735  30.951  39.191   8.550
 4745POPC   C2B 7736  30.954  39.222   8.250
 4745POPC   C3B 7737  30.923  39.267   7.950
 4745POPC   C4B 7738  30.904  39.241   7.650
 4746POPC   NC3 7739   0.388  41.577   9.450
 4746POPC   PO4 7740   0.399  41.550   9.150
 4746POPC   GL1 7741   0.406  41.522   8.850
 4746POPC   GL2 7742   0.586  41.569   8.850
 4746POPC   C1A 7743   0.471  41.516   8.550
 4746POPC   D2A 7744   0.424  41.527   8.250
 4746POPC   C3A 7745   0.400  41.556   7.950
 4746POPC   C4A 7746   0.450  41.598   7.650
 4746POPC   C1B 7747   0.655  41.605   8.550
 4746POPC   C2B 7748   0.639  41.581   8.250
 4746POPC   C3B 7749   0.651  41.648   7.950
 4746POPC   C4B 7750   0.660  41.665   7.650
 4747POPC   NC3 7751   0.488   9.722   9.450
 4747POPC   PO4 7752   0.390   9.726   9.150
 4747POPC   GL1 7753   0.469   9.742   8.850
 4747POPC   GL2 7754   0.325   9.775   8.850
 4747POPC   C1A 7755   0.418   9.755   8.550
 4747POPC   D2A 7756   0.415   9.730   8.250
 4747POPC   C3A 7757   0.399   9.793   7.950
 4747POPC   C4A 7758   0.459   9.709   7.650
 4747POPC   C1B 7759   0.238   9.827   8.550
 4747POPC   C2B 7760   0.216   9.786   8.250
 4747POPC   C3B 7761   0.222   9.781   7.950
 4747POPC   C4B 7762   0.225   9.807   7.650
 4748POPC   NC3 7763  12.041  40.814   9.450
 4748POPC   PO4 7764  12.096  40.804   9.150
 4748POPC   GL1 7765  12.050  40.794   8.850
 4748POPC   GL2 7766  12.059  40.693   8.850
 4748POPC   C1A 7767  12.109  40.820   8.550
 4748POPC   D2A 7768  12.085  40.809   8.250
 4748POPC   C3A 7769  12.040  40.831   7.950
 4748POPC   C4A 7770  12.064  40.750   7.650
 4748POPC   C1B 7771  12.132  40.569   8.550
 4748POPC   C2B 7772  12.063  40.518   8.250
 4748POPC   C3B 7773  12.051  40.490   7.950
 4748POPC   C4B 7774  12.080  40.485   7.650
 4749POPC   NC3 7775  16.734  13.644   9.450
 4749POPC   PO4 7776  16.757  13.613   9.150
 4749POPC   GL1 7777  16.721  13.629   8.850
 4749POPC   GL2 7778  16.767  13.547   8.850
 4749POPC   C1A 7779  16.765  13.656   8.550
 4749POPC   D2A 7780  16.747  13.590   8.250
 4749POPC   C3A 7781  16.719  13.606   7.950
 4749POPC   C4A 7782  16.770  13.646   7.650
 4749POPC   C1B 7783  16.822  13.416   8.550
 4749POPC   C2B 7784  16.782  13.402   8.250
 4749POPC   C3B 7785  16.840  13.367   7.950
 4749POPC   C4B 7786  16.771  13.434   7.650
 4750POPC   NC3 7787  32.269  19.053   9.450
 4750POPC   PO4 7788  32.249  19.106   9.150
 4750POPC   GL1 7789  32.218  19.057   8.850
 4750POPC   GL2 7790  32.079  19.077   8.850
 4750POPC   C1A 7791  32.201  19.031   8.550
 4750POPC   D2A 7792  32.204  19.036   8.250
 4750POPC   C3A 7793  32.206  19.034   7.950
 4750POPC   C4A 7794  32.250  19.030   7.650
 4750POPC   C1B 7795  32.032  19.038   8.550
 4750POPC   C2B 7796  31.963  19.060   8.250
 4750POPC   C3B 7797  31.986  19.070   7.950
 4750POPC   C4B 7798  31.997  19.061   7.650
 4751POPC   NC3 7799  18.253  22.896   9.450
 4751POPC   PO4 7800  18.304  22.910   9.150
 4751POPC   GL1 7801  18.321  22.988   8.850
 4751POPC   GL2 7802  18.199  22.851   8.850
 4751POPC   C1A 7803  18.248  22.891   8.550
 4751POPC   D2A 7804  18.290  22.935   8.250
 4751POPC   C3A 7805  18.265  22.930   7.950
 4751POPC   C4A 7806  18.244  22.932   7.650
 4751POPC   C1B 7807  18.079  22.759   8.550
 4751POPC   C2B 7808  18.136  22.800   8.250
 4751POPC   C3B 7809  18.130  22.770   7.950
 4751POPC   C4B 7810  18.089  22.797   7.650
 4752POPC   NC3 7811  13.639   3.504   9.450
 4752POPC   PO4 7812  13.617   3.502   9.150
 4752POPC   GL1 7813  13.616   3.512   8.850
 4752POPC   GL2 7814  13.589   3.453   8.850
 4752POPC   C1A 7815  13.612   3.513   8.550
 4752POPC   D2A 7816  13.649   3.565   8.250
 4752POPC   C3A 7817  13.645   3.534   7.950
 4752POPC   C4A 7818  13.594   3.523   7.650
 4752POPC   C1B 7819  13.589   3.282   8.550
 4752POPC   C2B 7820  13.571   3.250   8.250
 4752POPC   C3B 7821  13.607   3.307   7.950
 4752POPC   C4B 7822  13.594   3.285   7.650
 4753POPC   NC3 7823  37.660  13.590   9.450
 4753POPC   PO4 7824  37.685  13.673   9.150
 4753POPC   GL1 7825  37.726  13.671   8.850
 4753POPC   GL2 7826  37.665  13.491   8.850
 4753POPC   C1A 7827  37.685  13.622   8.550
 4753POPC   D2A 7828  37.705  13.629   8.250
 4753POPC   C3A 7829  37.641  13.675   7.950
 4753POPC   C4A 7830  37.727  13.659   7.650
 4753POPC   C1B 7831  37.587  13.342   8.550
 4753POPC   C2B 7832  37.603  13.362   8.250
 4753POPC   C3B 7833  37.565  13.372   7.950
 4753POPC   C4B 7834  37.565  13.434   7.650
 4754POPC   NC3 7835  19.100  28.323   9.450
 4754POPC   PO4 7836  19.052  28.366   9.150
 4754POPC   GL1 7837  19.028  28.368   8.850
 4754POPC   GL2 7838  18.969  28.308   8.850
 4754POPC   C1A 7839  19.009  28.324   8.550
 4754POPC   D2A 7840  19.009  28.396   8.250
 4754POPC   C3A 7841  19.035  28.367   7.950
 4754POPC   C4A 7842  19.108  28.339   7.650
 4754POPC   C1B 7843  18.890  28.218   8.550
 4754POPC   C2B 7844  18.936  28.154   8.250
 4754POPC   C3B 7845  18.922  28.174   7.950
 4754POPC   C4B 7846  18.902  28.151   7.650
 4755POPC   NC3 7847  35.394  32.260   9.450
 4755POPC   PO4 7848  35.357  32.252   9.150
 4755POPC   GL1 7849  35.381  32.205   8.850
 4755POPC   GL2 7850  35.264  32.189   8.850
 4755POPC   C1A 7851  35.389  32.199   8.550
 4755POPC   D2A 7852  35.391  32.268   8.250
 4755POPC   C3A 7853  35.354  32.291   7.950
 4755POPC   C4A 7854  35.334  32.200   7.650
 4755POPC   C1B 7855  35.180  32.152   8.550
 4755POPC   C2B 7856  35.106  32.122   8.250
 4755POPC   C3B 7857  35.143  32.109   7.950
 4755POPC   C4B 7858  35.159  32.113   7.650
 4756POPC   NC3 7859  10.496  22.928   9.450
 4756POPC   PO4 7860  10.542  22.919   9.150
 4756POPC   GL1 7861  10.495  22.954   8.850
 4756POPC   GL2 7862  10.526  23.066   8.850
 4756POPC   C1A 7863  10.490  22.910   8.550
 4756POPC   D2A 7864  10.517  22.889   8.250
 4756POPC   C3A 7865  10.552  22.930   7.950
 4756POPC   C4A 7866  10.544  22.950   7.650
 4756POPC   C1B 7867  10.631  23.198   8.550
 4756POPC   C2B 7868  10.553  23.144   8.250
 4756POPC   C3B 7869  10.595  23.220   7.950
 4756POPC   C4B 7870  10.616  23.192   7.650
 4757POPC   NC3 7871  25.284  30.655   9.450
 4757POPC   PO4 7872  25.315  30.673   9.150
 4757POPC   GL1 7873  25.267  30.692   8.850
 4757POPC   GL2 7874  25.377  30.659   8.850
 4757POPC   C1A 7875  25.244  30.709   8.550
 4757POPC   D2A 7876  25.241  30.726   8.250
 4757POPC   C3A 7877  25.257  30.648   7.950
 4757POPC   C4A 7878  25.303  30.697   7.650
 4757POPC   C1B 7879  25.527  30.655   8.550
 4757POPC   C2B 7880  25.519  30.590   8.250
 4757POPC   C3B 7881  25.459  30.667   7.950
 4757POPC   C4B 7882  25.543  30.594   7.650
 4758POPC   NC3 7883  30.741  22.935   9.450
 4758POPC   PO4 7884  30.722  22.897   9.150
 4758POPC   GL1 7885  30.741  22.905   8.850
 4758POPC   GL2 7886  30.804  22.804   8.850
 4758POPC   C1A 7887  30.649  22.922   8.550
 4758POPC   D2A 7888  30.669  22.921   8.250
 4758POPC   C3A 7889  30.744  22.983   7.950
 4758POPC   C4A 7890  30.744  22.978   7.650
 4758POPC   C1B 7891  30.923  22.732   8.550
 4758POPC   C2B 7892  30.921  22.730   8.250
 4758POPC   C3B 7893  30.835  22.721   7.950
 4758POPC   C4B 7894  30.853  22.789   7.650
 4759POPC   NC3 7895  19.029  29.923   9.450
 4759POPC   PO4 7896  19.051  29.966   9.150
 4759POPC   GL1 7897  19.092  29.956   8.850
 4759POPC   GL2 7898  19.108  29.955   8.850
 4759POPC   C1A 7899  19.051  29.967   8.550
 4759POPC   D2A 7900  19.028  29.956   8.250
 4759POPC   C3A 7901  19.103  29.890   7.950
 4759POPC   C4A 7902  19.034  29.915   7.650
 4759POPC   C1B 7903  19.282  30.122   8.550
 4759POPC   C2B 7904  19.239  30.085   8.250
 4759POPC   C3B 7905  19.262  30.088   7.950
 4759POPC   C4B 7906  19.301  30.104   7.650
 4760POPC   NC3 7907  26.837  23.702   9.450
 4760POPC   PO4 7908  26.799  23.674   9.150
 4760POPC   GL1 7909  26.797  23.715   8.850
 4760POPC   GL2 7910  26.785  23.801   8.850
 4760POPC   C1A 7911  26.774  23.760   8.550
 4760POPC   D2A 7912  26.846  23.719   8.250
 4760POPC   C3A 7913  26.832  23.682   7.950
 4760POPC   C4A 7914  26.780  23.709   7.650
 4760POPC   C1B 7915  26.714  23.928   8.550
 4760POPC   C2B 7916  26.706  23.949   8.250
 4760POPC   C3B 7917  26.681  23.916   7.950
 4760POPC   C4B 7918  26.691  23.939   7.650
 4761POPC   NC3 7919  17.505   2.772   9.450
 4761POPC   PO4 7920  17.518   2.726   9.150
 4761POPC   GL1 7921  17.460   2.735   8.850
 4761POPC   GL2 7922  17.589   2.891   8.850
 4761POPC   C1A 7923  17.467   2.767   8.550
 4761POPC   D2A 7924  17.517   2.777   8.250
 4761POPC   C3A 7925  17.495   2.757   7.950
 4761POPC   C4A 7926  17.465   2.773   7.650
 4761POPC   C1B 7927  17.643   3.013   8.550
 4761POPC   C2B 7928  17.604   3.010   8.250
 4761POPC   C3B 7929  17.655   2.995   7.950
 4761POPC   C4B 7930  17.621   2.995   7.650
 4762POPC   NC3 7931  19.849  11.321   9.450
 4762POPC   PO4 7932  19.787  11.293   9.150
 4762POPC   GL1 7933  19.829  11.276   8.850
 4762POPC   GL2 7934  19.851  11.150   8.850
 4762POPC   C1A 7935  19.807  11.349   8.550
 4762POPC   D2A 7936  19.868  11.315   8.250
 4762POPC   C3A 7937  19.853  11.331   7.950
 4762POPC   C4A 7938  19.792  11.306   7.650
 4762POPC   C1B 7939  19.908  11.065   8.550
 4762POPC   C2B 7940  19.847  11.050   8.250
 4762POPC   C3B 7941  19.877  11.017   7.950
 4762POPC   C4B 7942  19.891  11.057   7.650
 4763POPC   NC3 7943   2.803  18.250   9.450
 4763POPC   PO4 7944   2.784  18.295   9.150
 4763POPC   GL1 7945   2.770  18.289   8.850
 4763POPC   GL2 7946   2.929  18.321   8.850
 4763POPC   C1A 7947   2.784  18.312   8.550
 4763POPC   D2A 7948   2.777  18.274   8.250
 4763POPC   C3A 7949   2.732  18.257   7.950
 4763POPC   C4A 7950   2.770  18.324   7.650
 4763POPC   C1B 7951   3.050  18.322   8.550
 4763POPC   C2B 7952   2.975  18.354   8.250
 4763POPC   C3B 7953   3.024  18.363   7.950
 4763POPC   C4B 7954   2.978  18.272   7.650
 4764POPC   NC3 7955  35.369  43.132   9.450
 4764POPC   PO4 7956  35.362  43.093   9.150
 4764POPC   GL1 7957  35.350  43.126   8.850
 4764POPC   GL2 7958  35.423  43.191   8.850
 4764POPC   C1A 7959  35.355  43.099   8.550
 4764POPC   D2A 7960  35.315  43.113   8.250
 4764POPC   C3A 7961  35.368  43.124   7.950
 4764POPC   C4A 7962  35.375  43.138   7.650
 4764POPC   C1B 7963  35.378  43.308   8.550
 4764POPC   C2B 7964  35.419  43.352   8.250
 4764POPC   C3B 7965  35.378  43.356   7.950
 4764POPC   C4B 7966  35.460  43.364   7.650
 4765POPC   NC3 7967  36.112  41.593   9.450
 4765POPC   PO4 7968  36.174  41.596   9.150
 4765POPC   GL1 7969  36.083  41.515   8.850
 4765POPC   GL2 7970  36.242  41.529   8.850
 4765POPC   C1A 7971  36.176  41.562   8.550
 4765POPC   D2A 7972  36.112  41.551   8.250
 4765POPC   C3A 7973  36.124  41.520   7.950
 4765POPC   C4A 7974  36.155  41.524   7.650
 4765POPC   C1B 7975  36.334  41.531   8.550
 4765POPC   C2B 7976  36.379  41.576   8.250
 4765POPC   C3B 7977  36.360  41.500   7.950
 4765POPC   C4B 7978  36.395  41.579   7.650
 4766POPC   NC3 7979  16.706  12.843   9.450
 4766POPC   PO4 7980  16.686  12.881   9.150
 4766POPC   GL1 7981  16.686  12.863   8.850
 4766POPC   GL2 7982  16.666  12.785   8.850
 4766POPC   C1A 7983  16.691  12.818   8.550
 4766POPC   D2A 7984  16.732  12.811   8.250
 4766POPC   C3A 7985  16.682  12.846   7.950
 4766POPC   C4A 7986  16.766  12.845   7.650
 4766POPC   C1B 7987  16.493  12.754   8.550
 4766POPC   C2B 7988  16.533  12.701   8.250
 4766POPC   C3B 7989  16.515  12.716   7.950
 4766POPC   C4B 7990  16.544  12.719   7.650
 4767POPC   NC3 7991   5.821  27.633   9.450
 4767POPC   PO4 7992   5.910  27.594   9.150
 4767POPC   GL1 7993   5.822  27.605   8.850
 4767POPC   GL2 7994   5.938  27.549   8.850
 4767POPC   C1A 7995   5.838  27.633   8.550
 4767POPC   D2A 7996   5.860  27.548   8.250
 4767POPC   C3A 7997   5.858  27.633   7.950
 4767POPC   C4A 7998   5.883  27.614   7.650
 4767POPC   C1B 7999   6.034  27.465   8.550
 4767POPC   C2B 8000   6.076  27.421   8.250
 4767POPC   C3B 8001   6.089  27.400   7.950
 4767POPC   C4B 8002   6.090  27.434   7.650
 4768POPC   NC3 8003   9.787  44.695   9.450
 4768POPC   PO4 8004   9.698  44.688   9.150
 4768POPC   GL1 8005   9.734  44.663   8.850
 4768POPC   GL2 8006   9.821  44.491   8.850
 4768POPC   C1A 8007   9.772  44.710   8.550
 4768POPC   D2A 8008   9.748  44.684   8.250
 4768POPC   C3A 8009   9.782  44.693   7.950
 4768POPC   C4A 8010   9.733  44.705   7.650
 4768POPC   C1B 8011   9.776  44.451   8.550
 4768POPC   C2B 8012   9.788  44.463   8.250
 4768POPC   C3B 8013   9.815  44.437   7.950
 4768POPC   C4B 8014   9.806  44.461   7.650
 4769POPC   NC3 8015  14.425  26.817   9.450
 4769POPC   PO4 8016  14.410  26.841   9.150
 4769POPC   GL1 8017  14.431  26.816   8.850
 4769POPC   GL2 8018  14.462  26.857   8.850
 4769POPC   C1A 8019  14.356  26.812   8.550
 4769POPC   D2A 8020  14.423  26.781   8.250
 4769POPC   C3A 8021  14.411  26.791   7.950
 4769POPC   C4A 8022  14.356  26.865   7.650
 4769POPC   C1B 8023  14.574  26.917   8.550
 4769POPC   C2B 8024  14.573  26.978   8.250
 4769POPC   C3B 8025  14.614  26.960   7.950
 4769POPC   C4B 8026  14.655  27.011   7.650
 4770POPC   NC3 8027  19.061  43.134   9.450
 4770POPC   PO4 8028  19.089  43.140   9.150
 4770POPC   GL1 8029  19.049  43.098   8.850
 4770POPC   GL2 8030  19.043  43.207   8.850
 4770POPC   C1A 8031  19.055  43.093   8.550
 4770POPC   D2A 8032  19.036  43.138   8.250
 4770POPC   C3A 8033  19.046  43.128   7.950
 4770POPC   C4A 8034  19.073  43.078   7.650
 4770POPC   C1B 8035  19.077  43.371   8.550
 4770POPC   C2B 8036  19.076  43.384   8.250
 4770POPC   C3B 8037  19.072  43.381   7.950
 4770POPC   C4B 8038  19.084  43.374   7.650
 4771POPC   NC3 8039  27.621  33.009   9.450
 4771POPC   PO4 8040  27.558  33.061   9.150
 4771POPC   GL1 8041  27.568  32.978   8.850
 4771POPC   GL2 8042  27.594  33.136   8.850
 4771POPC   C1A 8043  27.563  33.028   8.550
 4771POPC   D2A 8044  27.569  33.014   8.250
 4771POPC   C3A 8045  27.587  33.035   7.950
 4771POPC   C4A 8046  27.565  33.013   7.650
 4771POPC   C1B 8047  27.603  33.252   8.550
 4771POPC   C2B 8048  27.627  33.226   8.250
 4771POPC   C3B 8049  27.607  33.239   7.950
 4771POPC   C4B 8050  27.564  33.282   7.650
 4772POPC   NC3 8051  12.062   2.726   9.450
 4772POPC   PO4 8052  12.035   2.719   9.150
 4772POPC   GL1 8053  12.057   2.752   8.850
 4772POPC   GL2 8054  11.955   2.779   8.850
 4772POPC   C1A 8055  12.029   2.794   8.550
 4772POPC   D2A 8056  12.073   2.737   8.250
 4772POPC   C3A 8057  12.099   2.804   7.950
 4772POPC   C4A 8058  12.101   2.809   7.650
 4772POPC   C1B 8059  11.807   2.877   8.550
 4772POPC   C2B 8060  11.845   2.802   8.250
 4772POPC   C3B 8061  11.839   2.829   7.950
 4772POPC   C4B 8062  11.858   2.794   7.650
 4773POPC   NC3 8063  40.772   6.652   9.450
 4773POPC   PO4 8064  40.772   6.639   9.150
 4773POPC   GL1 8065  40.763   6.623   8.850
 4773POPC   GL2 8066  40.895   6.606   8.850
 4773POPC   C1A 8067  40.778   6.686   8.550
 4773POPC   D2A 8068  40.749   6.608   8.250
 4773POPC   C3A 8069  40.765   6.641   7.950
 4773POPC   C4A 8070  40.830   6.609   7.650
 4773POPC   C1B 8071  41.064   6.664   8.550
 4773POPC   C2B 8072  41.011   6.672   8.250
 4773POPC   C3B 8073  41.046   6.655   7.950
 4773POPC   C4B 8074  41.061   6.607   7.650
 4774POPC   NC3 8075  39.200  43.067   9.450
 4774POPC   PO4 8076  39.197  43.082   9.150
 4774POPC   GL1 8077  39.220  43.091   8.850
 4774POPC   GL2 8078  39.314  43.078   8.850
 4774POPC   C1A 8079  39.210  43.137   8.550
 4774POPC   D2A 8080  39.262  43.132   8.250
 4774POPC   C3A 8081  39.210  43.102   7.950
 4774POPC   C4A 8082  39.256  43.066   7.650
 4774POPC   C1B 8083  39.419  42.990   8.550
 4774POPC   C2B 8084  39.420  42.991   8.250
 4774POPC   C3B 8085  39.478  43.025   7.950
 4774POPC   C4B 8086  39.487  43.005   7.650
 4775POPC   NC3 8087  29.903   1.952   9.450
 4775POPC   PO4 8088  29.957   1.974   9.150
 4775POPC   GL1 8089  29.951   2.017   8.850
 4775POPC   GL2 8090  30.010   1.917   8.850
 4775POPC   C1A 8091  29.875   1.966   8.550
 4775POPC   D2A 8092  29.897   2.026   8.250
 4775POPC   C3A 8093  29.945   1.955   7.950
 4775POPC   C4A 8094  29.954   1.953   7.650
 4775POPC   C1B 8095  30.067   1.747   8.550
 4775POPC   C2B 8096  30.002   1.737   8.250
 4775POPC   C3B 8097  30.067   1.715   7.950
 4775POPC   C4B 8098  30.075   1.784   7.650
 4776POPC   NC3 8099  34.537  28.415   9.450
 4776POPC   PO4 8100  34.541  28.380   9.150
 4776POPC   GL1 8101  34.540  28.408   8.850
 4776POPC   GL2 8102  34.446  28.453   8.850
 4776POPC   C1A 8103  34.535  28.360   8.550
 4776POPC   D2A 8104  34.555  28.394   8.250
 4776POPC   C3A 8105  34.558  28.352   7.950
 4776POPC   C4A 8106  34.544  28.398   7.650
 4776POPC   C1B 8107  34.426  28.520   8.550
 4776POPC   C2B 8108  34.373  28.553   8.250
 4776POPC   C3B 8109  34.402  28.555   7.950
 4776POPC   C4B 8110  34.341  28.505   7.650
 4777POPC   NC3 8111  12.826  14.451   9.450
 4777POPC   PO4 8112  12.852  14.360   9.150
 4777POPC   GL1 8113  12.825  14.444   8.850
 4777POPC   GL2 8114  12.832  14.532   8.850
 4777POPC   C1A 8115  12.808  14.417   8.550
 4777POPC   D2A 8116  12.839  14.440   8.250
 4777POPC   C3A 8117  12.842  14.365   7.950
 4777POPC   C4A 8118  12.823  14.432   7.650
 4777POPC   C1B 8119  12.729  14.601   8.550
 4777POPC   C2B 8120  12.729  14.599   8.250
 4777POPC   C3B 8121  12.703  14.591   7.950
 4777POPC   C4B 8122  12.681  14.591   7.650
 4778POPC   NC3 8123  28.374  35.390   9.450
 4778POPC   PO4 8124  28.354  35.304   9.150
 4778POPC   GL1 8125  28.375  35.318   8.850
 4778POPC   GL2 8126  28.236  35.414   8.850
 4778POPC   C1A 8127  28.324  35.325   8.550
 4778POPC   D2A 8128  28.374  35.370   8.250
 4778POPC   C3A 8129  28.386  35.387   7.950
 4778POPC   C4A 8130  28.400  35.318   7.650
 4778POPC   C1B 8131  28.079  35.371   8.550
 4778POPC   C2B 8132  28.102  35.407   8.250
 4778POPC   C3B 8133  28.108  35.359   7.950
 4778POPC   C4B 8134  28.095  35.361   7.650
 4779POPC   NC3 8135  42.356  10.541   9.450
 4779POPC   PO4 8136  42.375  10.478   9.150
 4779POPC   GL1 8137  42.355  10.564   8.850
 4779POPC   GL2 8138  42.186  10.507   8.850
 4779POPC   C1A 8139  42.311  10.504   8.550
 4779POPC   D2A 8140  42.371  10.573   8.250
 4779POPC   C3A 8141  42.354  10.527   7.950
 4779POPC   C4A 8142  42.357  10.536   7.650
 4779POPC   C1B 8143  42.122  10.460   8.550
 4779POPC   C2B 8144  42.072  10.429   8.250
 4779POPC   C3B 8145  42.105  10.432   7.950
 4779POPC   C4B 8146  42.057  10.509   7.650
 4780POPC   NC3 8147  31.485  23.735   9.450
 4780POPC   PO4 8148  31.429  23.755   9.150
 4780POPC   GL1 8149  31.437  23.671   8.850
 4780POPC   GL2 8150  31.369  23.659   8.850
 4780POPC   C1A 8151  31.520  23.709   8.550
 4780POPC   D2A 8152  31.499  23.681   8.250
 4780POPC   C3A 8153  31.508  23.700   7.950
 4780POPC   C4A 8154  31.518  23.689   7.650
 4780POPC   C1B 8155  31.267  23.627   8.550
 4780POPC   C2B 8156  31.198  23.633   8.250
 4780POPC   C3B 8157  31.293  23.652   7.950
 4780POPC   C4B 8158  31.261  23.649   7.650
 4781POPC   NC3 8159   5.071  13.597   9.450
 4781POPC   PO4 8160   5.139  13.616   9.150
 4781POPC   GL1 8161   5.078  13.611   8.850
 4781POPC   GL2 8162   5.169  13.563   8.850
 4781POPC   C1A 8163   5.043  13.663   8.550
 4781POPC   D2A 8164   5.067  13.675   8.250
 4781POPC   C3A 8165   5.072  13.628   7.950
 4781POPC   C4A 8166   5.104  13.630   7.650
 4781POPC   C1B 8167   5.222  13.402   8.550
 4781POPC   C2B 8168   5.273  13.373   8.250
 4781POPC   C3B 8169   5.212  13.424   7.950
 4781POPC   C4B 8170   5.193  13.374   7.650
 4782POPC   NC3 8171   4.273  37.639   9.450
 4782POPC   PO4 8172   4.282  37.647   9.150
 4782POPC   GL1 8173   4.313  37.638   8.850
 4782POPC   GL2 8174   4.257  37.513   8.850
 4782POPC   C1A 8175   4.299  37.632   8.550
 4782POPC   D2A 8176   4.353  37.668   8.250
 4782POPC   C3A 8177   4.271  37.698   7.950
 4782POPC   C4A 8178   4.297  37.644   7.650
 4782POPC   C1B 8179   4.270  37.442   8.550
 4782POPC   C2B 8180   4.272  37.431   8.250
 4782POPC   C3B 8181   4.274  37.479   7.950
 4782POPC   C4B 8182   4.288  37.436   7.650
 4783POPC   NC3 8183  39.184  26.778   9.450
 4783POPC   PO4 8184  39.259  26.796   9.150
 4783POPC   GL1 8185  39.205  26.821   8.850
 4783POPC   GL2 8186  39.189  26.697   8.850
 4783POPC   C1A 8187  39.254  26.802   8.550
 4783POPC   D2A 8188  39.271  26.794   8.250
 4783POPC   C3A 8189  39.182  26.858   7.950
 4783POPC   C4A 8190  39.194  26.827   7.650
 4783POPC   C1B 8191  39.064  26.581   8.550
 4783POPC   C2B 8192  39.079  26.605   8.250
 4783POPC   C3B 8193  39.090  26.628   7.950
 4783POPC   C4B 8194  39.061  26.643   7.650
 4784POPC   NC3 8195  35.399   4.293   9.450
 4784POPC   PO4 8196  35.385   4.361   9.150
 4784POPC   GL1 8197  35.338   4.331   8.850
 4784POPC   GL2 8198  35.287   4.383   8.850
 4784POPC   C1A 8199  35.320   4.300   8.550
 4784POPC   D2A 8200  35.389   4.352   8.250
 4784POPC   C3A 8201  35.386   4.296   7.950
 4784POPC   C4A 8202  35.353   4.342   7.650
 4784POPC   C1B 8203  35.122   4.437   8.550
 4784POPC   C2B 8204  35.143   4.379   8.250
 4784POPC   C3B 8205  35.119   4.371   7.950
 4784POPC   C4B 8206  35.172   4.465   7.650
 4785POPC   NC3 8207  38.420  39.196   9.450
 4785POPC   PO4 8208  38.455  39.271   9.150
 4785POPC   GL1 8209  38.433  39.219   8.850
 4785POPC   GL2 8210  38.462  39.374   8.850
 4785POPC   C1A 8211  38.455  39.210   8.550
 4785POPC   D2A 8212  38.483  39.233   8.250
 4785POPC   C3A 8213  38.409  39.264   7.950
 4785POPC   C4A 8214  38.475  39.209   7.650
 4785POPC   C1B 8215  38.527  39.432   8.550
 4785POPC   C2B 8216  38.460  39.494   8.250
 4785POPC   C3B 8217  38.542  39.442   7.950
 4785POPC   C4B 8218  38.519  39.450   7.650
 4786POPC   NC3 8219  22.903   1.169   9.450
 4786POPC   PO4 8220  22.893   1.169   9.150
 4786POPC   GL1 8221  22.904   1.188   8.850
 4786POPC   GL2 8222  22.847   1.209   8.850
 4786POPC   C1A 8223  22.968   1.227   8.550
 4786POPC   D2A 8224  22.920   1.228   8.250
 4786POPC   C3A 8225  22.951   1.230   7.950
 4786POPC   C4A 8226  22.987   1.191   7.650
 4786POPC   C1B 8227  22.695   1.190   8.550
 4786POPC   C2B 8228  22.689   1.193   8.250
 4786POPC   C3B 8229  22.664   1.208   7.950
 4786POPC   C4B 8230  22.683   1.147   7.650
 4787POPC   NC3 8231  27.553  44.625   9.450
 4787POPC   PO4 8232  27.637  44.687   9.150
 4787POPC   GL1 8233  27.635  44.690   8.850
 4787POPC   GL2 8234  27.518  44.635   8.850
 4787POPC   C1A 8235  27.600  44.653   8.550
 4787POPC   D2A 8236  27.573  44.662   8.250
 4787POPC   C3A 8237  27.598  44.620   7.950
 4787POPC   C4A 8238  27.546  44.692   7.650
 4787POPC   C1B 8239  27.329  44.702   8.550
 4787POPC   C2B 8240  27.335  44.731   8.250
 4787POPC   C3B 8241  27.371  44.642   7.950
 4787POPC   C4B 8242  27.378  44.683   7.650
 4788POPC   NC3 8243   7.423   6.687   9.450
 4788POPC   PO4 8244   7.431   6.611   9.150
 4788POPC   GL1 8245   7.445   6.616   8.850
 4788POPC   GL2 8246   7.397   6.713   8.850
 4788POPC   C1A 8247   7.411   6.609   8.550
 4788POPC   D2A 8248   7.380   6.650   8.250
 4788POPC   C3A 8249   7.443   6.680   7.950
 4788POPC   C4A 8250   7.380   6.628   7.650
 4788POPC   C1B 8251   7.305   6.849   8.550
 4788POPC   C2B 8252   7.332   6.923   8.250
 4788POPC   C3B 8253   7.363   6.921   7.950
 4788POPC   C4B 8254   7.351   6.887   7.650
 4789POPC   NC3 8255  33.832  22.981   9.450
 4789POPC   PO4 8256  33.790  22.963   9.150
 4789POPC   GL1 8257  33.753  22.973   8.850
 4789POPC   GL2 8258  33.728  22.838   8.850
 4789POPC   C1A 8259  33.817  22.984   8.550
 4789POPC   D2A 8260  33.817  22.939   8.250
 4789POPC   C3A 8261  33.828  22.890   7.950
 4789POPC   C4A 8262  33.814  22.971   7.650
 4789POPC   C1B 8263  33.588  22.718   8.550
 4789POPC   C2B 8264  33.652  22.790   8.250
 4789POPC   C3B 8265  33.593  22.780   7.950
 4789POPC   C4B 8266  33.590  22.805   7.650
 4790POPC   NC3 8267  30.659  23.714   9.450
 4790POPC   PO4 8268  30.677  23.672   9.150
 4790POPC   GL1 8269  30.702  23.698   8.850
 4790POPC   GL2 8270  30.758  23.669   8.850
 4790POPC   C1A 8271  30.672  23.734   8.550
 4790POPC   D2A 8272  30.686  23.667   8.250
 4790POPC   C3A 8273  30.650  23.723   7.950
 4790POPC   C4A 8274  30.729  23.711   7.650
 4790POPC   C1B 8275  30.852  23.522   8.550
 4790POPC   C2B 8276  30.921  23.569   8.250
 4790POPC   C3B 8277  30.886  23.548   7.950
 4790POPC   C4B 8278  30.852  23.601   7.650
 4791POPC   NC3 8279  15.131  20.627   9.450
 4791POPC   PO4 8280  15.136  20.567   9.150
 4791POPC   GL1 8281  15.196  20.654   8.850
 4791POPC   GL2 8282  15.279  20.617   8.850
 4791POPC   C1A 8283  15.212  20.604   8.550
 4791POPC   D2A 8284  15.164  20.615   8.250
 4791POPC   C3A 8285  15.160  20.567   7.950
 4791POPC   C4A 8286  15.177  20.617   7.650
 4791POPC   C1B 8287  15.388  20.643   8.550
 4791POPC   C2B 8288  15.392  20.653   8.250
 4791POPC   C3B 8289  15.463  20.655   7.950
 4791POPC   C4B 8290  15.462  20.710   7.650
 4792POPC   NC3 8291  29.140  39.211   9.450
 4792POPC   PO4 8292  29.192  39.275   9.150
 4792POPC   GL1 8293  29.189  39.279   8.850
 4792POPC   GL2 8294  29.291  39.244   8.850
 4792POPC   C1A 8295  29.171  39.182   8.550
 4792POPC   D2A 8296  29.135  39.255   8.250
 4792POPC   C3A 8297  29.189  39.206   7.950
 4792POPC   C4A 8298  29.171  39.254   7.650
 4792POPC   C1B 8299  29.350  39.281   8.550
 4792POPC   C2B 8300  29.393  39.328   8.250
 4792POPC   C3B 8301  29.410  39.340   7.950
 4792POPC   C4B 8302  29.386  39.343   7.650
 4793POPC   NC3 8303  34.622  31.452   9.450
 4793POPC   PO4 8304  34.565  31.428   9.150
 4793POPC   GL1 8305  34.622  31.471   8.850
 4793POPC   GL2 8306  34.608  31.525   8.850
 4793POPC   C1A 8307  34.551  31.435   8.550
 4793POPC   D2A 8308  34.564  31.434   8.250
 4793POPC   C3A 8309  34.562  31.486   7.950
 4793POPC   C4A 8310  34.602  31.423   7.650
 4793POPC   C1B 8311  34.721  31.653   8.550
 4793POPC   C2B 8312  34.775  31.631   8.250
 4793POPC   C3B 8313  34.753  31.694   7.950
 4793POPC   C4B 8314  34.707  31.703   7.650
 4794POPC   NC3 8315  26.838  15.145   9.450
 4794POPC   PO4 8316  26.799  15.139   9.150
 4794POPC   GL1 8317  26.797  15.208   8.850
 4794POPC   GL2 8318  26.688  15.244   8.850
 4794POPC   C1A 8319  26.838  15.199   8.550
 4794POPC   D2A 8320  26.858  15.212   8.250
 4794POPC   C3A 8321  26.860  15.208   7.950
 4794POPC   C4A 8322  26.806  15.169   7.650
 4794POPC   C1B 8323  26.595  15.288   8.550
 4794POPC   C2B 8324  26.622  15.280   8.250
 4794POPC   C3B 8325  26.584  15.284   7.950
 4794POPC   C4B 8326  26.613  15.366   7.650
 4795POPC   NC3 8327  42.313  30.703   9.450
 4795POPC   PO4 8328  42.384  30.715   9.150
 4795POPC   GL1 8329  42.315  30.703   8.850
 4795POPC   GL2 8330  42.398  30.548   8.850
 4795POPC   C1A 8331  42.329  30.689   8.550
 4795POPC   D2A 8332  42.309  30.734   8.250
 4795POPC   C3A 8333  42.378  30.717   7.950
 4795POPC   C4A 8334  42.295  30.701   7.650
 4795POPC   C1B 8335  42.350  30.406   8.550
 4795POPC   C2B 8336  42.419  30.483   8.250
 4795POPC   C3B 8337  42.412  30.481   7.950
 4795POPC   C4B 8338  42.411  30.457   7.650
 4796POPC   NC3 8339  44.652   6.666   9.450
 4796POPC   PO4 8340  44.616   6.602   9.150
 4796POPC   GL1 8341  44.700   6.603   8.850
 4796POPC   GL2 8342  44.626   6.531   8.850
 4796POPC   C1A 8343  44.644   6.642   8.550
 4796POPC   D2A 8344  44.686   6.640   8.250
 4796POPC   C3A 8345  44.697   6.663   7.950
 4796POPC   C4A 8346  44.630   6.646   7.650
 4796POPC   C1B 8347  44.575   6.351   8.550
 4796POPC   C2B 8348  44.644   6.374   8.250
 4796POPC   C3B 8349  44.659   6.428   7.950
 4796POPC   C4B 8350  44.621   6.387   7.650
 4797POPC   NC3 8351   2.728   9.773   9.450
 4797POPC   PO4 8352   2.758   9.782   9.150
 4797POPC   GL1 8353   2.773   9.730   8.850
 4797POPC   GL2 8354   2.702   9.592   8.850
 4797POPC   C1A 8355   2.727   9.726   8.550
 4797POPC   D2A 8356   2.747   9.768   8.250
 4797POPC   C3A 8357   2.815   9.727   7.950
 4797POPC   C4A 8358   2.809   9.778   7.650
 4797POPC   C1B 8359   2.680   9.541   8.550
 4797POPC   C2B 8360   2.733   9.507   8.250
 4797POPC   C3B 8361   2.653   9.473   7.950
 4797POPC   C4B 8362   2.713   9.460   7.650
 4798POPC   NC3 8363  31.452  22.162   9.450
 4798POPC   PO4 8364  31.454  22.197   9.150
 4798POPC   GL1 8365  31.455  22.141   8.850
 4798POPC   GL2 8366  31.551  22.248   8.850
 4798POPC   C1A 8367  31.434  22.124   8.550
 4798POPC   D2A 8368  31.442  22.175   8.250
 4798POPC   C3A 8369  31.456  22.114   7.950
 4798POPC   C4A 8370  31.494  22.199   7.650
 4798POPC   C1B 8371  31.632  22.272   8.550
 4798POPC   C2B 8372  31.710  22.315   8.250
 4798POPC   C3B 8373  31.683  22.312   7.950
 4798POPC   C4B 8374  31.635  22.292   7.650
 4799POPC   NC3 8375  21.379   8.981   9.450
 4799POPC   PO4 8376  21.397   8.992   9.150
 4799POPC   GL1 8377  21.345   8.980   8.850
 4799POPC   GL2 8378  21.247   9.025   8.850
 4799POPC   C1A 8379  21.430   9.015   8.550
 4799POPC   D2A 8380  21.348   8.973   8.250
 4799POPC   C3A 8381  21.395   8.957   7.950
 4799POPC   C4A 8382  21.416   8.994   7.650
 4799POPC   C1B 8383  21.134   8.949   8.550
 4799POPC   C2B 8384  21.142   9.009   8.250
 4799POPC   C3B 8385  21.174   9.035   7.950
 4799POPC   C4B 8386  21.153   9.026   7.650
 4800POPC   NC3 8387  31.479   8.220   9.450
 4800POPC   PO4 8388  31.434   8.190   9.150
 4800POPC   GL1 8389  31.482   8.236   8.850
 4800POPC   GL2 8390  31.390   8.078   8.850
 4800POPC   C1A 8391  31.444   8.229   8.550
 4800POPC   D2A 8392  31.432   8.171   8.250
 4800POPC   C3A 8393  31.476   8.183   7.950
 4800POPC   C4A 8394  31.486   8.215   7.650
 4800POPC   C1B 8395  31.411   7.979   8.550
 4800POPC   C2B 8396  31.364   7.932   8.250
 4800POPC   C3B 8397  31.413   7.997   7.950
 4800POPC   C4B 8398  31.429   8.004   7.650
 4801POPC   NC3 8399   3.493  29.131   9.450
 4801POPC   PO4 8400   3.516  29.178   9.150
 4801POPC   GL1 8401   3.550  29.129   8.850
 4801POPC   GL2 8402   3.610  29.245   8.850
 4801POPC   C1A 8403   3.498  29.188   8.550
 4801POPC   D2A 8404   3.514  29.178   8.250
 4801POPC   C3A 8405   3.532  29.117   7.950
 4801POPC   C4A 8406   3.569  29.189   7.650
 4801POPC   C1B 8407   3.756  29.221   8.550
 4801POPC   C2B 8408   3.749  29.311   8.250
 4801POPC   C3B 8409   3.770  29.312   7.950
 4801POPC   C4B 8410   3.745  29.254   7.650
 4802POPC   NC3 8411   8.165   8.926   9.450
 4802POPC   PO4 8412   8.235   8.982   9.150
 4802POPC   GL1 8413   8.159   8.931   8.850
 4802POPC   GL2 8414   8.269   8.847   8.850
 4802POPC   C1A 8415   8.202   8.958   8.550
 4802POPC   D2A 8416   8.202   8.980   8.250
 4802POPC   C3A 8417   8.229   8.945   7.950
 4802POPC   C4A 8418   8.181   8.966   7.650
 4802POPC   C1B 8419   8.303   8.779   8.550
 4802POPC   C2B 8420   8.346   8.775   8.250
 4802POPC   C3B 8421   8.347   8.759   7.950
 4802POPC   C4B 8422   8.345   8.726   7.650
 4803POPC   NC3 8423  17.471  33.029   9.450
 4803POPC   PO4 8424  17.500  33.021   9.150
 4803POPC   GL1 8425  17.514  33.070   8.850
 4803POPC   GL2 8426  17.516  33.184   8.850
 4803POPC   C1A 8427  17.541  33.046   8.550
 4803POPC   D2A 8428  17.516  33.058   8.250
 4803POPC   C3A 8429  17.490  32.980   7.950
 4803POPC   C4A 8430  17.474  33.061   7.650
 4803POPC   C1B 8431  17.461  33.223   8.550
 4803POPC   C2B 8432  17.492  33.268   8.250
 4803POPC   C3B 8433  17.426  33.226   7.950
 4803POPC   C4B 8434  17.440  33.281   7.650
 4804POPC   NC3 8435  22.984  22.975   9.450
 4804POPC   PO4 8436  22.934  22.973   9.150
 4804POPC   GL1 8437  22.973  22.976   8.850
 4804POPC   GL2 8438  23.061  22.914   8.850
 4804POPC   C1A 8439  22.897  22.940   8.550
 4804POPC   D2A 8440  22.889  22.982   8.250
 4804POPC   C3A 8441  22.957  22.984   7.950
 4804POPC   C4A 8442  22.964  22.916   7.650
 4804POPC   C1B 8443  23.194  22.939   8.550
 4804POPC   C2B 8444  23.226  22.872   8.250
 4804POPC   C3B 8445  23.206  22.892   7.950
 4804POPC   C4B 8446  23.169  22.862   7.650
 4805POPC   NC3 8447   5.887  19.853   9.450
 4805POPC   PO4 8448   5.846  19.815   9.150
 4805POPC   GL1 8449   5.886  19.861   8.850
 4805POPC   GL2 8450   5.768  19.845   8.850
 4805POPC   C1A 8451   5.881  19.817   8.550
 4805POPC   D2A 8452   5.830  19.819   8.250
 4805POPC   C3A 8453   5.859  19.819   7.950
 4805POPC   C4A 8454   5.873  19.851   7.650
 4805POPC   C1B 8455   5.670  19.914   8.550
 4805POPC   C2B 8456   5.658  19.859   8.250
 4805POPC   C3B 8457   5.594  19.905   7.950
 4805POPC   C4B 8458   5.596  19.831   7.650
 4806POPC   NC3 8459  43.933   8.971   9.450
 4806POPC   PO4 8460  43.859   8.980   9.150
 4806POPC   GL1 8461  43.842   8.974   8.850
 4806POPC   GL2 8462  43.918   9.028   8.850
 4806POPC   C1A 8463  43.865   9.012   8.550
 4806POPC   D2A 8464  43.861   8.984   8.250
 4806POPC   C3A 8465  43.924   8.989   7.950
 4806POPC   C4A 8466  43.928   8.940   7.650
 4806POPC   C1B 8467  44.011   9.202   8.550
 4806POPC   C2B 8468  44.047   9.138   8.250
 4806POPC   C3B 8469  44.070   9.155   7.950
 4806POPC   C4B 8470  44.030   9.187   7.650
 4807POPC   NC3 8471  39.212  22.191   9.450
 4807POPC   PO4 8472  39.262  22.140   9.150
 4807POPC   GL1 8473  39.192  22.187   8.850
 4807POPC   GL2 8474  39.190  22.048   8.850
 4807POPC   C1A 8475  39.240  22.115   8.550
 4807POPC   D2A 8476  39.233  22.178   8.250
 4807POPC   C3A 8477  39.196  22.169   7.950
 4807POPC   C4A 8478  39.275  22.148   7.650
 4807POPC   C1B 8479  39.102  21.991   8.550
 4807POPC   C2B 8480  39.086  21.963   8.250
 4807POPC   C3B 8481  39.055  21.977   7.950
 4807POPC   C4B 8482  39.020  22.026   7.650
 4808POPC   NC3 8483  33.760  31.505   9.450
 4808POPC   PO4 8484  33.814  31.485   9.150
 4808POPC   GL1 8485  33.833  31.492   8.850
 4808POPC   GL2 8486  33.739  31.373   8.850
 4808POPC   C1A 8487  33.769  31.512   8.550
 4808POPC   D2A 8488  33.763  31.507   8.250
 4808POPC   C3A 8489  33.796  31.438   7.950
 4808POPC   C4A 8490  33.787  31.517   7.650
 4808POPC   C1B 8491  33.748  31.196   8.550
 4808POPC   C2B 8492  33.732  31.219   8.250
 4808POPC   C3B 8493  33.731  31.253   7.950
 4808POPC   C4B 8494  33.706  31.267   7.650
 4809POPC   NC3 8495  34.601   5.903   9.450
 4809POPC   PO4 8496  34.566   5.915   9.150
 4809POPC   GL1 8497  34.554   5.893   8.850
 4809POPC   GL2 8498  34.619   5.776   8.850
 4809POPC   C1A 8499  34.616   5.879   8.550
 4809POPC   D2A 8500  34.598   5.832   8.250
 4809POPC   C3A 8501  34.575   5.897   7.950
 4809POPC   C4A 8502  34.539   5.846   7.650
 4809POPC   C1B 8503  34.722   5.707   8.550
 4809POPC   C2B 8504  34.742   5.683   8.250
 4809POPC   C3B 8505  34.726   5.640   7.950
 4809POPC   C4B 8506  34.700   5.659   7.650
 4810POPC   NC3 8507   8.943   5.896   9.450
 4810POPC   PO4 8508   8.958   5.897   9.150
 4810POPC   GL1 8509   9.009   5.898   8.850
 4810POPC   GL2 8510   8.900   5.703   8.850
 4810POPC   C1A 8511   8.985   5.889   8.550
 4810POPC   D2A 8512   8.999   5.867   8.250
 4810POPC   C3A 8513   8.936   5.842   7.950
 4810POPC   C4A 8514   8.928   5.884   7.650
 4810POPC   C1B 8515   8.870   5.585   8.550
 4810POPC   C2B 8516   8.908   5.676   8.250
 4810POPC   C3B 8517   8.887   5.598   7.950
 4810POPC   C4B 8518   8.948   5.666   7.650
 4811POPC   NC3 8519  39.228  28.366   9.450
 4811POPC   PO4 8520  39.210  28.369   9.150
 4811POPC   GL1 8521  39.240  28.356   8.850
 4811POPC   GL2 8522  39.347  28.397   8.850
 4811POPC   C1A 8523  39.250  28.354   8.550
 4811POPC   D2A 8524  39.243  28.371   8.250
 4811POPC   C3A 8525  39.211  28.326   7.950
 4811POPC   C4A 8526  39.273  28.362   7.650
 4811POPC   C1B 8527  39.521  28.363   8.550
 4811POPC   C2B 8528  39.448  28.340   8.250
 4811POPC   C3B 8529  39.476  28.385   7.950
 4811POPC   C4B 8530  39.439  28.340   7.650
 4812POPC   NC3 8531  38.431  44.674   9.450
 4812POPC   PO4 8532  38.435  44.667   9.150
 4812POPC   GL1 8533  38.462  44.698   8.850
 4812POPC   GL2 8534  38.419  44.567   8.850
 4812POPC   C1A 8535  38.425  44.692   8.550
 4812POPC   D2A 8536  38.493  44.697   8.250
 4812POPC   C3A 8537  38.432  44.642   7.950
 4812POPC   C4A 8538  38.456  44.706   7.650
 4812POPC   C1B 8539  38.483  44.439   8.550
 4812POPC   C2B 8540  38.492  44.454   8.250
 4812POPC   C3B 8541  38.488  44.458   7.950
 4812POPC   C4B 8542  38.489  44.414   7.650
 4813POPC   NC3 8543   6.647  29.955   9.450
 4813POPC   PO4 8544   6.614  29.952   9.150
 4813POPC   GL1 8545   6.661  29.928   8.850
 4813POPC   GL2 8546   6.785  29.996   8.850
 4813POPC   C1A 8547   6.608  29.935   8.550
 4813POPC   D2A 8548   6.663  29.895   8.250
 4813POPC   C3A 8549   6.666  29.965   7.950
 4813POPC   C4A 8550   6.647  29.890   7.650
 4813POPC   C1B 8551   6.830  29.973   8.550
 4813POPC   C2B 8552   6.889  29.974   8.250
 4813POPC   C3B 8553   6.867  30.068   7.950
 4813POPC   C4B 8554   6.884  30.007   7.650
 4814POPC   NC3 8555  16.692  42.311   9.450
 4814POPC   PO4 8556  16.778  42.359   9.150
 4814POPC   GL1 8557  16.721  42.304   8.850
 4814POPC   GL2 8558  16.563  42.367   8.850
 4814POPC   C1A 8559  16.775  42.291   8.550
 4814POPC   D2A 8560  16.739  42.382   8.250
 4814POPC   C3A 8561  16.728  42.379   7.950
 4814POPC   C4A 8562  16.701  42.331   7.650
 4814POPC   C1B 8563  16.529  42.322   8.550
 4814POPC   C2B 8564  16.475  42.283   8.250
 4814POPC   C3B 8565  16.461  42.307   7.950
 4814POPC   C4B 8566  16.473  42.326   7.650
 4815POPC   NC3 8567  16.728  12.039   9.450
 4815POPC   PO4 8568  16.755  12.111   9.150
 4815POPC   GL1 8569  16.694  12.112   8.850
 4815POPC   GL2 8570  16.787  12.142   8.850
 4815POPC   C1A 8571  16.712  12.072   8.550
 4815POPC   D2A 8572  16.685  12.121   8.250
 4815POPC   C3A 8573  16.685  12.050   7.950
 4815POPC   C4A 8574  16.736  12.105   7.650
 4815POPC   C1B 8575  16.905  12.192   8.550
 4815POPC   C2B 8576  16.913  12.200   8.250
 4815POPC   C3B 8577  16.944  12.220   7.950
 4815POPC   C4B 8578  16.957  12.222   7.650
 4816POPC   NC3 8579  20.620  26.005   9.450
 4816POPC   PO4 8580  20.597  25.994   9.150
 4816POPC   GL1 8581  20.614  26.034   8.850
 4816POPC   GL2 8582  20.438  26.026   8.850
 4816POPC   C1A 8583  20.597  26.021   8.550
 4816POPC   D2A 8584  20.655  25.993   8.250
 4816POPC   C3A 8585  20.567  26.068   7.950
 4816POPC   C4A 8586  20.581  26.021   7.650
 4816POPC   C1B 8587  20.379  25.983   8.550
 4816POPC   C2B 8588  20.348  26.063   8.250
 4816POPC   C3B 8589  20.405  25.999   7.950
 4816POPC   C4B 8590  20.332  26.022   7.650
 4817POPC   NC3 8591  15.917  27.553   9.450
 4817POPC   PO4 8592  15.926  27.616   9.150
 4817POPC   GL1 8593  15.956  27.588   8.850
 4817POPC   GL2 8594  15.802  27.518   8.850
 4817POPC   C1A 8595  15.936  27.551   8.550
 4817POPC   D2A 8596  15.955  27.563   8.250
 4817POPC   C3A 8597  15.986  27.569   7.950
 4817POPC   C4A 8598  15.958  27.546   7.650
 4817POPC   C1B 8599  15.740  27.484   8.550
 4817POPC   C2B 8600  15.726  27.416   8.250
 4817POPC   C3B 8601  15.787  27.469   7.950
 4817POPC   C4B 8602  15.774  27.463   7.650
 4818POPC   NC3 8603   4.365   8.213   9.450
 4818POPC   PO4 8604   4.304   8.241   9.150
 4818POPC   GL1 8605   4.306   8.165   8.850
 4818POPC   GL2 8606   4.197   8.266   8.850
 4818POPC   C1A 8607   4.324   8.221   8.550
 4818POPC   D2A 8608   4.286   8.201   8.250
 4818POPC   C3A 8609   4.360   8.162   7.950
 4818POPC   C4A 8610   4.345   8.157   7.650
 4818POPC   C1B 8611   4.086   8.251   8.550
 4818POPC   C2B 8612   4.119   8.220   8.250
 4818POPC   C3B 8613   4.049   8.227   7.950
 4818POPC   C4B 8614   4.119   8.299   7.650
 4819POPC   NC3 8615  36.905  44.652   9.450
 4819POPC   PO4 8616  36.885  44.672   9.150
 4819POPC   GL1 8617  36.897  44.706   8.850
 4819POPC   GL2 8618  36.736  44.669   8.850
 4819POPC   C1A 8619  36.925  44.679   8.550
 4819POPC   D2A 8620  36.931  44.682   8.250
 4819POPC   C3A 8621  36.919  44.650   7.950
 4819POPC   C4A 8622  36.912  44.631   7.650
 4819POPC   C1B 8623  36.708  44.627   8.550
 4819POPC   C2B 8624  36.623  44.612   8.250
 4819POPC   C3B 8625  36.689  44.648   7.950
 4819POPC   C4B 8626  36.665  44.556   7.650
 4820POPC   NC3 8627  33.795  42.366   9.450
 4820POPC   PO4 8628  33.795  42.342   9.150
 4820POPC   GL1 8629  33.846  42.329   8.850
 4820POPC   GL2 8630  33.669  42.302   8.850
 4820POPC   C1A 8631  33.841  42.313   8.550
 4820POPC   D2A 8632  33.768  42.296   8.250
 4820POPC   C3A 8633  33.813  42.340   7.950
 4820POPC   C4A 8634  33.821  42.319   7.650
 4820POPC   C1B 8635  33.546  42.328   8.550
 4820POPC   C2B 8636  33.521  42.290   8.250
 4820POPC   C3B 8637  33.550  42.366   7.950
 4820POPC   C4B 8638  33.510  42.274   7.650
 4821POPC   NC3 8639  24.463  43.880   9.450
 4821POPC   PO4 8640  24.471  43.863   9.150
 4821POPC   GL1 8641  24.465  43.912   8.850
 4821POPC   GL2 8642  24.401  43.782   8.850
 4821POPC   C1A 8643  24.517  43.842   8.550
 4821POPC   D2A 8644  24.480  43.902   8.250
 4821POPC   C3A 8645  24.476  43.883   7.950
 4821POPC   C4A 8646  24.494  43.848   7.650
 4821POPC   C1B 8647  24.364  43.736   8.550
 4821POPC   C2B 8648  24.336  43.728   8.250
 4821POPC   C3B 8649  24.295  43.685   7.950
 4821POPC   C4B 8650  24.364  43.712   7.650
 4822POPC   NC3 8651  34.605  39.975   9.450
 4822POPC   PO4 8652  34.603  39.969   9.150
 4822POPC   GL1 8653  34.593  39.967   8.850
 4822POPC   GL2 8654  34.449  40.024   8.850
 4822POPC   C1A 8655  34.622  40.028   8.550
 4822POPC   D2A 8656  34.547  40.045   8.250
 4822POPC   C3A 8657  34.576  40.023   7.950
 4822POPC   C4A 8658  34.614  40.049   7.650
 4822POPC   C1B 8659  34.354  40.098   8.550
 4822POPC   C2B 8660  34.314  40.097   8.250
 4822POPC   C3B 8661  34.377  40.104   7.950
 4822POPC   C4B 8662  34.383  40.122   7.650
 4823POPC   NC3 8663   6.626  40.806   9.450
 4823POPC   PO4 8664   6.664  40.738   9.150
 4823POPC   GL1 8665   6.680  40.755   8.850
 4823POPC   GL2 8666   6.524  40.680   8.850
 4823POPC   C1A 8667   6.659  40.783   8.550
 4823POPC   D2A 8668   6.612  40.792   8.250
 4823POPC   C3A 8669   6.645  40.769   7.950
 4823POPC   C4A 8670   6.663  40.761   7.650
 4823POPC   C1B 8671   6.490  40.584   8.550
 4823POPC   C2B 8672   6.533  40.534   8.250
 4823POPC   C3B 8673   6.472  40.548   7.950
 4823POPC   C4B 8674   6.534  40.578   7.650
 4824POPC   NC3 8675   1.239  17.525   9.450
 4824POPC   PO4 8676   1.247  17.552   9.150
 4824POPC   GL1 8677   1.233  17.475   8.850
 4824POPC   GL2 8678   1.310  17.604   8.850
 4824POPC   C1A 8679   1.218  17.551   8.550
 4824POPC   D2A 8680   1.249  17.498   8.250
 4824POPC   C3A 8681   1.213  17.539   7.950
 4824POPC   C4A 8682   1.254  17.504   7.650
 4824POPC   C1B 8683   1.436  17.659   8.550
 4824POPC   C2B 8684   1.449  17.585   8.250
 4824POPC   C3B 8685   1.398  17.666   7.950
 4824POPC   C4B 8686   1.435  17.653   7.650
 4825POPC   NC3 8687  22.196  34.590   9.450
 4825POPC   PO4 8688  22.143  34.613   9.150
 4825POPC   GL1 8689  22.128  34.571   8.850
 4825POPC   GL2 8690  22.275  34.516   8.850
 4825POPC   C1A 8691  22.135  34.530   8.550
 4825POPC   D2A 8692  22.117  34.552   8.250
 4825POPC   C3A 8693  22.206  34.571   7.950
 4825POPC   C4A 8694  22.121  34.532   7.650
 4825POPC   C1B 8695  22.344  34.393   8.550
 4825POPC   C2B 8696  22.335  34.469   8.250
 4825POPC   C3B 8697  22.414  34.415   7.950
 4825POPC   C4B 8698  22.412  34.462   7.650
 4826POPC   NC3 8699   6.605  22.933   9.450
 4826POPC   PO4 8700   6.686  22.976   9.150
 4826POPC   GL1 8701   6.649  22.931   8.850
 4826POPC   GL2 8702   6.693  22.853   8.850
 4826POPC   C1A 8703   6.653  22.914   8.550
 4826POPC   D2A 8704   6.598  22.920   8.250
 4826POPC   C3A 8705   6.625  22.905   7.950
 4826POPC   C4A 8706   6.610  22.988   7.650
 4826POPC   C1B 8707   6.705  22.739   8.550
 4826POPC   C2B 8708   6.713  22.729   8.250
 4826POPC   C3B 8709   6.715  22.702   7.950
 4826POPC   C4B 8710   6.727  22.669   7.650
 4827POPC   NC3 8711  30.676  43.855   9.450
 4827POPC   PO4 8712  30.680  43.862   9.150
 4827POPC   GL1 8713  30.690  43.892   8.850
 4827POPC   GL2 8714  30.654  44.015   8.850
 4827POPC   C1A 8715  30.678  43.859   8.550
 4827POPC   D2A 8716  30.709  43.870   8.250
 4827POPC   C3A 8717  30.716  43.899   7.950
 4827POPC   C4A 8718  30.712  43.923   7.650
 4827POPC   C1B 8719  30.533  44.060   8.550
 4827POPC   C2B 8720  30.558  44.129   8.250
 4827POPC   C3B 8721  30.594  44.133   7.950
 4827POPC   C4B 8722  30.519  44.077   7.650
 4828POPC   NC3 8723  11.312   7.385   9.450
 4828POPC   PO4 8724  11.308   7.461   9.150
 4828POPC   GL1 8725  11.261   7.434   8.850
 4828POPC   GL2 8726  11.221   7.370   8.850
 4828POPC   C1A 8727  11.261   7.394   8.550
 4828POPC   D2A 8728  11.342   7.394   8.250
 4828POPC   C3A 8729  11.343   7.399   7.950
 4828POPC   C4A 8730  11.295   7.385   7.650
 4828POPC   C1B 8731  11.157   7.185   8.550
 4828POPC   C2B 8732  11.133   7.230   8.250
 4828POPC   C3B 8733  11.192   7.244   7.950
 4828POPC   C4B 8734  11.112   7.212   7.650
 4829POPC   NC3 8735   9.748   5.906   9.450
 4829POPC   PO4 8736   9.790   5.833   9.150
 4829POPC   GL1 8737   9.752   5.917   8.850
 4829POPC   GL2 8738   9.865   5.783   8.850
 4829POPC   C1A 8739   9.722   5.842   8.550
 4829POPC   D2A 8740   9.761   5.836   8.250
 4829POPC   C3A 8741   9.745   5.861   7.950
 4829POPC   C4A 8742   9.722   5.880   7.650
 4829POPC   C1B 8743   9.972   5.723   8.550
 4829POPC   C2B 8744   9.950   5.702   8.250
 4829POPC   C3B 8745   9.927   5.693   7.950
 4829POPC   C4B 8746  10.004   5.778   7.650
 4830POPC   NC3 8747  26.769  43.149   9.450
 4830POPC   PO4 8748  26.813  43.093   9.150
 4830POPC   GL1 8749  26.843  43.133   8.850
 4830POPC   GL2 8750  26.697  43.025   8.850
 4830POPC   C1A 8751  26.779  43.157   8.550
 4830POPC   D2A 8752  26.861  43.129   8.250
 4830POPC   C3A 8753  26.802  43.090   7.950
 4830POPC   C4A 8754  26.836  43.154   7.650
 4830POPC   C1B 8755  26.558  43.001   8.550
 4830POPC   C2B 8756  26.593  42.950   8.250
 4830POPC   C3B 8757  26.591  42.977   7.950
 4830POPC   C4B 8758  26.642  43.040   7.650
 4831POPC   NC3 8759  38.498  21.428   9.450
 4831POPC   PO4 8760  38.420  21.413   9.150
 4831POPC   GL1 8761  38.438  21.343   8.850
 4831POPC   GL2 8762  38.376  21.422   8.850
 4831POPC   C1A 8763  38.437  21.408   8.550
 4831POPC   D2A 8764  38.455  21.422   8.250
 4831POPC   C3A 8765  38.408  21.433   7.950
 4831POPC   C4A 8766  38.429  21.379   7.650
 4831POPC   C1B 8767  38.228  21.504   8.550
 4831POPC   C2B 8768  38.282  21.535   8.250
 4831POPC   C3B 8769  38.219  21.555   7.950
 4831POPC   C4B 8770  38.202  21.559   7.650
 4832POPC   NC3 8771   7.403  26.076   9.450
 4832POPC   PO4 8772   7.456  26.081   9.150
 4832POPC   GL1 8773   7.393  26.059   8.850
 4832POPC   GL2 8774   7.355  26.069   8.850
 4832POPC   C1A 8775   7.451  26.004   8.550
 4832POPC   D2A 8776   7.379  25.992   8.250
 4832POPC   C3A 8777   7.456  26.091   7.950
 4832POPC   C4A 8778   7.427  26.069   7.650
 4832POPC   C1B 8779   7.195  26.121   8.550
 4832POPC   C2B 8780   7.229  26.178   8.250
 4832POPC   C3B 8781   7.157  26.186   7.950
 4832POPC   C4B 8782   7.146  26.168   7.650
 4833POPC   NC3 8783  22.206  36.081   9.450
 4833POPC   PO4 8784  22.196  36.085   9.150
 4833POPC   GL1 8785  22.195  36.107   8.850
 4833POPC   GL2 8786  22.039  36.195   8.850
 4833POPC   C1A 8787  22.203  36.091   8.550
 4833POPC   D2A 8788  22.133  36.105   8.250
 4833POPC   C3A 8789  22.184  36.116   7.950
 4833POPC   C4A 8790  22.192  36.125   7.650
 4833POPC   C1B 8791  21.921  36.198   8.550
 4833POPC   C2B 8792  21.876  36.210   8.250
 4833POPC   C3B 8793  21.890  36.122   7.950
 4833POPC   C4B 8794  21.873  36.188   7.650
 4834POPC   NC3 8795   8.945   6.667   9.450
 4834POPC   PO4 8796   9.011   6.619   9.150
 4834POPC   GL1 8797   8.979   6.686   8.850
 4834POPC   GL2 8798   9.025   6.539   8.850
 4834POPC   C1A 8799   8.971   6.599   8.550
 4834POPC   D2A 8800   8.989   6.657   8.250
 4834POPC   C3A 8801   8.950   6.640   7.950
 4834POPC   C4A 8802   9.008   6.682   7.650
 4834POPC   C1B 8803   9.057   6.392   8.550
 4834POPC   C2B 8804   9.063   6.426   8.250
 4834POPC   C3B 8805   9.107   6.446   7.950
 4834POPC   C4B 8806   9.053   6.459   7.650
 4835POPC   NC3 8807  22.144  13.663   9.450
 4835POPC   PO4 8808  22.205  13.657   9.150
 4835POPC   GL1 8809  22.166  13.618   8.850
 4835POPC   GL2 8810  22.038  13.570   8.850
 4835POPC   C1A 8811  22.188  13.665   8.550
 4835POPC   D2A 8812  22.185  13.666   8.250
 4835POPC   C3A 8813  22.202  13.641   7.950
 4835POPC   C4A 8814  22.198  13.603   7.650
 4835POPC   C1B 8815  21.946  13.586   8.550
 4835POPC   C2B 8816  21.900  13.576   8.250
 4835POPC   C3B 8817  21.921  13.556   7.950
 4835POPC   C4B 8818  21.921  13.588   7.650
 4836POPC   NC3 8819  24.482  25.997   9.450
 4836POPC   PO4 8820  24.496  26.087   9.150
 4836POPC   GL1 8821  24.447  26.079   8.850
 4836POPC   GL2 8822  24.450  25.932   8.850
 4836POPC   C1A 8823  24.476  26.063   8.550
 4836POPC   D2A 8824  24.465  26.064   8.250
 4836POPC   C3A 8825  24.469  26.021   7.950
 4836POPC   C4A 8826  24.472  26.007   7.650
 4836POPC   C1B 8827  24.377  25.829   8.550
 4836POPC   C2B 8828  24.380  25.850   8.250
 4836POPC   C3B 8829  24.291  25.874   7.950
 4836POPC   C4B 8830  24.307  25.807   7.650
 4837POPC   NC3 8831  22.949  12.042   9.450
 4837POPC   PO4 8832  22.986  12.102   9.150
 4837POPC   GL1 8833  22.924  12.119   8.850
 4837POPC   GL2 8834  23.027  12.149   8.850
 4837POPC   C1A 8835  22.936  12.027   8.550
 4837POPC   D2A 8836  22.918  12.106   8.250
 4837POPC   C3A 8837  22.892  12.125   7.950
 4837POPC   C4A 8838  22.918  12.106   7.650
 4837POPC   C1B 8839  23.216  12.175   8.550
 4837POPC   C2B 8840  23.140  12.145   8.250
 4837POPC   C3B 8841  23.197  12.173   7.950
 4837POPC   C4B 8842  23.208  12.186   7.650
 4838POPC   NC3 8843  14.438   9.716   9.450
 4838POPC   PO4 8844  14.387   9.777   9.150
 4838POPC   GL1 8845  14.406   9.770   8.850
 4838POPC   GL2 8846  14.430   9.913   8.850
 4838POPC   C1A 8847  14.395   9.745   8.550
 4838POPC   D2A 8848  14.437   9.723   8.250
 4838POPC   C3A 8849  14.453   9.713   7.950
 4838POPC   C4A 8850  14.439   9.746   7.650
 4838POPC   C1B 8851  14.419   9.998   8.550
 4838POPC   C2B 8852  14.345  10.031   8.250
 4838POPC   C3B 8853  14.385  10.000   7.950
 4838POPC   C4B 8854  14.362  10.041   7.650
 4839POPC   NC3 8855  37.697   0.434   9.450
 4839POPC   PO4 8856  37.642   0.404   9.150
 4839POPC   GL1 8857  37.677   0.392   8.850
 4839POPC   GL2 8858  37.843   0.461   8.850
 4839POPC   C1A 8859  37.682   0.432   8.550
 4839POPC   D2A 8860  37.729   0.469   8.250
 4839POPC   C3A 8861  37.648   0.478   7.950
 4839POPC   C4A 8862  37.632   0.417   7.650
 4839POPC   C1B 8863  37.961   0.426   8.550
 4839POPC   C2B 8864  37.964   0.451   8.250
 4839POPC   C3B 8865  37.937   0.462   7.950
 4839POPC   C4B 8866  37.946   0.401   7.650
 4840POPC   NC3 8867  26.054  24.447   9.450
 4840POPC   PO4 8868  26.022  24.475   9.150
 4840POPC   GL1 8869  26.082  24.455   8.850
 4840POPC   GL2 8870  26.156  24.547   8.850
 4840POPC   C1A 8871  26.021  24.479   8.550
 4840POPC   D2A 8872  26.031  24.504   8.250
 4840POPC   C3A 8873  26.036  24.497   7.950
 4840POPC   C4A 8874  26.090  24.499   7.650
 4840POPC   C1B 8875  26.185  24.654   8.550
 4840POPC   C2B 8876  26.232  24.717   8.250
 4840POPC   C3B 8877  26.183  24.641   7.950
 4840POPC   C4B 8878  26.206  24.653   7.650
 4841POPC   NC3 8879  36.176  43.934   9.450
 4841POPC   PO4 8880  36.078  43.913   9.150
 4841POPC   GL1 8881  36.112  43.863   8.850
 4841POPC   GL2 8882  36.257  43.928   8.850
 4841POPC   C1A 8883  36.086  43.886   8.550
 4841POPC   D2A 8884  36.101  43.922   8.250
 4841POPC   C3A 8885  36.080  43.877   7.950
 4841POPC   C4A 8886  36.120  43.920   7.650
 4841POPC   C1B 8887  36.392  43.907   8.550
 4841POPC   C2B 8888  36.408  43.925   8.250
 4841POPC   C3B 8889  36.391  43.968   7.950
 4841POPC   C4B 8890  36.376  43.890   7.650
 4842POPC   NC3 8891  18.276  32.248   9.450
 4842POPC   PO4 8892  18.265  32.277   9.150
 4842POPC   GL1 8893  18.283  32.264   8.850
 4842POPC   GL2 8894  18.216  32.112   8.850
 4842POPC   C1A 8895  18.260  32.199   8.550
 4842POPC   D2A 8896  18.292  32.250   8.250
 4842POPC   C3A 8897  18.302  32.280   7.950
 4842POPC   C4A 8898  18.236  32.226   7.650
 4842POPC   C1B 8899  18.196  32.064   8.550
 4842POPC   C2B 8900  18.142  32.009   8.250
 4842POPC   C3B 8901  18.176  32.025   7.950
 4842POPC   C4B 8902  18.188  32.040   7.650
 4843POPC   NC3 8903   3.544   9.002   9.450
 4843POPC   PO4 8904   3.545   8.970   9.150
 4843POPC   GL1 8905   3.520   8.923   8.850
 4843POPC   GL2 8906   3.401   9.016   8.850
 4843POPC   C1A 8907   3.533   8.955   8.550
 4843POPC   D2A 8908   3.506   8.991   8.250
 4843POPC   C3A 8909   3.578   9.013   7.950
 4843POPC   C4A 8910   3.509   8.971   7.650
 4843POPC   C1B 8911   3.304   9.018   8.550
 4843POPC   C2B 8912   3.324   9.019   8.250
 4843POPC   C3B 8913   3.348   9.010   7.950
 4843POPC   C4B 8914   3.296   9.048   7.650
 4844POPC   NC3 8915  29.177  29.146   9.450
 4844POPC   PO4 8916  29.164  29.147   9.150
 4844POPC   GL1 8917  29.124  29.099   8.850
 4844POPC   GL2 8918  29.245  29.040   8.850
 4844POPC   C1A 8919  29.147  29.143   8.550
 4844POPC   D2A 8920  29.154  29.109   8.250
 4844POPC   C3A 8921  29.167  29.119   7.950
 4844POPC   C4A 8922  29.108  29.107   7.650
 4844POPC   C1B 8923  29.281  29.001   8.550
 4844POPC   C2B 8924  29.287  28.992   8.250
 4844POPC   C3B 8925  29.329  28.945   7.950
 4844POPC   C4B 8926  29.284  28.937   7.650
 4845POPC   NC3 8927  26.828   4.360   9.450
 4845POPC   PO4 8928  26.827   4.356   9.150
 4845POPC   GL1 8929  26.827   4.291   8.850
 4845POPC   GL2 8930  26.832   4.466   8.850
 4845POPC   C1A 8931  26.785   4.337   8.550
 4845POPC   D2A 8932  26.787   4.359   8.250
 4845POPC   C3A 8933  26.826   4.321   7.950
 4845POPC   C4A 8934  26.828   4.358   7.650
 4845POPC   C1B 8935  26.903   4.549   8.550
 4845POPC   C2B 8936  26.860   4.570   8.250
 4845POPC   C3B 8937  26.915   4.519   7.950
 4845POPC   C4B 8938  26.893   4.558   7.650
 4846POPC   NC3 8939  22.135  24.467   9.450
 4846POPC   PO4 8940  22.161  24.507   9.150
 4846POPC   GL1 8941  22.133  24.538   8.850
 4846POPC   GL2 8942  22.018  24.438   8.850
 4846POPC   C1A 8943  22.210  24.469   8.550
 4846POPC   D2A 8944  22.194  24.508   8.250
 4846POPC   C3A 8945  22.130  24.482   7.950
 4846POPC   C4A 8946  22.176  24.478   7.650
 4846POPC   C1B 8947  21.959  24.364   8.550
 4846POPC   C2B 8948  21.977  24.366   8.250
 4846POPC   C3B 8949  21.930  24.408   7.950
 4846POPC   C4B 8950  21.897  24.439   7.650
 4847POPC   NC3 8951   6.666  15.164   9.450
 4847POPC   PO4 8952   6.671  15.202   9.150
 4847POPC   GL1 8953   6.606  15.160   8.850
 4847POPC   GL2 8954   6.525  15.076   8.850
 4847POPC   C1A 8955   6.638  15.188   8.550
 4847POPC   D2A 8956   6.615  15.130   8.250
 4847POPC   C3A 8957   6.672  15.180   7.950
 4847POPC   C4A 8958   6.633  15.183   7.650
 4847POPC   C1B 8959   6.478  15.015   8.550
 4847POPC   C2B 8960   6.427  15.001   8.250
 4847POPC   C3B 8961   6.454  15.006   7.950
 4847POPC   C4B 8962   6.439  15.019   7.650
 4848POPC   NC3 8963   7.397  20.630   9.450
 4848POPC   PO4 8964   7.410  20.630   9.150
 4848POPC   GL1 8965   7.414  20.588   8.850
 4848POPC   GL2 8966   7.340  20.639   8.850
 4848POPC   C1A 8967   7.399  20.639   8.550
 4848POPC   D2A 8968   7.403  20.579   8.250
 4848POPC   C3A 8969   7.394  20.627   7.950
 4848POPC   C4A 8970   7.385  20.633   7.650
 4848POPC   C1B 8971   7.194  20.679   8.550
 4848POPC   C2B 8972   7.171  20.657   8.250
 4848POPC   C3B 8973   7.200  20.696   7.950
 4848POPC   C4B 8974   7.138  20.676   7.650
 4849POPC   NC3 8975  25.277   1.963   9.450
 4849POPC   PO4 8976  25.293   1.961   9.150
 4849POPC   GL1 8977  25.235   1.989   8.850
 4849POPC   GL2 8978  25.206   2.100   8.850
 4849POPC   C1A 8979  25.286   2.039   8.550
 4849POPC   D2A 8980  25.258   1.989   8.250
 4849POPC   C3A 8981  25.297   1.989   7.950
 4849POPC   C4A 8982  25.305   2.031   7.650
 4849POPC   C1B 8983  25.149   2.194   8.550
 4849POPC   C2B 8984  25.123   2.183   8.250
 4849POPC   C3B 8985  25.175   2.243   7.950
 4849POPC   C4B 8986  25.149   2.171   7.650
 4850POPC   NC3 8987  43.108  37.714   9.450
 4850POPC   PO4 8988  43.147  37.640   9.150
 4850POPC   GL1 8989  43.064  37.675   8.850
 4850POPC   GL2 8990  43.054  37.779   8.850
 4850POPC   C1A 8991  43.076  37.672   8.550
 4850POPC   D2A 8992  43.108  37.709   8.250
 4850POPC   C3A 8993  43.068  37.725   7.950
 4850POPC   C4A 8994  43.113  37.714   7.650
 4850POPC   C1B 8995  42.946  37.826   8.550
 4850POPC   C2B 8996  42.862  37.780   8.250
 4850POPC   C3B 8997  42.872  37.810   7.950
 4850POPC   C4B 8998  42.911  37.784   7.650
 4851POPC   NC3 8999  38.488  40.798   9.450
 4851POPC   PO4 9000  38.501  40.745   9.150
 4851POPC   GL1 9001  38.501  40.769   8.850
 4851POPC   GL2 9002  38.382  40.761   8.850
 4851POPC   C1A 9003  38.417  40.783   8.550
 4851POPC   D2A 9004  38.492  40.746   8.250
 4851POPC   C3A 9005  38.429  40.819   7.950
 4851POPC   C4A 9006  38.455  40.751   7.650
 4851POPC   C1B 9007  38.273  40.696   8.550
 4851POPC   C2B 9008  38.199  40.643   8.250
 4851POPC   C3B 9009  38.205  40.618   7.950
 4851POPC   C4B 9010  38.275  40.689   7.650
 4852POPC   NC3 9011   7.455   7.435   9.450
 4852POPC   PO4 9012   7.374   7.450   9.150
 4852POPC   GL1 9013   7.423   7.413   8.850
 4852POPC   GL2 9014   7.340   7.401   8.850
 4852POPC   C1A 9015   7.382   7.413   8.550
 4852POPC   D2A 9016   7.425   7.417   8.250
 4852POPC   C3A 9017   7.465   7.385   7.950
 4852POPC   C4A 9018   7.437   7.457   7.650
 4852POPC   C1B 9019   7.194   7.393   8.550
 4852POPC   C2B 9020   7.144   7.399   8.250
 4852POPC   C3B 9021   7.184   7.397   7.950
 4852POPC   C4B 9022   7.178   7.440   7.650
 4853POPC   NC3 9023  29.191   8.937   9.450
 4853POPC   PO4 9024  29.182   8.993   9.150
 4853POPC   GL1 9025  29.114   8.966   8.850
 4853POPC   GL2 9026  29.221   8.812   8.850
 4853POPC   C1A 9027  29.141   8.953   8.550
 4853POPC   D2A 9028  29.167   8.975   8.250
 4853POPC   C3A 9029  29.144   9.012   7.950
 4853POPC   C4A 9030  29.181   8.930   7.650
 4853POPC   C1B 9031  29.239   8.689   8.550
 4853POPC   C2B 9032  29.177   8.769   8.250
 4853POPC   C3B 9033  29.244   8.714   7.950
 4853POPC   C4B 9034  29.245   8.715   7.650
 4854POPC   NC3 9035   4.304  13.677   9.450
 4854POPC   PO4 9036   4.335  13.610   9.150
 4854POPC   GL1 9037   4.348  13.596   8.850
 4854POPC   GL2 9038   4.360  13.521   8.850
 4854POPC   C1A 9039   4.318  13.604   8.550
 4854POPC   D2A 9040   4.275  13.617   8.250
 4854POPC   C3A 9041   4.313  13.620   7.950
 4854POPC   C4A 9042   4.356  13.590   7.650
 4854POPC   C1B 9043   4.345  13.344   8.550
 4854POPC   C2B 9044   4.360  13.369   8.250
 4854POPC   C3B 9045   4.308  13.373   7.950
 4854POPC   C4B 9046   4.357  13.425   7.650
 4855POPC   NC3 9047   6.620  10.516   9.450
 4855POPC   PO4 9048   6.620  10.540   9.150
 4855POPC   GL1 9049   6.688  10.493   8.850
 4855POPC   GL2 9050   6.675  10.698   8.850
 4855POPC   C1A 9051   6.694  10.477   8.550
 4855POPC   D2A 9052   6.615  10.573   8.250
 4855POPC   C3A 9053   6.657  10.501   7.950
 4855POPC   C4A 9054   6.596  10.560   7.650
 4855POPC   C1B 9055   6.592  10.739   8.550
 4855POPC   C2B 9056   6.642  10.738   8.250
 4855POPC   C3B 9057   6.599  10.773   7.950
 4855POPC   C4B 9058   6.623  10.807   7.650
 4856POPC   NC3 9059  15.919   0.419   9.450
 4856POPC   PO4 9060  15.924   0.417   9.150
 4856POPC   GL1 9061  15.906   0.452   8.850
 4856POPC   GL2 9062  16.080   0.515   8.850
 4856POPC   C1A 9063  15.990   0.452   8.550
 4856POPC   D2A 9064  15.952   0.478   8.250
 4856POPC   C3A 9065  15.937   0.468   7.950
 4856POPC   C4A 9066  15.910   0.473   7.650
 4856POPC   C1B 9067  16.168   0.583   8.550
 4856POPC   C2B 9068  16.217   0.577   8.250
 4856POPC   C3B 9069  16.146   0.578   7.950
 4856POPC   C4B 9070  16.210   0.556   7.650
 4857POPC   NC3 9071   3.577  22.977   9.450
 4857POPC   PO4 9072   3.497  22.956   9.150
 4857POPC   GL1 9073   3.500  22.904   8.850
 4857POPC   GL2 9074   3.655  22.965   8.850
 4857POPC   C1A 9075   3.581  22.979   8.550
 4857POPC   D2A 9076   3.569  22.944   8.250
 4857POPC   C3A 9077   3.582  22.947   7.950
 4857POPC   C4A 9078   3.525  22.907   7.650
 4857POPC   C1B 9079   3.738  23.019   8.550
 4857POPC   C2B 9080   3.740  23.075   8.250
 4857POPC   C3B 9081   3.722  23.034   7.950
 4857POPC   C4B 9082   3.806  23.020   7.650
 4858POPC   NC3 9083  13.666  23.700   9.450
 4858POPC   PO4 9084  13.624  23.666   9.150
 4858POPC   GL1 9085  13.600  23.718   8.850
 4858POPC   GL2 9086  13.735  23.595   8.850
 4858POPC   C1A 9087  13.630  23.731   8.550
 4858POPC   D2A 9088  13.618  23.712   8.250
 4858POPC   C3A 9089  13.627  23.672   7.950
 4858POPC   C4A 9090  13.599  23.665   7.650
 4858POPC   C1B 9091  13.805  23.608   8.550
 4858POPC   C2B 9092  13.824  23.565   8.250
 4858POPC   C3B 9093  13.815  23.608   7.950
 4858POPC   C4B 9094  13.794  23.622   7.650
 4859POPC   NC3 9095  29.956  31.435   9.450
 4859POPC   PO4 9096  29.875  31.502   9.150
 4859POPC   GL1 9097  29.954  31.446   8.850
 4859POPC   GL2 9098  30.008  31.447   8.850
 4859POPC   C1A 9099  29.874  31.455   8.550
 4859POPC   D2A 9100  29.886  31.497   8.250
 4859POPC   C3A 9101  29.911  31.429   7.950
 4859POPC   C4A 9102  29.879  31.444   7.650
 4859POPC   C1B 9103  30.179  31.449   8.550
 4859POPC   C2B 9104  30.177  31.466   8.250
 4859POPC   C3B 9105  30.154  31.490   7.950
 4859POPC   C4B 9106  30.154  31.456   7.650
 4860POPC   NC3 9107  36.881  30.674   9.450
 4860POPC   PO4 9108  36.938  30.677   9.150
 4860POPC   GL1 9109  36.902  30.681   8.850
 4860POPC   GL2 9110  36.996  30.730   8.850
 4860POPC   C1A 9111  36.891  30.647   8.550
 4860POPC   D2A 9112  36.928  30.707   8.250
 4860POPC   C3A 9113  36.942  30.695   7.950
 4860POPC   C4A 9114  36.885  30.692   7.650
 4860POPC   C1B 9115  37.125  30.753   8.550
 4860POPC   C2B 9116  37.157  30.743   8.250
 4860POPC   C3B 9117  37.105  30.751   7.950
 4860POPC   C4B 9118  37.193  30.765   7.650
 4861POPC   NC3 9119  15.142  12.831   9.450
 4861POPC   PO4 9120  15.158  12.805   9.150
 4861POPC   GL1 9121  15.178  12.865   8.850
 4861POPC   GL2 9122  15.214  12.975   8.850
 4861POPC   C1A 9123  15.170  12.843   8.550
 4861POPC   D2A 9124  15.159  12.881   8.250
 4861POPC   C3A 9125  15.156  12.855   7.950
 4861POPC   C4A 9126  15.148  12.890   7.650
 4861POPC   C1B 9127  15.366  13.052   8.550
 4861POPC   C2B 9128  15.342  13.079   8.250
 4861POPC   C3B 9129  15.388  12.993   7.950
 4861POPC   C4B 9130  15.359  12.993   7.650
 4862POPC   NC3 9131  27.551  23.682   9.450
 4862POPC   PO4 9132  27.606  23.714   9.150
 4862POPC   GL1 9133  27.607  23.683   8.850
 4862POPC   GL2 9134  27.521  23.623   8.850
 4862POPC   C1A 9135  27.634  23.751   8.550
 4862POPC   D2A 9136  27.549  23.749   8.250
 4862POPC   C3A 9137  27.641  23.669   7.950
 4862POPC   C4A 9138  27.625  23.672   7.650
 4862POPC   C1B 9139  27.524  23.463   8.550
 4862POPC   C2B 9140  27.517  23.485   8.250
 4862POPC   C3B 9141  27.564  23.478   7.950
 4862POPC   C4B 9142  27.559  23.484   7.650
 4863POPC   NC3 9143   8.162  22.187   9.450
 4863POPC   PO4 9144   8.181  22.147   9.150
 4863POPC   GL1 9145   8.163  22.180   8.850
 4863POPC   GL2 9146   8.199  22.013   8.850
 4863POPC   C1A 9147   8.220  22.188   8.550
 4863POPC   D2A 9148   8.230  22.192   8.250
 4863POPC   C3A 9149   8.202  22.154   7.950
 4863POPC   C4A 9150   8.163  22.144   7.650
 4863POPC   C1B 9151   8.164  21.880   8.550
 4863POPC   C2B 9152   8.216  21.954   8.250
 4863POPC   C3B 9153   8.131  21.868   7.950
 4863POPC   C4B 9154   8.174  21.907   7.650
 4864POPC   NC3 9155  23.739  33.842   9.450
 4864POPC   PO4 9156  23.677  33.801   9.150
 4864POPC   GL1 9157  23.682  33.840   8.850
 4864POPC   GL2 9158  23.704  33.674   8.850
 4864POPC   C1A 9159  23.758  33.784   8.550
 4864POPC   D2A 9160  23.681  33.827   8.250
 4864POPC   C3A 9161  23.724  33.789   7.950
 4864POPC   C4A 9162  23.737  33.782   7.650
 4864POPC   C1B 9163  23.810  33.543   8.550
 4864POPC   C2B 9164  23.813  33.532   8.250
 4864POPC   C3B 9165  23.814  33.555   7.950
 4864POPC   C4B 9166  23.838  33.526   7.650
 4865POPC   NC3 9167  31.445  44.682   9.450
 4865POPC   PO4 9168  31.478  44.696   9.150
 4865POPC   GL1 9169  31.445  44.708   8.850
 4865POPC   GL2 9170  31.620  44.666   8.850
 4865POPC   C1A 9171  31.472  44.671   8.550
 4865POPC   D2A 9172  31.424  44.639   8.250
 4865POPC   C3A 9173  31.442  44.631   7.950
 4865POPC   C4A 9174  31.447  44.637   7.650
 4865POPC   C1B 9175  31.689  44.729   8.550
 4865POPC   C2B 9176  31.746  44.790   8.250
 4865POPC   C3B 9177  31.700  44.723   7.950
 4865POPC   C4B 9178  31.730  44.764   7.650
 4866POPC   NC3 9179  11.254  22.933   9.450
 4866POPC   PO4 9180  11.343  22.969   9.150
 4866POPC   GL1 9181  11.340  22.889   8.850
 4866POPC   GL2 9182  11.325  22.817   8.850
 4866POPC   C1A 9183  11.256  22.939   8.550
 4866POPC   D2A 9184  11.275  22.927   8.250
 4866POPC   C3A 9185  11.309  22.984   7.950
 4866POPC   C4A 9186  11.277  22.963   7.650
 4866POPC   C1B 9187  11.367  22.673   8.550
 4866POPC   C2B 9188  11.355  22.701   8.250
 4866POPC   C3B 9189  11.391  22.742   7.950
 4866POPC   C4B 9190  11.351  22.687   7.650
 4867POPC   NC3 9191   7.432  32.993   9.450
 4867POPC   PO4 9192   7.375  33.057   9.150
 4867POPC   GL1 9193   7.393  33.071   8.850
 4867POPC   GL2 9194   7.472  33.111   8.850
 4867POPC   C1A 9195   7.452  32.990   8.550
 4867POPC   D2A 9196   7.404  33.045   8.250
 4867POPC   C3A 9197   7.384  32.989   7.950
 4867POPC   C4A 9198   7.380  33.037   7.650
 4867POPC   C1B 9199   7.487  33.257   8.550
 4867POPC   C2B 9200   7.449  33.284   8.250
 4867POPC   C3B 9201   7.411  33.284   7.950
 4867POPC   C4B 9202   7.446  33.292   7.650
 4868POPC   NC3 9203  23.692  11.348   9.450
 4868POPC   PO4 9204  23.673  11.296   9.150
 4868POPC   GL1 9205  23.711  11.301   8.850
 4868POPC   GL2 9206  23.826  11.310   8.850
 4868POPC   C1A 9207  23.724  11.293   8.550
 4868POPC   D2A 9208  23.689  11.318   8.250
 4868POPC   C3A 9209  23.711  11.336   7.950
 4868POPC   C4A 9210  23.708  11.302   7.650
 4868POPC   C1B 9211  23.942  11.209   8.550
 4868POPC   C2B 9212  23.979  11.226   8.250
 4868POPC   C3B 9213  23.943  11.266   7.950
 4868POPC   C4B 9214  23.926  11.251   7.650
 4869POPC   NC3 9215  10.526  18.291   9.450
 4869POPC   PO4 9216  10.551  18.234   9.150
 4869POPC   GL1 9217  10.533  18.245   8.850
 4869POPC   GL2 9218  10.614  18.405   8.850
 4869POPC   C1A 9219  10.483  18.312   8.550
 4869POPC   D2A 9220  10.534  18.296   8.250
 4869POPC   C3A 9221  10.486  18.299   7.950
 4869POPC   C4A 9222  10.533  18.316   7.650
 4869POPC   C1B 9223  10.657  18.449   8.550
 4869POPC   C2B 9224  10.716  18.504   8.250
 4869POPC   C3B 9225  10.695  18.468   7.950
 4869POPC   C4B 9226  10.620  18.501   7.650
 4870POPC   NC3 9227  44.625  19.871   9.450
 4870POPC   PO4 9228  44.623  19.808   9.150
 4870POPC   GL1 9229  44.694  19.811   8.850
 4870POPC   GL2 9230  44.604  19.968   8.850
 4870POPC   C1A 9231  44.644  19.787   8.550
 4870POPC   D2A 9232  44.616  19.825   8.250
 4870POPC   C3A 9233  44.683  19.817   7.950
 4870POPC   C4A 9234  44.691  19.797   7.650
 4870POPC   C1B 9235  44.606  20.109   8.550
 4870POPC   C2B 9236  44.594  20.042   8.250
 4870POPC   C3B 9237  44.628  20.086   7.950
 4870POPC   C4B 9238  44.598  20.097   7.650
 4871POPC   NC3 9239  35.351  29.906   9.450
 4871POPC   PO4 9240  35.336  29.882   9.150
 4871POPC   GL1 9241  35.338  29.929   8.850
 4871POPC   GL2 9242  35.290  29.970   8.850
 4871POPC   C1A 9243  35.388  29.940   8.550
 4871POPC   D2A 9244  35.380  29.915   8.250
 4871POPC   C3A 9245  35.331  29.928   7.950
 4871POPC   C4A 9246  35.378  29.929   7.650
 4871POPC   C1B 9247  35.148  30.045   8.550
 4871POPC   C2B 9248  35.186  30.044   8.250
 4871POPC   C3B 9249  35.123  30.050   7.950
 4871POPC   C4B 9250  35.151  30.065   7.650
 4872POPC   NC3 9251   4.343  12.902   9.450
 4872POPC   PO4 9252   4.293  12.883   9.150
 4872POPC   GL1 9253   4.366  12.867   8.850
 4872POPC   GL2 9254   4.271  12.700   8.850
 4872POPC   C1A 9255   4.280  12.887   8.550
 4872POPC   D2A 9256   4.315  12.845   8.250
 4872POPC   C3A 9257   4.315  12.812   7.950
 4872POPC   C4A 9258   4.366  12.863   7.650
 4872POPC   C1B 9259   4.263  12.601   8.550
 4872POPC   C2B 9260   4.213  12.617   8.250
 4872POPC   C3B 9261   4.193  12.626   7.950
 4872POPC   C4B 9262   4.261  12.665   7.650
 4873POPC   NC3 9263  12.837   2.815   9.450
 4873POPC   PO4 9264  12.853   2.768   9.150
 4873POPC   GL1 9265  12.870   2.738   8.850
 4873POPC   GL2 9266  12.721   2.735   8.850
 4873POPC   C1A 9267  12.803   2.723   8.550
 4873POPC   D2A 9268  12.872   2.773   8.250
 4873POPC   C3A 9269  12.898   2.717   7.950
 4873POPC   C4A 9270  12.880   2.793   7.650
 4873POPC   C1B 9271  12.668   2.601   8.550
 4873POPC   C2B 9272  12.654   2.590   8.250
 4873POPC   C3B 9273  12.625   2.600   7.950
 4873POPC   C4B 9274  12.626   2.624   7.650
 4874POPC   NC3 9275   1.200   6.691   9.450
 4874POPC   PO4 9276   1.201   6.613   9.150
 4874POPC   GL1 9277   1.220   6.687   8.850
 4874POPC   GL2 9278   1.052   6.678   8.850
 4874POPC   C1A 9279   1.247   6.612   8.550
 4874POPC   D2A 9280   1.166   6.663   8.250
 4874POPC   C3A 9281   1.201   6.652   7.950
 4874POPC   C4A 9282   1.197   6.654   7.650
 4874POPC   C1B 9283   0.982   6.775   8.550
 4874POPC   C2B 9284   1.018   6.749   8.250
 4874POPC   C3B 9285   0.935   6.749   7.950
 4874POPC   C4B 9286   0.939   6.702   7.650
 4875POPC   NC3 9287  38.427  22.891   9.450
 4875POPC   PO4 9288  38.451  22.900   9.150
 4875POPC   GL1 9289  38.472  22.917   8.850
 4875POPC   GL2 9290  38.309  22.942   8.850
 4875POPC   C1A 9291  38.411  22.959   8.550
 4875POPC   D2A 9292  38.480  22.956   8.250
 4875POPC   C3A 9293  38.432  22.926   7.950
 4875POPC   C4A 9294  38.435  22.951   7.650
 4875POPC   C1B 9295  38.216  22.803   8.550
 4875POPC   C2B 9296  38.204  22.846   8.250
 4875POPC   C3B 9297  38.184  22.869   7.950
 4875POPC   C4B 9298  38.196  22.813   7.650
 4876POPC   NC3 9299  36.934  17.530   9.450
 4876POPC   PO4 9300  36.910  17.539   9.150
 4876POPC   GL1 9301  36.882  17.509   8.850
 4876POPC   GL2 9302  37.031  17.552   8.850
 4876POPC   C1A 9303  36.870  17.534   8.550
 4876POPC   D2A 9304  36.944  17.486   8.250
 4876POPC   C3A 9305  36.945  17.545   7.950
 4876POPC   C4A 9306  36.859  17.491   7.650
 4876POPC   C1B 9307  37.103  17.729   8.550
 4876POPC   C2B 9308  37.108  17.689   8.250
 4876POPC   C3B 9309  37.076  17.632   7.950
 4876POPC   C4B 9310  37.053  17.632   7.650
 4877POPC   NC3 9311  13.677   1.965   9.450
 4877POPC   PO4 9312  13.578   2.022   9.150
 4877POPC   GL1 9313  13.615   1.981   8.850
 4877POPC   GL2 9314  13.684   1.875   8.850
 4877POPC   C1A 9315  13.597   2.006   8.550
 4877POPC   D2A 9316  13.580   2.037   8.250
 4877POPC   C3A 9317  13.652   1.947   7.950
 4877POPC   C4A 9318  13.587   1.941   7.650
 4877POPC   C1B 9319  13.660   1.762   8.550
 4877POPC   C2B 9320  13.700   1.764   8.250
 4877POPC   C3B 9321  13.721   1.720   7.950
 4877POPC   C4B 9322  13.651   1.706   7.650
 4878POPC   NC3 9323  41.583  27.554   9.450
 4878POPC   PO4 9324  41.579  27.547   9.150
 4878POPC   GL1 9325  41.596  27.544   8.850
 4878POPC   GL2 9326  41.712  27.584   8.850
 4878POPC   C1A 9327  41.570  27.594   8.550
 4878POPC   D2A 9328  41.563  27.547   8.250
 4878POPC   C3A 9329  41.536  27.624   7.950
 4878POPC   C4A 9330  41.550  27.613   7.650
 4878POPC   C1B 9331  41.846  27.508   8.550
 4878POPC   C2B 9332  41.782  27.513   8.250
 4878POPC   C3B 9333  41.836  27.562   7.950
 4878POPC   C4B 9334  41.812  27.517   7.650
 4879POPC   NC3 9335  28.405  10.526   9.450
 4879POPC   PO4 9336  28.375  10.542   9.150
 4879POPC   GL1 9337  28.397  10.495   8.850
 4879POPC   GL2 9338  28.233  10.486   8.850
 4879POPC   C1A 9339  28.329  10.570   8.550
 4879POPC   D2A 9340  28.398  10.571   8.250
 4879POPC   C3A 9341  28.345  10.556   7.950
 4879POPC   C4A 9342  28.336  10.527   7.650
 4879POPC   C1B 9343  28.220  10.390   8.550
 4879POPC   C2B 9344  28.134  10.385   8.250
 4879POPC   C3B 9345  28.185  10.334   7.950
 4879POPC   C4B 9346  28.136  10.380   7.650
 4880POPC   NC3 9347  41.544  13.650   9.450
 4880POPC   PO4 9348  41.596  13.603   9.150
 4880POPC   GL1 9349  41.534  13.581   8.850
 4880POPC   GL2 9350  41.485  13.580   8.850
 4880POPC   C1A 9351  41.604  13.672   8.550
 4880POPC   D2A 9352  41.541  13.643   8.250
 4880POPC   C3A 9353  41.531  13.647   7.950
 4880POPC   C4A 9354  41.580  13.651   7.650
 4880POPC   C1B 9355  41.440  13.397   8.550
 4880POPC   C2B 9356  41.345  13.412   8.250
 4880POPC   C3B 9357  41.359  13.410   7.950
 4880POPC   C4B 9358  41.432  13.451   7.650
 4881POPC   NC3 9359  19.099  21.414   9.450
 4881POPC   PO4 9360  19.056  21.430   9.150
 4881POPC   GL1 9361  19.086  21.378   8.850
 4881POPC   GL2 9362  19.197  21.419   8.850
 4881POPC   C1A 9363  19.062  21.370   8.550
 4881POPC   D2A 9364  19.033  21.402   8.250
 4881POPC   C3A 9365  19.097  21.339   7.950
 4881POPC   C4A 9366  19.106  21.382   7.650
 4881POPC   C1B 9367  19.270  21.537   8.550
 4881POPC   C2B 9368  19.267  21.518   8.250
 4881POPC   C3B 9369  19.221  21.511   7.950
 4881POPC   C4B 9370  19.211  21.581   7.650
 4882POPC   NC3 9371   7.464  27.602   9.450
 4882POPC   PO4 9372   7.459  27.628   9.150
 4882POPC   GL1 9373   7.376  27.583   8.850
 4882POPC   GL2 9374   7.506  27.603   8.850
 4882POPC   C1A 9375   7.417  27.579   8.550
 4882POPC   D2A 9376   7.448  27.585   8.250
 4882POPC   C3A 9377   7.396  27.567   7.950
 4882POPC   C4A 9378   7.380  27.641   7.650
 4882POPC   C1B 9379   7.651  27.677   8.550
 4882POPC   C2B 9380   7.660  27.676   8.250
 4882POPC   C3B 9381   7.702  27.669   7.950
 4882POPC   C4B 9382   7.680  27.641   7.650
 4883POPC   NC3 9383  15.177  15.173   9.450
 4883POPC   PO4 9384  15.219  15.146   9.150
 4883POPC   GL1 9385  15.227  15.189   8.850
 4883POPC   GL2 9386  15.033  15.217   8.850
 4883POPC   C1A 9387  15.144  15.160   8.550
 4883POPC   D2A 9388  15.185  15.147   8.250
 4883POPC   C3A 9389  15.218  15.222   7.950
 4883POPC   C4A 9390  15.161  15.159   7.650
 4883POPC   C1B 9391  14.961  15.243   8.550
 4883POPC   C2B 9392  14.957  15.157   8.250
 4883POPC   C3B 9393  14.943  15.219   7.950
 4883POPC   C4B 9394  14.941  15.165   7.650
 4884POPC   NC3 9395  38.472  22.167   9.450
 4884POPC   PO4 9396  38.470  22.156   9.150
 4884POPC   GL1 9397  38.501  22.155   8.850
 4884POPC   GL2 9398  38.596  22.163   8.850
 4884POPC   C1A 9399  38.470  22.129   8.550
 4884POPC   D2A 9400  38.451  22.176   8.250
 4884POPC   C3A 9401  38.419  22.141   7.950
 4884POPC   C4A 9402  38.490  22.184   7.650
 4884POPC   C1B 9403  38.739  22.107   8.550
 4884POPC   C2B 9404  38.684  22.114   8.250
 4884POPC   C3B 9405  38.714  22.181   7.950
 4884POPC   C4B 9406  38.668  22.141   7.650
 4885POPC   NC3 9407   8.215  35.344   9.450
 4885POPC   PO4 9408   8.183  35.387   9.150
 4885POPC   GL1 9409   8.215  35.346   8.850
 4885POPC   GL2 9410   8.119  35.290   8.850
 4885POPC   C1A 9411   8.159  35.324   8.550
 4885POPC   D2A 9412   8.164  35.332   8.250
 4885POPC   C3A 9413   8.158  35.388   7.950
 4885POPC   C4A 9414   8.240  35.355   7.650
 4885POPC   C1B 9415   8.038  35.114   8.550
 4885POPC   C2B 9416   8.035  35.185   8.250
 4885POPC   C3B 9417   8.065  35.194   7.950
 4885POPC   C4B 9418   8.013  35.192   7.650
 4886POPC   NC3 9419  26.827   2.729   9.450
 4886POPC   PO4 9420  26.867   2.727   9.150
 4886POPC   GL1 9421  26.800   2.795   8.850
 4886POPC   GL2 9422  26.945   2.848   8.850
 4886POPC   C1A 9423  26.841   2.719   8.550
 4886POPC   D2A 9424  26.801   2.720   8.250
 4886POPC   C3A 9425  26.805   2.736   7.950
 4886POPC   C4A 9426  26.863   2.813   7.650
 4886POPC   C1B 9427  27.040   2.911   8.550
 4886POPC   C2B 9428  27.025   2.900   8.250
 4886POPC   C3B 9429  27.014   2.915   7.950
 4886POPC   C4B 9430  27.018   2.882   7.650
 4887POPC   NC3 9431  10.503  42.368   9.450
 4887POPC   PO4 9432  10.553  42.340   9.150
 4887POPC   GL1 9433  10.511  42.346   8.850
 4887POPC   GL2 9434  10.655  42.301   8.850
 4887POPC   C1A 9435  10.547  42.308   8.550
 4887POPC   D2A 9436  10.482  42.357   8.250
 4887POPC   C3A 9437  10.480  42.373   7.950
 4887POPC   C4A 9438  10.545  42.329   7.650
 4887POPC   C1B 9439  10.705  42.173   8.550
 4887POPC   C2B 9440  10.699  42.186   8.250
 4887POPC   C3B 9441  10.699  42.134   7.950
 4887POPC   C4B 9442  10.739  42.136   7.650
 4888POPC   NC3 9443  21.381  26.778   9.450
 4888POPC   PO4 9444  21.364  26.831   9.150
 4888POPC   GL1 9445  21.339  26.842   8.850
 4888POPC   GL2 9446  21.535  26.815   8.850
 4888POPC   C1A 9447  21.436  26.842   8.550
 4888POPC   D2A 9448  21.385  26.818   8.250
 4888POPC   C3A 9449  21.425  26.822   7.950
 4888POPC   C4A 9450  21.427  26.790   7.650
 4888POPC   C1B 9451  21.641  26.739   8.550
 4888POPC   C2B 9452  21.667  26.823   8.250
 4888POPC   C3B 9453  21.678  26.751   7.950
 4888POPC   C4B 9454  21.615  26.792   7.650
 4889POPC   NC3 9455  24.511  39.988   9.450
 4889POPC   PO4 9456  24.496  39.979   9.150
 4889POPC   GL1 9457  24.517  40.019   8.850
 4889POPC   GL2 9458  24.336  40.099   8.850
 4889POPC   C1A 9459  24.511  40.001   8.550
 4889POPC   D2A 9460  24.523  39.978   8.250
 4889POPC   C3A 9461  24.442  39.986   7.950
 4889POPC   C4A 9462  24.484  40.004   7.650
 4889POPC   C1B 9463  24.240  40.072   8.550
 4889POPC   C2B 9464  24.300  40.119   8.250
 4889POPC   C3B 9465  24.289  40.090   7.950
 4889POPC   C4B 9466  24.293  40.121   7.650
 4890POPC   NC3 9467  29.151  12.891   9.450
 4890POPC   PO4 9468  29.154  12.841   9.150
 4890POPC   GL1 9469  29.159  12.805   8.850
 4890POPC   GL2 9470  29.199  12.986   8.850
 4890POPC   C1A 9471  29.095  12.846   8.550
 4890POPC   D2A 9472  29.126  12.901   8.250
 4890POPC   C3A 9473  29.191  12.806   7.950
 4890POPC   C4A 9474  29.099  12.849   7.650
 4890POPC   C1B 9475  29.150  13.099   8.550
 4890POPC   C2B 9476  29.162  13.142   8.250
 4890POPC   C3B 9477  29.112  13.075   7.950
 4890POPC   C4B 9478  29.127  13.099   7.650
 4891POPC   NC3 9479  40.044  36.874   9.450
 4891POPC   PO4 9480  39.965  36.869   9.150
 4891POPC   GL1 9481  39.959  36.943   8.850
 4891POPC   GL2 9482  40.095  36.969   8.850
 4891POPC   C1A 9483  39.991  36.949   8.550
 4891POPC   D2A 9484  40.052  36.916   8.250
 4891POPC   C3A 9485  39.976  36.892   7.950
 4891POPC   C4A 9486  39.998  36.873   7.650
 4891POPC   C1B 9487  40.216  37.006   8.550
 4891POPC   C2B 9488  40.216  36.974   8.250
 4891POPC   C3B 9489  40.250  37.035   7.950
 4891POPC   C4B 9490  40.249  37.000   7.650
 4892POPC   NC3 9491  14.437  19.048   9.450
 4892POPC   PO4 9492  14.452  19.024   9.150
 4892POPC   GL1 9493  14.358  19.021   8.850
 4892POPC   GL2 9494  14.558  19.065   8.850
 4892POPC   C1A 9495  14.410  19.055   8.550
 4892POPC   D2A 9496  14.434  19.057   8.250
 4892POPC   C3A 9497  14.450  19.021   7.950
 4892POPC   C4A 9498  14.449  19.065   7.650
 4892POPC   C1B 9499  14.676  19.012   8.550
 4892POPC   C2B 9500  14.648  18.981   8.250
 4892POPC   C3B 9501  14.611  19.019   7.950
 4892POPC   C4B 9502  14.641  18.942   7.650
 4893POPC   NC3 9503  26.008  41.571   9.450
 4893POPC   PO4 9504  26.007  41.545   9.150
 4893POPC   GL1 9505  26.013  41.597   8.850
 4893POPC   GL2 9506  26.046  41.685   8.850
 4893POPC   C1A 9507  26.056  41.528   8.550
 4893POPC   D2A 9508  26.090  41.583   8.250
 4893POPC   C3A 9509  26.076  41.595   7.950
 4893POPC   C4A 9510  25.997  41.532   7.650
 4893POPC   C1B 9511  26.019  41.841   8.550
 4893POPC   C2B 9512  26.028  41.768   8.250
 4893POPC   C3B 9513  25.999  41.796   7.950
 4893POPC   C4B 9514  26.031  41.800   7.650
 4894POPC   NC3 9515  11.331  35.325   9.450
 4894POPC   PO4 9516  11.280  35.359   9.150
 4894POPC   GL1 9517  11.332  35.312   8.850
 4894POPC   GL2 9518  11.204  35.211   8.850
 4894POPC   C1A 9519  11.318  35.334   8.550
 4894POPC   D2A 9520  11.265  35.357   8.250
 4894POPC   C3A 9521  11.283  35.319   7.950
 4894POPC   C4A 9522  11.338  35.369   7.650
 4894POPC   C1B 9523  11.166  35.182   8.550
 4894POPC   C2B 9524  11.142  35.166   8.250
 4894POPC   C3B 9525  11.161  35.118   7.950
 4894POPC   C4B 9526  11.173  35.120   7.650
 4895POPC   NC3 9527  35.340   8.999   9.450
 4895POPC   PO4 9528  35.325   8.965   9.150
 4895POPC   GL1 9529  35.367   8.974   8.850
 4895POPC   GL2 9530  35.330   9.064   8.850
 4895POPC   C1A 9531  35.360   8.954   8.550
 4895POPC   D2A 9532  35.347   8.951   8.250
 4895POPC   C3A 9533  35.331   8.999   7.950
 4895POPC   C4A 9534  35.387   8.968   7.650
 4895POPC   C1B 9535  35.263   9.239   8.550
 4895POPC   C2B 9536  35.337   9.198   8.250
 4895POPC   C3B 9537  35.271   9.172   7.950
 4895POPC   C4B 9538  35.287   9.201   7.650
 4896POPC   NC3 9539  21.397  43.936   9.450
 4896POPC   PO4 9540  21.340  43.923   9.150
 4896POPC   GL1 9541  21.350  43.883   8.850
 4896POPC   GL2 9542  21.340  44.004   8.850
 4896POPC   C1A 9543  21.341  43.883   8.550
 4896POPC   D2A 9544  21.353  43.849   8.250
 4896POPC   C3A 9545  21.430  43.857   7.950
 4896POPC   C4A 9546  21.399  43.934   7.650
 4896POPC   C1B 9547  21.294  44.103   8.550
 4896POPC   C2B 9548  21.223  44.120   8.250
 4896POPC   C3B 9549  21.293  44.089   7.950
 4896POPC   C4B 9550  21.231  44.149   7.650
 4897POPC   NC3 9551  41.586  43.886   9.450
 4897POPC   PO4 9552  41.535  43.871   9.150
 4897POPC   GL1 9553  41.539  43.902   8.850
 4897POPC   GL2 9554  41.649  43.923   8.850
 4897POPC   C1A 9555  41.572  43.923   8.550
 4897POPC   D2A 9556  41.511  43.899   8.250
 4897POPC   C3A 9557  41.581  43.884   7.950
 4897POPC   C4A 9558  41.569  43.842   7.650
 4897POPC   C1B 9559  41.824  43.855   8.550
 4897POPC   C2B 9560  41.778  43.883   8.250
 4897POPC   C3B 9561  41.816  43.861   7.950
 4897POPC   C4B 9562  41.815  43.902   7.650
 4898POPC   NC3 9563  20.612  22.184   9.450
 4898POPC   PO4 9564  20.654  22.133   9.150
 4898POPC   GL1 9565  20.658  22.153   8.850
 4898POPC   GL2 9566  20.542  22.247   8.850
 4898POPC   C1A 9567  20.629  22.146   8.550
 4898POPC   D2A 9568  20.601  22.120   8.250
 4898POPC   C3A 9569  20.635  22.151   7.950
 4898POPC   C4A 9570  20.653  22.138   7.650
 4898POPC   C1B 9571  20.406  22.264   8.550
 4898POPC   C2B 9572  20.442  22.260   8.250
 4898POPC   C3B 9573  20.415  22.259   7.950
 4898POPC   C4B 9574  20.382  22.276   7.650
 4899POPC   NC3 9575  22.148   3.567   9.450
 4899POPC   PO4 9576  22.143   3.512   9.150
 4899POPC   GL1 9577  22.196   3.503   8.850
 4899POPC   GL2 9578  22.009   3.510   8.850
 4899POPC   C1A 9579  22.164   3.552   8.550
 4899POPC   D2A 9580  22.126   3.552   8.250
 4899POPC   C3A 9581  22.151   3.502   7.950
 4899POPC   C4A 9582  22.173   3.564   7.650
 4899POPC   C1B 9583  21.961   3.421   8.550
 4899POPC   C2B 9584  21.891   3.399   8.250
 4899POPC   C3B 9585  21.936   3.415   7.950
 4899POPC   C4B 9586  21.896   3.411   7.650
 4900POPC   NC3 9587  35.308   7.419   9.450
 4900POPC   PO4 9588  35.376   7.395   9.150
 4900POPC   GL1 9589  35.329   7.380   8.850
 4900POPC   GL2 9590  35.431   7.494   8.850
 4900POPC   C1A 9591  35.315   7.404   8.550
 4900POPC   D2A 9592  35.337   7.404   8.250
 4900POPC   C3A 9593  35.348   7.465   7.950
 4900POPC   C4A 9594  35.334   7.424   7.650
 4900POPC   C1B 9595  35.550   7.564   8.550
 4900POPC   C2B 9596  35.535   7.610   8.250
 4900POPC   C3B 9597  35.539   7.566   7.950
 4900POPC   C4B 9598  35.552   7.595   7.650
 4901POPC   NC3 9599  30.658  25.218   9.450
 4901POPC   PO4 9600  30.666  25.280   9.150
 4901POPC   GL1 9601  30.705  25.295   8.850
 4901POPC   GL2 9602  30.812  25.256   8.850
 4901POPC   C1A 9603  30.678  25.222   8.550
 4901POPC   D2A 9604  30.655  25.264   8.250
 4901POPC   C3A 9605  30.686  25.308   7.950
 4901POPC   C4A 9606  30.740  25.280   7.650
 4901POPC   C1B 9607  30.903  25.319   8.550
 4901POPC   C2B 9608  30.963  25.330   8.250
 4901POPC   C3B 9609  30.900  25.360   7.950
 4901POPC   C4B 9610  30.959  25.377   7.650
 4902POPC   NC3 9611  26.800  20.579   9.450
 4902POPC   PO4 9612  26.808  20.595   9.150
 4902POPC   GL1 9613  26.833  20.595   8.850
 4902POPC   GL2 9614  26.959  20.565   8.850
 4902POPC   C1A 9615  26.822  20.638   8.550
 4902POPC   D2A 9616  26.837  20.577   8.250
 4902POPC   C3A 9617  26.805  20.636   7.950
 4902POPC   C4A 9618  26.820  20.571   7.650
 4902POPC   C1B 9619  27.107  20.547   8.550
 4902POPC   C2B 9620  27.111  20.535   8.250
 4902POPC   C3B 9621  27.105  20.595   7.950
 4902POPC   C4B 9622  27.038  20.562   7.650
 4903POPC   NC3 9623   8.938   2.750   9.450
 4903POPC   PO4 9624   9.000   2.732   9.150
 4903POPC   GL1 9625   8.972   2.788   8.850
 4903POPC   GL2 9626   9.109   2.740   8.850
 4903POPC   C1A 9627   8.977   2.777   8.550
 4903POPC   D2A 9628   8.951   2.757   8.250
 4903POPC   C3A 9629   8.982   2.801   7.950
 4903POPC   C4A 9630   8.979   2.718   7.650
 4903POPC   C1B 9631   9.198   2.651   8.550
 4903POPC   C2B 9632   9.230   2.683   8.250
 4903POPC   C3B 9633   9.194   2.647   7.950
 4903POPC   C4B 9634   9.213   2.703   7.650
 4904POPC   NC3 9635  36.857  32.264   9.450
 4904POPC   PO4 9636  36.856  32.286   9.150
 4904POPC   GL1 9637  36.943  32.237   8.850
 4904POPC   GL2 9638  37.023  32.326   8.850
 4904POPC   C1A 9639  36.926  32.200   8.550
 4904POPC   D2A 9640  36.953  32.281   8.250
 4904POPC   C3A 9641  36.895  32.288   7.950
 4904POPC   C4A 9642  36.898  32.260   7.650
 4904POPC   C1B 9643  37.146  32.343   8.550
 4904POPC   C2B 9644  37.159  32.396   8.250
 4904POPC   C3B 9645  37.146  32.338   7.950
 4904POPC   C4B 9646  37.112  32.390   7.650
 4905POPC   NC3 9647  38.414  11.295   9.450
 4905POPC   PO4 9648  38.418  11.294   9.150
 4905POPC   GL1 9649  38.434  11.348   8.850
 4905POPC   GL2 9650  38.291  11.340   8.850
 4905POPC   C1A 9651  38.505  11.281   8.550
 4905POPC   D2A 9652  38.426  11.329   8.250
 4905POPC   C3A 9653  38.496  11.277   7.950
 4905POPC   C4A 9654  38.490  11.336   7.650
 4905POPC   C1B 9655  38.250  11.346   8.550
 4905POPC   C2B 9656  38.173  11.396   8.250
 4905POPC   C3B 9657  38.172  11.376   7.950
 4905POPC   C4B 9658  38.191  11.385   7.650
 4906POPC   NC3 9659  33.794  43.111   9.450
 4906POPC   PO4 9660  33.792  43.098   9.150
 4906POPC   GL1 9661  33.750  43.089   8.850
 4906POPC   GL2 9662  33.733  43.182   8.850
 4906POPC   C1A 9663  33.760  43.084   8.550
 4906POPC   D2A 9664  33.818  43.120   8.250
 4906POPC   C3A 9665  33.835  43.125   7.950
 4906POPC   C4A 9666  33.824  43.135   7.650
 4906POPC   C1B 9667  33.609  43.262   8.550
 4906POPC   C2B 9668  33.625  43.265   8.250
 4906POPC   C3B 9669  33.568  43.243   7.950
 4906POPC   C4B 9670  33.554  43.267   7.650
 4907POPC   NC3 9671   5.828  20.577   9.450
 4907POPC   PO4 9672   5.847  20.656   9.150
 4907POPC   GL1 9673   5.830  20.622   8.850
 4907POPC   GL2 9674   5.993  20.742   8.850
 4907POPC   C1A 9675   5.832  20.578   8.550
 4907POPC   D2A 9676   5.838  20.576   8.250
 4907POPC   C3A 9677   5.856  20.606   7.950
 4907POPC   C4A 9678   5.830  20.597   7.650
 4907POPC   C1B 9679   6.018  20.784   8.550
 4907POPC   C2B 9680   6.017  20.789   8.250
 4907POPC   C3B 9681   6.025  20.814   7.950
 4907POPC   C4B 9682   6.015  20.759   7.650
 4908POPC   NC3 9683  36.163   4.291   9.450
 4908POPC   PO4 9684  36.134   4.287   9.150
 4908POPC   GL1 9685  36.113   4.302   8.850
 4908POPC   GL2 9686  36.254   4.370   8.850
 4908POPC   C1A 9687  36.105   4.282   8.550
 4908POPC   D2A 9688  36.123   4.298   8.250
 4908POPC   C3A 9689  36.170   4.327   7.950
 4908POPC   C4A 9690  36.093   4.319   7.650
 4908POPC   C1B 9691  36.317   4.459   8.550
 4908POPC   C2B 9692  36.344   4.457   8.250
 4908POPC   C3B 9693  36.325   4.478   7.950
 4908POPC   C4B 9694  36.353   4.447   7.650
 4909POPC   NC3 9695  42.311   2.758   9.450
 4909POPC   PO4 9696  42.344   2.778   9.150
 4909POPC   GL1 9697  42.303   2.794   8.850
 4909POPC   GL2 9698  42.202   2.730   8.850
 4909POPC   C1A 9699  42.360   2.776   8.550
 4909POPC   D2A 9700  42.293   2.717   8.250
 4909POPC   C3A 9701  42.308   2.750   7.950
 4909POPC   C4A 9702  42.365   2.748   7.650
 4909POPC   C1B 9703  42.075   2.614   8.550
 4909POPC   C2B 9704  42.075   2.695   8.250
 4909POPC   C3B 9705  42.146   2.673   7.950
 4909POPC   C4B 9706  42.081   2.644   7.650
 4910POPC   NC3 9707   0.408  39.220   9.450
 4910POPC   PO4 9708   0.433  39.277   9.150
 4910POPC   GL1 9709   0.470  39.225   8.850
 4910POPC   GL2 9710   0.551  39.259   8.850
 4910POPC   C1A 9711   0.476  39.242   8.550
 4910POPC   D2A 9712   0.424  39.183   8.250
 4910POPC   C3A 9713   0.468  39.237   7.950
 4910POPC   C4A 9714   0.400  39.258   7.650
 4910POPC   C1B 9715   0.677  39.367   8.550
 4910POPC   C2B 9716   0.620  39.279   8.250
 4910POPC   C3B 9717   0.713  39.310   7.950
 4910POPC   C4B 9718   0.667  39.327   7.650
 4911POPC   NC3 9719  21.403  39.993   9.450
 4911POPC   PO4 9720  21.361  39.991   9.150
 4911POPC   GL1 9721  21.348  40.031   8.850
 4911POPC   GL2 9722  21.446  40.091   8.850
 4911POPC   C1A 9723  21.350  40.055   8.550
 4911POPC   D2A 9724  21.412  40.004   8.250
 4911POPC   C3A 9725  21.407  40.051   7.950
 4911POPC   C4A 9726  21.386  40.047   7.650
 4911POPC   C1B 9727  21.495  40.274   8.550
 4911POPC   C2B 9728  21.500  40.261   8.250
 4911POPC   C3B 9729  21.449  40.269   7.950
 4911POPC   C4B 9730  21.459  40.243   7.650
 4912POPC   NC3 9731  13.672  13.597   9.450
 4912POPC   PO4 9732  13.665  13.605   9.150
 4912POPC   GL1 9733  13.672  13.665   8.850
 4912POPC   GL2 9734  13.528  13.653   8.850
 4912POPC   C1A 9735  13.655  13.620   8.550
 4912POPC   D2A 9736  13.622  13.602   8.250
 4912POPC   C3A 9737  13.624  13.584   7.950
 4912POPC   C4A 9738  13.633  13.610   7.650
 4912POPC   C1B 9739  13.470  13.785   8.550
 4912POPC   C2B 9740  13.443  13.802   8.250
 4912POPC   C3B 9741  13.409  13.793   7.950
 4912POPC   C4B 9742  13.467  13.808   7.650
 4913POPC   NC3 9743   5.865   1.227   9.450
 4913POPC   PO4 9744   5.855   1.179   9.150
 4913POPC   GL1 9745   5.884   1.178   8.850
 4913POPC   GL2 9746   5.787   1.377   8.850
 4913POPC   C1A 9747   5.852   1.189   8.550
 4913POPC   D2A 9748   5.880   1.247   8.250
 4913POPC   C3A 9749   5.864   1.225   7.950
 4913POPC   C4A 9750   5.919   1.218   7.650
 4913POPC   C1B 9751   5.753   1.479   8.550
 4913POPC   C2B 9752   5.798   1.480   8.250
 4913POPC   C3B 9753   5.801   1.454   7.950
 4913POPC   C4B 9754   5.777   1.456   7.650
 4914POPC   NC3 9755  28.374  19.080   9.450
 4914POPC   PO4 9756  28.326  19.054   9.150
 4914POPC   GL1 9757  28.363  19.014   8.850
 4914POPC   GL2 9758  28.432  18.928   8.850
 4914POPC   C1A 9759  28.398  19.070   8.550
 4914POPC   D2A 9760  28.413  19.022   8.250
 4914POPC   C3A 9761  28.327  19.036   7.950
 4914POPC   C4A 9762  28.366  19.065   7.650
 4914POPC   C1B 9763  28.530  18.913   8.550
 4914POPC   C2B 9764  28.522  18.928   8.250
 4914POPC   C3B 9765  28.576  18.930   7.950
 4914POPC   C4B 9766  28.586  18.914   7.650
 4915POPC   NC3 9767  24.467  41.576   9.450
 4915POPC   PO4 9768  24.531  41.590   9.150
 4915POPC   GL1 9769  24.449  41.602   8.850
 4915POPC   GL2 9770  24.349  41.651   8.850
 4915POPC   C1A 9771  24.523  41.543   8.550
 4915POPC   D2A 9772  24.482  41.511   8.250
 4915POPC   C3A 9773  24.486  41.569   7.950
 4915POPC   C4A 9774  24.477  41.522   7.650
 4915POPC   C1B 9775  24.293  41.715   8.550
 4915POPC   C2B 9776  24.262  41.775   8.250
 4915POPC   C3B 9777  24.278  41.732   7.950
 4915POPC   C4B 9778  24.323  41.735   7.650
 4916POPC   NC3 9779  30.725   0.406   9.450
 4916POPC   PO4 9780  30.730   0.485   9.150
 4916POPC   GL1 9781  30.648   0.454   8.850
 4916POPC   GL2 9782  30.574   0.545   8.850
 4916POPC   C1A 9783  30.695   0.432   8.550
 4916POPC   D2A 9784  30.744   0.457   8.250
 4916POPC   C3A 9785  30.704   0.424   7.950
 4916POPC   C4A 9786  30.647   0.459   7.650
 4916POPC   C1B 9787  30.526   0.590   8.550
 4916POPC   C2B 9788  30.503   0.616   8.250
 4916POPC   C3B 9789  30.475   0.599   7.950
 4916POPC   C4B 9790  30.462   0.579   7.650
 4917POPC   NC3 9791   5.096   7.457   9.450
 4917POPC   PO4 9792   5.048   7.398   9.150
 4917POPC   GL1 9793   5.050   7.466   8.850
 4917POPC   GL2 9794   5.253   7.402   8.850
 4917POPC   C1A 9795   5.128   7.431   8.550
 4917POPC   D2A 9796   5.071   7.423   8.250
 4917POPC   C3A 9797   5.048   7.413   7.950
 4917POPC   C4A 9798   5.064   7.376   7.650
 4917POPC   C1B 9799   5.312   7.441   8.550
 4917POPC   C2B 9800   5.366   7.382   8.250
 4917POPC   C3B 9801   5.334   7.354   7.950
 4917POPC   C4B 9802   5.388   7.441   7.650
 4918POPC   NC3 9803   5.824  37.638   9.450
 4918POPC   PO4 9804   5.852  37.676   9.150
 4918POPC   GL1 9805   5.862  37.639   8.850
 4918POPC   GL2 9806   5.946  37.764   8.850
 4918POPC   C1A 9807   5.898  37.710   8.550
 4918POPC   D2A 9808   5.842  37.712   8.250
 4918POPC   C3A 9809   5.867  37.668   7.950
 4918POPC   C4A 9810   5.851  37.663   7.650
 4918POPC   C1B 9811   6.007  37.894   8.550
 4918POPC   C2B 9812   5.990  37.928   8.250
 4918POPC   C3B 9813   5.964  37.936   7.950
 4918POPC   C4B 9814   6.002  37.957   7.650
 4919POPC   NC3 9815  11.306   5.141   9.450
 4919POPC   PO4 9816  11.270   5.053   9.150
 4919POPC   GL1 9817  11.317   5.111   8.850
 4919POPC   GL2 9818  11.207   5.057   8.850
 4919POPC   C1A 9819  11.349   5.130   8.550
 4919POPC   D2A 9820  11.327   5.106   8.250
 4919POPC   C3A 9821  11.291   5.066   7.950
 4919POPC   C4A 9822  11.318   5.117   7.650
 4919POPC   C1B 9823  11.100   5.101   8.550
 4919POPC   C2B 9824  11.019   5.097   8.250
 4919POPC   C3B 9825  11.048   5.018   7.950
 4919POPC   C4B 9826  11.055   5.053   7.650
 4920POPC   NC3 9827  19.075  19.848   9.450
 4920POPC   PO4 9828  19.060  19.860   9.150
 4920POPC   GL1 9829  19.051  19.810   8.850
 4920POPC   GL2 9830  19.097  19.961   8.850
 4920POPC   C1A 9831  19.010  19.882   8.550
 4920POPC   D2A 9832  19.107  19.851   8.250
 4920POPC   C3A 9833  19.015  19.811   7.950
 4920POPC   C4A 9834  19.068  19.845   7.650
 4920POPC   C1B 9835  19.136  20.108   8.550
 4920POPC   C2B 9836  19.116  20.078   8.250
 4920POPC   C3B 9837  19.056  20.075   7.950
 4920POPC   C4B 9838  19.122  20.129   7.650
 4921POPC   NC3 9839  14.405  31.520   9.450
 4921POPC   PO4 9840  14.373  31.498   9.150
 4921POPC   GL1 9841  14.382  31.429   8.850
 4921POPC   GL2 9842  14.406  31.336   8.850
 4921POPC   C1A 9843  14.384  31.520   8.550
 4921POPC   D2A 9844  14.414  31.451   8.250
 4921POPC   C3A 9845  14.372  31.475   7.950
 4921POPC   C4A 9846  14.440  31.508   7.650
 4921POPC   C1B 9847  14.385  31.242   8.550
 4921POPC   C2B 9848  14.406  31.215   8.250
 4921POPC   C3B 9849  14.386  31.268   7.950
 4921POPC   C4B 9850  14.403  31.182   7.650
 4922POPC   NC3 9851   1.189  26.784   9.450
 4922POPC   PO4 9852   1.227  26.777   9.150
 4922POPC   GL1 9853   1.238  26.793   8.850
 4922POPC   GL2 9854   1.344  26.821   8.850
 4922POPC   C1A 9855   1.223  26.865   8.550
 4922POPC   D2A 9856   1.249  26.778   8.250
 4922POPC   C3A 9857   1.243  26.822   7.950
 4922POPC   C4A 9858   1.166  26.773   7.650
 4922POPC   C1B 9859   1.464  26.742   8.550
 4922POPC   C2B 9860   1.506  26.802   8.250
 4922POPC   C3B 9861   1.487  26.752   7.950
 4922POPC   C4B 9862   1.487  26.762   7.650
 4923POPC   NC3 9863   2.797  15.936   9.450
 4923POPC   PO4 9864   2.786  15.985   9.150
 4923POPC   GL1 9865   2.802  15.991   8.850
 4923POPC   GL2 9866   2.858  16.032   8.850
 4923POPC   C1A 9867   2.813  15.921   8.550
 4923POPC   D2A 9868   2.763  16.001   8.250
 4923POPC   C3A 9869   2.730  15.926   7.950
 4923POPC   C4A 9870   2.732  15.976   7.650
 4923POPC   C1B 9871   2.928  16.126   8.550
 4923POPC   C2B 9872   2.912  16.191   8.250
 4923POPC   C3B 9873   2.935  16.214   7.950
 4923POPC   C4B 9874   2.849  16.200   7.650
 4924POPC   NC3 9875  25.230  23.682   9.450
 4924POPC   PO4 9876  25.307  23.706   9.150
 4924POPC   GL1 9877  25.302  23.704   8.850
 4924POPC   GL2 9878  25.214  23.621   8.850
 4924POPC   C1A 9879  25.224  23.672   8.550
 4924POPC   D2A 9880  25.272  23.712   8.250
 4924POPC   C3A 9881  25.217  23.719   7.950
 4924POPC   C4A 9882  25.226  23.670   7.650
 4924POPC   C1B 9883  25.057  23.504   8.550
 4924POPC   C2B 9884  25.102  23.545   8.250
 4924POPC   C3B 9885  25.133  23.552   7.950
 4924POPC   C4B 9886  25.098  23.517   7.650
 4925POPC   NC3 9887  29.947  26.819   9.450
 4925POPC   PO4 9888  29.951  26.777   9.150
 4925POPC   GL1 9889  29.931  26.779   8.850
 4925POPC   GL2 9890  30.031  26.878   8.850
 4925POPC   C1A 9891  29.969  26.814   8.550
 4925POPC   D2A 9892  29.922  26.796   8.250
 4925POPC   C3A 9893  29.948  26.786   7.950
 4925POPC   C4A 9894  29.932  26.829   7.650
 4925POPC   C1B 9895  30.077  26.942   8.550
 4925POPC   C2B 9896  30.078  26.944   8.250
 4925POPC   C3B 9897  30.103  26.928   7.950
 4925POPC   C4B 9898  30.136  26.961   7.650
 4926POPC   NC3 9899  31.451   3.567   9.450
 4926POPC   PO4 9900  31.511   3.537   9.150
 4926POPC   GL1 9901  31.515   3.582   8.850
 4926POPC   GL2 9902  31.371   3.672   8.850
 4926POPC   C1A 9903  31.433   3.568   8.550
 4926POPC   D2A 9904  31.475   3.511   8.250
 4926POPC   C3A 9905  31.454   3.578   7.950
 4926POPC   C4A 9906  31.474   3.585   7.650
 4926POPC   C1B 9907  31.253   3.717   8.550
 4926POPC   C2B 9908  31.324   3.700   8.250
 4926POPC   C3B 9909  31.336   3.746   7.950
 4926POPC   C4B 9910  31.318   3.722   7.650
 4927POPC   NC3 9911  35.306  15.961   9.450
 4927POPC   PO4 9912  35.327  15.960   9.150
 4927POPC   GL1 9913  35.339  15.912   8.850
 4927POPC   GL2 9914  35.330  15.838   8.850
 4927POPC   C1A 9915  35.329  15.955   8.550
 4927POPC   D2A 9916  35.356  15.946   8.250
 4927POPC   C3A 9917  35.371  15.988   7.950
 4927POPC   C4A 9918  35.336  15.921   7.650
 4927POPC   C1B 9919  35.244  15.760   8.550
 4927POPC   C2B 9920  35.207  15.714   8.250
 4927POPC   C3B 9921  35.209  15.733   7.950
 4927POPC   C4B 9922  35.237  15.695   7.650
 4928POPC   NC3 9923   9.757  43.115   9.450
 4928POPC   PO4 9924   9.729  43.104   9.150
 4928POPC   GL1 9925   9.766  43.107   8.850
 4928POPC   GL2 9926   9.848  43.101   8.850
 4928POPC   C1A 9927   9.759  43.126   8.550
 4928POPC   D2A 9928   9.792  43.090   8.250
 4928POPC   C3A 9929   9.783  43.138   7.950
 4928POPC   C4A 9930   9.708  43.065   7.650
 4928POPC   C1B 9931   9.964  43.150   8.550
 4928POPC   C2B 9932  10.012  43.131   8.250
 4928POPC   C3B 9933   9.987  43.138   7.950
 4928POPC   C4B 9934   9.986  43.211   7.650
 4929POPC   NC3 9935  15.981  32.294   9.450
 4929POPC   PO4 9936  15.973  32.231   9.150
 4929POPC   GL1 9937  15.963  32.231   8.850
 4929POPC   GL2 9938  15.956  32.164   8.850
 4929POPC   C1A 9939  15.997  32.289   8.550
 4929POPC   D2A 9940  15.936  32.280   8.250
 4929POPC   C3A 9941  15.920  32.244   7.950
 4929POPC   C4A 9942  15.997  32.280   7.650
 4929POPC   C1B 9943  15.976  32.026   8.550
 4929POPC   C2B 9944  15.926  31.952   8.250
 4929POPC   C3B 9945  15.919  32.045   7.950
 4929POPC   C4B 9946  15.912  32.007   7.650
 4930POPC   NC3 9947   8.204   2.729   9.450
 4930POPC   PO4 9948   8.212   2.757   9.150
 4930POPC   GL1 9949   8.213   2.756   8.850
 4930POPC   GL2 9950   8.152   2.929   8.850
 4930POPC   C1A 9951   8.215   2.778   8.550
 4930POPC   D2A 9952   8.176   2.755   8.250
 4930POPC   C3A 9953   8.219   2.761   7.950
 4930POPC   C4A 9954   8.214   2.782   7.650
 4930POPC   C1B 9955   8.189   3.052   8.550
 4930POPC   C2B 9956   8.201   3.031   8.250
 4930POPC   C3B 9957   8.141   3.009   7.950
 4930POPC   C4B 9958   8.193   2.994   7.650
 4931POPC   NC3 9959  19.883  19.791   9.450
 4931POPC   PO4 9960  19.877  19.803   9.150
 4931POPC   GL1 9961  19.822  19.847   8.850
 4931POPC   GL2 9962  19.771  19.905   8.850
 4931POPC   C1A 9963  19.837  19.811   8.550
 4931POPC   D2A 9964  19.821  19.866   8.250
 4931POPC   C3A 9965  19.825  19.787   7.950
 4931POPC   C4A 9966  19.824  19.797   7.650
 4931POPC   C1B 9967  19.664  20.044   8.550
 4931POPC   C2B 9968  19.727  20.059   8.250
 4931POPC   C3B 9969  19.711  20.061   7.950
 4931POPC   C4B 9970  19.688  20.003   7.650
 4932POPC   NC3 9971  16.772  15.190   9.450
 4932POPC   PO4 9972  16.739  15.140   9.150
 4932POPC   GL1 9973  16.719  15.181   8.850
 4932POPC   GL2 9974  16.751  15.261   8.850
 4932POPC   C1A 9975  16.763  15.133   8.550
 4932POPC   D2A 9976  16.733  15.185   8.250
 4932POPC   C3A 9977  16.718  15.180   7.950
 4932POPC   C4A 9978  16.725  15.172   7.650
 4932POPC   C1B 9979  16.763  15.386   8.550
 4932POPC   C2B 9980  16.813  15.394   8.250
 4932POPC   C3B 9981  16.801  15.375   7.950
 4932POPC   C4B 9982  16.807  15.413   7.650
 4933POPC   NC3 9983  26.013  26.836   9.450
 4933POPC   PO4 9984  26.057  26.834   9.150
 4933POPC   GL1 9985  26.072  26.784   8.850
 4933POPC   GL2 9986  26.202  26.832   8.850
 4933POPC   C1A 9987  26.016  26.825   8.550
 4933POPC   D2A 9988  26.008  26.807   8.250
 4933POPC   C3A 9989  26.084  26.786   7.950
 4933POPC   C4A 9990  26.083  26.831   7.650
 4933POPC   C1B 9991  26.332  26.723   8.550
 4933POPC   C2B 9992  26.250  26.739   8.250
 4933POPC   C3B 9993  26.264  26.735   7.950
 4933POPC   C4B 9994  26.314  26.798   7.650
 4934POPC   NC3 9995  26.003  11.308   9.450
 4934POPC   PO4 9996  26.061  11.331   9.150
 4934POPC   GL1 9997  26.013  11.253   8.850
 4934POPC   GL2 9998  25.981  11.176   8.850
 4934POPC   C1A 9999  26.057  11.282   8.550
 4934POPC   D2A10000  26.016  11.272   8.250
 4934POPC   C3A10001  26.076  11.275   7.950
 4934POPC   C4A10002  26.058  11.312   7.650
 4934POPC   C1B10003  25.883  11.119   8.550
 4934POPC   C2B10004  25.829  11.110   8.250
 4934POPC   C3B10005  25.852  11.092   7.950
 4934POPC   C4B10006  25.901  11.146   7.650
 4935POPC   NC310007   5.891  24.458   9.450
 4935POPC   PO410008   5.842  24.533   9.150
 4935POPC   GL110009   5.913  24.495   8.850
 4935POPC   GL210010   5.914  24.570   8.850
 4935POPC   C1A10011   5.914  24.529   8.550
 4935POPC   D2A10012   5.883  24.494   8.250
 4935POPC   C3A10013   5.820  24.518   7.950
 4935POPC   C4A10014   5.836  24.522   7.650
 4935POPC   C1B10015   5.822  24.745   8.550
 4935POPC   C2B10016   5.905  24.752   8.250
 4935POPC   C3B10017   5.883  24.716   7.950
 4935POPC   C4B10018   5.906  24.719   7.650
 4936POPC   NC310019  14.442  33.819   9.450
 4936POPC   PO410020  14.389  33.797   9.150
 4936POPC   GL110021  14.440  33.797   8.850
 4936POPC   GL210022  14.520  33.710   8.850
 4936POPC   C1A10023  14.443  33.802   8.550
 4936POPC   D2A10024  14.387  33.836   8.250
 4936POPC   C3A10025  14.423  33.773   7.950
 4936POPC   C4A10026  14.399  33.792   7.650
 4936POPC   C1B10027  14.635  33.661   8.550
 4936POPC   C2B10028  14.646  33.688   8.250
 4936POPC   C3B10029  14.647  33.643   7.950
 4936POPC   C4B10030  14.613  33.599   7.650
 4937POPC   NC310031  42.334  15.169   9.450
 4937POPC   PO410032  42.308  15.137   9.150
 4937POPC   GL110033  42.352  15.153   8.850
 4937POPC   GL210034  42.323  15.050   8.850
 4937POPC   C1A10035  42.304  15.172   8.550
 4937POPC   D2A10036  42.339  15.158   8.250
 4937POPC   C3A10037  42.346  15.146   7.950
 4937POPC   C4A10038  42.299  15.143   7.650
 4937POPC   C1B10039  42.276  14.948   8.550
 4937POPC   C2B10040  42.357  14.916   8.250
 4937POPC   C3B10041  42.360  14.929   7.950
 4937POPC   C4B10042  42.343  14.933   7.650
 4938POPC   NC310043  42.367  25.291   9.450
 4938POPC   PO410044  42.326  25.315   9.150
 4938POPC   GL110045  42.378  25.238   8.850
 4938POPC   GL210046  42.470  25.244   8.850
 4938POPC   C1A10047  42.369  25.307   8.550
 4938POPC   D2A10048  42.345  25.310   8.250
 4938POPC   C3A10049  42.349  25.225   7.950
 4938POPC   C4A10050  42.368  25.231   7.650
 4938POPC   C1B10051  42.552  25.264   8.550
 4938POPC   C2B10052  42.622  25.291   8.250
 4938POPC   C3B10053  42.537  25.228   7.950
 4938POPC   C4B10054  42.597  25.196   7.650
 4939POPC   NC310055  36.949   8.153   9.450
 4939POPC   PO410056  36.910   8.217   9.150
 4939POPC   GL110057  36.885   8.228   8.850
 4939POPC   GL210058  36.893   8.064   8.850
 4939POPC   C1A10059  36.862   8.238   8.550
 4939POPC   D2A10060  36.887   8.218   8.250
 4939POPC   C3A10061  36.918   8.213   7.950
 4939POPC   C4A10062  36.939   8.221   7.650
 4939POPC   C1B10063  36.873   7.910   8.550
 4939POPC   C2B10064  36.909   7.964   8.250
 4939POPC   C3B10065  36.888   7.963   7.950
 4939POPC   C4B10066  36.831   7.922   7.650
 4940POPC   NC310067   1.971  12.070   9.450
 4940POPC   PO410068   1.989  12.122   9.150
 4940POPC   GL110069   2.033  12.100   8.850
 4940POPC   GL210070   1.892  12.025   8.850
 4940POPC   C1A10071   1.992  12.050   8.550
 4940POPC   D2A10072   1.982  12.034   8.250
 4940POPC   C3A10073   1.992  12.102   7.950
 4940POPC   C4A10074   1.956  12.119   7.650
 4940POPC   C1B10075   1.792  11.904   8.550
 4940POPC   C2B10076   1.857  11.899   8.250
 4940POPC   C3B10077   1.831  11.880   7.950
 4940POPC   C4B10078   1.775  11.853   7.650
 4941POPC   NC310079  19.028  33.033   9.450
 4941POPC   PO410080  19.093  32.986   9.150
 4941POPC   GL110081  19.034  33.050   8.850
 4941POPC   GL210082  19.214  33.102   8.850
 4941POPC   C1A10083  19.047  33.019   8.550
 4941POPC   D2A10084  19.063  33.012   8.250
 4941POPC   C3A10085  19.042  32.976   7.950
 4941POPC   C4A10086  19.052  33.010   7.650
 4941POPC   C1B10087  19.265  33.141   8.550
 4941POPC   C2B10088  19.258  33.104   8.250
 4941POPC   C3B10089  19.250  33.120   7.950
 4941POPC   C4B10090  19.306  33.080   7.650
 4942POPC   NC310091  40.758   0.451   9.450
 4942POPC   PO410092  40.736   0.416   9.150
 4942POPC   GL110093  40.754   0.406   8.850
 4942POPC   GL210094  40.949   0.460   8.850
 4942POPC   C1A10095  40.833   0.476   8.550
 4942POPC   D2A10096  40.793   0.477   8.250
 4942POPC   C3A10097  40.816   0.443   7.950
 4942POPC   C4A10098  40.774   0.418   7.650
 4942POPC   C1B10099  41.017   0.485   8.550
 4942POPC   C2B10100  41.052   0.502   8.250
 4942POPC   C3B10101  41.033   0.501   7.950
 4942POPC   C4B10102  41.007   0.539   7.650
 4943POPC   NC310103   1.216   8.150   9.450
 4943POPC   PO410104   1.242   8.157   9.150
 4943POPC   GL110105   1.214   8.183   8.850
 4943POPC   GL210106   1.086   8.152   8.850
 4943POPC   C1A10107   1.196   8.242   8.550
 4943POPC   D2A10108   1.168   8.234   8.250
 4943POPC   C3A10109   1.192   8.240   7.950
 4943POPC   C4A10110   1.200   8.232   7.650
 4943POPC   C1B10111   1.010   8.109   8.550
 4943POPC   C2B10112   0.958   8.184   8.250
 4943POPC   C3B10113   0.988   8.139   7.950
 4943POPC   C4B10114   0.956   8.118   7.650
 4944POPC   NC310115  41.557  12.860   9.450
 4944POPC   PO410116  41.609  12.898   9.150
 4944POPC   GL110117  41.542  12.870   8.850
 4944POPC   GL210118  41.689  12.938   8.850
 4944POPC   C1A10119  41.554  12.891   8.550
 4944POPC   D2A10120  41.514  12.847   8.250
 4944POPC   C3A10121  41.555  12.894   7.950
 4944POPC   C4A10122  41.510  12.821   7.650
 4944POPC   C1B10123  41.729  12.953   8.550
 4944POPC   C2B10124  41.735  13.018   8.250
 4944POPC   C3B10125  41.749  12.978   7.950
 4944POPC   C4B10126  41.725  12.998   7.650
 4945POPC   NC310127  33.800  32.241   9.450
 4945POPC   PO410128  33.840  32.202   9.150
 4945POPC   GL110129  33.795  32.223   8.850
 4945POPC   GL210130  33.829  32.359   8.850
 4945POPC   C1A10131  33.756  32.203   8.550
 4945POPC   D2A10132  33.780  32.268   8.250
 4945POPC   C3A10133  33.791  32.218   7.950
 4945POPC   C4A10134  33.839  32.235   7.650
 4945POPC   C1B10135  33.792  32.531   8.550
 4945POPC   C2B10136  33.759  32.485   8.250
 4945POPC   C3B10137  33.766  32.544   7.950
 4945POPC   C4B10138  33.777  32.540   7.650
 4946POPC   NC310139   5.071   1.981   9.450
 4946POPC   PO410140   5.138   2.003   9.150
 4946POPC   GL110141   5.086   2.008   8.850
 4946POPC   GL210142   5.108   1.882   8.850
 4946POPC   C1A10143   5.051   2.000   8.550
 4946POPC   D2A10144   5.110   1.958   8.250
 4946POPC   C3A10145   5.111   1.968   7.950
 4946POPC   C4A10146   5.140   1.941   7.650
 4946POPC   C1B10147   5.023   1.785   8.550
 4946POPC   C2B10148   5.079   1.704   8.250
 4946POPC   C3B10149   5.022   1.768   7.950
 4946POPC   C4B10150   5.063   1.694   7.650
 4947POPC   NC310151  15.189  43.865   9.450
 4947POPC   PO410152  15.166  43.893   9.150
 4947POPC   GL110153  15.199  43.843   8.850
 4947POPC   GL210154  15.182  43.989   8.850
 4947POPC   C1A10155  15.214  43.859   8.550
 4947POPC   D2A10156  15.140  43.842   8.250
 4947POPC   C3A10157  15.165  43.856   7.950
 4947POPC   C4A10158  15.158  43.928   7.650
 4947POPC   C1B10159  15.210  44.124   8.550
 4947POPC   C2B10160  15.255  44.129   8.250
 4947POPC   C3B10161  15.246  44.132   7.950
 4947POPC   C4B10162  15.222  44.114   7.650
 4948POPC   NC310163  36.170  33.829   9.450
 4948POPC   PO410164  36.103  33.813   9.150
 4948POPC   GL110165  36.115  33.756   8.850
 4948POPC   GL210166  36.178  33.869   8.850
 4948POPC   C1A10167  36.164  33.821   8.550
 4948POPC   D2A10168  36.097  33.810   8.250
 4948POPC   C3A10169  36.135  33.797   7.950
 4948POPC   C4A10170  36.117  33.791   7.650
 4948POPC   C1B10171  36.221  34.023   8.550
 4948POPC   C2B10172  36.213  33.991   8.250
 4948POPC   C3B10173  36.240  34.017   7.950
 4948POPC   C4B10174  36.249  33.983   7.650
 4949POPC   NC310175  33.038  12.072   9.450
 4949POPC   PO410176  32.993  12.109   9.150
 4949POPC   GL110177  33.050  12.111   8.850
 4949POPC   GL210178  33.018  11.905   8.850
 4949POPC   C1A10179  32.990  12.032   8.550
 4949POPC   D2A10180  33.050  12.123   8.250
 4949POPC   C3A10181  33.046  12.119   7.950
 4949POPC   C4A10182  33.057  12.097   7.650
 4949POPC   C1B10183  33.018  11.873   8.550
 4949POPC   C2B10184  33.059  11.820   8.250
 4949POPC   C3B10185  33.004  11.787   7.950
 4949POPC   C4B10186  33.006  11.869   7.650
 4950POPC   NC310187  26.022  19.102   9.450
 4950POPC   PO410188  26.004  19.018   9.150
 4950POPC   GL110189  26.018  19.074   8.850
 4950POPC   GL210190  26.069  19.183   8.850
 4950POPC   C1A10191  25.992  19.068   8.550
 4950POPC   D2A10192  26.087  19.075   8.250
 4950POPC   C3A10193  26.012  19.032   7.950
 4950POPC   C4A10194  26.040  19.071   7.650
 4950POPC   C1B10195  26.153  19.278   8.550
 4950POPC   C2B10196  26.085  19.309   8.250
 4950POPC   C3B10197  26.139  19.282   7.950
 4950POPC   C4B10198  26.152  19.316   7.650
 4951POPC   NC310199  41.517  23.680   9.450
 4951POPC   PO410200  41.556  23.749   9.150
 4951POPC   GL110201  41.541  23.761   8.850
 4951POPC   GL210202  41.527  23.829   8.850
 4951POPC   C1A10203  41.569  23.722   8.550
 4951POPC   D2A10204  41.523  23.689   8.250
 4951POPC   C3A10205  41.581  23.755   7.950
 4951POPC   C4A10206  41.538  23.721   7.650
 4951POPC   C1B10207  41.464  23.955   8.550
 4951POPC   C2B10208  41.442  23.912   8.250
 4951POPC   C3B10209  41.497  23.989   7.950
 4951POPC   C4B10210  41.506  23.934   7.650
 4952POPC   NC310211  19.085  30.672   9.450
 4952POPC   PO410212  19.016  30.655   9.150
 4952POPC   GL110213  19.052  30.685   8.850
 4952POPC   GL210214  19.160  30.586   8.850
 4952POPC   C1A10215  19.092  30.729   8.550
 4952POPC   D2A10216  19.072  30.710   8.250
 4952POPC   C3A10217  19.071  30.677   7.950
 4952POPC   C4A10218  19.043  30.706   7.650
 4952POPC   C1B10219  19.239  30.566   8.550
 4952POPC   C2B10220  19.230  30.552   8.250
 4952POPC   C3B10221  19.259  30.567   7.950
 4952POPC   C4B10222  19.265  30.591   7.650
 4953POPC   NC310223  32.205  21.396   9.450
 4953POPC   PO410224  32.268  21.377   9.150
 4953POPC   GL110225  32.223  21.386   8.850
 4953POPC   GL210226  32.298  21.300   8.850
 4953POPC   C1A10227  32.282  21.375   8.550
 4953POPC   D2A10228  32.280  21.402   8.250
 4953POPC   C3A10229  32.273  21.426   7.950
 4953POPC   C4A10230  32.249  21.364   7.650
 4953POPC   C1B10231  32.345  21.176   8.550
 4953POPC   C2B10232  32.401  21.204   8.250
 4953POPC   C3B10233  32.324  21.176   7.950
 4953POPC   C4B10234  32.349  21.129   7.650
 4954POPC   NC310235  37.709  29.177   9.450
 4954POPC   PO410236  37.699  29.109   9.150
 4954POPC   GL110237  37.691  29.193   8.850
 4954POPC   GL210238  37.726  29.272   8.850
 4954POPC   C1A10239  37.702  29.128   8.550
 4954POPC   D2A10240  37.658  29.135   8.250
 4954POPC   C3A10241  37.656  29.178   7.950
 4954POPC   C4A10242  37.641  29.119   7.650
 4954POPC   C1B10243  37.831  29.260   8.550
 4954POPC   C2B10244  37.855  29.304   8.250
 4954POPC   C3B10245  37.878  29.265   7.950
 4954POPC   C4B10246  37.858  29.347   7.650
 4955POPC   NC310247  18.275  29.118   9.450
 4955POPC   PO410248  18.236  29.099   9.150
 4955POPC   GL110249  18.289  29.181   8.850
 4955POPC   GL210250  18.394  29.067   8.850
 4955POPC   C1A10251  18.233  29.134   8.550
 4955POPC   D2A10252  18.250  29.135   8.250
 4955POPC   C3A10253  18.299  29.188   7.950
 4955POPC   C4A10254  18.248  29.125   7.650
 4955POPC   C1B10255  18.388  28.916   8.550
 4955POPC   C2B10256  18.438  28.910   8.250
 4955POPC   C3B10257  18.468  28.955   7.950
 4955POPC   C4B10258  18.431  28.933   7.650
 4956POPC   NC310259  32.998  38.423   9.450
 4956POPC   PO410260  33.029  38.488   9.150
 4956POPC   GL110261  32.975  38.474   8.850
 4956POPC   GL210262  33.174  38.565   8.850
 4956POPC   C1A10263  33.028  38.503   8.550
 4956POPC   D2A10264  32.977  38.421   8.250
 4956POPC   C3A10265  33.013  38.410   7.950
 4956POPC   C4A10266  33.061  38.423   7.650
 4956POPC   C1B10267  33.287  38.580   8.550
 4956POPC   C2B10268  33.278  38.555   8.250
 4956POPC   C3B10269  33.271  38.540   7.950
 4956POPC   C4B10270  33.280  38.590   7.650
 4957POPC   NC310271  16.682  43.148   9.450
 4957POPC   PO410272  16.770  43.148   9.150
 4957POPC   GL110273  16.743  43.088   8.850
 4957POPC   GL210274  16.699  43.278   8.850
 4957POPC   C1A10275  16.713  43.095   8.550
 4957POPC   D2A10276  16.733  43.155   8.250
 4957POPC   C3A10277  16.690  43.107   7.950
 4957POPC   C4A10278  16.727  43.159   7.650
 4957POPC   C1B10279  16.780  43.364   8.550
 4957POPC   C2B10280  16.699  43.338   8.250
 4957POPC   C3B10281  16.780  43.370   7.950
 4957POPC   C4B10282  16.790  43.336   7.650
 4958POPC   NC310283  24.533  32.282   9.450
 4958POPC   PO410284  24.492  32.280   9.150
 4958POPC   GL110285  24.464  32.219   8.850
 4958POPC   GL210286  24.538  32.363   8.850
 4958POPC   C1A10287  24.522  32.225   8.550
 4958POPC   D2A10288  24.447  32.235   8.250
 4958POPC   C3A10289  24.490  32.232   7.950
 4958POPC   C4A10290  24.530  32.281   7.650
 4958POPC   C1B10291  24.700  32.411   8.550
 4958POPC   C2B10292  24.662  32.428   8.250
 4958POPC   C3B10293  24.620  32.432   7.950
 4958POPC   C4B10294  24.650  32.457   7.650
 4959POPC   NC310295  27.577  19.860   9.450
 4959POPC   PO410296  27.568  19.810   9.150
 4959POPC   GL110297  27.602  19.807   8.850
 4959POPC   GL210298  27.440  19.814   8.850
 4959POPC   C1A10299  27.577  19.787   8.550
 4959POPC   D2A10300  27.562  19.807   8.250
 4959POPC   C3A10301  27.630  19.787   7.950
 4959POPC   C4A10302  27.623  19.833   7.650
 4959POPC   C1B10303  27.340  19.826   8.550
 4959POPC   C2B10304  27.334  19.901   8.250
 4959POPC   C3B10305  27.347  19.856   7.950
 4959POPC   C4B10306  27.395  19.896   7.650
 4960POPC   NC310307  33.024  42.348   9.450
 4960POPC   PO410308  32.999  42.363   9.150
 4960POPC   GL110309  33.062  42.295   8.850
 4960POPC   GL210310  33.067  42.425   8.850
 4960POPC   C1A10311  32.984  42.324   8.550
 4960POPC   D2A10312  33.055  42.356   8.250
 4960POPC   C3A10313  33.000  42.378   7.950
 4960POPC   C4A10314  33.054  42.379   7.650
 4960POPC   C1B10315  33.164  42.453   8.550
 4960POPC   C2B10316  33.240  42.521   8.250
 4960POPC   C3B10317  33.238  42.484   7.950
 4960POPC   C4B10318  33.186  42.473   7.650
 4961POPC   NC310319  25.237  15.909   9.450
 4961POPC   PO410320  25.287  15.936   9.150
 4961POPC   GL110321  25.279  15.940   8.850
 4961POPC   GL210322  25.350  15.895   8.850
 4961POPC   C1A10323  25.218  15.975   8.550
 4961POPC   D2A10324  25.258  15.943   8.250
 4961POPC   C3A10325  25.310  15.949   7.950
 4961POPC   C4A10326  25.315  15.973   7.650
 4961POPC   C1B10327  25.515  15.875   8.550
 4961POPC   C2B10328  25.480  15.910   8.250
 4961POPC   C3B10329  25.492  15.943   7.950
 4961POPC   C4B10330  25.504  15.895   7.650
 4962POPC   NC310331  23.748  14.433   9.450
 4962POPC   PO410332  23.683  14.408   9.150
 4962POPC   GL110333  23.696  14.364   8.850
 4962POPC   GL210334  23.602  14.371   8.850
 4962POPC   C1A10335  23.714  14.424   8.550
 4962POPC   D2A10336  23.679  14.391   8.250
 4962POPC   C3A10337  23.668  14.448   7.950
 4962POPC   C4A10338  23.701  14.424   7.650
 4962POPC   C1B10339  23.500  14.331   8.550
 4962POPC   C2B10340  23.460  14.314   8.250
 4962POPC   C3B10341  23.468  14.372   7.950
 4962POPC   C4B10342  23.448  14.344   7.650
 4963POPC   NC310343  34.580  37.677   9.450
 4963POPC   PO410344  34.624  37.630   9.150
 4963POPC   GL110345  34.582  37.687   8.850
 4963POPC   GL210346  34.473  37.589   8.850
 4963POPC   C1A10347  34.611  37.713   8.550
 4963POPC   D2A10348  34.590  37.695   8.250
 4963POPC   C3A10349  34.611  37.689   7.950
 4963POPC   C4A10350  34.578  37.671   7.650
 4963POPC   C1B10351  34.399  37.477   8.550
 4963POPC   C2B10352  34.443  37.516   8.250
 4963POPC   C3B10353  34.406  37.501   7.950
 4963POPC   C4B10354  34.411  37.517   7.650
 4964POPC   NC310355  41.569  22.977   9.450
 4964POPC   PO410356  41.570  22.983   9.150
 4964POPC   GL110357  41.533  22.948   8.850
 4964POPC   GL210358  41.516  22.791   8.850
 4964POPC   C1A10359  41.567  22.956   8.550
 4964POPC   D2A10360  41.582  22.911   8.250
 4964POPC   C3A10361  41.514  22.894   7.950
 4964POPC   C4A10362  41.571  22.931   7.650
 4964POPC   C1B10363  41.501  22.711   8.550
 4964POPC   C2B10364  41.506  22.738   8.250
 4964POPC   C3B10365  41.502  22.671   7.950
 4964POPC   C4B10366  41.519  22.732   7.650
 4965POPC   NC310367  32.242  43.885   9.450
 4965POPC   PO410368  32.261  43.882   9.150
 4965POPC   GL110369  32.247  43.887   8.850
 4965POPC   GL210370  32.179  44.001   8.850
 4965POPC   C1A10371  32.243  43.858   8.550
 4965POPC   D2A10372  32.214  43.884   8.250
 4965POPC   C3A10373  32.280  43.863   7.950
 4965POPC   C4A10374  32.209  43.856   7.650
 4965POPC   C1B10375  32.086  44.047   8.550
 4965POPC   C2B10376  32.145  44.098   8.250
 4965POPC   C3B10377  32.077  44.065   7.950
 4965POPC   C4B10378  32.114  44.048   7.650
 4966POPC   NC310379  26.775  17.546   9.450
 4966POPC   PO410380  26.782  17.534   9.150
 4966POPC   GL110381  26.804  17.463   8.850
 4966POPC   GL210382  26.684  17.466   8.850
 4966POPC   C1A10383  26.789  17.500   8.550
 4966POPC   D2A10384  26.790  17.518   8.250
 4966POPC   C3A10385  26.770  17.530   7.950
 4966POPC   C4A10386  26.828  17.554   7.650
 4966POPC   C1B10387  26.598  17.378   8.550
 4966POPC   C2B10388  26.665  17.362   8.250
 4966POPC   C3B10389  26.593  17.343   7.950
 4966POPC   C4B10390  26.676  17.362   7.650
 4967POPC   NC310391  35.307  11.279   9.450
 4967POPC   PO410392  35.330  11.347   9.150
 4967POPC   GL110393  35.305  11.318   8.850
 4967POPC   GL210394  35.259  11.239   8.850
 4967POPC   C1A10395  35.335  11.266   8.550
 4967POPC   D2A10396  35.335  11.317   8.250
 4967POPC   C3A10397  35.310  11.256   7.950
 4967POPC   C4A10398  35.327  11.321   7.650
 4967POPC   C1B10399  35.182  11.082   8.550
 4967POPC   C2B10400  35.236  11.056   8.250
 4967POPC   C3B10401  35.245  11.108   7.950
 4967POPC   C4B10402  35.230  11.105   7.650
 4968POPC   NC310403  34.565  32.248   9.450
 4968POPC   PO410404  34.587  32.282   9.150
 4968POPC   GL110405  34.546  32.278   8.850
 4968POPC   GL210406  34.606  32.172   8.850
 4968POPC   C1A10407  34.571  32.246   8.550
 4968POPC   D2A10408  34.619  32.252   8.250
 4968POPC   C3A10409  34.531  32.268   7.950
 4968POPC   C4A10410  34.624  32.286   7.650
 4968POPC   C1B10411  34.599  32.012   8.550
 4968POPC   C2B10412  34.632  32.050   8.250
 4968POPC   C3B10413  34.588  32.040   7.950
 4968POPC   C4B10414  34.608  32.004   7.650
 4969POPC   NC310415  15.931   1.973   9.450
 4969POPC   PO410416  15.905   1.959   9.150
 4969POPC   GL110417  15.910   2.019   8.850
 4969POPC   GL210418  16.060   1.860   8.850
 4969POPC   C1A10419  15.936   2.032   8.550
 4969POPC   D2A10420  15.954   1.999   8.250
 4969POPC   C3A10421  15.985   1.949   7.950
 4969POPC   C4A10422  15.913   2.005   7.650
 4969POPC   C1B10423  16.096   1.796   8.550
 4969POPC   C2B10424  16.139   1.859   8.250
 4969POPC   C3B10425  16.121   1.854   7.950
 4969POPC   C4B10426  16.092   1.865   7.650
 4970POPC   NC310427  43.135  24.440   9.450
 4970POPC   PO410428  43.097  24.463   9.150
 4970POPC   GL110429  43.156  24.505   8.850
 4970POPC   GL210430  43.184  24.470   8.850
 4970POPC   C1A10431  43.101  24.483   8.550
 4970POPC   D2A10432  43.103  24.445   8.250
 4970POPC   C3A10433  43.097  24.508   7.950
 4970POPC   C4A10434  43.129  24.466   7.650
 4970POPC   C1B10435  43.326  24.492   8.550
 4970POPC   C2B10436  43.396  24.489   8.250
 4970POPC   C3B10437  43.317  24.453   7.950
 4970POPC   C4B10438  43.403  24.486   7.650
 4971POPC   NC310439  13.627  18.291   9.450
 4971POPC   PO410440  13.598  18.328   9.150
 4971POPC   GL110441  13.609  18.283   8.850
 4971POPC   GL210442  13.490  18.366   8.850
 4971POPC   C1A10443  13.630  18.248   8.550
 4971POPC   D2A10444  13.670  18.266   8.250
 4971POPC   C3A10445  13.586  18.332   7.950
 4971POPC   C4A10446  13.613  18.312   7.650
 4971POPC   C1B10447  13.368  18.383   8.550
 4971POPC   C2B10448  13.389  18.424   8.250
 4971POPC   C3B10449  13.446  18.419   7.950
 4971POPC   C4B10450  13.456  18.437   7.650
 4972POPC   NC310451  15.139  13.579   9.450
 4972POPC   PO410452  15.166  13.582   9.150
 4972POPC   GL110453  15.148  13.603   8.850
 4972POPC   GL210454  15.104  13.627   8.850
 4972POPC   C1A10455  15.186  13.624   8.550
 4972POPC   D2A10456  15.187  13.623   8.250
 4972POPC   C3A10457  15.154  13.602   7.950
 4972POPC   C4A10458  15.158  13.676   7.650
 4972POPC   C1B10459  14.925  13.585   8.550
 4972POPC   C2B10460  14.970  13.588   8.250
 4972POPC   C3B10461  14.979  13.575   7.950
 4972POPC   C4B10462  14.912  13.573   7.650
 4973POPC   NC310463  19.879   2.785   9.450
 4973POPC   PO410464  19.858   2.797   9.150
 4973POPC   GL110465  19.822   2.773   8.850
 4973POPC   GL210466  19.885   2.629   8.850
 4973POPC   C1A10467  19.843   2.741   8.550
 4973POPC   D2A10468  19.878   2.776   8.250
 4973POPC   C3A10469  19.785   2.780   7.950
 4973POPC   C4A10470  19.815   2.807   7.650
 4973POPC   C1B10471  19.977   2.541   8.550
 4973POPC   C2B10472  19.923   2.492   8.250
 4973POPC   C3B10473  19.972   2.523   7.950
 4973POPC   C4B10474  19.963   2.520   7.650
 4974POPC   NC310475  36.099  39.974   9.450
 4974POPC   PO410476  36.090  40.044   9.150
 4974POPC   GL110477  36.133  39.959   8.850
 4974POPC   GL210478  36.185  40.121   8.850
 4974POPC   C1A10479  36.133  39.957   8.550
 4974POPC   D2A10480  36.175  39.983   8.250
 4974POPC   C3A10481  36.080  39.978   7.950
 4974POPC   C4A10482  36.116  39.973   7.650
 4974POPC   C1B10483  36.265  40.209   8.550
 4974POPC   C2B10484  36.211  40.244   8.250
 4974POPC   C3B10485  36.217  40.254   7.950
 4974POPC   C4B10486  36.282  40.206   7.650
 4975POPC   NC310487   4.334  43.106   9.450
 4975POPC   PO410488   4.339  43.149   9.150
 4975POPC   GL110489   4.308  43.114   8.850
 4975POPC   GL210490   4.433  43.042   8.850
 4975POPC   C1A10491   4.339  43.073   8.550
 4975POPC   D2A10492   4.306  43.127   8.250
 4975POPC   C3A10493   4.290  43.158   7.950
 4975POPC   C4A10494   4.337  43.085   7.650
 4975POPC   C1B10495   4.526  42.977   8.550
 4975POPC   C2B10496   4.516  43.062   8.250
 4975POPC   C3B10497   4.532  42.988   7.950
 4975POPC   C4B10498   4.520  42.971   7.650
 4976POPC   NC310499   6.657  40.009   9.450
 4976POPC   PO410500   6.635  40.011   9.150
 4976POPC   GL110501   6.605  39.957   8.850
 4976POPC   GL210502   6.587  39.872   8.850
 4976POPC   C1A10503   6.694  40.047   8.550
 4976POPC   D2A10504   6.689  39.982   8.250
 4976POPC   C3A10505   6.600  40.015   7.950
 4976POPC   C4A10506   6.651  39.979   7.650
 4976POPC   C1B10507   6.643  39.727   8.550
 4976POPC   C2B10508   6.589  39.718   8.250
 4976POPC   C3B10509   6.563  39.790   7.950
 4976POPC   C4B10510   6.576  39.807   7.650
 4977POPC   NC310511   7.427  42.357   9.450
 4977POPC   PO410512   7.451  42.381   9.150
 4977POPC   GL110513   7.434  42.331   8.850
 4977POPC   GL210514   7.378  42.226   8.850
 4977POPC   C1A10515   7.405  42.378   8.550
 4977POPC   D2A10516   7.378  42.339   8.250
 4977POPC   C3A10517   7.458  42.309   7.950
 4977POPC   C4A10518   7.419  42.296   7.650
 4977POPC   C1B10519   7.293  42.112   8.550
 4977POPC   C2B10520   7.254  42.152   8.250
 4977POPC   C3B10521   7.213  42.095   7.950
 4977POPC   C4B10522   7.286  42.150   7.650
 4978POPC   NC310523  11.304  18.286   9.450
 4978POPC   PO410524  11.279  18.265   9.150
 4978POPC   GL110525  11.256  18.247   8.850
 4978POPC   GL210526  11.199  18.248   8.850
 4978POPC   C1A10527  11.310  18.282   8.550
 4978POPC   D2A10528  11.338  18.252   8.250
 4978POPC   C3A10529  11.326  18.301   7.950
 4978POPC   C4A10530  11.272  18.243   7.650
 4978POPC   C1B10531  11.025  18.155   8.550
 4978POPC   C2B10532  11.029  18.211   8.250
 4978POPC   C3B10533  11.041  18.163   7.950
 4978POPC   C4B10534  11.082  18.155   7.650
 4979POPC   NC310535  19.816  13.609   9.450
 4979POPC   PO410536  19.787  13.612   9.150
 4979POPC   GL110537  19.849  13.616   8.850
 4979POPC   GL210538  19.865  13.476   8.850
 4979POPC   C1A10539  19.802  13.672   8.550
 4979POPC   D2A10540  19.835  13.641   8.250
 4979POPC   C3A10541  19.807  13.615   7.950
 4979POPC   C4A10542  19.852  13.597   7.650
 4979POPC   C1B10543  19.888  13.436   8.550
 4979POPC   C2B10544  19.888  13.422   8.250
 4979POPC   C3B10545  19.931  13.347   7.950
 4979POPC   C4B10546  19.935  13.354   7.650
 4980POPC   NC310547   4.349  28.414   9.450
 4980POPC   PO410548   4.326  28.394   9.150
 4980POPC   GL110549   4.321  28.401   8.850
 4980POPC   GL210550   4.173  28.437   8.850
 4980POPC   C1A10551   4.276  28.330   8.550
 4980POPC   D2A10552   4.278  28.332   8.250
 4980POPC   C3A10553   4.282  28.333   7.950
 4980POPC   C4A10554   4.348  28.371   7.650
 4980POPC   C1B10555   4.133  28.485   8.550
 4980POPC   C2B10556   4.135  28.505   8.250
 4980POPC   C3B10557   4.100  28.531   7.950
 4980POPC   C4B10558   4.095  28.466   7.650
 4981POPC   NC310559  15.215   5.066   9.450
 4981POPC   PO410560  15.225   5.051   9.150
 4981POPC   GL110561  15.155   5.045   8.850
 4981POPC   GL210562  15.073   5.092   8.850
 4981POPC   C1A10563  15.201   5.097   8.550
 4981POPC   D2A10564  15.148   5.131   8.250
 4981POPC   C3A10565  15.228   5.129   7.950
 4981POPC   C4A10566  15.176   5.139   7.650
 4981POPC   C1B10567  14.923   4.959   8.550
 4981POPC   C2B10568  14.966   4.954   8.250
 4981POPC   C3B10569  14.909   4.994   7.950
 4981POPC   C4B10570  14.922   5.008   7.650
 4982POPC   NC310571  28.329  18.289   9.450
 4982POPC   PO410572  28.418  18.318   9.150
 4982POPC   GL110573  28.380  18.266   8.850
 4982POPC   GL210574  28.451  18.354   8.850
 4982POPC   C1A10575  28.337  18.326   8.550
 4982POPC   D2A10576  28.369  18.333   8.250
 4982POPC   C3A10577  28.403  18.253   7.950
 4982POPC   C4A10578  28.376  18.265   7.650
 4982POPC   C1B10579  28.550  18.423   8.550
 4982POPC   C2B10580  28.561  18.408   8.250
 4982POPC   C3B10581  28.613  18.413   7.950
 4982POPC   C4B10582  28.538  18.389   7.650
 4983POPC   NC310583   2.771  13.624   9.450
 4983POPC   PO410584   2.735  13.601   9.150
 4983POPC   GL110585   2.737  13.610   8.850
 4983POPC   GL210586   2.919  13.630   8.850
 4983POPC   C1A10587   2.796  13.603   8.550
 4983POPC   D2A10588   2.743  13.645   8.250
 4983POPC   C3A10589   2.806  13.649   7.950
 4983POPC   C4A10590   2.728  13.619   7.650
 4983POPC   C1B10591   3.046  13.735   8.550
 4983POPC   C2B10592   3.018  13.745   8.250
 4983POPC   C3B10593   2.963  13.762   7.950
 4983POPC   C4B10594   2.984  13.748   7.650
 4984POPC   NC310595  41.532   8.993   9.450
 4984POPC   PO410596  41.603   8.982   9.150
 4984POPC   GL110597  41.512   8.987   8.850
 4984POPC   GL210598  41.517   8.918   8.850
 4984POPC   C1A10599  41.517   8.950   8.550
 4984POPC   D2A10600  41.523   8.954   8.250
 4984POPC   C3A10601  41.593   8.977   7.950
 4984POPC   C4A10602  41.565   9.009   7.650
 4984POPC   C1B10603  41.360   8.788   8.550
 4984POPC   C2B10604  41.425   8.820   8.250
 4984POPC   C3B10605  41.417   8.835   7.950
 4984POPC   C4B10606  41.390   8.774   7.650
 4985POPC   NC310607   5.854  25.262   9.450
 4985POPC   PO410608   5.867  25.275   9.150
 4985POPC   GL110609   5.841  25.277   8.850
 4985POPC   GL210610   5.778  25.370   8.850
 4985POPC   C1A10611   5.858  25.249   8.550
 4985POPC   D2A10612   5.854  25.293   8.250
 4985POPC   C3A10613   5.833  25.235   7.950
 4985POPC   C4A10614   5.824  25.265   7.650
 4985POPC   C1B10615   5.646  25.445   8.550
 4985POPC   C2B10616   5.694  25.361   8.250
 4985POPC   C3B10617   5.671  25.358   7.950
 4985POPC   C4B10618   5.626  25.370   7.650
 4986POPC   NC310619  12.873  31.454   9.450
 4986POPC   PO410620  12.872  31.486   9.150
 4986POPC   GL110621  12.818  31.494   8.850
 4986POPC   GL210622  12.968  31.592   8.850
 4986POPC   C1A10623  12.870  31.433   8.550
 4986POPC   D2A10624  12.826  31.517   8.250
 4986POPC   C3A10625  12.818  31.514   7.950
 4986POPC   C4A10626  12.831  31.424   7.650
 4986POPC   C1B10627  13.062  31.639   8.550
 4986POPC   C2B10628  13.052  31.612   8.250
 4986POPC   C3B10629  12.975  31.695   7.950
 4986POPC   C4B10630  13.014  31.624   7.650
 4987POPC   NC310631   6.627  12.856   9.450
 4987POPC   PO410632   6.609  12.898   9.150
 4987POPC   GL110633   6.684  12.839   8.850
 4987POPC   GL210634   6.547  12.802   8.850
 4987POPC   C1A10635   6.613  12.843   8.550
 4987POPC   D2A10636   6.676  12.844   8.250
 4987POPC   C3A10637   6.604  12.883   7.950
 4987POPC   C4A10638   6.596  12.852   7.650
 4987POPC   C1B10639   6.438  12.727   8.550
 4987POPC   C2B10640   6.470  12.729   8.250
 4987POPC   C3B10641   6.449  12.740   7.950
 4987POPC   C4B10642   6.415  12.767   7.650
 4988POPC   NC310643  36.156   7.454   9.450
 4988POPC   PO410644  36.123   7.411   9.150
 4988POPC   GL110645  36.154   7.465   8.850
 4988POPC   GL210646  36.031   7.321   8.850
 4988POPC   C1A10647  36.136   7.382   8.550
 4988POPC   D2A10648  36.136   7.410   8.250
 4988POPC   C3A10649  36.089   7.454   7.950
 4988POPC   C4A10650  36.134   7.394   7.650
 4988POPC   C1B10651  36.002   7.166   8.550
 4988POPC   C2B10652  36.001   7.158   8.250
 4988POPC   C3B10653  36.028   7.206   7.950
 4988POPC   C4B10654  35.991   7.186   7.650
 4989POPC   NC310655  20.623  23.748   9.450
 4989POPC   PO410656  20.598  23.692   9.150
 4989POPC   GL110657  20.649  23.749   8.850
 4989POPC   GL210658  20.478  23.746   8.850
 4989POPC   C1A10659  20.660  23.664   8.550
 4989POPC   D2A10660  20.585  23.704   8.250
 4989POPC   C3A10661  20.639  23.729   7.950
 4989POPC   C4A10662  20.643  23.688   7.650
 4989POPC   C1B10663  20.323  23.789   8.550
 4989POPC   C2B10664  20.330  23.778   8.250
 4989POPC   C3B10665  20.384  23.739   7.950
 4989POPC   C4B10666  20.372  23.772   7.650
 4990POPC   NC310667  22.178  40.009   9.450
 4990POPC   PO410668  22.193  39.992   9.150
 4990POPC   GL110669  22.192  39.980   8.850
 4990POPC   GL210670  22.325  40.009   8.850
 4990POPC   C1A10671  22.121  40.051   8.550
 4990POPC   D2A10672  22.160  40.040   8.250
 4990POPC   C3A10673  22.116  39.985   7.950
 4990POPC   C4A10674  22.165  39.986   7.650
 4990POPC   C1B10675  22.375  39.948   8.550
 4990POPC   C2B10676  22.359  39.989   8.250
 4990POPC   C3B10677  22.367  39.909   7.950
 4990POPC   C4B10678  22.371  39.962   7.650
 4991POPC   NC310679  42.320  32.276   9.450
 4991POPC   PO410680  42.331  32.213   9.150
 4991POPC   GL110681  42.308  32.278   8.850
 4991POPC   GL210682  42.273  32.148   8.850
 4991POPC   C1A10683  42.343  32.269   8.550
 4991POPC   D2A10684  42.287  32.235   8.250
 4991POPC   C3A10685  42.332  32.263   7.950
 4991POPC   C4A10686  42.318  32.231   7.650
 4991POPC   C1B10687  42.335  32.046   8.550
 4991POPC   C2B10688  42.249  31.992   8.250
 4991POPC   C3B10689  42.292  31.988   7.950
 4991POPC   C4B10690  42.248  31.973   7.650
 4992POPC   NC310691  32.294  41.580   9.450
 4992POPC   PO410692  32.207  41.539   9.150
 4992POPC   GL110693  32.228  41.586   8.850
 4992POPC   GL210694  32.148  41.669   8.850
 4992POPC   C1A10695  32.271  41.528   8.550
 4992POPC   D2A10696  32.272  41.580   8.250
 4992POPC   C3A10697  32.281  41.593   7.950
 4992POPC   C4A10698  32.271  41.510   7.650
 4992POPC   C1B10699  32.133  41.755   8.550
 4992POPC   C2B10700  32.063  41.772   8.250
 4992POPC   C3B10701  32.120  41.707   7.950
 4992POPC   C4B10702  32.107  41.747   7.650
 4993POPC   NC310703   9.731  20.575   9.450
 4993POPC   PO410704   9.787  20.640   9.150
 4993POPC   GL110705   9.748  20.658   8.850
 4993POPC   GL210706   9.799  20.453   8.850
 4993POPC   C1A10707   9.795  20.618   8.550
 4993POPC   D2A10708   9.733  20.648   8.250
 4993POPC   C3A10709   9.758  20.629   7.950
 4993POPC   C4A10710   9.722  20.613   7.650
 4993POPC   C1B10711   9.796  20.363   8.550
 4993POPC   C2B10712   9.819  20.415   8.250
 4993POPC   C3B10713   9.812  20.369   7.950
 4993POPC   C4B10714   9.881  20.348   7.650
 4994POPC   NC310715   9.742   7.425   9.450
 4994POPC   PO410716   9.712   7.454   9.150
 4994POPC   GL110717   9.772   7.376   8.850
 4994POPC   GL210718   9.743   7.278   8.850
 4994POPC   C1A10719   9.721   7.400   8.550
 4994POPC   D2A10720   9.741   7.447   8.250
 4994POPC   C3A10721   9.785   7.383   7.950
 4994POPC   C4A10722   9.774   7.427   7.650
 4994POPC   C1B10723   9.679   7.221   8.550
 4994POPC   C2B10724   9.704   7.198   8.250
 4994POPC   C3B10725   9.700   7.165   7.950
 4994POPC   C4B10726   9.706   7.203   7.650
 4995POPC   NC310727   7.443  31.521   9.450
 4995POPC   PO410728   7.444  31.458   9.150
 4995POPC   GL110729   7.403  31.463   8.850
 4995POPC   GL210730   7.347  31.641   8.850
 4995POPC   C1A10731   7.399  31.450   8.550
 4995POPC   D2A10732   7.394  31.473   8.250
 4995POPC   C3A10733   7.401  31.469   7.950
 4995POPC   C4A10734   7.444  31.511   7.650
 4995POPC   C1B10735   7.354  31.700   8.550
 4995POPC   C2B10736   7.375  31.740   8.250
 4995POPC   C3B10737   7.352  31.738   7.950
 4995POPC   C4B10738   7.339  31.723   7.650
 4996POPC   NC310739   5.046  41.605   9.450
 4996POPC   PO410740   5.101  41.575   9.150
 4996POPC   GL110741   5.043  41.589   8.850
 4996POPC   GL210742   4.944  41.518   8.850
 4996POPC   C1A10743   5.135  41.560   8.550
 4996POPC   D2A10744   5.062  41.576   8.250
 4996POPC   C3A10745   5.054  41.538   7.950
 4996POPC   C4A10746   5.106  41.560   7.650
 4996POPC   C1B10747   4.846  41.541   8.550
 4996POPC   C2B10748   4.824  41.524   8.250
 4996POPC   C3B10749   4.824  41.518   7.950
 4996POPC   C4B10750   4.886  41.562   7.650
 4997POPC   NC310751  16.748  31.437   9.450
 4997POPC   PO410752  16.766  31.463   9.150
 4997POPC   GL110753  16.708  31.522   8.850
 4997POPC   GL210754  16.767  31.359   8.850
 4997POPC   C1A10755  16.777  31.445   8.550
 4997POPC   D2A10756  16.719  31.469   8.250
 4997POPC   C3A10757  16.687  31.455   7.950
 4997POPC   C4A10758  16.715  31.521   7.650
 4997POPC   C1B10759  16.797  31.270   8.550
 4997POPC   C2B10760  16.840  31.277   8.250
 4997POPC   C3B10761  16.853  31.240   7.950
 4997POPC   C4B10762  16.865  31.215   7.650
 4998POPC   NC310763  26.075  34.530   9.450
 4998POPC   PO410764  26.076  34.571   9.150
 4998POPC   GL110765  26.008  34.593   8.850
 4998POPC   GL210766  26.069  34.674   8.850
 4998POPC   C1A10767  26.053  34.574   8.550
 4998POPC   D2A10768  26.003  34.538   8.250
 4998POPC   C3A10769  26.057  34.626   7.950
 4998POPC   C4A10770  26.070  34.557   7.650
 4998POPC   C1B10771  26.178  34.838   8.550
 4998POPC   C2B10772  26.179  34.784   8.250
 4998POPC   C3B10773  26.146  34.799   7.950
 4998POPC   C4B10774  26.115  34.783   7.650
 4999POPC   NC310775  14.371  28.358   9.450
 4999POPC   PO410776  14.432  28.323   9.150
 4999POPC   GL110777  14.417  28.375   8.850
 4999POPC   GL210778  14.437  28.507   8.850
 4999POPC   C1A10779  14.378  28.410   8.550
 4999POPC   D2A10780  14.364  28.403   8.250
 4999POPC   C3A10781  14.355  28.364   7.950
 4999POPC   C4A10782  14.433  28.360   7.650
 4999POPC   C1B10783  14.409  28.629   8.550
 4999POPC   C2B10784  14.402  28.578   8.250
 4999POPC   C3B10785  14.439  28.639   7.950
 4999POPC   C4B10786  14.388  28.648   7.650
 5000POPC   NC310787   5.898   5.058   9.450
 5000POPC   PO410788   5.883   5.119   9.150
 5000POPC   GL110789   5.885   5.070   8.850
 5000POPC   GL210790   5.880   5.185   8.850
 5000POPC   C1A10791   5.895   5.119   8.550
 5000POPC   D2A10792   5.891   5.080   8.250
 5000POPC   C3A10793   5.910   5.096   7.950
 5000POPC   C4A10794   5.916   5.082   7.650
 5000POPC   C1B10795   5.927   5.381   8.550
 5000POPC   C2B10796   5.975   5.300   8.250
 5000POPC   C3B10797   5.923   5.306   7.950
 5000POPC   C4B10798   5.948   5.307   7.650
 5001POPC   NC310799  34.568  26.849   9.450
 5001POPC   PO410800  34.574  26.795   9.150
 5001POPC   GL110801  34.558  26.839   8.850
 5001POPC   GL210802  34.651  26.793   8.850
 5001POPC   C1A10803  34.604  26.823   8.550
 5001POPC   D2A10804  34.594  26.796   8.250
 5001POPC   C3A10805  34.584  26.803   7.950
 5001POPC   C4A10806  34.541  26.840   7.650
 5001POPC   C1B10807  34.791  26.784   8.550
 5001POPC   C2B10808  34.793  26.787   8.250
 5001POPC   C3B10809  34.789  26.735   7.950
 5001POPC   C4B10810  34.861  26.774   7.650
 5002POPC   NC310811   3.504  15.192   9.450
 5002POPC   PO410812   3.494  15.157   9.150
 5002POPC   GL110813   3.550  15.160   8.850
 5002POPC   GL210814   3.450  15.224   8.850
 5002POPC   C1A10815   3.539  15.222   8.550
 5002POPC   D2A10816   3.577  15.144   8.250
 5002POPC   C3A10817   3.493  15.201   7.950
 5002POPC   C4A10818   3.587  15.229   7.650
 5002POPC   C1B10819   3.381  15.365   8.550
 5002POPC   C2B10820   3.290  15.330   8.250
 5002POPC   C3B10821   3.352  15.275   7.950
 5002POPC   C4B10822   3.314  15.299   7.650
 5003POPC   NC310823  41.522  20.637   9.450
 5003POPC   PO410824  41.595  20.563   9.150
 5003POPC   GL110825  41.511  20.628   8.850
 5003POPC   GL210826  41.547  20.473   8.850
 5003POPC   C1A10827  41.595  20.603   8.550
 5003POPC   D2A10828  41.510  20.580   8.250
 5003POPC   C3A10829  41.596  20.647   7.950
 5003POPC   C4A10830  41.567  20.634   7.650
 5003POPC   C1B10831  41.436  20.374   8.550
 5003POPC   C2B10832  41.448  20.407   8.250
 5003POPC   C3B10833  41.425  20.419   7.950
 5003POPC   C4B10834  41.424  20.387   7.650
 5004POPC   NC310835  14.370  33.038   9.450
 5004POPC   PO410836  14.397  33.028   9.150
 5004POPC   GL110837  14.441  33.012   8.850
 5004POPC   GL210838  14.321  33.031   8.850
 5004POPC   C1A10839  14.364  33.072   8.550
 5004POPC   D2A10840  14.384  33.002   8.250
 5004POPC   C3A10841  14.451  33.015   7.950
 5004POPC   C4A10842  14.418  33.018   7.650
 5004POPC   C1B10843  14.182  33.030   8.550
 5004POPC   C2B10844  14.157  32.961   8.250
 5004POPC   C3B10845  14.150  32.955   7.950
 5004POPC   C4B10846  14.118  32.962   7.650
 5005POPC   NC310847   8.954   7.398   9.450
 5005POPC   PO410848   8.951   7.397   9.150
 5005POPC   GL110849   8.946   7.400   8.850
 5005POPC   GL210850   8.822   7.422   8.850
 5005POPC   C1A10851   8.957   7.409   8.550
 5005POPC   D2A10852   8.951   7.387   8.250
 5005POPC   C3A10853   8.947   7.470   7.950
 5005POPC   C4A10854   8.968   7.390   7.650
 5005POPC   C1B10855   8.777   7.304   8.550
 5005POPC   C2B10856   8.730   7.376   8.250
 5005POPC   C3B10857   8.748   7.316   7.950
 5005POPC   C4B10858   8.781   7.384   7.650
 5006POPC   NC310859  40.803  37.674   9.450
 5006POPC   PO410860  40.785  37.648   9.150
 5006POPC   GL110861  40.799  37.679   8.850
 5006POPC   GL210862  40.684  37.703   8.850
 5006POPC   C1A10863  40.770  37.658   8.550
 5006POPC   D2A10864  40.830  37.708   8.250
 5006POPC   C3A10865  40.794  37.687   7.950
 5006POPC   C4A10866  40.798  37.709   7.650
 5006POPC   C1B10867  40.612  37.809   8.550
 5006POPC   C2B10868  40.536  37.811   8.250
 5006POPC   C3B10869  40.586  37.784   7.950
 5006POPC   C4B10870  40.585  37.796   7.650
 5007POPC   NC310871  21.397   0.477   9.450
 5007POPC   PO410872  21.351   0.401   9.150
 5007POPC   GL110873  21.349   0.391   8.850
 5007POPC   GL210874  21.467   0.523   8.850
 5007POPC   C1A10875  21.359   0.467   8.550
 5007POPC   D2A10876  21.403   0.462   8.250
 5007POPC   C3A10877  21.356   0.400   7.950
 5007POPC   C4A10878  21.378   0.429   7.650
 5007POPC   C1B10879  21.612   0.545   8.550
 5007POPC   C2B10880  21.653   0.491   8.250
 5007POPC   C3B10881  21.654   0.551   7.950
 5007POPC   C4B10882  21.575   0.520   7.650
 5008POPC   NC310883   9.012  25.216   9.450
 5008POPC   PO410884   8.923  25.226   9.150
 5008POPC   GL110885   8.997  25.307   8.850
 5008POPC   GL210886   9.064  25.256   8.850
 5008POPC   C1A10887   9.002  25.233   8.550
 5008POPC   D2A10888   8.985  25.219   8.250
 5008POPC   C3A10889   8.952  25.281   7.950
 5008POPC   C4A10890   9.010  25.271   7.650
 5008POPC   C1B10891   9.236  25.301   8.550
 5008POPC   C2B10892   9.258  25.314   8.250
 5008POPC   C3B10893   9.184  25.282   7.950
 5008POPC   C4B10894   9.211  25.299   7.650
 5009POPC   NC310895   4.336   2.753   9.450
 5009POPC   PO410896   4.320   2.717   9.150
 5009POPC   GL110897   4.333   2.721   8.850
 5009POPC   GL210898   4.300   2.913   8.850
 5009POPC   C1A10899   4.347   2.733   8.550
 5009POPC   D2A10900   4.327   2.716   8.250
 5009POPC   C3A10901   4.272   2.811   7.950
 5009POPC   C4A10902   4.324   2.736   7.650
 5009POPC   C1B10903   4.398   3.020   8.550
 5009POPC   C2B10904   4.407   3.005   8.250
 5009POPC   C3B10905   4.336   2.976   7.950
 5009POPC   C4B10906   4.338   3.018   7.650
 5010POPC   NC310907  33.770  26.848   9.450
 5010POPC   PO410908  33.754  26.847   9.150
 5010POPC   GL110909  33.813  26.808   8.850
 5010POPC   GL210910  33.884  26.862   8.850
 5010POPC   C1A10911  33.816  26.843   8.550
 5010POPC   D2A10912  33.804  26.793   8.250
 5010POPC   C3A10913  33.776  26.773   7.950
 5010POPC   C4A10914  33.820  26.847   7.650
 5010POPC   C1B10915  34.034  26.760   8.550
 5010POPC   C2B10916  34.022  26.808   8.250
 5010POPC   C3B10917  34.053  26.822   7.950
 5010POPC   C4B10918  34.092  26.802   7.650
 5011POPC   NC310919  30.690   6.657   9.450
 5011POPC   PO410920  30.745   6.692   9.150
 5011POPC   GL110921  30.716   6.610   8.850
 5011POPC   GL210922  30.638   6.753   8.850
 5011POPC   C1A10923  30.733   6.620   8.550
 5011POPC   D2A10924  30.673   6.610   8.250
 5011POPC   C3A10925  30.716   6.622   7.950
 5011POPC   C4A10926  30.668   6.597   7.650
 5011POPC   C1B10927  30.573   6.810   8.550
 5011POPC   C2B10928  30.548   6.796   8.250
 5011POPC   C3B10929  30.589   6.842   7.950
 5011POPC   C4B10930  30.530   6.818   7.650
 5012POPC   NC310931   6.631   5.099   9.450
 5012POPC   PO410932   6.634   5.134   9.150
 5012POPC   GL110933   6.611   5.062   8.850
 5012POPC   GL210934   6.746   5.000   8.850
 5012POPC   C1A10935   6.657   5.070   8.550
 5012POPC   D2A10936   6.657   5.118   8.250
 5012POPC   C3A10937   6.651   5.059   7.950
 5012POPC   C4A10938   6.628   5.070   7.650
 5012POPC   C1B10939   6.700   4.870   8.550
 5012POPC   C2B10940   6.796   4.826   8.250
 5012POPC   C3B10941   6.780   4.861   7.950
 5012POPC   C4B10942   6.706   4.898   7.650
 5013POPC   NC310943   5.912  12.094   9.450
 5013POPC   PO410944   5.841  12.071   9.150
 5013POPC   GL110945   5.855  12.089   8.850
 5013POPC   GL210946   5.810  12.166   8.850
 5013POPC   C1A10947   5.899  12.070   8.550
 5013POPC   D2A10948   5.876  12.061   8.250
 5013POPC   C3A10949   5.918  12.037   7.950
 5013POPC   C4A10950   5.906  12.104   7.650
 5013POPC   C1B10951   5.665  12.172   8.550
 5013POPC   C2B10952   5.628  12.198   8.250
 5013POPC   C3B10953   5.674  12.198   7.950
 5013POPC   C4B10954   5.681  12.228   7.650
 5014POPC   NC310955  30.710  19.882   9.450
 5014POPC   PO410956  30.681  19.877   9.150
 5014POPC   GL110957  30.713  19.817   8.850
 5014POPC   GL210958  30.767  19.969   8.850
 5014POPC   C1A10959  30.675  19.798   8.550
 5014POPC   D2A10960  30.666  19.881   8.250
 5014POPC   C3A10961  30.653  19.788   7.950
 5014POPC   C4A10962  30.692  19.801   7.650
 5014POPC   C1B10963  30.914  19.991   8.550
 5014POPC   C2B10964  30.860  20.017   8.250
 5014POPC   C3B10965  30.858  20.005   7.950
 5014POPC   C4B10966  30.827  20.049   7.650
 5015POPC   NC310967  25.266  31.427   9.450
 5015POPC   PO410968  25.218  31.495   9.150
 5015POPC   GL110969  25.285  31.464   8.850
 5015POPC   GL210970  25.169  31.418   8.850
 5015POPC   C1A10971  25.269  31.471   8.550
 5015POPC   D2A10972  25.259  31.516   8.250
 5015POPC   C3A10973  25.219  31.433   7.950
 5015POPC   C4A10974  25.307  31.515   7.650
 5015POPC   C1B10975  25.057  31.351   8.550
 5015POPC   C2B10976  25.046  31.345   8.250
 5015POPC   C3B10977  25.063  31.349   7.950
 5015POPC   C4B10978  25.077  31.308   7.650
 5016POPC   NC310979   0.478  21.359   9.450
 5016POPC   PO410980   0.409  21.355   9.150
 5016POPC   GL110981   0.443  21.363   8.850
 5016POPC   GL210982   0.422  21.536   8.850
 5016POPC   C1A10983   0.446  21.385   8.550
 5016POPC   D2A10984   0.402  21.413   8.250
 5016POPC   C3A10985   0.406  21.357   7.950
 5016POPC   C4A10986   0.400  21.368   7.650
 5016POPC   C1B10987   0.471  21.672   8.550
 5016POPC   C2B10988   0.390  21.618   8.250
 5016POPC   C3B10989   0.448  21.663   7.950
 5016POPC   C4B10990   0.385  21.670   7.650
 5017POPC   NC310991   1.257  24.535   9.450
 5017POPC   PO410992   1.260  24.448   9.150
 5017POPC   GL110993   1.262  24.444   8.850
 5017POPC   GL210994   1.294  24.554   8.850
 5017POPC   C1A10995   1.260  24.440   8.550
 5017POPC   D2A10996   1.244  24.460   8.250
 5017POPC   C3A10997   1.263  24.486   7.950
 5017POPC   C4A10998   1.243  24.456   7.650
 5017POPC   C1B10999   1.463  24.563   8.550
 5017POPC   C2B11000   1.457  24.604   8.250
 5017POPC   C3B11001   1.457  24.586   7.950
 5017POPC   C4B11002   1.431  24.639   7.650
 5018POPC   NC311003  13.637  32.220   9.450
 5018POPC   PO411004  13.627  32.293   9.150
 5018POPC   GL111005  13.663  32.246   8.850
 5018POPC   GL211006  13.511  32.213   8.850
 5018POPC   C1A11007  13.630  32.250   8.550
 5018POPC   D2A11008  13.668  32.254   8.250
 5018POPC   C3A11009  13.623  32.222   7.950
 5018POPC   C4A11010  13.630  32.240   7.650
 5018POPC   C1B11011  13.439  32.138   8.550
 5018POPC   C2B11012  13.429  32.153   8.250
 5018POPC   C3B11013  13.356  32.129   7.950
 5018POPC   C4B11014  13.374  32.133   7.650
 5019POPC   NC311015  24.465  39.212   9.450
 5019POPC   PO411016  24.453  39.250   9.150
 5019POPC   GL111017  24.513  39.231   8.850
 5019POPC   GL211018  24.379  39.197   8.850
 5019POPC   C1A11019  24.460  39.256   8.550
 5019POPC   D2A11020  24.501  39.258   8.250
 5019POPC   C3A11021  24.502  39.225   7.950
 5019POPC   C4A11022  24.496  39.250   7.650
 5019POPC   C1B11023  24.227  39.259   8.550
 5019POPC   C2B11024  24.269  39.299   8.250
 5019POPC   C3B11025  24.240  39.208   7.950
 5019POPC   C4B11026  24.289  39.260   7.650
 5020POPC   NC311027   5.875  40.759   9.450
 5020POPC   PO411028   5.890  40.745   9.150
 5020POPC   GL111029   5.836  40.742   8.850
 5020POPC   GL211030   6.001  40.902   8.850
 5020POPC   C1A11031   5.891  40.745   8.550
 5020POPC   D2A11032   5.904  40.789   8.250
 5020POPC   C3A11033   5.915  40.772   7.950
 5020POPC   C4A11034   5.844  40.768   7.650
 5020POPC   C1B11035   6.054  40.943   8.550
 5020POPC   C2B11036   6.062  40.912   8.250
 5020POPC   C3B11037   6.092  40.979   7.950
 5020POPC   C4B11038   6.020  40.920   7.650
 5021POPC   NC311039  16.699  10.497   9.450
 5021POPC   PO411040  16.742  10.568   9.150
 5021POPC   GL111041  16.703  10.532   8.850
 5021POPC   GL211042  16.832  10.413   8.850
 5021POPC   C1A11043  16.735  10.501   8.550
 5021POPC   D2A11044  16.724  10.502   8.250
 5021POPC   C3A11045  16.754  10.532   7.950
 5021POPC   C4A11046  16.775  10.497   7.650
 5021POPC   C1B11047  16.935  10.355   8.550
 5021POPC   C2B11048  16.909  10.396   8.250
 5021POPC   C3B11049  16.906  10.390   7.950
 5021POPC   C4B11050  16.870  10.342   7.650
 5022POPC   NC311051  30.665   3.570   9.450
 5022POPC   PO411052  30.717   3.591   9.150
 5022POPC   GL111053  30.664   3.524   8.850
 5022POPC   GL211054  30.602   3.543   8.850
 5022POPC   C1A11055  30.653   3.514   8.550
 5022POPC   D2A11056  30.737   3.494   8.250
 5022POPC   C3A11057  30.702   3.562   7.950
 5022POPC   C4A11058  30.664   3.519   7.650
 5022POPC   C1B11059  30.424   3.480   8.550
 5022POPC   C2B11060  30.437   3.428   8.250
 5022POPC   C3B11061  30.429   3.511   7.950
 5022POPC   C4B11062  30.444   3.455   7.650
 5023POPC   NC311063  26.005   4.290   9.450
 5023POPC   PO411064  26.001   4.344   9.150
 5023POPC   GL111065  26.088   4.348   8.850
 5023POPC   GL211066  26.065   4.230   8.850
 5023POPC   C1A11067  26.070   4.298   8.550
 5023POPC   D2A11068  26.068   4.356   8.250
 5023POPC   C3A11069  26.075   4.291   7.950
 5023POPC   C4A11070  26.050   4.293   7.650
 5023POPC   C1B11071  26.174   4.072   8.550
 5023POPC   C2B11072  26.139   4.081   8.250
 5023POPC   C3B11073  26.107   4.122   7.950
 5023POPC   C4B11074  26.121   4.130   7.650
 5024POPC   NC311075  21.431  12.075   9.450
 5024POPC   PO411076  21.336  12.123   9.150
 5024POPC   GL111077  21.363  12.054   8.850
 5024POPC   GL211078  21.348  11.929   8.850
 5024POPC   C1A11079  21.417  12.105   8.550
 5024POPC   D2A11080  21.343  12.082   8.250
 5024POPC   C3A11081  21.370  12.054   7.950
 5024POPC   C4A11082  21.349  12.081   7.650
 5024POPC   C1B11083  21.298  11.892   8.550
 5024POPC   C2B11084  21.304  11.843   8.250
 5024POPC   C3B11085  21.293  11.855   7.950
 5024POPC   C4B11086  21.303  11.871   7.650
 5025POPC   NC311087  36.105   0.404   9.450
 5025POPC   PO411088  36.110   0.452   9.150
 5025POPC   GL111089  36.090   0.416   8.850
 5025POPC   GL211090  35.991   0.497   8.850
 5025POPC   C1A11091  36.146   0.469   8.550
 5025POPC   D2A11092  36.177   0.472   8.250
 5025POPC   C3A11093  36.127   0.459   7.950
 5025POPC   C4A11094  36.108   0.458   7.650
 5025POPC   C1B11095  35.899   0.533   8.550
 5025POPC   C2B11096  35.950   0.570   8.250
 5025POPC   C3B11097  35.890   0.564   7.950
 5025POPC   C4B11098  35.916   0.534   7.650
 5026POPC   NC311099  30.718  36.913   9.450
 5026POPC   PO411100  30.676  36.860   9.150
 5026POPC   GL111101  30.686  36.930   8.850
 5026POPC   GL211102  30.595  36.897   8.850
 5026POPC   C1A11103  30.686  36.857   8.550
 5026POPC   D2A11104  30.682  36.953   8.250
 5026POPC   C3A11105  30.699  36.903   7.950
 5026POPC   C4A11106  30.697  36.872   7.650
 5026POPC   C1B11107  30.443  36.904   8.550
 5026POPC   C2B11108  30.455  36.908   8.250
 5026POPC   C3B11109  30.467  36.935   7.950
 5026POPC   C4B11110  30.456  36.859   7.650
 5027POPC   NC311111   5.119  19.862   9.450
 5027POPC   PO411112   5.121  19.874   9.150
 5027POPC   GL111113   5.101  19.844   8.850
 5027POPC   GL211114   5.207  19.759   8.850
 5027POPC   C1A11115   5.049  19.786   8.550
 5027POPC   D2A11116   5.055  19.816   8.250
 5027POPC   C3A11117   5.061  19.847   7.950
 5027POPC   C4A11118   5.140  19.802   7.650
 5027POPC   C1B11119   5.335  19.701   8.550
 5027POPC   C2B11120   5.289  19.743   8.250
 5027POPC   C3B11121   5.339  19.724   7.950
 5027POPC   C4B11122   5.293  19.754   7.650
 5028POPC   NC311123  44.688  15.981   9.450
 5028POPC   PO411124  44.670  15.960   9.150
 5028POPC   GL111125  44.707  15.982   8.850
 5028POPC   GL211126  44.559  16.024   8.850
 5028POPC   C1A11127  44.624  15.939   8.550
 5028POPC   D2A11128  44.643  16.000   8.250
 5028POPC   C3A11129  44.688  15.953   7.950
 5028POPC   C4A11130  44.647  15.962   7.650
 5028POPC   C1B11131  44.433  16.071   8.550
 5028POPC   C2B11132  44.414  16.065   8.250
 5028POPC   C3B11133  44.416  16.089   7.950
 5028POPC   C4B11134  44.388  16.011   7.650
 5029POPC   NC311135   7.436  28.404   9.450
 5029POPC   PO411136   7.424  28.411   9.150
 5029POPC   GL111137   7.457  28.381   8.850
 5029POPC   GL211138   7.517  28.474   8.850
 5029POPC   C1A11139   7.416  28.390   8.550
 5029POPC   D2A11140   7.400  28.336   8.250
 5029POPC   C3A11141   7.415  28.407   7.950
 5029POPC   C4A11142   7.432  28.320   7.650
 5029POPC   C1B11143   7.496  28.572   8.550
 5029POPC   C2B11144   7.557  28.595   8.250
 5029POPC   C3B11145   7.533  28.630   7.950
 5029POPC   C4B11146   7.559  28.578   7.650
 5030POPC   NC311147  11.295  40.774   9.450
 5030POPC   PO411148  11.277  40.749   9.150
 5030POPC   GL111149  11.310  40.789   8.850
 5030POPC   GL211150  11.379  40.922   8.850
 5030POPC   C1A11151  11.346  40.831   8.550
 5030POPC   D2A11152  11.266  40.747   8.250
 5030POPC   C3A11153  11.269  40.777   7.950
 5030POPC   C4A11154  11.279  40.756   7.650
 5030POPC   C1B11155  11.399  41.019   8.550
 5030POPC   C2B11156  11.426  41.014   8.250
 5030POPC   C3B11157  11.364  40.997   7.950
 5030POPC   C4B11158  11.440  41.036   7.650
 5031POPC   NC311159   3.588   5.130   9.450
 5031POPC   PO411160   3.494   5.092   9.150
 5031POPC   GL111161   3.565   5.101   8.850
 5031POPC   GL211162   3.511   4.924   8.850
 5031POPC   C1A11163   3.549   5.060   8.550
 5031POPC   D2A11164   3.492   5.070   8.250
 5031POPC   C3A11165   3.563   5.086   7.950
 5031POPC   C4A11166   3.550   5.110   7.650
 5031POPC   C1B11167   3.463   4.847   8.550
 5031POPC   C2B11168   3.498   4.817   8.250
 5031POPC   C3B11169   3.461   4.826   7.950
 5031POPC   C4B11170   3.489   4.874   7.650
 5032POPC   NC311171  36.911  28.399   9.450
 5032POPC   PO411172  36.872  28.417   9.150
 5032POPC   GL111173  36.861  28.416   8.850
 5032POPC   GL211174  37.051  28.422   8.850
 5032POPC   C1A11175  36.925  28.403   8.550
 5032POPC   D2A11176  36.870  28.406   8.250
 5032POPC   C3A11177  36.881  28.331   7.950
 5032POPC   C4A11178  36.888  28.407   7.650
 5032POPC   C1B11179  37.112  28.413   8.550
 5032POPC   C2B11180  37.147  28.387   8.250
 5032POPC   C3B11181  37.191  28.422   7.950
 5032POPC   C4B11182  37.174  28.364   7.650
 5033POPC   NC311183  40.810  30.678   9.450
 5033POPC   PO411184  40.767  30.724   9.150
 5033POPC   GL111185  40.738  30.692   8.850
 5033POPC   GL211186  40.726  30.591   8.850
 5033POPC   C1A11187  40.795  30.724   8.550
 5033POPC   D2A11188  40.764  30.701   8.250
 5033POPC   C3A11189  40.748  30.687   7.950
 5033POPC   C4A11190  40.801  30.725   7.650
 5033POPC   C1B11191  40.616  30.478   8.550
 5033POPC   C2B11192  40.649  30.535   8.250
 5033POPC   C3B11193  40.664  30.551   7.950
 5033POPC   C4B11194  40.626  30.490   7.650
 5034POPC   NC311195  31.498   5.135   9.450
 5034POPC   PO411196  31.470   5.109   9.150
 5034POPC   GL111197  31.482   5.138   8.850
 5034POPC   GL211198  31.375   4.943   8.850
 5034POPC   C1A11199  31.514   5.118   8.550
 5034POPC   D2A11200  31.499   5.103   8.250
 5034POPC   C3A11201  31.478   5.134   7.950
 5034POPC   C4A11202  31.508   5.068   7.650
 5034POPC   C1B11203  31.361   4.919   8.550
 5034POPC   C2B11204  31.361   4.834   8.250
 5034POPC   C3B11205  31.381   4.880   7.950
 5034POPC   C4B11206  31.317   4.838   7.650
 5035POPC   NC311207  31.440   5.892   9.450
 5035POPC   PO411208  31.511   5.860   9.150
 5035POPC   GL111209  31.472   5.897   8.850
 5035POPC   GL211210  31.606   5.953   8.850
 5035POPC   C1A11211  31.455   5.909   8.550
 5035POPC   D2A11212  31.432   5.915   8.250
 5035POPC   C3A11213  31.459   5.823   7.950
 5035POPC   C4A11214  31.494   5.877   7.650
 5035POPC   C1B11215  31.708   5.993   8.550
 5035POPC   C2B11216  31.689   6.015   8.250
 5035POPC   C3B11217  31.612   6.079   7.950
 5035POPC   C4B11218  31.652   6.083   7.650
 5036POPC   NC311219  14.412  39.203   9.450
 5036POPC   PO411220  14.442  39.242   9.150
 5036POPC   GL111221  14.429  39.203   8.850
 5036POPC   GL211222  14.403  39.137   8.850
 5036POPC   C1A11223  14.416  39.268   8.550
 5036POPC   D2A11224  14.369  39.258   8.250
 5036POPC   C3A11225  14.449  39.258   7.950
 5036POPC   C4A11226  14.382  39.240   7.650
 5036POPC   C1B11227  14.497  39.002   8.550
 5036POPC   C2B11228  14.481  39.006   8.250
 5036POPC   C3B11229  14.432  38.994   7.950
 5036POPC   C4B11230  14.417  39.001   7.650
 5037POPC   NC311231  11.301  28.355   9.450
 5037POPC   PO411232  11.342  28.378   9.150
 5037POPC   GL111233  11.298  28.348   8.850
 5037POPC   GL211234  11.445  28.425   8.850
 5037POPC   C1A11235  11.266  28.399   8.550
 5037POPC   D2A11236  11.286  28.399   8.250
 5037POPC   C3A11237  11.272  28.381   7.950
 5037POPC   C4A11238  11.346  28.355   7.650
 5037POPC   C1B11239  11.502  28.356   8.550
 5037POPC   C2B11240  11.594  28.433   8.250
 5037POPC   C3B11241  11.542  28.359   7.950
 5037POPC   C4B11242  11.554  28.401   7.650
 5038POPC   NC311243   0.483  16.714   9.450
 5038POPC   PO411244   0.461  16.716   9.150
 5038POPC   GL111245   0.408  16.750   8.850
 5038POPC   GL211246   0.377  16.660   8.850
 5038POPC   C1A11247   0.414  16.691   8.550
 5038POPC   D2A11248   0.456  16.770   8.250
 5038POPC   C3A11249   0.433  16.691   7.950
 5038POPC   C4A11250   0.450  16.728   7.650
 5038POPC   C1B11251   0.263  16.563   8.550
 5038POPC   C2B11252   0.268  16.517   8.250
 5038POPC   C3B11253   0.234  16.545   7.950
 5038POPC   C4B11254   0.284  16.585   7.650
 5039POPC   NC311255  36.114  19.054   9.450
 5039POPC   PO411256  36.109  19.076   9.150
 5039POPC   GL111257  36.097  19.064   8.850
 5039POPC   GL211258  36.204  18.966   8.850
 5039POPC   C1A11259  36.151  19.012   8.550
 5039POPC   D2A11260  36.093  19.015   8.250
 5039POPC   C3A11261  36.150  19.077   7.950
 5039POPC   C4A11262  36.146  19.044   7.650
 5039POPC   C1B11263  36.161  18.823   8.550
 5039POPC   C2B11264  36.159  18.866   8.250
 5039POPC   C3B11265  36.230  18.853   7.950
 5039POPC   C4B11266  36.203  18.844   7.650
 5040POPC   NC311267  10.503  27.615   9.450
 5040POPC   PO411268  10.516  27.545   9.150
 5040POPC   GL111269  10.543  27.565   8.850
 5040POPC   GL211270  10.513  27.676   8.850
 5040POPC   C1A11271  10.537  27.630   8.550
 5040POPC   D2A11272  10.474  27.591   8.250
 5040POPC   C3A11273  10.503  27.573   7.950
 5040POPC   C4A11274  10.507  27.571   7.650
 5040POPC   C1B11275  10.452  27.794   8.550
 5040POPC   C2B11276  10.382  27.866   8.250
 5040POPC   C3B11277  10.398  27.868   7.950
 5040POPC   C4B11278  10.404  27.859   7.650
 5041POPC   NC311279  17.466  14.414   9.450
 5041POPC   PO411280  17.476  14.384   9.150
 5041POPC   GL111281  17.517  14.442   8.850
 5041POPC   GL211282  17.437  14.460   8.850
 5041POPC   C1A11283  17.556  14.418   8.550
 5041POPC   D2A11284  17.519  14.387   8.250
 5041POPC   C3A11285  17.549  14.395   7.950
 5041POPC   C4A11286  17.529  14.422   7.650
 5041POPC   C1B11287  17.342  14.548   8.550
 5041POPC   C2B11288  17.254  14.496   8.250
 5041POPC   C3B11289  17.349  14.580   7.950
 5041POPC   C4B11290  17.252  14.595   7.650
 5042POPC   NC311291  15.943  12.885   9.450
 5042POPC   PO411292  15.980  12.807   9.150
 5042POPC   GL111293  15.940  12.816   8.850
 5042POPC   GL211294  15.963  13.001   8.850
 5042POPC   C1A11295  15.952  12.901   8.550
 5042POPC   D2A11296  16.002  12.812   8.250
 5042POPC   C3A11297  15.938  12.856   7.950
 5042POPC   C4A11298  15.933  12.835   7.650
 5042POPC   C1B11299  16.049  13.054   8.550
 5042POPC   C2B11300  16.074  13.129   8.250
 5042POPC   C3B11301  16.055  13.084   7.950
 5042POPC   C4B11302  16.051  13.075   7.650
 5043POPC   NC311303   0.443  11.291   9.450
 5043POPC   PO411304   0.397  11.318   9.150
 5043POPC   GL111305   0.467  11.335   8.850
 5043POPC   GL211306   0.540  11.169   8.850
 5043POPC   C1A11307   0.452  11.300   8.550
 5043POPC   D2A11308   0.447  11.280   8.250
 5043POPC   C3A11309   0.419  11.309   7.950
 5043POPC   C4A11310   0.465  11.322   7.650
 5043POPC   C1B11311   0.534  11.093   8.550
 5043POPC   C2B11312   0.505  11.102   8.250
 5043POPC   C3B11313   0.572  11.054   7.950
 5043POPC   C4B11314   0.584  11.046   7.650
 5044POPC   NC311315  44.613  14.402   9.450
 5044POPC   PO411316  44.651  14.433   9.150
 5044POPC   GL111317  44.685  14.356   8.850
 5044POPC   GL211318  44.681  14.498   8.850
 5044POPC   C1A11319  44.646  14.379   8.550
 5044POPC   D2A11320  44.689  14.447   8.250
 5044POPC   C3A11321  44.612  14.440   7.950
 5044POPC   C4A11322  44.630  14.368   7.650
 5044POPC   C1B11323  44.741  14.632   8.550
 5044POPC   C2B11324  44.750  14.625   8.250
 5044POPC   C3B11325  44.824  14.584   7.950
 5044POPC   C4B11326  44.752  14.652   7.650
 5045POPC   NC311327  10.569  31.440   9.450
 5045POPC   PO411328  10.568  31.431   9.150
 5045POPC   GL111329  10.531  31.483   8.850
 5045POPC   GL211330  10.551  31.401   8.850
 5045POPC   C1A11331  10.498  31.489   8.550
 5045POPC   D2A11332  10.571  31.515   8.250
 5045POPC   C3A11333  10.566  31.477   7.950
 5045POPC   C4A11334  10.519  31.434   7.650
 5045POPC   C1B11335  10.625  31.277   8.550
 5045POPC   C2B11336  10.608  31.205   8.250
 5045POPC   C3B11337  10.677  31.235   7.950
 5045POPC   C4B11338  10.622  31.236   7.650
 5046POPC   NC311339  16.687  25.224   9.450
 5046POPC   PO411340  16.751  25.245   9.150
 5046POPC   GL111341  16.769  25.232   8.850
 5046POPC   GL211342  16.628  25.220   8.850
 5046POPC   C1A11343  16.688  25.245   8.550
 5046POPC   D2A11344  16.683  25.244   8.250
 5046POPC   C3A11345  16.712  25.229   7.950
 5046POPC   C4A11346  16.777  25.241   7.650
 5046POPC   C1B11347  16.475  25.161   8.550
 5046POPC   C2B11348  16.515  25.196   8.250
 5046POPC   C3B11349  16.463  25.202   7.950
 5046POPC   C4B11350  16.507  25.225   7.650
 5047POPC   NC311351  13.591   6.631   9.450
 5047POPC   PO411352  13.625   6.620   9.150
 5047POPC   GL111353  13.615   6.688   8.850
 5047POPC   GL211354  13.718   6.656   8.850
 5047POPC   C1A11355  13.620   6.638   8.550
 5047POPC   D2A11356  13.654   6.680   8.250
 5047POPC   C3A11357  13.621   6.616   7.950
 5047POPC   C4A11358  13.666   6.628   7.650
 5047POPC   C1B11359  13.886   6.607   8.550
 5047POPC   C2B11360  13.909   6.570   8.250
 5047POPC   C3B11361  13.857   6.638   7.950
 5047POPC   C4B11362  13.876   6.571   7.650
 5048POPC   NC311363  11.262  31.491   9.450
 5048POPC   PO411364  11.257  31.516   9.150
 5048POPC   GL111365  11.349  31.463   8.850
 5048POPC   GL211366  11.164  31.402   8.850
 5048POPC   C1A11367  11.322  31.478   8.550
 5048POPC   D2A11368  11.265  31.509   8.250
 5048POPC   C3A11369  11.258  31.475   7.950
 5048POPC   C4A11370  11.323  31.505   7.650
 5048POPC   C1B11371  11.057  31.325   8.550
 5048POPC   C2B11372  11.081  31.307   8.250
 5048POPC   C3B11373  11.109  31.367   7.950
 5048POPC   C4B11374  11.054  31.383   7.650
 5049POPC   NC311375  41.524   7.404   9.450
 5049POPC   PO411376  41.546   7.430   9.150
 5049POPC   GL111377  41.543   7.383   8.850
 5049POPC   GL211378  41.506   7.303   8.850
 5049POPC   C1A11379  41.606   7.456   8.550
 5049POPC   D2A11380  41.588   7.389   8.250
 5049POPC   C3A11381  41.510   7.442   7.950
 5049POPC   C4A11382  41.603   7.424   7.650
 5049POPC   C1B11383  41.387   7.284   8.550
 5049POPC   C2B11384  41.370   7.258   8.250
 5049POPC   C3B11385  41.334   7.285   7.950
 5049POPC   C4B11386  41.356   7.259   7.650
 5050POPC   NC311387   4.308  36.924   9.450
 5050POPC   PO411388   4.351  36.886   9.150
 5050POPC   GL111389   4.357  36.866   8.850
 5050POPC   GL211390   4.250  36.840   8.850
 5050POPC   C1A11391   4.295  36.872   8.550
 5050POPC   D2A11392   4.282  36.856   8.250
 5050POPC   C3A11393   4.339  36.928   7.950
 5050POPC   C4A11394   4.322  36.855   7.650
 5050POPC   C1B11395   4.151  36.763   8.550
 5050POPC   C2B11396   4.190  36.729   8.250
 5050POPC   C3B11397   4.152  36.715   7.950
 5050POPC   C4B11398   4.144  36.768   7.650
 5051POPC   NC311399  25.257   3.591   9.450
 5051POPC   PO411400  25.295   3.535   9.150
 5051POPC   GL111401  25.229   3.553   8.850
 5051POPC   GL211402  25.100   3.561   8.850
 5051POPC   C1A11403  25.307   3.589   8.550
 5051POPC   D2A11404  25.258   3.521   8.250
 5051POPC   C3A11405  25.302   3.534   7.950
 5051POPC   C4A11406  25.274   3.497   7.650
 5051POPC   C1B11407  25.049   3.600   8.550
 5051POPC   C2B11408  25.005   3.643   8.250
 5051POPC   C3B11409  25.033   3.579   7.950
 5051POPC   C4B11410  25.063   3.610   7.650
 5052POPC   NC311411  16.741  32.213   9.450
 5052POPC   PO411412  16.686  32.290   9.150
 5052POPC   GL111413  16.755  32.293   8.850
 5052POPC   GL211414  16.586  32.270   8.850
 5052POPC   C1A11415  16.728  32.242   8.550
 5052POPC   D2A11416  16.743  32.277   8.250
 5052POPC   C3A11417  16.751  32.264   7.950
 5052POPC   C4A11418  16.730  32.228   7.650
 5052POPC   C1B11419  16.477  32.291   8.550
 5052POPC   C2B11420  16.510  32.307   8.250
 5052POPC   C3B11421  16.512  32.340   7.950
 5052POPC   C4B11422  16.503  32.358   7.650
 5053POPC   NC311423  26.815  18.243   9.450
 5053POPC   PO411424  26.830  18.304   9.150
 5053POPC   GL111425  26.817  18.252   8.850
 5053POPC   GL211426  26.803  18.383   8.850
 5053POPC   C1A11427  26.768  18.278   8.550
 5053POPC   D2A11428  26.834  18.280   8.250
 5053POPC   C3A11429  26.796  18.276   7.950
 5053POPC   C4A11430  26.842  18.327   7.650
 5053POPC   C1B11431  26.736  18.507   8.550
 5053POPC   C2B11432  26.734  18.508   8.250
 5053POPC   C3B11433  26.746  18.537   7.950
 5053POPC   C4B11434  26.752  18.493   7.650
 5054POPC   NC311435   6.596   2.724   9.450
 5054POPC   PO411436   6.599   2.788   9.150
 5054POPC   GL111437   6.683   2.813   8.850
 5054POPC   GL211438   6.793   2.843   8.850
 5054POPC   C1A11439   6.606   2.768   8.550
 5054POPC   D2A11440   6.631   2.743   8.250
 5054POPC   C3A11441   6.642   2.763   7.950
 5054POPC   C4A11442   6.623   2.797   7.650
 5054POPC   C1B11443   6.899   2.843   8.550
 5054POPC   C2B11444   6.934   2.790   8.250
 5054POPC   C3B11445   6.869   2.825   7.950
 5054POPC   C4B11446   6.924   2.840   7.650
 5055POPC   NC311447  23.752  42.380   9.450
 5055POPC   PO411448  23.706  42.325   9.150
 5055POPC   GL111449  23.679  42.311   8.850
 5055POPC   GL211450  23.707  42.498   8.850
 5055POPC   C1A11451  23.676  42.380   8.550
 5055POPC   D2A11452  23.665  42.349   8.250
 5055POPC   C3A11453  23.693  42.373   7.950
 5055POPC   C4A11454  23.746  42.297   7.650
 5055POPC   C1B11455  23.648  42.590   8.550
 5055POPC   C2B11456  23.671  42.590   8.250
 5055POPC   C3B11457  23.687  42.575   7.950
 5055POPC   C4B11458  23.663  42.604   7.650
 5056POPC   NC311459  29.890  33.786   9.450
 5056POPC   PO411460  29.951  33.784   9.150
 5056POPC   GL111461  29.962  33.835   8.850
 5056POPC   GL211462  29.843  33.879   8.850
 5056POPC   C1A11463  29.940  33.848   8.550
 5056POPC   D2A11464  29.942  33.819   8.250
 5056POPC   C3A11465  29.952  33.799   7.950
 5056POPC   C4A11466  29.957  33.808   7.650
 5056POPC   C1B11467  29.829  34.055   8.550
 5056POPC   C2B11468  29.786  34.015   8.250
 5056POPC   C3B11469  29.790  34.063   7.950
 5056POPC   C4B11470  29.823  33.998   7.650
 5057POPC   NC311471  18.295  32.977   9.450
 5057POPC   PO411472  18.251  32.990   9.150
 5057POPC   GL111473  18.262  33.062   8.850
 5057POPC   GL211474  18.200  32.856   8.850
 5057POPC   C1A11475  18.300  33.007   8.550
 5057POPC   D2A11476  18.259  33.033   8.250
 5057POPC   C3A11477  18.277  33.001   7.950
 5057POPC   C4A11478  18.323  33.069   7.650
 5057POPC   C1B11479  18.179  32.817   8.550
 5057POPC   C2B11480  18.197  32.799   8.250
 5057POPC   C3B11481  18.248  32.764   7.950
 5057POPC   C4B11482  18.180  32.765   7.650
 5058POPC   NC311483  22.113   2.740   9.450
 5058POPC   PO411484  22.191   2.748   9.150
 5058POPC   GL111485  22.204   2.772   8.850
 5058POPC   GL211486  22.003   2.784   8.850
 5058POPC   C1A11487  22.128   2.764   8.550
 5058POPC   D2A11488  22.196   2.733   8.250
 5058POPC   C3A11489  22.123   2.799   7.950
 5058POPC   C4A11490  22.153   2.809   7.650
 5058POPC   C1B11491  21.961   2.712   8.550
 5058POPC   C2B11492  21.918   2.713   8.250
 5058POPC   C3B11493  21.916   2.747   7.950
 5058POPC   C4B11494  21.932   2.770   7.650
 5059POPC   NC311495   4.319   5.844   9.450
 5059POPC   PO411496   4.357   5.820   9.150
 5059POPC   GL111497   4.351   5.896   8.850
 5059POPC   GL211498   4.256   5.850   8.850
 5059POPC   C1A11499   4.288   5.852   8.550
 5059POPC   D2A11500   4.301   5.852   8.250
 5059POPC   C3A11501   4.328   5.861   7.950
 5059POPC   C4A11502   4.321   5.875   7.650
 5059POPC   C1B11503   4.133   5.803   8.550
 5059POPC   C2B11504   4.133   5.780   8.250
 5059POPC   C3B11505   4.051   5.752   7.950
 5059POPC   C4B11506   4.065   5.711   7.650
 5060POPC   NC311507  22.935  22.207   9.450
 5060POPC   PO411508  22.925  22.141   9.150
 5060POPC   GL111509  22.926  22.212   8.850
 5060POPC   GL211510  23.005  22.024   8.850
 5060POPC   C1A11511  22.907  22.193   8.550
 5060POPC   D2A11512  22.911  22.184   8.250
 5060POPC   C3A11513  22.984  22.182   7.950
 5060POPC   C4A11514  22.953  22.193   7.650
 5060POPC   C1B11515  23.129  21.919   8.550
 5060POPC   C2B11516  23.117  21.953   8.250
 5060POPC   C3B11517  23.061  21.948   7.950
 5060POPC   C4B11518  23.060  21.942   7.650
 5061POPC   NC311519  25.273   4.333   9.450
 5061POPC   PO411520  25.256   4.329   9.150
 5061POPC   GL111521  25.255   4.292   8.850
 5061POPC   GL211522  25.391   4.341   8.850
 5061POPC   C1A11523  25.315   4.351   8.550
 5061POPC   D2A11524  25.312   4.362   8.250
 5061POPC   C3A11525  25.231   4.279   7.950
 5061POPC   C4A11526  25.301   4.332   7.650
 5061POPC   C1B11527  25.449   4.452   8.550
 5061POPC   C2B11528  25.510   4.425   8.250
 5061POPC   C3B11529  25.531   4.379   7.950
 5061POPC   C4B11530  25.528   4.438   7.650
 5062POPC   NC311531   4.332  27.545   9.450
 5062POPC   PO411532   4.366  27.543   9.150
 5062POPC   GL111533   4.305  27.575   8.850
 5062POPC   GL211534   4.309  27.701   8.850
 5062POPC   C1A11535   4.332  27.544   8.550
 5062POPC   D2A11536   4.331  27.631   8.250
 5062POPC   C3A11537   4.363  27.578   7.950
 5062POPC   C4A11538   4.348  27.612   7.650
 5062POPC   C1B11539   4.280  27.872   8.550
 5062POPC   C2B11540   4.228  27.845   8.250
 5062POPC   C3B11541   4.199  27.823   7.950
 5062POPC   C4B11542   4.206  27.790   7.650
 5063POPC   NC311543  11.282  22.192   9.450
 5063POPC   PO411544  11.310  22.164   9.150
 5063POPC   GL111545  11.269  22.138   8.850
 5063POPC   GL211546  11.314  21.997   8.850
 5063POPC   C1A11547  11.297  22.184   8.550
 5063POPC   D2A11548  11.290  22.192   8.250
 5063POPC   C3A11549  11.310  22.197   7.950
 5063POPC   C4A11550  11.289  22.147   7.650
 5063POPC   C1B11551  11.325  21.922   8.550
 5063POPC   C2B11552  11.268  21.889   8.250
 5063POPC   C3B11553  11.263  21.936   7.950
 5063POPC   C4B11554  11.304  21.920   7.650
 5064POPC   NC311555   8.937  37.691   9.450
 5064POPC   PO411556   8.970  37.669   9.150
 5064POPC   GL111557   8.927  37.684   8.850
 5064POPC   GL211558   9.042  37.736   8.850
 5064POPC   C1A11559   8.959  37.697   8.550
 5064POPC   D2A11560   8.986  37.694   8.250
 5064POPC   C3A11561   8.933  37.685   7.950
 5064POPC   C4A11562   8.967  37.698   7.650
 5064POPC   C1B11563   9.117  37.811   8.550
 5064POPC   C2B11564   9.175  37.820   8.250
 5064POPC   C3B11565   9.108  37.894   7.950
 5064POPC   C4B11566   9.148  37.901   7.650
 5065POPC   NC311567  37.695  14.355   9.450
 5065POPC   PO411568  37.665  14.452   9.150
 5065POPC   GL111569  37.701  14.388   8.850
 5065POPC   GL211570  37.647  14.553   8.850
 5065POPC   C1A11571  37.690  14.394   8.550
 5065POPC   D2A11572  37.666  14.397   8.250
 5065POPC   C3A11573  37.653  14.358   7.950
 5065POPC   C4A11574  37.696  14.440   7.650
 5065POPC   C1B11575  37.666  14.664   8.550
 5065POPC   C2B11576  37.685  14.701   8.250
 5065POPC   C3B11577  37.728  14.647   7.950
 5065POPC   C4B11578  37.653  14.630   7.650
 5066POPC   NC311579  16.696   0.393   9.450
 5066POPC   PO411580  16.709   0.449   9.150
 5066POPC   GL111581  16.741   0.432   8.850
 5066POPC   GL211582  16.858   0.544   8.850
 5066POPC   C1A11583  16.767   0.472   8.550
 5066POPC   D2A11584  16.764   0.471   8.250
 5066POPC   C3A11585  16.779   0.394   7.950
 5066POPC   C4A11586  16.704   0.396   7.650
 5066POPC   C1B11587  16.948   0.574   8.550
 5066POPC   C2B11588  16.909   0.608   8.250
 5066POPC   C3B11589  16.948   0.591   7.950
 5066POPC   C4B11590  16.961   0.585   7.650
 5067POPC   NC311591  30.713  26.791   9.450
 5067POPC   PO411592  30.738  26.813   9.150
 5067POPC   GL111593  30.664  26.809   8.850
 5067POPC   GL211594  30.534  26.810   8.850
 5067POPC   C1A11595  30.744  26.816   8.550
 5067POPC   D2A11596  30.741  26.782   8.250
 5067POPC   C3A11597  30.739  26.803   7.950
 5067POPC   C4A11598  30.727  26.832   7.650
 5067POPC   C1B11599  30.506  26.705   8.550
 5067POPC   C2B11600  30.506  26.748   8.250
 5067POPC   C3B11601  30.424  26.689   7.950
 5067POPC   C4B11602  30.443  26.722   7.650
 5068POPC   NC311603  22.203  37.681   9.450
 5068POPC   PO411604  22.153  37.724   9.150
 5068POPC   GL111605  22.207  37.727   8.850
 5068POPC   GL211606  22.269  37.758   8.850
 5068POPC   C1A11607  22.190  37.681   8.550
 5068POPC   D2A11608  22.116  37.664   8.250
 5068POPC   C3A11609  22.152  37.708   7.950
 5068POPC   C4A11610  22.142  37.649   7.650
 5068POPC   C1B11611  22.331  37.930   8.550
 5068POPC   C2B11612  22.258  37.882   8.250
 5068POPC   C3B11613  22.301  37.903   7.950
 5068POPC   C4B11614  22.323  37.900   7.650
 5069POPC   NC311615  21.408  29.132   9.450
 5069POPC   PO411616  21.408  29.175   9.150
 5069POPC   GL111617  21.410  29.113   8.850
 5069POPC   GL211618  21.407  29.248   8.850
 5069POPC   C1A11619  21.390  29.127   8.550
 5069POPC   D2A11620  21.344  29.141   8.250
 5069POPC   C3A11621  21.355  29.162   7.950
 5069POPC   C4A11622  21.399  29.096   7.650
 5069POPC   C1B11623  21.546  29.340   8.550
 5069POPC   C2B11624  21.533  29.367   8.250
 5069POPC   C3B11625  21.479  29.368   7.950
 5069POPC   C4B11626  21.503  29.401   7.650
 5070POPC   NC311627  38.421  27.591   9.450
 5070POPC   PO411628  38.405  27.552   9.150
 5070POPC   GL111629  38.474  27.592   8.850
 5070POPC   GL211630  38.534  27.565   8.850
 5070POPC   C1A11631  38.421  27.641   8.550
 5070POPC   D2A11632  38.442  27.611   8.250
 5070POPC   C3A11633  38.475  27.594   7.950
 5070POPC   C4A11634  38.472  27.579   7.650
 5070POPC   C1B11635  38.718  27.577   8.550
 5070POPC   C2B11636  38.744  27.603   8.250
 5070POPC   C3B11637  38.671  27.520   7.950
 5070POPC   C4B11638  38.696  27.537   7.650
 5071POPC   NC311639  36.929  12.816   9.450
 5071POPC   PO411640  36.892  12.855   9.150
 5071POPC   GL111641  36.897  12.867   8.850
 5071POPC   GL211642  36.779  12.872   8.850
 5071POPC   C1A11643  36.867  12.815   8.550
 5071POPC   D2A11644  36.878  12.886   8.250
 5071POPC   C3A11645  36.923  12.852   7.950
 5071POPC   C4A11646  36.896  12.842   7.650
 5071POPC   C1B11647  36.631  12.816   8.550
 5071POPC   C2B11648  36.684  12.844   8.250
 5071POPC   C3B11649  36.626  12.791   7.950
 5071POPC   C4B11650  36.636  12.794   7.650
 5072POPC   NC311651  26.029  22.184   9.450
 5072POPC   PO411652  26.091  22.124   9.150
 5072POPC   GL111653  26.062  22.149   8.850
 5072POPC   GL211654  26.064  22.046   8.850
 5072POPC   C1A11655  26.014  22.197   8.550
 5072POPC   D2A11656  25.998  22.187   8.250
 5072POPC   C3A11657  26.033  22.177   7.950
 5072POPC   C4A11658  26.035  22.170   7.650
 5072POPC   C1B11659  26.074  21.933   8.550
 5072POPC   C2B11660  26.109  21.961   8.250
 5072POPC   C3B11661  26.083  21.929   7.950
 5072POPC   C4B11662  26.043  21.923   7.650
 5073POPC   NC311663   3.547  12.857   9.450
 5073POPC   PO411664   3.534  12.869   9.150
 5073POPC   GL111665   3.519  12.829   8.850
 5073POPC   GL211666   3.625  12.787   8.850
 5073POPC   C1A11667   3.534  12.817   8.550
 5073POPC   D2A11668   3.552  12.808   8.250
 5073POPC   C3A11669   3.575  12.871   7.950
 5073POPC   C4A11670   3.578  12.880   7.650
 5073POPC   C1B11671   3.791  12.848   8.550
 5073POPC   C2B11672   3.755  12.827   8.250
 5073POPC   C3B11673   3.826  12.863   7.950
 5073POPC   C4B11674   3.772  12.801   7.650
 5074POPC   NC311675  19.094  33.814   9.450
 5074POPC   PO411676  19.090  33.849   9.150
 5074POPC   GL111677  19.105  33.804   8.850
 5074POPC   GL211678  19.140  33.729   8.850
 5074POPC   C1A11679  19.107  33.764   8.550
 5074POPC   D2A11680  19.045  33.833   8.250
 5074POPC   C3A11681  19.073  33.757   7.950
 5074POPC   C4A11682  19.062  33.805   7.650
 5074POPC   C1B11683  19.269  33.669   8.550
 5074POPC   C2B11684  19.311  33.664   8.250
 5074POPC   C3B11685  19.248  33.723   7.950
 5074POPC   C4B11686  19.328  33.646   7.650
 5075POPC   NC311687  26.836  14.407   9.450
 5075POPC   PO411688  26.823  14.414   9.150
 5075POPC   GL111689  26.846  14.370   8.850
 5075POPC   GL211690  26.894  14.469   8.850
 5075POPC   C1A11691  26.802  14.365   8.550
 5075POPC   D2A11692  26.769  14.445   8.250
 5075POPC   C3A11693  26.771  14.432   7.950
 5075POPC   C4A11694  26.807  14.395   7.650
 5075POPC   C1B11695  27.006  14.545   8.550
 5075POPC   C2B11696  27.008  14.497   8.250
 5075POPC   C3B11697  27.019  14.522   7.950
 5075POPC   C4B11698  27.046  14.597   7.650
 5076POPC   NC311699  36.166  15.905   9.450
 5076POPC   PO411700  36.106  15.943   9.150
 5076POPC   GL111701  36.150  15.961   8.850
 5076POPC   GL211702  36.054  16.075   8.850
 5076POPC   C1A11703  36.092  15.984   8.550
 5076POPC   D2A11704  36.118  15.922   8.250
 5076POPC   C3A11705  36.140  15.925   7.950
 5076POPC   C4A11706  36.088  15.981   7.650
 5076POPC   C1B11707  36.042  16.171   8.550
 5076POPC   C2B11708  35.951  16.170   8.250
 5076POPC   C3B11709  35.998  16.168   7.950
 5076POPC   C4B11710  35.982  16.185   7.650
 5077POPC   NC311711  42.349  12.804   9.450
 5077POPC   PO411712  42.364  12.828   9.150
 5077POPC   GL111713  42.343  12.844   8.850
 5077POPC   GL211714  42.477  12.785   8.850
 5077POPC   C1A11715  42.384  12.892   8.550
 5077POPC   D2A11716  42.372  12.883   8.250
 5077POPC   C3A11717  42.343  12.813   7.950
 5077POPC   C4A11718  42.331  12.836   7.650
 5077POPC   C1B11719  42.587  12.751   8.550
 5077POPC   C2B11720  42.542  12.758   8.250
 5077POPC   C3B11721  42.575  12.765   7.950
 5077POPC   C4B11722  42.553  12.756   7.650
 5078POPC   NC311723  15.197  32.976   9.450
 5078POPC   PO411724  15.215  33.029   9.150
 5078POPC   GL111725  15.146  32.991   8.850
 5078POPC   GL211726  15.149  33.118   8.850
 5078POPC   C1A11727  15.161  33.046   8.550
 5078POPC   D2A11728  15.181  32.982   8.250
 5078POPC   C3A11729  15.175  32.995   7.950
 5078POPC   C4A11730  15.228  33.049   7.650
 5078POPC   C1B11731  15.205  33.309   8.550
 5078POPC   C2B11732  15.120  33.244   8.250
 5078POPC   C3B11733  15.127  33.317   7.950
 5078POPC   C4B11734  15.190  33.247   7.650
 5079POPC   NC311735   5.839   9.735   9.450
 5079POPC   PO411736   5.829   9.743   9.150
 5079POPC   GL111737   5.822   9.736   8.850
 5079POPC   GL211738   5.958   9.633   8.850
 5079POPC   C1A11739   5.829   9.736   8.550
 5079POPC   D2A11740   5.879   9.737   8.250
 5079POPC   C3A11741   5.836   9.746   7.950
 5079POPC   C4A11742   5.877   9.775   7.650
 5079POPC   C1B11743   5.986   9.516   8.550
 5079POPC   C2B11744   6.062   9.596   8.250
 5079POPC   C3B11745   6.058   9.582   7.950
 5079POPC   C4B11746   6.070   9.567   7.650
 5080POPC   NC311747  32.990  36.893   9.450
 5080POPC   PO411748  33.071  36.918   9.150
 5080POPC   GL111749  33.035  36.910   8.850
 5080POPC   GL211750  33.148  36.900   8.850
 5080POPC   C1A11751  32.999  36.915   8.550
 5080POPC   D2A11752  33.035  36.919   8.250
 5080POPC   C3A11753  33.045  36.885   7.950
 5080POPC   C4A11754  33.040  36.906   7.650
 5080POPC   C1B11755  33.310  36.908   8.550
 5080POPC   C2B11756  33.232  36.913   8.250
 5080POPC   C3B11757  33.289  36.955   7.950
 5080POPC   C4B11758  33.239  36.876   7.650
 5081POPC   NC311759  44.707  43.150   9.450
 5081POPC   PO411760  44.633  43.125   9.150
 5081POPC   GL111761  44.702  43.083   8.850
 5081POPC   GL211762  44.560  43.060   8.850
 5081POPC   C1A11763  44.635  43.090   8.550
 5081POPC   D2A11764  44.643  43.151   8.250
 5081POPC   C3A11765  44.690  43.142   7.950
 5081POPC   C4A11766  44.616  43.078   7.650
 5081POPC   C1B11767  44.468  42.985   8.550
 5081POPC   C2B11768  44.483  42.936   8.250
 5081POPC   C3B11769  44.479  42.932   7.950
 5081POPC   C4B11770  44.449  42.969   7.650
 5082POPC   NC311771   6.667  44.616   9.450
 5082POPC   PO411772   6.602  44.709   9.150
 5082POPC   GL111773   6.636  44.668   8.850
 5082POPC   GL211774   6.518  44.712   8.850
 5082POPC   C1A11775   6.694  44.678   8.550
 5082POPC   D2A11776   6.607  44.674   8.250
 5082POPC   C3A11777   6.619  44.707   7.950
 5082POPC   C4A11778   6.605  44.652   7.650
 5082POPC   C1B11779   6.470  44.878   8.550
 5082POPC   C2B11780   6.523  44.866   8.250
 5082POPC   C3B11781   6.535  44.850   7.950
 5082POPC   C4B11782   6.523  44.832   7.650
 5083POPC   NC311783  27.561  17.526   9.450
 5083POPC   PO411784  27.622  17.518   9.150
 5083POPC   GL111785  27.589  17.520   8.850
 5083POPC   GL211786  27.516  17.597   8.850
 5083POPC   C1A11787  27.543  17.476   8.550
 5083POPC   D2A11788  27.643  17.542   8.250
 5083POPC   C3A11789  27.581  17.474   7.950
 5083POPC   C4A11790  27.552  17.504   7.650
 5083POPC   C1B11791  27.399  17.671   8.550
 5083POPC   C2B11792  27.413  17.695   8.250
 5083POPC   C3B11793  27.450  17.730   7.950
 5083POPC   C4B11794  27.453  17.663   7.650
 5084POPC   NC311795   5.062  43.844   9.450
 5084POPC   PO411796   5.056  43.896   9.150
 5084POPC   GL111797   5.085  43.861   8.850
 5084POPC   GL211798   4.985  43.769   8.850
 5084POPC   C1A11799   5.096  43.925   8.550
 5084POPC   D2A11800   5.117  43.907   8.250
 5084POPC   C3A11801   5.111  43.839   7.950
 5084POPC   C4A11802   5.099  43.910   7.650
 5084POPC   C1B11803   4.903  43.705   8.550
 5084POPC   C2B11804   4.862  43.786   8.250
 5084POPC   C3B11805   4.888  43.776   7.950
 5084POPC   C4B11806   4.888  43.705   7.650
 5085POPC   NC311807  37.644  37.673   9.450
 5085POPC   PO411808  37.699  37.690   9.150
 5085POPC   GL111809  37.659  37.666   8.850
 5085POPC   GL211810  37.722  37.574   8.850
 5085POPC   C1A11811  37.633  37.643   8.550
 5085POPC   D2A11812  37.663  37.647   8.250
 5085POPC   C3A11813  37.700  37.698   7.950
 5085POPC   C4A11814  37.671  37.694   7.650
 5085POPC   C1B11815  37.729  37.412   8.550
 5085POPC   C2B11816  37.748  37.411   8.250
 5085POPC   C3B11817  37.697  37.445   7.950
 5085POPC   C4B11818  37.751  37.401   7.650
 5086POPC   NC311819  12.077  43.082   9.450
 5086POPC   PO411820  12.047  43.075   9.150
 5086POPC   GL111821  12.076  43.127   8.850
 5086POPC   GL211822  11.951  43.203   8.850
 5086POPC   C1A11823  12.112  43.138   8.550
 5086POPC   D2A11824  12.080  43.139   8.250
 5086POPC   C3A11825  12.085  43.063   7.950
 5086POPC   C4A11826  12.074  43.127   7.650
 5086POPC   C1B11827  11.798  43.242   8.550
 5086POPC   C2B11828  11.857  43.215   8.250
 5086POPC   C3B11829  11.847  43.204   7.950
 5086POPC   C4B11830  11.851  43.185   7.650
 5087POPC   NC311831  15.187  22.895   9.450
 5087POPC   PO411832  15.178  22.889   9.150
 5087POPC   GL111833  15.209  22.894   8.850
 5087POPC   GL211834  15.275  23.068   8.850
 5087POPC   C1A11835  15.156  22.913   8.550
 5087POPC   D2A11836  15.221  22.940   8.250
 5087POPC   C3A11837  15.208  22.913   7.950
 5087POPC   C4A11838  15.177  22.943   7.650
 5087POPC   C1B11839  15.258  23.183   8.550
 5087POPC   C2B11840  15.347  23.146   8.250
 5087POPC   C3B11841  15.259  23.133   7.950
 5087POPC   C4B11842  15.347  23.138   7.650
 5088POPC   NC311843  33.011   6.618   9.450
 5088POPC   PO411844  33.036   6.680   9.150
 5088POPC   GL111845  33.046   6.660   8.850
 5088POPC   GL211846  33.163   6.680   8.850
 5088POPC   C1A11847  32.987   6.637   8.550
 5088POPC   D2A11848  32.994   6.687   8.250
 5088POPC   C3A11849  33.045   6.644   7.950
 5088POPC   C4A11850  33.045   6.689   7.650
 5088POPC   C1B11851  33.256   6.816   8.550
 5088POPC   C2B11852  33.243   6.811   8.250
 5088POPC   C3B11853  33.285   6.786   7.950
 5088POPC   C4B11854  33.227   6.750   7.650
 5089POPC   NC311855   6.662  18.261   9.450
 5089POPC   PO411856   6.597  18.315   9.150
 5089POPC   GL111857   6.657  18.250   8.850
 5089POPC   GL211858   6.718  18.364   8.850
 5089POPC   C1A11859   6.629  18.250   8.550
 5089POPC   D2A11860   6.654  18.247   8.250
 5089POPC   C3A11861   6.686  18.233   7.950
 5089POPC   C4A11862   6.644  18.318   7.650
 5089POPC   C1B11863   6.879  18.400   8.550
 5089POPC   C2B11864   6.894  18.449   8.250
 5089POPC   C3B11865   6.842  18.432   7.950
 5089POPC   C4B11866   6.815  18.380   7.650
 5090POPC   NC311867  36.110  18.266   9.450
 5090POPC   PO411868  36.136  18.296   9.150
 5090POPC   GL111869  36.142  18.263   8.850
 5090POPC   GL211870  36.216  18.335   8.850
 5090POPC   C1A11871  36.116  18.284   8.550
 5090POPC   D2A11872  36.127  18.271   8.250
 5090POPC   C3A11873  36.145  18.255   7.950
 5090POPC   C4A11874  36.119  18.320   7.650
 5090POPC   C1B11875  36.357  18.407   8.550
 5090POPC   C2B11876  36.360  18.367   8.250
 5090POPC   C3B11877  36.368  18.346   7.950
 5090POPC   C4B11878  36.312  18.356   7.650
 5091POPC   NC311879  42.296  40.016   9.450
 5091POPC   PO411880  42.369  40.043   9.150
 5091POPC   GL111881  42.357  39.979   8.850
 5091POPC   GL211882  42.307  40.120   8.850
 5091POPC   C1A11883  42.288  40.037   8.550
 5091POPC   D2A11884  42.355  39.970   8.250
 5091POPC   C3A11885  42.294  40.020   7.950
 5091POPC   C4A11886  42.333  40.029   7.650
 5091POPC   C1B11887  42.250  40.255   8.550
 5091POPC   C2B11888  42.313  40.228   8.250
 5091POPC   C3B11889  42.230  40.266   7.950
 5091POPC   C4B11890  42.292  40.272   7.650
 5092POPC   NC311891   3.590   0.447   9.450
 5092POPC   PO411892   3.584   0.444   9.150
 5092POPC   GL111893   3.591   0.461   8.850
 5092POPC   GL211894   3.645   0.374   8.850
 5092POPC   C1A11895   3.589   0.445   8.550
 5092POPC   D2A11896   3.523   0.417   8.250
 5092POPC   C3A11897   3.503   0.443   7.950
 5092POPC   C4A11898   3.498   0.402   7.650
 5092POPC   C1B11899   3.744   0.420   8.550
 5092POPC   C2B11900   3.826   0.421   8.250
 5092POPC   C3B11901   3.770   0.379   7.950
 5092POPC   C4B11902   3.835   0.411   7.650
 5093POPC   NC311903  14.389   6.596   9.450
 5093POPC   PO411904  14.438   6.684   9.150
 5093POPC   GL111905  14.389   6.621   8.850
 5093POPC   GL211906  14.409   6.546   8.850
 5093POPC   C1A11907  14.450   6.681   8.550
 5093POPC   D2A11908  14.400   6.599   8.250
 5093POPC   C3A11909  14.449   6.650   7.950
 5093POPC   C4A11910  14.418   6.627   7.650
 5093POPC   C1B11911  14.383   6.381   8.550
 5093POPC   C2B11912  14.396   6.388   8.250
 5093POPC   C3B11913  14.382   6.439   7.950
 5093POPC   C4B11914  14.397   6.364   7.650
 5094POPC   NC311915  43.082   4.285   9.450
 5094POPC   PO411916  43.133   4.366   9.150
 5094POPC   GL111917  43.148   4.298   8.850
 5094POPC   GL211918  43.267   4.368   8.850
 5094POPC   C1A11919  43.071   4.309   8.550
 5094POPC   D2A11920  43.132   4.303   8.250
 5094POPC   C3A11921  43.110   4.300   7.950
 5094POPC   C4A11922  43.135   4.319   7.650
 5094POPC   C1B11923  43.374   4.434   8.550
 5094POPC   C2B11924  43.393   4.359   8.250
 5094POPC   C3B11925  43.296   4.419   7.950
 5094POPC   C4B11926  43.340   4.452   7.650
 5095POPC   NC311927  43.853  12.845   9.450
 5095POPC   PO411928  43.912  12.862   9.150
 5095POPC   GL111929  43.932  12.818   8.850
 5095POPC   GL211930  43.880  12.748   8.850
 5095POPC   C1A11931  43.933  12.805   8.550
 5095POPC   D2A11932  43.840  12.806   8.250
 5095POPC   C3A11933  43.874  12.873   7.950
 5095POPC   C4A11934  43.864  12.881   7.650
 5095POPC   C1B11935  43.810  12.611   8.550
 5095POPC   C2B11936  43.789  12.610   8.250
 5095POPC   C3B11937  43.883  12.647   7.950
 5095POPC   C4B11938  43.828  12.644   7.650
 5096POPC   NC311939  12.822  28.389   9.450
 5096POPC   PO411940  12.812  28.388   9.150
 5096POPC   GL111941  12.856  28.329   8.850
 5096POPC   GL211942  12.985  28.304   8.850
 5096POPC   C1A11943  12.831  28.414   8.550
 5096POPC   D2A11944  12.805  28.337   8.250
 5096POPC   C3A11945  12.838  28.399   7.950
 5096POPC   C4A11946  12.882  28.375   7.650
 5096POPC   C1B11947  13.015  28.212   8.550
 5096POPC   C2B11948  13.074  28.217   8.250
 5096POPC   C3B11949  13.053  28.215   7.950
 5096POPC   C4B11950  13.012  28.189   7.650
 5097POPC   NC311951   2.750  12.107   9.450
 5097POPC   PO411952   2.774  12.073   9.150
 5097POPC   GL111953   2.745  12.099   8.850
 5097POPC   GL211954   2.788  12.233   8.850
 5097POPC   C1A11955   2.794  12.115   8.550
 5097POPC   D2A11956   2.780  12.116   8.250
 5097POPC   C3A11957   2.805  12.072   7.950
 5097POPC   C4A11958   2.764  12.109   7.650
 5097POPC   C1B11959   2.705  12.305   8.550
 5097POPC   C2B11960   2.772  12.318   8.250
 5097POPC   C3B11961   2.692  12.304   7.950
 5097POPC   C4B11962   2.706  12.337   7.650
 5098POPC   NC311963  44.641  17.470   9.450
 5098POPC   PO411964  44.670  17.521   9.150
 5098POPC   GL111965  44.673  17.472   8.850
 5098POPC   GL211966  44.823  17.499   8.850
 5098POPC   C1A11967  44.701  17.486   8.550
 5098POPC   D2A11968  44.645  17.461   8.250
 5098POPC   C3A11969  44.660  17.503   7.950
 5098POPC   C4A11970  44.671  17.511   7.650
 5098POPC   C1B11971  44.867  17.433   8.550
 5098POPC   C2B11972  44.914  17.405   8.250
 5098POPC   C3B11973  44.879  17.396   7.950
 5098POPC   C4B11974  44.941  17.382   7.650
 5099POPC   NC311975  23.692  31.504   9.450
 5099POPC   PO411976  23.709  31.437   9.150
 5099POPC   GL111977  23.676  31.439   8.850
 5099POPC   GL211978  23.781  31.546   8.850
 5099POPC   C1A11979  23.748  31.473   8.550
 5099POPC   D2A11980  23.763  31.506   8.250
 5099POPC   C3A11981  23.745  31.512   7.950
 5099POPC   C4A11982  23.763  31.513   7.650
 5099POPC   C1B11983  23.865  31.707   8.550
 5099POPC   C2B11984  23.877  31.666   8.250
 5099POPC   C3B11985  23.878  31.666   7.950
 5099POPC   C4B11986  23.846  31.698   7.650
 5100POPC   NC311987  13.629  14.365   9.450
 5100POPC   PO411988  13.672  14.425   9.150
 5100POPC   GL111989  13.584  14.404   8.850
 5100POPC   GL211990  13.502  14.512   8.850
 5100POPC   C1A11991  13.673  14.382   8.550
 5100POPC   D2A11992  13.586  14.373   8.250
 5100POPC   C3A11993  13.656  14.375   7.950
 5100POPC   C4A11994  13.598  14.440   7.650
 5100POPC   C1B11995  13.480  14.615   8.550
 5100POPC   C2B11996  13.416  14.569   8.250
 5100POPC   C3B11997  13.397  14.584   7.950
 5100POPC   C4B11998  13.453  14.579   7.650
 5101POPC   NC311999  15.175  22.161   9.450
 5101POPC   PO412000  15.216  22.115   9.150
 5101POPC   GL112001  15.225  22.176   8.850
 5101POPC   GL212002  15.046  22.236   8.850
 5101POPC   C1A12003  15.195  22.211   8.550
 5101POPC   D2A12004  15.172  22.162   8.250
 5101POPC   C3A12005  15.209  22.167   7.950
 5101POPC   C4A12006  15.177  22.165   7.650
 5101POPC   C1B12007  14.957  22.326   8.550
 5101POPC   C2B12008  15.051  22.376   8.250
 5101POPC   C3B12009  15.016  22.368   7.950
 5101POPC   C4B12010  15.018  22.295   7.650
 5102POPC   NC312011   8.166  22.970   9.450
 5102POPC   PO412012   8.184  22.980   9.150
 5102POPC   GL112013   8.235  22.960   8.850
 5102POPC   GL212014   8.335  23.005   8.850
 5102POPC   C1A12015   8.156  22.913   8.550
 5102POPC   D2A12016   8.237  22.967   8.250
 5102POPC   C3A12017   8.241  22.905   7.950
 5102POPC   C4A12018   8.195  22.911   7.650
 5102POPC   C1B12019   8.396  22.932   8.550
 5102POPC   C2B12020   8.482  22.952   8.250
 5102POPC   C3B12021   8.459  23.008   7.950
 5102POPC   C4B12022   8.409  22.968   7.650
 5103POPC   NC312023   2.778  12.865   9.450
 5103POPC   PO412024   2.778  12.846   9.150
 5103POPC   GL112025   2.770  12.803   8.850
 5103POPC   GL212026   2.737  12.992   8.850
 5103POPC   C1A12027   2.775  12.871   8.550
 5103POPC   D2A12028   2.753  12.898   8.250
 5103POPC   C3A12029   2.774  12.850   7.950
 5103POPC   C4A12030   2.775  12.849   7.650
 5103POPC   C1B12031   2.815  13.056   8.550
 5103POPC   C2B12032   2.790  13.135   8.250
 5103POPC   C3B12033   2.817  13.132   7.950
 5103POPC   C4B12034   2.788  13.055   7.650
 5104POPC   NC312035  29.886  17.522   9.450
 5104POPC   PO412036  29.967  17.478   9.150
 5104POPC   GL112037  29.929  17.534   8.850
 5104POPC   GL212038  29.994  17.466   8.850
 5104POPC   C1A12039  29.964  17.538   8.550
 5104POPC   D2A12040  29.956  17.476   8.250
 5104POPC   C3A12041  29.961  17.546   7.950
 5104POPC   C4A12042  29.932  17.541   7.650
 5104POPC   C1B12043  30.193  17.450   8.550
 5104POPC   C2B12044  30.160  17.464   8.250
 5104POPC   C3B12045  30.164  17.484   7.950
 5104POPC   C4B12046  30.171  17.460   7.650
 5105POPC   NC312047  26.792  35.400   9.450
 5105POPC   PO412048  26.814  35.334   9.150
 5105POPC   GL112049  26.771  35.319   8.850
 5105POPC   GL212050  26.822  35.480   8.850
 5105POPC   C1A12051  26.838  35.358   8.550
 5105POPC   D2A12052  26.826  35.335   8.250
 5105POPC   C3A12053  26.800  35.381   7.950
 5105POPC   C4A12054  26.770  35.345   7.650
 5105POPC   C1B12055  26.822  35.649   8.550
 5105POPC   C2B12056  26.830  35.590   8.250
 5105POPC   C3B12057  26.838  35.584   7.950
 5105POPC   C4B12058  26.803  35.554   7.650
 5106POPC   NC312059  26.044  14.448   9.450
 5106POPC   PO412060  26.015  14.407   9.150
 5106POPC   GL112061  25.994  14.415   8.850
 5106POPC   GL212062  26.168  14.445   8.850
 5106POPC   C1A12063  26.027  14.407   8.550
 5106POPC   D2A12064  26.083  14.453   8.250
 5106POPC   C3A12065  26.070  14.358   7.950
 5106POPC   C4A12066  26.037  14.441   7.650
 5106POPC   C1B12067  26.319  14.452   8.550
 5106POPC   C2B12068  26.241  14.529   8.250
 5106POPC   C3B12069  26.245  14.540   7.950
 5106POPC   C4B12070  26.237  14.463   7.650
 5107POPC   NC312071  13.677  31.441   9.450
 5107POPC   PO412072  13.643  31.509   9.150
 5107POPC   GL112073  13.677  31.512   8.850
 5107POPC   GL212074  13.689  31.372   8.850
 5107POPC   C1A12075  13.597  31.446   8.550
 5107POPC   D2A12076  13.674  31.513   8.250
 5107POPC   C3A12077  13.674  31.470   7.950
 5107POPC   C4A12078  13.647  31.487   7.650
 5107POPC   C1B12079  13.767  31.275   8.550
 5107POPC   C2B12080  13.759  31.282   8.250
 5107POPC   C3B12081  13.717  31.288   7.950
 5107POPC   C4B12082  13.771  31.214   7.650
 5108POPC   NC312083  22.940  19.793   9.450
 5108POPC   PO412084  22.965  19.852   9.150
 5108POPC   GL112085  22.946  19.864   8.850
 5108POPC   GL212086  23.086  19.877   8.850
 5108POPC   C1A12087  22.921  19.884   8.550
 5108POPC   D2A12088  22.918  19.798   8.250
 5108POPC   C3A12089  22.941  19.865   7.950
 5108POPC   C4A12090  22.916  19.873   7.650
 5108POPC   C1B12091  23.217  19.806   8.550
 5108POPC   C2B12092  23.223  19.846   8.250
 5108POPC   C3B12093  23.211  19.896   7.950
 5108POPC   C4B12094  23.160  19.814   7.650
 5109POPC   NC312095  22.145  14.377   9.450
 5109POPC   PO412096  22.120  14.377   9.150
 5109POPC   GL112097  22.207  14.441   8.850
 5109POPC   GL212098  22.087  14.506   8.850
 5109POPC   C1A12099  22.181  14.408   8.550
 5109POPC   D2A12100  22.147  14.423   8.250
 5109POPC   C3A12101  22.185  14.430   7.950
 5109POPC   C4A12102  22.184  14.415   7.650
 5109POPC   C1B12103  22.032  14.589   8.550
 5109POPC   C2B12104  22.024  14.628   8.250
 5109POPC   C3B12105  22.056  14.582   7.950
 5109POPC   C4B12106  22.089  14.651   7.650
 5110POPC   NC312107   0.389  26.789   9.450
 5110POPC   PO412108   0.391  26.814   9.150
 5110POPC   GL112109   0.457  26.817   8.850
 5110POPC   GL212110   0.578  26.711   8.850
 5110POPC   C1A12111   0.389  26.792   8.550
 5110POPC   D2A12112   0.432  26.800   8.250
 5110POPC   C3A12113   0.424  26.836   7.950
 5110POPC   C4A12114   0.435  26.791   7.650
 5110POPC   C1B12115   0.656  26.693   8.550
 5110POPC   C2B12116   0.628  26.647   8.250
 5110POPC   C3B12117   0.666  26.640   7.950
 5110POPC   C4B12118   0.616  26.711   7.650
 5111POPC   NC312119  17.554  34.544   9.450
 5111POPC   PO412120  17.543  34.553   9.150
 5111POPC   GL112121  17.485  34.560   8.850
 5111POPC   GL212122  17.420  34.672   8.850
 5111POPC   C1A12123  17.545  34.602   8.550
 5111POPC   D2A12124  17.460  34.537   8.250
 5111POPC   C3A12125  17.528  34.611   7.950
 5111POPC   C4A12126  17.544  34.570   7.650
 5111POPC   C1B12127  17.287  34.790   8.550
 5111POPC   C2B12128  17.281  34.756   8.250
 5111POPC   C3B12129  17.335  34.782   7.950
 5111POPC   C4B12130  17.310  34.740   7.650
 5112POPC   NC312131  29.113  23.690   9.450
 5112POPC   PO412132  29.179  23.673   9.150
 5112POPC   GL112133  29.101  23.669   8.850
 5112POPC   GL212134  29.128  23.823   8.850
 5112POPC   C1A12135  29.120  23.745   8.550
 5112POPC   D2A12136  29.132  23.666   8.250
 5112POPC   C3A12137  29.143  23.684   7.950
 5112POPC   C4A12138  29.170  23.757   7.650
 5112POPC   C1B12139  29.137  23.943   8.550
 5112POPC   C2B12140  29.095  23.938   8.250
 5112POPC   C3B12141  29.102  23.921   7.950
 5112POPC   C4B12142  29.101  23.968   7.650
 5113POPC   NC312143  33.043  25.307   9.450
 5113POPC   PO412144  32.996  25.289   9.150
 5113POPC   GL112145  32.976  25.249   8.850
 5113POPC   GL212146  32.870  25.240   8.850
 5113POPC   C1A12147  33.042  25.314   8.550
 5113POPC   D2A12148  33.064  25.299   8.250
 5113POPC   C3A12149  32.976  25.238   7.950
 5113POPC   C4A12150  33.000  25.274   7.650
 5113POPC   C1B12151  32.738  25.244   8.550
 5113POPC   C2B12152  32.751  25.221   8.250
 5113POPC   C3B12153  32.769  25.278   7.950
 5113POPC   C4B12154  32.781  25.199   7.650
 5114POPC   NC312155  43.930  44.647   9.450
 5114POPC   PO412156  43.881  44.653   9.150
 5114POPC   GL112157  43.887  44.636   8.850
 5114POPC   GL212158  43.719  44.617   8.850
 5114POPC   C1A12159  43.860  44.624   8.550
 5114POPC   D2A12160  43.895  44.698   8.250
 5114POPC   C3A12161  43.875  44.624   7.950
 5114POPC   C4A12162  43.897  44.685   7.650
 5114POPC   C1B12163  43.647  44.606   8.550
 5114POPC   C2B12164  43.676  44.603   8.250
 5114POPC   C3B12165  43.604  44.623   7.950
 5114POPC   C4B12166  43.602  44.628   7.650
 5115POPC   NC312167  26.078   8.206   9.450
 5115POPC   PO412168  26.049   8.157   9.150
 5115POPC   GL112169  26.015   8.243   8.850
 5115POPC   GL212170  26.022   8.279   8.850
 5115POPC   C1A12171  26.040   8.191   8.550
 5115POPC   D2A12172  26.054   8.230   8.250
 5115POPC   C3A12173  26.048   8.208   7.950
 5115POPC   C4A12174  26.081   8.161   7.650
 5115POPC   C1B12175  25.966   8.442   8.550
 5115POPC   C2B12176  25.930   8.398   8.250
 5115POPC   C3B12177  26.006   8.410   7.950
 5115POPC   C4B12178  25.986   8.405   7.650
 5116POPC   NC312179  22.902  23.750   9.450
 5116POPC   PO412180  22.914  23.694   9.150
 5116POPC   GL112181  22.962  23.665   8.850
 5116POPC   GL212182  22.780  23.721   8.850
 5116POPC   C1A12183  22.900  23.691   8.550
 5116POPC   D2A12184  22.922  23.666   8.250
 5116POPC   C3A12185  22.947  23.761   7.950
 5116POPC   C4A12186  22.947  23.708   7.650
 5116POPC   C1B12187  22.689  23.770   8.550
 5116POPC   C2B12188  22.714  23.770   8.250
 5116POPC   C3B12189  22.691  23.719   7.950
 5116POPC   C4B12190  22.718  23.787   7.650
 5117POPC   NC312191  20.615  43.924   9.450
 5117POPC   PO412192  20.654  43.936   9.150
 5117POPC   GL112193  20.637  43.891   8.850
 5117POPC   GL212194  20.586  44.046   8.850
 5117POPC   C1A12195  20.657  43.837   8.550
 5117POPC   D2A12196  20.564  43.858   8.250
 5117POPC   C3A12197  20.565  43.887   7.950
 5117POPC   C4A12198  20.617  43.896   7.650
 5117POPC   C1B12199  20.505  44.173   8.550
 5117POPC   C2B12200  20.562  44.096   8.250
 5117POPC   C3B12201  20.499  44.117   7.950
 5117POPC   C4B12202  20.570  44.151   7.650
 5118POPC   NC312203   1.214  22.183   9.450
 5118POPC   PO412204   1.206  22.171   9.150
 5118POPC   GL112205   1.228  22.178   8.850
 5118POPC   GL212206   1.287  22.079   8.850
 5118POPC   C1A12207   1.228  22.141   8.550
 5118POPC   D2A12208   1.254  22.206   8.250
 5118POPC   C3A12209   1.226  22.120   7.950
 5118POPC   C4A12210   1.223  22.189   7.650
 5118POPC   C1B12211   1.469  22.020   8.550
 5118POPC   C2B12212   1.448  22.063   8.250
 5118POPC   C3B12213   1.385  22.034   7.950
 5118POPC   C4B12214   1.462  22.041   7.650
 5119POPC   NC312215  29.943   0.402   9.450
 5119POPC   PO412216  29.966   0.433   9.150
 5119POPC   GL112217  29.965   0.485   8.850
 5119POPC   GL212218  29.843   0.350   8.850
 5119POPC   C1A12219  29.949   0.482   8.550
 5119POPC   D2A12220  29.927   0.397   8.250
 5119POPC   C3A12221  29.884   0.446   7.950
 5119POPC   C4A12222  29.950   0.391   7.650
 5119POPC   C1B12223  29.777   0.252   8.550
 5119POPC   C2B12224  29.819   0.164   8.250
 5119POPC   C3B12225  29.824   0.240   7.950
 5119POPC   C4B12226  29.798   0.189   7.650
 5120POPC   NC312227  16.707   6.615   9.450
 5120POPC   PO412228  16.775   6.608   9.150
 5120POPC   GL112229  16.727   6.682   8.850
 5120POPC   GL212230  16.590   6.593   8.850
 5120POPC   C1A12231  16.692   6.658   8.550
 5120POPC   D2A12232  16.749   6.600   8.250
 5120POPC   C3A12233  16.702   6.629   7.950
 5120POPC   C4A12234  16.766   6.676   7.650
 5120POPC   C1B12235  16.475   6.616   8.550
 5120POPC   C2B12236  16.508   6.647   8.250
 5120POPC   C3B12237  16.484   6.603   7.950
 5120POPC   C4B12238  16.512   6.646   7.650
 5121POPC   NC312239  23.727  29.920   9.450
 5121POPC   PO412240  23.675  29.890   9.150
 5121POPC   GL112241  23.763  29.960   8.850
 5121POPC   GL212242  23.719  30.088   8.850
 5121POPC   C1A12243  23.746  29.931   8.550
 5121POPC   D2A12244  23.690  29.944   8.250
 5121POPC   C3A12245  23.716  29.932   7.950
 5121POPC   C4A12246  23.709  29.928   7.650
 5121POPC   C1B12247  23.625  30.150   8.550
 5121POPC   C2B12248  23.639  30.194   8.250
 5121POPC   C3B12249  23.661  30.176   7.950
 5121POPC   C4B12250  23.683  30.147   7.650
 5122POPC   NC312251  16.756   9.716   9.450
 5122POPC   PO412252  16.739   9.761   9.150
 5122POPC   GL112253  16.741   9.747   8.850
 5122POPC   GL212254  16.628   9.767   8.850
 5122POPC   C1A12255  16.701   9.793   8.550
 5122POPC   D2A12256  16.711   9.706   8.250
 5122POPC   C3A12257  16.735   9.703   7.950
 5122POPC   C4A12258  16.743   9.771   7.650
 5122POPC   C1B12259  16.445   9.835   8.550
 5122POPC   C2B12260  16.512   9.756   8.250
 5122POPC   C3B12261  16.480   9.794   7.950
 5122POPC   C4B12262  16.522   9.800   7.650
 5123POPC   NC312263  22.898  30.739   9.450
 5123POPC   PO412264  22.888  30.714   9.150
 5123POPC   GL112265  22.963  30.731   8.850
 5123POPC   GL212266  22.875  30.817   8.850
 5123POPC   C1A12267  22.891  30.680   8.550
 5123POPC   D2A12268  22.929  30.688   8.250
 5123POPC   C3A12269  22.915  30.653   7.950
 5123POPC   C4A12270  22.901  30.678   7.650
 5123POPC   C1B12271  22.820  30.914   8.550
 5123POPC   C2B12272  22.766  30.912   8.250
 5123POPC   C3B12273  22.736  30.918   7.950
 5123POPC   C4B12274  22.756  30.839   7.650
 5124POPC   NC312275  10.561  34.546   9.450
 5124POPC   PO412276  10.505  34.582   9.150
 5124POPC   GL112277  10.491  34.580   8.850
 5124POPC   GL212278  10.442  34.560   8.850
 5124POPC   C1A12279  10.568  34.617   8.550
 5124POPC   D2A12280  10.500  34.601   8.250
 5124POPC   C3A12281  10.543  34.620   7.950
 5124POPC   C4A12282  10.539  34.581   7.650
 5124POPC   C1B12283  10.263  34.645   8.550
 5124POPC   C2B12284  10.247  34.685   8.250
 5124POPC   C3B12285  10.247  34.622   7.950
 5124POPC   C4B12286  10.306  34.668   7.650
 5125POPC   NC312287  24.534  38.420   9.450
 5125POPC   PO412288  24.523  38.491   9.150
 5125POPC   GL112289  24.469  38.490   8.850
 5125POPC   GL212290  24.387  38.428   8.850
 5125POPC   C1A12291  24.538  38.411   8.550
 5125POPC   D2A12292  24.447  38.472   8.250
 5125POPC   C3A12293  24.533  38.417   7.950
 5125POPC   C4A12294  24.523  38.448   7.650
 5125POPC   C1B12295  24.210  38.466   8.550
 5125POPC   C2B12296  24.230  38.442   8.250
 5125POPC   C3B12297  24.253  38.388   7.950
 5125POPC   C4B12298  24.242  38.459   7.650
 5126POPC   NC312299  10.533  25.285   9.450
 5126POPC   PO412300  10.478  25.281   9.150
 5126POPC   GL112301  10.486  25.235   8.850
 5126POPC   GL212302  10.401  25.209   8.850
 5126POPC   C1A12303  10.539  25.301   8.550
 5126POPC   D2A12304  10.561  25.253   8.250
 5126POPC   C3A12305  10.563  25.301   7.950
 5126POPC   C4A12306  10.527  25.272   7.650
 5126POPC   C1B12307  10.342  25.164   8.550
 5126POPC   C2B12308  10.261  25.167   8.250
 5126POPC   C3B12309  10.300  25.176   7.950
 5126POPC   C4B12310  10.271  25.177   7.650
 5127POPC   NC312311  29.957  39.195   9.450
 5127POPC   PO412312  29.964  39.194   9.150
 5127POPC   GL112313  29.963  39.199   8.850
 5127POPC   GL212314  29.856  39.327   8.850
 5127POPC   C1A12315  29.925  39.212   8.550
 5127POPC   D2A12316  29.958  39.192   8.250
 5127POPC   C3A12317  29.897  39.271   7.950
 5127POPC   C4A12318  29.946  39.268   7.650
 5127POPC   C1B12319  29.752  39.366   8.550
 5127POPC   C2B12320  29.703  39.400   8.250
 5127POPC   C3B12321  29.783  39.438   7.950
 5127POPC   C4B12322  29.743  39.438   7.650
 5128POPC   NC312323   1.967   5.078   9.450
 5128POPC   PO412324   2.014   5.104   9.150
 5128POPC   GL112325   1.969   5.106   8.850
 5128POPC   GL212326   2.082   5.161   8.850
 5128POPC   C1A12327   2.016   5.077   8.550
 5128POPC   D2A12328   1.943   5.085   8.250
 5128POPC   C3A12329   2.016   5.058   7.950
 5128POPC   C4A12330   2.009   5.064   7.650
 5128POPC   C1B12331   2.194   5.157   8.550
 5128POPC   C2B12332   2.204   5.197   8.250
 5128POPC   C3B12333   2.217   5.212   7.950
 5128POPC   C4B12334   2.201   5.213   7.650
 5129POPC   NC312335  29.183  43.084   9.450
 5129POPC   PO412336  29.140  43.087   9.150
 5129POPC   GL112337  29.147  43.135   8.850
 5129POPC   GL212338  29.130  42.992   8.850
 5129POPC   C1A12339  29.103  43.113   8.550
 5129POPC   D2A12340  29.185  43.068   8.250
 5129POPC   C3A12341  29.101  43.093   7.950
 5129POPC   C4A12342  29.136  43.141   7.650
 5129POPC   C1B12343  29.138  42.836   8.550
 5129POPC   C2B12344  29.123  42.903   8.250
 5129POPC   C3B12345  29.158  42.895   7.950
 5129POPC   C4B12346  29.188  42.883   7.650
 5130POPC   NC312347  31.516  24.460   9.450
 5130POPC   PO412348  31.454  24.470   9.150
 5130POPC   GL112349  31.437  24.534   8.850
 5130POPC   GL212350  31.610  24.534   8.850
 5130POPC   C1A12351  31.474  24.460   8.550
 5130POPC   D2A12352  31.520  24.508   8.250
 5130POPC   C3A12353  31.501  24.526   7.950
 5130POPC   C4A12354  31.439  24.521   7.650
 5130POPC   C1B12355  31.691  24.631   8.550
 5130POPC   C2B12356  31.689  24.598   8.250
 5130POPC   C3B12357  31.733  24.578   7.950
 5130POPC   C4B12358  31.692  24.610   7.650
 5131POPC   NC312359  20.654  28.353   9.450
 5131POPC   PO412360  20.613  28.390   9.150
 5131POPC   GL112361  20.596  28.412   8.850
 5131POPC   GL212362  20.783  28.370   8.850
 5131POPC   C1A12363  20.597  28.393   8.550
 5131POPC   D2A12364  20.630  28.355   8.250
 5131POPC   C3A12365  20.597  28.326   7.950
 5131POPC   C4A12366  20.571  28.351   7.650
 5131POPC   C1B12367  20.887  28.342   8.550
 5131POPC   C2B12368  20.833  28.426   8.250
 5131POPC   C3B12369  20.837  28.420   7.950
 5131POPC   C4B12370  20.887  28.397   7.650
 5132POPC   NC312371  34.546  21.353   9.450
 5132POPC   PO412372  34.580  21.425   9.150
 5132POPC   GL112373  34.571  21.350   8.850
 5132POPC   GL212374  34.627  21.499   8.850
 5132POPC   C1A12375  34.601  21.347   8.550
 5132POPC   D2A12376  34.592  21.434   8.250
 5132POPC   C3A12377  34.592  21.422   7.950
 5132POPC   C4A12378  34.600  21.362   7.650
 5132POPC   C1B12379  34.620  21.597   8.550
 5132POPC   C2B12380  34.645  21.643   8.250
 5132POPC   C3B12381  34.649  21.612   7.950
 5132POPC   C4B12382  34.690  21.657   7.650
 5133POPC   NC312383   9.018  32.993   9.450
 5133POPC   PO412384   8.936  33.052   9.150
 5133POPC   GL112385   8.940  33.042   8.850
 5133POPC   GL212386   8.818  33.072   8.850
 5133POPC   C1A12387   8.996  33.038   8.550
 5133POPC   D2A12388   8.950  32.989   8.250
 5133POPC   C3A12389   9.018  32.975   7.950
 5133POPC   C4A12390   8.927  33.073   7.650
 5133POPC   C1B12391   8.732  33.141   8.550
 5133POPC   C2B12392   8.754  33.073   8.250
 5133POPC   C3B12393   8.722  33.068   7.950
 5133POPC   C4B12394   8.769  33.134   7.650
 5134POPC   NC312395  41.583  28.407   9.450
 5134POPC   PO412396  41.526  28.358   9.150
 5134POPC   GL112397  41.589  28.347   8.850
 5134POPC   GL212398  41.673  28.419   8.850
 5134POPC   C1A12399  41.602  28.325   8.550
 5134POPC   D2A12400  41.589  28.400   8.250
 5134POPC   C3A12401  41.581  28.418   7.950
 5134POPC   C4A12402  41.579  28.353   7.650
 5134POPC   C1B12403  41.694  28.584   8.550
 5134POPC   C2B12404  41.762  28.600   8.250
 5134POPC   C3B12405  41.708  28.517   7.950
 5134POPC   C4B12406  41.671  28.517   7.650
 5135POPC   NC312407  19.010  34.596   9.450
 5135POPC   PO412408  19.019  34.527   9.150
 5135POPC   GL112409  19.103  34.571   8.850
 5135POPC   GL212410  18.905  34.552   8.850
 5135POPC   C1A12411  19.091  34.562   8.550
 5135POPC   D2A12412  19.028  34.588   8.250
 5135POPC   C3A12413  19.093  34.544   7.950
 5135POPC   C4A12414  19.074  34.615   7.650
 5135POPC   C1B12415  18.797  34.636   8.550
 5135POPC   C2B12416  18.854  34.588   8.250
 5135POPC   C3B12417  18.846  34.646   7.950
 5135POPC   C4B12418  18.766  34.658   7.650
 5136POPC   NC312419  39.209   9.769   9.450
 5136POPC   PO412420  39.244   9.754   9.150
 5136POPC   GL112421  39.201   9.735   8.850
 5136POPC   GL212422  39.285   9.648   8.850
 5136POPC   C1A12423  39.239   9.712   8.550
 5136POPC   D2A12424  39.227   9.764   8.250
 5136POPC   C3A12425  39.266   9.717   7.950
 5136POPC   C4A12426  39.264   9.776   7.650
 5136POPC   C1B12427  39.437   9.528   8.550
 5136POPC   C2B12428  39.439   9.597   8.250
 5136POPC   C3B12429  39.438   9.529   7.950
 5136POPC   C4B12430  39.404   9.595   7.650
 5137POPC   NC312431  22.207   9.723   9.450
 5137POPC   PO412432  22.200   9.698   9.150
 5137POPC   GL112433  22.211   9.776   8.850
 5137POPC   GL212434  22.076   9.706   8.850
 5137POPC   C1A12435  22.131   9.702   8.550
 5137POPC   D2A12436  22.204   9.727   8.250
 5137POPC   C3A12437  22.134   9.730   7.950
 5137POPC   C4A12438  22.187   9.707   7.650
 5137POPC   C1B12439  21.936   9.655   8.550
 5137POPC   C2B12440  21.987   9.651   8.250
 5137POPC   C3B12441  21.914   9.680   7.950
 5137POPC   C4B12442  21.983   9.680   7.650
 5138POPC   NC312443  10.512   8.985   9.450
 5138POPC   PO412444  10.492   8.972   9.150
 5138POPC   GL112445  10.574   8.964   8.850
 5138POPC   GL212446  10.463   8.900   8.850
 5138POPC   C1A12447  10.559   9.016   8.550
 5138POPC   D2A12448  10.505   8.946   8.250
 5138POPC   C3A12449  10.485   8.994   7.950
 5138POPC   C4A12450  10.514   8.944   7.650
 5138POPC   C1B12451  10.373   8.732   8.550
 5138POPC   C2B12452  10.390   8.713   8.250
 5138POPC   C3B12453  10.412   8.790   7.950
 5138POPC   C4B12454  10.468   8.735   7.650
 5139POPC   NC312455  40.044  22.956   9.450
 5139POPC   PO412456  40.026  22.943   9.150
 5139POPC   GL112457  40.002  22.987   8.850
 5139POPC   GL212458  39.983  23.027   8.850
 5139POPC   C1A12459  40.040  22.952   8.550
 5139POPC   D2A12460  40.050  22.946   8.250
 5139POPC   C3A12461  39.966  22.891   7.950
 5139POPC   C4A12462  39.985  22.974   7.650
 5139POPC   C1B12463  39.919  23.203   8.550
 5139POPC   C2B12464  39.907  23.173   8.250
 5139POPC   C3B12465  39.899  23.134   7.950
 5139POPC   C4B12466  39.883  23.202   7.650
 5140POPC   NC312467  22.956  26.804   9.450
 5140POPC   PO412468  22.975  26.848   9.150
 5140POPC   GL112469  22.947  26.862   8.850
 5140POPC   GL212470  23.046  26.734   8.850
 5140POPC   C1A12471  22.897  26.841   8.550
 5140POPC   D2A12472  22.963  26.831   8.250
 5140POPC   C3A12473  22.949  26.829   7.950
 5140POPC   C4A12474  22.913  26.780   7.650
 5140POPC   C1B12475  23.080  26.667   8.550
 5140POPC   C2B12476  23.137  26.612   8.250
 5140POPC   C3B12477  23.076  26.691   7.950
 5140POPC   C4B12478  23.152  26.605   7.650
 5141POPC   NC312479  24.534  22.938   9.450
 5141POPC   PO412480  24.505  22.910   9.150
 5141POPC   GL112481  24.446  22.904   8.850
 5141POPC   GL212482  24.401  22.976   8.850
 5141POPC   C1A12483  24.532  22.944   8.550
 5141POPC   D2A12484  24.447  22.889   8.250
 5141POPC   C3A12485  24.474  22.917   7.950
 5141POPC   C4A12486  24.450  22.979   7.650
 5141POPC   C1B12487  24.303  23.107   8.550
 5141POPC   C2B12488  24.282  23.084   8.250
 5141POPC   C3B12489  24.297  23.061   7.950
 5141POPC   C4B12490  24.323  23.026   7.650
 5142POPC   NC312491  12.097   6.600   9.450
 5142POPC   PO412492  12.061   6.688   9.150
 5142POPC   GL112493  12.113   6.648   8.850
 5142POPC   GL212494  11.954   6.724   8.850
 5142POPC   C1A12495  12.069   6.667   8.550
 5142POPC   D2A12496  12.061   6.651   8.250
 5142POPC   C3A12497  12.042   6.611   7.950
 5142POPC   C4A12498  12.081   6.632   7.650
 5142POPC   C1B12499  11.933   6.803   8.550
 5142POPC   C2B12500  11.870   6.837   8.250
 5142POPC   C3B12501  11.944   6.842   7.950
 5142POPC   C4B12502  11.952   6.793   7.650
 5143POPC   NC312503  25.995  39.964   9.450
 5143POPC   PO412504  26.002  39.976   9.150
 5143POPC   GL112505  26.042  40.049   8.850
 5143POPC   GL212506  25.999  40.155   8.850
 5143POPC   C1A12507  26.055  39.976   8.550
 5143POPC   D2A12508  26.036  40.041   8.250
 5143POPC   C3A12509  26.052  40.039   7.950
 5143POPC   C4A12510  26.048  40.049   7.650
 5143POPC   C1B12511  25.906  40.239   8.550
 5143POPC   C2B12512  25.871  40.243   8.250
 5143POPC   C3B12513  25.878  40.189   7.950
 5143POPC   C4B12514  25.950  40.202   7.650
 5144POPC   NC312515  12.820  44.681   9.450
 5144POPC   PO412516  12.877  44.612   9.150
 5144POPC   GL112517  12.816  44.696   8.850
 5144POPC   GL212518  12.904  44.573   8.850
 5144POPC   C1A12519  12.845  44.637   8.550
 5144POPC   D2A12520  12.816  44.657   8.250
 5144POPC   C3A12521  12.842  44.685   7.950
 5144POPC   C4A12522  12.898  44.679   7.650
 5144POPC   C1B12523  13.011  44.479   8.550
 5144POPC   C2B12524  13.019  44.451   8.250
 5144POPC   C3B12525  12.962  44.498   7.950
 5144POPC   C4B12526  12.967  44.431   7.650
 5145POPC   NC312527   1.967  22.911   9.450
 5145POPC   PO412528   1.947  22.889   9.150
 5145POPC   GL112529   1.979  22.983   8.850
 5145POPC   GL212530   2.025  22.851   8.850
 5145POPC   C1A12531   2.008  22.956   8.550
 5145POPC   D2A12532   2.014  22.918   8.250
 5145POPC   C3A12533   1.972  22.968   7.950
 5145POPC   C4A12534   2.027  22.986   7.650
 5145POPC   C1B12535   1.968  22.663   8.550
 5145POPC   C2B12536   2.035  22.650   8.250
 5145POPC   C3B12537   1.966  22.726   7.950
 5145POPC   C4B12538   2.033  22.681   7.650
 5146POPC   NC312539  22.207  43.144   9.450
 5146POPC   PO412540  22.187  43.160   9.150
 5146POPC   GL112541  22.141  43.067   8.850
 5146POPC   GL212542  22.025  43.028   8.850
 5146POPC   C1A12543  22.134  43.130   8.550
 5146POPC   D2A12544  22.141  43.137   8.250
 5146POPC   C3A12545  22.200  43.128   7.950
 5146POPC   C4A12546  22.153  43.158   7.650
 5146POPC   C1B12547  22.018  42.969   8.550
 5146POPC   C2B12548  22.016  42.934   8.250
 5146POPC   C3B12549  21.975  42.933   7.950
 5146POPC   C4B12550  22.013  42.955   7.650
 5147POPC   NC312551  38.438  37.710   9.450
 5147POPC   PO412552  38.446  37.656   9.150
 5147POPC   GL112553  38.444  37.672   8.850
 5147POPC   GL212554  38.304  37.655   8.850
 5147POPC   C1A12555  38.465  37.659   8.550
 5147POPC   D2A12556  38.441  37.655   8.250
 5147POPC   C3A12557  38.407  37.722   7.950
 5147POPC   C4A12558  38.505  37.705   7.650
 5147POPC   C1B12559  38.217  37.515   8.550
 5147POPC   C2B12560  38.221  37.528   8.250
 5147POPC   C3B12561  38.238  37.595   7.950
 5147POPC   C4B12562  38.279  37.605   7.650
 5148POPC   NC312563  33.025  29.115   9.450
 5148POPC   PO412564  33.001  29.143   9.150
 5148POPC   GL112565  32.998  29.135   8.850
 5148POPC   GL212566  32.966  29.110   8.850
 5148POPC   C1A12567  33.063  29.159   8.550
 5148POPC   D2A12568  33.072  29.186   8.250
 5148POPC   C3A12569  33.016  29.110   7.950
 5148POPC   C4A12570  33.029  29.152   7.650
 5148POPC   C1B12571  32.837  29.027   8.550
 5148POPC   C2B12572  32.864  29.031   8.250
 5148POPC   C3B12573  32.814  28.937   7.950
 5148POPC   C4B12574  32.833  29.027   7.650
 5149POPC   NC312575  29.971  43.853   9.450
 5149POPC   PO412576  29.920  43.868   9.150
 5149POPC   GL112577  29.945  43.918   8.850
 5149POPC   GL212578  30.024  43.876   8.850
 5149POPC   C1A12579  29.911  43.908   8.550
 5149POPC   D2A12580  29.954  43.867   8.250
 5149POPC   C3A12581  29.893  43.859   7.950
 5149POPC   C4A12582  29.878  43.929   7.650
 5149POPC   C1B12583  30.143  43.985   8.550
 5149POPC   C2B12584  30.147  43.977   8.250
 5149POPC   C3B12585  30.136  43.979   7.950
 5149POPC   C4B12586  30.202  43.985   7.650
 5150POPC   NC312587   8.246  36.100   9.450
 5150POPC   PO412588   8.148  36.094   9.150
 5150POPC   GL112589   8.245  36.164   8.850
 5150POPC   GL212590   8.136  36.213   8.850
 5150POPC   C1A12591   8.241  36.103   8.550
 5150POPC   D2A12592   8.179  36.168   8.250
 5150POPC   C3A12593   8.244  36.141   7.950
 5150POPC   C4A12594   8.176  36.136   7.650
 5150POPC   C1B12595   7.970  36.266   8.550
 5150POPC   C2B12596   8.001  36.311   8.250
 5150POPC   C3B12597   8.032  36.290   7.950
 5150POPC   C4B12598   8.016  36.279   7.650
 5151POPC   NC312599  29.897  27.631   9.450
 5151POPC   PO412600  29.899  27.595   9.150
 5151POPC   GL112601  29.945  27.628   8.850
 5151POPC   GL212602  29.974  27.736   8.850
 5151POPC   C1A12603  29.933  27.563   8.550
 5151POPC   D2A12604  29.941  27.600   8.250
 5151POPC   C3A12605  29.933  27.619   7.950
 5151POPC   C4A12606  29.944  27.623   7.650
 5151POPC   C1B12607  29.981  27.778   8.550
 5151POPC   C2B12608  29.981  27.863   8.250
 5151POPC   C3B12609  29.972  27.778   7.950
 5151POPC   C4B12610  29.985  27.872   7.650
 5152POPC   NC312611  33.813   6.688   9.450
 5152POPC   PO412612  33.817   6.612   9.150
 5152POPC   GL112613  33.755   6.638   8.850
 5152POPC   GL212614  33.845   6.732   8.850
 5152POPC   C1A12615  33.770   6.604   8.550
 5152POPC   D2A12616  33.773   6.636   8.250
 5152POPC   C3A12617  33.801   6.633   7.950
 5152POPC   C4A12618  33.812   6.677   7.650
 5152POPC   C1B12619  33.903   6.887   8.550
 5152POPC   C2B12620  33.905   6.872   8.250
 5152POPC   C3B12621  33.967   6.827   7.950
 5152POPC   C4B12622  33.995   6.840   7.650
 5153POPC   NC312623  20.628  36.090   9.450
 5153POPC   PO412624  20.577  36.118   9.150
 5153POPC   GL112625  20.642  36.097   8.850
 5153POPC   GL212626  20.565  36.223   8.850
 5153POPC   C1A12627  20.600  36.091   8.550
 5153POPC   D2A12628  20.572  36.122   8.250
 5153POPC   C3A12629  20.604  36.164   7.950
 5153POPC   C4A12630  20.579  36.131   7.650
 5153POPC   C1B12631  20.574  36.378   8.550
 5153POPC   C2B12632  20.581  36.395   8.250
 5153POPC   C3B12633  20.643  36.373   7.950
 5153POPC   C4B12634  20.567  36.425   7.650
 5154POPC   NC312635  35.369  29.107   9.450
 5154POPC   PO412636  35.329  29.185   9.150
 5154POPC   GL112637  35.341  29.161   8.850
 5154POPC   GL212638  35.304  29.024   8.850
 5154POPC   C1A12639  35.311  29.141   8.550
 5154POPC   D2A12640  35.341  29.195   8.250
 5154POPC   C3A12641  35.372  29.108   7.950
 5154POPC   C4A12642  35.383  29.131   7.650
 5154POPC   C1B12643  35.164  28.980   8.550
 5154POPC   C2B12644  35.212  28.893   8.250
 5154POPC   C3B12645  35.183  28.951   7.950
 5154POPC   C4B12646  35.165  28.944   7.650
 5155POPC   NC312647  33.801  21.349   9.450
 5155POPC   PO412648  33.787  21.352   9.150
 5155POPC   GL112649  33.816  21.373   8.850
 5155POPC   GL212650  33.787  21.237   8.850
 5155POPC   C1A12651  33.784  21.423   8.550
 5155POPC   D2A12652  33.820  21.375   8.250
 5155POPC   C3A12653  33.798  21.433   7.950
 5155POPC   C4A12654  33.753  21.365   7.650
 5155POPC   C1B12655  33.736  21.167   8.550
 5155POPC   C2B12656  33.678  21.176   8.250
 5155POPC   C3B12657  33.707  21.161   7.950
 5155POPC   C4B12658  33.679  21.193   7.650
 5156POPC   NC312659  12.893  39.279   9.450
 5156POPC   PO412660  12.862  39.191   9.150
 5156POPC   GL112661  12.805  39.242   8.850
 5156POPC   GL212662  12.902  39.367   8.850
 5156POPC   C1A12663  12.897  39.185   8.550
 5156POPC   D2A12664  12.850  39.244   8.250
 5156POPC   C3A12665  12.869  39.252   7.950
 5156POPC   C4A12666  12.821  39.271   7.650
 5156POPC   C1B12667  12.955  39.470   8.550
 5156POPC   C2B12668  12.943  39.441   8.250
 5156POPC   C3B12669  12.980  39.489   7.950
 5156POPC   C4B12670  12.918  39.463   7.650
 5157POPC   NC312671  29.119  19.095   9.450
 5157POPC   PO412672  29.095  19.057   9.150
 5157POPC   GL112673  29.180  19.056   8.850
 5157POPC   GL212674  29.085  18.979   8.850
 5157POPC   C1A12675  29.155  19.089   8.550
 5157POPC   D2A12676  29.172  19.010   8.250
 5157POPC   C3A12677  29.137  19.104   7.950
 5157POPC   C4A12678  29.157  19.019   7.650
 5157POPC   C1B12679  29.083  18.777   8.550
 5157POPC   C2B12680  29.114  18.802   8.250
 5157POPC   C3B12681  29.113  18.806   7.950
 5157POPC   C4B12682  29.050  18.870   7.650
 5158POPC   NC312683   3.590  18.331   9.450
 5158POPC   PO412684   3.562  18.246   9.150
 5158POPC   GL112685   3.590  18.270   8.850
 5158POPC   GL212686   3.627  18.231   8.850
 5158POPC   C1A12687   3.565  18.316   8.550
 5158POPC   D2A12688   3.551  18.234   8.250
 5158POPC   C3A12689   3.590  18.252   7.950
 5158POPC   C4A12690   3.527  18.254   7.650
 5158POPC   C1B12691   3.761  18.130   8.550
 5158POPC   C2B12692   3.713  18.132   8.250
 5158POPC   C3B12693   3.756  18.117   7.950
 5158POPC   C4B12694   3.692  18.130   7.650
 5159POPC   NC312695   4.344   3.546   9.450
 5159POPC   PO412696   4.360   3.576   9.150
 5159POPC   GL112697   4.309   3.554   8.850
 5159POPC   GL212698   4.417   3.540   8.850
 5159POPC   C1A12699   4.326   3.505   8.550
 5159POPC   D2A12700   4.347   3.544   8.250
 5159POPC   C3A12701   4.348   3.558   7.950
 5159POPC   C4A12702   4.349   3.504   7.650
 5159POPC   C1B12703   4.519   3.464   8.550
 5159POPC   C2B12704   4.569   3.538   8.250
 5159POPC   C3B12705   4.546   3.510   7.950
 5159POPC   C4B12706   4.521   3.513   7.650
 5160POPC   NC312707   2.732  41.535   9.450
 5160POPC   PO412708   2.741  41.567   9.150
 5160POPC   GL112709   2.762  41.600   8.850
 5160POPC   GL212710   2.765  41.433   8.850
 5160POPC   C1A12711   2.771  41.605   8.550
 5160POPC   D2A12712   2.762  41.511   8.250
 5160POPC   C3A12713   2.726  41.584   7.950
 5160POPC   C4A12714   2.732  41.512   7.650
 5160POPC   C1B12715   2.711  41.328   8.550
 5160POPC   C2B12716   2.704  41.319   8.250
 5160POPC   C3B12717   2.778  41.262   7.950
 5160POPC   C4B12718   2.771  41.328   7.650
 5161POPC   NC312719  19.793  12.075   9.450
 5161POPC   PO412720  19.851  12.077   9.150
 5161POPC   GL112721  19.875  12.056   8.850
 5161POPC   GL212722  19.964  12.057   8.850
 5161POPC   C1A12723  19.788  12.067   8.550
 5161POPC   D2A12724  19.882  12.075   8.250
 5161POPC   C3A12725  19.870  12.043   7.950
 5161POPC   C4A12726  19.835  12.084   7.650
 5161POPC   C1B12727  20.067  12.083   8.550
 5161POPC   C2B12728  20.081  12.118   8.250
 5161POPC   C3B12729  20.049  12.083   7.950
 5161POPC   C4B12730  20.032  12.081   7.650
 5162POPC   NC312731  22.149  35.304   9.450
 5162POPC   PO412732  22.197  35.341   9.150
 5162POPC   GL112733  22.155  35.344   8.850
 5162POPC   GL212734  22.023  35.249   8.850
 5162POPC   C1A12735  22.124  35.386   8.550
 5162POPC   D2A12736  22.142  35.366   8.250
 5162POPC   C3A12737  22.164  35.381   7.950
 5162POPC   C4A12738  22.183  35.363   7.650
 5162POPC   C1B12739  21.965  35.197   8.550
 5162POPC   C2B12740  21.955  35.161   8.250
 5162POPC   C3B12741  21.924  35.258   7.950
 5162POPC   C4B12742  21.988  35.204   7.650
 5163POPC   NC312743  31.443  28.334   9.450
 5163POPC   PO412744  31.502  28.341   9.150
 5163POPC   GL112745  31.478  28.342   8.850
 5163POPC   GL212746  31.439  28.526   8.850
 5163POPC   C1A12747  31.497  28.403   8.550
 5163POPC   D2A12748  31.479  28.412   8.250
 5163POPC   C3A12749  31.483  28.349   7.950
 5163POPC   C4A12750  31.432  28.374   7.650
 5163POPC   C1B12751  31.362  28.559   8.550
 5163POPC   C2B12752  31.417  28.625   8.250
 5163POPC   C3B12753  31.373  28.570   7.950
 5163POPC   C4B12754  31.331  28.591   7.650
 5164POPC   NC312755   5.064  26.034   9.450
 5164POPC   PO412756   5.074  26.059   9.150
 5164POPC   GL112757   5.134  26.082   8.850
 5164POPC   GL212758   5.166  26.137   8.850
 5164POPC   C1A12759   5.076  26.056   8.550
 5164POPC   D2A12760   5.122  26.038   8.250
 5164POPC   C3A12761   5.105  26.088   7.950
 5164POPC   C4A12762   5.113  26.083   7.650
 5164POPC   C1B12763   5.292  26.219   8.550
 5164POPC   C2B12764   5.259  26.165   8.250
 5164POPC   C3B12765   5.322  26.222   7.950
 5164POPC   C4B12766   5.283  26.165   7.650
 5165POPC   NC312767  41.551  10.516   9.450
 5165POPC   PO412768  41.576  10.573   9.150
 5165POPC   GL112769  41.512  10.514   8.850
 5165POPC   GL212770  41.634  10.435   8.850
 5165POPC   C1A12771  41.605  10.533   8.550
 5165POPC   D2A12772  41.523  10.477   8.250
 5165POPC   C3A12773  41.571  10.505   7.950
 5165POPC   C4A12774  41.550  10.494   7.650
 5165POPC   C1B12775  41.629  10.298   8.550
 5165POPC   C2B12776  41.698  10.296   8.250
 5165POPC   C3B12777  41.643  10.330   7.950
 5165POPC   C4B12778  41.632  10.275   7.650
 5166POPC   NC312779  32.209  27.562   9.450
 5166POPC   PO412780  32.283  27.639   9.150
 5166POPC   GL112781  32.282  27.626   8.850
 5166POPC   GL212782  32.224  27.677   8.850
 5166POPC   C1A12783  32.242  27.589   8.550
 5166POPC   D2A12784  32.208  27.580   8.250
 5166POPC   C3A12785  32.227  27.566   7.950
 5166POPC   C4A12786  32.272  27.628   7.650
 5166POPC   C1B12787  32.174  27.808   8.550
 5166POPC   C2B12788  32.129  27.835   8.250
 5166POPC   C3B12789  32.131  27.834   7.950
 5166POPC   C4B12790  32.131  27.772   7.650
 5167POPC   NC312791   5.878  31.516   9.450
 5167POPC   PO412792   5.832  31.521   9.150
 5167POPC   GL112793   5.915  31.511   8.850
 5167POPC   GL212794   5.964  31.348   8.850
 5167POPC   C1A12795   5.903  31.437   8.550
 5167POPC   D2A12796   5.894  31.483   8.250
 5167POPC   C3A12797   5.885  31.441   7.950
 5167POPC   C4A12798   5.828  31.482   7.650
 5167POPC   C1B12799   6.013  31.281   8.550
 5167POPC   C2B12800   6.055  31.240   8.250
 5167POPC   C3B12801   5.958  31.260   7.950
 5167POPC   C4B12802   5.959  31.273   7.650
 5168POPC   NC312803  37.654   6.662   9.450
 5168POPC   PO412804  37.711   6.668   9.150
 5168POPC   GL112805  37.671   6.600   8.850
 5168POPC   GL212806  37.808   6.569   8.850
 5168POPC   C1A12807  37.699   6.619   8.550
 5168POPC   D2A12808  37.687   6.657   8.250
 5168POPC   C3A12809  37.705   6.642   7.950
 5168POPC   C4A12810  37.647   6.614   7.650
 5168POPC   C1B12811  37.842   6.440   8.550
 5168POPC   C2B12812  37.902   6.516   8.250
 5168POPC   C3B12813  37.876   6.452   7.950
 5168POPC   C4B12814  37.898   6.441   7.650
 5169POPC   NC312815  25.292  41.608   9.450
 5169POPC   PO412816  25.277  41.522   9.150
 5169POPC   GL112817  25.229  41.550   8.850
 5169POPC   GL212818  25.349  41.711   8.850
 5169POPC   C1A12819  25.305  41.601   8.550
 5169POPC   D2A12820  25.217  41.583   8.250
 5169POPC   C3A12821  25.271  41.538   7.950
 5169POPC   C4A12822  25.247  41.562   7.650
 5169POPC   C1B12823  25.420  41.773   8.550
 5169POPC   C2B12824  25.390  41.779   8.250
 5169POPC   C3B12825  25.361  41.785   7.950
 5169POPC   C4B12826  25.375  41.753   7.650
 5170POPC   NC312827  36.915  16.728   9.450
 5170POPC   PO412828  36.892  16.726   9.150
 5170POPC   GL112829  36.916  16.730   8.850
 5170POPC   GL212830  36.956  16.656   8.850
 5170POPC   C1A12831  36.921  16.764   8.550
 5170POPC   D2A12832  36.876  16.727   8.250
 5170POPC   C3A12833  36.857  16.767   7.950
 5170POPC   C4A12834  36.901  16.747   7.650
 5170POPC   C1B12835  36.958  16.486   8.550
 5170POPC   C2B12836  36.991  16.534   8.250
 5170POPC   C3B12837  37.041  16.515   7.950
 5170POPC   C4B12838  36.944  16.488   7.650
 5171POPC   NC312839   5.069  34.590   9.450
 5171POPC   PO412840   5.081  34.546   9.150
 5171POPC   GL112841   5.054  34.575   8.850
 5171POPC   GL212842   5.035  34.486   8.850
 5171POPC   C1A12843   5.073  34.608   8.550
 5171POPC   D2A12844   5.061  34.602   8.250
 5171POPC   C3A12845   5.070  34.555   7.950
 5171POPC   C4A12846   5.106  34.592   7.650
 5171POPC   C1B12847   4.954  34.426   8.550
 5171POPC   C2B12848   4.964  34.356   8.250
 5171POPC   C3B12849   4.952  34.419   7.950
 5171POPC   C4B12850   4.978  34.425   7.650
 5172POPC   NC312851  11.306  38.420   9.450
 5172POPC   PO412852  11.266  38.464   9.150
 5172POPC   GL112853  11.318  38.504   8.850
 5172POPC   GL212854  11.417  38.412   8.850
 5172POPC   C1A12855  11.319  38.442   8.550
 5172POPC   D2A12856  11.348  38.457   8.250
 5172POPC   C3A12857  11.279  38.487   7.950
 5172POPC   C4A12858  11.252  38.441   7.650
 5172POPC   C1B12859  11.572  38.419   8.550
 5172POPC   C2B12860  11.539  38.438   8.250
 5172POPC   C3B12861  11.561  38.473   7.950
 5172POPC   C4B12862  11.570  38.424   7.650
 5173POPC   NC312863  24.473  37.707   9.450
 5173POPC   PO412864  24.484  37.702   9.150
 5173POPC   GL112865  24.468  37.660   8.850
 5173POPC   GL212866  24.628  37.627   8.850
 5173POPC   C1A12867  24.492  37.664   8.550
 5173POPC   D2A12868  24.498  37.642   8.250
 5173POPC   C3A12869  24.494  37.654   7.950
 5173POPC   C4A12870  24.440  37.670   7.650
 5173POPC   C1B12871  24.759  37.562   8.550
 5173POPC   C2B12872  24.687  37.553   8.250
 5173POPC   C3B12873  24.721  37.572   7.950
 5173POPC   C4B12874  24.765  37.576   7.650
 5174POPC   NC312875  36.157   6.595   9.450
 5174POPC   PO412876  36.123   6.669   9.150
 5174POPC   GL112877  36.123   6.598   8.850
 5174POPC   GL212878  35.995   6.618   8.850
 5174POPC   C1A12879  36.094   6.610   8.550
 5174POPC   D2A12880  36.117   6.664   8.250
 5174POPC   C3A12881  36.122   6.608   7.950
 5174POPC   C4A12882  36.162   6.680   7.650
 5174POPC   C1B12883  35.858   6.583   8.550
 5174POPC   C2B12884  35.864   6.559   8.250
 5174POPC   C3B12885  35.886   6.559   7.950
 5174POPC   C4B12886  35.875   6.581   7.650
 5175POPC   NC312887  22.182   2.029   9.450
 5175POPC   PO412888  22.199   1.947   9.150
 5175POPC   GL112889  22.164   1.947   8.850
 5175POPC   GL212890  22.220   1.949   8.850
 5175POPC   C1A12891  22.167   1.986   8.550
 5175POPC   D2A12892  22.129   1.996   8.250
 5175POPC   C3A12893  22.210   1.949   7.950
 5175POPC   C4A12894  22.191   1.963   7.650
 5175POPC   C1B12895  22.385   1.842   8.550
 5175POPC   C2B12896  22.386   1.878   8.250
 5175POPC   C3B12897  22.347   1.833   7.950
 5175POPC   C4B12898  22.370   1.850   7.650
 5176POPC   NC312899   9.783  27.588   9.450
 5176POPC   PO412900   9.769  27.607   9.150
 5176POPC   GL112901   9.788  27.567   8.850
 5176POPC   GL212902   9.648  27.691   8.850
 5176POPC   C1A12903   9.764  27.607   8.550
 5176POPC   D2A12904   9.729  27.590   8.250
 5176POPC   C3A12905   9.726  27.559   7.950
 5176POPC   C4A12906   9.724  27.601   7.650
 5176POPC   C1B12907   9.605  27.809   8.550
 5176POPC   C2B12908   9.532  27.770   8.250
 5176POPC   C3B12909   9.538  27.755   7.950
 5176POPC   C4B12910   9.593  27.794   7.650
 5177POPC   NC312911  36.148  35.384   9.450
 5177POPC   PO412912  36.123  35.332   9.150
 5177POPC   GL112913  36.136  35.322   8.850
 5177POPC   GL212914  36.090  35.463   8.850
 5177POPC   C1A12915  36.104  35.334   8.550
 5177POPC   D2A12916  36.087  35.385   8.250
 5177POPC   C3A12917  36.083  35.360   7.950
 5177POPC   C4A12918  36.142  35.308   7.650
 5177POPC   C1B12919  36.045  35.616   8.550
 5177POPC   C2B12920  36.062  35.626   8.250
 5177POPC   C3B12921  36.004  35.632   7.950
 5177POPC   C4B12922  36.072  35.630   7.650
 5178POPC   NC312923   9.010  21.352   9.450
 5178POPC   PO412924   8.996  21.410   9.150
 5178POPC   GL112925   8.942  21.339   8.850
 5178POPC   GL212926   9.073  21.474   8.850
 5178POPC   C1A12927   8.981  21.362   8.550
 5178POPC   D2A12928   8.996  21.385   8.250
 5178POPC   C3A12929   8.964  21.436   7.950
 5178POPC   C4A12930   8.993  21.434   7.650
 5178POPC   C1B12931   9.172  21.579   8.550
 5178POPC   C2B12932   9.146  21.569   8.250
 5178POPC   C3B12933   9.152  21.571   7.950
 5178POPC   C4B12934   9.128  21.570   7.650
 5179POPC   NC312935  10.545  38.469   9.450
 5179POPC   PO412936  10.552  38.414   9.150
 5179POPC   GL112937  10.490  38.430   8.850
 5179POPC   GL212938  10.401  38.517   8.850
 5179POPC   C1A12939  10.573  38.422   8.550
 5179POPC   D2A12940  10.545  38.501   8.250
 5179POPC   C3A12941  10.501  38.478   7.950
 5179POPC   C4A12942  10.559  38.433   7.650
 5179POPC   C1B12943  10.237  38.571   8.550
 5179POPC   C2B12944  10.326  38.527   8.250
 5179POPC   C3B12945  10.256  38.512   7.950
 5179POPC   C4B12946  10.324  38.497   7.650
 5180POPC   NC312947   9.017  33.850   9.450
 5180POPC   PO412948   8.956  33.846   9.150
 5180POPC   GL112949   8.982  33.799   8.850
 5180POPC   GL212950   9.053  33.841   8.850
 5180POPC   C1A12951   8.946  33.817   8.550
 5180POPC   D2A12952   8.984  33.783   8.250
 5180POPC   C3A12953   9.012  33.801   7.950
 5180POPC   C4A12954   9.009  33.768   7.650
 5180POPC   C1B12955   9.194  33.828   8.550
 5180POPC   C2B12956   9.223  33.808   8.250
 5180POPC   C3B12957   9.234  33.833   7.950
 5180POPC   C4B12958   9.196  33.844   7.650
 5181POPC   NC312959  22.184  43.844   9.450
 5181POPC   PO412960  22.173  43.902   9.150
 5181POPC   GL112961  22.159  43.868   8.850
 5181POPC   GL212962  22.303  43.874   8.850
 5181POPC   C1A12963  22.209  43.855   8.550
 5181POPC   D2A12964  22.129  43.851   8.250
 5181POPC   C3A12965  22.209  43.882   7.950
 5181POPC   C4A12966  22.180  43.879   7.650
 5181POPC   C1B12967  22.405  43.802   8.550
 5181POPC   C2B12968  22.388  43.803   8.250
 5181POPC   C3B12969  22.422  43.775   7.950
 5181POPC   C4B12970  22.385  43.819   7.650
 5182POPC   NC312971  17.525  28.371   9.450
 5182POPC   PO412972  17.466  28.341   9.150
 5182POPC   GL112973  17.465  28.415   8.850
 5182POPC   GL212974  17.447  28.536   8.850
 5182POPC   C1A12975  17.508  28.378   8.550
 5182POPC   D2A12976  17.494  28.347   8.250
 5182POPC   C3A12977  17.474  28.347   7.950
 5182POPC   C4A12978  17.457  28.348   7.650
 5182POPC   C1B12979  17.450  28.591   8.550
 5182POPC   C2B12980  17.429  28.637   8.250
 5182POPC   C3B12981  17.428  28.591   7.950
 5182POPC   C4B12982  17.472  28.640   7.650
 5183POPC   NC312983  26.816   7.459   9.450
 5183POPC   PO412984  26.823   7.458   9.150
 5183POPC   GL112985  26.864   7.462   8.850
 5183POPC   GL212986  26.820   7.314   8.850
 5183POPC   C1A12987  26.823   7.372   8.550
 5183POPC   D2A12988  26.841   7.460   8.250
 5183POPC   C3A12989  26.845   7.439   7.950
 5183POPC   C4A12990  26.796   7.433   7.650
 5183POPC   C1B12991  26.839   7.197   8.550
 5183POPC   C2B12992  26.858   7.132   8.250
 5183POPC   C3B12993  26.799   7.138   7.950
 5183POPC   C4B12994  26.778   7.206   7.650
 5184POPC   NC312995  25.251   5.852   9.450
 5184POPC   PO412996  25.278   5.885   9.150
 5184POPC   GL112997  25.279   5.820   8.850
 5184POPC   GL212998  25.295   5.957   8.850
 5184POPC   C1A12999  25.259   5.853   8.550
 5184POPC   D2A13000  25.232   5.847   8.250
 5184POPC   C3A13001  25.263   5.893   7.950
 5184POPC   C4A13002  25.251   5.892   7.650
 5184POPC   C1B13003  25.369   6.077   8.550
 5184POPC   C2B13004  25.407   6.057   8.250
 5184POPC   C3B13005  25.395   6.134   7.950
 5184POPC   C4B13006  25.393   6.088   7.650
 5185POPC   NC313007   8.970   9.003   9.450
 5185POPC   PO413008   8.987   8.958   9.150
 5185POPC   GL113009   8.972   8.996   8.850
 5185POPC   GL213010   9.114   9.001   8.850
 5185POPC   C1A13011   8.938   9.019   8.550
 5185POPC   D2A13012   9.005   8.962   8.250
 5185POPC   C3A13013   8.962   8.975   7.950
 5185POPC   C4A13014   9.007   8.972   7.650
 5185POPC   C1B13015   9.155   9.145   8.550
 5185POPC   C2B13016   9.123   9.092   8.250
 5185POPC   C3B13017   9.148   9.156   7.950
 5185POPC   C4B13018   9.153   9.172   7.650
 5186POPC   NC313019  39.210  37.685   9.450
 5186POPC   PO413020  39.228  37.632   9.150
 5186POPC   GL113021  39.257  37.725   8.850
 5186POPC   GL213022  39.314  37.601   8.850
 5186POPC   C1A13023  39.250  37.701   8.550
 5186POPC   D2A13024  39.223  37.725   8.250
 5186POPC   C3A13025  39.235  37.668   7.950
 5186POPC   C4A13026  39.270  37.729   7.650
 5186POPC   C1B13027  39.495  37.640   8.550
 5186POPC   C2B13028  39.438  37.631   8.250
 5186POPC   C3B13029  39.458  37.624   7.950
 5186POPC   C4B13030  39.445  37.564   7.650
 5187POPC   NC313031   1.954   8.997   9.450
 5187POPC   PO413032   2.031   8.991   9.150
 5187POPC   GL113033   2.009   8.964   8.850
 5187POPC   GL213034   1.884   8.957   8.850
 5187POPC   C1A13035   2.023   8.925   8.550
 5187POPC   D2A13036   2.023   9.010   8.250
 5187POPC   C3A13037   2.025   8.928   7.950
 5187POPC   C4A13038   1.976   8.940   7.650
 5187POPC   C1B13039   1.729   8.848   8.550
 5187POPC   C2B13040   1.779   8.855   8.250
 5187POPC   C3B13041   1.750   8.848   7.950
 5187POPC   C4B13042   1.757   8.843   7.650
 5188POPC   NC313043  15.921   9.009   9.450
 5188POPC   PO413044  15.918   8.965   9.150
 5188POPC   GL113045  15.976   9.004   8.850
 5188POPC   GL213046  16.040   8.984   8.850
 5188POPC   C1A13047  15.926   8.923   8.550
 5188POPC   D2A13048  15.960   8.936   8.250
 5188POPC   C3A13049  15.978   9.007   7.950
 5188POPC   C4A13050  15.907   8.957   7.650
 5188POPC   C1B13051  16.210   9.013   8.550
 5188POPC   C2B13052  16.169   8.945   8.250
 5188POPC   C3B13053  16.181   8.986   7.950
 5188POPC   C4B13054  16.186   9.011   7.650
 5189POPC   NC313055  36.915  25.289   9.450
 5189POPC   PO413056  36.941  25.226   9.150
 5189POPC   GL113057  36.908  25.237   8.850
 5189POPC   GL213058  37.038  25.227   8.850
 5189POPC   C1A13059  36.855  25.312   8.550
 5189POPC   D2A13060  36.924  25.299   8.250
 5189POPC   C3A13061  36.854  25.276   7.950
 5189POPC   C4A13062  36.900  25.280   7.650
 5189POPC   C1B13063  37.110  25.167   8.550
 5189POPC   C2B13064  37.130  25.154   8.250
 5189POPC   C3B13065  37.116  25.172   7.950
 5189POPC   C4B13066  37.129  25.119   7.650
 5190POPC   NC313067  40.044  35.323   9.450
 5190POPC   PO413068  39.969  35.353   9.150
 5190POPC   GL113069  40.037  35.375   8.850
 5190POPC   GL213070  40.155  35.325   8.850
 5190POPC   C1A13071  40.040  35.351   8.550
 5190POPC   D2A13072  40.037  35.398   8.250
 5190POPC   C3A13073  40.013  35.398   7.950
 5190POPC   C4A13074  40.041  35.334   7.650
 5190POPC   C1B13075  40.205  35.310   8.550
 5190POPC   C2B13076  40.213  35.295   8.250
 5190POPC   C3B13077  40.263  35.312   7.950
 5190POPC   C4B13078  40.280  35.297   7.650
 5191POPC   NC313079   8.994  42.362   9.450
 5191POPC   PO413080   8.940  42.380   9.150
 5191POPC   GL113081   9.000  42.337   8.850
 5191POPC   GL213082   8.936  42.507   8.850
 5191POPC   C1A13083   8.945  42.306   8.550
 5191POPC   D2A13084   8.952  42.352   8.250
 5191POPC   C3A13085   8.933  42.328   7.950
 5191POPC   C4A13086   9.005  42.330   7.650
 5191POPC   C1B13087   9.022  42.557   8.550
 5191POPC   C2B13088   9.006  42.599   8.250
 5191POPC   C3B13089   8.983  42.586   7.950
 5191POPC   C4B13090   8.981  42.609   7.650
 5192POPC   NC313091  34.581  25.219   9.450
 5192POPC   PO413092  34.570  25.266   9.150
 5192POPC   GL113093  34.607  25.297   8.850
 5192POPC   GL213094  34.708  25.258   8.850
 5192POPC   C1A13095  34.564  25.249   8.550
 5192POPC   D2A13096  34.575  25.285   8.250
 5192POPC   C3A13097  34.530  25.279   7.950
 5192POPC   C4A13098  34.586  25.245   7.650
 5192POPC   C1B13099  34.849  25.116   8.550
 5192POPC   C2B13100  34.776  25.188   8.250
 5192POPC   C3B13101  34.804  25.136   7.950
 5192POPC   C4B13102  34.777  25.180   7.650
 5193POPC   NC313103   5.916   3.576   9.450
 5193POPC   PO413104   5.854   3.554   9.150
 5193POPC   GL113105   5.864   3.542   8.850
 5193POPC   GL213106   5.895   3.451   8.850
 5193POPC   C1A13107   5.849   3.583   8.550
 5193POPC   D2A13108   5.845   3.569   8.250
 5193POPC   C3A13109   5.853   3.552   7.950
 5193POPC   C4A13110   5.869   3.536   7.650
 5193POPC   C1B13111   5.946   3.371   8.550
 5193POPC   C2B13112   5.965   3.327   8.250
 5193POPC   C3B13113   6.037   3.302   7.950
 5193POPC   C4B13114   6.040   3.322   7.650
 5194POPC   NC313115  14.378  12.058   9.450
 5194POPC   PO413116  14.384  12.066   9.150
 5194POPC   GL113117  14.375  12.072   8.850
 5194POPC   GL213118  14.409  11.955   8.850
 5194POPC   C1A13119  14.423  12.057   8.550
 5194POPC   D2A13120  14.403  12.069   8.250
 5194POPC   C3A13121  14.395  12.061   7.950
 5194POPC   C4A13122  14.384  12.061   7.650
 5194POPC   C1B13123  14.490  11.846   8.550
 5194POPC   C2B13124  14.478  11.857   8.250
 5194POPC   C3B13125  14.508  11.855   7.950
 5194POPC   C4B13126  14.461  11.881   7.650
 5195POPC   NC313127  14.436   4.316   9.450
 5195POPC   PO413128  14.446   4.276   9.150
 5195POPC   GL113129  14.405   4.365   8.850
 5195POPC   GL213130  14.533   4.341   8.850
 5195POPC   C1A13131  14.438   4.345   8.550
 5195POPC   D2A13132  14.412   4.324   8.250
 5195POPC   C3A13133  14.453   4.270   7.950
 5195POPC   C4A13134  14.372   4.271   7.650
 5195POPC   C1B13135  14.682   4.364   8.550
 5195POPC   C2B13136  14.643   4.294   8.250
 5195POPC   C3B13137  14.667   4.321   7.950
 5195POPC   C4B13138  14.651   4.319   7.650
 5196POPC   NC313139  15.952   8.230   9.450
 5196POPC   PO413140  15.996   8.246   9.150
 5196POPC   GL113141  15.991   8.166   8.850
 5196POPC   GL213142  16.023   8.165   8.850
 5196POPC   C1A13143  15.967   8.209   8.550
 5196POPC   D2A13144  15.955   8.201   8.250
 5196POPC   C3A13145  15.969   8.177   7.950
 5196POPC   C4A13146  15.922   8.194   7.650
 5196POPC   C1B13147  16.205   8.113   8.550
 5196POPC   C2B13148  16.223   8.079   8.250
 5196POPC   C3B13149  16.202   8.090   7.950
 5196POPC   C4B13150  16.156   8.148   7.650
 5197POPC   NC313151  17.510  29.905   9.450
 5197POPC   PO413152  17.459  29.957   9.150
 5197POPC   GL113153  17.477  29.953   8.850
 5197POPC   GL213154  17.482  30.007   8.850
 5197POPC   C1A13155  17.510  29.884   8.550
 5197POPC   D2A13156  17.532  29.909   8.250
 5197POPC   C3A13157  17.541  29.873   7.950
 5197POPC   C4A13158  17.494  29.954   7.650
 5197POPC   C1B13159  17.535  30.136   8.550
 5197POPC   C2B13160  17.523  30.137   8.250
 5197POPC   C3B13161  17.501  30.168   7.950
 5197POPC   C4B13162  17.507  30.160   7.650
 5198POPC   NC313163  26.002   9.746   9.450
 5198POPC   PO413164  26.022   9.736   9.150
 5198POPC   GL113165  26.026   9.747   8.850
 5198POPC   GL213166  25.999   9.909   8.850
 5198POPC   C1A13167  26.073   9.747   8.550
 5198POPC   D2A13168  26.082   9.729   8.250
 5198POPC   C3A13169  26.073   9.710   7.950
 5198POPC   C4A13170  26.044   9.744   7.650
 5198POPC   C1B13171  25.991  10.032   8.550
 5198POPC   C2B13172  26.039  10.023   8.250
 5198POPC   C3B13173  26.022   9.980   7.950
 5198POPC   C4B13174  26.047  10.015   7.650
 5199POPC   NC313175   8.239   0.402   9.450
 5199POPC   PO413176   8.187   0.417   9.150
 5199POPC   GL113177   8.216   0.477   8.850
 5199POPC   GL213178   8.314   0.366   8.850
 5199POPC   C1A13179   8.235   0.482   8.550
 5199POPC   D2A13180   8.238   0.427   8.250
 5199POPC   C3A13181   8.228   0.414   7.950
 5199POPC   C4A13182   8.211   0.408   7.650
 5199POPC   C1B13183   8.420   0.299   8.550
 5199POPC   C2B13184   8.401   0.342   8.250
 5199POPC   C3B13185   8.464   0.352   7.950
 5199POPC   C4B13186   8.443   0.379   7.650
 5200POPC   NC313187   9.777  26.051   9.450
 5200POPC   PO413188   9.734  25.997   9.150
 5200POPC   GL113189   9.749  26.086   8.850
 5200POPC   GL213190   9.717  25.918   8.850
 5200POPC   C1A13191   9.784  26.003   8.550
 5200POPC   D2A13192   9.714  26.012   8.250
 5200POPC   C3A13193   9.762  25.998   7.950
 5200POPC   C4A13194   9.711  26.039   7.650
 5200POPC   C1B13195   9.754  25.751   8.550
 5200POPC   C2B13196   9.747  25.756   8.250
 5200POPC   C3B13197   9.720  25.796   7.950
 5200POPC   C4B13198   9.727  25.820   7.650
 5201POPC   NC313199  14.450  22.912   9.450
 5201POPC   PO413200  14.362  22.949   9.150
 5201POPC   GL113201  14.369  22.935   8.850
 5201POPC   GL213202  14.479  22.898   8.850
 5201POPC   C1A13203  14.412  22.890   8.550
 5201POPC   D2A13204  14.399  22.923   8.250
 5201POPC   C3A13205  14.399  22.939   7.950
 5201POPC   C4A13206  14.378  22.965   7.650
 5201POPC   C1B13207  14.596  22.880   8.550
 5201POPC   C2B13208  14.637  22.898   8.250
 5201POPC   C3B13209  14.599  22.867   7.950
 5201POPC   C4B13210  14.691  22.837   7.650
 5202POPC   NC313211   1.179  19.848   9.450
 5202POPC   PO413212   1.231  19.787   9.150
 5202POPC   GL113213   1.218  19.844   8.850
 5202POPC   GL213214   1.108  19.760   8.850
 5202POPC   C1A13215   1.194  19.833   8.550
 5202POPC   D2A13216   1.183  19.854   8.250
 5202POPC   C3A13217   1.227  19.815   7.950
 5202POPC   C4A13218   1.242  19.830   7.650
 5202POPC   C1B13219   0.971  19.699   8.550
 5202POPC   C2B13220   0.973  19.740   8.250
 5202POPC   C3B13221   1.012  19.792   7.950
 5202POPC   C4B13222   0.932  19.777   7.650
 5203POPC   NC313223  42.344  42.378   9.450
 5203POPC   PO413224  42.368  42.372   9.150
 5203POPC   GL113225  42.360  42.382   8.850
 5203POPC   GL213226  42.398  42.322   8.850
 5203POPC   C1A13227  42.304  42.301   8.550
 5203POPC   D2A13228  42.336  42.301   8.250
 5203POPC   C3A13229  42.365  42.301   7.950
 5203POPC   C4A13230  42.289  42.377   7.650
 5203POPC   C1B13231  42.552  42.193   8.550
 5203POPC   C2B13232  42.578  42.240   8.250
 5203POPC   C3B13233  42.567  42.225   7.950
 5203POPC   C4B13234  42.517  42.221   7.650
 5204POPC   NC313235  19.787  26.031   9.450
 5204POPC   PO413236  19.793  26.046   9.150
 5204POPC   GL113237  19.800  26.064   8.850
 5204POPC   GL213238  19.792  26.124   8.850
 5204POPC   C1A13239  19.837  26.042   8.550
 5204POPC   D2A13240  19.837  26.013   8.250
 5204POPC   C3A13241  19.831  26.062   7.950
 5204POPC   C4A13242  19.820  26.070   7.650
 5204POPC   C1B13243  19.643  26.190   8.550
 5204POPC   C2B13244  19.632  26.218   8.250
 5204POPC   C3B13245  19.609  26.244   7.950
 5204POPC   C4B13246  19.700  26.178   7.650
 5205POPC   NC313247  30.723  40.055   9.450
 5205POPC   PO413248  30.711  39.997   9.150
 5205POPC   GL113249  30.718  39.975   8.850
 5205POPC   GL213250  30.772  39.966   8.850
 5205POPC   C1A13251  30.661  39.998   8.550
 5205POPC   D2A13252  30.727  40.008   8.250
 5205POPC   C3A13253  30.652  39.960   7.950
 5205POPC   C4A13254  30.733  39.990   7.650
 5205POPC   C1B13255  30.953  40.030   8.550
 5205POPC   C2B13256  30.988  40.037   8.250
 5205POPC   C3B13257  30.962  39.971   7.950
 5205POPC   C4B13258  30.950  39.977   7.650
 5206POPC   NC313259  36.137  10.545   9.450
 5206POPC   PO413260  36.097  10.527   9.150
 5206POPC   GL113261  36.086  10.478   8.850
 5206POPC   GL213262  36.198  10.627   8.850
 5206POPC   C1A13263  36.175  10.546   8.550
 5206POPC   D2A13264  36.099  10.502   8.250
 5206POPC   C3A13265  36.148  10.569   7.950
 5206POPC   C4A13266  36.085  10.565   7.650
 5206POPC   C1B13267  36.293  10.707   8.550
 5206POPC   C2B13268  36.309  10.727   8.250
 5206POPC   C3B13269  36.275  10.672   7.950
 5206POPC   C4B13270  36.339  10.690   7.650
 5207POPC   NC313271  39.256  29.120   9.450
 5207POPC   PO413272  39.202  29.111   9.150
 5207POPC   GL113273  39.253  29.141   8.850
 5207POPC   GL213274  39.212  28.991   8.850
 5207POPC   C1A13275  39.223  29.166   8.550
 5207POPC   D2A13276  39.205  29.185   8.250
 5207POPC   C3A13277  39.216  29.182   7.950
 5207POPC   C4A13278  39.273  29.126   7.650
 5207POPC   C1B13279  39.179  28.915   8.550
 5207POPC   C2B13280  39.261  28.849   8.250
 5207POPC   C3B13281  39.186  28.854   7.950
 5207POPC   C4B13282  39.199  28.911   7.650
 5208POPC   NC313283   5.867  34.589   9.450
 5208POPC   PO413284   5.820  34.540   9.150
 5208POPC   GL113285   5.820  34.552   8.850
 5208POPC   GL213286   5.842  34.490   8.850
 5208POPC   C1A13287   5.881  34.614   8.550
 5208POPC   D2A13288   5.906  34.550   8.250
 5208POPC   C3A13289   5.909  34.568   7.950
 5208POPC   C4A13290   5.889  34.576   7.650
 5208POPC   C1B13291   5.903  34.295   8.550
 5208POPC   C2B13292   5.857  34.368   8.250
 5208POPC   C3B13293   5.871  34.321   7.950
 5208POPC   C4B13294   5.890  34.359   7.650
 5209POPC   NC313295  36.872  19.845   9.450
 5209POPC   PO413296  36.897  19.818   9.150
 5209POPC   GL113297  36.862  19.865   8.850
 5209POPC   GL213298  36.968  19.864   8.850
 5209POPC   C1A13299  36.866  19.804   8.550
 5209POPC   D2A13300  36.882  19.877   8.250
 5209POPC   C3A13301  36.881  19.851   7.950
 5209POPC   C4A13302  36.909  19.862   7.650
 5209POPC   C1B13303  37.076  20.030   8.550
 5209POPC   C2B13304  37.150  20.028   8.250
 5209POPC   C3B13305  37.065  19.950   7.950
 5209POPC   C4B13306  37.083  20.024   7.650
 5210POPC   NC313307   1.209  13.606   9.450
 5210POPC   PO413308   1.254  13.616   9.150
 5210POPC   GL113309   1.226  13.661   8.850
 5210POPC   GL213310   1.306  13.616   8.850
 5210POPC   C1A13311   1.189  13.650   8.550
 5210POPC   D2A13312   1.176  13.667   8.250
 5210POPC   C3A13313   1.224  13.595   7.950
 5210POPC   C4A13314   1.222  13.616   7.650
 5210POPC   C1B13315   1.488  13.573   8.550
 5210POPC   C2B13316   1.476  13.614   8.250
 5210POPC   C3B13317   1.470  13.558   7.950
 5210POPC   C4B13318   1.418  13.631   7.650
 5211POPC   NC313319  43.140  20.635   9.450
 5211POPC   PO413320  43.078  20.587   9.150
 5211POPC   GL113321  43.152  20.634   8.850
 5211POPC   GL213322  43.168  20.465   8.850
 5211POPC   C1A13323  43.103  20.569   8.550
 5211POPC   D2A13324  43.093  20.624   8.250
 5211POPC   C3A13325  43.102  20.619   7.950
 5211POPC   C4A13326  43.068  20.581   7.650
 5211POPC   C1B13327  43.230  20.362   8.550
 5211POPC   C2B13328  43.241  20.337   8.250
 5211POPC   C3B13329  43.167  20.364   7.950
 5211POPC   C4B13330  43.228  20.420   7.650
 5212POPC   NC313331   6.626  35.309   9.450
 5212POPC   PO413332   6.667  35.384   9.150
 5212POPC   GL113333   6.596  35.338   8.850
 5212POPC   GL213334   6.477  35.304   8.850
 5212POPC   C1A13335   6.649  35.347   8.550
 5212POPC   D2A13336   6.675  35.320   8.250
 5212POPC   C3A13337   6.610  35.354   7.950
 5212POPC   C4A13338   6.692  35.328   7.650
 5212POPC   C1B13339   6.441  35.287   8.550
 5212POPC   C2B13340   6.408  35.330   8.250
 5212POPC   C3B13341   6.377  35.359   7.950
 5212POPC   C4B13342   6.437  35.372   7.650
 5213POPC   NC313343  24.493  26.799   9.450
 5213POPC   PO413344  24.440  26.859   9.150
 5213POPC   GL113345  24.482  26.841   8.850
 5213POPC   GL213346  24.523  26.943   8.850
 5213POPC   C1A13347  24.521  26.788   8.550
 5213POPC   D2A13348  24.457  26.803   8.250
 5213POPC   C3A13349  24.494  26.813   7.950
 5213POPC   C4A13350  24.534  26.796   7.650
 5213POPC   C1B13351  24.576  27.054   8.550
 5213POPC   C2B13352  24.553  27.062   8.250
 5213POPC   C3B13353  24.544  27.068   7.950
 5213POPC   C4B13354  24.532  27.097   7.650
 5214POPC   NC313355   3.549   5.918   9.450
 5214POPC   PO413356   3.530   5.895   9.150
 5214POPC   GL113357   3.542   5.893   8.850
 5214POPC   GL213358   3.396   5.770   8.850
 5214POPC   C1A13359   3.534   5.840   8.550
 5214POPC   D2A13360   3.554   5.916   8.250
 5214POPC   C3A13361   3.542   5.893   7.950
 5214POPC   C4A13362   3.584   5.881   7.650
 5214POPC   C1B13363   3.376   5.736   8.550
 5214POPC   C2B13364   3.358   5.742   8.250
 5214POPC   C3B13365   3.366   5.685   7.950
 5214POPC   C4B13366   3.344   5.741   7.650
 5215POPC   NC313367  23.740   5.875   9.450
 5215POPC   PO413368  23.670   5.892   9.150
 5215POPC   GL113369  23.740   5.906   8.850
 5215POPC   GL213370  23.604   5.810   8.850
 5215POPC   C1A13371  23.730   5.854   8.550
 5215POPC   D2A13372  23.734   5.899   8.250
 5215POPC   C3A13373  23.668   5.845   7.950
 5215POPC   C4A13374  23.708   5.819   7.650
 5215POPC   C1B13375  23.527   5.710   8.550
 5215POPC   C2B13376  23.470   5.698   8.250
 5215POPC   C3B13377  23.501   5.703   7.950
 5215POPC   C4B13378  23.514   5.696   7.650
 5216POPC   NC313379  40.814  34.611   9.450
 5216POPC   PO413380  40.802  34.617   9.150
 5216POPC   GL113381  40.820  34.560   8.850
 5216POPC   GL213382  40.742  34.712   8.850
 5216POPC   C1A13383  40.747  34.543   8.550
 5216POPC   D2A13384  40.769  34.590   8.250
 5216POPC   C3A13385  40.750  34.588   7.950
 5216POPC   C4A13386  40.813  34.550   7.650
 5216POPC   C1B13387  40.742  34.827   8.550
 5216POPC   C2B13388  40.783  34.820   8.250
 5216POPC   C3B13389  40.735  34.829   7.950
 5216POPC   C4B13390  40.743  34.813   7.650
 5217POPC   NC313391   9.795  33.806   9.450
 5217POPC   PO413392   9.786  33.763   9.150
 5217POPC   GL113393   9.763  33.835   8.850
 5217POPC   GL213394   9.850  33.660   8.850
 5217POPC   C1A13395   9.783  33.828   8.550
 5217POPC   D2A13396   9.706  33.765   8.250
 5217POPC   C3A13397   9.710  33.799   7.950
 5217POPC   C4A13398   9.742  33.779   7.650
 5217POPC   C1B13399   9.925  33.639   8.550
 5217POPC   C2B13400   9.943  33.609   8.250
 5217POPC   C3B13401   9.925  33.584   7.950
 5217POPC   C4B13402   9.942  33.663   7.650
 5218POPC   NC313403  19.083   1.217   9.450
 5218POPC   PO413404  19.070   1.242   9.150
 5218POPC   GL113405  19.089   1.250   8.850
 5218POPC   GL213406  19.041   1.117   8.850
 5218POPC   C1A13407  19.083   1.166   8.550
 5218POPC   D2A13408  19.106   1.235   8.250
 5218POPC   C3A13409  19.108   1.182   7.950
 5218POPC   C4A13410  19.032   1.201   7.650
 5218POPC   C1B13411  19.072   0.968   8.550
 5218POPC   C2B13412  19.101   0.943   8.250
 5218POPC   C3B13413  19.132   0.918   7.950
 5218POPC   C4B13414  19.083   0.973   7.650
 5219POPC   NC313415  14.385  43.080   9.450
 5219POPC   PO413416  14.397  43.160   9.150
 5219POPC   GL113417  14.361  43.099   8.850
 5219POPC   GL213418  14.508  43.000   8.850
 5219POPC   C1A13419  14.438  43.117   8.550
 5219POPC   D2A13420  14.378  43.081   8.250
 5219POPC   C3A13421  14.415  43.086   7.950
 5219POPC   C4A13422  14.368  43.118   7.650
 5219POPC   C1B13423  14.513  42.934   8.550
 5219POPC   C2B13424  14.515  42.900   8.250
 5219POPC   C3B13425  14.573  42.879   7.950
 5219POPC   C4B13426  14.541  42.880   7.650
 5220POPC   NC313427  39.214  20.638   9.450
 5220POPC   PO413428  39.266  20.607   9.150
 5220POPC   GL113429  39.260  20.633   8.850
 5220POPC   GL213430  39.248  20.725   8.850
 5220POPC   C1A13431  39.190  20.582   8.550
 5220POPC   D2A13432  39.260  20.633   8.250
 5220POPC   C3A13433  39.227  20.599   7.950
 5220POPC   C4A13434  39.250  20.643   7.650
 5220POPC   C1B13435  39.172  20.884   8.550
 5220POPC   C2B13436  39.193  20.866   8.250
 5220POPC   C3B13437  39.205  20.845   7.950
 5220POPC   C4B13438  39.126  20.881   7.650
 5221POPC   NC313439   3.502   7.427   9.450
 5221POPC   PO413440   3.519   7.419   9.150
 5221POPC   GL113441   3.527   7.411   8.850
 5221POPC   GL213442   3.556   7.305   8.850
 5221POPC   C1A13443   3.577   7.444   8.550
 5221POPC   D2A13444   3.522   7.420   8.250
 5221POPC   C3A13445   3.524   7.419   7.950
 5221POPC   C4A13446   3.511   7.442   7.650
 5221POPC   C1B13447   3.626   7.180   8.550
 5221POPC   C2B13448   3.646   7.179   8.250
 5221POPC   C3B13449   3.633   7.223   7.950
 5221POPC   C4B13450   3.691   7.212   7.650
 5222POPC   NC313451  42.345  22.963   9.450
 5222POPC   PO413452  42.380  22.940   9.150
 5222POPC   GL113453  42.336  22.939   8.850
 5222POPC   GL213454  42.257  22.934   8.850
 5222POPC   C1A13455  42.340  22.918   8.550
 5222POPC   D2A13456  42.336  22.937   8.250
 5222POPC   C3A13457  42.360  22.928   7.950
 5222POPC   C4A13458  42.316  22.891   7.650
 5222POPC   C1B13459  42.119  22.964   8.550
 5222POPC   C2B13460  42.057  22.902   8.250
 5222POPC   C3B13461  42.039  22.951   7.950
 5222POPC   C4B13462  42.097  22.979   7.650
 5223POPC   NC313463   8.925  44.678   9.450
 5223POPC   PO413464   8.970  44.638   9.150
 5223POPC   GL113465   9.018  44.649   8.850
 5223POPC   GL213466   9.064  44.549   8.850
 5223POPC   C1A13467   8.934  44.678   8.550
 5223POPC   D2A13468   8.993  44.614   8.250
 5223POPC   C3A13469   9.011  44.674   7.950
 5223POPC   C4A13470   8.996  44.636   7.650
 5223POPC   C1B13471   9.153  44.487   8.550
 5223POPC   C2B13472   9.138  44.485   8.250
 5223POPC   C3B13473   9.189  44.499   7.950
 5223POPC   C4B13474   9.211  44.560   7.650
 5224POPC   NC313475   0.474  25.298   9.450
 5224POPC   PO413476   0.466  25.249   9.150
 5224POPC   GL113477   0.428  25.304   8.850
 5224POPC   GL213478   0.595  25.355   8.850
 5224POPC   C1A13479   0.473  25.242   8.550
 5224POPC   D2A13480   0.399  25.286   8.250
 5224POPC   C3A13481   0.388  25.228   7.950
 5224POPC   C4A13482   0.448  25.288   7.650
 5224POPC   C1B13483   0.643  25.385   8.550
 5224POPC   C2B13484   0.693  25.376   8.250
 5224POPC   C3B13485   0.642  25.418   7.950
 5224POPC   C4B13486   0.708  25.341   7.650
 5225POPC   NC313487   8.217  10.538   9.450
 5225POPC   PO413488   8.240  10.534   9.150
 5225POPC   GL113489   8.154  10.486   8.850
 5225POPC   GL213490   8.131  10.462   8.850
 5225POPC   C1A13491   8.182  10.540   8.550
 5225POPC   D2A13492   8.170  10.525   8.250
 5225POPC   C3A13493   8.206  10.554   7.950
 5225POPC   C4A13494   8.235  10.565   7.650
 5225POPC   C1B13495   7.998  10.398   8.550
 5225POPC   C2B13496   7.978  10.322   8.250
 5225POPC   C3B13497   8.029  10.395   7.950
 5225POPC   C4B13498   7.971  10.405   7.650
 5226POPC   NC313499  39.259  38.470   9.450
 5226POPC   PO413500  39.256  38.431   9.150
 5226POPC   GL113501  39.233  38.505   8.850
 5226POPC   GL213502  39.306  38.407   8.850
 5226POPC   C1A13503  39.200  38.421   8.550
 5226POPC   D2A13504  39.280  38.446   8.250
 5226POPC   C3A13505  39.269  38.476   7.950
 5226POPC   C4A13506  39.259  38.419   7.650
 5226POPC   C1B13507  39.404  38.317   8.550
 5226POPC   C2B13508  39.377  38.274   8.250
 5226POPC   C3B13509  39.402  38.320   7.950
 5226POPC   C4B13510  39.410  38.320   7.650
 5227POPC   NC313511  39.252  33.043   9.450
 5227POPC   PO413512  39.213  32.992   9.150
 5227POPC   GL113513  39.246  33.074   8.850
 5227POPC   GL213514  39.103  33.098   8.850
 5227POPC   C1A13515  39.214  33.059   8.550
 5227POPC   D2A13516  39.274  33.042   8.250
 5227POPC   C3A13517  39.230  33.008   7.950
 5227POPC   C4A13518  39.215  33.050   7.650
 5227POPC   C1B13519  39.045  33.118   8.550
 5227POPC   C2B13520  38.976  33.119   8.250
 5227POPC   C3B13521  38.971  33.069   7.950
 5227POPC   C4B13522  39.039  33.151   7.650
 5228POPC   NC313523  26.802   5.105   9.450
 5228POPC   PO413524  26.856   5.114   9.150
 5228POPC   GL113525  26.855   5.105   8.850
 5228POPC   GL213526  26.962   5.087   8.850
 5228POPC   C1A13527  26.822   5.137   8.550
 5228POPC   D2A13528  26.792   5.057   8.250
 5228POPC   C3A13529  26.836   5.056   7.950
 5228POPC   C4A13530  26.793   5.063   7.650
 5228POPC   C1B13531  27.086   5.131   8.550
 5228POPC   C2B13532  27.093   5.158   8.250
 5228POPC   C3B13533  27.094   5.169   7.950
 5228POPC   C4B13534  27.021   5.141   7.650
 5229POPC   NC313535  15.199   5.900   9.450
 5229POPC   PO413536  15.184   5.895   9.150
 5229POPC   GL113537  15.178   5.894   8.850
 5229POPC   GL213538  15.223   5.981   8.850
 5229POPC   C1A13539  15.138   5.869   8.550
 5229POPC   D2A13540  15.183   5.892   8.250
 5229POPC   C3A13541  15.161   5.871   7.950
 5229POPC   C4A13542  15.152   5.895   7.650
 5229POPC   C1B13543  15.264   6.140   8.550
 5229POPC   C2B13544  15.182   6.136   8.250
 5229POPC   C3B13545  15.244   6.082   7.950
 5229POPC   C4B13546  15.214   6.107   7.650
 5230POPC   NC313547   8.241  39.253   9.450
 5230POPC   PO413548   8.190  39.267   9.150
 5230POPC   GL113549   8.169  39.268   8.850
 5230POPC   GL213550   8.101  39.315   8.850
 5230POPC   C1A13551   8.190  39.181   8.550
 5230POPC   D2A13552   8.238  39.232   8.250
 5230POPC   C3A13553   8.233  39.234   7.950
 5230POPC   C4A13554   8.223  39.230   7.650
 5230POPC   C1B13555   7.952  39.394   8.550
 5230POPC   C2B13556   8.026  39.346   8.250
 5230POPC   C3B13557   7.979  39.319   7.950
 5230POPC   C4B13558   7.981  39.393   7.650
 5231POPC   NC313559   6.616  23.735   9.450
 5231POPC   PO413560   6.681  23.678   9.150
 5231POPC   GL113561   6.616  23.705   8.850
 5231POPC   GL213562   6.773  23.608   8.850
 5231POPC   C1A13563   6.669  23.687   8.550
 5231POPC   D2A13564   6.595  23.712   8.250
 5231POPC   C3A13565   6.690  23.731   7.950
 5231POPC   C4A13566   6.676  23.741   7.650
 5231POPC   C1B13567   6.820  23.584   8.550
 5231POPC   C2B13568   6.813  23.525   8.250
 5231POPC   C3B13569   6.874  23.582   7.950
 5231POPC   C4B13570   6.854  23.605   7.650
 5232POPC   NC313571   3.564  41.555   9.450
 5232POPC   PO413572   3.585  41.541   9.150
 5232POPC   GL113573   3.495  41.541   8.850
 5232POPC   GL213574   3.692  41.574   8.850
 5232POPC   C1A13575   3.522  41.607   8.550
 5232POPC   D2A13576   3.530  41.528   8.250
 5232POPC   C3A13577   3.532  41.554   7.950
 5232POPC   C4A13578   3.560  41.516   7.650
 5232POPC   C1B13579   3.786  41.548   8.550
 5232POPC   C2B13580   3.773  41.493   8.250
 5232POPC   C3B13581   3.785  41.526   7.950
 5232POPC   C4B13582   3.822  41.525   7.650
 5233POPC   NC313583   5.062  29.950   9.450
 5233POPC   PO413584   5.088  29.877   9.150
 5233POPC   GL113585   5.088  29.919   8.850
 5233POPC   GL213586   5.193  29.961   8.850
 5233POPC   C1A13587   5.119  29.959   8.550
 5233POPC   D2A13588   5.118  29.893   8.250
 5233POPC   C3A13589   5.131  29.893   7.950
 5233POPC   C4A13590   5.072  29.875   7.650
 5233POPC   C1B13591   5.357  29.910   8.550
 5233POPC   C2B13592   5.309  29.966   8.250
 5233POPC   C3B13593   5.357  29.974   7.950
 5233POPC   C4B13594   5.311  29.976   7.650
 5234POPC   NC313595  39.249  22.924   9.450
 5234POPC   PO413596  39.235  22.951   9.150
 5234POPC   GL113597  39.224  22.923   8.850
 5234POPC   GL213598  39.264  23.079   8.850
 5234POPC   C1A13599  39.224  22.921   8.550
 5234POPC   D2A13600  39.259  22.917   8.250
 5234POPC   C3A13601  39.230  22.937   7.950
 5234POPC   C4A13602  39.266  22.975   7.650
 5234POPC   C1B13603  39.211  23.202   8.550
 5234POPC   C2B13604  39.188  23.227   8.250
 5234POPC   C3B13605  39.283  23.146   7.950
 5234POPC   C4B13606  39.201  23.193   7.650
 5235POPC   NC313607  24.480  25.307   9.450
 5235POPC   PO413608  24.484  25.295   9.150
 5235POPC   GL113609  24.460  25.274   8.850
 5235POPC   GL213610  24.365  25.277   8.850
 5235POPC   C1A13611  24.462  25.284   8.550
 5235POPC   D2A13612  24.498  25.306   8.250
 5235POPC   C3A13613  24.471  25.227   7.950
 5235POPC   C4A13614  24.517  25.221   7.650
 5235POPC   C1B13615  24.270  25.224   8.550
 5235POPC   C2B13616  24.249  25.254   8.250
 5235POPC   C3B13617  24.287  25.182   7.950
 5235POPC   C4B13618  24.266  25.188   7.650
 5236POPC   NC313619  33.020  34.597   9.450
 5236POPC   PO413620  33.030  34.617   9.150
 5236POPC   GL113621  32.986  34.542   8.850
 5236POPC   GL213622  32.927  34.637   8.850
 5236POPC   C1A13623  33.026  34.550   8.550
 5236POPC   D2A13624  33.018  34.561   8.250
 5236POPC   C3A13625  33.028  34.548   7.950
 5236POPC   C4A13626  33.012  34.551   7.650
 5236POPC   C1B13627  32.806  34.651   8.550
 5236POPC   C2B13628  32.836  34.710   8.250
 5236POPC   C3B13629  32.833  34.703   7.950
 5236POPC   C4B13630  32.805  34.709   7.650
 5237POPC   NC313631  30.670  26.044   9.450
 5237POPC   PO413632  30.710  26.003   9.150
 5237POPC   GL113633  30.705  26.015   8.850
 5237POPC   GL213634  30.625  26.158   8.850
 5237POPC   C1A13635  30.653  26.003   8.550
 5237POPC   D2A13636  30.679  26.003   8.250
 5237POPC   C3A13637  30.687  25.995   7.950
 5237POPC   C4A13638  30.682  26.039   7.650
 5237POPC   C1B13639  30.633  26.276   8.550
 5237POPC   C2B13640  30.647  26.291   8.250
 5237POPC   C3B13641  30.623  26.325   7.950
 5237POPC   C4B13642  30.642  26.317   7.650
 5238POPC   NC313643   9.776  21.384   9.450
 5238POPC   PO413644   9.763  21.342   9.150
 5238POPC   GL113645   9.759  21.435   8.850
 5238POPC   GL213646   9.909  21.381   8.850
 5238POPC   C1A13647   9.723  21.367   8.550
 5238POPC   D2A13648   9.797  21.413   8.250
 5238POPC   C3A13649   9.784  21.342   7.950
 5238POPC   C4A13650   9.720  21.425   7.650
 5238POPC   C1B13651  10.031  21.358   8.550
 5238POPC   C2B13652  10.018  21.361   8.250
 5238POPC   C3B13653  10.011  21.349   7.950
 5238POPC   C4B13654   9.971  21.371   7.650
 5239POPC   NC313655  12.080   9.738   9.450
 5239POPC   PO413656  12.103   9.701   9.150
 5239POPC   GL113657  12.057   9.725   8.850
 5239POPC   GL213658  11.948   9.761   8.850
 5239POPC   C1A13659  12.087   9.789   8.550
 5239POPC   D2A13660  12.071   9.729   8.250
 5239POPC   C3A13661  12.055   9.793   7.950
 5239POPC   C4A13662  12.062   9.767   7.650
 5239POPC   C1B13663  11.859   9.843   8.550
 5239POPC   C2B13664  11.802   9.850   8.250
 5239POPC   C3B13665  11.867   9.820   7.950
 5239POPC   C4B13666  11.861   9.793   7.650
 5240POPC   NC313667  36.111  29.871   9.450
 5240POPC   PO413668  36.151  29.956   9.150
 5240POPC   GL113669  36.112  29.964   8.850
 5240POPC   GL213670  36.106  30.091   8.850
 5240POPC   C1A13671  36.087  29.955   8.550
 5240POPC   D2A13672  36.087  29.943   8.250
 5240POPC   C3A13673  36.122  29.924   7.950
 5240POPC   C4A13674  36.094  29.950   7.650
 5240POPC   C1B13675  36.154  30.155   8.550
 5240POPC   C2B13676  36.064  30.208   8.250
 5240POPC   C3B13677  36.097  30.206   7.950
 5240POPC   C4B13678  36.101  30.128   7.650
 5241POPC   NC313679  24.521  33.838   9.450
 5241POPC   PO413680  24.479  33.844   9.150
 5241POPC   GL113681  24.444  33.754   8.850
 5241POPC   GL213682  24.565  33.799   8.850
 5241POPC   C1A13683  24.475  33.809   8.550
 5241POPC   D2A13684  24.539  33.809   8.250
 5241POPC   C3A13685  24.485  33.765   7.950
 5241POPC   C4A13686  24.534  33.753   7.650
 5241POPC   C1B13687  24.725  33.844   8.550
 5241POPC   C2B13688  24.784  33.886   8.250
 5241POPC   C3B13689  24.770  33.811   7.950
 5241POPC   C4B13690  24.723  33.868   7.650
 5242POPC   NC313691  30.677   2.027   9.450
 5242POPC   PO413692  30.681   1.954   9.150
 5242POPC   GL113693  30.667   2.040   8.850
 5242POPC   GL213694  30.607   1.909   8.850
 5242POPC   C1A13695  30.735   2.007   8.550
 5242POPC   D2A13696  30.706   1.967   8.250
 5242POPC   C3A13697  30.657   2.013   7.950
 5242POPC   C4A13698  30.685   1.994   7.650
 5242POPC   C1B13699  30.567   1.823   8.550
 5242POPC   C2B13700  30.535   1.798   8.250
 5242POPC   C3B13701  30.488   1.845   7.950
 5242POPC   C4B13702  30.481   1.820   7.650
 5243POPC   NC313703   7.467  19.868   9.450
 5243POPC   PO413704   7.430  19.830   9.150
 5243POPC   GL113705   7.422  19.862   8.850
 5243POPC   GL213706   7.382  19.767   8.850
 5243POPC   C1A13707   7.439  19.842   8.550
 5243POPC   D2A13708   7.445  19.862   8.250
 5243POPC   C3A13709   7.457  19.827   7.950
 5243POPC   C4A13710   7.458  19.842   7.650
 5243POPC   C1B13711   7.222  19.611   8.550
 5243POPC   C2B13712   7.304  19.683   8.250
 5243POPC   C3B13713   7.301  19.601   7.950
 5243POPC   C4B13714   7.212  19.667   7.650
 5244POPC   NC313715  41.564  36.164   9.450
 5244POPC   PO413716  41.543  36.172   9.150
 5244POPC   GL113717  41.578  36.162   8.850
 5244POPC   GL213718  41.539  36.018   8.850
 5244POPC   C1A13719  41.514  36.116   8.550
 5244POPC   D2A13720  41.541  36.171   8.250
 5244POPC   C3A13721  41.551  36.142   7.950
 5244POPC   C4A13722  41.585  36.115   7.650
 5244POPC   C1B13723  41.484  35.866   8.550
 5244POPC   C2B13724  41.467  35.934   8.250
 5244POPC   C3B13725  41.536  35.865   7.950
 5244POPC   C4B13726  41.519  35.846   7.650
 5245POPC   NC313727  29.179  37.643   9.450
 5245POPC   PO413728  29.135  37.636   9.150
 5245POPC   GL113729  29.114  37.647   8.850
 5245POPC   GL213730  29.230  37.573   8.850
 5245POPC   C1A13731  29.118  37.664   8.550
 5245POPC   D2A13732  29.164  37.715   8.250
 5245POPC   C3A13733  29.143  37.667   7.950
 5245POPC   C4A13734  29.138  37.632   7.650
 5245POPC   C1B13735  29.381  37.522   8.550
 5245POPC   C2B13736  29.376  37.494   8.250
 5245POPC   C3B13737  29.334  37.511   7.950
 5245POPC   C4B13738  29.337  37.553   7.650
 5246POPC   NC313739  15.928  29.171   9.450
 5246POPC   PO413740  15.961  29.142   9.150
 5246POPC   GL113741  15.907  29.125   8.850
 5246POPC   GL213742  16.093  29.245   8.850
 5246POPC   C1A13743  15.986  29.135   8.550
 5246POPC   D2A13744  15.973  29.137   8.250
 5246POPC   C3A13745  15.913  29.101   7.950
 5246POPC   C4A13746  16.002  29.175   7.650
 5246POPC   C1B13747  16.195  29.334   8.550
 5246POPC   C2B13748  16.136  29.267   8.250
 5246POPC   C3B13749  16.161  29.308   7.950
 5246POPC   C4B13750  16.176  29.318   7.650
 5247POPC   NC313751   5.856   2.773   9.450
 5247POPC   PO413752   5.859   2.769   9.150
 5247POPC   GL113753   5.891   2.781   8.850
 5247POPC   GL213754   5.797   2.739   8.850
 5247POPC   C1A13755   5.862   2.804   8.550
 5247POPC   D2A13756   5.865   2.720   8.250
 5247POPC   C3A13757   5.905   2.791   7.950
 5247POPC   C4A13758   5.839   2.809   7.650
 5247POPC   C1B13759   5.617   2.671   8.550
 5247POPC   C2B13760   5.639   2.615   8.250
 5247POPC   C3B13761   5.625   2.680   7.950
 5247POPC   C4B13762   5.599   2.683   7.650
 5248POPC   NC313763  40.007  11.326   9.450
 5248POPC   PO413764  39.959  11.254   9.150
 5248POPC   GL113765  39.963  11.257   8.850
 5248POPC   GL213766  40.027  11.465   8.850
 5248POPC   C1A13767  40.025  11.313   8.550
 5248POPC   D2A13768  40.028  11.263   8.250
 5248POPC   C3A13769  39.999  11.290   7.950
 5248POPC   C4A13770  39.965  11.336   7.650
 5248POPC   C1B13771  40.033  11.587   8.550
 5248POPC   C2B13772  40.024  11.530   8.250
 5248POPC   C3B13773  40.059  11.559   7.950
 5248POPC   C4B13774  39.979  11.584   7.650
 5249POPC   NC313775  22.928  24.532   9.450
 5249POPC   PO413776  22.950  24.468   9.150
 5249POPC   GL113777  22.969  24.470   8.850
 5249POPC   GL213778  22.863  24.547   8.850
 5249POPC   C1A13779  22.929  24.517   8.550
 5249POPC   D2A13780  22.912  24.451   8.250
 5249POPC   C3A13781  22.974  24.511   7.950
 5249POPC   C4A13782  22.987  24.499   7.650
 5249POPC   C1B13783  22.795  24.639   8.550
 5249POPC   C2B13784  22.739  24.642   8.250
 5249POPC   C3B13785  22.794  24.675   7.950
 5249POPC   C4B13786  22.765  24.634   7.650
 5250POPC   NC313787  15.909  12.040   9.450
 5250POPC   PO413788  15.961  12.113   9.150
 5250POPC   GL113789  15.926  12.115   8.850
 5250POPC   GL213790  15.970  12.152   8.850
 5250POPC   C1A13791  15.983  12.035   8.550
 5250POPC   D2A13792  15.940  12.064   8.250
 5250POPC   C3A13793  15.912  12.051   7.950
 5250POPC   C4A13794  15.915  12.088   7.650
 5250POPC   C1B13795  15.930  12.359   8.550
 5250POPC   C2B13796  15.858  12.359   8.250
 5250POPC   C3B13797  15.858  12.292   7.950
 5250POPC   C4B13798  15.907  12.343   7.650
 5251POPC   NC313799  37.702  43.117   9.450
 5251POPC   PO413800  37.686  43.133   9.150
 5251POPC   GL113801  37.662  43.145   8.850
 5251POPC   GL213802  37.603  43.019   8.850
 5251POPC   C1A13803  37.638  43.137   8.550
 5251POPC   D2A13804  37.649  43.130   8.250
 5251POPC   C3A13805  37.653  43.102   7.950
 5251POPC   C4A13806  37.633  43.073   7.650
 5251POPC   C1B13807  37.510  43.003   8.550
 5251POPC   C2B13808  37.459  42.996   8.250
 5251POPC   C3B13809  37.446  42.959   7.950
 5251POPC   C4B13810  37.466  42.989   7.650
 5252POPC   NC313811  12.046  26.776   9.450
 5252POPC   PO413812  12.068  26.826   9.150
 5252POPC   GL113813  12.078  26.866   8.850
 5252POPC   GL213814  12.054  26.969   8.850
 5252POPC   C1A13815  12.039  26.783   8.550
 5252POPC   D2A13816  12.080  26.864   8.250
 5252POPC   C3A13817  12.051  26.789   7.950
 5252POPC   C4A13818  12.079  26.844   7.650
 5252POPC   C1B13819  12.065  27.090   8.550
 5252POPC   C2B13820  12.053  27.030   8.250
 5252POPC   C3B13821  12.103  27.113   7.950
 5252POPC   C4B13822  12.084  27.059   7.650
 5253POPC   NC313823  12.088  41.604   9.450
 5253POPC   PO413824  12.113  41.515   9.150
 5253POPC   GL113825  12.083  41.591   8.850
 5253POPC   GL213826  12.125  41.476   8.850
 5253POPC   C1A13827  12.055  41.604   8.550
 5253POPC   D2A13828  12.099  41.551   8.250
 5253POPC   C3A13829  12.102  41.608   7.950
 5253POPC   C4A13830  12.039  41.538   7.650
 5253POPC   C1B13831  12.272  41.359   8.550
 5253POPC   C2B13832  12.256  41.444   8.250
 5253POPC   C3B13833  12.319  41.366   7.950
 5253POPC   C4B13834  12.236  41.450   7.650
 5254POPC   NC313835  14.369  23.712   9.450
 5254POPC   PO413836  14.380  23.728   9.150
 5254POPC   GL113837  14.433  23.731   8.850
 5254POPC   GL213838  14.328  23.650   8.850
 5254POPC   C1A13839  14.444  23.677   8.550
 5254POPC   D2A13840  14.381  23.696   8.250
 5254POPC   C3A13841  14.358  23.700   7.950
 5254POPC   C4A13842  14.444  23.667   7.650
 5254POPC   C1B13843  14.207  23.586   8.550
 5254POPC   C2B13844  14.206  23.574   8.250
 5254POPC   C3B13845  14.224  23.506   7.950
 5254POPC   C4B13846  14.176  23.563   7.650
 5255POPC   NC313847  12.872  26.820   9.450
 5255POPC   PO413848  12.869  26.775   9.150
 5255POPC   GL113849  12.858  26.796   8.850
 5255POPC   GL213850  12.877  26.716   8.850
 5255POPC   C1A13851  12.852  26.860   8.550
 5255POPC   D2A13852  12.901  26.809   8.250
 5255POPC   C3A13853  12.818  26.838   7.950
 5255POPC   C4A13854  12.835  26.815   7.650
 5255POPC   C1B13855  12.829  26.614   8.550
 5255POPC   C2B13856  12.841  26.590   8.250
 5255POPC   C3B13857  12.849  26.553   7.950
 5255POPC   C4B13858  12.777  26.582   7.650
 5256POPC   NC313859  43.091  15.203   9.450
 5256POPC   PO413860  43.157  15.130   9.150
 5256POPC   GL113861  43.084  15.228   8.850
 5256POPC   GL213862  43.053  15.072   8.850
 5256POPC   C1A13863  43.158  15.189   8.550
 5256POPC   D2A13864  43.069  15.153   8.250
 5256POPC   C3A13865  43.080  15.182   7.950
 5256POPC   C4A13866  43.091  15.154   7.650
 5256POPC   C1B13867  42.930  14.954   8.550
 5256POPC   C2B13868  42.928  14.978   8.250
 5256POPC   C3B13869  42.970  15.015   7.950
 5256POPC   C4B13870  42.945  14.949   7.650
 5257POPC   NC313871  27.559  12.052   9.450
 5257POPC   PO413872  27.588  12.106   9.150
 5257POPC   GL113873  27.547  12.099   8.850
 5257POPC   GL213874  27.512  12.079   8.850
 5257POPC   C1A13875  27.621  12.123   8.550
 5257POPC   D2A13876  27.604  12.116   8.250
 5257POPC   C3A13877  27.599  12.041   7.950
 5257POPC   C4A13878  27.630  12.094   7.650
 5257POPC   C1B13879  27.338  12.027   8.550
 5257POPC   C2B13880  27.304  12.078   8.250
 5257POPC   C3B13881  27.362  12.032   7.950
 5257POPC   C4B13882  27.315  12.014   7.650
 5258POPC   NC313883  38.413  43.159   9.450
 5258POPC   PO413884  38.415  43.149   9.150
 5258POPC   GL113885  38.474  43.096   8.850
 5258POPC   GL213886  38.400  42.958   8.850
 5258POPC   C1A13887  38.443  43.136   8.550
 5258POPC   D2A13888  38.419  43.094   8.250
 5258POPC   C3A13889  38.473  43.096   7.950
 5258POPC   C4A13890  38.478  43.111   7.650
 5258POPC   C1B13891  38.487  42.858   8.550
 5258POPC   C2B13892  38.483  42.904   8.250
 5258POPC   C3B13893  38.398  42.910   7.950
 5258POPC   C4B13894  38.461  42.865   7.650
 5259POPC   NC313895  33.789  43.920   9.450
 5259POPC   PO413896  33.788  43.933   9.150
 5259POPC   GL113897  33.823  43.866   8.850
 5259POPC   GL213898  33.666  43.803   8.850
 5259POPC   C1A13899  33.846  43.865   8.550
 5259POPC   D2A13900  33.789  43.919   8.250
 5259POPC   C3A13901  33.761  43.885   7.950
 5259POPC   C4A13902  33.780  43.857   7.650
 5259POPC   C1B13903  33.613  43.670   8.550
 5259POPC   C2B13904  33.647  43.727   8.250
 5259POPC   C3B13905  33.601  43.743   7.950
 5259POPC   C4B13906  33.653  43.753   7.650
 5260POPC   NC313907  36.094  12.861   9.450
 5260POPC   PO413908  36.082  12.847   9.150
 5260POPC   GL113909  36.118  12.813   8.850
 5260POPC   GL213910  36.023  12.841   8.850
 5260POPC   C1A13911  36.150  12.894   8.550
 5260POPC   D2A13912  36.157  12.855   8.250
 5260POPC   C3A13913  36.157  12.873   7.950
 5260POPC   C4A13914  36.132  12.829   7.650
 5260POPC   C1B13915  35.906  12.773   8.550
 5260POPC   C2B13916  35.887  12.729   8.250
 5260POPC   C3B13917  35.875  12.720   7.950
 5260POPC   C4B13918  35.927  12.767   7.650
 5261POPC   NC313919  41.512  12.065   9.450
 5261POPC   PO413920  41.519  12.069   9.150
 5261POPC   GL113921  41.544  12.087   8.850
 5261POPC   GL213922  41.637  11.938   8.850
 5261POPC   C1A13923  41.599  12.094   8.550
 5261POPC   D2A13924  41.543  12.051   8.250
 5261POPC   C3A13925  41.555  12.075   7.950
 5261POPC   C4A13926  41.593  12.088   7.650
 5261POPC   C1B13927  41.634  11.829   8.550
 5261POPC   C2B13928  41.614  11.860   8.250
 5261POPC   C3B13929  41.653  11.810   7.950
 5261POPC   C4B13930  41.641  11.807   7.650
 5262POPC   NC313931  25.312  22.142   9.450
 5262POPC   PO413932  25.230  22.194   9.150
 5262POPC   GL113933  25.299  22.154   8.850
 5262POPC   GL213934  25.323  22.242   8.850
 5262POPC   C1A13935  25.219  22.198   8.550
 5262POPC   D2A13936  25.296  22.183   8.250
 5262POPC   C3A13937  25.254  22.163   7.950
 5262POPC   C4A13938  25.299  22.161   7.650
 5262POPC   C1B13939  25.327  22.422   8.550
 5262POPC   C2B13940  25.315  22.396   8.250
 5262POPC   C3B13941  25.352  22.380   7.950
 5262POPC   C4B13942  25.300  22.378   7.650
 5263POPC   NC313943  43.911  40.793   9.450
 5263POPC   PO413944  43.845  40.815   9.150
 5263POPC   GL113945  43.920  40.760   8.850
 5263POPC   GL213946  43.901  40.945   8.850
 5263POPC   C1A13947  43.912  40.822   8.550
 5263POPC   D2A13948  43.866  40.790   8.250
 5263POPC   C3A13949  43.894  40.793   7.950
 5263POPC   C4A13950  43.911  40.767   7.650
 5263POPC   C1B13951  43.780  41.010   8.550
 5263POPC   C2B13952  43.801  41.004   8.250
 5263POPC   C3B13953  43.842  41.076   7.950
 5263POPC   C4B13954  43.817  41.031   7.650
 5264POPC   NC313955  32.222   1.207   9.450
 5264POPC   PO413956  32.257   1.224   9.150
 5264POPC   GL113957  32.238   1.164   8.850
 5264POPC   GL213958  32.299   1.121   8.850
 5264POPC   C1A13959  32.228   1.165   8.550
 5264POPC   D2A13960  32.272   1.225   8.250
 5264POPC   C3A13961  32.251   1.262   7.950
 5264POPC   C4A13962  32.235   1.219   7.650
 5264POPC   C1B13963  32.365   0.996   8.550
 5264POPC   C2B13964  32.376   1.041   8.250
 5264POPC   C3B13965  32.445   1.002   7.950
 5264POPC   C4B13966  32.409   1.005   7.650
 5265POPC   NC313967  26.074  43.861   9.450
 5265POPC   PO413968  25.995  43.932   9.150
 5265POPC   GL113969  25.995  43.909   8.850
 5265POPC   GL213970  25.999  44.058   8.850
 5265POPC   C1A13971  26.037  43.926   8.550
 5265POPC   D2A13972  26.077  43.930   8.250
 5265POPC   C3A13973  26.016  43.912   7.950
 5265POPC   C4A13974  25.992  43.846   7.650
 5265POPC   C1B13975  26.025  44.168   8.550
 5265POPC   C2B13976  26.094  44.097   8.250
 5265POPC   C3B13977  26.053  44.181   7.950
 5265POPC   C4B13978  26.009  44.089   7.650
 5266POPC   NC313979  20.563  20.567   9.450
 5266POPC   PO413980  20.615  20.576   9.150
 5266POPC   GL113981  20.653  20.640   8.850
 5266POPC   GL213982  20.507  20.504   8.850
 5266POPC   C1A13983  20.612  20.598   8.550
 5266POPC   D2A13984  20.597  20.656   8.250
 5266POPC   C3A13985  20.568  20.658   7.950
 5266POPC   C4A13986  20.583  20.606   7.650
 5266POPC   C1B13987  20.428  20.463   8.550
 5266POPC   C2B13988  20.435  20.440   8.250
 5266POPC   C3B13989  20.456  20.417   7.950
 5266POPC   C4B13990  20.391  20.382   7.650
 5267POPC   NC313991  14.383  40.023   9.450
 5267POPC   PO413992  14.427  39.976   9.150
 5267POPC   GL113993  14.361  40.053   8.850
 5267POPC   GL213994  14.479  40.128   8.850
 5267POPC   C1A13995  14.377  40.041   8.550
 5267POPC   D2A13996  14.368  39.957   8.250
 5267POPC   C3A13997  14.413  40.024   7.950
 5267POPC   C4A13998  14.418  39.973   7.650
 5267POPC   C1B13999  14.423  40.220   8.550
 5267POPC   C2B14000  14.496  40.296   8.250
 5267POPC   C3B14001  14.465  40.281   7.950
 5267POPC   C4B14002  14.510  40.216   7.650
 5268POPC   NC314003  11.273  34.536   9.450
 5268POPC   PO414004  11.329  34.613   9.150
 5268POPC   GL114005  11.334  34.617   8.850
 5268POPC   GL214006  11.296  34.738   8.850
 5268POPC   C1A14007  11.312  34.571   8.550
 5268POPC   D2A14008  11.316  34.567   8.250
 5268POPC   C3A14009  11.295  34.535   7.950
 5268POPC   C4A14010  11.335  34.552   7.650
 5268POPC   C1B14011  11.257  34.827   8.550
 5268POPC   C2B14012  11.282  34.841   8.250
 5268POPC   C3B14013  11.263  34.833   7.950
 5268POPC   C4B14014  11.222  34.815   7.650
 5269POPC   NC314015  26.053  15.158   9.450
 5269POPC   PO414016  26.033  15.196   9.150
 5269POPC   GL114017  26.015  15.225   8.850
 5269POPC   GL214018  25.964  15.050   8.850
 5269POPC   C1A14019  25.999  15.133   8.550
 5269POPC   D2A14020  26.075  15.169   8.250
 5269POPC   C3A14021  26.067  15.189   7.950
 5269POPC   C4A14022  26.064  15.144   7.650
 5269POPC   C1B14023  25.933  14.918   8.550
 5269POPC   C2B14024  25.985  14.984   8.250
 5269POPC   C3B14025  25.892  14.911   7.950
 5269POPC   C4B14026  25.900  15.001   7.650
 5270POPC   NC314027  28.413  19.837   9.450
 5270POPC   PO414028  28.336  19.822   9.150
 5270POPC   GL114029  28.331  19.793   8.850
 5270POPC   GL214030  28.310  19.675   8.850
 5270POPC   C1A14031  28.366  19.878   8.550
 5270POPC   D2A14032  28.324  19.868   8.250
 5270POPC   C3A14033  28.353  19.803   7.950
 5270POPC   C4A14034  28.332  19.848   7.650
 5270POPC   C1B14035  28.343  19.629   8.550
 5270POPC   C2B14036  28.274  19.622   8.250
 5270POPC   C3B14037  28.357  19.543   7.950
 5270POPC   C4B14038  28.287  19.632   7.650
 5271POPC   NC314039   8.188   1.961   9.450
 5271POPC   PO414040   8.225   1.944   9.150
 5271POPC   GL114041   8.232   1.955   8.850
 5271POPC   GL214042   8.212   2.089   8.850
 5271POPC   C1A14043   8.172   1.996   8.550
 5271POPC   D2A14044   8.230   2.025   8.250
 5271POPC   C3A14045   8.198   1.944   7.950
 5271POPC   C4A14046   8.240   1.965   7.650
 5271POPC   C1B14047   8.186   2.231   8.550
 5271POPC   C2B14048   8.206   2.224   8.250
 5271POPC   C3B14049   8.240   2.270   7.950
 5271POPC   C4B14050   8.217   2.193   7.650
 5272POPC   NC314051   4.309  17.492   9.450
 5272POPC   PO414052   4.292  17.475   9.150
 5272POPC   GL114053   4.311  17.474   8.850
 5272POPC   GL214054   4.429  17.447   8.850
 5272POPC   C1A14055   4.271  17.540   8.550
 5272POPC   D2A14056   4.277  17.544   8.250
 5272POPC   C3A14057   4.344  17.506   7.950
 5272POPC   C4A14058   4.300  17.498   7.650
 5272POPC   C1B14059   4.568  17.418   8.550
 5272POPC   C2B14060   4.591  17.433   8.250
 5272POPC   C3B14061   4.535  17.498   7.950
 5272POPC   C4B14062   4.584  17.490   7.650
 5273POPC   NC314063  16.702  29.968   9.450
 5273POPC   PO414064  16.752  29.872   9.150
 5273POPC   GL114065  16.768  29.909   8.850
 5273POPC   GL214066  16.588  29.850   8.850
 5273POPC   C1A14067  16.768  29.928   8.550
 5273POPC   D2A14068  16.734  29.938   8.250
 5273POPC   C3A14069  16.752  29.896   7.950
 5273POPC   C4A14070  16.771  29.890   7.650
 5273POPC   C1B14071  16.452  29.863   8.550
 5273POPC   C2B14072  16.483  29.891   8.250
 5273POPC   C3B14073  16.505  29.880   7.950
 5273POPC   C4B14074  16.466  29.872   7.650
 5274POPC   NC314075  15.152  34.549   9.450
 5274POPC   PO414076  15.228  34.590   9.150
 5274POPC   GL114077  15.150  34.596   8.850
 5274POPC   GL214078  15.260  34.467   8.850
 5274POPC   C1A14079  15.227  34.560   8.550
 5274POPC   D2A14080  15.176  34.601   8.250
 5274POPC   C3A14081  15.206  34.585   7.950
 5274POPC   C4A14082  15.179  34.529   7.650
 5274POPC   C1B14083  15.247  34.345   8.550
 5274POPC   C2B14084  15.295  34.383   8.250
 5274POPC   C3B14085  15.275  34.393   7.950
 5274POPC   C4B14086  15.228  34.365   7.650
 5275POPC   NC314087   4.299  31.434   9.450
 5275POPC   PO414088   4.356  31.489   9.150
 5275POPC   GL114089   4.352  31.431   8.850
 5275POPC   GL214090   4.227  31.412   8.850
 5275POPC   C1A14091   4.330  31.449   8.550
 5275POPC   D2A14092   4.318  31.437   8.250
 5275POPC   C3A14093   4.274  31.436   7.950
 5275POPC   C4A14094   4.364  31.434   7.650
 5275POPC   C1B14095   4.095  31.363   8.550
 5275POPC   C2B14096   4.118  31.400   8.250
 5275POPC   C3B14097   4.128  31.327   7.950
 5275POPC   C4B14098   4.059  31.338   7.650
 5276POPC   NC314099  11.289  30.676   9.450
 5276POPC   PO414100  11.300  30.732   9.150
 5276POPC   GL114101  11.304  30.711   8.850
 5276POPC   GL214102  11.199  30.659   8.850
 5276POPC   C1A14103  11.282  30.723   8.550
 5276POPC   D2A14104  11.254  30.722   8.250
 5276POPC   C3A14105  11.333  30.711   7.950
 5276POPC   C4A14106  11.256  30.676   7.650
 5276POPC   C1B14107  11.058  30.708   8.550
 5276POPC   C2B14108  11.035  30.699   8.250
 5276POPC   C3B14109  11.001  30.704   7.950
 5276POPC   C4B14110  11.065  30.663   7.650
 5277POPC   NC314111  38.484   8.958   9.450
 5277POPC   PO414112  38.434   8.954   9.150
 5277POPC   GL114113  38.448   9.021   8.850
 5277POPC   GL214114  38.540   8.859   8.850
 5277POPC   C1A14115  38.406   8.988   8.550
 5277POPC   D2A14116  38.494   9.019   8.250
 5277POPC   C3A14117  38.497   9.004   7.950
 5277POPC   C4A14118  38.465   8.964   7.650
 5277POPC   C1B14119  38.565   8.802   8.550
 5277POPC   C2B14120  38.603   8.751   8.250
 5277POPC   C3B14121  38.587   8.793   7.950
 5277POPC   C4B14122  38.611   8.736   7.650
 5278POPC   NC314123  29.110  24.505   9.450
 5278POPC   PO414124  29.138  24.519   9.150
 5278POPC   GL114125  29.174  24.455   8.850
 5278POPC   GL214126  29.060  24.451   8.850
 5278POPC   C1A14127  29.102  24.529   8.550
 5278POPC   D2A14128  29.166  24.482   8.250
 5278POPC   C3A14129  29.162  24.520   7.950
 5278POPC   C4A14130  29.096  24.481   7.650
 5278POPC   C1B14131  29.001  24.359   8.550
 5278POPC   C2B14132  28.986  24.316   8.250
 5278POPC   C3B14133  29.008  24.298   7.950
 5278POPC   C4B14134  28.986  24.308   7.650
 5279POPC   NC314135  38.500  24.466   9.450
 5279POPC   PO414136  38.453  24.496   9.150
 5279POPC   GL114137  38.475  24.520   8.850
 5279POPC   GL214138  38.403  24.617   8.850
 5279POPC   C1A14139  38.444  24.462   8.550
 5279POPC   D2A14140  38.411  24.512   8.250
 5279POPC   C3A14141  38.502  24.481   7.950
 5279POPC   C4A14142  38.472  24.524   7.650
 5279POPC   C1B14143  38.332  24.727   8.550
 5279POPC   C2B14144  38.372  24.729   8.250
 5279POPC   C3B14145  38.362  24.763   7.950
 5279POPC   C4B14146  38.368  24.714   7.650
 5280POPC   NC314147   2.749  26.089   9.450
 5280POPC   PO414148   2.738  26.060   9.150
 5280POPC   GL114149   2.728  26.073   8.850
 5280POPC   GL214150   2.684  25.994   8.850
 5280POPC   C1A14151   2.809  26.001   8.550
 5280POPC   D2A14152   2.788  25.997   8.250
 5280POPC   C3A14153   2.759  26.051   7.950
 5280POPC   C4A14154   2.814  26.082   7.650
 5280POPC   C1B14155   2.593  25.862   8.550
 5280POPC   C2B14156   2.524  25.872   8.250
 5280POPC   C3B14157   2.559  25.938   7.950
 5280POPC   C4B14158   2.520  25.861   7.650
 5281POPC   NC314159  12.102  37.643   9.450
 5281POPC   PO414160  12.104  37.663   9.150
 5281POPC   GL114161  12.082  37.696   8.850
 5281POPC   GL214162  12.170  37.711   8.850
 5281POPC   C1A14163  12.049  37.705   8.550
 5281POPC   D2A14164  12.045  37.694   8.250
 5281POPC   C3A14165  12.073  37.631   7.950
 5281POPC   C4A14166  12.111  37.663   7.650
 5281POPC   C1B14167  12.255  37.773   8.550
 5281POPC   C2B14168  12.250  37.824   8.250
 5281POPC   C3B14169  12.298  37.829   7.950
 5281POPC   C4B14170  12.246  37.821   7.650
 5282POPC   NC314171   3.567  43.895   9.450
 5282POPC   PO414172   3.507  43.894   9.150
 5282POPC   GL114173   3.513  43.889   8.850
 5282POPC   GL214174   3.589  44.050   8.850
 5282POPC   C1A14175   3.570  43.877   8.550
 5282POPC   D2A14176   3.537  43.883   8.250
 5282POPC   C3A14177   3.552  43.873   7.950
 5282POPC   C4A14178   3.566  43.853   7.650
 5282POPC   C1B14179   3.629  44.159   8.550
 5282POPC   C2B14180   3.616  44.082   8.250
 5282POPC   C3B14181   3.650  44.079   7.950
 5282POPC   C4B14182   3.675  44.080   7.650
 5283POPC   NC314183   9.703  25.286   9.450
 5283POPC   PO414184   9.724  25.308   9.150
 5283POPC   GL114185   9.749  25.243   8.850
 5283POPC   GL214186   9.815  25.137   8.850
 5283POPC   C1A14187   9.783  25.226   8.550
 5283POPC   D2A14188   9.760  25.278   8.250
 5283POPC   C3A14189   9.776  25.272   7.950
 5283POPC   C4A14190   9.794  25.260   7.650
 5283POPC   C1B14191   9.818  25.053   8.550
 5283POPC   C2B14192   9.804  25.017   8.250
 5283POPC   C3B14193   9.836  25.030   7.950
 5283POPC   C4B14194   9.776  24.976   7.650
 5284POPC   NC314195  32.225   6.692   9.450
 5284POPC   PO414196  32.243   6.608   9.150
 5284POPC   GL114197  32.230   6.633   8.850
 5284POPC   GL214198  32.342   6.702   8.850
 5284POPC   C1A14199  32.274   6.634   8.550
 5284POPC   D2A14200  32.263   6.618   8.250
 5284POPC   C3A14201  32.239   6.673   7.950
 5284POPC   C4A14202  32.292   6.601   7.650
 5284POPC   C1B14203  32.459   6.800   8.550
 5284POPC   C2B14204  32.407   6.795   8.250
 5284POPC   C3B14205  32.431   6.815   7.950
 5284POPC   C4B14206  32.415   6.825   7.650
 5285POPC   NC314207  17.458   6.633   9.450
 5285POPC   PO414208  17.461   6.611   9.150
 5285POPC   GL114209  17.525   6.630   8.850
 5285POPC   GL214210  17.495   6.549   8.850
 5285POPC   C1A14211  17.476   6.647   8.550
 5285POPC   D2A14212  17.556   6.633   8.250
 5285POPC   C3A14213  17.542   6.603   7.950
 5285POPC   C4A14214  17.500   6.689   7.650
 5285POPC   C1B14215  17.497   6.387   8.550
 5285POPC   C2B14216  17.455   6.395   8.250
 5285POPC   C3B14217  17.462   6.433   7.950
 5285POPC   C4B14218  17.490   6.402   7.650
 5286POPC   NC314219  26.820  31.519   9.450
 5286POPC   PO414220  26.861  31.488   9.150
 5286POPC   GL114221  26.820  31.430   8.850
 5286POPC   GL214222  26.774  31.609   8.850
 5286POPC   C1A14223  26.778  31.487   8.550
 5286POPC   D2A14224  26.806  31.442   8.250
 5286POPC   C3A14225  26.774  31.509   7.950
 5286POPC   C4A14226  26.774  31.453   7.650
 5286POPC   C1B14227  26.687  31.669   8.550
 5286POPC   C2B14228  26.676  31.659   8.250
 5286POPC   C3B14229  26.683  31.662   7.950
 5286POPC   C4B14230  26.701  31.678   7.650
 5287POPC   NC314231  14.365  17.530   9.450
 5287POPC   PO414232  14.414  17.550   9.150
 5287POPC   GL114233  14.418  17.495   8.850
 5287POPC   GL214234  14.384  17.621   8.850
 5287POPC   C1A14235  14.437  17.481   8.550
 5287POPC   D2A14236  14.384  17.544   8.250
 5287POPC   C3A14237  14.429  17.522   7.950
 5287POPC   C4A14238  14.439  17.539   7.650
 5287POPC   C1B14239  14.372  17.775   8.550
 5287POPC   C2B14240  14.320  17.731   8.250
 5287POPC   C3B14241  14.342  17.732   7.950
 5287POPC   C4B14242  14.294  17.717   7.650
 5288POPC   NC314243  12.027   3.504   9.450
 5288POPC   PO414244  12.061   3.514   9.150
 5288POPC   GL114245  12.105   3.527   8.850
 5288POPC   GL214246  11.936   3.505   8.850
 5288POPC   C1A14247  12.057   3.526   8.550
 5288POPC   D2A14248  12.050   3.562   8.250
 5288POPC   C3A14249  12.039   3.497   7.950
 5288POPC   C4A14250  12.055   3.561   7.650
 5288POPC   C1B14251  11.882   3.478   8.550
 5288POPC   C2B14252  11.842   3.493   8.250
 5288POPC   C3B14253  11.870   3.502   7.950
 5288POPC   C4B14254  11.879   3.461   7.650
 5289POPC   NC314255  40.784  33.803   9.450
 5289POPC   PO414256  40.787  33.823   9.150
 5289POPC   GL114257  40.757  33.816   8.850
 5289POPC   GL214258  40.882  33.832   8.850
 5289POPC   C1A14259  40.738  33.807   8.550
 5289POPC   D2A14260  40.802  33.825   8.250
 5289POPC   C3A14261  40.759  33.794   7.950
 5289POPC   C4A14262  40.797  33.840   7.650
 5289POPC   C1B14263  41.010  33.843   8.550
 5289POPC   C2B14264  41.017  33.859   8.250
 5289POPC   C3B14265  41.031  33.877   7.950
 5289POPC   C4B14266  41.035  33.900   7.650
 5290POPC   NC314267  31.489  29.098   9.450
 5290POPC   PO414268  31.495  29.106   9.150
 5290POPC   GL114269  31.509  29.152   8.850
 5290POPC   GL214270  31.407  29.254   8.850
 5290POPC   C1A14271  31.448  29.187   8.550
 5290POPC   D2A14272  31.474  29.131   8.250
 5290POPC   C3A14273  31.467  29.193   7.950
 5290POPC   C4A14274  31.460  29.118   7.650
 5290POPC   C1B14275  31.383  29.373   8.550
 5290POPC   C2B14276  31.414  29.363   8.250
 5290POPC   C3B14277  31.372  29.363   7.950
 5290POPC   C4B14278  31.421  29.355   7.650
 5291POPC   NC314279  17.522  22.199   9.450
 5291POPC   PO414280  17.465  22.129   9.150
 5291POPC   GL114281  17.556  22.185   8.850
 5291POPC   GL214282  17.384  22.271   8.850
 5291POPC   C1A14283  17.470  22.186   8.550
 5291POPC   D2A14284  17.490  22.212   8.250
 5291POPC   C3A14285  17.513  22.184   7.950
 5291POPC   C4A14286  17.520  22.200   7.650
 5291POPC   C1B14287  17.273  22.307   8.550
 5291POPC   C2B14288  17.250  22.322   8.250
 5291POPC   C3B14289  17.323  22.295   7.950
 5291POPC   C4B14290  17.320  22.298   7.650
 5292POPC   NC314291   5.872  29.134   9.450
 5292POPC   PO414292   5.843  29.176   9.150
 5292POPC   GL114293   5.860  29.126   8.850
 5292POPC   GL214294   5.896  29.255   8.850
 5292POPC   C1A14295   5.836  29.106   8.550
 5292POPC   D2A14296   5.862  29.132   8.250
 5292POPC   C3A14297   5.911  29.140   7.950
 5292POPC   C4A14298   5.825  29.102   7.650
 5292POPC   C1B14299   5.910  29.392   8.550
 5292POPC   C2B14300   5.935  29.432   8.250
 5292POPC   C3B14301   5.975  29.394   7.950
 5292POPC   C4B14302   5.918  29.365   7.650
 5293POPC   NC314303  27.606  22.163   9.450
 5293POPC   PO414304  27.607  22.196   9.150
 5293POPC   GL114305  27.606  22.134   8.850
 5293POPC   GL214306  27.431  22.188   8.850
 5293POPC   C1A14307  27.606  22.193   8.550
 5293POPC   D2A14308  27.565  22.123   8.250
 5293POPC   C3A14309  27.641  22.137   7.950
 5293POPC   C4A14310  27.554  22.205   7.650
 5293POPC   C1B14311  27.347  22.300   8.550
 5293POPC   C2B14312  27.367  22.219   8.250
 5293POPC   C3B14313  27.397  22.284   7.950
 5293POPC   C4B14314  27.350  22.264   7.650
 5294POPC   NC314315  29.960  21.353   9.450
 5294POPC   PO414316  29.891  21.364   9.150
 5294POPC   GL114317  29.936  21.360   8.850
 5294POPC   GL214318  29.960  21.517   8.850
 5294POPC   C1A14319  29.915  21.390   8.550
 5294POPC   D2A14320  29.958  21.381   8.250
 5294POPC   C3A14321  29.969  21.409   7.950
 5294POPC   C4A14322  29.954  21.405   7.650
 5294POPC   C1B14323  29.994  21.653   8.550
 5294POPC   C2B14324  29.964  21.644   8.250
 5294POPC   C3B14325  30.023  21.675   7.950
 5294POPC   C4B14326  30.034  21.660   7.650
 5295POPC   NC314327  13.605  29.185   9.450
 5295POPC   PO414328  13.643  29.102   9.150
 5295POPC   GL114329  13.638  29.179   8.850
 5295POPC   GL214330  13.564  29.246   8.850
 5295POPC   C1A14331  13.623  29.154   8.550
 5295POPC   D2A14332  13.659  29.130   8.250
 5295POPC   C3A14333  13.597  29.116   7.950
 5295POPC   C4A14334  13.658  29.171   7.650
 5295POPC   C1B14335  13.514  29.419   8.550
 5295POPC   C2B14336  13.569  29.335   8.250
 5295POPC   C3B14337  13.514  29.359   7.950
 5295POPC   C4B14338  13.536  29.328   7.650
 5296POPC   NC314339  22.118  33.819   9.450
 5296POPC   PO414340  22.146  33.778   9.150
 5296POPC   GL114341  22.117  33.782   8.850
 5296POPC   GL214342  22.297  33.740   8.850
 5296POPC   C1A14343  22.185  33.801   8.550
 5296POPC   D2A14344  22.173  33.819   8.250
 5296POPC   C3A14345  22.151  33.795   7.950
 5296POPC   C4A14346  22.162  33.847   7.650
 5296POPC   C1B14347  22.343  33.622   8.550
 5296POPC   C2B14348  22.333  33.671   8.250
 5296POPC   C3B14349  22.375  33.662   7.950
 5296POPC   C4B14350  22.331  33.682   7.650
 5297POPC   NC314351  43.063  43.095   9.450
 5297POPC   PO414352  43.139  43.076   9.150
 5297POPC   GL114353  43.159  43.149   8.850
 5297POPC   GL214354  43.015  43.184   8.850
 5297POPC   C1A14355  43.119  43.071   8.550
 5297POPC   D2A14356  43.075  43.125   8.250
 5297POPC   C3A14357  43.098  43.133   7.950
 5297POPC   C4A14358  43.076  43.105   7.650
 5297POPC   C1B14359  42.988  43.339   8.550
 5297POPC   C2B14360  42.894  43.287   8.250
 5297POPC   C3B14361  42.895  43.309   7.950
 5297POPC   C4B14362  42.948  43.300   7.650
 5298POPC   NC314363  26.833  22.943   9.450
 5298POPC   PO414364  26.827  22.921   9.150
 5298POPC   GL114365  26.802  22.987   8.850
 5298POPC   GL214366  26.923  22.895   8.850
 5298POPC   C1A14367  26.866  22.896   8.550
 5298POPC   D2A14368  26.829  22.906   8.250
 5298POPC   C3A14369  26.819  22.968   7.950
 5298POPC   C4A14370  26.782  22.944   7.650
 5298POPC   C1B14371  27.021  22.784   8.550
 5298POPC   C2B14372  27.077  22.871   8.250
 5298POPC   C3B14373  27.065  22.863   7.950
 5298POPC   C4B14374  27.084  22.846   7.650
 5299POPC   NC314375   8.963  24.456   9.450
 5299POPC   PO414376   8.961  24.449   9.150
 5299POPC   GL114377   8.976  24.469   8.850
 5299POPC   GL214378   9.090  24.423   8.850
 5299POPC   C1A14379   8.997  24.477   8.550
 5299POPC   D2A14380   8.938  24.499   8.250
 5299POPC   C3A14381   8.928  24.468   7.950
 5299POPC   C4A14382   8.988  24.512   7.650
 5299POPC   C1B14383   9.209  24.324   8.550
 5299POPC   C2B14384   9.146  24.325   8.250
 5299POPC   C3B14385   9.194  24.332   7.950
 5299POPC   C4B14386   9.219  24.337   7.650
 5300POPC   NC314387  31.431  33.791   9.450
 5300POPC   PO414388  31.488  33.828   9.150
 5300POPC   GL114389  31.517  33.810   8.850
 5300POPC   GL214390  31.390  33.812   8.850
 5300POPC   C1A14391  31.467  33.798   8.550
 5300POPC   D2A14392  31.508  33.804   8.250
 5300POPC   C3A14393  31.435  33.821   7.950
 5300POPC   C4A14394  31.438  33.762   7.650
 5300POPC   C1B14395  31.231  33.927   8.550
 5300POPC   C2B14396  31.232  33.898   8.250
 5300POPC   C3B14397  31.242  33.929   7.950
 5300POPC   C4B14398  31.204  33.930   7.650
 5301POPC   NC314399   9.796   2.775   9.450
 5301POPC   PO414400   9.781   2.767   9.150
 5301POPC   GL114401   9.781   2.785   8.850
 5301POPC   GL214402   9.665   2.743   8.850
 5301POPC   C1A14403   9.748   2.750   8.550
 5301POPC   D2A14404   9.748   2.791   8.250
 5301POPC   C3A14405   9.782   2.739   7.950
 5301POPC   C4A14406   9.742   2.750   7.650
 5301POPC   C1B14407   9.533   2.803   8.550
 5301POPC   C2B14408   9.456   2.734   8.250
 5301POPC   C3B14409   9.457   2.789   7.950
 5301POPC   C4B14410   9.475   2.726   7.650
 5302POPC   NC314411  26.055  20.631   9.450
 5302POPC   PO414412  26.043  20.607   9.150
 5302POPC   GL114413  26.071  20.646   8.850
 5302POPC   GL214414  25.916  20.629   8.850
 5302POPC   C1A14415  26.053  20.572   8.550
 5302POPC   D2A14416  26.046  20.597   8.250
 5302POPC   C3A14417  26.012  20.653   7.950
 5302POPC   C4A14418  26.004  20.625   7.650
 5302POPC   C1B14419  25.845  20.522   8.550
 5302POPC   C2B14420  25.841  20.543   8.250
 5302POPC   C3B14421  25.757  20.552   7.950
 5302POPC   C4B14422  25.787  20.607   7.650
 5303POPC   NC314423   0.454  12.104   9.450
 5303POPC   PO414424   0.452  12.031   9.150
 5303POPC   GL114425   0.466  12.100   8.850
 5303POPC   GL214426   0.307  12.017   8.850
 5303POPC   C1A14427   0.411  12.050   8.550
 5303POPC   D2A14428   0.469  12.094   8.250
 5303POPC   C3A14429   0.430  12.125   7.950
 5303POPC   C4A14430   0.468  12.080   7.650
 5303POPC   C1B14431   0.213  11.976   8.550
 5303POPC   C2B14432   0.222  12.027   8.250
 5303POPC   C3B14433   0.213  11.940   7.950
 5303POPC   C4B14434   0.252  11.986   7.650
 5304POPC   NC314435  26.774  15.968   9.450
 5304POPC   PO414436  26.842  15.931   9.150
 5304POPC   GL114437  26.782  15.908   8.850
 5304POPC   GL214438  26.793  15.785   8.850
 5304POPC   C1A14439  26.840  15.955   8.550
 5304POPC   D2A14440  26.800  15.991   8.250
 5304POPC   C3A14441  26.827  15.957   7.950
 5304POPC   C4A14442  26.768  15.945   7.650
 5304POPC   C1B14443  26.742  15.697   8.550
 5304POPC   C2B14444  26.800  15.756   8.250
 5304POPC   C3B14445  26.769  15.742   7.950
 5304POPC   C4B14446  26.793  15.716   7.650
 5305POPC   NC314447  28.343  13.658   9.450
 5305POPC   PO414448  28.369  13.666   9.150
 5305POPC   GL114449  28.357  13.599   8.850
 5305POPC   GL214450  28.332  13.741   8.850
 5305POPC   C1A14451  28.320  13.589   8.550
 5305POPC   D2A14452  28.368  13.591   8.250
 5305POPC   C3A14453  28.337  13.643   7.950
 5305POPC   C4A14454  28.408  13.611   7.650
 5305POPC   C1B14455  28.384  13.906   8.550
 5305POPC   C2B14456  28.315  13.863   8.250
 5305POPC   C3B14457  28.375  13.831   7.950
 5305POPC   C4B14458  28.331  13.848   7.650
 5306POPC   NC314459   7.422  33.758   9.450
 5306POPC   PO414460   7.433  33.770   9.150
 5306POPC   GL114461   7.380  33.807   8.850
 5306POPC   GL214462   7.424  33.910   8.850
 5306POPC   C1A14463   7.418  33.789   8.550
 5306POPC   D2A14464   7.431  33.800   8.250
 5306POPC   C3A14465   7.400  33.817   7.950
 5306POPC   C4A14466   7.403  33.784   7.650
 5306POPC   C1B14467   7.460  34.076   8.550
 5306POPC   C2B14468   7.501  34.061   8.250
 5306POPC   C3B14469   7.450  34.078   7.950
 5306POPC   C4B14470   7.503  34.077   7.650
 5307POPC   NC314471   7.450  44.672   9.450
 5307POPC   PO414472   7.422  44.637   9.150
 5307POPC   GL114473   7.470  44.684   8.850
 5307POPC   GL214474   7.384  44.512   8.850
 5307POPC   C1A14475   7.378  44.645   8.550
 5307POPC   D2A14476   7.393  44.706   8.250
 5307POPC   C3A14477   7.377  44.692   7.950
 5307POPC   C4A14478   7.382  44.649   7.650
 5307POPC   C1B14479   7.245  44.490   8.550
 5307POPC   C2B14480   7.312  44.497   8.250
 5307POPC   C3B14481   7.334  44.419   7.950
 5307POPC   C4B14482   7.260  44.494   7.650
 5308POPC   NC314483  32.200  40.808   9.450
 5308POPC   PO414484  32.216  40.758   9.150
 5308POPC   GL114485  32.282  40.816   8.850
 5308POPC   GL214486  32.176  40.884   8.850
 5308POPC   C1A14487  32.222  40.746   8.550
 5308POPC   D2A14488  32.287  40.734   8.250
 5308POPC   C3A14489  32.291  40.748   7.950
 5308POPC   C4A14490  32.232  40.792   7.650
 5308POPC   C1B14491  32.082  40.897   8.550
 5308POPC   C2B14492  32.017  40.921   8.250
 5308POPC   C3B14493  32.052  40.924   7.950
 5308POPC   C4B14494  32.051  40.929   7.650
 5309POPC   NC314495  22.966  11.327   9.450
 5309POPC   PO414496  22.982  11.346   9.150
 5309POPC   GL114497  22.956  11.315   8.850
 5309POPC   GL214498  23.084  11.293   8.850
 5309POPC   C1A14499  22.894  11.266   8.550
 5309POPC   D2A14500  22.926  11.280   8.250
 5309POPC   C3A14501  22.904  11.332   7.950
 5309POPC   C4A14502  22.928  11.308   7.650
 5309POPC   C1B14503  23.199  11.273   8.550
 5309POPC   C2B14504  23.199  11.256   8.250
 5309POPC   C3B14505  23.218  11.245   7.950
 5309POPC   C4B14506  23.219  11.219   7.650
 5310POPC   NC314507  40.832  40.769   9.450
 5310POPC   PO414508  40.820  40.827   9.150
 5310POPC   GL114509  40.746  40.803   8.850
 5310POPC   GL214510  40.870  40.753   8.850
 5310POPC   C1A14511  40.768  40.792   8.550
 5310POPC   D2A14512  40.734  40.817   8.250
 5310POPC   C3A14513  40.831  40.823   7.950
 5310POPC   C4A14514  40.815  40.765   7.650
 5310POPC   C1B14515  41.026  40.676   8.550
 5310POPC   C2B14516  41.022  40.632   8.250
 5310POPC   C3B14517  41.025  40.658   7.950
 5310POPC   C4B14518  40.988  40.675   7.650
 5311POPC   NC314519  29.923  19.061   9.450
 5311POPC   PO414520  29.937  19.072   9.150
 5311POPC   GL114521  29.878  19.099   8.850
 5311POPC   GL214522  29.889  18.977   8.850
 5311POPC   C1A14523  29.917  19.034   8.550
 5311POPC   D2A14524  29.921  19.089   8.250
 5311POPC   C3A14525  29.944  19.034   7.950
 5311POPC   C4A14526  29.915  19.072   7.650
 5311POPC   C1B14527  29.799  18.813   8.550
 5311POPC   C2B14528  29.837  18.808   8.250
 5311POPC   C3B14529  29.804  18.858   7.950
 5311POPC   C4B14530  29.867  18.819   7.650
 5312POPC   NC314531  25.297  29.882   9.450
 5312POPC   PO414532  25.216  29.970   9.150
 5312POPC   GL114533  25.312  29.876   8.850
 5312POPC   GL214534  25.142  29.936   8.850
 5312POPC   C1A14535  25.268  29.901   8.550
 5312POPC   D2A14536  25.227  29.900   8.250
 5312POPC   C3A14537  25.290  29.954   7.950
 5312POPC   C4A14538  25.268  29.876   7.650
 5312POPC   C1B14539  24.997  29.843   8.550
 5312POPC   C2B14540  25.022  29.856   8.250
 5312POPC   C3B14541  25.064  29.871   7.950
 5312POPC   C4B14542  25.013  29.857   7.650
 5313POPC   NC314543  25.224  33.795   9.450
 5313POPC   PO414544  25.271  33.799   9.150
 5313POPC   GL114545  25.225  33.776   8.850
 5313POPC   GL214546  25.433  33.745   8.850
 5313POPC   C1A14547  25.225  33.821   8.550
 5313POPC   D2A14548  25.242  33.762   8.250
 5313POPC   C3A14549  25.243  33.834   7.950
 5313POPC   C4A14550  25.284  33.791   7.650
 5313POPC   C1B14551  25.550  33.744   8.550
 5313POPC   C2B14552  25.489  33.779   8.250
 5313POPC   C3B14553  25.538  33.802   7.950
 5313POPC   C4B14554  25.508  33.758   7.650
 5314POPC   NC314555  32.993  19.861   9.450
 5314POPC   PO414556  32.975  19.797   9.150
 5314POPC   GL114557  33.054  19.867   8.850
 5314POPC   GL214558  32.988  19.696   8.850
 5314POPC   C1A14559  33.008  19.798   8.550
 5314POPC   D2A14560  32.985  19.851   8.250
 5314POPC   C3A14561  33.044  19.799   7.950
 5314POPC   C4A14562  33.047  19.793   7.650
 5314POPC   C1B14563  32.938  19.647   8.550
 5314POPC   C2B14564  32.909  19.564   8.250
 5314POPC   C3B14565  32.900  19.593   7.950
 5314POPC   C4B14566  32.890  19.654   7.650
 5315POPC   NC314567  44.707  10.561   9.450
 5315POPC   PO414568  44.700  10.523   9.150
 5315POPC   GL114569  44.674  10.542   8.850
 5315POPC   GL214570  44.557  10.411   8.850
 5315POPC   C1A14571  44.624  10.553   8.550
 5315POPC   D2A14572  44.639  10.557   8.250
 5315POPC   C3A14573  44.623  10.519   7.950
 5315POPC   C4A14574  44.615  10.520   7.650
 5315POPC   C1B14575  44.482  10.364   8.550
 5315POPC   C2B14576  44.483  10.335   8.250
 5315POPC   C3B14577  44.507  10.382   7.950
 5315POPC   C4B14578  44.429  10.395   7.650
 5316POPC   NC314579  29.937  32.205   9.450
 5316POPC   PO414580  29.872  32.279   9.150
 5316POPC   GL114581  29.954  32.285   8.850
 5316POPC   GL214582  29.913  32.332   8.850
 5316POPC   C1A14583  29.967  32.252   8.550
 5316POPC   D2A14584  29.907  32.219   8.250
 5316POPC   C3A14585  29.904  32.236   7.950
 5316POPC   C4A14586  29.959  32.276   7.650
 5316POPC   C1B14587  30.044  32.499   8.550
 5316POPC   C2B14588  29.985  32.441   8.250
 5316POPC   C3B14589  30.034  32.535   7.950
 5316POPC   C4B14590  30.015  32.517   7.650
 5317POPC   NC314591  33.827  34.609   9.450
 5317POPC   PO414592  33.794  34.554   9.150
 5317POPC   GL114593  33.812  34.609   8.850
 5317POPC   GL214594  33.688  34.610   8.850
 5317POPC   C1A14595  33.755  34.613   8.550
 5317POPC   D2A14596  33.786  34.613   8.250
 5317POPC   C3A14597  33.811  34.614   7.950
 5317POPC   C4A14598  33.777  34.592   7.650
 5317POPC   C1B14599  33.575  34.668   8.550
 5317POPC   C2B14600  33.566  34.720   8.250
 5317POPC   C3B14601  33.643  34.689   7.950
 5317POPC   C4B14602  33.610  34.755   7.650
 5318POPC   NC314603   2.787  39.978   9.450
 5318POPC   PO414604   2.762  39.982   9.150
 5318POPC   GL114605   2.815  40.002   8.850
 5318POPC   GL214606   2.746  39.847   8.850
 5318POPC   C1A14607   2.801  40.004   8.550
 5318POPC   D2A14608   2.764  39.971   8.250
 5318POPC   C3A14609   2.776  40.016   7.950
 5318POPC   C4A14610   2.791  39.981   7.650
 5318POPC   C1B14611   2.767  39.743   8.550
 5318POPC   C2B14612   2.766  39.790   8.250
 5318POPC   C3B14613   2.702  39.795   7.950
 5318POPC   C4B14614   2.743  39.746   7.650
 5319POPC   NC314615  15.922  15.947   9.450
 5319POPC   PO414616  15.975  15.982   9.150
 5319POPC   GL114617  15.941  15.959   8.850
 5319POPC   GL214618  15.857  15.869   8.850
 5319POPC   C1A14619  15.914  15.906   8.550
 5319POPC   D2A14620  15.988  15.948   8.250
 5319POPC   C3A14621  15.923  15.951   7.950
 5319POPC   C4A14622  15.929  15.926   7.650
 5319POPC   C1B14623  15.760  15.849   8.550
 5319POPC   C2B14624  15.737  15.881   8.250
 5319POPC   C3B14625  15.757  15.903   7.950
 5319POPC   C4B14626  15.710  15.898   7.650
 5320POPC   NC314627  26.828  37.702   9.450
 5320POPC   PO414628  26.767  37.679   9.150
 5320POPC   GL114629  26.807  37.727   8.850
 5320POPC   GL214630  26.761  37.561   8.850
 5320POPC   C1A14631  26.778  37.632   8.550
 5320POPC   D2A14632  26.771  37.670   8.250
 5320POPC   C3A14633  26.797  37.667   7.950
 5320POPC   C4A14634  26.790  37.671   7.650
 5320POPC   C1B14635  26.669  37.465   8.550
 5320POPC   C2B14636  26.739  37.405   8.250
 5320POPC   C3B14637  26.666  37.487   7.950
 5320POPC   C4B14638  26.716  37.473   7.650
 5321POPC   NC314639  13.617  33.817   9.450
 5321POPC   PO414640  13.671  33.829   9.150
 5321POPC   GL114641  13.604  33.847   8.850
 5321POPC   GL214642  13.734  33.848   8.850
 5321POPC   C1A14643  13.677  33.783   8.550
 5321POPC   D2A14644  13.582  33.816   8.250
 5321POPC   C3A14645  13.599  33.822   7.950
 5321POPC   C4A14646  13.636  33.809   7.650
 5321POPC   C1B14647  13.816  33.878   8.550
 5321POPC   C2B14648  13.838  33.879   8.250
 5321POPC   C3B14649  13.838  33.874   7.950
 5321POPC   C4B14650  13.871  33.870   7.650
 5322POPC   NC314651  32.254  22.966   9.450
 5322POPC   PO414652  32.235  22.938   9.150
 5322POPC   GL114653  32.210  22.950   8.850
 5322POPC   GL214654  32.122  22.964   8.850
 5322POPC   C1A14655  32.240  22.934   8.550
 5322POPC   D2A14656  32.250  22.945   8.250
 5322POPC   C3A14657  32.288  22.972   7.950
 5322POPC   C4A14658  32.278  22.907   7.650
 5322POPC   C1B14659  32.045  22.947   8.550
 5322POPC   C2B14660  31.996  22.948   8.250
 5322POPC   C3B14661  32.043  22.970   7.950
 5322POPC   C4B14662  32.019  22.904   7.650
 5323POPC   NC314663  31.486  32.998   9.450
 5323POPC   PO414664  31.483  32.983   9.150
 5323POPC   GL114665  31.507  33.049   8.850
 5323POPC   GL214666  31.620  33.094   8.850
 5323POPC   C1A14667  31.510  33.001   8.550
 5323POPC   D2A14668  31.452  33.052   8.250
 5323POPC   C3A14669  31.494  32.974   7.950
 5323POPC   C4A14670  31.431  33.053   7.650
 5323POPC   C1B14671  31.675  33.151   8.550
 5323POPC   C2B14672  31.709  33.145   8.250
 5323POPC   C3B14673  31.709  33.155   7.950
 5323POPC   C4B14674  31.657  33.120   7.650
 5324POPC   NC314675  33.844  30.694   9.450
 5324POPC   PO414676  33.811  30.683   9.150
 5324POPC   GL114677  33.801  30.678   8.850
 5324POPC   GL214678  33.760  30.855   8.850
 5324POPC   C1A14679  33.795  30.672   8.550
 5324POPC   D2A14680  33.778  30.738   8.250
 5324POPC   C3A14681  33.773  30.717   7.950
 5324POPC   C4A14682  33.832  30.682   7.650
 5324POPC   C1B14683  33.742  30.976   8.550
 5324POPC   C2B14684  33.755  30.925   8.250
 5324POPC   C3B14685  33.740  30.985   7.950
 5324POPC   C4B14686  33.741  30.904   7.650
 5325POPC   NC314687   0.485   6.626   9.450
 5325POPC   PO414688   0.391   6.629   9.150
 5325POPC   GL114689   0.485   6.674   8.850
 5325POPC   GL214690   0.487   6.594   8.850
 5325POPC   C1A14691   0.400   6.631   8.550
 5325POPC   D2A14692   0.461   6.601   8.250
 5325POPC   C3A14693   0.398   6.675   7.950
 5325POPC   C4A14694   0.445   6.646   7.650
 5325POPC   C1B14695   0.629   6.512   8.550
 5325POPC   C2B14696   0.637   6.526   8.250
 5325POPC   C3B14697   0.642   6.464   7.950
 5325POPC   C4B14698   0.630   6.441   7.650
 5326POPC   NC314699   6.695  39.195   9.450
 5326POPC   PO414700   6.631  39.273   9.150
 5326POPC   GL114701   6.624  39.201   8.850
 5326POPC   GL214702   6.543  39.340   8.850
 5326POPC   C1A14703   6.616  39.237   8.550
 5326POPC   D2A14704   6.620  39.276   8.250
 5326POPC   C3A14705   6.608  39.269   7.950
 5326POPC   C4A14706   6.648  39.221   7.650
 5326POPC   C1B14707   6.556  39.401   8.550
 5326POPC   C2B14708   6.570  39.484   8.250
 5326POPC   C3B14709   6.479  39.423   7.950
 5326POPC   C4B14710   6.564  39.416   7.650
 5327POPC   NC314711  42.359  37.699   9.450
 5327POPC   PO414712  42.384  37.728   9.150
 5327POPC   GL114713  42.303  37.679   8.850
 5327POPC   GL214714  42.392  37.759   8.850
 5327POPC   C1A14715  42.314  37.687   8.550
 5327POPC   D2A14716  42.349  37.716   8.250
 5327POPC   C3A14717  42.300  37.668   7.950
 5327POPC   C4A14718  42.347  37.631   7.650
 5327POPC   C1B14719  42.386  37.893   8.550
 5327POPC   C2B14720  42.388  37.946   8.250
 5327POPC   C3B14721  42.349  37.897   7.950
 5327POPC   C4B14722  42.325  37.879   7.650
 5328POPC   NC314723  43.904  22.920   9.450
 5328POPC   PO414724  43.879  22.977   9.150
 5328POPC   GL114725  43.934  22.921   8.850
 5328POPC   GL214726  43.774  22.943   8.850
 5328POPC   C1A14727  43.868  22.921   8.550
 5328POPC   D2A14728  43.887  22.968   8.250
 5328POPC   C3A14729  43.908  22.894   7.950
 5328POPC   C4A14730  43.874  22.918   7.650
 5328POPC   C1B14731  43.595  22.987   8.550
 5328POPC   C2B14732  43.637  22.902   8.250
 5328POPC   C3B14733  43.629  22.924   7.950
 5328POPC   C4B14734  43.600  22.933   7.650
 5329POPC   NC314735  31.482  36.896   9.450
 5329POPC   PO414736  31.507  36.873   9.150
 5329POPC   GL114737  31.485  36.878   8.850
 5329POPC   GL214738  31.428  37.041   8.850
 5329POPC   C1A14739  31.451  36.879   8.550
 5329POPC   D2A14740  31.489  36.886   8.250
 5329POPC   C3A14741  31.521  36.892   7.950
 5329POPC   C4A14742  31.462  36.870   7.650
 5329POPC   C1B14743  31.475  37.166   8.550
 5329POPC   C2B14744  31.456  37.171   8.250
 5329POPC   C3B14745  31.471  37.170   7.950
 5329POPC   C4B14746  31.428  37.169   7.650
 5330POPC   NC314747  37.729  44.709   9.450
 5330POPC   PO414748  37.706  44.628   9.150
 5330POPC   GL114749  37.700  44.699   8.850
 5330POPC   GL214750  37.745  44.667   8.850
 5330POPC   C1A14751  37.667  44.695   8.550
 5330POPC   D2A14752  37.699  44.652   8.250
 5330POPC   C3A14753  37.701  44.621   7.950
 5330POPC   C4A14754  37.695  44.614   7.650
 5330POPC   C1B14755  37.877  44.779   8.550
 5330POPC   C2B14756  37.911  44.754   8.250
 5330POPC   C3B14757  37.917  44.733   7.950
 5330POPC   C4B14758  37.892  44.806   7.650
 5331POPC   NC314759  31.472   2.730   9.450
 5331POPC   PO414760  31.518   2.759   9.150
 5331POPC   GL114761  31.486   2.729   8.850
 5331POPC   GL214762  31.586   2.728   8.850
 5331POPC   C1A14763  31.493   2.800   8.550
 5331POPC   D2A14764  31.429   2.751   8.250
 5331POPC   C3A14765  31.438   2.811   7.950
 5331POPC   C4A14766  31.507   2.736   7.650
 5331POPC   C1B14767  31.690   2.623   8.550
 5331POPC   C2B14768  31.654   2.665   8.250
 5331POPC   C3B14769  31.729   2.681   7.950
 5331POPC   C4B14770  31.713   2.671   7.650
 5332POPC   NC314771  22.946  42.301   9.450
 5332POPC   PO414772  22.889  42.287   9.150
 5332POPC   GL114773  22.968  42.324   8.850
 5332POPC   GL214774  23.007  42.240   8.850
 5332POPC   C1A14775  22.920  42.382   8.550
 5332POPC   D2A14776  22.966  42.372   8.250
 5332POPC   C3A14777  22.937  42.356   7.950
 5332POPC   C4A14778  22.908  42.376   7.650
 5332POPC   C1B14779  23.016  42.046   8.550
 5332POPC   C2B14780  22.959  42.124   8.250
 5332POPC   C3B14781  22.977  42.130   7.950
 5332POPC   C4B14782  22.941  42.118   7.650
 5333POPC   NC314783   6.681   8.982   9.450
 5333POPC   PO414784   6.600   8.975   9.150
 5333POPC   GL114785   6.640   8.962   8.850
 5333POPC   GL214786   6.511   9.011   8.850
 5333POPC   C1A14787   6.600   8.971   8.550
 5333POPC   D2A14788   6.626   9.008   8.250
 5333POPC   C3A14789   6.644   8.959   7.950
 5333POPC   C4A14790   6.611   8.974   7.650
 5333POPC   C1B14791   6.446   9.087   8.550
 5333POPC   C2B14792   6.460   9.111   8.250
 5333POPC   C3B14793   6.486   9.104   7.950
 5333POPC   C4B14794   6.427   9.151   7.650
 5334POPC   NC314795  44.647  39.224   9.450
 5334POPC   PO414796  44.697  39.248   9.150
 5334POPC   GL114797  44.689  39.189   8.850
 5334POPC   GL214798  44.788  39.182   8.850
 5334POPC   C1A14799  44.639  39.247   8.550
 5334POPC   D2A14800  44.688  39.267   8.250
 5334POPC   C3A14801  44.618  39.233   7.950
 5334POPC   C4A14802  44.622  39.264   7.650
 5334POPC   C1B14803  44.862  39.246   8.550
 5334POPC   C2B14804  44.947  39.253   8.250
 5334POPC   C3B14805  44.905  39.191   7.950
 5334POPC   C4B14806  44.874  39.245   7.650
 5335POPC   NC314807  40.045  12.856   9.450
 5335POPC   PO414808  40.042  12.847   9.150
 5335POPC   GL114809  39.962  12.859   8.850
 5335POPC   GL214810  39.918  12.958   8.850
 5335POPC   C1A14811  40.055  12.866   8.550
 5335POPC   D2A14812  40.027  12.895   8.250
 5335POPC   C3A14813  40.029  12.807   7.950
 5335POPC   C4A14814  39.957  12.841   7.650
 5335POPC   C1B14815  39.946  13.065   8.550
 5335POPC   C2B14816  39.906  13.112   8.250
 5335POPC   C3B14817  39.867  13.054   7.950
 5335POPC   C4B14818  39.909  13.089   7.650
 5336POPC   NC314819  17.501  30.712   9.450
 5336POPC   PO414820  17.466  30.662   9.150
 5336POPC   GL114821  17.531  30.667   8.850
 5336POPC   GL214822  17.671  30.686   8.850
 5336POPC   C1A14823  17.523  30.733   8.550
 5336POPC   D2A14824  17.553  30.660   8.250
 5336POPC   C3A14825  17.477  30.715   7.950
 5336POPC   C4A14826  17.478  30.725   7.650
 5336POPC   C1B14827  17.748  30.783   8.550
 5336POPC   C2B14828  17.750  30.730   8.250
 5336POPC   C3B14829  17.745  30.727   7.950
 5336POPC   C4B14830  17.721  30.774   7.650
 5337POPC   NC314831  18.324  13.585   9.450
 5337POPC   PO414832  18.261  13.602   9.150
 5337POPC   GL114833  18.260  13.658   8.850
 5337POPC   GL214834  18.204  13.669   8.850
 5337POPC   C1A14835  18.279  13.615   8.550
 5337POPC   D2A14836  18.245  13.652   8.250
 5337POPC   C3A14837  18.311  13.676   7.950
 5337POPC   C4A14838  18.328  13.676   7.650
 5337POPC   C1B14839  18.071  13.787   8.550
 5337POPC   C2B14840  18.089  13.795   8.250
 5337POPC   C3B14841  18.066  13.845   7.950
 5337POPC   C4B14842  18.142  13.792   7.650
 5338POPC   NC314843  43.911  24.465   9.450
 5338POPC   PO414844  43.901  24.459   9.150
 5338POPC   GL114845  43.916  24.501   8.850
 5338POPC   GL214846  43.772  24.459   8.850
 5338POPC   C1A14847  43.842  24.523   8.550
 5338POPC   D2A14848  43.913  24.487   8.250
 5338POPC   C3A14849  43.898  24.451   7.950
 5338POPC   C4A14850  43.919  24.486   7.650
 5338POPC   C1B14851  43.639  24.358   8.550
 5338POPC   C2B14852  43.656  24.323   8.250
 5338POPC   C3B14853  43.666  24.396   7.950
 5338POPC   C4B14854  43.713  24.317   7.650
 5339POPC   NC314855  10.548  40.003   9.450
 5339POPC   PO414856  10.528  40.051   9.150
 5339POPC   GL114857  10.543  39.998   8.850
 5339POPC   GL214858  10.455  39.923   8.850
 5339POPC   C1A14859  10.528  40.015   8.550
 5339POPC   D2A14860  10.506  39.974   8.250
 5339POPC   C3A14861  10.520  39.961   7.950
 5339POPC   C4A14862  10.535  40.056   7.650
 5339POPC   C1B14863  10.437  39.736   8.550
 5339POPC   C2B14864  10.498  39.756   8.250
 5339POPC   C3B14865  10.507  39.758   7.950
 5339POPC   C4B14866  10.492  39.766   7.650
 5340POPC   NC314867  38.464  42.373   9.450
 5340POPC   PO414868  38.411  42.307   9.150
 5340POPC   GL114869  38.488  42.376   8.850
 5340POPC   GL214870  38.501  42.405   8.850
 5340POPC   C1A14871  38.468  42.380   8.550
 5340POPC   D2A14872  38.418  42.384   8.250
 5340POPC   C3A14873  38.427  42.368   7.950
 5340POPC   C4A14874  38.493  42.336   7.650
 5340POPC   C1B14875  38.585  42.585   8.550
 5340POPC   C2B14876  38.568  42.551   8.250
 5340POPC   C3B14877  38.581  42.547   7.950
 5340POPC   C4B14878  38.575  42.586   7.650
 5341POPC   NC314879  16.754  26.792   9.450
 5341POPC   PO414880  16.768  26.801   9.150
 5341POPC   GL114881  16.697  26.844   8.850
 5341POPC   GL214882  16.794  26.681   8.850
 5341POPC   C1A14883  16.772  26.800   8.550
 5341POPC   D2A14884  16.754  26.831   8.250
 5341POPC   C3A14885  16.751  26.776   7.950
 5341POPC   C4A14886  16.778  26.783   7.650
 5341POPC   C1B14887  16.843  26.594   8.550
 5341POPC   C2B14888  16.833  26.587   8.250
 5341POPC   C3B14889  16.852  26.561   7.950
 5341POPC   C4B14890  16.787  26.622   7.650
 5342POPC   NC314891  25.235  35.320   9.450
 5342POPC   PO414892  25.221  35.398   9.150
 5342POPC   GL114893  25.270  35.370   8.850
 5342POPC   GL214894  25.349  35.437   8.850
 5342POPC   C1A14895  25.261  35.345   8.550
 5342POPC   D2A14896  25.267  35.350   8.250
 5342POPC   C3A14897  25.245  35.375   7.950
 5342POPC   C4A14898  25.234  35.388   7.650
 5342POPC   C1B14899  25.315  35.596   8.550
 5342POPC   C2B14900  25.320  35.592   8.250
 5342POPC   C3B14901  25.330  35.549   7.950
 5342POPC   C4B14902  25.346  35.551   7.650
 5343POPC   NC314903  24.443   1.236   9.450
 5343POPC   PO414904  24.442   1.232   9.150
 5343POPC   GL114905  24.534   1.212   8.850
 5343POPC   GL214906  24.648   1.284   8.850
 5343POPC   C1A14907  24.500   1.262   8.550
 5343POPC   D2A14908  24.442   1.257   8.250
 5343POPC   C3A14909  24.469   1.175   7.950
 5343POPC   C4A14910  24.454   1.224   7.650
 5343POPC   C1B14911  24.687   1.224   8.550
 5343POPC   C2B14912  24.750   1.305   8.250
 5343POPC   C3B14913  24.732   1.216   7.950
 5343POPC   C4B14914  24.705   1.231   7.650
 5344POPC   NC314915  17.540  26.022   9.450
 5344POPC   PO414916  17.491  26.084   9.150
 5344POPC   GL114917  17.463  26.047   8.850
 5344POPC   GL214918  17.371  26.001   8.850
 5344POPC   C1A14919  17.547  26.031   8.550
 5344POPC   D2A14920  17.475  25.993   8.250
 5344POPC   C3A14921  17.506  26.067   7.950
 5344POPC   C4A14922  17.552  26.079   7.650
 5344POPC   C1B14923  17.290  25.980   8.550
 5344POPC   C2B14924  17.284  25.978   8.250
 5344POPC   C3B14925  17.272  26.031   7.950
 5344POPC   C4B14926  17.300  26.022   7.650
 5345POPC   NC314927  41.576  22.138   9.450
 5345POPC   PO414928  41.546  22.159   9.150
 5345POPC   GL114929  41.565  22.184   8.850
 5345POPC   GL214930  41.488  22.118   8.850
 5345POPC   C1A14931  41.558  22.113   8.550
 5345POPC   D2A14932  41.599  22.137   8.250
 5345POPC   C3A14933  41.520  22.163   7.950
 5345POPC   C4A14934  41.536  22.192   7.650
 5345POPC   C1B14935  41.335  22.046   8.550
 5345POPC   C2B14936  41.301  22.124   8.250
 5345POPC   C3B14937  41.308  22.056   7.950
 5345POPC   C4B14938  41.277  22.046   7.650
 5346POPC   NC314939  43.152  15.942   9.450
 5346POPC   PO414940  43.083  15.928   9.150
 5346POPC   GL114941  43.135  15.992   8.850
 5346POPC   GL214942  43.134  15.800   8.850
 5346POPC   C1A14943  43.147  15.915   8.550
 5346POPC   D2A14944  43.126  15.970   8.250
 5346POPC   C3A14945  43.102  15.930   7.950
 5346POPC   C4A14946  43.095  15.935   7.650
 5346POPC   C1B14947  43.059  15.661   8.550
 5346POPC   C2B14948  43.139  15.751   8.250
 5346POPC   C3B14949  43.086  15.739   7.950
 5346POPC   C4B14950  43.056  15.701   7.650
 5347POPC   NC314951  43.136  33.031   9.450
 5347POPC   PO414952  43.128  33.017   9.150
 5347POPC   GL114953  43.136  33.047   8.850
 5347POPC   GL214954  42.969  33.082   8.850
 5347POPC   C1A14955  43.084  33.061   8.550
 5347POPC   D2A14956  43.089  32.997   8.250
 5347POPC   C3A14957  43.096  33.066   7.950
 5347POPC   C4A14958  43.068  32.987   7.650
 5347POPC   C1B14959  42.941  33.132   8.550
 5347POPC   C2B14960  42.937  33.109   8.250
 5347POPC   C3B14961  42.850  33.134   7.950
 5347POPC   C4B14962  42.873  33.159   7.650
 5348POPC   NC314963  10.495  32.240   9.450
 5348POPC   PO414964  10.479  32.273   9.150
 5348POPC   GL114965  10.491  32.226   8.850
 5348POPC   GL214966  10.412  32.264   8.850
 5348POPC   C1A14967  10.508  32.290   8.550
 5348POPC   D2A14968  10.560  32.281   8.250
 5348POPC   C3A14969  10.535  32.289   7.950
 5348POPC   C4A14970  10.544  32.216   7.650
 5348POPC   C1B14971  10.254  32.204   8.550
 5348POPC   C2B14972  10.258  32.259   8.250
 5348POPC   C3B14973  10.290  32.205   7.950
 5348POPC   C4B14974  10.275  32.246   7.650
 5349POPC   NC314975  43.899   7.424   9.450
 5349POPC   PO414976  43.858   7.384   9.150
 5349POPC   GL114977  43.863   7.380   8.850
 5349POPC   GL214978  44.028   7.410   8.850
 5349POPC   C1A14979  43.910   7.411   8.550
 5349POPC   D2A14980  43.874   7.435   8.250
 5349POPC   C3A14981  43.904   7.406   7.950
 5349POPC   C4A14982  43.897   7.417   7.650
 5349POPC   C1B14983  44.100   7.380   8.550
 5349POPC   C2B14984  44.120   7.457   8.250
 5349POPC   C3B14985  44.136   7.422   7.950
 5349POPC   C4B14986  44.155   7.374   7.650
 5350POPC   NC314987  38.489  35.343   9.450
 5350POPC   PO414988  38.502  35.373   9.150
 5350POPC   GL114989  38.483  35.394   8.850
 5350POPC   GL214990  38.449  35.502   8.850
 5350POPC   C1A14991  38.441  35.323   8.550
 5350POPC   D2A14992  38.462  35.311   8.250
 5350POPC   C3A14993  38.499  35.399   7.950
 5350POPC   C4A14994  38.431  35.376   7.650
 5350POPC   C1B14995  38.420  35.633   8.550
 5350POPC   C2B14996  38.382  35.619   8.250
 5350POPC   C3B14997  38.423  35.634   7.950
 5350POPC   C4B14998  38.363  35.634   7.650
 5351POPC   NC314999   8.164   5.893   9.450
 5351POPC   PO415000   8.167   5.904   9.150
 5351POPC   GL115001   8.175   5.829   8.850
 5351POPC   GL215002   8.250   6.002   8.850
 5351POPC   C1A15003   8.223   5.821   8.550
 5351POPC   D2A15004   8.165   5.875   8.250
 5351POPC   C3A15005   8.180   5.830   7.950
 5351POPC   C4A15006   8.154   5.918   7.650
 5351POPC   C1B15007   8.319   6.112   8.550
 5351POPC   C2B15008   8.375   6.126   8.250
 5351POPC   C3B15009   8.367   6.058   7.950
 5351POPC   C4B15010   8.352   6.090   7.650
 5352POPC   NC315011  43.064  26.861   9.450
 5352POPC   PO415012  43.150  26.792   9.150
 5352POPC   GL115013  43.115  26.850   8.850
 5352POPC   GL215014  43.035  26.779   8.850
 5352POPC   C1A15015  43.067  26.863   8.550
 5352POPC   D2A15016  43.138  26.866   8.250
 5352POPC   C3A15017  43.134  26.857   7.950
 5352POPC   C4A15018  43.106  26.775   7.650
 5352POPC   C1B15019  42.875  26.674   8.550
 5352POPC   C2B15020  42.951  26.623   8.250
 5352POPC   C3B15021  42.958  26.685   7.950
 5352POPC   C4B15022  42.874  26.679   7.650
 5353POPC   NC315023  10.573  35.314   9.450
 5353POPC   PO415024  10.559  35.334   9.150
 5353POPC   GL115025  10.476  35.386   8.850
 5353POPC   GL215026  10.446  35.355   8.850
 5353POPC   C1A15027  10.502  35.321   8.550
 5353POPC   D2A15028  10.496  35.389   8.250
 5353POPC   C3A15029  10.548  35.390   7.950
 5353POPC   C4A15030  10.488  35.327   7.650
 5353POPC   C1B15031  10.292  35.373   8.550
 5353POPC   C2B15032  10.312  35.398   8.250
 5353POPC   C3B15033  10.268  35.357   7.950
 5353POPC   C4B15034  10.283  35.415   7.650
 5354POPC   NC315035  27.555  39.235   9.450
 5354POPC   PO415036  27.567  39.269   9.150
 5354POPC   GL115037  27.639  39.184   8.850
 5354POPC   GL215038  27.468  39.314   8.850
 5354POPC   C1A15039  27.632  39.210   8.550
 5354POPC   D2A15040  27.570  39.193   8.250
 5354POPC   C3A15041  27.550  39.273   7.950
 5354POPC   C4A15042  27.620  39.270   7.650
 5354POPC   C1B15043  27.391  39.358   8.550
 5354POPC   C2B15044  27.432  39.409   8.250
 5354POPC   C3B15045  27.394  39.365   7.950
 5354POPC   C4B15046  27.437  39.336   7.650
 5355POPC   NC315047   3.522   1.208   9.450
 5355POPC   PO415048   3.533   1.245   9.150
 5355POPC   GL115049   3.575   1.208   8.850
 5355POPC   GL215050   3.578   1.089   8.850
 5355POPC   C1A15051   3.578   1.257   8.550
 5355POPC   D2A15052   3.500   1.231   8.250
 5355POPC   C3A15053   3.582   1.263   7.950
 5355POPC   C4A15054   3.552   1.237   7.650
 5355POPC   C1B15055   3.487   0.978   8.550
 5355POPC   C2B15056   3.549   0.946   8.250
 5355POPC   C3B15057   3.495   1.003   7.950
 5355POPC   C4B15058   3.580   0.928   7.650
 5356POPC   NC315059  15.993   1.232   9.450
 5356POPC   PO415060  15.924   1.197   9.150
 5356POPC   GL115061  15.964   1.237   8.850
 5356POPC   GL215062  15.890   1.326   8.850
 5356POPC   C1A15063  15.972   1.184   8.550
 5356POPC   D2A15064  15.979   1.252   8.250
 5356POPC   C3A15065  15.946   1.260   7.950
 5356POPC   C4A15066  16.002   1.188   7.650
 5356POPC   C1B15067  15.771   1.353   8.550
 5356POPC   C2B15068  15.727   1.365   8.250
 5356POPC   C3B15069  15.724   1.353   7.950
 5356POPC   C4B15070  15.745   1.423   7.650
 5357POPC   NC315071  11.296   9.714   9.450
 5357POPC   PO415072  11.258   9.745   9.150
 5357POPC   GL115073  11.324   9.735   8.850
 5357POPC   GL215074  11.232   9.676   8.850
 5357POPC   C1A15075  11.335   9.721   8.550
 5357POPC   D2A15076  11.269   9.728   8.250
 5357POPC   C3A15077  11.290   9.756   7.950
 5357POPC   C4A15078  11.302   9.699   7.650
 5357POPC   C1B15079  11.091   9.665   8.550
 5357POPC   C2B15080  11.111   9.603   8.250
 5357POPC   C3B15081  11.079   9.659   7.950
 5357POPC   C4B15082  11.064   9.614   7.650
 5358POPC   NC315083   8.953   1.971   9.450
 5358POPC   PO415084   8.990   1.945   9.150
 5358POPC   GL115085   8.995   2.021   8.850
 5358POPC   GL215086   8.864   1.992   8.850
 5358POPC   C1A15087   8.966   1.948   8.550
 5358POPC   D2A15088   8.925   2.014   8.250
 5358POPC   C3A15089   8.948   1.998   7.950
 5358POPC   C4A15090   8.969   1.945   7.650
 5358POPC   C1B15091   8.748   1.967   8.550
 5358POPC   C2B15092   8.764   1.932   8.250
 5358POPC   C3B15093   8.765   1.940   7.950
 5358POPC   C4B15094   8.754   1.943   7.650
 5359POPC   NC315095  43.159  21.344   9.450
 5359POPC   PO415096  43.130  21.431   9.150
 5359POPC   GL115097  43.094  21.386   8.850
 5359POPC   GL215098  43.021  21.452   8.850
 5359POPC   C1A15099  43.098  21.358   8.550
 5359POPC   D2A15100  43.114  21.373   8.250
 5359POPC   C3A15101  43.127  21.434   7.950
 5359POPC   C4A15102  43.086  21.356   7.650
 5359POPC   C1B15103  42.928  21.540   8.550
 5359POPC   C2B15104  42.956  21.521   8.250
 5359POPC   C3B15105  42.905  21.530   7.950
 5359POPC   C4B15106  42.983  21.585   7.650
 5360POPC   NC315107   5.903   7.400   9.450
 5360POPC   PO415108   5.904   7.466   9.150
 5360POPC   GL115109   5.915   7.418   8.850
 5360POPC   GL215110   5.741   7.447   8.850
 5360POPC   C1A15111   5.846   7.426   8.550
 5360POPC   D2A15112   5.859   7.388   8.250
 5360POPC   C3A15113   5.873   7.372   7.950
 5360POPC   C4A15114   5.873   7.449   7.650
 5360POPC   C1B15115   5.684   7.563   8.550
 5360POPC   C2B15116   5.671   7.578   8.250
 5360POPC   C3B15117   5.698   7.591   7.950
 5360POPC   C4B15118   5.640   7.580   7.650
 5361POPC   NC315119   5.906   8.930   9.450
 5361POPC   PO415120   5.832   8.995   9.150
 5361POPC   GL115121   5.910   9.012   8.850
 5361POPC   GL215122   6.016   9.018   8.850
 5361POPC   C1A15123   5.914   8.924   8.550
 5361POPC   D2A15124   5.887   8.961   8.250
 5361POPC   C3A15125   5.847   8.966   7.950
 5361POPC   C4A15126   5.907   8.995   7.650
 5361POPC   C1B15127   6.136   9.029   8.550
 5361POPC   C2B15128   6.086   8.980   8.250
 5361POPC   C3B15129   6.110   8.981   7.950
 5361POPC   C4B15130   6.086   8.986   7.650
 5362POPC   NC315131  23.735   4.323   9.450
 5362POPC   PO415132  23.690   4.279   9.150
 5362POPC   GL115133  23.723   4.299   8.850
 5362POPC   GL215134  23.877   4.279   8.850
 5362POPC   C1A15135  23.698   4.326   8.550
 5362POPC   D2A15136  23.741   4.280   8.250
 5362POPC   C3A15137  23.704   4.360   7.950
 5362POPC   C4A15138  23.700   4.296   7.650
 5362POPC   C1B15139  23.966   4.274   8.550
 5362POPC   C2B15140  23.942   4.306   8.250
 5362POPC   C3B15141  23.974   4.345   7.950
 5362POPC   C4B15142  23.913   4.345   7.650
 5363POPC   NC315143   2.788  22.127   9.450
 5363POPC   PO415144   2.808  22.129   9.150
 5363POPC   GL115145   2.802  22.121   8.850
 5363POPC   GL215146   2.852  22.257   8.850
 5363POPC   C1A15147   2.806  22.184   8.550
 5363POPC   D2A15148   2.724  22.151   8.250
 5363POPC   C3A15149   2.730  22.156   7.950
 5363POPC   C4A15150   2.799  22.139   7.650
 5363POPC   C1B15151   3.009  22.274   8.550
 5363POPC   C2B15152   2.966  22.266   8.250
 5363POPC   C3B15153   3.038  22.278   7.950
 5363POPC   C4B15154   3.041  22.251   7.650
 5364POPC   NC315155  36.124  25.291   9.450
 5364POPC   PO415156  36.102  25.235   9.150
 5364POPC   GL115157  36.125  25.307   8.850
 5364POPC   GL215158  36.218  25.170   8.850
 5364POPC   C1A15159  36.131  25.310   8.550
 5364POPC   D2A15160  36.110  25.305   8.250
 5364POPC   C3A15161  36.113  25.245   7.950
 5364POPC   C4A15162  36.083  25.251   7.650
 5364POPC   C1B15163  36.215  25.064   8.550
 5364POPC   C2B15164  36.230  25.077   8.250
 5364POPC   C3B15165  36.208  25.025   7.950
 5364POPC   C4B15166  36.206  25.006   7.650
 5365POPC   NC315167  35.344   9.706   9.450
 5365POPC   PO415168  35.368   9.763   9.150
 5365POPC   GL115169  35.383   9.770   8.850
 5365POPC   GL215170  35.403   9.632   8.850
 5365POPC   C1A15171  35.355   9.733   8.550
 5365POPC   D2A15172  35.331   9.757   8.250
 5365POPC   C3A15173  35.313   9.708   7.950
 5365POPC   C4A15174  35.400   9.773   7.650
 5365POPC   C1B15175  35.338   9.492   8.550
 5365POPC   C2B15176  35.418   9.516   8.250
 5365POPC   C3B15177  35.337   9.498   7.950
 5365POPC   C4B15178  35.415   9.473   7.650
 5366POPC   NC315179  31.499  40.788   9.450
 5366POPC   PO415180  31.459  40.784   9.150
 5366POPC   GL115181  31.432  40.768   8.850
 5366POPC   GL215182  31.494  40.944   8.850
 5366POPC   C1A15183  31.521  40.810   8.550
 5366POPC   D2A15184  31.476  40.790   8.250
 5366POPC   C3A15185  31.425  40.761   7.950
 5366POPC   C4A15186  31.502  40.781   7.650
 5366POPC   C1B15187  31.418  41.069   8.550
 5366POPC   C2B15188  31.457  41.009   8.250
 5366POPC   C3B15189  31.468  41.001   7.950
 5366POPC   C4B15190  31.441  41.078   7.650
 5367POPC   NC315191   6.628  26.009   9.450
 5367POPC   PO415192   6.620  26.041   9.150
 5367POPC   GL115193   6.670  26.047   8.850
 5367POPC   GL215194   6.505  26.100   8.850
 5367POPC   C1A15195   6.675  26.023   8.550
 5367POPC   D2A15196   6.605  26.065   8.250
 5367POPC   C3A15197   6.681  26.058   7.950
 5367POPC   C4A15198   6.607  26.081   7.650
 5367POPC   C1B15199   6.429  26.135   8.550
 5367POPC   C2B15200   6.412  26.116   8.250
 5367POPC   C3B15201   6.379  26.133   7.950
 5367POPC   C4B15202   6.450  26.089   7.650
 5368POPC   NC315203  28.358  24.521   9.450
 5368POPC   PO415204  28.402  24.453   9.150
 5368POPC   GL115205  28.368  24.523   8.850
 5368POPC   GL215206  28.334  24.621   8.850
 5368POPC   C1A15207  28.343  24.511   8.550
 5368POPC   D2A15208  28.404  24.518   8.250
 5368POPC   C3A15209  28.328  24.462   7.950
 5368POPC   C4A15210  28.404  24.537   7.650
 5368POPC   C1B15211  28.399  24.697   8.550
 5368POPC   C2B15212  28.386  24.707   8.250
 5368POPC   C3B15213  28.411  24.732   7.950
 5368POPC   C4B15214  28.354  24.766   7.650
 5369POPC   NC315215  43.137  30.660   9.450
 5369POPC   PO415216  43.074  30.653   9.150
 5369POPC   GL115217  43.126  30.723   8.850
 5369POPC   GL215218  43.042  30.788   8.850
 5369POPC   C1A15219  43.138  30.683   8.550
 5369POPC   D2A15220  43.078  30.685   8.250
 5369POPC   C3A15221  43.153  30.732   7.950
 5369POPC   C4A15222  43.088  30.746   7.650
 5369POPC   C1B15223  42.984  30.896   8.550
 5369POPC   C2B15224  42.997  30.915   8.250
 5369POPC   C3B15225  43.032  30.874   7.950
 5369POPC   C4B15226  42.964  30.888   7.650
 5370POPC   NC315227  20.615  31.471   9.450
 5370POPC   PO415228  20.593  31.427   9.150
 5370POPC   GL115229  20.613  31.496   8.850
 5370POPC   GL215230  20.721  31.484   8.850
 5370POPC   C1A15231  20.631  31.468   8.550
 5370POPC   D2A15232  20.594  31.472   8.250
 5370POPC   C3A15233  20.645  31.428   7.950
 5370POPC   C4A15234  20.644  31.500   7.650
 5370POPC   C1B15235  20.905  31.479   8.550
 5370POPC   C2B15236  20.871  31.450   8.250
 5370POPC   C3B15237  20.885  31.497   7.950
 5370POPC   C4B15238  20.888  31.435   7.650
 5371POPC   NC315239   5.893   0.462   9.450
 5371POPC   PO415240   5.840   0.404   9.150
 5371POPC   GL115241   5.893   0.473   8.850
 5371POPC   GL215242   5.820   0.327   8.850
 5371POPC   C1A15243   5.831   0.466   8.550
 5371POPC   D2A15244   5.854   0.464   8.250
 5371POPC   C3A15245   5.881   0.400   7.950
 5371POPC   C4A15246   5.882   0.453   7.650
 5371POPC   C1B15247   5.739   0.237   8.550
 5371POPC   C2B15248   5.750   0.225   8.250
 5371POPC   C3B15249   5.692   0.257   7.950
 5371POPC   C4B15250   5.708   0.235   7.650
 5372POPC   NC315251  12.836  29.956   9.450
 5372POPC   PO415252  12.815  29.889   9.150
 5372POPC   GL115253  12.901  29.908   8.850
 5372POPC   GL215254  12.803  30.070   8.850
 5372POPC   C1A15255  12.878  29.907   8.550
 5372POPC   D2A15256  12.881  29.936   8.250
 5372POPC   C3A15257  12.830  29.938   7.950
 5372POPC   C4A15258  12.852  29.948   7.650
 5372POPC   C1B15259  12.702  30.112   8.550
 5372POPC   C2B15260  12.703  30.103   8.250
 5372POPC   C3B15261  12.737  30.126   7.950
 5372POPC   C4B15262  12.700  30.084   7.650
 5373POPC   NC315263  37.709  26.003   9.450
 5373POPC   PO415264  37.676  26.038   9.150
 5373POPC   GL115265  37.713  26.048   8.850
 5373POPC   GL215266  37.753  26.128   8.850
 5373POPC   C1A15267  37.661  26.038   8.550
 5373POPC   D2A15268  37.655  26.016   8.250
 5373POPC   C3A15269  37.664  26.018   7.950
 5373POPC   C4A15270  37.669  26.056   7.650
 5373POPC   C1B15271  37.752  26.318   8.550
 5373POPC   C2B15272  37.714  26.335   8.250
 5373POPC   C3B15273  37.730  26.318   7.950
 5373POPC   C4B15274  37.680  26.254   7.650
 5374POPC   NC315275  16.691  24.480   9.450
 5374POPC   PO415276  16.781  24.494   9.150
 5374POPC   GL115277  16.776  24.463   8.850
 5374POPC   GL215278  16.823  24.553   8.850
 5374POPC   C1A15279  16.707  24.477   8.550
 5374POPC   D2A15280  16.732  24.532   8.250
 5374POPC   C3A15281  16.713  24.515   7.950
 5374POPC   C4A15282  16.714  24.522   7.650
 5374POPC   C1B15283  17.016  24.548   8.550
 5374POPC   C2B15284  17.013  24.547   8.250
 5374POPC   C3B15285  17.020  24.538   7.950
 5374POPC   C4B15286  16.995  24.507   7.650
 5375POPC   NC315287   4.316  21.365   9.450
 5375POPC   PO415288   4.365  21.424   9.150
 5375POPC   GL115289   4.272  21.355   8.850
 5375POPC   GL215290   4.450  21.375   8.850
 5375POPC   C1A15291   4.277  21.429   8.550
 5375POPC   D2A15292   4.268  21.424   8.250
 5375POPC   C3A15293   4.286  21.349   7.950
 5375POPC   C4A15294   4.273  21.428   7.650
 5375POPC   C1B15295   4.522  21.251   8.550
 5375POPC   C2B15296   4.545  21.274   8.250
 5375POPC   C3B15297   4.571  21.274   7.950
 5375POPC   C4B15298   4.525  21.255   7.650
 5376POPC   NC315299  24.516  23.719   9.450
 5376POPC   PO415300  24.532  23.695   9.150
 5376POPC   GL115301  24.483  23.707   8.850
 5376POPC   GL215302  24.545  23.594   8.850
 5376POPC   C1A15303  24.531  23.687   8.550
 5376POPC   D2A15304  24.509  23.732   8.250
 5376POPC   C3A15305  24.519  23.745   7.950
 5376POPC   C4A15306  24.464  23.729   7.650
 5376POPC   C1B15307  24.505  23.445   8.550
 5376POPC   C2B15308  24.534  23.492   8.250
 5376POPC   C3B15309  24.503  23.501   7.950
 5376POPC   C4B15310  24.502  23.416   7.650
 5377POPC   NC315311  26.771  16.745   9.450
 5377POPC   PO415312  26.777  16.718   9.150
 5377POPC   GL115313  26.774  16.711   8.850
 5377POPC   GL215314  26.952  16.753   8.850
 5377POPC   C1A15315  26.839  16.759   8.550
 5377POPC   D2A15316  26.865  16.735   8.250
 5377POPC   C3A15317  26.848  16.772   7.950
 5377POPC   C4A15318  26.833  16.713   7.650
 5377POPC   C1B15319  27.101  16.775   8.550
 5377POPC   C2B15320  27.026  16.693   8.250
 5377POPC   C3B15321  27.059  16.686   7.950
 5377POPC   C4B15322  27.101  16.703   7.650
 5378POPC   NC315323  37.707  39.267   9.450
 5378POPC   PO415324  37.709  39.195   9.150
 5378POPC   GL115325  37.721  39.253   8.850
 5378POPC   GL215326  37.656  39.305   8.850
 5378POPC   C1A15327  37.701  39.190   8.550
 5378POPC   D2A15328  37.692  39.241   8.250
 5378POPC   C3A15329  37.688  39.271   7.950
 5378POPC   C4A15330  37.720  39.189   7.650
 5378POPC   C1B15331  37.568  39.450   8.550
 5378POPC   C2B15332  37.601  39.439   8.250
 5378POPC   C3B15333  37.581  39.463   7.950
 5378POPC   C4B15334  37.556  39.441   7.650
 5379POPC   NC315335  15.164  43.101   9.450
 5379POPC   PO415336  15.165  43.144   9.150
 5379POPC   GL115337  15.149  43.106   8.850
 5379POPC   GL215338  15.098  43.166   8.850
 5379POPC   C1A15339  15.200  43.069   8.550
 5379POPC   D2A15340  15.202  43.066   8.250
 5379POPC   C3A15341  15.200  43.141   7.950
 5379POPC   C4A15342  15.174  43.069   7.650
 5379POPC   C1B15343  15.077  43.296   8.550
 5379POPC   C2B15344  15.076  43.321   8.250
 5379POPC   C3B15345  15.067  43.355   7.950
 5379POPC   C4B15346  15.015  43.354   7.650
 5380POPC   NC315347  20.624  12.811   9.450
 5380POPC   PO415348  20.637  12.881   9.150
 5380POPC   GL115349  20.611  12.841   8.850
 5380POPC   GL215350  20.564  12.764   8.850
 5380POPC   C1A15351  20.659  12.817   8.550
 5380POPC   D2A15352  20.581  12.828   8.250
 5380POPC   C3A15353  20.603  12.846   7.950
 5380POPC   C4A15354  20.611  12.838   7.650
 5380POPC   C1B15355  20.470  12.660   8.550
 5380POPC   C2B15356  20.466  12.692   8.250
 5380POPC   C3B15357  20.495  12.666   7.950
 5380POPC   C4B15358  20.488  12.609   7.650
 5381POPC   NC315359  34.592  13.581   9.450
 5381POPC   PO415360  34.616  13.666   9.150
 5381POPC   GL115361  34.607  13.675   8.850
 5381POPC   GL215362  34.620  13.750   8.850
 5381POPC   C1A15363  34.532  13.587   8.550
 5381POPC   D2A15364  34.577  13.674   8.250
 5381POPC   C3A15365  34.583  13.586   7.950
 5381POPC   C4A15366  34.600  13.648   7.650
 5381POPC   C1B15367  34.696  13.878   8.550
 5381POPC   C2B15368  34.774  13.785   8.250
 5381POPC   C3B15369  34.705  13.851   7.950
 5381POPC   C4B15370  34.715  13.867   7.650
 5382POPC   NC315371   5.105  10.488   9.450
 5382POPC   PO415372   5.052  10.502   9.150
 5382POPC   GL115373   5.111  10.555   8.850
 5382POPC   GL215374   5.019  10.410   8.850
 5382POPC   C1A15375   5.108  10.506   8.550
 5382POPC   D2A15376   5.103  10.564   8.250
 5382POPC   C3A15377   5.068  10.560   7.950
 5382POPC   C4A15378   5.095  10.506   7.650
 5382POPC   C1B15379   4.863  10.379   8.550
 5382POPC   C2B15380   4.885  10.350   8.250
 5382POPC   C3B15381   4.941  10.420   7.950
 5382POPC   C4B15382   4.916  10.384   7.650
 5383POPC   NC315383  26.023  31.476   9.450
 5383POPC   PO415384  26.022  31.432   9.150
 5383POPC   GL115385  25.997  31.491   8.850
 5383POPC   GL215386  25.958  31.387   8.850
 5383POPC   C1A15387  25.996  31.502   8.550
 5383POPC   D2A15388  26.073  31.424   8.250
 5383POPC   C3A15389  26.033  31.452   7.950
 5383POPC   C4A15390  25.996  31.497   7.650
 5383POPC   C1B15391  25.873  31.220   8.550
 5383POPC   C2B15392  25.939  31.223   8.250
 5383POPC   C3B15393  25.865  31.308   7.950
 5383POPC   C4B15394  25.862  31.303   7.650
 5384POPC   NC315395  31.504  25.278   9.450
 5384POPC   PO415396  31.470  25.289   9.150
 5384POPC   GL115397  31.423  25.298   8.850
 5384POPC   GL215398  31.617  25.233   8.850
 5384POPC   C1A15399  31.467  25.314   8.550
 5384POPC   D2A15400  31.502  25.228   8.250
 5384POPC   C3A15401  31.485  25.236   7.950
 5384POPC   C4A15402  31.478  25.237   7.650
 5384POPC   C1B15403  31.705  25.056   8.550
 5384POPC   C2B15404  31.703  25.055   8.250
 5384POPC   C3B15405  31.667  25.078   7.950
 5384POPC   C4B15406  31.709  25.076   7.650
 5385POPC   NC315407  16.720  20.644   9.450
 5385POPC   PO415408  16.763  20.631   9.150
 5385POPC   GL115409  16.774  20.591   8.850
 5385POPC   GL215410  16.605  20.597   8.850
 5385POPC   C1A15411  16.691  20.623   8.550
 5385POPC   D2A15412  16.780  20.563   8.250
 5385POPC   C3A15413  16.762  20.597   7.950
 5385POPC   C4A15414  16.733  20.580   7.650
 5385POPC   C1B15415  16.523  20.619   8.550
 5385POPC   C2B15416  16.471  20.594   8.250
 5385POPC   C3B15417  16.520  20.636   7.950
 5385POPC   C4B15418  16.523  20.670   7.650
 5386POPC   NC315419  15.945   4.336   9.450
 5386POPC   PO415420  15.958   4.309   9.150
 5386POPC   GL115421  15.935   4.300   8.850
 5386POPC   GL215422  15.906   4.448   8.850
 5386POPC   C1A15423  15.911   4.269   8.550
 5386POPC   D2A15424  15.968   4.269   8.250
 5386POPC   C3A15425  15.925   4.342   7.950
 5386POPC   C4A15426  15.909   4.350   7.650
 5386POPC   C1B15427  15.891   4.509   8.550
 5386POPC   C2B15428  15.901   4.536   8.250
 5386POPC   C3B15429  15.893   4.569   7.950
 5386POPC   C4B15430  15.889   4.559   7.650
 5387POPC   NC315431   3.493  35.358   9.450
 5387POPC   PO415432   3.528  35.384   9.150
 5387POPC   GL115433   3.564  35.343   8.850
 5387POPC   GL215434   3.441  35.217   8.850
 5387POPC   C1A15435   3.504  35.395   8.550
 5387POPC   D2A15436   3.520  35.373   8.250
 5387POPC   C3A15437   3.573  35.362   7.950
 5387POPC   C4A15438   3.502  35.328   7.650
 5387POPC   C1B15439   3.338  35.156   8.550
 5387POPC   C2B15440   3.338  35.183   8.250
 5387POPC   C3B15441   3.364  35.154   7.950
 5387POPC   C4B15442   3.385  35.134   7.650
 5388POPC   NC315443  23.740  43.151   9.450
 5388POPC   PO415444  23.761  43.142   9.150
 5388POPC   GL115445  23.678  43.091   8.850
 5388POPC   GL215446  23.849  43.000   8.850
 5388POPC   C1A15447  23.751  43.066   8.550
 5388POPC   D2A15448  23.757  43.112   8.250
 5388POPC   C3A15449  23.748  43.123   7.950
 5388POPC   C4A15450  23.758  43.159   7.650
 5388POPC   C1B15451  23.937  43.010   8.550
 5388POPC   C2B15452  23.919  42.982   8.250
 5388POPC   C3B15453  23.884  42.937   7.950
 5388POPC   C4B15454  23.924  42.972   7.650
 5389POPC   NC315455  13.667  38.467   9.450
 5389POPC   PO415456  13.635  38.421   9.150
 5389POPC   GL115457  13.658  38.486   8.850
 5389POPC   GL215458  13.532  38.537   8.850
 5389POPC   C1A15459  13.621  38.493   8.550
 5389POPC   D2A15460  13.659  38.490   8.250
 5389POPC   C3A15461  13.598  38.504   7.950
 5389POPC   C4A15462  13.677  38.437   7.650
 5389POPC   C1B15463  13.348  38.498   8.550
 5389POPC   C2B15464  13.376  38.522   8.250
 5389POPC   C3B15465  13.401  38.511   7.950
 5389POPC   C4B15466  13.404  38.558   7.650
 5390POPC   NC315467   2.811   8.210   9.450
 5390POPC   PO415468   2.770   8.218   9.150
 5390POPC   GL115469   2.806   8.214   8.850
 5390POPC   GL215470   2.800   8.343   8.850
 5390POPC   C1A15471   2.725   8.230   8.550
 5390POPC   D2A15472   2.799   8.235   8.250
 5390POPC   C3A15473   2.722   8.240   7.950
 5390POPC   C4A15474   2.718   8.223   7.650
 5390POPC   C1B15475   2.863   8.455   8.550
 5390POPC   C2B15476   2.921   8.372   8.250
 5390POPC   C3B15477   2.873   8.376   7.950
 5390POPC   C4B15478   2.929   8.397   7.650
 5391POPC   NC315479   5.883   8.242   9.450
 5391POPC   PO415480   5.856   8.189   9.150
 5391POPC   GL115481   5.838   8.158   8.850
 5391POPC   GL215482   5.895   8.329   8.850
 5391POPC   C1A15483   5.871   8.205   8.550
 5391POPC   D2A15484   5.893   8.245   8.250
 5391POPC   C3A15485   5.895   8.175   7.950
 5391POPC   C4A15486   5.892   8.224   7.650
 5391POPC   C1B15487   5.848   8.443   8.550
 5391POPC   C2B15488   5.809   8.427   8.250
 5391POPC   C3B15489   5.792   8.436   7.950
 5391POPC   C4B15490   5.827   8.486   7.650
 5392POPC   NC315491  33.009  19.037   9.450
 5392POPC   PO415492  33.010  19.044   9.150
 5392POPC   GL115493  32.989  19.055   8.850
 5392POPC   GL215494  32.924  19.197   8.850
 5392POPC   C1A15495  33.013  19.061   8.550
 5392POPC   D2A15496  32.985  19.073   8.250
 5392POPC   C3A15497  33.000  19.043   7.950
 5392POPC   C4A15498  33.022  19.040   7.650
 5392POPC   C1B15499  32.906  19.240   8.550
 5392POPC   C2B15500  32.861  19.219   8.250
 5392POPC   C3B15501  32.832  19.263   7.950
 5392POPC   C4B15502  32.842  19.249   7.650
 5393POPC   NC315503  43.123   0.466   9.450
 5393POPC   PO415504  43.077   0.397   9.150
 5393POPC   GL115505  43.141   0.456   8.850
 5393POPC   GL215506  43.017   0.437   8.850
 5393POPC   C1A15507  43.097   0.472   8.550
 5393POPC   D2A15508  43.151   0.400   8.250
 5393POPC   C3A15509  43.063   0.442   7.950
 5393POPC   C4A15510  43.151   0.418   7.650
 5393POPC   C1B15511  42.846   0.558   8.550
 5393POPC   C2B15512  42.910   0.523   8.250
 5393POPC   C3B15513  42.836   0.497   7.950
 5393POPC   C4B15514  42.894   0.529   7.650
 5394POPC   NC315515   8.227   4.322   9.450
 5394POPC   PO415516   8.172   4.284   9.150
 5394POPC   GL115517   8.216   4.276   8.850
 5394POPC   GL215518   8.155   4.246   8.850
 5394POPC   C1A15519   8.236   4.308   8.550
 5394POPC   D2A15520   8.241   4.303   8.250
 5394POPC   C3A15521   8.211   4.345   7.950
 5394POPC   C4A15522   8.191   4.274   7.650
 5394POPC   C1B15523   8.062   4.117   8.550
 5394POPC   C2B15524   8.067   4.097   8.250
 5394POPC   C3B15525   8.110   4.051   7.950
 5394POPC   C4B15526   8.103   4.046   7.650
 5395POPC   NC315527  15.216  24.490   9.450
 5395POPC   PO415528  15.200  24.491   9.150
 5395POPC   GL115529  15.189  24.450   8.850
 5395POPC   GL215530  15.109  24.386   8.850
 5395POPC   C1A15531  15.154  24.534   8.550
 5395POPC   D2A15532  15.131  24.481   8.250
 5395POPC   C3A15533  15.223  24.483   7.950
 5395POPC   C4A15534  15.153  24.450   7.650
 5395POPC   C1B15535  15.077  24.289   8.550
 5395POPC   C2B15536  15.056  24.279   8.250
 5395POPC   C3B15537  15.104  24.225   7.950
 5395POPC   C4B15538  15.112  24.255   7.650
 5396POPC   NC315539  35.367  20.604   9.450
 5396POPC   PO415540  35.351  20.582   9.150
 5396POPC   GL115541  35.351  20.612   8.850
 5396POPC   GL215542  35.458  20.500   8.850
 5396POPC   C1A15543  35.328  20.612   8.550
 5396POPC   D2A15544  35.340  20.619   8.250
 5396POPC   C3A15545  35.385  20.639   7.950
 5396POPC   C4A15546  35.390  20.589   7.650
 5396POPC   C1B15547  35.511  20.371   8.550
 5396POPC   C2B15548  35.449  20.366   8.250
 5396POPC   C3B15549  35.522  20.354   7.950
 5396POPC   C4B15550  35.457  20.351   7.650
 5397POPC   NC315551   4.339  22.953   9.450
 5397POPC   PO415552   4.308  22.962   9.150
 5397POPC   GL115553   4.307  22.908   8.850
 5397POPC   GL215554   4.426  23.086   8.850
 5397POPC   C1A15555   4.312  22.964   8.550
 5397POPC   D2A15556   4.359  22.982   8.250
 5397POPC   C3A15557   4.314  22.968   7.950
 5397POPC   C4A15558   4.317  22.908   7.650
 5397POPC   C1B15559   4.515  23.110   8.550
 5397POPC   C2B15560   4.477  23.146   8.250
 5397POPC   C3B15561   4.481  23.141   7.950
 5397POPC   C4B15562   4.424  23.099   7.650
 5398POPC   NC315563   3.578  43.113   9.450
 5398POPC   PO415564   3.530  43.085   9.150
 5398POPC   GL115565   3.535  43.090   8.850
 5398POPC   GL215566   3.656  43.221   8.850
 5398POPC   C1A15567   3.520  43.125   8.550
 5398POPC   D2A15568   3.560  43.068   8.250
 5398POPC   C3A15569   3.499  43.091   7.950
 5398POPC   C4A15570   3.564  43.133   7.650
 5398POPC   C1B15571   3.727  43.302   8.550
 5398POPC   C2B15572   3.726  43.295   8.250
 5398POPC   C3B15573   3.675  43.295   7.950
 5398POPC   C4B15574   3.717  43.338   7.650
 5399POPC   NC315575  28.401  20.598   9.450
 5399POPC   PO415576  28.325  20.627   9.150
 5399POPC   GL115577  28.403  20.658   8.850
 5399POPC   GL215578  28.274  20.659   8.850
 5399POPC   C1A15579  28.345  20.608   8.550
 5399POPC   D2A15580  28.324  20.646   8.250
 5399POPC   C3A15581  28.370  20.638   7.950
 5399POPC   C4A15582  28.361  20.637   7.650
 5399POPC   C1B15583  28.121  20.679   8.550
 5399POPC   C2B15584  28.124  20.723   8.250
 5399POPC   C3B15585  28.162  20.766   7.950
 5399POPC   C4B15586  28.177  20.680   7.650
 5400POPC   NC315587  21.388   2.800   9.450
 5400POPC   PO415588  21.405   2.767   9.150
 5400POPC   GL115589  21.347   2.782   8.850
 5400POPC   GL215590  21.343   2.924   8.850
 5400POPC   C1A15591  21.382   2.765   8.550
 5400POPC   D2A15592  21.373   2.765   8.250
 5400POPC   C3A15593  21.405   2.752   7.950
 5400POPC   C4A15594  21.421   2.731   7.650
 5400POPC   C1B15595  21.287   2.959   8.550
 5400POPC   C2B15596  21.342   3.027   8.250
 5400POPC   C3B15597  21.265   2.981   7.950
 5400POPC   C4B15598  21.289   2.976   7.650
 5401POPC   NC315599  28.374   1.185   9.450
 5401POPC   PO415600  28.379   1.169   9.150
 5401POPC   GL115601  28.323   1.262   8.850
 5401POPC   GL215602  28.431   1.349   8.850
 5401POPC   C1A15603  28.387   1.195   8.550
 5401POPC   D2A15604  28.341   1.175   8.250
 5401POPC   C3A15605  28.375   1.209   7.950
 5401POPC   C4A15606  28.391   1.230   7.650
 5401POPC   C1B15607  28.420   1.440   8.550
 5401POPC   C2B15608  28.403   1.421   8.250
 5401POPC   C3B15609  28.361   1.417   7.950
 5401POPC   C4B15610  28.397   1.431   7.650
 5402POPC   NC315611  42.340  43.144   9.450
 5402POPC   PO415612  42.301  43.069   9.150
 5402POPC   GL115613  42.285  43.071   8.850
 5402POPC   GL215614  42.389  43.210   8.850
 5402POPC   C1A15615  42.286  43.133   8.550
 5402POPC   D2A15616  42.324  43.141   8.250
 5402POPC   C3A15617  42.333  43.086   7.950
 5402POPC   C4A15618  42.325  43.154   7.650
 5402POPC   C1B15619  42.363  43.370   8.550
 5402POPC   C2B15620  42.379  43.348   8.250
 5402POPC   C3B15621  42.401  43.361   7.950
 5402POPC   C4B15622  42.371  43.384   7.650
 5403POPC   NC315623   9.022   9.705   9.450
 5403POPC   PO415624   9.022   9.715   9.150
 5403POPC   GL115625   8.935   9.766   8.850
 5403POPC   GL215626   9.027   9.849   8.850
 5403POPC   C1A15627   9.009   9.738   8.550
 5403POPC   D2A15628   8.987   9.739   8.250
 5403POPC   C3A15629   8.985   9.780   7.950
 5403POPC   C4A15630   9.015   9.737   7.650
 5403POPC   C1B15631   9.153   9.885   8.550
 5403POPC   C2B15632   9.148   9.963   8.250
 5403POPC   C3B15633   9.160   9.947   7.950
 5403POPC   C4B15634   9.158   9.875   7.650
 5404POPC   NC315635   3.579  30.649   9.450
 5404POPC   PO415636   3.530  30.691   9.150
 5404POPC   GL115637   3.505  30.648   8.850
 5404POPC   GL215638   3.589  30.813   8.850
 5404POPC   C1A15639   3.552  30.708   8.550
 5404POPC   D2A15640   3.502  30.669   8.250
 5404POPC   C3A15641   3.496  30.716   7.950
 5404POPC   C4A15642   3.580  30.676   7.650
 5404POPC   C1B15643   3.720  30.884   8.550
 5404POPC   C2B15644   3.749  30.838   8.250
 5404POPC   C3B15645   3.733  30.854   7.950
 5404POPC   C4B15646   3.714  30.897   7.650
 5405POPC   NC315647  19.088  26.839   9.450
 5405POPC   PO415648  19.021  26.799   9.150
 5405POPC   GL115649  19.026  26.825   8.850
 5405POPC   GL215650  19.154  26.932   8.850
 5405POPC   C1A15651  19.049  26.809   8.550
 5405POPC   D2A15652  19.077  26.853   8.250
 5405POPC   C3A15653  19.082  26.784   7.950
 5405POPC   C4A15654  19.102  26.863   7.650
 5405POPC   C1B15655  19.128  27.071   8.550
 5405POPC   C2B15656  19.189  27.036   8.250
 5405POPC   C3B15657  19.171  27.048   7.950
 5405POPC   C4B15658  19.191  27.077   7.650
 5406POPC   NC315659  29.164  35.370   9.450
 5406POPC   PO415660  29.134  35.344   9.150
 5406POPC   GL115661  29.131  35.380   8.850
 5406POPC   GL215662  29.314  35.401   8.850
 5406POPC   C1A15663  29.146  35.371   8.550
 5406POPC   D2A15664  29.120  35.330   8.250
 5406POPC   C3A15665  29.137  35.304   7.950
 5406POPC   C4A15666  29.101  35.401   7.650
 5406POPC   C1B15667  29.434  35.362   8.550
 5406POPC   C2B15668  29.424  35.373   8.250
 5406POPC   C3B15669  29.440  35.366   7.950
 5406POPC   C4B15670  29.411  35.388   7.650
 5407POPC   NC315671   8.192  24.494   9.450
 5407POPC   PO415672   8.151  24.535   9.150
 5407POPC   GL115673   8.198  24.449   8.850
 5407POPC   GL215674   8.242  24.357   8.850
 5407POPC   C1A15675   8.196  24.464   8.550
 5407POPC   D2A15676   8.186  24.516   8.250
 5407POPC   C3A15677   8.215  24.503   7.950
 5407POPC   C4A15678   8.184  24.442   7.650
 5407POPC   C1B15679   8.372  24.322   8.550
 5407POPC   C2B15680   8.343  24.323   8.250
 5407POPC   C3B15681   8.391  24.296   7.950
 5407POPC   C4B15682   8.355  24.304   7.650
 5408POPC   NC315683   8.241  43.854   9.450
 5408POPC   PO415684   8.173  43.915   9.150
 5408POPC   GL115685   8.161  43.878   8.850
 5408POPC   GL215686   8.098  43.992   8.850
 5408POPC   C1A15687   8.230  43.889   8.550
 5408POPC   D2A15688   8.149  43.855   8.250
 5408POPC   C3A15689   8.210  43.897   7.950
 5408POPC   C4A15690   8.195  43.930   7.650
 5408POPC   C1B15691   8.065  44.057   8.550
 5408POPC   C2B15692   8.046  44.037   8.250
 5408POPC   C3B15693   8.006  44.109   7.950
 5408POPC   C4B15694   8.046  44.099   7.650
 5409POPC   NC315695  29.895   6.627   9.450
 5409POPC   PO415696  29.916   6.683   9.150
 5409POPC   GL115697  29.894   6.651   8.850
 5409POPC   GL215698  30.028   6.613   8.850
 5409POPC   C1A15699  29.938   6.689   8.550
 5409POPC   D2A15700  29.966   6.598   8.250
 5409POPC   C3A15701  29.965   6.669   7.950
 5409POPC   C4A15702  29.947   6.616   7.650
 5409POPC   C1B15703  30.199   6.607   8.550
 5409POPC   C2B15704  30.212   6.618   8.250
 5409POPC   C3B15705  30.163   6.641   7.950
 5409POPC   C4B15706  30.210   6.611   7.650
 5410POPC   NC315707   5.843  14.394   9.450
 5410POPC   PO415708   5.842  14.376   9.150
 5410POPC   GL115709   5.855  14.368   8.850
 5410POPC   GL215710   5.789  14.315   8.850
 5410POPC   C1A15711   5.855  14.424   8.550
 5410POPC   D2A15712   5.916  14.428   8.250
 5410POPC   C3A15713   5.856  14.373   7.950
 5410POPC   C4A15714   5.841  14.423   7.650
 5410POPC   C1B15715   5.615  14.220   8.550
 5410POPC   C2B15716   5.633  14.259   8.250
 5410POPC   C3B15717   5.647  14.221   7.950
 5410POPC   C4B15718   5.659  14.289   7.650
 5411POPC   NC315719  24.472  29.897   9.450
 5411POPC   PO415720  24.443  29.953   9.150
 5411POPC   GL115721  24.514  29.947   8.850
 5411POPC   GL215722  24.632  29.942   8.850
 5411POPC   C1A15723  24.509  29.907   8.550
 5411POPC   D2A15724  24.513  29.914   8.250
 5411POPC   C3A15725  24.531  29.922   7.950
 5411POPC   C4A15726  24.534  29.934   7.650
 5411POPC   C1B15727  24.711  29.945   8.550
 5411POPC   C2B15728  24.736  29.877   8.250
 5411POPC   C3B15729  24.755  29.913   7.950
 5411POPC   C4B15730  24.700  29.920   7.650
 5412POPC   NC315731  23.725  22.964   9.450
 5412POPC   PO415732  23.681  22.904   9.150
 5412POPC   GL115733  23.702  22.953   8.850
 5412POPC   GL215734  23.823  22.842   8.850
 5412POPC   C1A15735  23.670  22.972   8.550
 5412POPC   D2A15736  23.758  22.964   8.250
 5412POPC   C3A15737  23.733  22.923   7.950
 5412POPC   C4A15738  23.731  22.963   7.650
 5412POPC   C1B15739  23.900  22.791   8.550
 5412POPC   C2B15740  23.887  22.767   8.250
 5412POPC   C3B15741  23.831  22.779   7.950
 5412POPC   C4B15742  23.877  22.792   7.650
 5413POPC   NC315743  40.830  27.562   9.450
 5413POPC   PO415744  40.776  27.559   9.150
 5413POPC   GL115745  40.758  27.568   8.850
 5413POPC   GL215746  40.714  27.490   8.850
 5413POPC   C1A15747  40.760  27.592   8.550
 5413POPC   D2A15748  40.736  27.579   8.250
 5413POPC   C3A15749  40.825  27.545   7.950
 5413POPC   C4A15750  40.817  27.545   7.650
 5413POPC   C1B15751  40.705  27.378   8.550
 5413POPC   C2B15752  40.757  27.359   8.250
 5413POPC   C3B15753  40.677  27.315   7.950
 5413POPC   C4B15754  40.706  27.315   7.650
 5414POPC   NC315755  27.577   3.545   9.450
 5414POPC   PO415756  27.584   3.515   9.150
 5414POPC   GL115757  27.555   3.492   8.850
 5414POPC   GL215758  27.488   3.566   8.850
 5414POPC   C1A15759  27.578   3.493   8.550
 5414POPC   D2A15760  27.630   3.576   8.250
 5414POPC   C3A15761  27.601   3.533   7.950
 5414POPC   C4A15762  27.559   3.543   7.650
 5414POPC   C1B15763  27.348   3.563   8.550
 5414POPC   C2B15764  27.369   3.562   8.250
 5414POPC   C3B15765  27.360   3.543   7.950
 5414POPC   C4B15766  27.350   3.568   7.650
 5415POPC   NC315767  17.537  24.461   9.450
 5415POPC   PO415768  17.464  24.471   9.150
 5415POPC   GL115769  17.554  24.448   8.850
 5415POPC   GL215770  17.385  24.343   8.850
 5415POPC   C1A15771  17.465  24.530   8.550
 5415POPC   D2A15772  17.462  24.487   8.250
 5415POPC   C3A15773  17.528  24.515   7.950
 5415POPC   C4A15774  17.491  24.443   7.650
 5415POPC   C1B15775  17.389  24.242   8.550
 5415POPC   C2B15776  17.326  24.268   8.250
 5415POPC   C3B15777  17.400  24.266   7.950
 5415POPC   C4B15778  17.353  24.306   7.650
 5416POPC   NC315779  25.270  26.779   9.450
 5416POPC   PO415780  25.314  26.776   9.150
 5416POPC   GL115781  25.314  26.789   8.850
 5416POPC   GL215782  25.332  26.883   8.850
 5416POPC   C1A15783  25.301  26.803   8.550
 5416POPC   D2A15784  25.301  26.803   8.250
 5416POPC   C3A15785  25.290  26.840   7.950
 5416POPC   C4A15786  25.273  26.773   7.650
 5416POPC   C1B15787  25.418  27.039   8.550
 5416POPC   C2B15788  25.395  26.985   8.250
 5416POPC   C3B15789  25.402  26.983   7.950
 5416POPC   C4B15790  25.457  27.033   7.650
 5417POPC   NC315791  25.299  36.108   9.450
 5417POPC   PO415792  25.247  36.116   9.150
 5417POPC   GL115793  25.233  36.085   8.850
 5417POPC   GL215794  25.264  36.249   8.850
 5417POPC   C1A15795  25.216  36.129   8.550
 5417POPC   D2A15796  25.300  36.083   8.250
 5417POPC   C3A15797  25.226  36.160   7.950
 5417POPC   C4A15798  25.293  36.173   7.650
 5417POPC   C1B15799  25.285  36.398   8.550
 5417POPC   C2B15800  25.257  36.369   8.250
 5417POPC   C3B15801  25.259  36.387   7.950
 5417POPC   C4B15802  25.269  36.373   7.650
 5418POPC   NC315803  43.843  13.634   9.450
 5418POPC   PO415804  43.893  13.641   9.150
 5418POPC   GL115805  43.845  13.637   8.850
 5418POPC   GL215806  43.989  13.722   8.850
 5418POPC   C1A15807  43.919  13.667   8.550
 5418POPC   D2A15808  43.864  13.660   8.250
 5418POPC   C3A15809  43.907  13.619   7.950
 5418POPC   C4A15810  43.854  13.627   7.650
 5418POPC   C1B15811  44.153  13.773   8.550
 5418POPC   C2B15812  44.070  13.708   8.250
 5418POPC   C3B15813  44.149  13.706   7.950
 5418POPC   C4B15814  44.109  13.742   7.650
 5419POPC   NC315815  41.532   9.777   9.450
 5419POPC   PO415816  41.512   9.761   9.150
 5419POPC   GL115817  41.584   9.775   8.850
 5419POPC   GL215818  41.639   9.742   8.850
 5419POPC   C1A15819  41.593   9.769   8.550
 5419POPC   D2A15820  41.517   9.699   8.250
 5419POPC   C3A15821  41.553   9.791   7.950
 5419POPC   C4A15822  41.607   9.738   7.650
 5419POPC   C1B15823  41.839   9.779   8.550
 5419POPC   C2B15824  41.787   9.733   8.250
 5419POPC   C3B15825  41.837   9.819   7.950
 5419POPC   C4B15826  41.858   9.770   7.650
 5420POPC   NC315827  20.653  37.634   9.450
 5420POPC   PO415828  20.585  37.637   9.150
 5420POPC   GL115829  20.623  37.641   8.850
 5420POPC   GL215830  20.538  37.741   8.850
 5420POPC   C1A15831  20.581  37.693   8.550
 5420POPC   D2A15832  20.577  37.727   8.250
 5420POPC   C3A15833  20.601  37.698   7.950
 5420POPC   C4A15834  20.624  37.630   7.650
 5420POPC   C1B15835  20.448  37.786   8.550
 5420POPC   C2B15836  20.388  37.817   8.250
 5420POPC   C3B15837  20.452  37.823   7.950
 5420POPC   C4B15838  20.416  37.863   7.650
 5421POPC   NC315839  32.987  37.702   9.450
 5421POPC   PO415840  33.013  37.659   9.150
 5421POPC   GL115841  33.044  37.636   8.850
 5421POPC   GL215842  32.945  37.722   8.850
 5421POPC   C1A15843  33.020  37.686   8.550
 5421POPC   D2A15844  33.007  37.658   8.250
 5421POPC   C3A15845  32.985  37.728   7.950
 5421POPC   C4A15846  33.046  37.725   7.650
 5421POPC   C1B15847  32.820  37.787   8.550
 5421POPC   C2B15848  32.789  37.878   8.250
 5421POPC   C3B15849  32.807  37.802   7.950
 5421POPC   C4B15850  32.810  37.782   7.650
 5422POPC   NC315851  11.339  16.714   9.450
 5422POPC   PO415852  11.306  16.762   9.150
 5422POPC   GL115853  11.255  16.694   8.850
 5422POPC   GL215854  11.342  16.598   8.850
 5422POPC   C1A15855  11.285  16.702   8.550
 5422POPC   D2A15856  11.311  16.728   8.250
 5422POPC   C3A15857  11.313  16.750   7.950
 5422POPC   C4A15858  11.311  16.751   7.650
 5422POPC   C1B15859  11.343  16.516   8.550
 5422POPC   C2B15860  11.350  16.483   8.250
 5422POPC   C3B15861  11.370  16.474   7.950
 5422POPC   C4B15862  11.351  16.491   7.650
 5423POPC   NC315863  10.510  19.042   9.450
 5423POPC   PO415864  10.502  19.074   9.150
 5423POPC   GL115865  10.535  19.037   8.850
 5423POPC   GL215866  10.623  18.944   8.850
 5423POPC   C1A15867  10.537  19.089   8.550
 5423POPC   D2A15868  10.504  19.096   8.250
 5423POPC   C3A15869  10.574  19.096   7.950
 5423POPC   C4A15870  10.564  19.102   7.650
 5423POPC   C1B15871  10.682  18.922   8.550
 5423POPC   C2B15872  10.747  18.856   8.250
 5423POPC   C3B15873  10.743  18.924   7.950
 5423POPC   C4B15874  10.715  18.853   7.650
 5424POPC   NC315875   9.784  41.544   9.450
 5424POPC   PO415876   9.766  41.606   9.150
 5424POPC   GL115877   9.744  41.563   8.850
 5424POPC   GL215878   9.788  41.452   8.850
 5424POPC   C1A15879   9.766  41.509   8.550
 5424POPC   D2A15880   9.753  41.566   8.250
 5424POPC   C3A15881   9.714  41.562   7.950
 5424POPC   C4A15882   9.708  41.543   7.650
 5424POPC   C1B15883   9.891  41.323   8.550
 5424POPC   C2B15884   9.834  41.347   8.250
 5424POPC   C3B15885   9.824  41.294   7.950
 5424POPC   C4B15886   9.860  41.294   7.650
 5425POPC   NC315887   5.878  29.928   9.450
 5425POPC   PO415888   5.866  29.967   9.150
 5425POPC   GL115889   5.884  29.875   8.850
 5425POPC   GL215890   5.952  29.894   8.850
 5425POPC   C1A15891   5.893  29.919   8.550
 5425POPC   D2A15892   5.847  29.871   8.250
 5425POPC   C3A15893   5.894  29.904   7.950
 5425POPC   C4A15894   5.840  29.873   7.650
 5425POPC   C1B15895   6.066  29.878   8.550
 5425POPC   C2B15896   6.059  29.888   8.250
 5425POPC   C3B15897   6.143  29.833   7.950
 5425POPC   C4B15898   6.060  29.811   7.650
 5426POPC   NC315899   9.766  18.291   9.450
 5426POPC   PO415900   9.747  18.277   9.150
 5426POPC   GL115901   9.794  18.259   8.850
 5426POPC   GL215902   9.720  18.371   8.850
 5426POPC   C1A15903   9.714  18.243   8.550
 5426POPC   D2A15904   9.746  18.320   8.250
 5426POPC   C3A15905   9.727  18.319   7.950
 5426POPC   C4A15906   9.712  18.309   7.650
 5426POPC   C1B15907   9.698  18.571   8.550
 5426POPC   C2B15908   9.680  18.535   8.250
 5426POPC   C3B15909   9.727  18.481   7.950
 5426POPC   C4B15910   9.657  18.499   7.650
 5427POPC   NC315911   5.091  32.268   9.450
 5427POPC   PO415912   5.072  32.203   9.150
 5427POPC   GL115913   5.103  32.253   8.850
 5427POPC   GL215914   4.941  32.182   8.850
 5427POPC   C1A15915   5.082  32.256   8.550
 5427POPC   D2A15916   5.141  32.294   8.250
 5427POPC   C3A15917   5.084  32.241   7.950
 5427POPC   C4A15918   5.122  32.202   7.650
 5427POPC   C1B15919   4.823  32.182   8.550
 5427POPC   C2B15920   4.800  32.186   8.250
 5427POPC   C3B15921   4.872  32.165   7.950
 5427POPC   C4B15922   4.843  32.178   7.650
 5428POPC   NC315923  34.538   7.421   9.450
 5428POPC   PO415924  34.591   7.403   9.150
 5428POPC   GL115925  34.593   7.439   8.850
 5428POPC   GL215926  34.638   7.322   8.850
 5428POPC   C1A15927  34.606   7.385   8.550
 5428POPC   D2A15928  34.571   7.457   8.250
 5428POPC   C3A15929  34.550   7.387   7.950
 5428POPC   C4A15930  34.611   7.393   7.650
 5428POPC   C1B15931  34.644   7.216   8.550
 5428POPC   C2B15932  34.661   7.197   8.250
 5428POPC   C3B15933  34.680   7.218   7.950
 5428POPC   C4B15934  34.707   7.217   7.650
 5429POPC   NC315935  42.377  33.779   9.450
 5429POPC   PO415936  42.364  33.753   9.150
 5429POPC   GL115937  42.328  33.801   8.850
 5429POPC   GL215938  42.424  33.779   8.850
 5429POPC   C1A15939  42.315  33.835   8.550
 5429POPC   D2A15940  42.382  33.836   8.250
 5429POPC   C3A15941  42.357  33.804   7.950
 5429POPC   C4A15942  42.359  33.817   7.650
 5429POPC   C1B15943  42.565  33.735   8.550
 5429POPC   C2B15944  42.616  33.783   8.250
 5429POPC   C3B15945  42.593  33.741   7.950
 5429POPC   C4B15946  42.579  33.799   7.650
 5430POPC   NC315947  29.878   8.222   9.450
 5430POPC   PO415948  29.922   8.185   9.150
 5430POPC   GL115949  29.882   8.186   8.850
 5430POPC   GL215950  29.762   8.172   8.850
 5430POPC   C1A15951  29.958   8.243   8.550
 5430POPC   D2A15952  29.918   8.173   8.250
 5430POPC   C3A15953  29.887   8.193   7.950
 5430POPC   C4A15954  29.872   8.201   7.650
 5430POPC   C1B15955  29.707   8.204   8.550
 5430POPC   C2B15956  29.687   8.277   8.250
 5430POPC   C3B15957  29.689   8.257   7.950
 5430POPC   C4B15958  29.625   8.215   7.650
 5431POPC   NC315959   2.039  10.519   9.450
 5431POPC   PO415960   2.040  10.475   9.150
 5431POPC   GL115961   1.996  10.549   8.850
 5431POPC   GL215962   1.899  10.513   8.850
 5431POPC   C1A15963   1.970  10.528   8.550
 5431POPC   D2A15964   2.019  10.553   8.250
 5431POPC   C3A15965   1.963  10.476   7.950
 5431POPC   C4A15966   1.992  10.533   7.650
 5431POPC   C1B15967   1.724  10.558   8.550
 5431POPC   C2B15968   1.718  10.616   8.250
 5431POPC   C3B15969   1.720  10.579   7.950
 5431POPC   C4B15970   1.769  10.637   7.650
 5432POPC   NC315971  12.821  10.500   9.450
 5432POPC   PO415972  12.829  10.552   9.150
 5432POPC   GL115973  12.840  10.553   8.850
 5432POPC   GL215974  12.853  10.361   8.850
 5432POPC   C1A15975  12.880  10.557   8.550
 5432POPC   D2A15976  12.879  10.555   8.250
 5432POPC   C3A15977  12.874  10.503   7.950
 5432POPC   C4A15978  12.841  10.548   7.650
 5432POPC   C1B15979  12.814  10.265   8.550
 5432POPC   C2B15980  12.833  10.255   8.250
 5432POPC   C3B15981  12.788  10.297   7.950
 5432POPC   C4B15982  12.836  10.291   7.650
 5433POPC   NC315983  28.371  11.280   9.450
 5433POPC   PO415984  28.369  11.268   9.150
 5433POPC   GL115985  28.367  11.311   8.850
 5433POPC   GL215986  28.295  11.212   8.850
 5433POPC   C1A15987  28.352  11.257   8.550
 5433POPC   D2A15988  28.404  11.286   8.250
 5433POPC   C3A15989  28.373  11.250   7.950
 5433POPC   C4A15990  28.337  11.279   7.650
 5433POPC   C1B15991  28.229  11.142   8.550
 5433POPC   C2B15992  28.246  11.128   8.250
 5433POPC   C3B15993  28.153  11.089   7.950
 5433POPC   C4B15994  28.218  11.120   7.650
 5434POPC   NC315995  26.074  13.636   9.450
 5434POPC   PO415996  26.020  13.594   9.150
 5434POPC   GL115997  25.997  13.620   8.850
 5434POPC   GL215998  26.155  13.738   8.850
 5434POPC   C1A15999  26.047  13.675   8.550
 5434POPC   D2A16000  26.055  13.614   8.250
 5434POPC   C3A16001  26.066  13.635   7.950
 5434POPC   C4A16002  26.024  13.587   7.650
 5434POPC   C1B16003  26.166  13.877   8.550
 5434POPC   C2B16004  26.151  13.806   8.250
 5434POPC   C3B16005  26.134  13.823   7.950
 5434POPC   C4B16006  26.172  13.847   7.650
 5435POPC   NC316007   3.545   2.749   9.450
 5435POPC   PO416008   3.557   2.719   9.150
 5435POPC   GL116009   3.521   2.749   8.850
 5435POPC   GL216010   3.590   2.858   8.850
 5435POPC   C1A16011   3.544   2.801   8.550
 5435POPC   D2A16012   3.498   2.814   8.250
 5435POPC   C3A16013   3.556   2.740   7.950
 5435POPC   C4A16014   3.524   2.729   7.650
 5435POPC   C1B16015   3.567   2.982   8.550
 5435POPC   C2B16016   3.589   2.986   8.250
 5435POPC   C3B16017   3.621   2.982   7.950
 5435POPC   C4B16018   3.634   2.978   7.650
 5436POPC   NC316019  36.903   8.982   9.450
 5436POPC   PO416020  36.935   8.943   9.150
 5436POPC   GL116021  36.921   8.932   8.850
 5436POPC   GL216022  36.822   8.996   8.850
 5436POPC   C1A16023  36.924   8.942   8.550
 5436POPC   D2A16024  36.897   9.007   8.250
 5436POPC   C3A16025  36.856   9.008   7.950
 5436POPC   C4A16026  36.901   9.007   7.650
 5436POPC   C1B16027  36.643   9.079   8.550
 5436POPC   C2B16028  36.688   9.077   8.250
 5436POPC   C3B16029  36.661   9.025   7.950
 5436POPC   C4B16030  36.660   9.098   7.650
 5437POPC   NC316031  21.339  23.669   9.450
 5437POPC   PO416032  21.346  23.706   9.150
 5437POPC   GL116033  21.409  23.752   8.850
 5437POPC   GL216034  21.426  23.587   8.850
 5437POPC   C1A16035  21.390  23.701   8.550
 5437POPC   D2A16036  21.368  23.673   8.250
 5437POPC   C3A16037  21.367  23.697   7.950
 5437POPC   C4A16038  21.388  23.664   7.650
 5437POPC   C1B16039  21.383  23.458   8.550
 5437POPC   C2B16040  21.418  23.508   8.250
 5437POPC   C3B16041  21.427  23.484   7.950
 5437POPC   C4B16042  21.477  23.463   7.650
 5438POPC   NC316043   8.964  22.957   9.450
 5438POPC   PO416044   8.951  22.952   9.150
 5438POPC   GL116045   8.954  22.922   8.850
 5438POPC   GL216046   8.917  22.841   8.850
 5438POPC   C1A16047   8.968  22.965   8.550
 5438POPC   D2A16048   8.965  22.900   8.250
 5438POPC   C3A16049   8.954  22.916   7.950
 5438POPC   C4A16050   9.003  22.935   7.650
 5438POPC   C1B16051   8.797  22.787   8.550
 5438POPC   C2B16052   8.868  22.756   8.250
 5438POPC   C3B16053   8.845  22.732   7.950
 5438POPC   C4B16054   8.863  22.745   7.650
 5439POPC   NC316055  39.984  40.055   9.450
 5439POPC   PO416056  40.015  39.994   9.150
 5439POPC   GL116057  39.968  39.975   8.850
 5439POPC   GL216058  40.071  40.140   8.850
 5439POPC   C1A16059  39.986  39.958   8.550
 5439POPC   D2A16060  39.995  39.965   8.250
 5439POPC   C3A16061  40.016  39.997   7.950
 5439POPC   C4A16062  40.047  40.013   7.650
 5439POPC   C1B16063  40.197  40.231   8.550
 5439POPC   C2B16064  40.186  40.173   8.250
 5439POPC   C3B16065  40.119  40.233   7.950
 5439POPC   C4B16066  40.118  40.199   7.650
 5440POPC   NC316067  19.108   2.755   9.450
 5440POPC   PO416068  19.045   2.762   9.150
 5440POPC   GL116069  19.092   2.776   8.850
 5440POPC   GL216070  19.206   2.661   8.850
 5440POPC   C1A16071  19.056   2.785   8.550
 5440POPC   D2A16072  19.057   2.744   8.250
 5440POPC   C3A16073  19.051   2.740   7.950
 5440POPC   C4A16074  19.036   2.734   7.650
 5440POPC   C1B16075  19.285   2.605   8.550
 5440POPC   C2B16076  19.216   2.602   8.250
 5440POPC   C3B16077  19.207   2.572   7.950
 5440POPC   C4B16078  19.276   2.584   7.650
 5441POPC   NC316079  25.264  12.868   9.450
 5441POPC   PO416080  25.298  12.807   9.150
 5441POPC   GL116081  25.280  12.839   8.850
 5441POPC   GL216082  25.188  12.909   8.850
 5441POPC   C1A16083  25.268  12.876   8.550
 5441POPC   D2A16084  25.223  12.858   8.250
 5441POPC   C3A16085  25.310  12.826   7.950
 5441POPC   C4A16086  25.234  12.830   7.650
 5441POPC   C1B16087  25.121  13.062   8.550
 5441POPC   C2B16088  25.057  13.021   8.250
 5441POPC   C3B16089  25.113  13.021   7.950
 5441POPC   C4B16090  25.102  13.069   7.650
 5442POPC   NC316091  17.495  15.224   9.450
 5442POPC   PO416092  17.478  15.191   9.150
 5442POPC   GL116093  17.473  15.186   8.850
 5442POPC   GL216094  17.630  15.065   8.850
 5442POPC   C1A16095  17.556  15.223   8.550
 5442POPC   D2A16096  17.535  15.195   8.250
 5442POPC   C3A16097  17.469  15.172   7.950
 5442POPC   C4A16098  17.478  15.191   7.650
 5442POPC   C1B16099  17.733  15.053   8.550
 5442POPC   C2B16100  17.678  15.079   8.250
 5442POPC   C3B16101  17.681  14.985   7.950
 5442POPC   C4B16102  17.747  15.042   7.650
 5443POPC   NC316103  20.647  12.108   9.450
 5443POPC   PO416104  20.628  12.071   9.150
 5443POPC   GL116105  20.658  12.115   8.850
 5443POPC   GL216106  20.524  11.930   8.850
 5443POPC   C1A16107  20.637  12.044   8.550
 5443POPC   D2A16108  20.648  12.121   8.250
 5443POPC   C3A16109  20.577  12.091   7.950
 5443POPC   C4A16110  20.611  12.049   7.650
 5443POPC   C1B16111  20.530  11.839   8.550
 5443POPC   C2B16112  20.456  11.905   8.250
 5443POPC   C3B16113  20.491  11.895   7.950
 5443POPC   C4B16114  20.511  11.854   7.650
 5444POPC   NC316115  25.234  44.647   9.450
 5444POPC   PO416116  25.265  44.707   9.150
 5444POPC   GL116117  25.284  44.632   8.850
 5444POPC   GL216118  25.369  44.700   8.850
 5444POPC   C1A16119  25.294  44.617   8.550
 5444POPC   D2A16120  25.243  44.643   8.250
 5444POPC   C3A16121  25.252  44.705   7.950
 5444POPC   C4A16122  25.267  44.633   7.650
 5444POPC   C1B16123  25.481  44.692   8.550
 5444POPC   C2B16124  25.537  44.734   8.250
 5444POPC   C3B16125  25.505  44.742   7.950
 5444POPC   C4B16126  25.531  44.649   7.650
 5445POPC   NC316127   7.450  16.743   9.450
 5445POPC   PO416128   7.435  16.689   9.150
 5445POPC   GL116129   7.463  16.758   8.850
 5445POPC   GL216130   7.356  16.826   8.850
 5445POPC   C1A16131   7.379  16.709   8.550
 5445POPC   D2A16132   7.415  16.777   8.250
 5445POPC   C3A16133   7.419  16.726   7.950
 5445POPC   C4A16134   7.423  16.718   7.650
 5445POPC   C1B16135   7.226  16.897   8.550
 5445POPC   C2B16136   7.242  16.881   8.250
 5445POPC   C3B16137   7.242  16.858   7.950
 5445POPC   C4B16138   7.257  16.925   7.650
 5446POPC   NC316139  38.438  39.967   9.450
 5446POPC   PO416140  38.442  39.988   9.150
 5446POPC   GL116141  38.439  40.029   8.850
 5446POPC   GL216142  38.453  39.925   8.850
 5446POPC   C1A16143  38.431  40.026   8.550
 5446POPC   D2A16144  38.460  40.025   8.250
 5446POPC   C3A16145  38.417  40.008   7.950
 5446POPC   C4A16146  38.418  40.037   7.650
 5446POPC   C1B16147  38.490  39.768   8.550
 5446POPC   C2B16148  38.497  39.739   8.250
 5446POPC   C3B16149  38.507  39.749   7.950
 5446POPC   C4B16150  38.516  39.750   7.650
 5447POPC   NC316151  35.355  19.048   9.450
 5447POPC   PO416152  35.396  19.042   9.150
 5447POPC   GL116153  35.355  19.083   8.850
 5447POPC   GL216154  35.436  19.148   8.850
 5447POPC   C1A16155  35.372  19.080   8.550
 5447POPC   D2A16156  35.369  19.029   8.250
 5447POPC   C3A16157  35.362  19.025   7.950
 5447POPC   C4A16158  35.381  19.103   7.650
 5447POPC   C1B16159  35.496  19.273   8.550
 5447POPC   C2B16160  35.447  19.267   8.250
 5447POPC   C3B16161  35.523  19.247   7.950
 5447POPC   C4B16162  35.505  19.292   7.650
 5448POPC   NC316163  34.576  43.118   9.450
 5448POPC   PO416164  34.600  43.061   9.150
 5448POPC   GL116165  34.603  43.084   8.850
 5448POPC   GL216166  34.609  43.029   8.850
 5448POPC   C1A16167  34.567  43.120   8.550
 5448POPC   D2A16168  34.540  43.138   8.250
 5448POPC   C3A16169  34.579  43.088   7.950
 5448POPC   C4A16170  34.594  43.089   7.650
 5448POPC   C1B16171  34.741  42.930   8.550
 5448POPC   C2B16172  34.736  42.868   8.250
 5448POPC   C3B16173  34.750  42.858   7.950
 5448POPC   C4B16174  34.736  42.945   7.650
 5449POPC   NC316175  32.249  36.099   9.450
 5449POPC   PO416176  32.229  36.104   9.150
 5449POPC   GL116177  32.207  36.168   8.850
 5449POPC   GL216178  32.192  36.287   8.850
 5449POPC   C1A16179  32.272  36.165   8.550
 5449POPC   D2A16180  32.220  36.150   8.250
 5449POPC   C3A16181  32.213  36.135   7.950
 5449POPC   C4A16182  32.253  36.150   7.650
 5449POPC   C1B16183  32.246  36.367   8.550
 5449POPC   C2B16184  32.204  36.353   8.250
 5449POPC   C3B16185  32.207  36.400   7.950
 5449POPC   C4B16186  32.220  36.386   7.650
 5450POPC   NC316187   7.470   5.897   9.450
 5450POPC   PO416188   7.425   5.858   9.150
 5450POPC   GL116189   7.427   5.899   8.850
 5450POPC   GL216190   7.551   5.875   8.850
 5450POPC   C1A16191   7.386   5.901   8.550
 5450POPC   D2A16192   7.471   5.863   8.250
 5450POPC   C3A16193   7.468   5.891   7.950
 5450POPC   C4A16194   7.463   5.834   7.650
 5450POPC   C1B16195   7.650   5.958   8.550
 5450POPC   C2B16196   7.606   5.990   8.250
 5450POPC   C3B16197   7.693   6.017   7.950
 5450POPC   C4B16198   7.678   5.977   7.650
 5451POPC   NC316199  23.683  40.754   9.450
 5451POPC   PO416200  23.708  40.744   9.150
 5451POPC   GL116201  23.701  40.734   8.850
 5451POPC   GL216202  23.792  40.668   8.850
 5451POPC   C1A16203  23.724  40.787   8.550
 5451POPC   D2A16204  23.664  40.829   8.250
 5451POPC   C3A16205  23.669  40.823   7.950
 5451POPC   C4A16206  23.733  40.742   7.650
 5451POPC   C1B16207  23.860  40.532   8.550
 5451POPC   C2B16208  23.795  40.508   8.250
 5451POPC   C3B16209  23.781  40.518   7.950
 5451POPC   C4B16210  23.774  40.579   7.650
 5452POPC   NC316211   8.199  42.381   9.450
 5452POPC   PO416212   8.180  42.374   9.150
 5452POPC   GL116213   8.182  42.333   8.850
 5452POPC   GL216214   8.079  42.354   8.850
 5452POPC   C1A16215   8.167  42.332   8.550
 5452POPC   D2A16216   8.202  42.373   8.250
 5452POPC   C3A16217   8.218  42.350   7.950
 5452POPC   C4A16218   8.233  42.348   7.650
 5452POPC   C1B16219   7.985  42.288   8.550
 5452POPC   C2B16220   7.905  42.283   8.250
 5452POPC   C3B16221   7.939  42.244   7.950
 5452POPC   C4B16222   7.918  42.240   7.650
 5453POPC   NC316223   1.179  42.338   9.450
 5453POPC   PO416224   1.180  42.362   9.150
 5453POPC   GL116225   1.258  42.333   8.850
 5453POPC   GL216226   1.133  42.255   8.850
 5453POPC   C1A16227   1.165  42.383   8.550
 5453POPC   D2A16228   1.225  42.312   8.250
 5453POPC   C3A16229   1.232  42.295   7.950
 5453POPC   C4A16230   1.200  42.287   7.650
 5453POPC   C1B16231   1.116  42.088   8.550
 5453POPC   C2B16232   1.136  42.146   8.250
 5453POPC   C3B16233   1.154  42.057   7.950
 5453POPC   C4B16234   1.158  42.114   7.650
 5454POPC   NC316235  41.574  29.108   9.450
 5454POPC   PO416236  41.605  29.133   9.150
 5454POPC   GL116237  41.554  29.170   8.850
 5454POPC   GL216238  41.460  29.153   8.850
 5454POPC   C1A16239  41.579  29.166   8.550
 5454POPC   D2A16240  41.562  29.131   8.250
 5454POPC   C3A16241  41.560  29.097   7.950
 5454POPC   C4A16242  41.580  29.184   7.650
 5454POPC   C1B16243  41.303  29.212   8.550
 5454POPC   C2B16244  41.378  29.217   8.250
 5454POPC   C3B16245  41.301  29.285   7.950
 5454POPC   C4B16246  41.339  29.236   7.650
 5455POPC   NC316247  27.578  32.296   9.450
 5455POPC   PO416248  27.550  32.292   9.150
 5455POPC   GL116249  27.576  32.199   8.850
 5455POPC   GL216250  27.605  32.361   8.850
 5455POPC   C1A16251  27.616  32.200   8.550
 5455POPC   D2A16252  27.578  32.221   8.250
 5455POPC   C3A16253  27.625  32.281   7.950
 5455POPC   C4A16254  27.620  32.249   7.650
 5455POPC   C1B16255  27.552  32.513   8.550
 5455POPC   C2B16256  27.614  32.458   8.250
 5455POPC   C3B16257  27.567  32.478   7.950
 5455POPC   C4B16258  27.597  32.502   7.650
 5456POPC   NC316259  25.995  32.211   9.450
 5456POPC   PO416260  26.067  32.272   9.150
 5456POPC   GL116261  25.998  32.257   8.850
 5456POPC   GL216262  26.152  32.367   8.850
 5456POPC   C1A16263  26.048  32.251   8.550
 5456POPC   D2A16264  26.041  32.228   8.250
 5456POPC   C3A16265  26.063  32.234   7.950
 5456POPC   C4A16266  26.016  32.268   7.650
 5456POPC   C1B16267  26.244  32.450   8.550
 5456POPC   C2B16268  26.175  32.408   8.250
 5456POPC   C3B16269  26.244  32.466   7.950
 5456POPC   C4B16270  26.179  32.487   7.650
 5457POPC   NC316271  39.221  14.369   9.450
 5457POPC   PO416272  39.219  14.440   9.150
 5457POPC   GL116273  39.247  14.389   8.850
 5457POPC   GL216274  39.103  14.481   8.850
 5457POPC   C1A16275  39.207  14.391   8.550
 5457POPC   D2A16276  39.187  14.374   8.250
 5457POPC   C3A16277  39.201  14.435   7.950
 5457POPC   C4A16278  39.211  14.368   7.650
 5457POPC   C1B16279  39.046  14.523   8.550
 5457POPC   C2B16280  39.017  14.567   8.250
 5457POPC   C3B16281  39.038  14.533   7.950
 5457POPC   C4B16282  39.028  14.588   7.650
 5458POPC   NC316283  19.855  25.216   9.450
 5458POPC   PO416284  19.809  25.264   9.150
 5458POPC   GL116285  19.829  25.263   8.850
 5458POPC   GL216286  19.847  25.397   8.850
 5458POPC   C1A16287  19.787  25.252   8.550
 5458POPC   D2A16288  19.808  25.250   8.250
 5458POPC   C3A16289  19.795  25.299   7.950
 5458POPC   C4A16290  19.865  25.237   7.650
 5458POPC   C1B16291  19.882  25.523   8.550
 5458POPC   C2B16292  19.912  25.488   8.250
 5458POPC   C3B16293  19.827  25.536   7.950
 5458POPC   C4B16294  19.838  25.532   7.650
 5459POPC   NC316295  39.272  27.558   9.450
 5459POPC   PO416296  39.235  27.566   9.150
 5459POPC   GL116297  39.208  27.592   8.850
 5459POPC   GL216298  39.275  27.671   8.850
 5459POPC   C1A16299  39.279  27.584   8.550
 5459POPC   D2A16300  39.266  27.581   8.250
 5459POPC   C3A16301  39.268  27.555   7.950
 5459POPC   C4A16302  39.205  27.634   7.650
 5459POPC   C1B16303  39.284  27.838   8.550
 5459POPC   C2B16304  39.303  27.847   8.250
 5459POPC   C3B16305  39.290  27.821   7.950
 5459POPC   C4B16306  39.245  27.867   7.650
 5460POPC   NC316307   3.517  22.154   9.450
 5460POPC   PO416308   3.520  22.124   9.150
 5460POPC   GL116309   3.494  22.116   8.850
 5460POPC   GL216310   3.422  22.049   8.850
 5460POPC   C1A16311   3.554  22.169   8.550
 5460POPC   D2A16312   3.554  22.119   8.250
 5460POPC   C3A16313   3.555  22.122   7.950
 5460POPC   C4A16314   3.588  22.119   7.650
 5460POPC   C1B16315   3.372  22.007   8.550
 5460POPC   C2B16316   3.352  22.025   8.250
 5460POPC   C3B16317   3.356  22.043   7.950
 5460POPC   C4B16318   3.294  22.042   7.650
 5461POPC   NC316319  24.533  16.004   9.450
 5461POPC   PO416320  24.538  15.943   9.150
 5461POPC   GL116321  24.458  15.966   8.850
 5461POPC   GL216322  24.451  16.094   8.850
 5461POPC   C1A16323  24.452  15.923   8.550
 5461POPC   D2A16324  24.477  15.991   8.250
 5461POPC   C3A16325  24.535  15.976   7.950
 5461POPC   C4A16326  24.529  15.906   7.650
 5461POPC   C1B16327  24.445  16.163   8.550
 5461POPC   C2B16328  24.389  16.174   8.250
 5461POPC   C3B16329  24.390  16.227   7.950
 5461POPC   C4B16330  24.436  16.170   7.650
 5462POPC   NC316331  19.823  32.280   9.450
 5462POPC   PO416332  19.832  32.266   9.150
 5462POPC   GL116333  19.839  32.200   8.850
 5462POPC   GL216334  19.686  32.306   8.850
 5462POPC   C1A16335  19.862  32.253   8.550
 5462POPC   D2A16336  19.840  32.240   8.250
 5462POPC   C3A16337  19.832  32.280   7.950
 5462POPC   C4A16338  19.835  32.250   7.650
 5462POPC   C1B16339  19.568  32.263   8.550
 5462POPC   C2B16340  19.589  32.315   8.250
 5462POPC   C3B16341  19.567  32.295   7.950
 5462POPC   C4B16342  19.632  32.304   7.650
 5463POPC   NC316343  11.323   1.214   9.450
 5463POPC   PO416344  11.277   1.235   9.150
 5463POPC   GL116345  11.342   1.244   8.850
 5463POPC   GL216346  11.367   1.132   8.850
 5463POPC   C1A16347  11.311   1.188   8.550
 5463POPC   D2A16348  11.266   1.245   8.250
 5463POPC   C3A16349  11.314   1.168   7.950
 5463POPC   C4A16350  11.258   1.258   7.650
 5463POPC   C1B16351  11.479   1.026   8.550
 5463POPC   C2B16352  11.482   1.016   8.250
 5463POPC   C3B16353  11.482   1.001   7.950
 5463POPC   C4B16354  11.458   1.011   7.650
 5464POPC   NC316355   8.220  16.773   9.450
 5464POPC   PO416356   8.190  16.770   9.150
 5464POPC   GL116357   8.153  16.748   8.850
 5464POPC   GL216358   8.285  16.666   8.850
 5464POPC   C1A16359   8.182  16.697   8.550
 5464POPC   D2A16360   8.171  16.762   8.250
 5464POPC   C3A16361   8.154  16.738   7.950
 5464POPC   C4A16362   8.214  16.711   7.650
 5464POPC   C1B16363   8.331  16.483   8.550
 5464POPC   C2B16364   8.354  16.478   8.250
 5464POPC   C3B16365   8.304  16.540   7.950
 5464POPC   C4B16366   8.332  16.550   7.650
 5465POPC   NC316367  24.488  28.373   9.450
 5465POPC   PO416368  24.507  28.353   9.150
 5465POPC   GL116369  24.482  28.360   8.850
 5465POPC   GL216370  24.542  28.445   8.850
 5465POPC   C1A16371  24.523  28.353   8.550
 5465POPC   D2A16372  24.537  28.363   8.250
 5465POPC   C3A16373  24.515  28.336   7.950
 5465POPC   C4A16374  24.512  28.326   7.650
 5465POPC   C1B16375  24.668  28.561   8.550
 5465POPC   C2B16376  24.665  28.497   8.250
 5465POPC   C3B16377  24.691  28.559   7.950
 5465POPC   C4B16378  24.716  28.496   7.650
 5466POPC   NC316379  12.864  43.906   9.450
 5466POPC   PO416380  12.807  43.870   9.150
 5466POPC   GL116381  12.848  43.901   8.850
 5466POPC   GL216382  12.816  43.813   8.850
 5466POPC   C1A16383  12.841  43.848   8.550
 5466POPC   D2A16384  12.819  43.885   8.250
 5466POPC   C3A16385  12.825  43.852   7.950
 5466POPC   C4A16386  12.856  43.918   7.650
 5466POPC   C1B16387  12.716  43.672   8.550
 5466POPC   C2B16388  12.733  43.670   8.250
 5466POPC   C3B16389  12.713  43.639   7.950
 5466POPC   C4B16390  12.743  43.666   7.650
 5467POPC   NC316391  29.138  28.418   9.450
 5467POPC   PO416392  29.137  28.330   9.150
 5467POPC   GL116393  29.174  28.346   8.850
 5467POPC   GL216394  29.264  28.330   8.850
 5467POPC   C1A16395  29.154  28.377   8.550
 5467POPC   D2A16396  29.148  28.340   8.250
 5467POPC   C3A16397  29.154  28.354   7.950
 5467POPC   C4A16398  29.186  28.321   7.650
 5467POPC   C1B16399  29.434  28.402   8.550
 5467POPC   C2B16400  29.394  28.383   8.250
 5467POPC   C3B16401  29.397  28.323   7.950
 5467POPC   C4B16402  29.428  28.343   7.650
 5468POPC   NC316403  30.668   2.791   9.450
 5468POPC   PO416404  30.689   2.807   9.150
 5468POPC   GL116405  30.658   2.782   8.850
 5468POPC   GL216406  30.734   2.849   8.850
 5468POPC   C1A16407  30.730   2.792   8.550
 5468POPC   D2A16408  30.722   2.730   8.250
 5468POPC   C3A16409  30.690   2.744   7.950
 5468POPC   C4A16410  30.694   2.743   7.650
 5468POPC   C1B16411  30.818   2.997   8.550
 5468POPC   C2B16412  30.896   2.960   8.250
 5468POPC   C3B16413  30.854   2.993   7.950
 5468POPC   C4B16414  30.901   3.000   7.650
 5469POPC   NC316415   8.930  20.649   9.450
 5469POPC   PO416416   8.926  20.656   9.150
 5469POPC   GL116417   8.931  20.605   8.850
 5469POPC   GL216418   8.838  20.651   8.850
 5469POPC   C1A16419   8.933  20.636   8.550
 5469POPC   D2A16420   9.010  20.627   8.250
 5469POPC   C3A16421   8.963  20.621   7.950
 5469POPC   C4A16422   8.926  20.651   7.650
 5469POPC   C1B16423   8.785  20.749   8.550
 5469POPC   C2B16424   8.775  20.750   8.250
 5469POPC   C3B16425   8.781  20.837   7.950
 5469POPC   C4B16426   8.818  20.743   7.650
 5470POPC   NC316427   5.866  21.402   9.450
 5470POPC   PO416428   5.837  21.406   9.150
 5470POPC   GL116429   5.867  21.411   8.850
 5470POPC   GL216430   6.005  21.292   8.850
 5470POPC   C1A16431   5.819  21.383   8.550
 5470POPC   D2A16432   5.891  21.388   8.250
 5470POPC   C3A16433   5.884  21.420   7.950
 5470POPC   C4A16434   5.838  21.391   7.650
 5470POPC   C1B16435   6.095  21.296   8.550
 5470POPC   C2B16436   6.077  21.303   8.250
 5470POPC   C3B16437   6.084  21.341   7.950
 5470POPC   C4B16438   6.075  21.268   7.650
 5471POPC   NC316439  36.104  26.023   9.450
 5471POPC   PO416440  36.106  26.024   9.150
 5471POPC   GL116441  36.147  26.091   8.850
 5471POPC   GL216442  36.202  25.982   8.850
 5471POPC   C1A16443  36.093  26.012   8.550
 5471POPC   D2A16444  36.146  26.090   8.250
 5471POPC   C3A16445  36.119  26.045   7.950
 5471POPC   C4A16446  36.101  26.059   7.650
 5471POPC   C1B16447  36.413  26.013   8.550
 5471POPC   C2B16448  36.327  26.001   8.250
 5471POPC   C3B16449  36.367  25.966   7.950
 5471POPC   C4B16450  36.366  25.994   7.650
 5472POPC   NC316451   6.655  28.378   9.450
 5472POPC   PO416452   6.658  28.407   9.150
 5472POPC   GL116453   6.596  28.355   8.850
 5472POPC   GL216454   6.541  28.372   8.850
 5472POPC   C1A16455   6.654  28.410   8.550
 5472POPC   D2A16456   6.643  28.339   8.250
 5472POPC   C3A16457   6.657  28.320   7.950
 5472POPC   C4A16458   6.692  28.365   7.650
 5472POPC   C1B16459   6.359  28.380   8.550
 5472POPC   C2B16460   6.434  28.351   8.250
 5472POPC   C3B16461   6.408  28.315   7.950
 5472POPC   C4B16462   6.371  28.327   7.650
 5473POPC   NC316463  27.626  20.642   9.450
 5473POPC   PO416464  27.570  20.650   9.150
 5473POPC   GL116465  27.579  20.646   8.850
 5473POPC   GL216466  27.742  20.563   8.850
 5473POPC   C1A16467  27.556  20.610   8.550
 5473POPC   D2A16468  27.571  20.644   8.250
 5473POPC   C3A16469  27.605  20.581   7.950
 5473POPC   C4A16470  27.590  20.597   7.650
 5473POPC   C1B16471  27.809  20.619   8.550
 5473POPC   C2B16472  27.865  20.531   8.250
 5473POPC   C3B16473  27.841  20.616   7.950
 5473POPC   C4B16474  27.801  20.590   7.650
 5474POPC   NC316475  35.348  25.300   9.450
 5474POPC   PO416476  35.304  25.301   9.150
 5474POPC   GL116477  35.342  25.301   8.850
 5474POPC   GL216478  35.286  25.123   8.850
 5474POPC   C1A16479  35.377  25.277   8.550
 5474POPC   D2A16480  35.313  25.303   8.250
 5474POPC   C3A16481  35.322  25.279   7.950
 5474POPC   C4A16482  35.333  25.249   7.650
 5474POPC   C1B16483  35.274  25.052   8.550
 5474POPC   C2B16484  35.312  24.982   8.250
 5474POPC   C3B16485  35.269  25.039   7.950
 5474POPC   C4B16486  35.251  25.008   7.650
 5475POPC   NC316487  30.677  24.493   9.450
 5475POPC   PO416488  30.743  24.508   9.150
 5475POPC   GL116489  30.668  24.495   8.850
 5475POPC   GL216490  30.739  24.327   8.850
 5475POPC   C1A16491  30.711  24.473   8.550
 5475POPC   D2A16492  30.741  24.480   8.250
 5475POPC   C3A16493  30.668  24.486   7.950
 5475POPC   C4A16494  30.659  24.466   7.650
 5475POPC   C1B16495  30.846  24.277   8.550
 5475POPC   C2B16496  30.753  24.231   8.250
 5475POPC   C3B16497  30.779  24.310   7.950
 5475POPC   C4B16498  30.810  24.230   7.650
 5476POPC   NC316499  39.959   9.748   9.450
 5476POPC   PO416500  40.013   9.707   9.150
 5476POPC   GL116501  40.032   9.775   8.850
 5476POPC   GL216502  40.037   9.901   8.850
 5476POPC   C1A16503  39.960   9.712   8.550
 5476POPC   D2A16504  39.979   9.743   8.250
 5476POPC   C3A16505  40.026   9.781   7.950
 5476POPC   C4A16506  39.990   9.745   7.650
 5476POPC   C1B16507  40.059   9.949   8.550
 5476POPC   C2B16508  39.975  10.046   8.250
 5476POPC   C3B16509  40.041   9.994   7.950
 5476POPC   C4B16510  40.012  10.014   7.650
 5477POPC   NC316511  21.337  28.328   9.450
 5477POPC   PO416512  21.350  28.379   9.150
 5477POPC   GL116513  21.375  28.417   8.850
 5477POPC   GL216514  21.544  28.344   8.850
 5477POPC   C1A16515  21.370  28.393   8.550
 5477POPC   D2A16516  21.433  28.414   8.250
 5477POPC   C3A16517  21.415  28.351   7.950
 5477POPC   C4A16518  21.432  28.331   7.650
 5477POPC   C1B16519  21.627  28.274   8.550
 5477POPC   C2B16520  21.631  28.316   8.250
 5477POPC   C3B16521  21.650  28.280   7.950
 5477POPC   C4B16522  21.589  28.283   7.650
 5478POPC   NC316523   9.758   3.576   9.450
 5478POPC   PO416524   9.790   3.536   9.150
 5478POPC   GL116525   9.749   3.529   8.850
 5478POPC   GL216526   9.867   3.409   8.850
 5478POPC   C1A16527   9.726   3.567   8.550
 5478POPC   D2A16528   9.739   3.542   8.250
 5478POPC   C3A16529   9.755   3.492   7.950
 5478POPC   C4A16530   9.728   3.500   7.650
 5478POPC   C1B16531   9.960   3.398   8.550
 5478POPC   C2B16532   9.911   3.411   8.250
 5478POPC   C3B16533   9.888   3.330   7.950
 5478POPC   C4B16534   9.975   3.361   7.650
 5479POPC   NC316535  41.551   6.690   9.450
 5479POPC   PO416536  41.594   6.694   9.150
 5479POPC   GL116537  41.549   6.660   8.850
 5479POPC   GL216538  41.620   6.531   8.850
 5479POPC   C1A16539  41.579   6.689   8.550
 5479POPC   D2A16540  41.602   6.634   8.250
 5479POPC   C3A16541  41.585   6.620   7.950
 5479POPC   C4A16542  41.565   6.680   7.650
 5479POPC   C1B16543  41.607   6.375   8.550
 5479POPC   C2B16544  41.679   6.395   8.250
 5479POPC   C3B16545  41.648   6.434   7.950
 5479POPC   C4B16546  41.633   6.430   7.650
 5480POPC   NC316547  24.493  17.527   9.450
 5480POPC   PO416548  24.471  17.544   9.150
 5480POPC   GL116549  24.521  17.522   8.850
 5480POPC   GL216550  24.474  17.371   8.850
 5480POPC   C1A16551  24.531  17.466   8.550
 5480POPC   D2A16552  24.513  17.506   8.250
 5480POPC   C3A16553  24.539  17.485   7.950
 5480POPC   C4A16554  24.478  17.498   7.650
 5480POPC   C1B16555  24.398  17.327   8.550
 5480POPC   C2B16556  24.366  17.284   8.250
 5480POPC   C3B16557  24.392  17.322   7.950
 5480POPC   C4B16558  24.353  17.249   7.650
 5481POPC   NC316559  32.273   8.966   9.450
 5481POPC   PO416560  32.226   8.976   9.150
 5481POPC   GL116561  32.256   8.933   8.850
 5481POPC   GL216562  32.101   8.849   8.850
 5481POPC   C1A16563  32.252   8.968   8.550
 5481POPC   D2A16564  32.281   8.928   8.250
 5481POPC   C3A16565  32.204   8.931   7.950
 5481POPC   C4A16566  32.204   8.965   7.650
 5481POPC   C1B16567  32.038   8.828   8.550
 5481POPC   C2B16568  32.015   8.805   8.250
 5481POPC   C3B16569  32.034   8.795   7.950
 5481POPC   C4B16570  32.067   8.823   7.650
 5482POPC   NC316571  11.347  20.655   9.450
 5482POPC   PO416572  11.275  20.649   9.150
 5482POPC   GL116573  11.250  20.637   8.850
 5482POPC   GL216574  11.226  20.485   8.850
 5482POPC   C1A16575  11.311  20.581   8.550
 5482POPC   D2A16576  11.348  20.598   8.250
 5482POPC   C3A16577  11.303  20.658   7.950
 5482POPC   C4A16578  11.279  20.653   7.650
 5482POPC   C1B16579  11.184  20.368   8.550
 5482POPC   C2B16580  11.116  20.384   8.250
 5482POPC   C3B16581  11.154  20.463   7.950
 5482POPC   C4B16582  11.127  20.378   7.650
 5483POPC   NC316583  12.890  34.620   9.450
 5483POPC   PO416584  12.806  34.576   9.150
 5483POPC   GL116585  12.882  34.586   8.850
 5483POPC   GL216586  12.793  34.719   8.850
 5483POPC   C1A16587  12.891  34.582   8.550
 5483POPC   D2A16588  12.806  34.530   8.250
 5483POPC   C3A16589  12.845  34.528   7.950
 5483POPC   C4A16590  12.843  34.546   7.650
 5483POPC   C1B16591  12.714  34.801   8.550
 5483POPC   C2B16592  12.750  34.743   8.250
 5483POPC   C3B16593  12.710  34.757   7.950
 5483POPC   C4B16594  12.702  34.785   7.650
 5484POPC   NC316595   6.645  12.113   9.450
 5484POPC   PO416596   6.639  12.096   9.150
 5484POPC   GL116597   6.675  12.066   8.850
 5484POPC   GL216598   6.745  11.977   8.850
 5484POPC   C1A16599   6.683  12.057   8.550
 5484POPC   D2A16600   6.689  12.117   8.250
 5484POPC   C3A16601   6.645  12.088   7.950
 5484POPC   C4A16602   6.691  12.092   7.650
 5484POPC   C1B16603   6.748  11.893   8.550
 5484POPC   C2B16604   6.788  11.864   8.250
 5484POPC   C3B16605   6.826  11.916   7.950
 5484POPC   C4B16606   6.790  11.890   7.650
 5485POPC   NC316607  19.057  31.467   9.450
 5485POPC   PO416608  19.027  31.489   9.150
 5485POPC   GL116609  19.072  31.458   8.850
 5485POPC   GL216610  19.120  31.407   8.850
 5485POPC   C1A16611  19.086  31.449   8.550
 5485POPC   D2A16612  19.086  31.518   8.250
 5485POPC   C3A16613  19.026  31.506   7.950
 5485POPC   C4A16614  19.093  31.509   7.650
 5485POPC   C1B16615  19.193  31.280   8.550
 5485POPC   C2B16616  19.187  31.212   8.250
 5485POPC   C3B16617  19.232  31.273   7.950
 5485POPC   C4B16618  19.187  31.229   7.650
 5486POPC   NC316619  20.633   1.168   9.450
 5486POPC   PO416620  20.562   1.188   9.150
 5486POPC   GL116621  20.636   1.262   8.850
 5486POPC   GL216622  20.570   1.321   8.850
 5486POPC   C1A16623  20.659   1.201   8.550
 5486POPC   D2A16624  20.660   1.188   8.250
 5486POPC   C3A16625  20.589   1.194   7.950
 5486POPC   C4A16626  20.646   1.183   7.650
 5486POPC   C1B16627  20.550   1.496   8.550
 5486POPC   C2B16628  20.609   1.480   8.250
 5486POPC   C3B16629  20.598   1.417   7.950
 5486POPC   C4B16630  20.644   1.439   7.650
 5487POPC   NC316631  21.414  15.200   9.450
 5487POPC   PO416632  21.411  15.136   9.150
 5487POPC   GL116633  21.429  15.132   8.850
 5487POPC   GL216634  21.429  15.278   8.850
 5487POPC   C1A16635  21.404  15.171   8.550
 5487POPC   D2A16636  21.342  15.201   8.250
 5487POPC   C3A16637  21.414  15.224   7.950
 5487POPC   C4A16638  21.355  15.165   7.650
 5487POPC   C1B16639  21.516  15.428   8.550
 5487POPC   C2B16640  21.530  15.402   8.250
 5487POPC   C3B16641  21.463  15.405   7.950
 5487POPC   C4B16642  21.454  15.408   7.650
 5488POPC   NC316643  16.724  40.774   9.450
 5488POPC   PO416644  16.686  40.785   9.150
 5488POPC   GL116645  16.741  40.792   8.850
 5488POPC   GL216646  16.761  40.951   8.850
 5488POPC   C1A16647  16.768  40.830   8.550
 5488POPC   D2A16648  16.777  40.777   8.250
 5488POPC   C3A16649  16.697  40.791   7.950
 5488POPC   C4A16650  16.770  40.739   7.650
 5488POPC   C1B16651  16.847  41.054   8.550
 5488POPC   C2B16652  16.823  41.004   8.250
 5488POPC   C3B16653  16.835  41.001   7.950
 5488POPC   C4B16654  16.838  40.975   7.650
 5489POPC   NC316655   5.056  36.082   9.450
 5489POPC   PO416656   5.089  36.099   9.150
 5489POPC   GL116657   5.136  36.167   8.850
 5489POPC   GL216658   4.941  36.031   8.850
 5489POPC   C1A16659   5.111  36.088   8.550
 5489POPC   D2A16660   5.099  36.140   8.250
 5489POPC   C3A16661   5.106  36.085   7.950
 5489POPC   C4A16662   5.080  36.113   7.650
 5489POPC   C1B16663   4.886  36.001   8.550
 5489POPC   C2B16664   4.860  36.040   8.250
 5489POPC   C3B16665   4.832  35.980   7.950
 5489POPC   C4B16666   4.886  36.057   7.650
 5490POPC   NC316667  26.070  35.318   9.450
 5490POPC   PO416668  26.037  35.325   9.150
 5490POPC   GL116669  26.063  35.353   8.850
 5490POPC   GL216670  26.179  35.417   8.850
 5490POPC   C1A16671  26.065  35.326   8.550
 5490POPC   D2A16672  26.072  35.385   8.250
 5490POPC   C3A16673  25.991  35.317   7.950
 5490POPC   C4A16674  26.013  35.328   7.650
 5490POPC   C1B16675  26.208  35.496   8.550
 5490POPC   C2B16676  26.271  35.495   8.250
 5490POPC   C3B16677  26.225  35.534   7.950
 5490POPC   C4B16678  26.250  35.536   7.650
 5491POPC   NC316679  11.310  37.699   9.450
 5491POPC   PO416680  11.278  37.663   9.150
 5491POPC   GL116681  11.341  37.668   8.850
 5491POPC   GL216682  11.235  37.554   8.850
 5491POPC   C1A16683  11.320  37.722   8.550
 5491POPC   D2A16684  11.338  37.702   8.250
 5491POPC   C3A16685  11.289  37.720   7.950
 5491POPC   C4A16686  11.323  37.693   7.650
 5491POPC   C1B16687  11.226  37.481   8.550
 5491POPC   C2B16688  11.242  37.419   8.250
 5491POPC   C3B16689  11.222  37.419   7.950
 5491POPC   C4B16690  11.228  37.392   7.650
 5492POPC   NC316691  17.510  13.581   9.450
 5492POPC   PO416692  17.530  13.583   9.150
 5492POPC   GL116693  17.556  13.645   8.850
 5492POPC   GL216694  17.616  13.675   8.850
 5492POPC   C1A16695  17.505  13.653   8.550
 5492POPC   D2A16696  17.527  13.646   8.250
 5492POPC   C3A16697  17.533  13.595   7.950
 5492POPC   C4A16698  17.529  13.630   7.650
 5492POPC   C1B16699  17.723  13.774   8.550
 5492POPC   C2B16700  17.722  13.809   8.250
 5492POPC   C3B16701  17.748  13.774   7.950
 5492POPC   C4B16702  17.684  13.807   7.650
 5493POPC   NC316703  25.998  17.460   9.450
 5493POPC   PO416704  26.025  17.482   9.150
 5493POPC   GL116705  26.040  17.497   8.850
 5493POPC   GL216706  26.119  17.359   8.850
 5493POPC   C1A16707  26.080  17.474   8.550
 5493POPC   D2A16708  26.048  17.496   8.250
 5493POPC   C3A16709  26.070  17.485   7.950
 5493POPC   C4A16710  26.022  17.514   7.650
 5493POPC   C1B16711  26.141  17.284   8.550
 5493POPC   C2B16712  26.221  17.283   8.250
 5493POPC   C3B16713  26.201  17.297   7.950
 5493POPC   C4B16714  26.153  17.325   7.650
 5494POPC   NC316715  36.098  24.468   9.450
 5494POPC   PO416716  36.148  24.456   9.150
 5494POPC   GL116717  36.161  24.510   8.850
 5494POPC   GL216718  35.990  24.489   8.850
 5494POPC   C1A16719  36.134  24.461   8.550
 5494POPC   D2A16720  36.116  24.517   8.250
 5494POPC   C3A16721  36.110  24.461   7.950
 5494POPC   C4A16722  36.153  24.464   7.650
 5494POPC   C1B16723  35.840  24.503   8.550
 5494POPC   C2B16724  35.877  24.492   8.250
 5494POPC   C3B16725  35.843  24.483   7.950
 5494POPC   C4B16726  35.928  24.495   7.650
 5495POPC   NC316727  28.322  26.768   9.450
 5495POPC   PO416728  28.352  26.829   9.150
 5495POPC   GL116729  28.408  26.845   8.850
 5495POPC   GL216730  28.523  26.881   8.850
 5495POPC   C1A16731  28.401  26.798   8.550
 5495POPC   D2A16732  28.337  26.833   8.250
 5495POPC   C3A16733  28.354  26.808   7.950
 5495POPC   C4A16734  28.406  26.852   7.650
 5495POPC   C1B16735  28.609  26.859   8.550
 5495POPC   C2B16736  28.607  26.826   8.250
 5495POPC   C3B16737  28.608  26.819   7.950
 5495POPC   C4B16738  28.588  26.892   7.650
 5496POPC   NC316739  36.934  24.487   9.450
 5496POPC   PO416740  36.859  24.473   9.150
 5496POPC   GL116741  36.891  24.458   8.850
 5496POPC   GL216742  36.818  24.395   8.850
 5496POPC   C1A16743  36.863  24.526   8.550
 5496POPC   D2A16744  36.864  24.534   8.250
 5496POPC   C3A16745  36.867  24.453   7.950
 5496POPC   C4A16746  36.897  24.527   7.650
 5496POPC   C1B16747  36.827  24.220   8.550
 5496POPC   C2B16748  36.771  24.307   8.250
 5496POPC   C3B16749  36.807  24.301   7.950
 5496POPC   C4B16750  36.786  24.229   7.650
 5497POPC   NC316751  28.385  32.272   9.450
 5497POPC   PO416752  28.323  32.284   9.150
 5497POPC   GL116753  28.412  32.267   8.850
 5497POPC   GL216754  28.413  32.290   8.850
 5497POPC   C1A16755  28.358  32.271   8.550
 5497POPC   D2A16756  28.395  32.276   8.250
 5497POPC   C3A16757  28.371  32.206   7.950
 5497POPC   C4A16758  28.406  32.257   7.650
 5497POPC   C1B16759  28.543  32.429   8.550
 5497POPC   C2B16760  28.533  32.424   8.250
 5497POPC   C3B16761  28.544  32.464   7.950
 5497POPC   C4B16762  28.499  32.390   7.650
 5498POPC   NC316763   5.061  37.671   9.450
 5498POPC   PO416764   5.050  37.681   9.150
 5498POPC   GL116765   5.105  37.646   8.850
 5498POPC   GL216766   5.182  37.674   8.850
 5498POPC   C1A16767   5.131  37.712   8.550
 5498POPC   D2A16768   5.083  37.654   8.250
 5498POPC   C3A16769   5.101  37.660   7.950
 5498POPC   C4A16770   5.137  37.712   7.650
 5498POPC   C1B16771   5.295  37.694   8.550
 5498POPC   C2B16772   5.319  37.680   8.250
 5498POPC   C3B16773   5.375  37.704   7.950
 5498POPC   C4B16774   5.316  37.727   7.650
 5499POPC   NC316775  29.107   6.686   9.450
 5499POPC   PO416776  29.095   6.683   9.150
 5499POPC   GL116777  29.153   6.645   8.850
 5499POPC   GL216778  29.299   6.650   8.850
 5499POPC   C1A16779  29.112   6.690   8.550
 5499POPC   D2A16780  29.123   6.631   8.250
 5499POPC   C3A16781  29.106   6.665   7.950
 5499POPC   C4A16782  29.150   6.615   7.650
 5499POPC   C1B16783  29.342   6.777   8.550
 5499POPC   C2B16784  29.377   6.773   8.250
 5499POPC   C3B16785  29.345   6.715   7.950
 5499POPC   C4B16786  29.333   6.780   7.650
 5500POPC   NC316787  34.552  26.045   9.450
 5500POPC   PO416788  34.594  25.995   9.150
 5500POPC   GL116789  34.547  26.049   8.850
 5500POPC   GL216790  34.484  26.076   8.850
 5500POPC   C1A16791  34.530  26.063   8.550
 5500POPC   D2A16792  34.616  26.026   8.250
 5500POPC   C3A16793  34.601  26.036   7.950
 5500POPC   C4A16794  34.564  26.004   7.650
 5500POPC   C1B16795  34.410  26.177   8.550
 5500POPC   C2B16796  34.367  26.204   8.250
 5500POPC   C3B16797  34.410  26.142   7.950
 5500POPC   C4B16798  34.342  26.125   7.650
 5501POPC   NC316799  37.703  33.828   9.450
 5501POPC   PO416800  37.709  33.813   9.150
 5501POPC   GL116801  37.726  33.769   8.850
 5501POPC   GL216802  37.799  33.853   8.850
 5501POPC   C1A16803  37.712  33.793   8.550
 5501POPC   D2A16804  37.706  33.797   8.250
 5501POPC   C3A16805  37.710  33.839   7.950
 5501POPC   C4A16806  37.715  33.828   7.650
 5501POPC   C1B16807  37.886  34.016   8.550
 5501POPC   C2B16808  37.817  33.941   8.250
 5501POPC   C3B16809  37.819  33.966   7.950
 5501POPC   C4B16810  37.884  33.940   7.650
 5502POPC   NC316811  42.372   7.415   9.450
 5502POPC   PO416812  42.370   7.384   9.150
 5502POPC   GL116813  42.328   7.455   8.850
 5502POPC   GL216814  42.413   7.330   8.850
 5502POPC   C1A16815  42.362   7.412   8.550
 5502POPC   D2A16816  42.379   7.394   8.250
 5502POPC   C3A16817  42.313   7.375   7.950
 5502POPC   C4A16818  42.335   7.398   7.650
 5502POPC   C1B16819  42.555   7.237   8.550
 5502POPC   C2B16820  42.567   7.239   8.250
 5502POPC   C3B16821  42.555   7.235   7.950
 5502POPC   C4B16822  42.485   7.277   7.650
 5503POPC   NC316823   4.280  32.256   9.450
 5503POPC   PO416824   4.276  32.249   9.150
 5503POPC   GL116825   4.292  32.264   8.850
 5503POPC   GL216826   4.378  32.089   8.850
 5503POPC   C1A16827   4.348  32.246   8.550
 5503POPC   D2A16828   4.283  32.232   8.250
 5503POPC   C3A16829   4.319  32.269   7.950
 5503POPC   C4A16830   4.345  32.205   7.650
 5503POPC   C1B16831   4.366  31.956   8.550
 5503POPC   C2B16832   4.406  31.988   8.250
 5503POPC   C3B16833   4.388  32.026   7.950
 5503POPC   C4B16834   4.402  31.996   7.650
 5504POPC   NC316835   1.260  25.307   9.450
 5504POPC   PO416836   1.242  25.274   9.150
 5504POPC   GL116837   1.261  25.311   8.850
 5504POPC   GL216838   1.056  25.299   8.850
 5504POPC   C1A16839   1.186  25.266   8.550
 5504POPC   D2A16840   1.207  25.253   8.250
 5504POPC   C3A16841   1.262  25.302   7.950
 5504POPC   C4A16842   1.240  25.260   7.650
 5504POPC   C1B16843   0.950  25.285   8.550
 5504POPC   C2B16844   0.994  25.241   8.250
 5504POPC   C3B16845   1.009  25.269   7.950
 5504POPC   C4B16846   1.006  25.277   7.650
 5505POPC   NC316847  21.381  41.607   9.450
 5505POPC   PO416848  21.425  41.586   9.150
 5505POPC   GL116849  21.384  41.528   8.850
 5505POPC   GL216850  21.305  41.656   8.850
 5505POPC   C1A16851  21.357  41.529   8.550
 5505POPC   D2A16852  21.427  41.544   8.250
 5505POPC   C3A16853  21.433  41.588   7.950
 5505POPC   C4A16854  21.351  41.519   7.650
 5505POPC   C1B16855  21.196  41.636   8.550
 5505POPC   C2B16856  21.199  41.664   8.250
 5505POPC   C3B16857  21.187  41.690   7.950
 5505POPC   C4B16858  21.159  41.667   7.650
 5506POPC   NC316859  25.246  40.750   9.450
 5506POPC   PO416860  25.217  40.749   9.150
 5506POPC   GL116861  25.231  40.820   8.850
 5506POPC   GL216862  25.334  40.909   8.850
 5506POPC   C1A16863  25.312  40.833   8.550
 5506POPC   D2A16864  25.237  40.755   8.250
 5506POPC   C3A16865  25.249  40.795   7.950
 5506POPC   C4A16866  25.311  40.791   7.650
 5506POPC   C1B16867  25.370  40.985   8.550
 5506POPC   C2B16868  25.403  40.972   8.250
 5506POPC   C3B16869  25.370  40.990   7.950
 5506POPC   C4B16870  25.428  41.003   7.650
 5507POPC   NC316871  44.653  32.984   9.450
 5507POPC   PO416872  44.679  33.018   9.150
 5507POPC   GL116873  44.663  32.983   8.850
 5507POPC   GL216874  44.779  32.898   8.850
 5507POPC   C1A16875  44.621  33.010   8.550
 5507POPC   D2A16876  44.703  33.005   8.250
 5507POPC   C3A16877  44.635  33.055   7.950
 5507POPC   C4A16878  44.644  33.069   7.650
 5507POPC   C1B16879  44.789  32.856   8.550
 5507POPC   C2B16880  44.837  32.855   8.250
 5507POPC   C3B16881  44.843  32.797   7.950
 5507POPC   C4B16882  44.802  32.857   7.650
 5508POPC   NC316883  12.855   6.673   9.450
 5508POPC   PO416884  12.818   6.611   9.150
 5508POPC   GL116885  12.884   6.608   8.850
 5508POPC   GL216886  12.742   6.603   8.850
 5508POPC   C1A16887  12.887   6.633   8.550
 5508POPC   D2A16888  12.865   6.620   8.250
 5508POPC   C3A16889  12.861   6.623   7.950
 5508POPC   C4A16890  12.823   6.678   7.650
 5508POPC   C1B16891  12.611   6.548   8.550
 5508POPC   C2B16892  12.645   6.523   8.250
 5508POPC   C3B16893  12.593   6.551   7.950
 5508POPC   C4B16894  12.648   6.516   7.650
 5509POPC   NC316895  37.677  30.706   9.450
 5509POPC   PO416896  37.640  30.706   9.150
 5509POPC   GL116897  37.641  30.694   8.850
 5509POPC   GL216898  37.678  30.595   8.850
 5509POPC   C1A16899  37.684  30.672   8.550
 5509POPC   D2A16900  37.652  30.727   8.250
 5509POPC   C3A16901  37.709  30.703   7.950
 5509POPC   C4A16902  37.725  30.720   7.650
 5509POPC   C1B16903  37.641  30.403   8.550
 5509POPC   C2B16904  37.649  30.413   8.250
 5509POPC   C3B16905  37.615  30.413   7.950
 5509POPC   C4B16906  37.630  30.495   7.650
 5510POPC   NC316907  24.452  35.333   9.450
 5510POPC   PO416908  24.524  35.395   9.150
 5510POPC   GL116909  24.503  35.328   8.850
 5510POPC   GL216910  24.530  35.193   8.850
 5510POPC   C1A16911  24.521  35.349   8.550
 5510POPC   D2A16912  24.525  35.388   8.250
 5510POPC   C3A16913  24.522  35.380   7.950
 5510POPC   C4A16914  24.531  35.343   7.650
 5510POPC   C1B16915  24.566  35.125   8.550
 5510POPC   C2B16916  24.487  35.151   8.250
 5510POPC   C3B16917  24.495  35.149   7.950
 5510POPC   C4B16918  24.572  35.147   7.650
 5511POPC   NC316919  38.491  15.161   9.450
 5511POPC   PO416920  38.440  15.181   9.150
 5511POPC   GL116921  38.502  15.225   8.850
 5511POPC   GL216922  38.368  15.146   8.850
 5511POPC   C1A16923  38.426  15.207   8.550
 5511POPC   D2A16924  38.466  15.155   8.250
 5511POPC   C3A16925  38.444  15.138   7.950
 5511POPC   C4A16926  38.490  15.135   7.650
 5511POPC   C1B16927  38.245  15.100   8.550
 5511POPC   C2B16928  38.200  15.116   8.250
 5511POPC   C3B16929  38.212  15.044   7.950
 5511POPC   C4B16930  38.224  15.101   7.650
 5512POPC   NC316931  29.877  30.651   9.450
 5512POPC   PO416932  29.931  30.741   9.150
 5512POPC   GL116933  29.961  30.648   8.850
 5512POPC   GL216934  29.829  30.662   8.850
 5512POPC   C1A16935  29.923  30.745   8.550
 5512POPC   D2A16936  29.954  30.686   8.250
 5512POPC   C3A16937  29.941  30.730   7.950
 5512POPC   C4A16938  29.895  30.729   7.650
 5512POPC   C1B16939  29.664  30.568   8.550
 5512POPC   C2B16940  29.688  30.576   8.250
 5512POPC   C3B16941  29.691  30.618   7.950
 5512POPC   C4B16942  29.725  30.661   7.650
 5513POPC   NC316943  18.324  34.560   9.450
 5513POPC   PO416944  18.246  34.538   9.150
 5513POPC   GL116945  18.286  34.528   8.850
 5513POPC   GL216946  18.203  34.611   8.850
 5513POPC   C1A16947  18.312  34.612   8.550
 5513POPC   D2A16948  18.332  34.606   8.250
 5513POPC   C3A16949  18.244  34.553   7.950
 5513POPC   C4A16950  18.314  34.602   7.650
 5513POPC   C1B16951  18.045  34.675   8.550
 5513POPC   C2B16952  18.047  34.723   8.250
 5513POPC   C3B16953  18.082  34.714   7.950
 5513POPC   C4B16954  18.058  34.681   7.650
 5514POPC   NC316955  25.286  38.455   9.450
 5514POPC   PO416956  25.267  38.453   9.150
 5514POPC   GL116957  25.251  38.479   8.850
 5514POPC   GL216958  25.323  38.561   8.850
 5514POPC   C1A16959  25.274  38.439   8.550
 5514POPC   D2A16960  25.269  38.505   8.250
 5514POPC   C3A16961  25.217  38.424   7.950
 5514POPC   C4A16962  25.281  38.422   7.650
 5514POPC   C1B16963  25.463  38.631   8.550
 5514POPC   C2B16964  25.492  38.625   8.250
 5514POPC   C3B16965  25.460  38.600   7.950
 5514POPC   C4B16966  25.487  38.671   7.650
 5515POPC   NC316967  15.214  40.773   9.450
 5515POPC   PO416968  15.185  40.805   9.150
 5515POPC   GL116969  15.212  40.736   8.850
 5515POPC   GL216970  15.219  40.939   8.850
 5515POPC   C1A16971  15.206  40.771   8.550
 5515POPC   D2A16972  15.152  40.742   8.250
 5515POPC   C3A16973  15.183  40.810   7.950
 5515POPC   C4A16974  15.131  40.770   7.650
 5515POPC   C1B16975  15.228  41.051   8.550
 5515POPC   C2B16976  15.265  41.003   8.250
 5515POPC   C3B16977  15.215  40.984   7.950
 5515POPC   C4B16978  15.252  41.014   7.650
 5516POPC   NC316979  36.095  36.859   9.450
 5516POPC   PO416980  36.082  36.881   9.150
 5516POPC   GL116981  36.125  36.917   8.850
 5516POPC   GL216982  36.037  36.783   8.850
 5516POPC   C1A16983  36.118  36.899   8.550
 5516POPC   D2A16984  36.121  36.925   8.250
 5516POPC   C3A16985  36.174  36.952   7.950
 5516POPC   C4A16986  36.160  36.867   7.650
 5516POPC   C1B16987  36.056  36.703   8.550
 5516POPC   C2B16988  35.971  36.698   8.250
 5516POPC   C3B16989  36.015  36.707   7.950
 5516POPC   C4B16990  36.022  36.717   7.650
 5517POPC   NC316991  29.911  33.014   9.450
 5517POPC   PO416992  29.923  32.993   9.150
 5517POPC   GL116993  29.958  33.030   8.850
 5517POPC   GL216994  29.776  33.019   8.850
 5517POPC   C1A16995  29.946  33.024   8.550
 5517POPC   D2A16996  29.900  33.050   8.250
 5517POPC   C3A16997  29.939  32.978   7.950
 5517POPC   C4A16998  29.927  33.074   7.650
 5517POPC   C1B16999  29.686  32.947   8.550
 5517POPC   C2B17000  29.693  32.981   8.250
 5517POPC   C3B17001  29.710  32.948   7.950
 5517POPC   C4B17002  29.661  32.966   7.650
 5518POPC   NC317003  28.412  27.611   9.450
 5518POPC   PO417004  28.405  27.603   9.150
 5518POPC   GL117005  28.334  27.563   8.850
 5518POPC   GL217006  28.483  27.583   8.850
 5518POPC   C1A17007  28.333  27.595   8.550
 5518POPC   D2A17008  28.388  27.620   8.250
 5518POPC   C3A17009  28.398  27.617   7.950
 5518POPC   C4A17010  28.364  27.554   7.650
 5518POPC   C1B17011  28.660  27.663   8.550
 5518POPC   C2B17012  28.653  27.652   8.250
 5518POPC   C3B17013  28.650  27.657   7.950
 5518POPC   C4B17014  28.656  27.605   7.650
 5519POPC   NC317015  35.334  44.618   9.450
 5519POPC   PO417016  35.346  44.630   9.150
 5519POPC   GL117017  35.342  44.635   8.850
 5519POPC   GL217018  35.512  44.647   8.850
 5519POPC   C1A17019  35.345  44.663   8.550
 5519POPC   D2A17020  35.303  44.703   8.250
 5519POPC   C3A17021  35.379  44.649   7.950
 5519POPC   C4A17022  35.373  44.661   7.650
 5519POPC   C1B17023  35.558  44.608   8.550
 5519POPC   C2B17024  35.593  44.577   8.250
 5519POPC   C3B17025  35.584  44.596   7.950
 5519POPC   C4B17026  35.545  44.556   7.650
 5520POPC   NC317027  18.241  17.539   9.450
 5520POPC   PO417028  18.314  17.489   9.150
 5520POPC   GL117029  18.325  17.502   8.850
 5520POPC   GL217030  18.346  17.578   8.850
 5520POPC   C1A17031  18.275  17.488   8.550
 5520POPC   D2A17032  18.332  17.495   8.250
 5520POPC   C3A17033  18.318  17.555   7.950
 5520POPC   C4A17034  18.320  17.517   7.650
 5520POPC   C1B17035  18.427  17.674   8.550
 5520POPC   C2B17036  18.462  17.695   8.250
 5520POPC   C3B17037  18.475  17.678   7.950
 5520POPC   C4B17038  18.495  17.708   7.650
 5521POPC   NC317039  19.860  43.922   9.450
 5521POPC   PO417040  19.827  43.861   9.150
 5521POPC   GL117041  19.845  43.913   8.850
 5521POPC   GL217042  19.769  43.937   8.850
 5521POPC   C1A17043  19.836  43.860   8.550
 5521POPC   D2A17044  19.803  43.853   8.250
 5521POPC   C3A17045  19.846  43.883   7.950
 5521POPC   C4A17046  19.843  43.855   7.650
 5521POPC   C1B17047  19.654  44.082   8.550
 5521POPC   C2B17048  19.666  44.054   8.250
 5521POPC   C3B17049  19.658  44.021   7.950
 5521POPC   C4B17050  19.639  44.108   7.650
 5522POPC   NC317051  33.066  22.903   9.450
 5522POPC   PO417052  33.013  22.944   9.150
 5522POPC   GL117053  33.007  22.959   8.850
 5522POPC   GL217054  32.860  22.950   8.850
 5522POPC   C1A17055  33.038  22.983   8.550
 5522POPC   D2A17056  33.021  22.907   8.250
 5522POPC   C3A17057  33.028  22.929   7.950
 5522POPC   C4A17058  33.004  22.923   7.650
 5522POPC   C1B17059  32.803  22.879   8.550
 5522POPC   C2B17060  32.796  22.826   8.250
 5522POPC   C3B17061  32.814  22.891   7.950
 5522POPC   C4B17062  32.767  22.904   7.650
 5523POPC   NC317063  12.882  23.763   9.450
 5523POPC   PO417064  12.805  23.682   9.150
 5523POPC   GL117065  12.822  23.731   8.850
 5523POPC   GL217066  12.916  23.779   8.850
 5523POPC   C1A17067  12.886  23.719   8.550
 5523POPC   D2A17068  12.836  23.746   8.250
 5523POPC   C3A17069  12.840  23.723   7.950
 5523POPC   C4A17070  12.817  23.683   7.650
 5523POPC   C1B17071  13.111  23.856   8.550
 5523POPC   C2B17072  13.123  23.776   8.250
 5523POPC   C3B17073  13.094  23.829   7.950
 5523POPC   C4B17074  13.118  23.841   7.650
 5524POPC   NC317075  22.131  30.693   9.450
 5524POPC   PO417076  22.161  30.653   9.150
 5524POPC   GL117077  22.122  30.746   8.850
 5524POPC   GL217078  22.226  30.599   8.850
 5524POPC   C1A17079  22.139  30.677   8.550
 5524POPC   D2A17080  22.201  30.716   8.250
 5524POPC   C3A17081  22.116  30.704   7.950
 5524POPC   C4A17082  22.154  30.651   7.650
 5524POPC   C1B17083  22.330  30.605   8.550
 5524POPC   C2B17084  22.422  30.544   8.250
 5524POPC   C3B17085  22.330  30.620   7.950
 5524POPC   C4B17086  22.395  30.549   7.650
 5525POPC   NC317087  31.481  43.847   9.450
 5525POPC   PO417088  31.517  43.919   9.150
 5525POPC   GL117089  31.484  43.889   8.850
 5525POPC   GL217090  31.429  43.816   8.850
 5525POPC   C1A17091  31.423  43.890   8.550
 5525POPC   D2A17092  31.516  43.853   8.250
 5525POPC   C3A17093  31.452  43.869   7.950
 5525POPC   C4A17094  31.433  43.850   7.650
 5525POPC   C1B17095  31.330  43.734   8.550
 5525POPC   C2B17096  31.330  43.764   8.250
 5525POPC   C3B17097  31.302  43.752   7.950
 5525POPC   C4B17098  31.246  43.763   7.650
 5526POPC   NC317099  24.507   5.853   9.450
 5526POPC   PO417100  24.477   5.840   9.150
 5526POPC   GL117101  24.523   5.895   8.850
 5526POPC   GL217102  24.323   5.861   8.850
 5526POPC   C1A17103  24.465   5.832   8.550
 5526POPC   D2A17104  24.534   5.851   8.250
 5526POPC   C3A17105  24.503   5.835   7.950
 5526POPC   C4A17106  24.523   5.889   7.650
 5526POPC   C1B17107  24.223   5.829   8.550
 5526POPC   C2B17108  24.218   5.762   8.250
 5526POPC   C3B17109  24.214   5.808   7.950
 5526POPC   C4B17110  24.254   5.837   7.650
 5527POPC   NC317111  10.498  36.933   9.450
 5527POPC   PO417112  10.502  36.866   9.150
 5527POPC   GL117113  10.482  36.887   8.850
 5527POPC   GL217114  10.685  36.925   8.850
 5527POPC   C1A17115  10.478  36.875   8.550
 5527POPC   D2A17116  10.565  36.903   8.250
 5527POPC   C3A17117  10.566  36.861   7.950
 5527POPC   C4A17118  10.566  36.919   7.650
 5527POPC   C1B17119  10.733  36.987   8.550
 5527POPC   C2B17120  10.774  36.959   8.250
 5527POPC   C3B17121  10.781  36.960   7.950
 5527POPC   C4B17122  10.762  36.935   7.650
 5528POPC   NC317123   0.444  43.068   9.450
 5528POPC   PO417124   0.464  43.071   9.150
 5528POPC   GL117125   0.431  43.078   8.850
 5528POPC   GL217126   0.341  43.139   8.850
 5528POPC   C1A17127   0.427  43.111   8.550
 5528POPC   D2A17128   0.464  43.153   8.250
 5528POPC   C3A17129   0.445  43.079   7.950
 5528POPC   C4A17130   0.477  43.077   7.650
 5528POPC   C1B17131   0.198  43.285   8.550
 5528POPC   C2B17132   0.202  43.285   8.250
 5528POPC   C3B17133   0.205  43.220   7.950
 5528POPC   C4B17134   0.198  43.274   7.650
 5529POPC   NC317135  14.355  41.521   9.450
 5529POPC   PO417136  14.365  41.547   9.150
 5529POPC   GL117137  14.390  41.509   8.850
 5529POPC   GL217138  14.438  41.468   8.850
 5529POPC   C1A17139  14.364  41.545   8.550
 5529POPC   D2A17140  14.399  41.529   8.250
 5529POPC   C3A17141  14.413  41.540   7.950
 5529POPC   C4A17142  14.359  41.572   7.650
 5529POPC   C1B17143  14.421  41.285   8.550
 5529POPC   C2B17144  14.411  41.308   8.250
 5529POPC   C3B17145  14.475  41.347   7.950
 5529POPC   C4B17146  14.411  41.299   7.650
 5530POPC   NC317147  40.819  29.194   9.450
 5530POPC   PO417148  40.830  29.125   9.150
 5530POPC   GL117149  40.762  29.146   8.850
 5530POPC   GL217150  40.869  29.024   8.850
 5530POPC   C1A17151  40.830  29.103   8.550
 5530POPC   D2A17152  40.813  29.168   8.250
 5530POPC   C3A17153  40.790  29.096   7.950
 5530POPC   C4A17154  40.815  29.152   7.650
 5530POPC   C1B17155  40.902  28.873   8.550
 5530POPC   C2B17156  40.866  28.897   8.250
 5530POPC   C3B17157  40.849  28.950   7.950
 5530POPC   C4B17158  40.835  28.933   7.650
 5531POPC   NC317159  34.575  41.605   9.450
 5531POPC   PO417160  34.553  41.561   9.150
 5531POPC   GL117161  34.566  41.599   8.850
 5531POPC   GL217162  34.589  41.402   8.850
 5531POPC   C1A17163  34.536  41.559   8.550
 5531POPC   D2A17164  34.558  41.567   8.250
 5531POPC   C3A17165  34.554  41.603   7.950
 5531POPC   C4A17166  34.542  41.557   7.650
 5531POPC   C1B17167  34.641  41.298   8.550
 5531POPC   C2B17168  34.610  41.323   8.250
 5531POPC   C3B17169  34.560  41.288   7.950
 5531POPC   C4B17170  34.648  41.294   7.650
 5532POPC   NC317171  37.631  38.503   9.450
 5532POPC   PO417172  37.727  38.485   9.150
 5532POPC   GL117173  37.657  38.477   8.850
 5532POPC   GL217174  37.854  38.475   8.850
 5532POPC   C1A17175  37.713  38.487   8.550
 5532POPC   D2A17176  37.690  38.412   8.250
 5532POPC   C3A17177  37.703  38.414   7.950
 5532POPC   C4A17178  37.637  38.492   7.650
 5532POPC   C1B17179  37.907  38.512   8.550
 5532POPC   C2B17180  37.879  38.437   8.250
 5532POPC   C3B17181  37.977  38.463   7.950
 5532POPC   C4B17182  37.909  38.480   7.650
 5533POPC   NC317183   5.829  44.627   9.450
 5533POPC   PO417184   5.860  44.645   9.150
 5533POPC   GL117185   5.835  44.628   8.850
 5533POPC   GL217186   5.842  44.832   8.850
 5533POPC   C1A17187   5.824  44.671   8.550
 5533POPC   D2A17188   5.846  44.636   8.250
 5533POPC   C3A17189   5.828  44.667   7.950
 5533POPC   C4A17190   5.893  44.669   7.650
 5533POPC   C1B17191   5.827  44.901   8.550
 5533POPC   C2B17192   5.859  44.897   8.250
 5533POPC   C3B17193   5.792  44.917   7.950
 5533POPC   C4B17194   5.802  44.929   7.650
 5534POPC   NC317195  35.355  16.693   9.450
 5534POPC   PO417196  35.318  16.767   9.150
 5534POPC   GL117197  35.376  16.740   8.850
 5534POPC   GL217198  35.381  16.613   8.850
 5534POPC   C1A17199  35.323  16.780   8.550
 5534POPC   D2A17200  35.369  16.684   8.250
 5534POPC   C3A17201  35.353  16.756   7.950
 5534POPC   C4A17202  35.374  16.756   7.650
 5534POPC   C1B17203  35.481  16.464   8.550
 5534POPC   C2B17204  35.490  16.525   8.250
 5534POPC   C3B17205  35.430  16.531   7.950
 5534POPC   C4B17206  35.489  16.504   7.650
 5535POPC   NC317207  27.558  37.701   9.450
 5535POPC   PO417208  27.601  37.684   9.150
 5535POPC   GL117209  27.604  37.706   8.850
 5535POPC   GL217210  27.669  37.660   8.850
 5535POPC   C1A17211  27.611  37.724   8.550
 5535POPC   D2A17212  27.603  37.697   8.250
 5535POPC   C3A17213  27.635  37.697   7.950
 5535POPC   C4A17214  27.578  37.700   7.650
 5535POPC   C1B17215  27.804  37.641   8.550
 5535POPC   C2B17216  27.883  37.649   8.250
 5535POPC   C3B17217  27.851  37.614   7.950
 5535POPC   C4B17218  27.815  37.657   7.650
 5536POPC   NC317219  29.146  30.684   9.450
 5536POPC   PO417220  29.130  30.701   9.150
 5536POPC   GL117221  29.185  30.678   8.850
 5536POPC   GL217222  29.014  30.799   8.850
 5536POPC   C1A17223  29.105  30.707   8.550
 5536POPC   D2A17224  29.156  30.729   8.250
 5536POPC   C3A17225  29.136  30.731   7.950
 5536POPC   C4A17226  29.096  30.693   7.650
 5536POPC   C1B17227  28.912  30.828   8.550
 5536POPC   C2B17228  28.899  30.848   8.250
 5536POPC   C3B17229  28.965  30.835   7.950
 5536POPC   C4B17230  28.924  30.796   7.650
 5537POPC   NC317231   9.788  37.684   9.450
 5537POPC   PO417232   9.700  37.699   9.150
 5537POPC   GL117233   9.731  37.685   8.850
 5537POPC   GL217234   9.698  37.614   8.850
 5537POPC   C1A17235   9.722  37.655   8.550
 5537POPC   D2A17236   9.725  37.714   8.250
 5537POPC   C3A17237   9.708  37.655   7.950
 5537POPC   C4A17238   9.703  37.677   7.650
 5537POPC   C1B17239   9.619  37.452   8.550
 5537POPC   C2B17240   9.538  37.506   8.250
 5537POPC   C3B17241   9.550  37.528   7.950
 5537POPC   C4B17242   9.609  37.531   7.650
 5538POPC   NC317243  22.177  11.273   9.450
 5538POPC   PO417244  22.144  11.292   9.150
 5538POPC   GL117245  22.126  11.254   8.850
 5538POPC   GL217246  22.225  11.388   8.850
 5538POPC   C1A17247  22.124  11.269   8.550
 5538POPC   D2A17248  22.153  11.297   8.250
 5538POPC   C3A17249  22.152  11.329   7.950
 5538POPC   C4A17250  22.113  11.285   7.650
 5538POPC   C1B17251  22.190  11.534   8.550
 5538POPC   C2B17252  22.232  11.560   8.250
 5538POPC   C3B17253  22.237  11.500   7.950
 5538POPC   C4B17254  22.180  11.560   7.650
 5539POPC   NC317255  38.462  43.928   9.450
 5539POPC   PO417256  38.463  43.873   9.150
 5539POPC   GL117257  38.416  43.878   8.850
 5539POPC   GL217258  38.478  43.789   8.850
 5539POPC   C1A17259  38.500  43.906   8.550
 5539POPC   D2A17260  38.434  43.907   8.250
 5539POPC   C3A17261  38.416  43.850   7.950
 5539POPC   C4A17262  38.479  43.863   7.650
 5539POPC   C1B17263  38.465  43.629   8.550
 5539POPC   C2B17264  38.539  43.638   8.250
 5539POPC   C3B17265  38.449  43.671   7.950
 5539POPC   C4B17266  38.467  43.597   7.650
 5540POPC   NC317267  27.545   4.324   9.450
 5540POPC   PO417268  27.581   4.336   9.150
 5540POPC   GL117269  27.633   4.351   8.850
 5540POPC   GL217270  27.505   4.296   8.850
 5540POPC   C1A17271  27.602   4.273   8.550
 5540POPC   D2A17272  27.581   4.325   8.250
 5540POPC   C3A17273  27.597   4.333   7.950
 5540POPC   C4A17274  27.559   4.273   7.650
 5540POPC   C1B17275  27.333   4.347   8.550
 5540POPC   C2B17276  27.379   4.411   8.250
 5540POPC   C3B17277  27.361   4.406   7.950
 5540POPC   C4B17278  27.350   4.407   7.650
 5541POPC   NC317279  12.821  17.494   9.450
 5541POPC   PO417280  12.823  17.532   9.150
 5541POPC   GL117281  12.885  17.528   8.850
 5541POPC   GL217282  12.820  17.427   8.850
 5541POPC   C1A17283  12.845  17.554   8.550
 5541POPC   D2A17284  12.826  17.498   8.250
 5541POPC   C3A17285  12.812  17.472   7.950
 5541POPC   C4A17286  12.808  17.500   7.650
 5541POPC   C1B17287  12.867  17.221   8.550
 5541POPC   C2B17288  12.846  17.224   8.250
 5541POPC   C3B17289  12.873  17.289   7.950
 5541POPC   C4B17290  12.854  17.216   7.650
 5542POPC   NC317291  11.271  15.979   9.450
 5542POPC   PO417292  11.298  15.967   9.150
 5542POPC   GL117293  11.296  15.993   8.850
 5542POPC   GL217294  11.464  15.929   8.850
 5542POPC   C1A17295  11.253  15.917   8.550
 5542POPC   D2A17296  11.338  15.939   8.250
 5542POPC   C3A17297  11.303  15.997   7.950
 5542POPC   C4A17298  11.324  15.924   7.650
 5542POPC   C1B17299  11.526  15.899   8.550
 5542POPC   C2B17300  11.501  15.903   8.250
 5542POPC   C3B17301  11.537  15.928   7.950
 5542POPC   C4B17302  11.520  15.955   7.650
 5543POPC   NC317303  32.244   2.794   9.450
 5543POPC   PO417304  32.248   2.815   9.150
 5543POPC   GL117305  32.294   2.795   8.850
 5543POPC   GL217306  32.396   2.718   8.850
 5543POPC   C1A17307  32.224   2.789   8.550
 5543POPC   D2A17308  32.252   2.788   8.250
 5543POPC   C3A17309  32.231   2.793   7.950
 5543POPC   C4A17310  32.198   2.784   7.650
 5543POPC   C1B17311  32.430   2.684   8.550
 5543POPC   C2B17312  32.486   2.613   8.250
 5543POPC   C3B17313  32.428   2.632   7.950
 5543POPC   C4B17314  32.432   2.640   7.650
 5544POPC   NC317315   4.279  40.000   9.450
 5544POPC   PO417316   4.311  40.029   9.150
 5544POPC   GL117317   4.331  40.049   8.850
 5544POPC   GL217318   4.201  40.123   8.850
 5544POPC   C1A17319   4.330  40.050   8.550
 5544POPC   D2A17320   4.340  39.981   8.250
 5544POPC   C3A17321   4.287  39.966   7.950
 5544POPC   C4A17322   4.323  40.043   7.650
 5544POPC   C1B17323   4.156  40.233   8.550
 5544POPC   C2B17324   4.189  40.245   8.250
 5544POPC   C3B17325   4.123  40.168   7.950
 5544POPC   C4B17326   4.143  40.239   7.650
 5545POPC   NC317327  20.570  22.933   9.450
 5545POPC   PO417328  20.602  22.921   9.150
 5545POPC   GL117329  20.586  22.936   8.850
 5545POPC   GL217330  20.724  22.903   8.850
 5545POPC   C1A17331  20.592  22.954   8.550
 5545POPC   D2A17332  20.659  22.953   8.250
 5545POPC   C3A17333  20.621  22.939   7.950
 5545POPC   C4A17334  20.630  22.920   7.650
 5545POPC   C1B17335  20.843  22.810   8.550
 5545POPC   C2B17336  20.849  22.784   8.250
 5545POPC   C3B17337  20.816  22.793   7.950
 5545POPC   C4B17338  20.818  22.805   7.650
 5546POPC   NC317339  40.816  26.788   9.450
 5546POPC   PO417340  40.763  26.808   9.150
 5546POPC   GL117341  40.810  26.843   8.850
 5546POPC   GL217342  40.714  26.700   8.850
 5546POPC   C1A17343  40.794  26.848   8.550
 5546POPC   D2A17344  40.813  26.784   8.250
 5546POPC   C3A17345  40.786  26.810   7.950
 5546POPC   C4A17346  40.790  26.807   7.650
 5546POPC   C1B17347  40.610  26.650   8.550
 5546POPC   C2B17348  40.675  26.650   8.250
 5546POPC   C3B17349  40.624  26.642   7.950
 5546POPC   C4B17350  40.645  26.615   7.650
 5547POPC   NC317351   8.182  23.666   9.450
 5547POPC   PO417352   8.211  23.700   9.150
 5547POPC   GL117353   8.172  23.699   8.850
 5547POPC   GL217354   8.117  23.705   8.850
 5547POPC   C1A17355   8.199  23.722   8.550
 5547POPC   D2A17356   8.166  23.742   8.250
 5547POPC   C3A17357   8.148  23.708   7.950
 5547POPC   C4A17358   8.236  23.726   7.650
 5547POPC   C1B17359   7.987  23.766   8.550
 5547POPC   C2B17360   7.945  23.760   8.250
 5547POPC   C3B17361   7.968  23.807   7.950
 5547POPC   C4B17362   7.962  23.791   7.650
 5548POPC   NC317363  40.768  44.663   9.450
 5548POPC   PO417364  40.777  44.706   9.150
 5548POPC   GL117365  40.795  44.649   8.850
 5548POPC   GL217366  40.711  44.640   8.850
 5548POPC   C1A17367  40.756  44.665   8.550
 5548POPC   D2A17368  40.750  44.700   8.250
 5548POPC   C3A17369  40.744  44.636   7.950
 5548POPC   C4A17370  40.771  44.625   7.650
 5548POPC   C1B17371  40.593  44.568   8.550
 5548POPC   C2B17372  40.531  44.519   8.250
 5548POPC   C3B17373  40.601  44.579   7.950
 5548POPC   C4B17374  40.583  44.552   7.650
 5549POPC   NC317375  36.124  21.374   9.450
 5549POPC   PO417376  36.144  21.348   9.150
 5549POPC   GL117377  36.121  21.430   8.850
 5549POPC   GL217378  35.958  21.374   8.850
 5549POPC   C1A17379  36.116  21.352   8.550
 5549POPC   D2A17380  36.146  21.372   8.250
 5549POPC   C3A17381  36.166  21.420   7.950
 5549POPC   C4A17382  36.176  21.402   7.650
 5549POPC   C1B17383  35.912  21.420   8.550
 5549POPC   C2B17384  35.899  21.349   8.250
 5549POPC   C3B17385  35.889  21.418   7.950
 5549POPC   C4B17386  35.835  21.366   7.650
 5550POPC   NC317387  18.327  44.636   9.450
 5550POPC   PO417388  18.318  44.644   9.150
 5550POPC   GL117389  18.317  44.659   8.850
 5550POPC   GL217390  18.220  44.604   8.850
 5550POPC   C1A17391  18.275  44.619   8.550
 5550POPC   D2A17392  18.324  44.647   8.250
 5550POPC   C3A17393  18.328  44.641   7.950
 5550POPC   C4A17394  18.281  44.644   7.650
 5550POPC   C1B17395  18.068  44.520   8.550
 5550POPC   C2B17396  18.072  44.489   8.250
 5550POPC   C3B17397  18.140  44.427   7.950
 5550POPC   C4B17398  18.123  44.458   7.650
 5551POPC   NC317399  32.255  23.741   9.450
 5551POPC   PO417400  32.250  23.762   9.150
 5551POPC   GL117401  32.233  23.757   8.850
 5551POPC   GL217402  32.231  23.547   8.850
 5551POPC   C1A17403  32.296  23.722   8.550
 5551POPC   D2A17404  32.201  23.685   8.250
 5551POPC   C3A17405  32.277  23.743   7.950
 5551POPC   C4A17406  32.273  23.703   7.650
 5551POPC   C1B17407  32.288  23.451   8.550
 5551POPC   C2B17408  32.334  23.429   8.250
 5551POPC   C3B17409  32.264  23.501   7.950
 5551POPC   C4B17410  32.322  23.450   7.650
 5552POPC   NC317411  12.082  17.471   9.450
 5552POPC   PO417412  12.096  17.538   9.150
 5552POPC   GL117413  12.092  17.552   8.850
 5552POPC   GL217414  12.163  17.566   8.850
 5552POPC   C1A17415  12.102  17.495   8.550
 5552POPC   D2A17416  12.051  17.512   8.250
 5552POPC   C3A17417  12.091  17.527   7.950
 5552POPC   C4A17418  12.121  17.547   7.650
 5552POPC   C1B17419  12.368  17.510   8.550
 5552POPC   C2B17420  12.324  17.560   8.250
 5552POPC   C3B17421  12.289  17.529   7.950
 5552POPC   C4B17422  12.285  17.542   7.650
 5553POPC   NC317423  32.298  22.146   9.450
 5553POPC   PO417424  32.257  22.208   9.150
 5553POPC   GL117425  32.249  22.201   8.850
 5553POPC   GL217426  32.306  22.054   8.850
 5553POPC   C1A17427  32.255  22.113   8.550
 5553POPC   D2A17428  32.250  22.187   8.250
 5553POPC   C3A17429  32.211  22.119   7.950
 5553POPC   C4A17430  32.268  22.137   7.650
 5553POPC   C1B17431  32.358  21.894   8.550
 5553POPC   C2B17432  32.290  21.918   8.250
 5553POPC   C3B17433  32.358  21.934   7.950
 5553POPC   C4B17434  32.334  21.913   7.650
 5554POPC   NC317435  38.460  33.784   9.450
 5554POPC   PO417436  38.455  33.789   9.150
 5554POPC   GL117437  38.427  33.754   8.850
 5554POPC   GL217438  38.580  33.676   8.850
 5554POPC   C1A17439  38.443  33.761   8.550
 5554POPC   D2A17440  38.459  33.757   8.250
 5554POPC   C3A17441  38.424  33.761   7.950
 5554POPC   C4A17442  38.483  33.760   7.650
 5554POPC   C1B17443  38.650  33.609   8.550
 5554POPC   C2B17444  38.627  33.629   8.250
 5554POPC   C3B17445  38.620  33.647   7.950
 5554POPC   C4B17446  38.682  33.613   7.650
 5555POPC   NC317447  24.461  16.737   9.450
 5555POPC   PO417448  24.534  16.704   9.150
 5555POPC   GL117449  24.509  16.715   8.850
 5555POPC   GL217450  24.342  16.711   8.850
 5555POPC   C1A17451  24.530  16.713   8.550
 5555POPC   D2A17452  24.499  16.708   8.250
 5555POPC   C3A17453  24.476  16.779   7.950
 5555POPC   C4A17454  24.512  16.775   7.650
 5555POPC   C1B17455  24.255  16.703   8.550
 5555POPC   C2B17456  24.202  16.636   8.250
 5555POPC   C3B17457  24.254  16.695   7.950
 5555POPC   C4B17458  24.272  16.632   7.650
 5556POPC   NC317459  15.171  27.555   9.450
 5556POPC   PO417460  15.148  27.578   9.150
 5556POPC   GL117461  15.168  27.588   8.850
 5556POPC   GL217462  15.023  27.580   8.850
 5556POPC   C1A17463  15.154  27.641   8.550
 5556POPC   D2A17464  15.171  27.564   8.250
 5556POPC   C3A17465  15.148  27.587   7.950
 5556POPC   C4A17466  15.177  27.630   7.650
 5556POPC   C1B17467  14.955  27.690   8.550
 5556POPC   C2B17468  14.904  27.615   8.250
 5556POPC   C3B17469  14.980  27.611   7.950
 5556POPC   C4B17470  14.921  27.674   7.650
 5557POPC   NC317471  40.789  11.302   9.450
 5557POPC   PO417472  40.759  11.251   9.150
 5557POPC   GL117473  40.819  11.323   8.850
 5557POPC   GL217474  40.921  11.367   8.850
 5557POPC   C1A17475  40.789  11.323   8.550
 5557POPC   D2A17476  40.795  11.302   8.250
 5557POPC   C3A17477  40.794  11.308   7.950
 5557POPC   C4A17478  40.815  11.277   7.650
 5557POPC   C1B17479  40.996  11.400   8.550
 5557POPC   C2B17480  41.031  11.463   8.250
 5557POPC   C3B17481  40.959  11.387   7.950
 5557POPC   C4B17482  41.031  11.397   7.650
 5558POPC   NC317483  19.030  22.115   9.450
 5558POPC   PO417484  19.107  22.116   9.150
 5558POPC   GL117485  19.094  22.196   8.850
 5558POPC   GL217486  19.150  22.066   8.850
 5558POPC   C1A17487  19.098  22.139   8.550
 5558POPC   D2A17488  19.027  22.177   8.250
 5558POPC   C3A17489  19.019  22.185   7.950
 5558POPC   C4A17490  19.050  22.164   7.650
 5558POPC   C1B17491  19.166  21.949   8.550
 5558POPC   C2B17492  19.220  21.907   8.250
 5558POPC   C3B17493  19.179  21.964   7.950
 5558POPC   C4B17494  19.156  21.962   7.650
 5559POPC   NC317495  29.105  10.538   9.450
 5559POPC   PO417496  29.175  10.512   9.150
 5559POPC   GL117497  29.096  10.483   8.850
 5559POPC   GL217498  29.046  10.566   8.850
 5559POPC   C1A17499  29.135  10.481   8.550
 5559POPC   D2A17500  29.124  10.537   8.250
 5559POPC   C3A17501  29.124  10.489   7.950
 5559POPC   C4A17502  29.110  10.540   7.650
 5559POPC   C1B17503  28.900  10.633   8.550
 5559POPC   C2B17504  28.933  10.608   8.250
 5559POPC   C3B17505  28.960  10.661   7.950
 5559POPC   C4B17506  28.938  10.658   7.650
 5560POPC   NC317507  26.792  42.377   9.450
 5560POPC   PO417508  26.803  42.297   9.150
 5560POPC   GL117509  26.807  42.310   8.850
 5560POPC   GL217510  26.661  42.366   8.850
 5560POPC   C1A17511  26.858  42.296   8.550
 5560POPC   D2A17512  26.837  42.314   8.250
 5560POPC   C3A17513  26.835  42.346   7.950
 5560POPC   C4A17514  26.837  42.383   7.650
 5560POPC   C1B17515  26.600  42.459   8.550
 5560POPC   C2B17516  26.589  42.391   8.250
 5560POPC   C3B17517  26.569  42.435   7.950
 5560POPC   C4B17518  26.577  42.455   7.650
 5561POPC   NC317519  31.500   1.221   9.450
 5561POPC   PO417520  31.423   1.184   9.150
 5561POPC   GL117521  31.487   1.165   8.850
 5561POPC   GL217522  31.327   1.172   8.850
 5561POPC   C1A17523  31.488   1.238   8.550
 5561POPC   D2A17524  31.455   1.171   8.250
 5561POPC   C3A17525  31.455   1.180   7.950
 5561POPC   C4A17526  31.520   1.254   7.650
 5561POPC   C1B17527  31.209   1.179   8.550
 5561POPC   C2B17528  31.231   1.186   8.250
 5561POPC   C3B17529  31.205   1.120   7.950
 5561POPC   C4B17530  31.275   1.184   7.650
 5562POPC   NC317531  39.246  44.617   9.450
 5562POPC   PO417532  39.188  44.655   9.150
 5562POPC   GL117533  39.243  44.612   8.850
 5562POPC   GL217534  39.334  44.689   8.850
 5562POPC   C1A17535  39.266  44.629   8.550
 5562POPC   D2A17536  39.192  44.709   8.250
 5562POPC   C3A17537  39.232  44.647   7.950
 5562POPC   C4A17538  39.205  44.683   7.650
 5562POPC   C1B17539  39.475  44.718   8.550
 5562POPC   C2B17540  39.421  44.761   8.250
 5562POPC   C3B17541  39.447  44.763   7.950
 5562POPC   C4B17542  39.433  44.742   7.650
 5563POPC   NC317543  43.116  11.252   9.450
 5563POPC   PO417544  43.117  11.258   9.150
 5563POPC   GL117545  43.061  11.254   8.850
 5563POPC   GL217546  42.987  11.398   8.850
 5563POPC   C1A17547  43.141  11.294   8.550
 5563POPC   D2A17548  43.119  11.336   8.250
 5563POPC   C3A17549  43.160  11.300   7.950
 5563POPC   C4A17550  43.082  11.295   7.650
 5563POPC   C1B17551  42.881  11.431   8.550
 5563POPC   C2B17552  42.942  11.445   8.250
 5563POPC   C3B17553  42.938  11.395   7.950
 5563POPC   C4B17554  42.896  11.460   7.650
 5564POPC   NC317555  31.485   0.394   9.450
 5564POPC   PO417556  31.460   0.413   9.150
 5564POPC   GL117557  31.515   0.405   8.850
 5564POPC   GL217558  31.344   0.507   8.850
 5564POPC   C1A17559  31.487   0.455   8.550
 5564POPC   D2A17560  31.476   0.464   8.250
 5564POPC   C3A17561  31.490   0.414   7.950
 5564POPC   C4A17562  31.495   0.395   7.650
 5564POPC   C1B17563  31.250   0.490   8.550
 5564POPC   C2B17564  31.203   0.471   8.250
 5564POPC   C3B17565  31.261   0.527   7.950
 5564POPC   C4B17566  31.233   0.500   7.650
 5565POPC   NC317567  23.716  35.379   9.450
 5565POPC   PO417568  23.746  35.319   9.150
 5565POPC   GL117569  23.730  35.306   8.850
 5565POPC   GL217570  23.691  35.444   8.850
 5565POPC   C1A17571  23.668  35.329   8.550
 5565POPC   D2A17572  23.746  35.305   8.250
 5565POPC   C3A17573  23.738  35.352   7.950
 5565POPC   C4A17574  23.753  35.321   7.650
 5565POPC   C1B17575  23.782  35.601   8.550
 5565POPC   C2B17576  23.784  35.612   8.250
 5565POPC   C3B17577  23.702  35.569   7.950
 5565POPC   C4B17578  23.791  35.580   7.650
 5566POPC   NC317579  33.826   0.408   9.450
 5566POPC   PO417580  33.768   0.433   9.150
 5566POPC   GL117581  33.834   0.390   8.850
 5566POPC   GL217582  33.911   0.385   8.850
 5566POPC   C1A17583  33.821   0.438   8.550
 5566POPC   D2A17584  33.800   0.420   8.250
 5566POPC   C3A17585  33.847   0.415   7.950
 5566POPC   C4A17586  33.756   0.429   7.650
 5566POPC   C1B17587  33.966   0.240   8.550
 5566POPC   C2B17588  33.950   0.223   8.250
 5566POPC   C3B17589  34.014   0.280   7.950
 5566POPC   C4B17590  33.978   0.278   7.650
 5567POPC   NC317591   1.206  19.107   9.450
 5567POPC   PO417592   1.171  19.078   9.150
 5567POPC   GL117593   1.249  19.069   8.850
 5567POPC   GL217594   1.123  19.044   8.850
 5567POPC   C1A17595   1.226  19.099   8.550
 5567POPC   D2A17596   1.197  19.069   8.250
 5567POPC   C3A17597   1.249  19.097   7.950
 5567POPC   C4A17598   1.241  19.096   7.650
 5567POPC   C1B17599   0.934  19.055   8.550
 5567POPC   C2B17600   0.956  19.078   8.250
 5567POPC   C3B17601   0.973  19.052   7.950
 5567POPC   C4B17602   0.927  19.031   7.650
 5568POPC   NC317603  28.367   3.545   9.450
 5568POPC   PO417604  28.343   3.578   9.150
 5568POPC   GL117605  28.396   3.540   8.850
 5568POPC   GL217606  28.309   3.447   8.850
 5568POPC   C1A17607  28.378   3.524   8.550
 5568POPC   D2A17608  28.319   3.586   8.250
 5568POPC   C3A17609  28.378   3.551   7.950
 5568POPC   C4A17610  28.357   3.552   7.650
 5568POPC   C1B17611  28.112   3.447   8.550
 5568POPC   C2B17612  28.172   3.447   8.250
 5568POPC   C3B17613  28.157   3.415   7.950
 5568POPC   C4B17614  28.158   3.396   7.650
 5569POPC   NC317615   2.769  17.542   9.450
 5569POPC   PO417616   2.727  17.518   9.150
 5569POPC   GL117617   2.732  17.469   8.850
 5569POPC   GL217618   2.724  17.377   8.850
 5569POPC   C1A17619   2.744  17.549   8.550
 5569POPC   D2A17620   2.758  17.509   8.250
 5569POPC   C3A17621   2.785  17.540   7.950
 5569POPC   C4A17622   2.760  17.552   7.650
 5569POPC   C1B17623   2.687  17.308   8.550
 5569POPC   C2B17624   2.630  17.253   8.250
 5569POPC   C3B17625   2.619  17.304   7.950
 5569POPC   C4B17626   2.626  17.271   7.650
 5570POPC   NC317627  40.050  14.404   9.450
 5570POPC   PO417628  39.972  14.362   9.150
 5570POPC   GL117629  39.975  14.437   8.850
 5570POPC   GL217630  39.952  14.306   8.850
 5570POPC   C1A17631  39.990  14.391   8.550
 5570POPC   D2A17632  39.969  14.366   8.250
 5570POPC   C3A17633  40.008  14.384   7.950
 5570POPC   C4A17634  40.019  14.363   7.650
 5570POPC   C1B17635  39.861  14.182   8.550
 5570POPC   C2B17636  39.845  14.255   8.250
 5570POPC   C3B17637  39.813  14.184   7.950
 5570POPC   C4B17638  39.825  14.237   7.650
 5571POPC   NC317639  16.694  16.738   9.450
 5571POPC   PO417640  16.689  16.749   9.150
 5571POPC   GL117641  16.779  16.778   8.850
 5571POPC   GL217642  16.629  16.718   8.850
 5571POPC   C1A17643  16.743  16.769   8.550
 5571POPC   D2A17644  16.757  16.779   8.250
 5571POPC   C3A17645  16.705  16.708   7.950
 5571POPC   C4A17646  16.753  16.778   7.650
 5571POPC   C1B17647  16.525  16.681   8.550
 5571POPC   C2B17648  16.473  16.627   8.250
 5571POPC   C3B17649  16.451  16.644   7.950
 5571POPC   C4B17650  16.489  16.609   7.650
 5572POPC   NC317651  29.930  28.396   9.450
 5572POPC   PO417652  29.887  28.352   9.150
 5572POPC   GL117653  29.912  28.399   8.850
 5572POPC   GL217654  29.952  28.453   8.850
 5572POPC   C1A17655  29.904  28.404   8.550
 5572POPC   D2A17656  29.876  28.388   8.250
 5572POPC   C3A17657  29.908  28.372   7.950
 5572POPC   C4A17658  29.889  28.367   7.650
 5572POPC   C1B17659  30.058  28.632   8.550
 5572POPC   C2B17660  30.058  28.619   8.250
 5572POPC   C3B17661  29.996  28.632   7.950
 5572POPC   C4B17662  29.996  28.554   7.650
 5573POPC   NC317663  27.581  41.584   9.450
 5573POPC   PO417664  27.605  41.552   9.150
 5573POPC   GL117665  27.608  41.608   8.850
 5573POPC   GL217666  27.734  41.617   8.850
 5573POPC   C1A17667  27.592  41.605   8.550
 5573POPC   D2A17668  27.586  41.568   8.250
 5573POPC   C3A17669  27.586  41.558   7.950
 5573POPC   C4A17670  27.588  41.587   7.650
 5573POPC   C1B17671  27.818  41.685   8.550
 5573POPC   C2B17672  27.869  41.649   8.250
 5573POPC   C3B17673  27.811  41.603   7.950
 5573POPC   C4B17674  27.798  41.660   7.650
 5574POPC   NC317675  12.896  43.074   9.450
 5574POPC   PO417676  12.876  43.134   9.150
 5574POPC   GL117677  12.804  43.101   8.850
 5574POPC   GL217678  12.960  42.991   8.850
 5574POPC   C1A17679  12.840  43.138   8.550
 5574POPC   D2A17680  12.854  43.146   8.250
 5574POPC   C3A17681  12.899  43.085   7.950
 5574POPC   C4A17682  12.862  43.076   7.650
 5574POPC   C1B17683  13.012  42.965   8.550
 5574POPC   C2B17684  12.988  42.915   8.250
 5574POPC   C3B17685  13.003  42.980   7.950
 5574POPC   C4B17686  13.031  42.904   7.650
 5575POPC   NC317687  44.681  40.826   9.450
 5575POPC   PO417688  44.613  40.795   9.150
 5575POPC   GL117689  44.662  40.801   8.850
 5575POPC   GL217690  44.527  40.840   8.850
 5575POPC   C1A17691  44.685  40.797   8.550
 5575POPC   D2A17692  44.624  40.819   8.250
 5575POPC   C3A17693  44.642  40.762   7.950
 5575POPC   C4A17694  44.688  40.814   7.650
 5575POPC   C1B17695  44.507  40.944   8.550
 5575POPC   C2B17696  44.437  40.880   8.250
 5575POPC   C3B17697  44.476  40.937   7.950
 5575POPC   C4B17698  44.476  40.924   7.650
 5576POPC   NC317699   7.383   2.804   9.450
 5576POPC   PO417700   7.375   2.777   9.150
 5576POPC   GL117701   7.442   2.754   8.850
 5576POPC   GL217702   7.543   2.689   8.850
 5576POPC   C1A17703   7.384   2.784   8.550
 5576POPC   D2A17704   7.394   2.784   8.250
 5576POPC   C3A17705   7.404   2.717   7.950
 5576POPC   C4A17706   7.438   2.780   7.650
 5576POPC   C1B17707   7.671   2.731   8.550
 5576POPC   C2B17708   7.671   2.668   8.250
 5576POPC   C3B17709   7.695   2.663   7.950
 5576POPC   C4B17710   7.681   2.653   7.650
 5577POPC   NC317711  12.080  21.409   9.450
 5577POPC   PO417712  12.028  21.430   9.150
 5577POPC   GL117713  12.103  21.383   8.850
 5577POPC   GL217714  12.004  21.251   8.850
 5577POPC   C1A17715  12.081  21.403   8.550
 5577POPC   D2A17716  12.125  21.364   8.250
 5577POPC   C3A17717  12.055  21.372   7.950
 5577POPC   C4A17718  12.065  21.424   7.650
 5577POPC   C1B17719  12.029  21.110   8.550
 5577POPC   C2B17720  11.968  21.180   8.250
 5577POPC   C3B17721  12.029  21.127   7.950
 5577POPC   C4B17722  12.042  21.147   7.650
 5578POPC   NC317723  33.789  29.938   9.450
 5578POPC   PO417724  33.773  29.915   9.150
 5578POPC   GL117725  33.766  29.966   8.850
 5578POPC   GL217726  33.800  30.050   8.850
 5578POPC   C1A17727  33.794  29.880   8.550
 5578POPC   D2A17728  33.844  29.871   8.250
 5578POPC   C3A17729  33.771  29.876   7.950
 5578POPC   C4A17730  33.846  29.878   7.650
 5578POPC   C1B17731  33.721  30.153   8.550
 5578POPC   C2B17732  33.774  30.120   8.250
 5578POPC   C3B17733  33.763  30.214   7.950
 5578POPC   C4B17734  33.719  30.203   7.650
 5579POPC   NC317735  30.693  33.779   9.450
 5579POPC   PO417736  30.727  33.810   9.150
 5579POPC   GL117737  30.677  33.769   8.850
 5579POPC   GL217738  30.657  33.881   8.850
 5579POPC   C1A17739  30.737  33.822   8.550
 5579POPC   D2A17740  30.700  33.774   8.250
 5579POPC   C3A17741  30.680  33.772   7.950
 5579POPC   C4A17742  30.682  33.848   7.650
 5579POPC   C1B17743  30.643  34.016   8.550
 5579POPC   C2B17744  30.658  34.058   8.250
 5579POPC   C3B17745  30.647  34.045   7.950
 5579POPC   C4B17746  30.662  34.013   7.650
 5580POPC   NC317747   5.120  28.410   9.450
 5580POPC   PO417748   5.079  28.358   9.150
 5580POPC   GL117749   5.132  28.394   8.850
 5580POPC   GL217750   5.218  28.377   8.850
 5580POPC   C1A17751   5.083  28.365   8.550
 5580POPC   D2A17752   5.057  28.417   8.250
 5580POPC   C3A17753   5.116  28.408   7.950
 5580POPC   C4A17754   5.092  28.387   7.650
 5580POPC   C1B17755   5.307  28.475   8.550
 5580POPC   C2B17756   5.285  28.413   8.250
 5580POPC   C3B17757   5.279  28.431   7.950
 5580POPC   C4B17758   5.307  28.414   7.650
 5581POPC   NC317759  36.176  42.353   9.450
 5581POPC   PO417760  36.121  42.353   9.150
 5581POPC   GL117761  36.127  42.366   8.850
 5581POPC   GL217762  36.202  42.286   8.850
 5581POPC   C1A17763  36.152  42.373   8.550
 5581POPC   D2A17764  36.119  42.313   8.250
 5581POPC   C3A17765  36.167  42.291   7.950
 5581POPC   C4A17766  36.098  42.371   7.650
 5581POPC   C1B17767  36.292  42.202   8.550
 5581POPC   C2B17768  36.338  42.189   8.250
 5581POPC   C3B17769  36.319  42.162   7.950
 5581POPC   C4B17770  36.329  42.183   7.650
 5582POPC   NC317771   6.658   8.194   9.450
 5582POPC   PO417772   6.658   8.175   9.150
 5582POPC   GL117773   6.637   8.234   8.850
 5582POPC   GL217774   6.710   8.091   8.850
 5582POPC   C1A17775   6.629   8.184   8.550
 5582POPC   D2A17776   6.677   8.223   8.250
 5582POPC   C3A17777   6.639   8.213   7.950
 5582POPC   C4A17778   6.620   8.157   7.650
 5582POPC   C1B17779   6.793   7.985   8.550
 5582POPC   C2B17780   6.805   7.957   8.250
 5582POPC   C3B17781   6.796   8.024   7.950
 5582POPC   C4B17782   6.775   7.989   7.650
 5583POPC   NC317783   1.238  14.429   9.450
 5583POPC   PO417784   1.230  14.413   9.150
 5583POPC   GL117785   1.249  14.418   8.850
 5583POPC   GL217786   1.323  14.454   8.850
 5583POPC   C1A17787   1.200  14.393   8.550
 5583POPC   D2A17788   1.228  14.412   8.250
 5583POPC   C3A17789   1.247  14.362   7.950
 5583POPC   C4A17790   1.213  14.409   7.650
 5583POPC   C1B17791   1.377  14.582   8.550
 5583POPC   C2B17792   1.369  14.627   8.250
 5583POPC   C3B17793   1.424  14.552   7.950
 5583POPC   C4B17794   1.412  14.630   7.650
 5584POPC   NC317795  38.488  12.049   9.450
 5584POPC   PO417796  38.417  12.097   9.150
 5584POPC   GL117797  38.418  12.088   8.850
 5584POPC   GL217798  38.378  11.981   8.850
 5584POPC   C1A17799  38.420  12.121   8.550
 5584POPC   D2A17800  38.450  12.029   8.250
 5584POPC   C3A17801  38.455  12.084   7.950
 5584POPC   C4A17802  38.428  12.069   7.650
 5584POPC   C1B17803  38.247  11.909   8.550
 5584POPC   C2B17804  38.253  11.875   8.250
 5584POPC   C3B17805  38.329  11.847   7.950
 5584POPC   C4B17806  38.306  11.924   7.650
 5585POPC   NC317807  12.871  36.160   9.450
 5585POPC   PO417808  12.861  36.099   9.150
 5585POPC   GL117809  12.889  36.117   8.850
 5585POPC   GL217810  12.858  36.245   8.850
 5585POPC   C1A17811  12.823  36.157   8.550
 5585POPC   D2A17812  12.881  36.111   8.250
 5585POPC   C3A17813  12.808  36.142   7.950
 5585POPC   C4A17814  12.843  36.162   7.650
 5585POPC   C1B17815  12.840  36.388   8.550
 5585POPC   C2B17816  12.780  36.423   8.250
 5585POPC   C3B17817  12.835  36.395   7.950
 5585POPC   C4B17818  12.845  36.388   7.650
 5586POPC   NC317819   5.090  33.038   9.450
 5586POPC   PO417820   5.139  32.990   9.150
 5586POPC   GL117821   5.131  33.008   8.850
 5586POPC   GL217822   5.172  32.968   8.850
 5586POPC   C1A17823   5.048  33.062   8.550
 5586POPC   D2A17824   5.126  33.004   8.250
 5586POPC   C3A17825   5.118  33.045   7.950
 5586POPC   C4A17826   5.051  33.057   7.650
 5586POPC   C1B17827   5.331  32.887   8.550
 5586POPC   C2B17828   5.324  32.941   8.250
 5586POPC   C3B17829   5.353  32.884   7.950
 5586POPC   C4B17830   5.279  32.884   7.650
 5587POPC   NC317831   5.098   5.890   9.450
 5587POPC   PO417832   5.077   5.872   9.150
 5587POPC   GL117833   5.072   5.834   8.850
 5587POPC   GL217834   5.219   5.740   8.850
 5587POPC   C1A17835   5.064   5.820   8.550
 5587POPC   D2A17836   5.135   5.909   8.250
 5587POPC   C3A17837   5.136   5.917   7.950
 5587POPC   C4A17838   5.139   5.846   7.650
 5587POPC   C1B17839   5.221   5.683   8.550
 5587POPC   C2B17840   5.206   5.719   8.250
 5587POPC   C3B17841   5.280   5.683   7.950
 5587POPC   C4B17842   5.246   5.670   7.650
 5588POPC   NC317843  39.994  37.718   9.450
 5588POPC   PO417844  40.035  37.711   9.150
 5588POPC   GL117845  40.045  37.702   8.850
 5588POPC   GL217846  39.932  37.846   8.850
 5588POPC   C1A17847  39.987  37.643   8.550
 5588POPC   D2A17848  39.988  37.722   8.250
 5588POPC   C3A17849  40.005  37.668   7.950
 5588POPC   C4A17850  40.030  37.698   7.650
 5588POPC   C1B17851  39.898  37.937   8.550
 5588POPC   C2B17852  39.945  37.893   8.250
 5588POPC   C3B17853  39.895  37.892   7.950
 5588POPC   C4B17854  39.962  37.876   7.650
 5589POPC   NC317855  12.079  25.251   9.450
 5589POPC   PO417856  12.049  25.308   9.150
 5589POPC   GL117857  12.084  25.226   8.850
 5589POPC   GL217858  12.250  25.246   8.850
 5589POPC   C1A17859  12.097  25.247   8.550
 5589POPC   D2A17860  12.093  25.226   8.250
 5589POPC   C3A17861  12.051  25.303   7.950
 5589POPC   C4A17862  12.038  25.238   7.650
 5589POPC   C1B17863  12.286  25.237   8.550
 5589POPC   C2B17864  12.364  25.232   8.250
 5589POPC   C3B17865  12.278  25.238   7.950
 5589POPC   C4B17866  12.314  25.274   7.650
 5590POPC   NC317867  19.058  13.658   9.450
 5590POPC   PO417868  19.015  13.645   9.150
 5590POPC   GL117869  19.079  13.616   8.850
 5590POPC   GL217870  19.015  13.520   8.850
 5590POPC   C1A17871  19.104  13.591   8.550
 5590POPC   D2A17872  19.086  13.626   8.250
 5590POPC   C3A17873  19.037  13.598   7.950
 5590POPC   C4A17874  19.098  13.585   7.650
 5590POPC   C1B17875  19.027  13.382   8.550
 5590POPC   C2B17876  19.007  13.357   8.250
 5590POPC   C3B17877  19.041  13.336   7.950
 5590POPC   C4B17878  18.988  13.398   7.650
 5591POPC   NC317879   0.436  20.633   9.450
 5591POPC   PO417880   0.427  20.622   9.150
 5591POPC   GL117881   0.447  20.568   8.850
 5591POPC   GL217882   0.551  20.592   8.850
 5591POPC   C1A17883   0.445  20.618   8.550
 5591POPC   D2A17884   0.397  20.582   8.250
 5591POPC   C3A17885   0.433  20.600   7.950
 5591POPC   C4A17886   0.467  20.597   7.650
 5591POPC   C1B17887   0.708  20.594   8.550
 5591POPC   C2B17888   0.730  20.557   8.250
 5591POPC   C3B17889   0.658  20.594   7.950
 5591POPC   C4B17890   0.655  20.627   7.650
 5592POPC   NC317891  44.700   8.963   9.450
 5592POPC   PO417892  44.639   8.953   9.150
 5592POPC   GL117893  44.652   8.949   8.850
 5592POPC   GL217894  44.605   8.836   8.850
 5592POPC   C1A17895  44.709   8.944   8.550
 5592POPC   D2A17896  44.687   8.956   8.250
 5592POPC   C3A17897  44.681   8.998   7.950
 5592POPC   C4A17898  44.689   8.925   7.650
 5592POPC   C1B17899  44.523   8.792   8.550
 5592POPC   C2B17900  44.532   8.777   8.250
 5592POPC   C3B17901  44.543   8.792   7.950
 5592POPC   C4B17902  44.566   8.769   7.650
 5593POPC   NC317903  27.572  15.973   9.450
 5593POPC   PO417904  27.595  15.920   9.150
 5593POPC   GL117905  27.551  15.950   8.850
 5593POPC   GL217906  27.711  15.880   8.850
 5593POPC   C1A17907  27.592  15.908   8.550
 5593POPC   D2A17908  27.595  15.974   8.250
 5593POPC   C3A17909  27.643  15.959   7.950
 5593POPC   C4A17910  27.642  15.941   7.650
 5593POPC   C1B17911  27.762  15.812   8.550
 5593POPC   C2B17912  27.836  15.839   8.250
 5593POPC   C3B17913  27.761  15.791   7.950
 5593POPC   C4B17914  27.827  15.780   7.650
 5594POPC   NC317915  20.627  43.068   9.450
 5594POPC   PO417916  20.648  43.107   9.150
 5594POPC   GL117917  20.567  43.143   8.850
 5594POPC   GL217918  20.710  43.018   8.850
 5594POPC   C1A17919  20.648  43.126   8.550
 5594POPC   D2A17920  20.577  43.067   8.250
 5594POPC   C3A17921  20.652  43.096   7.950
 5594POPC   C4A17922  20.646  43.109   7.650
 5594POPC   C1B17923  20.842  42.928   8.550
 5594POPC   C2B17924  20.839  42.924   8.250
 5594POPC   C3B17925  20.836  42.908   7.950
 5594POPC   C4B17926  20.816  42.906   7.650
 5595POPC   NC317927  34.588  40.750   9.450
 5595POPC   PO417928  34.587  40.822   9.150
 5595POPC   GL117929  34.526  40.817   8.850
 5595POPC   GL217930  34.628  40.631   8.850
 5595POPC   C1A17931  34.542  40.762   8.550
 5595POPC   D2A17932  34.556  40.755   8.250
 5595POPC   C3A17933  34.599  40.743   7.950
 5595POPC   C4A17934  34.527  40.818   7.650
 5595POPC   C1B17935  34.713  40.565   8.550
 5595POPC   C2B17936  34.700  40.531   8.250
 5595POPC   C3B17937  34.748  40.583   7.950
 5595POPC   C4B17938  34.748  40.526   7.650
 5596POPC   NC317939  13.620  41.594   9.450
 5596POPC   PO417940  13.592  41.560   9.150
 5596POPC   GL117941  13.638  41.554   8.850
 5596POPC   GL217942  13.531  41.429   8.850
 5596POPC   C1A17943  13.654  41.572   8.550
 5596POPC   D2A17944  13.673  41.527   8.250
 5596POPC   C3A17945  13.656  41.581   7.950
 5596POPC   C4A17946  13.655  41.556   7.650
 5596POPC   C1B17947  13.481  41.371   8.550
 5596POPC   C2B17948  13.460  41.371   8.250
 5596POPC   C3B17949  13.532  41.328   7.950
 5596POPC   C4B17950  13.532  41.305   7.650
 5597POPC   NC317951  41.558  34.532   9.450
 5597POPC   PO417952  41.564  34.613   9.150
 5597POPC   GL117953  41.607  34.571   8.850
 5597POPC   GL217954  41.719  34.621   8.850
 5597POPC   C1A17955  41.513  34.599   8.550
 5597POPC   D2A17956  41.569  34.614   8.250
 5597POPC   C3A17957  41.572  34.567   7.950
 5597POPC   C4A17958  41.604  34.553   7.650
 5597POPC   C1B17959  41.853  34.595   8.550
 5597POPC   C2B17960  41.788  34.534   8.250
 5597POPC   C3B17961  41.774  34.550   7.950
 5597POPC   C4B17962  41.766  34.604   7.650
 5598POPC   NC317963  12.027  39.993   9.450
 5598POPC   PO417964  12.061  40.054   9.150
 5598POPC   GL117965  12.059  40.022   8.850
 5598POPC   GL217966  12.162  40.002   8.850
 5598POPC   C1A17967  12.091  39.988   8.550
 5598POPC   D2A17968  12.080  39.965   8.250
 5598POPC   C3A17969  12.112  39.980   7.950
 5598POPC   C4A17970  12.048  40.026   7.650
 5598POPC   C1B17971  12.296  39.979   8.550
 5598POPC   C2B17972  12.315  40.000   8.250
 5598POPC   C3B17973  12.308  39.981   7.950
 5598POPC   C4B17974  12.276  40.027   7.650
 5599POPC   NC317975  13.652  12.887   9.450
 5599POPC   PO417976  13.651  12.810   9.150
 5599POPC   GL117977  13.665  12.882   8.850
 5599POPC   GL217978  13.738  12.804   8.850
 5599POPC   C1A17979  13.591  12.866   8.550
 5599POPC   D2A17980  13.664  12.880   8.250
 5599POPC   C3A17981  13.594  12.803   7.950
 5599POPC   C4A17982  13.628  12.867   7.650
 5599POPC   C1B17983  13.867  12.716   8.550
 5599POPC   C2B17984  13.847  12.701   8.250
 5599POPC   C3B17985  13.876  12.754   7.950
 5599POPC   C4B17986  13.802  12.706   7.650
 5600POPC   NC317987  19.062   9.704   9.450
 5600POPC   PO417988  19.098   9.769   9.150
 5600POPC   GL117989  19.062   9.720   8.850
 5600POPC   GL217990  19.155   9.671   8.850
 5600POPC   C1A17991  19.046   9.717   8.550
 5600POPC   D2A17992  19.091   9.795   8.250
 5600POPC   C3A17993  19.037   9.790   7.950
 5600POPC   C4A17994  19.083   9.740   7.650
 5600POPC   C1B17995  19.281   9.534   8.550
 5600POPC   C2B17996  19.209   9.625   8.250
 5600POPC   C3B17997  19.252   9.605   7.950
 5600POPC   C4B17998  19.233   9.548   7.650
 5601POPC   NC317999  14.381   3.497   9.450
 5601POPC   PO418000  14.356   3.539   9.150
 5601POPC   GL118001  14.397   3.570   8.850
 5601POPC   GL218002  14.512   3.538   8.850
 5601POPC   C1A18003  14.391   3.590   8.550
 5601POPC   D2A18004  14.422   3.512   8.250
 5601POPC   C3A18005  14.445   3.542   7.950
 5601POPC   C4A18006  14.421   3.513   7.650
 5601POPC   C1B18007  14.639   3.451   8.550
 5601POPC   C2B18008  14.652   3.499   8.250
 5601POPC   C3B18009  14.680   3.447   7.950
 5601POPC   C4B18010  14.618   3.419   7.650
 5602POPC   NC318011   2.760  38.438   9.450
 5602POPC   PO418012   2.758  38.479   9.150
 5602POPC   GL118013   2.790  38.466   8.850
 5602POPC   GL218014   2.870  38.475   8.850
 5602POPC   C1A18015   2.746  38.495   8.550
 5602POPC   D2A18016   2.761  38.419   8.250
 5602POPC   C3A18017   2.814  38.482   7.950
 5602POPC   C4A18018   2.764  38.479   7.650
 5602POPC   C1B18019   3.020  38.489   8.550
 5602POPC   C2B18020   3.017  38.454   8.250
 5602POPC   C3B18021   2.986  38.513   7.950
 5602POPC   C4B18022   3.012  38.520   7.650
 5603POPC   NC318023   3.552  27.617   9.450
 5603POPC   PO418024   3.586  27.598   9.150
 5603POPC   GL118025   3.499  27.625   8.850
 5603POPC   GL218026   3.540  27.501   8.850
 5603POPC   C1A18027   3.526  27.619   8.550
 5603POPC   D2A18028   3.535  27.612   8.250
 5603POPC   C3A18029   3.502  27.569   7.950
 5603POPC   C4A18030   3.527  27.577   7.650
 5603POPC   C1B18031   3.618  27.316   8.550
 5603POPC   C2B18032   3.561  27.307   8.250
 5603POPC   C3B18033   3.641  27.308   7.950
 5603POPC   C4B18034   3.600  27.321   7.650
 5604POPC   NC318035  31.470  34.606   9.450
 5604POPC   PO418036  31.506  34.567   9.150
 5604POPC   GL118037  31.520  34.616   8.850
 5604POPC   GL218038  31.356  34.646   8.850
 5604POPC   C1A18039  31.450  34.595   8.550
 5604POPC   D2A18040  31.469  34.568   8.250
 5604POPC   C3A18041  31.508  34.611   7.950
 5604POPC   C4A18042  31.424  34.536   7.650
 5604POPC   C1B18043  31.237  34.737   8.550
 5604POPC   C2B18044  31.311  34.756   8.250
 5604POPC   C3B18045  31.252  34.729   7.950
 5604POPC   C4B18046  31.260  34.701   7.650
 5605POPC   NC318047  29.871  36.885   9.450
 5605POPC   PO418048  29.947  36.942   9.150
 5605POPC   GL118049  29.883  36.858   8.850
 5605POPC   GL218050  30.050  36.847   8.850
 5605POPC   C1A18051  29.947  36.901   8.550
 5605POPC   D2A18052  29.920  36.928   8.250
 5605POPC   C3A18053  29.882  36.921   7.950
 5605POPC   C4A18054  29.901  36.882   7.650
 5605POPC   C1B18055  30.184  36.848   8.550
 5605POPC   C2B18056  30.128  36.892   8.250
 5605POPC   C3B18057  30.177  36.823   7.950
 5605POPC   C4B18058  30.181  36.860   7.650
 5606POPC   NC318059  22.892   5.138   9.450
 5606POPC   PO418060  22.936   5.102   9.150
 5606POPC   GL118061  22.910   5.052   8.850
 5606POPC   GL218062  23.031   5.193   8.850
 5606POPC   C1A18063  22.985   5.066   8.550
 5606POPC   D2A18064  22.908   5.109   8.250
 5606POPC   C3A18065  22.955   5.050   7.950
 5606POPC   C4A18066  22.968   5.092   7.650
 5606POPC   C1B18067  23.138   5.186   8.550
 5606POPC   C2B18068  23.133   5.193   8.250
 5606POPC   C3B18069  23.105   5.249   7.950
 5606POPC   C4B18070  23.143   5.212   7.650
 5607POPC   NC318071  27.558  30.715   9.450
 5607POPC   PO418072  27.591  30.708   9.150
 5607POPC   GL118073  27.559  30.688   8.850
 5607POPC   GL218074  27.480  30.559   8.850
 5607POPC   C1A18075  27.588  30.731   8.550
 5607POPC   D2A18076  27.637  30.733   8.250
 5607POPC   C3A18077  27.616  30.689   7.950
 5607POPC   C4A18078  27.620  30.687   7.650
 5607POPC   C1B18079  27.469  30.448   8.550
 5607POPC   C2B18080  27.417  30.510   8.250
 5607POPC   C3B18081  27.506  30.483   7.950
 5607POPC   C4B18082  27.498  30.529   7.650
 5608POPC   NC318083  13.622   7.375   9.450
 5608POPC   PO418084  13.616   7.386   9.150
 5608POPC   GL118085  13.672   7.428   8.850
 5608POPC   GL218086  13.506   7.362   8.850
 5608POPC   C1A18087  13.640   7.444   8.550
 5608POPC   D2A18088  13.599   7.376   8.250
 5608POPC   C3A18089  13.612   7.440   7.950
 5608POPC   C4A18090  13.668   7.413   7.650
 5608POPC   C1B18091  13.468   7.311   8.550
 5608POPC   C2B18092  13.384   7.229   8.250
 5608POPC   C3B18093  13.460   7.247   7.950
 5608POPC   C4B18094  13.451   7.298   7.650
 5609POPC   NC318095   9.763  31.432   9.450
 5609POPC   PO418096   9.740  31.463   9.150
 5609POPC   GL118097   9.770  31.518   8.850
 5609POPC   GL218098   9.761  31.340   8.850
 5609POPC   C1A18099   9.699  31.517   8.550
 5609POPC   D2A18100   9.766  31.498   8.250
 5609POPC   C3A18101   9.778  31.424   7.950
 5609POPC   C4A18102   9.729  31.474   7.650
 5609POPC   C1B18103   9.800  31.250   8.550
 5609POPC   C2B18104   9.819  31.250   8.250
 5609POPC   C3B18105   9.836  31.230   7.950
 5609POPC   C4B18106   9.834  31.199   7.650
 5610POPC   NC318107  26.786  10.538   9.450
 5610POPC   PO418108  26.859  10.519   9.150
 5610POPC   GL118109  26.784  10.479   8.850
 5610POPC   GL218110  26.847  10.647   8.850
 5610POPC   C1A18111  26.810  10.489   8.550
 5610POPC   D2A18112  26.799  10.535   8.250
 5610POPC   C3A18113  26.836  10.518   7.950
 5610POPC   C4A18114  26.827  10.514   7.650
 5610POPC   C1B18115  26.984  10.692   8.550
 5610POPC   C2B18116  26.990  10.720   8.250
 5610POPC   C3B18117  26.922  10.761   7.950
 5610POPC   C4B18118  26.944  10.766   7.650
 5611POPC   NC318119  15.992   5.128   9.450
 5611POPC   PO418120  15.995   5.048   9.150
 5611POPC   GL118121  15.953   5.137   8.850
 5611POPC   GL218122  15.868   5.042   8.850
 5611POPC   C1A18123  15.988   5.130   8.550
 5611POPC   D2A18124  15.981   5.121   8.250
 5611POPC   C3A18125  15.966   5.059   7.950
 5611POPC   C4A18126  15.969   5.122   7.650
 5611POPC   C1B18127  15.794   4.981   8.550
 5611POPC   C2B18128  15.741   4.948   8.250
 5611POPC   C3B18129  15.761   4.915   7.950
 5611POPC   C4B18130  15.763   4.986   7.650
 5612POPC   NC318131  36.926  37.650   9.450
 5612POPC   PO418132  36.862  37.659   9.150
 5612POPC   GL118133  36.905  37.635   8.850
 5612POPC   GL218134  37.061  37.636   8.850
 5612POPC   C1A18135  36.928  37.644   8.550
 5612POPC   D2A18136  36.903  37.633   8.250
 5612POPC   C3A18137  36.941  37.671   7.950
 5612POPC   C4A18138  36.933  37.644   7.650
 5612POPC   C1B18139  37.159  37.591   8.550
 5612POPC   C2B18140  37.100  37.560   8.250
 5612POPC   C3B18141  37.158  37.583   7.950
 5612POPC   C4B18142  37.131  37.605   7.650
 5613POPC   NC318143   9.715   2.028   9.450
 5613POPC   PO418144   9.741   2.015   9.150
 5613POPC   GL118145   9.722   2.025   8.850
 5613POPC   GL218146   9.824   2.047   8.850
 5613POPC   C1A18147   9.735   1.989   8.550
 5613POPC   D2A18148   9.747   1.973   8.250
 5613POPC   C3A18149   9.773   2.017   7.950
 5613POPC   C4A18150   9.710   1.991   7.650
 5613POPC   C1B18151   9.876   2.169   8.550
 5613POPC   C2B18152   9.894   2.229   8.250
 5613POPC   C3B18153   9.912   2.198   7.950
 5613POPC   C4B18154   9.865   2.242   7.650
 5614POPC   NC318155  27.558  29.105   9.450
 5614POPC   PO418156  27.642  29.167   9.150
 5614POPC   GL118157  27.552  29.148   8.850
 5614POPC   GL218158  27.539  28.996   8.850
 5614POPC   C1A18159  27.608  29.187   8.550
 5614POPC   D2A18160  27.560  29.146   8.250
 5614POPC   C3A18161  27.628  29.191   7.950
 5614POPC   C4A18162  27.616  29.136   7.650
 5614POPC   C1B18163  27.487  28.925   8.550
 5614POPC   C2B18164  27.468  28.898   8.250
 5614POPC   C3B18165  27.508  28.899   7.950
 5614POPC   C4B18166  27.529  28.898   7.650
 5615POPC   NC318167  18.292  29.920   9.450
 5615POPC   PO418168  18.282  29.968   9.150
 5615POPC   GL118169  18.316  29.917   8.850
 5615POPC   GL218170  18.336  30.001   8.850
 5615POPC   C1A18171  18.239  29.931   8.550
 5615POPC   D2A18172  18.235  29.872   8.250
 5615POPC   C3A18173  18.329  29.895   7.950
 5615POPC   C4A18174  18.327  29.961   7.650
 5615POPC   C1B18175  18.400  30.131   8.550
 5615POPC   C2B18176  18.327  30.197   8.250
 5615POPC   C3B18177  18.359  30.151   7.950
 5615POPC   C4B18178  18.326  30.165   7.650
 5616POPC   NC318179  15.939  17.542   9.450
 5616POPC   PO418180  15.996  17.556   9.150
 5616POPC   GL118181  15.979  17.493   8.850
 5616POPC   GL218182  15.980  17.409   8.850
 5616POPC   C1A18183  15.920  17.525   8.550
 5616POPC   D2A18184  15.945  17.529   8.250
 5616POPC   C3A18185  15.918  17.479   7.950
 5616POPC   C4A18186  15.922  17.510   7.650
 5616POPC   C1B18187  15.946  17.226   8.550
 5616POPC   C2B18188  16.014  17.231   8.250
 5616POPC   C3B18189  15.926  17.211   7.950
 5616POPC   C4B18190  15.961  17.209   7.650
 5617POPC   NC318191  33.069  21.403   9.450
 5617POPC   PO418192  33.059  21.344   9.150
 5617POPC   GL118193  33.023  21.393   8.850
 5617POPC   GL218194  33.155  21.422   8.850
 5617POPC   C1A18195  33.024  21.365   8.550
 5617POPC   D2A18196  33.025  21.384   8.250
 5617POPC   C3A18197  32.977  21.360   7.950
 5617POPC   C4A18198  33.050  21.379   7.650
 5617POPC   C1B18199  33.277  21.428   8.550
 5617POPC   C2B18200  33.248  21.405   8.250
 5617POPC   C3B18201  33.229  21.434   7.950
 5617POPC   C4B18202  33.304  21.426   7.650
 5618POPC   NC318203  15.927  35.321   9.450
 5618POPC   PO418204  15.925  35.385   9.150
 5618POPC   GL118205  15.940  35.343   8.850
 5618POPC   GL218206  15.867  35.337   8.850
 5618POPC   C1A18207  15.966  35.367   8.550
 5618POPC   D2A18208  15.941  35.391   8.250
 5618POPC   C3A18209  15.930  35.311   7.950
 5618POPC   C4A18210  15.947  35.342   7.650
 5618POPC   C1B18211  15.755  35.272   8.550
 5618POPC   C2B18212  15.700  35.330   8.250
 5618POPC   C3B18213  15.742  35.269   7.950
 5618POPC   C4B18214  15.665  35.252   7.650
 5619POPC   NC318215   8.215   7.469   9.450
 5619POPC   PO418216   8.152   7.444   9.150
 5619POPC   GL118217   8.192   7.416   8.850
 5619POPC   GL218218   8.235   7.524   8.850
 5619POPC   C1A18219   8.160   7.418   8.550
 5619POPC   D2A18220   8.211   7.394   8.250
 5619POPC   C3A18221   8.175   7.392   7.950
 5619POPC   C4A18222   8.184   7.437   7.650
 5619POPC   C1B18223   8.233   7.621   8.550
 5619POPC   C2B18224   8.218   7.690   8.250
 5619POPC   C3B18225   8.249   7.633   7.950
 5619POPC   C4B18226   8.224   7.626   7.650
 5620POPC   NC318227  29.161  29.911   9.450
 5620POPC   PO418228  29.167  29.970   9.150
 5620POPC   GL118229  29.123  29.948   8.850
 5620POPC   GL218230  29.303  29.919   8.850
 5620POPC   C1A18231  29.143  29.958   8.550
 5620POPC   D2A18232  29.146  29.883   8.250
 5620POPC   C3A18233  29.146  29.946   7.950
 5620POPC   C4A18234  29.195  29.942   7.650
 5620POPC   C1B18235  29.380  29.863   8.550
 5620POPC   C2B18236  29.390  29.908   8.250
 5620POPC   C3B18237  29.397  29.882   7.950
 5620POPC   C4B18238  29.402  29.950   7.650
 5621POPC   NC318239  19.843  28.380   9.450
 5621POPC   PO418240  19.874  28.349   9.150
 5621POPC   GL118241  19.834  28.410   8.850
 5621POPC   GL218242  19.936  28.475   8.850
 5621POPC   C1A18243  19.866  28.417   8.550
 5621POPC   D2A18244  19.786  28.362   8.250
 5621POPC   C3A18245  19.875  28.331   7.950
 5621POPC   C4A18246  19.879  28.405   7.650
 5621POPC   C1B18247  20.098  28.463   8.550
 5621POPC   C2B18248  20.008  28.480   8.250
 5621POPC   C3B18249  20.003  28.453   7.950
 5621POPC   C4B18250  20.071  28.477   7.650
 5622POPC   NC318251  10.536   5.077   9.450
 5622POPC   PO418252  10.543   5.129   9.150
 5622POPC   GL118253  10.544   5.060   8.850
 5622POPC   GL218254  10.654   5.054   8.850
 5622POPC   C1A18255  10.485   5.078   8.550
 5622POPC   D2A18256  10.536   5.047   8.250
 5622POPC   C3A18257  10.559   5.096   7.950
 5622POPC   C4A18258  10.546   5.091   7.650
 5622POPC   C1B18259  10.797   5.041   8.550
 5622POPC   C2B18260  10.733   5.032   8.250
 5622POPC   C3B18261  10.745   5.079   7.950
 5622POPC   C4B18262  10.789   5.053   7.650
 5623POPC   NC318263  23.708   8.224   9.450
 5623POPC   PO418264  23.667   8.245   9.150
 5623POPC   GL118265  23.708   8.169   8.850
 5623POPC   GL218266  23.623   8.085   8.850
 5623POPC   C1A18267  23.667   8.157   8.550
 5623POPC   D2A18268  23.672   8.239   8.250
 5623POPC   C3A18269  23.758   8.178   7.950
 5623POPC   C4A18270  23.736   8.245   7.650
 5623POPC   C1B18271  23.522   8.053   8.550
 5623POPC   C2B18272  23.529   8.039   8.250
 5623POPC   C3B18273  23.488   8.071   7.950
 5623POPC   C4B18274  23.566   8.088   7.650
 5624POPC   NC318275  22.972  38.426   9.450
 5624POPC   PO418276  22.982  38.505   9.150
 5624POPC   GL118277  22.945  38.421   8.850
 5624POPC   GL218278  23.086  38.424   8.850
 5624POPC   C1A18279  22.906  38.491   8.550
 5624POPC   D2A18280  22.914  38.426   8.250
 5624POPC   C3A18281  22.931  38.452   7.950
 5624POPC   C4A18282  22.971  38.485   7.650
 5624POPC   C1B18283  23.198  38.418   8.550
 5624POPC   C2B18284  23.143  38.391   8.250
 5624POPC   C3B18285  23.170  38.368   7.950
 5624POPC   C4B18286  23.144  38.414   7.650
 5625POPC   NC318287  16.767  41.516   9.450
 5625POPC   PO418288  16.766  41.526   9.150
 5625POPC   GL118289  16.745  41.550   8.850
 5625POPC   GL218290  16.772  41.648   8.850
 5625POPC   C1A18291  16.692  41.515   8.550
 5625POPC   D2A18292  16.774  41.607   8.250
 5625POPC   C3A18293  16.720  41.516   7.950
 5625POPC   C4A18294  16.742  41.608   7.650
 5625POPC   C1B18295  16.720  41.765   8.550
 5625POPC   C2B18296  16.698  41.806   8.250
 5625POPC   C3B18297  16.695  41.799   7.950
 5625POPC   C4B18298  16.767  41.842   7.650
 5626POPC   NC318299  30.690  32.222   9.450
 5626POPC   PO418300  30.731  32.264   9.150
 5626POPC   GL118301  30.689  32.208   8.850
 5626POPC   GL218302  30.844  32.318   8.850
 5626POPC   C1A18303  30.652  32.282   8.550
 5626POPC   D2A18304  30.711  32.292   8.250
 5626POPC   C3A18305  30.732  32.281   7.950
 5626POPC   C4A18306  30.685  32.229   7.650
 5626POPC   C1B18307  30.948  32.342   8.550
 5626POPC   C2B18308  30.887  32.358   8.250
 5626POPC   C3B18309  30.882  32.424   7.950
 5626POPC   C4B18310  30.903  32.425   7.650
 5627POPC   NC318311  43.859  42.352   9.450
 5627POPC   PO418312  43.885  42.348   9.150
 5627POPC   GL118313  43.848  42.368   8.850
 5627POPC   GL218314  43.738  42.279   8.850
 5627POPC   C1A18315  43.855  42.288   8.550
 5627POPC   D2A18316  43.863  42.329   8.250
 5627POPC   C3A18317  43.890  42.361   7.950
 5627POPC   C4A18318  43.887  42.354   7.650
 5627POPC   C1B18319  43.679  42.263   8.550
 5627POPC   C2B18320  43.626  42.259   8.250
 5627POPC   C3B18321  43.653  42.289   7.950
 5627POPC   C4B18322  43.622  42.294   7.650
 5628POPC   NC318323  23.741  28.397   9.450
 5628POPC   PO418324  23.710  28.379   9.150
 5628POPC   GL118325  23.691  28.326   8.850
 5628POPC   GL218326  23.814  28.273   8.850
 5628POPC   C1A18327  23.747  28.406   8.550
 5628POPC   D2A18328  23.673  28.381   8.250
 5628POPC   C3A18329  23.692  28.354   7.950
 5628POPC   C4A18330  23.711  28.352   7.650
 5628POPC   C1B18331  23.840  28.177   8.550
 5628POPC   C2B18332  23.875  28.197   8.250
 5628POPC   C3B18333  23.886  28.129   7.950
 5628POPC   C4B18334  23.835  28.184   7.650
 5629POPC   NC318335   9.703  40.763   9.450
 5629POPC   PO418336   9.798  40.749   9.150
 5629POPC   GL118337   9.786  40.788   8.850
 5629POPC   GL218338   9.840  40.831   8.850
 5629POPC   C1A18339   9.757  40.803   8.550
 5629POPC   D2A18340   9.728  40.741   8.250
 5629POPC   C3A18341   9.786  40.817   7.950
 5629POPC   C4A18342   9.711  40.736   7.650
 5629POPC   C1B18343   9.923  40.920   8.550
 5629POPC   C2B18344   9.955  40.953   8.250
 5629POPC   C3B18345   9.998  40.938   7.950
 5629POPC   C4B18346  10.001  40.889   7.650
 5630POPC   NC318347  12.831  21.412   9.450
 5630POPC   PO418348  12.859  21.385   9.150
 5630POPC   GL118349  12.804  21.352   8.850
 5630POPC   GL218350  12.742  21.518   8.850
 5630POPC   C1A18351  12.863  21.431   8.550
 5630POPC   D2A18352  12.891  21.431   8.250
 5630POPC   C3A18353  12.888  21.345   7.950
 5630POPC   C4A18354  12.826  21.356   7.650
 5630POPC   C1B18355  12.726  21.519   8.550
 5630POPC   C2B18356  12.644  21.579   8.250
 5630POPC   C3B18357  12.645  21.563   7.950
 5630POPC   C4B18358  12.649  21.564   7.650
 5631POPC   NC318359  34.537   9.762   9.450
 5631POPC   PO418360  34.551   9.700   9.150
 5631POPC   GL118361  34.529   9.759   8.850
 5631POPC   GL218362  34.663   9.836   8.850
 5631POPC   C1A18363  34.613   9.779   8.550
 5631POPC   D2A18364  34.623   9.724   8.250
 5631POPC   C3A18365  34.624   9.730   7.950
 5631POPC   C4A18366  34.613   9.757   7.650
 5631POPC   C1B18367  34.753   9.964   8.550
 5631POPC   C2B18368  34.793   9.919   8.250
 5631POPC   C3B18369  34.719   9.960   7.950
 5631POPC   C4B18370  34.804   9.960   7.650
 5632POPC   NC318371  21.424  22.898   9.450
 5632POPC   PO418372  21.407  22.916   9.150
 5632POPC   GL118373  21.428  22.958   8.850
 5632POPC   GL218374  21.299  23.055   8.850
 5632POPC   C1A18375  21.373  22.928   8.550
 5632POPC   D2A18376  21.385  22.966   8.250
 5632POPC   C3A18377  21.364  22.956   7.950
 5632POPC   C4A18378  21.398  22.902   7.650
 5632POPC   C1B18379  21.135  23.117   8.550
 5632POPC   C2B18380  21.219  23.045   8.250
 5632POPC   C3B18381  21.130  23.039   7.950
 5632POPC   C4B18382  21.198  23.037   7.650
 5633POPC   NC318383  37.630  36.105   9.450
 5633POPC   PO418384  37.709  36.160   9.150
 5633POPC   GL118385  37.693  36.144   8.850
 5633POPC   GL218386  37.743  36.216   8.850
 5633POPC   C1A18387  37.686  36.170   8.550
 5633POPC   D2A18388  37.707  36.177   8.250
 5633POPC   C3A18389  37.633  36.157   7.950
 5633POPC   C4A18390  37.685  36.088   7.650
 5633POPC   C1B18391  37.907  36.296   8.550
 5633POPC   C2B18392  37.902  36.296   8.250
 5633POPC   C3B18393  37.919  36.219   7.950
 5633POPC   C4B18394  37.870  36.291   7.650
 5634POPC   NC318395  12.079  42.300   9.450
 5634POPC   PO418396  12.063  42.292   9.150
 5634POPC   GL118397  12.069  42.380   8.850
 5634POPC   GL218398  12.169  42.353   8.850
 5634POPC   C1A18399  12.090  42.383   8.550
 5634POPC   D2A18400  12.093  42.321   8.250
 5634POPC   C3A18401  12.027  42.304   7.950
 5634POPC   C4A18402  12.117  42.360   7.650
 5634POPC   C1B18403  12.289  42.437   8.550
 5634POPC   C2B18404  12.339  42.360   8.250
 5634POPC   C3B18405  12.282  42.408   7.950
 5634POPC   C4B18406  12.333  42.366   7.650
 5635POPC   NC318407  24.516  43.067   9.450
 5635POPC   PO418408  24.466  43.142   9.150
 5635POPC   GL118409  24.505  43.116   8.850
 5635POPC   GL218410  24.605  43.018   8.850
 5635POPC   C1A18411  24.482  43.128   8.550
 5635POPC   D2A18412  24.530  43.099   8.250
 5635POPC   C3A18413  24.459  43.067   7.950
 5635POPC   C4A18414  24.460  43.155   7.650
 5635POPC   C1B18415  24.688  43.033   8.550
 5635POPC   C2B18416  24.748  42.994   8.250
 5635POPC   C3B18417  24.715  43.014   7.950
 5635POPC   C4B18418  24.754  43.064   7.650
 5636POPC   NC318419   7.372  18.266   9.450
 5636POPC   PO418420   7.469  18.306   9.150
 5636POPC   GL118421   7.420  18.318   8.850
 5636POPC   GL218422   7.417  18.396   8.850
 5636POPC   C1A18423   7.450  18.249   8.550
 5636POPC   D2A18424   7.443  18.286   8.250
 5636POPC   C3A18425   7.405  18.325   7.950
 5636POPC   C4A18426   7.459  18.257   7.650
 5636POPC   C1B18427   7.362  18.552   8.550
 5636POPC   C2B18428   7.398  18.486   8.250
 5636POPC   C3B18429   7.438  18.520   7.950
 5636POPC   C4B18430   7.353  18.522   7.650
 5637POPC   NC318431  22.950   4.321   9.450
 5637POPC   PO418432  22.899   4.290   9.150
 5637POPC   GL118433  22.948   4.361   8.850
 5637POPC   GL218434  22.900   4.226   8.850
 5637POPC   C1A18435  22.891   4.279   8.550
 5637POPC   D2A18436  22.982   4.357   8.250
 5637POPC   C3A18437  22.975   4.314   7.950
 5637POPC   C4A18438  22.977   4.282   7.650
 5637POPC   C1B18439  22.905   4.083   8.550
 5637POPC   C2B18440  22.837   4.106   8.250
 5637POPC   C3B18441  22.894   4.034   7.950
 5637POPC   C4B18442  22.839   4.028   7.650
 5638POPC   NC318443  37.662  11.293   9.450
 5638POPC   PO418444  37.655  11.341   9.150
 5638POPC   GL118445  37.648  11.275   8.850
 5638POPC   GL218446  37.605  11.352   8.850
 5638POPC   C1A18447  37.719  11.252   8.550
 5638POPC   D2A18448  37.658  11.255   8.250
 5638POPC   C3A18449  37.694  11.273   7.950
 5638POPC   C4A18450  37.715  11.323   7.650
 5638POPC   C1B18451  37.428  11.452   8.550
 5638POPC   C2B18452  37.460  11.461   8.250
 5638POPC   C3B18453  37.439  11.395   7.950
 5638POPC   C4B18454  37.459  11.463   7.650
 5639POPC   NC318455  19.038  23.759   9.450
 5639POPC   PO418456  19.031  23.727   9.150
 5639POPC   GL118457  19.100  23.758   8.850
 5639POPC   GL218458  19.076  23.808   8.850
 5639POPC   C1A18459  19.010  23.763   8.550
 5639POPC   D2A18460  19.076  23.707   8.250
 5639POPC   C3A18461  19.054  23.670   7.950
 5639POPC   C4A18462  19.040  23.727   7.650
 5639POPC   C1B18463  19.089  23.943   8.550
 5639POPC   C2B18464  19.066  23.986   8.250
 5639POPC   C3B18465  19.115  23.973   7.950
 5639POPC   C4B18466  19.108  23.928   7.650
 5640POPC   NC318467   9.753  42.319   9.450
 5640POPC   PO418468   9.767  42.304   9.150
 5640POPC   GL118469   9.736  42.314   8.850
 5640POPC   GL218470   9.624  42.396   8.850
 5640POPC   C1A18471   9.741  42.291   8.550
 5640POPC   D2A18472   9.778  42.360   8.250
 5640POPC   C3A18473   9.736  42.338   7.950
 5640POPC   C4A18474   9.718  42.348   7.650
 5640POPC   C1B18475   9.625  42.565   8.550
 5640POPC   C2B18476   9.577  42.542   8.250
 5640POPC   C3B18477   9.581  42.577   7.950
 5640POPC   C4B18478   9.602  42.525   7.650
 5641POPC   NC318479   4.354  20.613   9.450
 5641POPC   PO418480   4.366  20.648   9.150
 5641POPC   GL118481   4.301  20.565   8.850
 5641POPC   GL218482   4.277  20.750   8.850
 5641POPC   C1A18483   4.282  20.642   8.550
 5641POPC   D2A18484   4.347  20.571   8.250
 5641POPC   C3A18485   4.312  20.637   7.950
 5641POPC   C4A18486   4.332  20.568   7.650
 5641POPC   C1B18487   4.246  20.836   8.550
 5641POPC   C2B18488   4.274  20.900   8.250
 5641POPC   C3B18489   4.246  20.852   7.950
 5641POPC   C4B18490   4.274  20.832   7.650
 5642POPC   NC318491  24.514  13.654   9.450
 5642POPC   PO418492  24.441  13.634   9.150
 5642POPC   GL118493  24.459  13.625   8.850
 5642POPC   GL218494  24.600  13.626   8.850
 5642POPC   C1A18495  24.505  13.597   8.550
 5642POPC   D2A18496  24.478  13.656   8.250
 5642POPC   C3A18497  24.531  13.610   7.950
 5642POPC   C4A18498  24.517  13.616   7.650
 5642POPC   C1B18499  24.754  13.672   8.550
 5642POPC   C2B18500  24.754  13.716   8.250
 5642POPC   C3B18501  24.707  13.763   7.950
 5642POPC   C4B18502  24.704  13.684   7.650
 5643POPC   NC318503  29.885  12.068   9.450
 5643POPC   PO418504  29.958  12.070   9.150
 5643POPC   GL118505  29.900  12.075   8.850
 5643POPC   GL218506  29.983  12.162   8.850
 5643POPC   C1A18507  29.881  12.065   8.550
 5643POPC   D2A18508  29.931  12.063   8.250
 5643POPC   C3A18509  29.906  12.094   7.950
 5643POPC   C4A18510  29.896  12.104   7.650
 5643POPC   C1B18511  30.088  12.202   8.550
 5643POPC   C2B18512  30.106  12.281   8.250
 5643POPC   C3B18513  30.157  12.236   7.950
 5643POPC   C4B18514  30.159  12.197   7.650
 5644POPC   NC318515   0.438  13.603   9.450
 5644POPC   PO418516   0.426  13.586   9.150
 5644POPC   GL118517   0.470  13.608   8.850
 5644POPC   GL218518   0.498  13.771   8.850
 5644POPC   C1A18519   0.477  13.638   8.550
 5644POPC   D2A18520   0.461  13.583   8.250
 5644POPC   C3A18521   0.454  13.639   7.950
 5644POPC   C4A18522   0.392  13.579   7.650
 5644POPC   C1B18523   0.494  13.829   8.550
 5644POPC   C2B18524   0.469  13.873   8.250
 5644POPC   C3B18525   0.467  13.838   7.950
 5644POPC   C4B18526   0.472  13.855   7.650
 5645POPC   NC318527   7.377  36.915   9.450
 5645POPC   PO418528   7.464  36.909   9.150
 5645POPC   GL118529   7.468  36.892   8.850
 5645POPC   GL218530   7.449  36.993   8.850
 5645POPC   C1A18531   7.399  36.899   8.550
 5645POPC   D2A18532   7.416  36.898   8.250
 5645POPC   C3A18533   7.379  36.886   7.950
 5645POPC   C4A18534   7.384  36.952   7.650
 5645POPC   C1B18535   7.394  37.164   8.550
 5645POPC   C2B18536   7.355  37.120   8.250
 5645POPC   C3B18537   7.383  37.189   7.950
 5645POPC   C4B18538   7.416  37.185   7.650
 5646POPC   NC318539  29.950  26.048   9.450
 5646POPC   PO418540  29.872  26.015   9.150
 5646POPC   GL118541  29.970  26.040   8.850
 5646POPC   GL218542  29.815  26.119   8.850
 5646POPC   C1A18543  29.932  26.017   8.550
 5646POPC   D2A18544  29.946  26.008   8.250
 5646POPC   C3A18545  29.942  26.046   7.950
 5646POPC   C4A18546  29.907  26.090   7.650
 5646POPC   C1B18547  29.751  26.273   8.550
 5646POPC   C2B18548  29.828  26.283   8.250
 5646POPC   C3B18549  29.809  26.241   7.950
 5646POPC   C4B18550  29.813  26.248   7.650
 5647POPC   NC318551  40.007   8.997   9.450
 5647POPC   PO418552  39.980   8.952   9.150
 5647POPC   GL118553  40.056   9.013   8.850
 5647POPC   GL218554  40.079   9.068   8.850
 5647POPC   C1A18555  40.026   9.021   8.550
 5647POPC   D2A18556  39.961   9.005   8.250
 5647POPC   C3A18557  40.045   8.933   7.950
 5647POPC   C4A18558  40.040   8.987   7.650
 5647POPC   C1B18559  40.145   9.197   8.550
 5647POPC   C2B18560  40.177   9.169   8.250
 5647POPC   C3B18561  40.112   9.142   7.950
 5647POPC   C4B18562  40.134   9.221   7.650
 5648POPC   NC318563  32.288  11.296   9.450
 5648POPC   PO418564  32.277  11.347   9.150
 5648POPC   GL118565  32.207  11.312   8.850
 5648POPC   GL218566  32.329  11.376   8.850
 5648POPC   C1A18567  32.231  11.323   8.550
 5648POPC   D2A18568  32.272  11.284   8.250
 5648POPC   C3A18569  32.204  11.295   7.950
 5648POPC   C4A18570  32.262  11.328   7.650
 5648POPC   C1B18571  32.483  11.388   8.550
 5648POPC   C2B18572  32.520  11.337   8.250
 5648POPC   C3B18573  32.469  11.393   7.950
 5648POPC   C4B18574  32.482  11.377   7.650
 5649POPC   NC318575  28.334  36.135   9.450
 5649POPC   PO418576  28.331  36.097   9.150
 5649POPC   GL118577  28.363  36.137   8.850
 5649POPC   GL218578  28.483  36.172   8.850
 5649POPC   C1A18579  28.330  36.079   8.550
 5649POPC   D2A18580  28.416  36.085   8.250
 5649POPC   C3A18581  28.397  36.086   7.950
 5649POPC   C4A18582  28.356  36.156   7.650
 5649POPC   C1B18583  28.502  36.347   8.550
 5649POPC   C2B18584  28.527  36.351   8.250
 5649POPC   C3B18585  28.593  36.315   7.950
 5649POPC   C4B18586  28.558  36.320   7.650
 5650POPC   NC318587   3.538  28.406   9.450
 5650POPC   PO418588   3.530  28.381   9.150
 5650POPC   GL118589   3.568  28.406   8.850
 5650POPC   GL218590   3.491  28.475   8.850
 5650POPC   C1A18591   3.517  28.324   8.550
 5650POPC   D2A18592   3.507  28.358   8.250
 5650POPC   C3A18593   3.537  28.405   7.950
 5650POPC   C4A18594   3.523  28.411   7.650
 5650POPC   C1B18595   3.471  28.627   8.550
 5650POPC   C2B18596   3.477  28.609   8.250
 5650POPC   C3B18597   3.459  28.632   7.950
 5650POPC   C4B18598   3.498  28.625   7.650
 5651POPC   NC318599   4.299  26.083   9.450
 5651POPC   PO418600   4.267  26.051   9.150
 5651POPC   GL118601   4.357  26.006   8.850
 5651POPC   GL218602   4.264  26.200   8.850
 5651POPC   C1A18603   4.294  26.071   8.550
 5651POPC   D2A18604   4.357  26.072   8.250
 5651POPC   C3A18605   4.331  26.066   7.950
 5651POPC   C4A18606   4.300  26.029   7.650
 5651POPC   C1B18607   4.327  26.305   8.550
 5651POPC   C2B18608   4.244  26.335   8.250
 5651POPC   C3B18609   4.311  26.276   7.950
 5651POPC   C4B18610   4.274  26.329   7.650
 5652POPC   NC318611  23.730  39.186   9.450
 5652POPC   PO418612  23.730  39.186   9.150
 5652POPC   GL118613  23.677  39.201   8.850
 5652POPC   GL218614  23.714  39.310   8.850
 5652POPC   C1A18615  23.691  39.234   8.550
 5652POPC   D2A18616  23.733  39.181   8.250
 5652POPC   C3A18617  23.704  39.227   7.950
 5652POPC   C4A18618  23.704  39.201   7.650
 5652POPC   C1B18619  23.710  39.462   8.550
 5652POPC   C2B18620  23.676  39.512   8.250
 5652POPC   C3B18621  23.676  39.515   7.950
 5652POPC   C4B18622  23.707  39.462   7.650
 5653POPC   NC318623  33.842  40.831   9.450
 5653POPC   PO418624  33.811  40.743   9.150
 5653POPC   GL118625  33.807  40.761   8.850
 5653POPC   GL218626  33.648  40.711   8.850
 5653POPC   C1A18627  33.770  40.761   8.550
 5653POPC   D2A18628  33.787  40.791   8.250
 5653POPC   C3A18629  33.752  40.798   7.950
 5653POPC   C4A18630  33.763  40.753   7.650
 5653POPC   C1B18631  33.527  40.711   8.550
 5653POPC   C2B18632  33.613  40.654   8.250
 5653POPC   C3B18633  33.522  40.657   7.950
 5653POPC   C4B18634  33.583  40.645   7.650
 5654POPC   NC318635  34.593  36.124   9.450
 5654POPC   PO418636  34.554  36.103   9.150
 5654POPC   GL118637  34.581  36.094   8.850
 5654POPC   GL218638  34.507  36.227   8.850
 5654POPC   C1A18639  34.545  36.147   8.550
 5654POPC   D2A18640  34.566  36.098   8.250
 5654POPC   C3A18641  34.554  36.167   7.950
 5654POPC   C4A18642  34.567  36.078   7.650
 5654POPC   C1B18643  34.397  36.260   8.550
 5654POPC   C2B18644  34.351  36.249   8.250
 5654POPC   C3B18645  34.327  36.202   7.950
 5654POPC   C4B18646  34.393  36.240   7.650
 5655POPC   NC318647  10.530   6.627   9.450
 5655POPC   PO418648  10.533   6.665   9.150
 5655POPC   GL118649  10.560   6.613   8.850
 5655POPC   GL218650  10.555   6.549   8.850
 5655POPC   C1A18651  10.535   6.610   8.550
 5655POPC   D2A18652  10.513   6.599   8.250
 5655POPC   C3A18653  10.500   6.679   7.950
 5655POPC   C4A18654  10.499   6.654   7.650
 5655POPC   C1B18655  10.517   6.371   8.550
 5655POPC   C2B18656  10.538   6.439   8.250
 5655POPC   C3B18657  10.467   6.420   7.950
 5655POPC   C4B18658  10.451   6.443   7.650
 5656POPC   NC318659  23.709  24.535   9.450
 5656POPC   PO418660  23.699  24.528   9.150
 5656POPC   GL118661  23.759  24.539   8.850
 5656POPC   GL218662  23.843  24.412   8.850
 5656POPC   C1A18663  23.746  24.452   8.550
 5656POPC   D2A18664  23.700  24.492   8.250
 5656POPC   C3A18665  23.703  24.484   7.950
 5656POPC   C4A18666  23.666  24.494   7.650
 5656POPC   C1B18667  23.983  24.380   8.550
 5656POPC   C2B18668  24.001  24.399   8.250
 5656POPC   C3B18669  23.955  24.410   7.950
 5656POPC   C4B18670  23.953  24.426   7.650
 5657POPC   NC318671   0.407  44.712   9.450
 5657POPC   PO418672   0.459  44.661   9.150
 5657POPC   GL118673   0.418  44.683   8.850
 5657POPC   GL218674   0.522  44.641   8.850
 5657POPC   C1A18675   0.431  44.649   8.550
 5657POPC   D2A18676   0.421  44.618   8.250
 5657POPC   C3A18677   0.418  44.646   7.950
 5657POPC   C4A18678   0.443  44.667   7.650
 5657POPC   C1B18679   0.669  44.597   8.550
 5657POPC   C2B18680   0.633  44.561   8.250
 5657POPC   C3B18681   0.674  44.616   7.950
 5657POPC   C4B18682   0.715  44.566   7.650
 5658POPC   NC318683  23.760  17.506   9.450
 5658POPC   PO418684  23.737  17.544   9.150
 5658POPC   GL118685  23.703  17.473   8.850
 5658POPC   GL218686  23.829  17.504   8.850
 5658POPC   C1A18687  23.683  17.528   8.550
 5658POPC   D2A18688  23.681  17.481   8.250
 5658POPC   C3A18689  23.757  17.490   7.950
 5658POPC   C4A18690  23.741  17.549   7.650
 5658POPC   C1B18691  23.939  17.483   8.550
 5658POPC   C2B18692  23.919  17.471   8.250
 5658POPC   C3B18693  23.948  17.406   7.950
 5658POPC   C4B18694  23.911  17.471   7.650
 5659POPC   NC318695   5.058   1.228   9.450
 5659POPC   PO418696   5.068   1.218   9.150
 5659POPC   GL118697   5.060   1.260   8.850
 5659POPC   GL218698   5.205   1.249   8.850
 5659POPC   C1A18699   5.115   1.185   8.550
 5659POPC   D2A18700   5.100   1.239   8.250
 5659POPC   C3A18701   5.132   1.246   7.950
 5659POPC   C4A18702   5.059   1.188   7.650
 5659POPC   C1B18703   5.288   1.357   8.550
 5659POPC   C2B18704   5.258   1.342   8.250
 5659POPC   C3B18705   5.254   1.405   7.950
 5659POPC   C4B18706   5.248   1.366   7.650
 5660POPC   NC318707  12.103  26.016   9.450
 5660POPC   PO418708  12.106  26.065   9.150
 5660POPC   GL118709  12.075  25.997   8.850
 5660POPC   GL218710  12.153  25.932   8.850
 5660POPC   C1A18711  12.091  26.048   8.550
 5660POPC   D2A18712  12.056  25.995   8.250
 5660POPC   C3A18713  12.104  26.054   7.950
 5660POPC   C4A18714  12.040  26.003   7.650
 5660POPC   C1B18715  12.288  25.847   8.550
 5660POPC   C2B18716  12.236  25.863   8.250
 5660POPC   C3B18717  12.288  25.909   7.950
 5660POPC   C4B18718  12.311  25.939   7.650
 5661POPC   NC318719  42.328  12.098   9.450
 5661POPC   PO418720  42.347  12.084   9.150
 5661POPC   GL118721  42.353  12.122   8.850
 5661POPC   GL218722  42.202  12.042   8.850
 5661POPC   C1A18723  42.377  12.043   8.550
 5661POPC   D2A18724  42.322  12.089   8.250
 5661POPC   C3A18725  42.296  12.088   7.950
 5661POPC   C4A18726  42.384  12.075   7.650
 5661POPC   C1B18727  42.071  12.012   8.550
 5661POPC   C2B18728  42.119  11.995   8.250
 5661POPC   C3B18729  42.116  11.970   7.950
 5661POPC   C4B18730  42.102  11.920   7.650
 5662POPC   NC318731  33.060   7.462   9.450
 5662POPC   PO418732  33.011   7.435   9.150
 5662POPC   GL118733  33.066   7.451   8.850
 5662POPC   GL218734  32.985   7.339   8.850
 5662POPC   C1A18735  32.980   7.443   8.550
 5662POPC   D2A18736  33.018   7.430   8.250
 5662POPC   C3A18737  33.025   7.387   7.950
 5662POPC   C4A18738  33.000   7.374   7.650
 5662POPC   C1B18739  32.852   7.203   8.550
 5662POPC   C2B18740  32.840   7.252   8.250
 5662POPC   C3B18741  32.883   7.196   7.950
 5662POPC   C4B18742  32.823   7.220   7.650
 5663POPC   NC318743   5.049  31.510   9.450
 5663POPC   PO418744   5.102  31.441   9.150
 5663POPC   GL118745   5.115  31.521   8.850
 5663POPC   GL218746   5.190  31.503   8.850
 5663POPC   C1A18747   5.066  31.498   8.550
 5663POPC   D2A18748   5.096  31.499   8.250
 5663POPC   C3A18749   5.143  31.448   7.950
 5663POPC   C4A18750   5.072  31.440   7.650
 5663POPC   C1B18751   5.378  31.548   8.550
 5663POPC   C2B18752   5.289  31.571   8.250
 5663POPC   C3B18753   5.367  31.509   7.950
 5663POPC   C4B18754   5.303  31.533   7.650
 5664POPC   NC318755  27.585  28.393   9.450
 5664POPC   PO418756  27.612  28.417   9.150
 5664POPC   GL118757  27.637  28.389   8.850
 5664POPC   GL218758  27.662  28.475   8.850
 5664POPC   C1A18759  27.638  28.416   8.550
 5664POPC   D2A18760  27.628  28.408   8.250
 5664POPC   C3A18761  27.596  28.350   7.950
 5664POPC   C4A18762  27.610  28.325   7.650
 5664POPC   C1B18763  27.658  28.639   8.550
 5664POPC   C2B18764  27.654  28.633   8.250
 5664POPC   C3B18765  27.600  28.645   7.950
 5664POPC   C4B18766  27.633  28.664   7.650
 5665POPC   NC318767  28.352  29.153   9.450
 5665POPC   PO418768  28.390  29.133   9.150
 5665POPC   GL118769  28.335  29.191   8.850
 5665POPC   GL218770  28.456  29.235   8.850
 5665POPC   C1A18771  28.412  29.162   8.550
 5665POPC   D2A18772  28.330  29.169   8.250
 5665POPC   C3A18773  28.415  29.171   7.950
 5665POPC   C4A18774  28.411  29.154   7.650
 5665POPC   C1B18775  28.535  29.292   8.550
 5665POPC   C2B18776  28.580  29.299   8.250
 5665POPC   C3B18777  28.591  29.284   7.950
 5665POPC   C4B18778  28.556  29.286   7.650
 5666POPC   NC318779  26.031  43.120   9.450
 5666POPC   PO418780  26.057  43.116   9.150
 5666POPC   GL118781  26.032  43.144   8.850
 5666POPC   GL218782  26.036  43.249   8.850
 5666POPC   C1A18783  26.013  43.132   8.550
 5666POPC   D2A18784  26.024  43.122   8.250
 5666POPC   C3A18785  26.022  43.135   7.950
 5666POPC   C4A18786  26.021  43.150   7.650
 5666POPC   C1B18787  25.906  43.312   8.550
 5666POPC   C2B18788  25.930  43.300   8.250
 5666POPC   C3B18789  25.930  43.324   7.950
 5666POPC   C4B18790  25.901  43.325   7.650
 5667POPC   NC318791  43.926  28.375   9.450
 5667POPC   PO418792  43.932  28.409   9.150
 5667POPC   GL118793  43.915  28.398   8.850
 5667POPC   GL218794  43.845  28.267   8.850
 5667POPC   C1A18795  43.842  28.334   8.550
 5667POPC   D2A18796  43.871  28.370   8.250
 5667POPC   C3A18797  43.904  28.339   7.950
 5667POPC   C4A18798  43.916  28.367   7.650
 5667POPC   C1B18799  43.770  28.087   8.550
 5667POPC   C2B18800  43.816  28.101   8.250
 5667POPC   C3B18801  43.770  28.155   7.950
 5667POPC   C4B18802  43.837  28.159   7.650
 5668POPC   NC318803  29.172  38.417   9.450
 5668POPC   PO418804  29.175  38.456   9.150
 5668POPC   GL118805  29.144  38.495   8.850
 5668POPC   GL218806  29.246  38.435   8.850
 5668POPC   C1A18807  29.172  38.424   8.550
 5668POPC   D2A18808  29.179  38.452   8.250
 5668POPC   C3A18809  29.170  38.450   7.950
 5668POPC   C4A18810  29.154  38.436   7.650
 5668POPC   C1B18811  29.387  38.441   8.550
 5668POPC   C2B18812  29.418  38.422   8.250
 5668POPC   C3B18813  29.356  38.376   7.950
 5668POPC   C4B18814  29.380  38.417   7.650
 5669POPC   NC318815  20.595   2.772   9.450
 5669POPC   PO418816  20.596   2.758   9.150
 5669POPC   GL118817  20.595   2.786   8.850
 5669POPC   GL218818  20.537   2.925   8.850
 5669POPC   C1A18819  20.610   2.793   8.550
 5669POPC   D2A18820  20.648   2.743   8.250
 5669POPC   C3A18821  20.615   2.744   7.950
 5669POPC   C4A18822  20.561   2.720   7.650
 5669POPC   C1B18823  20.506   2.974   8.550
 5669POPC   C2B18824  20.492   2.955   8.250
 5669POPC   C3B18825  20.540   3.050   7.950
 5669POPC   C4B18826  20.537   2.977   7.650
 5670POPC   NC318827  12.038  36.119   9.450
 5670POPC   PO418828  12.081  36.138   9.150
 5670POPC   GL118829  12.105  36.141   8.850
 5670POPC   GL218830  12.203  36.180   8.850
 5670POPC   C1A18831  12.095  36.115   8.550
 5670POPC   D2A18832  12.086  36.161   8.250
 5670POPC   C3A18833  12.090  36.149   7.950
 5670POPC   C4A18834  12.031  36.131   7.650
 5670POPC   C1B18835  12.293  36.335   8.550
 5670POPC   C2B18836  12.302  36.269   8.250
 5670POPC   C3B18837  12.250  36.270   7.950
 5670POPC   C4B18838  12.256  36.314   7.650
 5671POPC   NC318839   5.831  10.531   9.450
 5671POPC   PO418840   5.828  10.571   9.150
 5671POPC   GL118841   5.831  10.528   8.850
 5671POPC   GL218842   5.722  10.612   8.850
 5671POPC   C1A18843   5.834  10.484   8.550
 5671POPC   D2A18844   5.824  10.521   8.250
 5671POPC   C3A18845   5.836  10.476   7.950
 5671POPC   C4A18846   5.821  10.551   7.650
 5671POPC   C1B18847   5.662  10.662   8.550
 5671POPC   C2B18848   5.615  10.632   8.250
 5671POPC   C3B18849   5.617  10.686   7.950
 5671POPC   C4B18850   5.605  10.696   7.650
 5672POPC   NC318851  23.760   2.035   9.450
 5672POPC   PO418852  23.673   1.983   9.150
 5672POPC   GL118853  23.715   2.019   8.850
 5672POPC   GL218854  23.831   1.951   8.850
 5672POPC   C1A18855  23.748   1.971   8.550
 5672POPC   D2A18856  23.743   1.976   8.250
 5672POPC   C3A18857  23.708   1.990   7.950
 5672POPC   C4A18858  23.723   2.016   7.650
 5672POPC   C1B18859  23.881   1.836   8.550
 5672POPC   C2B18860  23.890   1.891   8.250
 5672POPC   C3B18861  23.914   1.876   7.950
 5672POPC   C4B18862  23.897   1.871   7.650
 5673POPC   NC318863   7.385  19.060   9.450
 5673POPC   PO418864   7.405  19.019   9.150
 5673POPC   GL118865   7.453  19.013   8.850
 5673POPC   GL218866   7.535  19.193   8.850
 5673POPC   C1A18867   7.454  19.040   8.550
 5673POPC   D2A18868   7.421  19.030   8.250
 5673POPC   C3A18869   7.438  19.025   7.950
 5673POPC   C4A18870   7.444  19.068   7.650
 5673POPC   C1B18871   7.573  19.303   8.550
 5673POPC   C2B18872   7.551  19.277   8.250
 5673POPC   C3B18873   7.565  19.292   7.950
 5673POPC   C4B18874   7.509  19.253   7.650
 5674POPC   NC318875   7.438   8.244   9.450
 5674POPC   PO418876   7.444   8.157   9.150
 5674POPC   GL118877   7.434   8.152   8.850
 5674POPC   GL218878   7.488   8.099   8.850
 5674POPC   C1A18879   7.424   8.203   8.550
 5674POPC   D2A18880   7.446   8.192   8.250
 5674POPC   C3A18881   7.437   8.210   7.950
 5674POPC   C4A18882   7.423   8.218   7.650
 5674POPC   C1B18883   7.640   8.039   8.550
 5674POPC   C2B18884   7.603   8.022   8.250
 5674POPC   C3B18885   7.579   8.050   7.950
 5674POPC   C4B18886   7.645   8.025   7.650
 5675POPC   NC318887  28.357   0.464   9.450
 5675POPC   PO418888  28.336   0.407   9.150
 5675POPC   GL118889  28.378   0.467   8.850
 5675POPC   GL218890  28.407   0.595   8.850
 5675POPC   C1A18891  28.409   0.403   8.550
 5675POPC   D2A18892  28.373   0.484   8.250
 5675POPC   C3A18893  28.335   0.416   7.950
 5675POPC   C4A18894  28.366   0.483   7.650
 5675POPC   C1B18895  28.380   0.704   8.550
 5675POPC   C2B18896  28.408   0.727   8.250
 5675POPC   C3B18897  28.449   0.692   7.950
 5675POPC   C4B18898  28.398   0.684   7.650
 5676POPC   NC318899  43.851  20.640   9.450
 5676POPC   PO418900  43.883  20.632   9.150
 5676POPC   GL118901  43.890  20.660   8.850
 5676POPC   GL218902  44.000  20.571   8.850
 5676POPC   C1A18903  43.861  20.578   8.550
 5676POPC   D2A18904  43.933  20.603   8.250
 5676POPC   C3A18905  43.925  20.640   7.950
 5676POPC   C4A18906  43.912  20.650   7.650
 5676POPC   C1B18907  44.129  20.593   8.550
 5676POPC   C2B18908  44.139  20.605   8.250
 5676POPC   C3B18909  44.146  20.551   7.950
 5676POPC   C4B18910  44.123  20.561   7.650
 5677POPC   NC318911  29.132  43.886   9.450
 5677POPC   PO418912  29.098  43.896   9.150
 5677POPC   GL118913  29.121  43.849   8.850
 5677POPC   GL218914  29.155  43.745   8.850
 5677POPC   C1A18915  29.170  43.852   8.550
 5677POPC   D2A18916  29.138  43.921   8.250
 5677POPC   C3A18917  29.192  43.933   7.950
 5677POPC   C4A18918  29.162  43.847   7.650
 5677POPC   C1B18919  29.271  43.652   8.550
 5677POPC   C2B18920  29.252  43.667   8.250
 5677POPC   C3B18921  29.248  43.705   7.950
 5677POPC   C4B18922  29.218  43.672   7.650
 5678POPC   NC318923  42.335  24.495   9.450
 5678POPC   PO418924  42.359  24.441   9.150
 5678POPC   GL118925  42.358  24.518   8.850
 5678POPC   GL218926  42.351  24.407   8.850
 5678POPC   C1A18927  42.326  24.499   8.550
 5678POPC   D2A18928  42.323  24.464   8.250
 5678POPC   C3A18929  42.381  24.492   7.950
 5678POPC   C4A18930  42.345  24.462   7.650
 5678POPC   C1B18931  42.437  24.299   8.550
 5678POPC   C2B18932  42.443  24.238   8.250
 5678POPC   C3B18933  42.421  24.288   7.950
 5678POPC   C4B18934  42.432  24.264   7.650
 5679POPC   NC318935  34.594  19.104   9.450
 5679POPC   PO418936  34.622  19.023   9.150
 5679POPC   GL118937  34.529  19.089   8.850
 5679POPC   GL218938  34.631  19.127   8.850
 5679POPC   C1A18939  34.543  19.047   8.550
 5679POPC   D2A18940  34.549  19.055   8.250
 5679POPC   C3A18941  34.581  19.050   7.950
 5679POPC   C4A18942  34.591  19.020   7.650
 5679POPC   C1B18943  34.783  19.277   8.550
 5679POPC   C2B18944  34.763  19.281   8.250
 5679POPC   C3B18945  34.772  19.207   7.950
 5679POPC   C4B18946  34.731  19.221   7.650
 5680POPC   NC318947  22.200  12.810   9.450
 5680POPC   PO418948  22.146  12.849   9.150
 5680POPC   GL118949  22.137  12.858   8.850
 5680POPC   GL218950  22.108  12.806   8.850
 5680POPC   C1A18951  22.130  12.881   8.550
 5680POPC   D2A18952  22.203  12.812   8.250
 5680POPC   C3A18953  22.190  12.846   7.950
 5680POPC   C4A18954  22.168  12.846   7.650
 5680POPC   C1B18955  22.011  12.728   8.550
 5680POPC   C2B18956  21.950  12.733   8.250
 5680POPC   C3B18957  22.001  12.707   7.950
 5680POPC   C4B18958  21.945  12.687   7.650
 5681POPC   NC318959  21.382   2.021   9.450
 5681POPC   PO418960  21.351   1.979   9.150
 5681POPC   GL118961  21.384   2.031   8.850
 5681POPC   GL218962  21.281   2.063   8.850
 5681POPC   C1A18963  21.407   1.966   8.550
 5681POPC   D2A18964  21.338   1.940   8.250
 5681POPC   C3A18965  21.368   1.965   7.950
 5681POPC   C4A18966  21.364   1.944   7.650
 5681POPC   C1B18967  21.182   2.178   8.550
 5681POPC   C2B18968  21.142   2.167   8.250
 5681POPC   C3B18969  21.133   2.169   7.950
 5681POPC   C4B18970  21.134   2.129   7.650
 5682POPC   NC318971  30.719  28.391   9.450
 5682POPC   PO418972  30.649  28.363   9.150
 5682POPC   GL118973  30.693  28.376   8.850
 5682POPC   GL218974  30.614  28.293   8.850
 5682POPC   C1A18975  30.710  28.405   8.550
 5682POPC   D2A18976  30.692  28.368   8.250
 5682POPC   C3A18977  30.745  28.413   7.950
 5682POPC   C4A18978  30.733  28.391   7.650
 5682POPC   C1B18979  30.565  28.168   8.550
 5682POPC   C2B18980  30.525  28.203   8.250
 5682POPC   C3B18981  30.611  28.185   7.950
 5682POPC   C4B18982  30.608  28.138   7.650
 5683POPC   NC318983   5.050  25.236   9.450
 5683POPC   PO418984   5.117  25.244   9.150
 5683POPC   GL118985   5.129  25.297   8.850
 5683POPC   GL218986   4.957  25.354   8.850
 5683POPC   C1A18987   5.054  25.312   8.550
 5683POPC   D2A18988   5.044  25.237   8.250
 5683POPC   C3A18989   5.089  25.256   7.950
 5683POPC   C4A18990   5.141  25.260   7.650
 5683POPC   C1B18991   4.868  25.423   8.550
 5683POPC   C2B18992   4.844  25.394   8.250
 5683POPC   C3B18993   4.877  25.377   7.950
 5683POPC   C4B18994   4.910  25.437   7.650
 5684POPC   NC318995  40.810  24.458   9.450
 5684POPC   PO418996  40.774  24.496   9.150
 5684POPC   GL118997  40.739  24.485   8.850
 5684POPC   GL218998  40.887  24.558   8.850
 5684POPC   C1A18999  40.804  24.481   8.550
 5684POPC   D2A19000  40.786  24.465   8.250
 5684POPC   C3A19001  40.776  24.538   7.950
 5684POPC   C4A19002  40.825  24.484   7.650
 5684POPC   C1B19003  40.948  24.737   8.550
 5684POPC   C2B19004  40.897  24.720   8.250
 5684POPC   C3B19005  40.886  24.706   7.950
 5684POPC   C4B19006  40.933  24.713   7.650
 5685POPC   NC319007  35.331   3.495   9.450
 5685POPC   PO419008  35.328   3.509   9.150
 5685POPC   GL119009  35.402   3.553   8.850
 5685POPC   GL219010  35.519   3.592   8.850
 5685POPC   C1A19011  35.361   3.559   8.550
 5685POPC   D2A19012  35.322   3.518   8.250
 5685POPC   C3A19013  35.365   3.507   7.950
 5685POPC   C4A19014  35.313   3.569   7.650
 5685POPC   C1B19015  35.558   3.597   8.550
 5685POPC   C2B19016  35.607   3.627   8.250
 5685POPC   C3B19017  35.620   3.554   7.950
 5685POPC   C4B19018  35.555   3.611   7.650
 5686POPC   NC319019  21.360  35.304   9.450
 5686POPC   PO419020  21.393  35.352   9.150
 5686POPC   GL119021  21.351  35.355   8.850
 5686POPC   GL219022  21.546  35.363   8.850
 5686POPC   C1A19023  21.346  35.347   8.550
 5686POPC   D2A19024  21.417  35.336   8.250
 5686POPC   C3A19025  21.425  35.396   7.950
 5686POPC   C4A19026  21.404  35.303   7.650
 5686POPC   C1B19027  21.591  35.332   8.550
 5686POPC   C2B19028  21.616  35.322   8.250
 5686POPC   C3B19029  21.633  35.273   7.950
 5686POPC   C4B19030  21.654  35.325   7.650
 5687POPC   NC319031   6.660  25.269   9.450
 5687POPC   PO419032   6.627  25.217   9.150
 5687POPC   GL119033   6.629  25.269   8.850
 5687POPC   GL219034   6.495  25.321   8.850
 5687POPC   C1A19035   6.603  25.299   8.550
 5687POPC   D2A19036   6.652  25.304   8.250
 5687POPC   C3A19037   6.692  25.225   7.950
 5687POPC   C4A19038   6.636  25.303   7.650
 5687POPC   C1B19039   6.390  25.332   8.550
 5687POPC   C2B19040   6.355  25.288   8.250
 5687POPC   C3B19041   6.438  25.344   7.950
 5687POPC   C4B19042   6.439  25.361   7.650
 5688POPC   NC319043   9.725  32.265   9.450
 5688POPC   PO419044   9.780  32.217   9.150
 5688POPC   GL119045   9.708  32.201   8.850
 5688POPC   GL219046   9.775  32.356   8.850
 5688POPC   C1A19047   9.776  32.224   8.550
 5688POPC   D2A19048   9.752  32.203   8.250
 5688POPC   C3A19049   9.790  32.239   7.950
 5688POPC   C4A19050   9.741  32.199   7.650
 5688POPC   C1B19051   9.854  32.436   8.550
 5688POPC   C2B19052   9.889  32.442   8.250
 5688POPC   C3B19053   9.863  32.454   7.950
 5688POPC   C4B19054   9.868  32.445   7.650
 5689POPC   NC319055  28.334  28.403   9.450
 5689POPC   PO419056  28.417  28.370   9.150
 5689POPC   GL119057  28.360  28.376   8.850
 5689POPC   GL219058  28.301  28.483   8.850
 5689POPC   C1A19059  28.337  28.330   8.550
 5689POPC   D2A19060  28.412  28.355   8.250
 5689POPC   C3A19061  28.359  28.393   7.950
 5689POPC   C4A19062  28.404  28.383   7.650
 5689POPC   C1B19063  28.195  28.517   8.550
 5689POPC   C2B19064  28.199  28.518   8.250
 5689POPC   C3B19065  28.228  28.602   7.950
 5689POPC   C4B19066  28.196  28.541   7.650
 5690POPC   NC319067  27.569   2.033   9.450
 5690POPC   PO419068  27.568   2.005   9.150
 5690POPC   GL119069  27.615   2.024   8.850
 5690POPC   GL219070  27.469   1.988   8.850
 5690POPC   C1A19071  27.547   2.005   8.550
 5690POPC   D2A19072  27.606   2.020   8.250
 5690POPC   C3A19073  27.596   2.025   7.950
 5690POPC   C4A19074  27.626   2.036   7.650
 5690POPC   C1B19075  27.385   2.034   8.550
 5690POPC   C2B19076  27.300   2.023   8.250
 5690POPC   C3B19077  27.312   1.962   7.950
 5690POPC   C4B19078  27.352   1.943   7.650
 5691POPC   NC319079   6.626  29.129   9.450
 5691POPC   PO419080   6.656  29.189   9.150
 5691POPC   GL119081   6.670  29.168   8.850
 5691POPC   GL219082   6.721  29.284   8.850
 5691POPC   C1A19083   6.598  29.188   8.550
 5691POPC   D2A19084   6.607  29.102   8.250
 5691POPC   C3A19085   6.672  29.173   7.950
 5691POPC   C4A19086   6.602  29.143   7.650
 5691POPC   C1B19087   6.744  29.360   8.550
 5691POPC   C2B19088   6.742  29.352   8.250
 5691POPC   C3B19089   6.759  29.391   7.950
 5691POPC   C4B19090   6.742  29.418   7.650
 5692POPC   NC319091   0.457  12.818   9.450
 5692POPC   PO419092   0.471  12.866   9.150
 5692POPC   GL119093   0.462  12.830   8.850
 5692POPC   GL219094   0.319  12.799   8.850
 5692POPC   C1A19095   0.414  12.859   8.550
 5692POPC   D2A19096   0.476  12.862   8.250
 5692POPC   C3A19097   0.463  12.837   7.950
 5692POPC   C4A19098   0.475  12.842   7.650
 5692POPC   C1B19099   0.215  12.690   8.550
 5692POPC   C2B19100   0.212  12.736   8.250
 5692POPC   C3B19101   0.235  12.733   7.950
 5692POPC   C4B19102   0.186  12.671   7.650
 5693POPC   NC319103  38.416   7.384   9.450
 5693POPC   PO419104  38.477   7.376   9.150
 5693POPC   GL119105  38.421   7.459   8.850
 5693POPC   GL219106  38.540   7.349   8.850
 5693POPC   C1A19107  38.422   7.452   8.550
 5693POPC   D2A19108  38.491   7.426   8.250
 5693POPC   C3A19109  38.458   7.455   7.950
 5693POPC   C4A19110  38.494   7.392   7.650
 5693POPC   C1B19111  38.721   7.360   8.550
 5693POPC   C2B19112  38.704   7.390   8.250
 5693POPC   C3B19113  38.724   7.362   7.950
 5693POPC   C4B19114  38.718   7.308   7.650
 5694POPC   NC319115  12.079  28.378   9.450
 5694POPC   PO419116  12.076  28.387   9.150
 5694POPC   GL119117  12.115  28.360   8.850
 5694POPC   GL219118  12.055  28.281   8.850
 5694POPC   C1A19119  12.047  28.396   8.550
 5694POPC   D2A19120  12.029  28.365   8.250
 5694POPC   C3A19121  12.046  28.369   7.950
 5694POPC   C4A19122  12.113  28.391   7.650
 5694POPC   C1B19123  12.085  28.131   8.550
 5694POPC   C2B19124  12.075  28.144   8.250
 5694POPC   C3B19125  12.081  28.151   7.950
 5694POPC   C4B19126  12.101  28.151   7.650
 5695POPC   NC319127  25.257  40.031   9.450
 5695POPC   PO419128  25.241  39.970   9.150
 5695POPC   GL119129  25.226  39.983   8.850
 5695POPC   GL219130  25.176  40.035   8.850
 5695POPC   C1A19131  25.276  40.030   8.550
 5695POPC   D2A19132  25.302  40.001   8.250
 5695POPC   C3A19133  25.246  40.049   7.950
 5695POPC   C4A19134  25.280  40.053   7.650
 5695POPC   C1B19135  25.026  40.062   8.550
 5695POPC   C2B19136  24.994  40.124   8.250
 5695POPC   C3B19137  25.054  40.118   7.950
 5695POPC   C4B19138  25.068  40.043   7.650
 5696POPC   NC319139  40.786  43.070   9.450
 5696POPC   PO419140  40.828  43.133   9.150
 5696POPC   GL119141  40.801  43.102   8.850
 5696POPC   GL219142  40.874  43.003   8.850
 5696POPC   C1A19143  40.775  43.152   8.550
 5696POPC   D2A19144  40.783  43.077   8.250
 5696POPC   C3A19145  40.788  43.146   7.950
 5696POPC   C4A19146  40.810  43.081   7.650
 5696POPC   C1B19147  40.891  42.909   8.550
 5696POPC   C2B19148  40.908  42.917   8.250
 5696POPC   C3B19149  40.909  42.855   7.950
 5696POPC   C4B19150  40.906  42.845   7.650
 5697POPC   NC319151  18.282  21.426   9.450
 5697POPC   PO419152  18.305  21.404   9.150
 5697POPC   GL119153  18.286  21.405   8.850
 5697POPC   GL219154  18.133  21.297   8.850
 5697POPC   C1A19155  18.240  21.423   8.550
 5697POPC   D2A19156  18.285  21.392   8.250
 5697POPC   C3A19157  18.326  21.381   7.950
 5697POPC   C4A19158  18.241  21.403   7.650
 5697POPC   C1B19159  18.095  21.258   8.550
 5697POPC   C2B19160  18.044  21.209   8.250
 5697POPC   C3B19161  18.112  21.240   7.950
 5697POPC   C4B19162  18.118  21.237   7.650
 5698POPC   NC319163  33.811  10.484   9.450
 5698POPC   PO419164  33.819  10.516   9.150
 5698POPC   GL119165  33.845  10.568   8.850
 5698POPC   GL219166  33.840  10.379   8.850
 5698POPC   C1A19167  33.822  10.521   8.550
 5698POPC   D2A19168  33.790  10.543   8.250
 5698POPC   C3A19169  33.801  10.507   7.950
 5698POPC   C4A19170  33.753  10.507   7.650
 5698POPC   C1B19171  33.819  10.227   8.550
 5698POPC   C2B19172  33.759  10.251   8.250
 5698POPC   C3B19173  33.824  10.267   7.950
 5698POPC   C4B19174  33.798  10.238   7.650
 5699POPC   NC319175  20.588  35.369   9.450
 5699POPC   PO419176  20.629  35.355   9.150
 5699POPC   GL119177  20.657  35.337   8.850
 5699POPC   GL219178  20.555  35.417   8.850
 5699POPC   C1A19179  20.644  35.372   8.550
 5699POPC   D2A19180  20.620  35.324   8.250
 5699POPC   C3A19181  20.646  35.354   7.950
 5699POPC   C4A19182  20.657  35.328   7.650
 5699POPC   C1B19183  20.442  35.515   8.550
 5699POPC   C2B19184  20.375  35.530   8.250
 5699POPC   C3B19185  20.400  35.517   7.950
 5699POPC   C4B19186  20.401  35.491   7.650
 5700POPC   NC319187  22.958  36.171   9.450
 5700POPC   PO419188  22.973  36.085   9.150
 5700POPC   GL119189  22.977  36.112   8.850
 5700POPC   GL219190  23.020  36.153   8.850
 5700POPC   C1A19191  22.945  36.091   8.550
 5700POPC   D2A19192  22.956  36.084   8.250
 5700POPC   C3A19193  22.897  36.117   7.950
 5700POPC   C4A19194  22.956  36.103   7.650
 5700POPC   C1B19195  23.219  36.065   8.550
 5700POPC   C2B19196  23.194  36.085   8.250
 5700POPC   C3B19197  23.215  36.119   7.950
 5700POPC   C4B19198  23.149  36.138   7.650
 5701POPC   NC319199  38.431   5.824   9.450
 5701POPC   PO419200  38.440   5.850   9.150
 5701POPC   GL119201  38.436   5.909   8.850
 5701POPC   GL219202  38.538   5.972   8.850
 5701POPC   C1A19203  38.434   5.856   8.550
 5701POPC   D2A19204  38.460   5.850   8.250
 5701POPC   C3A19205  38.440   5.880   7.950
 5701POPC   C4A19206  38.408   5.868   7.650
 5701POPC   C1B19207  38.584   6.041   8.550
 5701POPC   C2B19208  38.599   6.089   8.250
 5701POPC   C3B19209  38.656   6.083   7.950
 5701POPC   C4B19210  38.587   6.050   7.650
 5702POPC   NC319211  10.525  40.821   9.450
 5702POPC   PO419212  10.532  40.782   9.150
 5702POPC   GL119213  10.551  40.764   8.850
 5702POPC   GL219214  10.625  40.746   8.850
 5702POPC   C1A19215  10.516  40.767   8.550
 5702POPC   D2A19216  10.539  40.808   8.250
 5702POPC   C3A19217  10.508  40.779   7.950
 5702POPC   C4A19218  10.524  40.810   7.650
 5702POPC   C1B19219  10.744  40.788   8.550
 5702POPC   C2B19220  10.792  40.701   8.250
 5702POPC   C3B19221  10.750  40.732   7.950
 5702POPC   C4B19222  10.781  40.716   7.650
 5703POPC   NC319223  24.498  11.300   9.450
 5703POPC   PO419224  24.524  11.324   9.150
 5703POPC   GL119225  24.476  11.319   8.850
 5703POPC   GL219226  24.520  11.413   8.850
 5703POPC   C1A19227  24.510  11.260   8.550
 5703POPC   D2A19228  24.515  11.335   8.250
 5703POPC   C3A19229  24.488  11.284   7.950
 5703POPC   C4A19230  24.479  11.333   7.650
 5703POPC   C1B19231  24.497  11.550   8.550
 5703POPC   C2B19232  24.528  11.509   8.250
 5703POPC   C3B19233  24.507  11.525   7.950
 5703POPC   C4B19234  24.472  11.528   7.650
 5704POPC   NC319235  40.038  36.169   9.450
 5704POPC   PO419236  40.001  36.092   9.150
 5704POPC   GL119237  39.973  36.116   8.850
 5704POPC   GL219238  40.057  36.059   8.850
 5704POPC   C1A19239  40.007  36.130   8.550
 5704POPC   D2A19240  39.994  36.160   8.250
 5704POPC   C3A19241  39.968  36.121   7.950
 5704POPC   C4A19242  40.029  36.128   7.650
 5704POPC   C1B19243  40.156  35.887   8.550
 5704POPC   C2B19244  40.187  35.878   8.250
 5704POPC   C3B19245  40.196  35.937   7.950
 5704POPC   C4B19246  40.166  35.918   7.650
 5705POPC   NC319247   1.237   8.987   9.450
 5705POPC   PO419248   1.202   8.981   9.150
 5705POPC   GL119249   1.166   9.017   8.850
 5705POPC   GL219250   1.129   8.903   8.850
 5705POPC   C1A19251   1.196   8.978   8.550
 5705POPC   D2A19252   1.185   8.954   8.250
 5705POPC   C3A19253   1.224   8.934   7.950
 5705POPC   C4A19254   1.225   8.967   7.650
 5705POPC   C1B19255   0.985   8.888   8.550
 5705POPC   C2B19256   1.016   8.890   8.250
 5705POPC   C3B19257   1.008   8.826   7.950
 5705POPC   C4B19258   1.007   8.853   7.650
 5706POPC   NC319259   3.544   6.625   9.450
 5706POPC   PO419260   3.535   6.654   9.150
 5706POPC   GL119261   3.528   6.636   8.850
 5706POPC   GL219262   3.638   6.755   8.850
 5706POPC   C1A19263   3.526   6.625   8.550
 5706POPC   D2A19264   3.564   6.602   8.250
 5706POPC   C3A19265   3.585   6.626   7.950
 5706POPC   C4A19266   3.535   6.625   7.650
 5706POPC   C1B19267   3.703   6.857   8.550
 5706POPC   C2B19268   3.702   6.835   8.250
 5706POPC   C3B19269   3.731   6.809   7.950
 5706POPC   C4B19270   3.671   6.806   7.650
 5707POPC   NC319271  12.866   4.324   9.450
 5707POPC   PO419272  12.851   4.367   9.150
 5707POPC   GL119273  12.828   4.283   8.850
 5707POPC   GL219274  12.746   4.242   8.850
 5707POPC   C1A19275  12.866   4.353   8.550
 5707POPC   D2A19276  12.899   4.303   8.250
 5707POPC   C3A19277  12.885   4.340   7.950
 5707POPC   C4A19278  12.827   4.354   7.650
 5707POPC   C1B19279  12.607   4.286   8.550
 5707POPC   C2B19280  12.664   4.240   8.250
 5707POPC   C3B19281  12.607   4.225   7.950
 5707POPC   C4B19282  12.584   4.283   7.650
 5708POPC   NC319283   0.438  18.278   9.450
 5708POPC   PO419284   0.422  18.297   9.150
 5708POPC   GL119285   0.415  18.291   8.850
 5708POPC   GL219286   0.471  18.144   8.850
 5708POPC   C1A19287   0.437  18.297   8.550
 5708POPC   D2A19288   0.460  18.236   8.250
 5708POPC   C3A19289   0.430  18.257   7.950
 5708POPC   C4A19290   0.391  18.237   7.650
 5708POPC   C1B19291   0.598  18.056   8.550
 5708POPC   C2B19292   0.636  18.110   8.250
 5708POPC   C3B19293   0.545  18.122   7.950
 5708POPC   C4B19294   0.550  18.076   7.650
 5709POPC   NC319295  40.024  26.826   9.450
 5709POPC   PO419296  40.040  26.842   9.150
 5709POPC   GL119297  39.985  26.834   8.850
 5709POPC   GL219298  40.029  26.904   8.850
 5709POPC   C1A19299  40.045  26.859   8.550
 5709POPC   D2A19300  40.053  26.770   8.250
 5709POPC   C3A19301  39.993  26.857   7.950
 5709POPC   C4A19302  39.965  26.809   7.650
 5709POPC   C1B19303  40.146  26.991   8.550
 5709POPC   C2B19304  40.139  26.991   8.250
 5709POPC   C3B19305  40.168  27.048   7.950
 5709POPC   C4B19306  40.167  27.053   7.650
 5710POPC   NC319307  30.693  44.650   9.450
 5710POPC   PO419308  30.655  44.648   9.150
 5710POPC   GL119309  30.697  44.707   8.850
 5710POPC   GL219310  30.736  44.790   8.850
 5710POPC   C1A19311  30.657  44.625   8.550
 5710POPC   D2A19312  30.665  44.704   8.250
 5710POPC   C3A19313  30.663  44.693   7.950
 5710POPC   C4A19314  30.733  44.664   7.650
 5710POPC   C1B19315  30.722  44.954   8.550
 5710POPC   C2B19316  30.746  44.890   8.250
 5710POPC   C3B19317  30.800  44.904   7.950
 5710POPC   C4B19318  30.709  44.923   7.650
 5711POPC   NC319319  34.563  15.159   9.450
 5711POPC   PO419320  34.589  15.173   9.150
 5711POPC   GL119321  34.585  15.208   8.850
 5711POPC   GL219322  34.675  15.080   8.850
 5711POPC   C1A19323  34.561  15.158   8.550
 5711POPC   D2A19324  34.569  15.165   8.250
 5711POPC   C3A19325  34.592  15.223   7.950
 5711POPC   C4A19326  34.581  15.133   7.650
 5711POPC   C1B19327  34.664  14.998   8.550
 5711POPC   C2B19328  34.718  14.925   8.250
 5711POPC   C3B19329  34.684  15.005   7.950
 5711POPC   C4B19330  34.741  14.972   7.650
 5712POPC   NC319331  22.141  26.821   9.450
 5712POPC   PO419332  22.115  26.858   9.150
 5712POPC   GL119333  22.201  26.820   8.850
 5712POPC   GL219334  22.122  26.909   8.850
 5712POPC   C1A19335  22.150  26.785   8.550
 5712POPC   D2A19336  22.208  26.808   8.250
 5712POPC   C3A19337  22.141  26.776   7.950
 5712POPC   C4A19338  22.154  26.818   7.650
 5712POPC   C1B19339  22.084  27.035   8.550
 5712POPC   C2B19340  22.018  27.038   8.250
 5712POPC   C3B19341  22.000  27.061   7.950
 5712POPC   C4B19342  22.048  27.006   7.650
 5713POPC   NC319343  29.937   1.179   9.450
 5713POPC   PO419344  29.950   1.207   9.150
 5713POPC   GL119345  29.911   1.253   8.850
 5713POPC   GL219346  30.001   1.348   8.850
 5713POPC   C1A19347  29.894   1.209   8.550
 5713POPC   D2A19348  29.922   1.202   8.250
 5713POPC   C3A19349  29.891   1.180   7.950
 5713POPC   C4A19350  29.895   1.251   7.650
 5713POPC   C1B19351  30.120   1.396   8.550
 5713POPC   C2B19352  30.140   1.366   8.250
 5713POPC   C3B19353  30.130   1.394   7.950
 5713POPC   C4B19354  30.052   1.437   7.650
 5714POPC   NC319355   9.738   6.624   9.450
 5714POPC   PO419356   9.753   6.663   9.150
 5714POPC   GL119357   9.710   6.607   8.850
 5714POPC   GL219358   9.731   6.559   8.850
 5714POPC   C1A19359   9.785   6.621   8.550
 5714POPC   D2A19360   9.699   6.631   8.250
 5714POPC   C3A19361   9.772   6.598   7.950
 5714POPC   C4A19362   9.747   6.671   7.650
 5714POPC   C1B19363   9.727   6.442   8.550
 5714POPC   C2B19364   9.736   6.369   8.250
 5714POPC   C3B19365   9.764   6.401   7.950
 5714POPC   C4B19366   9.771   6.386   7.650
 5715POPC   NC319367  33.060   2.808   9.450
 5715POPC   PO419368  33.039   2.754   9.150
 5715POPC   GL119369  32.978   2.758   8.850
 5715POPC   GL219370  33.054   2.684   8.850
 5715POPC   C1A19371  32.977   2.764   8.550
 5715POPC   D2A19372  33.008   2.774   8.250
 5715POPC   C3A19373  33.024   2.745   7.950
 5715POPC   C4A19374  33.028   2.719   7.650
 5715POPC   C1B19375  33.188   2.550   8.550
 5715POPC   C2B19376  33.210   2.584   8.250
 5715POPC   C3B19377  33.121   2.600   7.950
 5715POPC   C4B19378  33.134   2.545   7.650
 5716POPC   NC319379  32.981  31.437   9.450
 5716POPC   PO419380  33.015  31.424   9.150
 5716POPC   GL119381  33.067  31.520   8.850
 5716POPC   GL219382  33.023  31.617   8.850
 5716POPC   C1A19383  32.999  31.499   8.550
 5716POPC   D2A19384  33.060  31.435   8.250
 5716POPC   C3A19385  32.984  31.479   7.950
 5716POPC   C4A19386  33.001  31.484   7.650
 5716POPC   C1B19387  33.050  31.750   8.550
 5716POPC   C2B19388  33.046  31.689   8.250
 5716POPC   C3B19389  33.006  31.741   7.950
 5716POPC   C4B19390  33.029  31.771   7.650
 5717POPC   NC319391   5.045  19.027   9.450
 5717POPC   PO419392   5.069  19.048   9.150
 5717POPC   GL119393   5.125  19.046   8.850
 5717POPC   GL219394   5.230  18.984   8.850
 5717POPC   C1A19395   5.121  19.011   8.550
 5717POPC   D2A19396   5.065  19.101   8.250
 5717POPC   C3A19397   5.126  19.047   7.950
 5717POPC   C4A19398   5.106  19.087   7.650
 5717POPC   C1B19399   5.306  18.982   8.550
 5717POPC   C2B19400   5.289  18.950   8.250
 5717POPC   C3B19401   5.291  18.996   7.950
 5717POPC   C4B19402   5.383  19.022   7.650
 5718POPC   NC319403  26.018   8.923   9.450
 5718POPC   PO419404  26.074   8.954   9.150
 5718POPC   GL119405  26.055   9.014   8.850
 5718POPC   GL219406  25.977   8.860   8.850
 5718POPC   C1A19407  26.087   8.938   8.550
 5718POPC   D2A19408  26.008   9.005   8.250
 5718POPC   C3A19409  26.039   8.979   7.950
 5718POPC   C4A19410  26.008   8.946   7.650
 5718POPC   C1B19411  25.981   8.730   8.550
 5718POPC   C2B19412  25.940   8.759   8.250
 5718POPC   C3B19413  25.978   8.746   7.950
 5718POPC   C4B19414  25.900   8.740   7.650
 5719POPC   NC319415  39.959  31.521   9.450
 5719POPC   PO419416  40.001  31.498   9.150
 5719POPC   GL119417  39.994  31.424   8.850
 5719POPC   GL219418  39.891  31.531   8.850
 5719POPC   C1A19419  39.968  31.434   8.550
 5719POPC   D2A19420  40.028  31.450   8.250
 5719POPC   C3A19421  39.991  31.479   7.950
 5719POPC   C4A19422  40.041  31.468   7.650
 5719POPC   C1B19423  39.770  31.619   8.550
 5719POPC   C2B19424  39.766  31.652   8.250
 5719POPC   C3B19425  39.796  31.620   7.950
 5719POPC   C4B19426  39.843  31.598   7.650
 5720POPC   NC319427  22.206  21.363   9.450
 5720POPC   PO419428  22.140  21.366   9.150
 5720POPC   GL119429  22.116  21.348   8.850
 5720POPC   GL219430  22.073  21.421   8.850
 5720POPC   C1A19431  22.143  21.408   8.550
 5720POPC   D2A19432  22.182  21.420   8.250
 5720POPC   C3A19433  22.200  21.409   7.950
 5720POPC   C4A19434  22.181  21.372   7.650
 5720POPC   C1B19435  21.969  21.450   8.550
 5720POPC   C2B19436  21.910  21.456   8.250
 5720POPC   C3B19437  21.896  21.438   7.950
 5720POPC   C4B19438  21.950  21.480   7.650
 5721POPC   NC319439  21.383  33.040   9.450
 5721POPC   PO419440  21.354  32.991   9.150
 5721POPC   GL119441  21.424  32.980   8.850
 5721POPC   GL219442  21.504  32.953   8.850
 5721POPC   C1A19443  21.414  32.999   8.550
 5721POPC   D2A19444  21.363  33.049   8.250
 5721POPC   C3A19445  21.338  33.060   7.950
 5721POPC   C4A19446  21.378  33.065   7.650
 5721POPC   C1B19447  21.551  32.826   8.550
 5721POPC   C2B19448  21.587  32.820   8.250
 5721POPC   C3B19449  21.582  32.883   7.950
 5721POPC   C4B19450  21.606  32.880   7.650
 5722POPC   NC319451  16.749  23.710   9.450
 5722POPC   PO419452  16.725  23.739   9.150
 5722POPC   GL119453  16.774  23.740   8.850
 5722POPC   GL219454  16.813  23.698   8.850
 5722POPC   C1A19455  16.708  23.714   8.550
 5722POPC   D2A19456  16.776  23.671   8.250
 5722POPC   C3A19457  16.726  23.706   7.950
 5722POPC   C4A19458  16.759  23.708   7.650
 5722POPC   C1B19459  16.942  23.635   8.550
 5722POPC   C2B19460  16.965  23.646   8.250
 5722POPC   C3B19461  16.968  23.631   7.950
 5722POPC   C4B19462  16.929  23.600   7.650
 5723POPC   NC319463  22.963  10.530   9.450
 5723POPC   PO419464  22.957  10.571   9.150
 5723POPC   GL119465  22.939  10.485   8.850
 5723POPC   GL219466  22.993  10.456   8.850
 5723POPC   C1A19467  22.950  10.564   8.550
 5723POPC   D2A19468  22.947  10.530   8.250
 5723POPC   C3A19469  22.944  10.548   7.950
 5723POPC   C4A19470  22.952  10.570   7.650
 5723POPC   C1B19471  23.129  10.397   8.550
 5723POPC   C2B19472  23.115  10.362   8.250
 5723POPC   C3B19473  23.111  10.357   7.950
 5723POPC   C4B19474  23.072  10.379   7.650
 5724POPC   NC319475  18.288  20.599   9.450
 5724POPC   PO419476  18.244  20.633   9.150
 5724POPC   GL119477  18.308  20.589   8.850
 5724POPC   GL219478  18.433  20.667   8.850
 5724POPC   C1A19479  18.276  20.621   8.550
 5724POPC   D2A19480  18.236  20.611   8.250
 5724POPC   C3A19481  18.319  20.585   7.950
 5724POPC   C4A19482  18.288  20.630   7.650
 5724POPC   C1B19483  18.517  20.676   8.550
 5724POPC   C2B19484  18.489  20.630   8.250
 5724POPC   C3B19485  18.572  20.640   7.950
 5724POPC   C4B19486  18.558  20.635   7.650
 5725POPC   NC319487  14.422   8.990   9.450
 5725POPC   PO419488  14.388   8.953   9.150
 5725POPC   GL119489  14.448   8.954   8.850
 5725POPC   GL219490  14.400   9.064   8.850
 5725POPC   C1A19491  14.447   8.997   8.550
 5725POPC   D2A19492  14.418   8.985   8.250
 5725POPC   C3A19493  14.358   9.015   7.950
 5725POPC   C4A19494  14.392   8.954   7.650
 5725POPC   C1B19495  14.340   9.191   8.550
 5725POPC   C2B19496  14.336   9.263   8.250
 5725POPC   C3B19497  14.348   9.177   7.950
 5725POPC   C4B19498  14.295   9.257   7.650
 5726POPC   NC319499  35.355  42.366   9.450
 5726POPC   PO419500  35.381  42.383   9.150
 5726POPC   GL119501  35.385  42.290   8.850
 5726POPC   GL219502  35.254  42.347   8.850
 5726POPC   C1A19503  35.330  42.364   8.550
 5726POPC   D2A19504  35.338  42.297   8.250
 5726POPC   C3A19505  35.339  42.306   7.950
 5726POPC   C4A19506  35.364  42.322   7.650
 5726POPC   C1B19507  35.093  42.376   8.550
 5726POPC   C2B19508  35.120  42.308   8.250
 5726POPC   C3B19509  35.085  42.349   7.950
 5726POPC   C4B19510  35.139  42.377   7.650
 5727POPC   NC319511  10.496  23.716   9.450
 5727POPC   PO419512  10.572  23.757   9.150
 5727POPC   GL119513  10.508  23.736   8.850
 5727POPC   GL219514  10.386  23.732   8.850
 5727POPC   C1A19515  10.495  23.721   8.550
 5727POPC   D2A19516  10.490  23.721   8.250
 5727POPC   C3A19517  10.480  23.763   7.950
 5727POPC   C4A19518  10.475  23.756   7.650
 5727POPC   C1B19519  10.297  23.691   8.550
 5727POPC   C2B19520  10.267  23.765   8.250
 5727POPC   C3B19521  10.302  23.668   7.950
 5727POPC   C4B19522  10.312  23.694   7.650
 5728POPC   NC319523  18.236  43.100   9.450
 5728POPC   PO419524  18.289  43.103   9.150
 5728POPC   GL119525  18.277  43.109   8.850
 5728POPC   GL219526  18.213  43.140   8.850
 5728POPC   C1A19527  18.312  43.092   8.550
 5728POPC   D2A19528  18.305  43.154   8.250
 5728POPC   C3A19529  18.267  43.110   7.950
 5728POPC   C4A19530  18.239  43.081   7.650
 5728POPC   C1B19531  18.031  43.230   8.550
 5728POPC   C2B19532  18.059  43.176   8.250
 5728POPC   C3B19533  18.016  43.187   7.950
 5728POPC   C4B19534  18.026  43.226   7.650
 5729POPC   NC319535  15.183  42.373   9.450
 5729POPC   PO419536  15.204  42.380   9.150
 5729POPC   GL119537  15.156  42.313   8.850
 5729POPC   GL219538  15.276  42.356   8.850
 5729POPC   C1A19539  15.226  42.311   8.550
 5729POPC   D2A19540  15.171  42.373   8.250
 5729POPC   C3A19541  15.221  42.320   7.950
 5729POPC   C4A19542  15.165  42.362   7.650
 5729POPC   C1B19543  15.420  42.457   8.550
 5729POPC   C2B19544  15.369  42.504   8.250
 5729POPC   C3B19545  15.439  42.460   7.950
 5729POPC   C4B19546  15.379  42.463   7.650
 5730POPC   NC319547  15.182  32.281   9.450
 5730POPC   PO419548  15.192  32.277   9.150
 5730POPC   GL119549  15.142  32.291   8.850
 5730POPC   GL219550  15.130  32.355   8.850
 5730POPC   C1A19551  15.200  32.202   8.550
 5730POPC   D2A19552  15.214  32.296   8.250
 5730POPC   C3A19553  15.218  32.223   7.950
 5730POPC   C4A19554  15.185  32.253   7.650
 5730POPC   C1B19555  15.112  32.437   8.550
 5730POPC   C2B19556  15.084  32.453   8.250
 5730POPC   C3B19557  15.096  32.500   7.950
 5730POPC   C4B19558  15.095  32.483   7.650
 5731POPC   NC319559  10.528  19.881   9.450
 5731POPC   PO419560  10.484  19.840   9.150
 5731POPC   GL119561  10.478  19.820   8.850
 5731POPC   GL219562  10.641  19.717   8.850
 5731POPC   C1A19563  10.546  19.829   8.550
 5731POPC   D2A19564  10.521  19.788   8.250
 5731POPC   C3A19565  10.517  19.790   7.950
 5731POPC   C4A19566  10.548  19.854   7.650
 5731POPC   C1B19567  10.727  19.704   8.550
 5731POPC   C2B19568  10.723  19.701   8.250
 5731POPC   C3B19569  10.711  19.637   7.950
 5731POPC   C4B19570  10.686  19.643   7.650
 5732POPC   NC319571  24.515  10.478   9.450
 5732POPC   PO419572  24.532  10.531   9.150
 5732POPC   GL119573  24.515  10.524   8.850
 5732POPC   GL219574  24.612  10.482   8.850
 5732POPC   C1A19575  24.506  10.551   8.550
 5732POPC   D2A19576  24.508  10.534   8.250
 5732POPC   C3A19577  24.469  10.538   7.950
 5732POPC   C4A19578  24.531  10.548   7.650
 5732POPC   C1B19579  24.723  10.359   8.550
 5732POPC   C2B19580  24.670  10.386   8.250
 5732POPC   C3B19581  24.746  10.427   7.950
 5732POPC   C4B19582  24.733  10.420   7.650
 5733POPC   NC319583  32.255  28.380   9.450
 5733POPC   PO419584  32.249  28.360   9.150
 5733POPC   GL119585  32.205  28.388   8.850
 5733POPC   GL219586  32.214  28.203   8.850
 5733POPC   C1A19587  32.218  28.402   8.550
 5733POPC   D2A19588  32.202  28.405   8.250
 5733POPC   C3A19589  32.259  28.399   7.950
 5733POPC   C4A19590  32.239  28.360   7.650
 5733POPC   C1B19591  32.161  28.094   8.550
 5733POPC   C2B19592  32.197  28.101   8.250
 5733POPC   C3B19593  32.239  28.095   7.950
 5733POPC   C4B19594  32.221  28.155   7.650
 5734POPC   NC319595  12.105  32.223   9.450
 5734POPC   PO419596  12.122  32.217   9.150
 5734POPC   GL119597  12.117  32.285   8.850
 5734POPC   GL219598  12.181  32.232   8.850
 5734POPC   C1A19599  12.085  32.236   8.550
 5734POPC   D2A19600  12.051  32.273   8.250
 5734POPC   C3A19601  12.093  32.296   7.950
 5734POPC   C4A19602  12.084  32.266   7.650
 5734POPC   C1B19603  12.283  32.263   8.550
 5734POPC   C2B19604  12.344  32.280   8.250
 5734POPC   C3B19605  12.347  32.308   7.950
 5734POPC   C4B19606  12.339  32.274   7.650
 5735POPC   NC319607  24.498  12.096   9.450
 5735POPC   PO419608  24.454  12.060   9.150
 5735POPC   GL119609  24.441  12.058   8.850
 5735POPC   GL219610  24.634  12.082   8.850
 5735POPC   C1A19611  24.462  12.093   8.550
 5735POPC   D2A19612  24.444  12.048   8.250
 5735POPC   C3A19613  24.529  12.088   7.950
 5735POPC   C4A19614  24.494  12.046   7.650
 5735POPC   C1B19615  24.701  12.059   8.550
 5735POPC   C2B19616  24.700  11.974   8.250
 5735POPC   C3B19617  24.732  12.055   7.950
 5735POPC   C4B19618  24.700  12.021   7.650
 5736POPC   NC319619  42.384  26.816   9.450
 5736POPC   PO419620  42.319  26.810   9.150
 5736POPC   GL119621  42.331  26.852   8.850
 5736POPC   GL219622  42.457  26.744   8.850
 5736POPC   C1A19623  42.339  26.778   8.550
 5736POPC   D2A19624  42.343  26.769   8.250
 5736POPC   C3A19625  42.366  26.854   7.950
 5736POPC   C4A19626  42.338  26.828   7.650
 5736POPC   C1B19627  42.550  26.679   8.550
 5736POPC   C2B19628  42.520  26.643   8.250
 5736POPC   C3B19629  42.519  26.660   7.950
 5736POPC   C4B19630  42.500  26.732   7.650
 5737POPC   NC319631  21.424  36.139   9.450
 5737POPC   PO419632  21.423  36.176   9.150
 5737POPC   GL119633  21.385  36.120   8.850
 5737POPC   GL219634  21.524  36.153   8.850
 5737POPC   C1A19635  21.388  36.088   8.550
 5737POPC   D2A19636  21.400  36.176   8.250
 5737POPC   C3A19637  21.419  36.088   7.950
 5737POPC   C4A19638  21.411  36.111   7.650
 5737POPC   C1B19639  21.637  36.066   8.550
 5737POPC   C2B19640  21.675  36.130   8.250
 5737POPC   C3B19641  21.586  36.053   7.950
 5737POPC   C4B19642  21.594  36.049   7.650
 5738POPC   NC319643  34.528  27.600   9.450
 5738POPC   PO419644  34.535  27.561   9.150
 5738POPC   GL119645  34.597  27.585   8.850
 5738POPC   GL219646  34.507  27.527   8.850
 5738POPC   C1A19647  34.528  27.598   8.550
 5738POPC   D2A19648  34.535  27.625   8.250
 5738POPC   C3A19649  34.530  27.571   7.950
 5738POPC   C4A19650  34.601  27.611   7.650
 5738POPC   C1B19651  34.405  27.395   8.550
 5738POPC   C2B19652  34.415  27.360   8.250
 5738POPC   C3B19653  34.452  27.385   7.950
 5738POPC   C4B19654  34.426  27.327   7.650
 5739POPC   NC319655  35.325   2.745   9.450
 5739POPC   PO419656  35.330   2.787   9.150
 5739POPC   GL119657  35.371   2.767   8.850
 5739POPC   GL219658  35.311   2.632   8.850
 5739POPC   C1A19659  35.393   2.768   8.550
 5739POPC   D2A19660  35.306   2.757   8.250
 5739POPC   C3A19661  35.379   2.725   7.950
 5739POPC   C4A19662  35.332   2.725   7.650
 5739POPC   C1B19663  35.232   2.497   8.550
 5739POPC   C2B19664  35.202   2.568   8.250
 5739POPC   C3B19665  35.217   2.531   7.950
 5739POPC   C4B19666  35.210   2.528   7.650
 5740POPC   NC319667  37.683  36.923   9.450
 5740POPC   PO419668  37.633  36.856   9.150
 5740POPC   GL119669  37.720  36.859   8.850
 5740POPC   GL219670  37.790  36.995   8.850
 5740POPC   C1A19671  37.689  36.899   8.550
 5740POPC   D2A19672  37.640  36.927   8.250
 5740POPC   C3A19673  37.632  36.918   7.950
 5740POPC   C4A19674  37.694  36.927   7.650
 5740POPC   C1B19675  37.916  36.963   8.550
 5740POPC   C2B19676  37.894  37.036   8.250
 5740POPC   C3B19677  37.919  36.951   7.950
 5740POPC   C4B19678  37.872  37.043   7.650
 5741POPC   NC319679   5.893  18.312   9.450
 5741POPC   PO419680   5.882  18.284   9.150
 5741POPC   GL119681   5.858  18.329   8.850
 5741POPC   GL219682   5.899  18.145   8.850
 5741POPC   C1A19683   5.909  18.330   8.550
 5741POPC   D2A19684   5.822  18.322   8.250
 5741POPC   C3A19685   5.836  18.248   7.950
 5741POPC   C4A19686   5.855  18.252   7.650
 5741POPC   C1B19687   5.923  18.003   8.550
 5741POPC   C2B19688   5.917  18.073   8.250
 5741POPC   C3B19689   5.851  18.004   7.950
 5741POPC   C4B19690   5.860  18.053   7.650
 5742POPC   NC319691  33.807   5.913   9.450
 5742POPC   PO419692  33.833   5.868   9.150
 5742POPC   GL119693  33.819   5.830   8.850
 5742POPC   GL219694  33.925   5.987   8.850
 5742POPC   C1A19695  33.797   5.877   8.550
 5742POPC   D2A19696  33.789   5.866   8.250
 5742POPC   C3A19697  33.807   5.911   7.950
 5742POPC   C4A19698  33.756   5.908   7.650
 5742POPC   C1B19699  33.971   6.064   8.550
 5742POPC   C2B19700  33.985   6.096   8.250
 5742POPC   C3B19701  33.993   6.014   7.950
 5742POPC   C4B19702  33.934   6.097   7.650
 5743POPC   NC319703  30.668   5.899   9.450
 5743POPC   PO419704  30.699   5.848   9.150
 5743POPC   GL119705  30.709   5.842   8.850
 5743POPC   GL219706  30.662   5.996   8.850
 5743POPC   C1A19707  30.721   5.863   8.550
 5743POPC   D2A19708  30.682   5.838   8.250
 5743POPC   C3A19709  30.685   5.834   7.950
 5743POPC   C4A19710  30.665   5.838   7.650
 5743POPC   C1B19711  30.588   6.104   8.550
 5743POPC   C2B19712  30.552   6.032   8.250
 5743POPC   C3B19713  30.548   6.086   7.950
 5743POPC   C4B19714  30.537   6.098   7.650
 5744POPC   NC319715  15.983   6.610   9.450
 5744POPC   PO419716  15.957   6.693   9.150
 5744POPC   GL119717  15.936   6.680   8.850
 5744POPC   GL219718  15.981   6.489   8.850
 5744POPC   C1A19719  15.961   6.618   8.550
 5744POPC   D2A19720  15.953   6.652   8.250
 5744POPC   C3A19721  15.921   6.670   7.950
 5744POPC   C4A19722  15.932   6.655   7.650
 5744POPC   C1B19723  16.051   6.441   8.550
 5744POPC   C2B19724  16.062   6.452   8.250
 5744POPC   C3B19725  16.136   6.465   7.950
 5744POPC   C4B19726  16.082   6.390   7.650
 5745POPC   NC319727  19.853  42.334   9.450
 5745POPC   PO419728  19.843  42.342   9.150
 5745POPC   GL119729  19.821  42.378   8.850
 5745POPC   GL219730  19.838  42.196   8.850
 5745POPC   C1A19731  19.827  42.294   8.550
 5745POPC   D2A19732  19.834  42.384   8.250
 5745POPC   C3A19733  19.842  42.358   7.950
 5745POPC   C4A19734  19.865  42.327   7.650
 5745POPC   C1B19735  19.949  42.130   8.550
 5745POPC   C2B19736  19.974  42.087   8.250
 5745POPC   C3B19737  19.936  42.112   7.950
 5745POPC   C4B19738  19.942  42.155   7.650
 5746POPC   NC319739  20.656   4.324   9.450
 5746POPC   PO419740  20.638   4.284   9.150
 5746POPC   GL119741  20.614   4.270   8.850
 5746POPC   GL219742  20.700   4.371   8.850
 5746POPC   C1A19743  20.598   4.345   8.550
 5746POPC   D2A19744  20.569   4.305   8.250
 5746POPC   C3A19745  20.647   4.365   7.950
 5746POPC   C4A19746  20.576   4.311   7.650
 5746POPC   C1B19747  20.828   4.492   8.550
 5746POPC   C2B19748  20.749   4.508   8.250
 5746POPC   C3B19749  20.749   4.498   7.950
 5746POPC   C4B19750  20.815   4.444   7.650
 5747POPC   NC319751  24.505   0.485   9.450
 5747POPC   PO419752  24.481   0.417   9.150
 5747POPC   GL119753  24.465   0.434   8.850
 5747POPC   GL219754  24.590   0.331   8.850
 5747POPC   C1A19755  24.490   0.409   8.550
 5747POPC   D2A19756  24.494   0.451   8.250
 5747POPC   C3A19757  24.495   0.483   7.950
 5747POPC   C4A19758  24.475   0.412   7.650
 5747POPC   C1B19759  24.622   0.256   8.550
 5747POPC   C2B19760  24.675   0.263   8.250
 5747POPC   C3B19761  24.665   0.224   7.950
 5747POPC   C4B19762  24.684   0.262   7.650
 5748POPC   NC319763  16.706  30.684   9.450
 5748POPC   PO419764  16.687  30.688   9.150
 5748POPC   GL119765  16.710  30.717   8.850
 5748POPC   GL219766  16.707  30.570   8.850
 5748POPC   C1A19767  16.743  30.731   8.550
 5748POPC   D2A19768  16.689  30.714   8.250
 5748POPC   C3A19769  16.717  30.675   7.950
 5748POPC   C4A19770  16.755  30.663   7.650
 5748POPC   C1B19771  16.670  30.409   8.550
 5748POPC   C2B19772  16.761  30.483   8.250
 5748POPC   C3B19773  16.698  30.399   7.950
 5748POPC   C4B19774  16.704  30.444   7.650
 5749POPC   NC319775   5.833  17.545   9.450
 5749POPC   PO419776   5.857  17.491   9.150
 5749POPC   GL119777   5.892  17.501   8.850
 5749POPC   GL219778   6.035  17.466   8.850
 5749POPC   C1A19779   5.900  17.549   8.550
 5749POPC   D2A19780   5.874  17.505   8.250
 5749POPC   C3A19781   5.910  17.504   7.950
 5749POPC   C4A19782   5.861  17.526   7.650
 5749POPC   C1B19783   6.072  17.435   8.550
 5749POPC   C2B19784   6.074  17.433   8.250
 5749POPC   C3B19785   6.110  17.392   7.950
 5749POPC   C4B19786   6.150  17.479   7.650
 5750POPC   NC319787  25.278  27.548   9.450
 5750POPC   PO419788  25.256  27.587   9.150
 5750POPC   GL119789  25.273  27.591   8.850
 5750POPC   GL219790  25.382  27.554   8.850
 5750POPC   C1A19791  25.279  27.571   8.550
 5750POPC   D2A19792  25.282  27.562   8.250
 5750POPC   C3A19793  25.258  27.589   7.950
 5750POPC   C4A19794  25.245  27.601   7.650
 5750POPC   C1B19795  25.486  27.610   8.550
 5750POPC   C2B19796  25.543  27.582   8.250
 5750POPC   C3B19797  25.469  27.546   7.950
 5750POPC   C4B19798  25.512  27.587   7.650
 5751POPC   NC319799  39.238   6.675   9.450
 5751POPC   PO419800  39.267   6.657   9.150
 5751POPC   GL119801  39.203   6.637   8.850
 5751POPC   GL219802  39.208   6.728   8.850
 5751POPC   C1A19803  39.188   6.648   8.550
 5751POPC   D2A19804  39.266   6.601   8.250
 5751POPC   C3A19805  39.224   6.670   7.950
 5751POPC   C4A19806  39.207   6.605   7.650
 5751POPC   C1B19807  39.143   6.917   8.550
 5751POPC   C2B19808  39.227   6.914   8.250
 5751POPC   C3B19809  39.216   6.907   7.950
 5751POPC   C4B19810  39.224   6.937   7.650
 5752POPC   NC319811  20.565  11.268   9.450
 5752POPC   PO419812  20.622  11.332   9.150
 5752POPC   GL119813  20.592  11.337   8.850
 5752POPC   GL219814  20.619  11.180   8.850
 5752POPC   C1A19815  20.625  11.335   8.550
 5752POPC   D2A19816  20.655  11.262   8.250
 5752POPC   C3A19817  20.582  11.263   7.950
 5752POPC   C4A19818  20.605  11.284   7.650
 5752POPC   C1B19819  20.544  11.009   8.550
 5752POPC   C2B19820  20.573  11.070   8.250
 5752POPC   C3B19821  20.579  11.090   7.950
 5752POPC   C4B19822  20.618  11.027   7.650
 5753POPC   NC319823  32.292  29.111   9.450
 5753POPC   PO419824  32.282  29.148   9.150
 5753POPC   GL119825  32.213  29.102   8.850
 5753POPC   GL219826  32.280  29.004   8.850
 5753POPC   C1A19827  32.207  29.183   8.550
 5753POPC   D2A19828  32.274  29.143   8.250
 5753POPC   C3A19829  32.291  29.188   7.950
 5753POPC   C4A19830  32.237  29.141   7.650
 5753POPC   C1B19831  32.409  28.990   8.550
 5753POPC   C2B19832  32.350  28.933   8.250
 5753POPC   C3B19833  32.443  28.978   7.950
 5753POPC   C4B19834  32.407  28.957   7.650
 5754POPC   NC319835  32.284  43.160   9.450
 5754POPC   PO419836  32.266  43.148   9.150
 5754POPC   GL119837  32.256  43.088   8.850
 5754POPC   GL219838  32.374  43.013   8.850
 5754POPC   C1A19839  32.257  43.100   8.550
 5754POPC   D2A19840  32.216  43.105   8.250
 5754POPC   C3A19841  32.225  43.123   7.950
 5754POPC   C4A19842  32.289  43.130   7.650
 5754POPC   C1B19843  32.387  42.953   8.550
 5754POPC   C2B19844  32.454  42.926   8.250
 5754POPC   C3B19845  32.385  42.914   7.950
 5754POPC   C4B19846  32.449  42.904   7.650
 5755POPC   NC319847   8.950  23.744   9.450
 5755POPC   PO419848   8.949  23.697   9.150
 5755POPC   GL119849   8.934  23.699   8.850
 5755POPC   GL219850   9.023  23.607   8.850
 5755POPC   C1A19851   8.991  23.698   8.550
 5755POPC   D2A19852   8.989  23.719   8.250
 5755POPC   C3A19853   8.935  23.703   7.950
 5755POPC   C4A19854   9.014  23.678   7.650
 5755POPC   C1B19855   9.160  23.521   8.550
 5755POPC   C2B19856   9.160  23.500   8.250
 5755POPC   C3B19857   9.095  23.554   7.950
 5755POPC   C4B19858   9.135  23.499   7.650
 5756POPC   NC319859   8.242  20.598   9.450
 5756POPC   PO419860   8.195  20.657   9.150
 5756POPC   GL119861   8.177  20.649   8.850
 5756POPC   GL219862   8.140  20.740   8.850
 5756POPC   C1A19863   8.158  20.589   8.550
 5756POPC   D2A19864   8.204  20.564   8.250
 5756POPC   C3A19865   8.167  20.656   7.950
 5756POPC   C4A19866   8.220  20.588   7.650
 5756POPC   C1B19867   8.055  20.818   8.550
 5756POPC   C2B19868   8.126  20.842   8.250
 5756POPC   C3B19869   8.136  20.827   7.950
 5756POPC   C4B19870   8.132  20.885   7.650
 5757POPC   NC319871  21.408  33.835   9.450
 5757POPC   PO419872  21.431  33.752   9.150
 5757POPC   GL119873  21.389  33.842   8.850
 5757POPC   GL219874  21.309  33.790   8.850
 5757POPC   C1A19875  21.350  33.751   8.550
 5757POPC   D2A19876  21.400  33.785   8.250
 5757POPC   C3A19877  21.357  33.822   7.950
 5757POPC   C4A19878  21.436  33.790   7.650
 5757POPC   C1B19879  21.127  33.706   8.550
 5757POPC   C2B19880  21.120  33.784   8.250
 5757POPC   C3B19881  21.108  33.748   7.950
 5757POPC   C4B19882  21.133  33.800   7.650
 5758POPC   NC319883   5.056   8.923   9.450
 5758POPC   PO419884   5.104   8.971   9.150
 5758POPC   GL119885   5.084   8.981   8.850
 5758POPC   GL219886   5.087   9.144   8.850
 5758POPC   C1A19887   5.098   8.951   8.550
 5758POPC   D2A19888   5.139   8.948   8.250
 5758POPC   C3A19889   5.129   9.003   7.950
 5758POPC   C4A19890   5.054   8.990   7.650
 5758POPC   C1B19891   5.148   9.192   8.550
 5758POPC   C2B19892   5.113   9.178   8.250
 5758POPC   C3B19893   5.076   9.267   7.950
 5758POPC   C4B19894   5.095   9.200   7.650
 5759POPC   NC319895  19.070  29.138   9.450
 5759POPC   PO419896  19.014  29.120   9.150
 5759POPC   GL119897  19.077  29.124   8.850
 5759POPC   GL219898  19.132  29.209   8.850
 5759POPC   C1A19899  19.061  29.108   8.550
 5759POPC   D2A19900  19.074  29.137   8.250
 5759POPC   C3A19901  19.101  29.121   7.950
 5759POPC   C4A19902  19.055  29.166   7.650
 5759POPC   C1B19903  19.327  29.179   8.550
 5759POPC   C2B19904  19.294  29.266   8.250
 5759POPC   C3B19905  19.269  29.264   7.950
 5759POPC   C4B19906  19.262  29.178   7.650
 5760POPC   NC319907  36.150  17.530   9.450
 5760POPC   PO419908  36.087  17.512   9.150
 5760POPC   GL119909  36.149  17.556   8.850
 5760POPC   GL219910  36.016  17.517   8.850
 5760POPC   C1A19911  36.112  17.534   8.550
 5760POPC   D2A19912  36.080  17.475   8.250
 5760POPC   C3A19913  36.171  17.503   7.950
 5760POPC   C4A19914  36.158  17.556   7.650
 5760POPC   C1B19915  35.924  17.623   8.550
 5760POPC   C2B19916  35.909  17.585   8.250
 5760POPC   C3B19917  35.931  17.639   7.950
 5760POPC   C4B19918  35.884  17.600   7.650
 5761POPC   NC319919  29.938  40.043   9.450
 5761POPC   PO419920  29.916  39.991   9.150
 5761POPC   GL119921  29.928  40.023   8.850
 5761POPC   GL219922  29.753  39.967   8.850
 5761POPC   C1A19923  29.882  40.006   8.550
 5761POPC   D2A19924  29.925  39.973   8.250
 5761POPC   C3A19925  29.887  39.985   7.950
 5761POPC   C4A19926  29.970  40.006   7.650
 5761POPC   C1B19927  29.682  39.954   8.550
 5761POPC   C2B19928  29.630  39.929   8.250
 5761POPC   C3B19929  29.685  39.971   7.950
 5761POPC   C4B19930  29.672  39.935   7.650
 5762POPC   NC319931   4.354  15.917   9.450
 5762POPC   PO419932   4.281  15.957   9.150
 5762POPC   GL119933   4.309  15.998   8.850
 5762POPC   GL219934   4.357  16.096   8.850
 5762POPC   C1A19935   4.276  15.940   8.550
 5762POPC   D2A19936   4.353  15.952   8.250
 5762POPC   C3A19937   4.325  15.910   7.950
 5762POPC   C4A19938   4.295  15.951   7.650
 5762POPC   C1B19939   4.507  16.101   8.550
 5762POPC   C2B19940   4.519  16.181   8.250
 5762POPC   C3B19941   4.428  16.196   7.950
 5762POPC   C4B19942   4.431  16.161   7.650
 5763POPC   NC319943  40.004  29.893   9.450
 5763POPC   PO419944  39.966  29.937   9.150
 5763POPC   GL119945  40.046  29.914   8.850
 5763POPC   GL219946  40.142  29.955   8.850
 5763POPC   C1A19947  40.033  29.893   8.550
 5763POPC   D2A19948  40.016  29.966   8.250
 5763POPC   C3A19949  40.037  29.933   7.950
 5763POPC   C4A19950  40.057  29.938   7.650
 5763POPC   C1B19951  40.238  29.973   8.550
 5763POPC   C2B19952  40.240  29.923   8.250
 5763POPC   C3B19953  40.228  29.952   7.950
 5763POPC   C4B19954  40.258  29.982   7.650
 5764POPC   NC319955  33.823  33.031   9.450
 5764POPC   PO419956  33.779  33.001   9.150
 5764POPC   GL119957  33.764  33.053   8.850
 5764POPC   GL219958  33.950  33.070   8.850
 5764POPC   C1A19959  33.796  33.059   8.550
 5764POPC   D2A19960  33.792  32.998   8.250
 5764POPC   C3A19961  33.804  32.985   7.950
 5764POPC   C4A19962  33.785  33.016   7.650
 5764POPC   C1B19963  34.043  33.123   8.550
 5764POPC   C2B19964  34.017  33.149   8.250
 5764POPC   C3B19965  34.055  33.067   7.950
 5764POPC   C4B19966  34.084  33.084   7.650
 5765POPC   NC319967  14.437  11.314   9.450
 5765POPC   PO419968  14.395  11.294   9.150
 5765POPC   GL119969  14.447  11.283   8.850
 5765POPC   GL219970  14.259  11.220   8.850
 5765POPC   C1A19971  14.448  11.295   8.550
 5765POPC   D2A19972  14.441  11.281   8.250
 5765POPC   C3A19973  14.430  11.293   7.950
 5765POPC   C4A19974  14.402  11.263   7.650
 5765POPC   C1B19975  14.187  11.179   8.550
 5765POPC   C2B19976  14.197  11.195   8.250
 5765POPC   C3B19977  14.145  11.216   7.950
 5765POPC   C4B19978  14.207  11.211   7.650
 5766POPC   NC319979  28.417  25.288   9.450
 5766POPC   PO419980  28.380  25.270   9.150
 5766POPC   GL119981  28.373  25.283   8.850
 5766POPC   GL219982  28.457  25.207   8.850
 5766POPC   C1A19983  28.369  25.217   8.550
 5766POPC   D2A19984  28.334  25.258   8.250
 5766POPC   C3A19985  28.322  25.233   7.950
 5766POPC   C4A19986  28.327  25.278   7.650
 5766POPC   C1B19987  28.643  25.236   8.550
 5766POPC   C2B19988  28.644  25.178   8.250
 5766POPC   C3B19989  28.658  25.236   7.950
 5766POPC   C4B19990  28.577  25.166   7.650
 5767POPC   NC319991  19.079  20.623   9.450
 5767POPC   PO419992  19.045  20.607   9.150
 5767POPC   GL119993  19.102  20.627   8.850
 5767POPC   GL219994  19.118  20.463   8.850
 5767POPC   C1A19995  19.050  20.647   8.550
 5767POPC   D2A19996  19.104  20.602   8.250
 5767POPC   C3A19997  19.064  20.645   7.950
 5767POPC   C4A19998  19.049  20.629   7.650
 5767POPC   C1B19999  19.159  20.352   8.550
 5767POPC   C2B20000  19.131  20.415   8.250
 5767POPC   C3B20001  19.179  20.358   7.950
 5767POPC   C4B20002  19.191  20.413   7.650
 5768POPC   NC320003  39.225  35.379   9.450
 5768POPC   PO420004  39.203  35.381   9.150
 5768POPC   GL120005  39.276  35.322   8.850
 5768POPC   GL220006  39.330  35.259   8.850
 5768POPC   C1A20007  39.205  35.366   8.550
 5768POPC   D2A20008  39.244  35.319   8.250
 5768POPC   C3A20009  39.229  35.325   7.950
 5768POPC   C4A20010  39.184  35.387   7.650
 5768POPC   C1B20011  39.367  35.151   8.550
 5768POPC   C2B20012  39.445  35.137   8.250
 5768POPC   C3B20013  39.378  35.148   7.950
 5768POPC   C4B20014  39.383  35.195   7.650
 5769POPC   NC320015  42.326   9.718   9.450
 5769POPC   PO420016  42.369   9.727   9.150
 5769POPC   GL120017  42.306   9.724   8.850
 5769POPC   GL220018  42.349   9.851   8.850
 5769POPC   C1A20019  42.333   9.751   8.550
 5769POPC   D2A20020  42.338   9.776   8.250
 5769POPC   C3A20021  42.327   9.781   7.950
 5769POPC   C4A20022  42.370   9.700   7.650
 5769POPC   C1B20023  42.386  10.005   8.550
 5769POPC   C2B20024  42.375   9.979   8.250
 5769POPC   C3B20025  42.430  10.022   7.950
 5769POPC   C4B20026  42.414  10.027   7.650
 5770POPC   NC320027  34.608  15.909   9.450
 5770POPC   PO420028  34.568  15.966   9.150
 5770POPC   GL120029  34.580  15.922   8.850
 5770POPC   GL220030  34.613  16.066   8.850
 5770POPC   C1A20031  34.585  15.922   8.550
 5770POPC   D2A20032  34.593  16.005   8.250
 5770POPC   C3A20033  34.549  15.946   7.950
 5770POPC   C4A20034  34.563  15.931   7.650
 5770POPC   C1B20035  34.628  16.226   8.550
 5770POPC   C2B20036  34.587  16.161   8.250
 5770POPC   C3B20037  34.592  16.178   7.950
 5770POPC   C4B20038  34.644  16.187   7.650
 5771POPC   NC320039  32.202   8.213   9.450
 5771POPC   PO420040  32.266   8.162   9.150
 5771POPC   GL120041  32.273   8.217   8.850
 5771POPC   GL220042  32.299   8.259   8.850
 5771POPC   C1A20043  32.267   8.153   8.550
 5771POPC   D2A20044  32.238   8.214   8.250
 5771POPC   C3A20045  32.203   8.178   7.950
 5771POPC   C4A20046  32.283   8.147   7.650
 5771POPC   C1B20047  32.417   8.387   8.550
 5771POPC   C2B20048  32.393   8.429   8.250
 5771POPC   C3B20049  32.450   8.369   7.950
 5771POPC   C4B20050  32.430   8.373   7.650
 5772POPC   NC320051  12.826  32.240   9.450
 5772POPC   PO420052  12.868  32.268   9.150
 5772POPC   GL120053  12.882  32.251   8.850
 5772POPC   GL220054  12.767  32.317   8.850
 5772POPC   C1A20055  12.852  32.202   8.550
 5772POPC   D2A20056  12.862  32.277   8.250
 5772POPC   C3A20057  12.841  32.221   7.950
 5772POPC   C4A20058  12.809  32.244   7.650
 5772POPC   C1B20059  12.758  32.507   8.550
 5772POPC   C2B20060  12.696  32.513   8.250
 5772POPC   C3B20061  12.729  32.434   7.950
 5772POPC   C4B20062  12.761  32.422   7.650
 5773POPC   NC320063  13.655   8.991   9.450
 5773POPC   PO420064  13.578   9.007   9.150
 5773POPC   GL120065  13.614   8.995   8.850
 5773POPC   GL220066  13.498   8.904   8.850
 5773POPC   C1A20067  13.625   8.936   8.550
 5773POPC   D2A20068  13.636   9.004   8.250
 5773POPC   C3A20069  13.623   8.969   7.950
 5773POPC   C4A20070  13.668   9.020   7.650
 5773POPC   C1B20071  13.377   8.877   8.550
 5773POPC   C2B20072  13.366   8.854   8.250
 5773POPC   C3B20073  13.440   8.893   7.950
 5773POPC   C4B20074  13.380   8.901   7.650
 5774POPC   NC320075  19.816  29.164   9.450
 5774POPC   PO420076  19.793  29.154   9.150
 5774POPC   GL120077  19.830  29.194   8.850
 5774POPC   GL220078  19.955  29.013   8.850
 5774POPC   C1A20079  19.797  29.173   8.550
 5774POPC   D2A20080  19.830  29.156   8.250
 5774POPC   C3A20081  19.793  29.148   7.950
 5774POPC   C4A20082  19.843  29.125   7.650
 5774POPC   C1B20083  19.982  28.982   8.550
 5774POPC   C2B20084  19.992  28.970   8.250
 5774POPC   C3B20085  19.970  28.973   7.950
 5774POPC   C4B20086  20.039  28.977   7.650
 5775POPC   NC320087  28.396  44.677   9.450
 5775POPC   PO420088  28.390  44.708   9.150
 5775POPC   GL120089  28.394  44.656   8.850
 5775POPC   GL220090  28.356  44.730   8.850
 5775POPC   C1A20091  28.335  44.638   8.550
 5775POPC   D2A20092  28.385  44.635   8.250
 5775POPC   C3A20093  28.333  44.631   7.950
 5775POPC   C4A20094  28.412  44.644   7.650
 5775POPC   C1B20095  28.265  44.851   8.550
 5775POPC   C2B20096  28.244  44.882   8.250
 5775POPC   C3B20097  28.261  44.866   7.950
 5775POPC   C4B20098  28.291  44.828   7.650
 5776POPC   NC320099  24.506   8.215   9.450
 5776POPC   PO420100  24.482   8.218   9.150
 5776POPC   GL120101  24.539   8.240   8.850
 5776POPC   GL220102  24.475   8.112   8.850
 5776POPC   C1A20103  24.496   8.171   8.550
 5776POPC   D2A20104  24.508   8.188   8.250
 5776POPC   C3A20105  24.442   8.151   7.950
 5776POPC   C4A20106  24.502   8.197   7.650
 5776POPC   C1B20107  24.422   7.908   8.550
 5776POPC   C2B20108  24.409   7.939   8.250
 5776POPC   C3B20109  24.503   7.987   7.950
 5776POPC   C4B20110  24.472   7.921   7.650
 5777POPC   NC320111   5.823  19.043   9.450
 5777POPC   PO420112   5.837  19.085   9.150
 5777POPC   GL120113   5.868  19.010   8.850
 5777POPC   GL220114   5.775  18.925   8.850
 5777POPC   C1A20115   5.885  19.041   8.550
 5777POPC   D2A20116   5.888  19.048   8.250
 5777POPC   C3A20117   5.907  19.107   7.950
 5777POPC   C4A20118   5.903  19.011   7.650
 5777POPC   C1B20119   5.682  18.863   8.550
 5777POPC   C2B20120   5.775  18.897   8.250
 5777POPC   C3B20121   5.734  18.883   7.950
 5777POPC   C4B20122   5.758  18.897   7.650
 5778POPC   NC320123  22.163  22.191   9.450
 5778POPC   PO420124  22.164  22.112   9.150
 5778POPC   GL120125  22.206  22.200   8.850
 5778POPC   GL220126  22.041  22.051   8.850
 5778POPC   C1A20127  22.138  22.169   8.550
 5778POPC   D2A20128  22.156  22.148   8.250
 5778POPC   C3A20129  22.147  22.142   7.950
 5778POPC   C4A20130  22.114  22.190   7.650
 5778POPC   C1B20131  21.988  22.017   8.550
 5778POPC   C2B20132  21.904  22.012   8.250
 5778POPC   C3B20133  21.981  22.039   7.950
 5778POPC   C4B20134  21.976  22.041   7.650
 5779POPC   NC320135  33.054  20.617   9.450
 5779POPC   PO420136  32.990  20.607   9.150
 5779POPC   GL120137  33.027  20.569   8.850
 5779POPC   GL220138  32.897  20.644   8.850
 5779POPC   C1A20139  33.006  20.586   8.550
 5779POPC   D2A20140  33.062  20.651   8.250
 5779POPC   C3A20141  32.995  20.585   7.950
 5779POPC   C4A20142  33.041  20.607   7.650
 5779POPC   C1B20143  32.762  20.731   8.550
 5779POPC   C2B20144  32.819  20.698   8.250
 5779POPC   C3B20145  32.782  20.711   7.950
 5779POPC   C4B20146  32.792  20.670   7.650
 5780POPC   NC320147  29.135  25.255   9.450
 5780POPC   PO420148  29.099  25.236   9.150
 5780POPC   GL120149  29.144  25.241   8.850
 5780POPC   GL220150  29.168  25.131   8.850
 5780POPC   C1A20151  29.105  25.216   8.550
 5780POPC   D2A20152  29.122  25.299   8.250
 5780POPC   C3A20153  29.111  25.313   7.950
 5780POPC   C4A20154  29.149  25.291   7.650
 5780POPC   C1B20155  29.173  25.052   8.550
 5780POPC   C2B20156  29.186  24.989   8.250
 5780POPC   C3B20157  29.194  25.010   7.950
 5780POPC   C4B20158  29.174  24.988   7.650
 5781POPC   NC320159  24.522  29.111   9.450
 5781POPC   PO420160  24.476  29.113   9.150
 5781POPC   GL120161  24.451  29.158   8.850
 5781POPC   GL220162  24.376  28.999   8.850
 5781POPC   C1A20163  24.476  29.101   8.550
 5781POPC   D2A20164  24.475  29.181   8.250
 5781POPC   C3A20165  24.502  29.123   7.950
 5781POPC   C4A20166  24.470  29.159   7.650
 5781POPC   C1B20167  24.311  28.910   8.550
 5781POPC   C2B20168  24.297  28.988   8.250
 5781POPC   C3B20169  24.307  28.959   7.950
 5781POPC   C4B20170  24.295  28.980   7.650
 5782POPC   NC320171  15.176  10.568   9.450
 5782POPC   PO420172  15.213  10.493   9.150
 5782POPC   GL120173  15.157  10.504   8.850
 5782POPC   GL220174  15.304  10.577   8.850
 5782POPC   C1A20175  15.201  10.531   8.550
 5782POPC   D2A20176  15.158  10.557   8.250
 5782POPC   C3A20177  15.205  10.518   7.950
 5782POPC   C4A20178  15.228  10.480   7.650
 5782POPC   C1B20179  15.402  10.620   8.550
 5782POPC   C2B20180  15.358  10.650   8.250
 5782POPC   C3B20181  15.376  10.684   7.950
 5782POPC   C4B20182  15.404  10.714   7.650
 5783POPC   NC320183  43.901  15.947   9.450
 5783POPC   PO420184  43.847  15.945   9.150
 5783POPC   GL120185  43.865  15.946   8.850
 5783POPC   GL220186  43.777  16.007   8.850
 5783POPC   C1A20187  43.864  15.940   8.550
 5783POPC   D2A20188  43.859  15.918   8.250
 5783POPC   C3A20189  43.889  15.940   7.950
 5783POPC   C4A20190  43.918  15.913   7.650
 5783POPC   C1B20191  43.619  16.015   8.550
 5783POPC   C2B20192  43.671  16.016   8.250
 5783POPC   C3B20193  43.606  15.989   7.950
 5783POPC   C4B20194  43.676  16.030   7.650
 5784POPC   NC320195  15.919   9.728   9.450
 5784POPC   PO420196  15.990   9.755   9.150
 5784POPC   GL120197  15.982   9.786   8.850
 5784POPC   GL220198  15.843   9.695   8.850
 5784POPC   C1A20199  15.986   9.744   8.550
 5784POPC   D2A20200  15.994   9.736   8.250
 5784POPC   C3A20201  15.991   9.740   7.950
 5784POPC   C4A20202  15.979   9.770   7.650
 5784POPC   C1B20203  15.717   9.614   8.550
 5784POPC   C2B20204  15.699   9.608   8.250
 5784POPC   C3B20205  15.773   9.649   7.950
 5784POPC   C4B20206  15.789   9.567   7.650
 5785POPC   NC320207  33.051   4.350   9.450
 5785POPC   PO420208  32.985   4.279   9.150
 5785POPC   GL120209  33.046   4.303   8.850
 5785POPC   GL220210  33.088   4.408   8.850
 5785POPC   C1A20211  32.977   4.329   8.550
 5785POPC   D2A20212  33.025   4.302   8.250
 5785POPC   C3A20213  33.066   4.274   7.950
 5785POPC   C4A20214  33.012   4.320   7.650
 5785POPC   C1B20215  33.110   4.569   8.550
 5785POPC   C2B20216  33.125   4.512   8.250
 5785POPC   C3B20217  33.153   4.508   7.950
 5785POPC   C4B20218  33.114   4.562   7.650
 5786POPC   NC320219  27.633   0.429   9.450
 5786POPC   PO420220  27.618   0.397   9.150
 5786POPC   GL120221  27.551   0.394   8.850
 5786POPC   GL220222  27.686   0.510   8.850
 5786POPC   C1A20223  27.590   0.419   8.550
 5786POPC   D2A20224  27.570   0.472   8.250
 5786POPC   C3A20225  27.573   0.436   7.950
 5786POPC   C4A20226  27.584   0.440   7.650
 5786POPC   C1B20227  27.860   0.480   8.550
 5786POPC   C2B20228  27.842   0.478   8.250
 5786POPC   C3B20229  27.798   0.538   7.950
 5786POPC   C4B20230  27.879   0.515   7.650
 5787POPC   NC320231  34.542  23.734   9.450
 5787POPC   PO420232  34.537  23.681   9.150
 5787POPC   GL120233  34.545  23.690   8.850
 5787POPC   GL220234  34.736  23.757   8.850
 5787POPC   C1A20235  34.526  23.721   8.550
 5787POPC   D2A20236  34.582  23.722   8.250
 5787POPC   C3A20237  34.588  23.678   7.950
 5787POPC   C4A20238  34.605  23.749   7.650
 5787POPC   C1B20239  34.853  23.784   8.550
 5787POPC   C2B20240  34.842  23.761   8.250
 5787POPC   C3B20241  34.834  23.738   7.950
 5787POPC   C4B20242  34.804  23.773   7.650
 5788POPC   NC320243  36.127   3.502   9.450
 5788POPC   PO420244  36.177   3.527   9.150
 5788POPC   GL120245  36.166   3.563   8.850
 5788POPC   GL220246  36.028   3.476   8.850
 5788POPC   C1A20247  36.133   3.546   8.550
 5788POPC   D2A20248  36.168   3.548   8.250
 5788POPC   C3A20249  36.134   3.495   7.950
 5788POPC   C4A20250  36.084   3.492   7.650
 5788POPC   C1B20251  35.964   3.379   8.550
 5788POPC   C2B20252  35.987   3.319   8.250
 5788POPC   C3B20253  35.939   3.329   7.950
 5788POPC   C4B20254  35.992   3.324   7.650
 5789POPC   NC320255  31.498  38.487   9.450
 5789POPC   PO420256  31.476  38.409   9.150
 5789POPC   GL120257  31.487  38.450   8.850
 5789POPC   GL220258  31.507  38.622   8.850
 5789POPC   C1A20259  31.489  38.418   8.550
 5789POPC   D2A20260  31.465  38.463   8.250
 5789POPC   C3A20261  31.475  38.431   7.950
 5789POPC   C4A20262  31.498  38.456   7.650
 5789POPC   C1B20263  31.506  38.749   8.550
 5789POPC   C2B20264  31.510  38.754   8.250
 5789POPC   C3B20265  31.506  38.725   7.950
 5789POPC   C4B20266  31.449  38.745   7.650
 5790POPC   NC320267  41.575  25.302   9.450
 5790POPC   PO420268  41.603  25.266   9.150
 5790POPC   GL120269  41.568  25.279   8.850
 5790POPC   GL220270  41.441  25.132   8.850
 5790POPC   C1A20271  41.593  25.244   8.550
 5790POPC   D2A20272  41.510  25.305   8.250
 5790POPC   C3A20273  41.589  25.262   7.950
 5790POPC   C4A20274  41.573  25.272   7.650
 5790POPC   C1B20275  41.417  25.036   8.550
 5790POPC   C2B20276  41.367  25.111   8.250
 5790POPC   C3B20277  41.355  25.075   7.950
 5790POPC   C4B20278  41.424  25.052   7.650
 5791POPC   NC320279  36.160  23.694   9.450
 5791POPC   PO420280  36.118  23.733   9.150
 5791POPC   GL120281  36.167  23.665   8.850
 5791POPC   GL220282  36.036  23.591   8.850
 5791POPC   C1A20283  36.147  23.694   8.550
 5791POPC   D2A20284  36.100  23.751   8.250
 5791POPC   C3A20285  36.150  23.677   7.950
 5791POPC   C4A20286  36.111  23.714   7.650
 5791POPC   C1B20287  35.989  23.513   8.550
 5791POPC   C2B20288  35.986  23.505   8.250
 5791POPC   C3B20289  36.032  23.525   7.950
 5791POPC   C4B20290  35.995  23.545   7.650
 5792POPC   NC320291  18.279   9.707   9.450
 5792POPC   PO420292  18.251   9.769   9.150
 5792POPC   GL120293  18.252   9.787   8.850
 5792POPC   GL220294  18.255   9.677   8.850
 5792POPC   C1A20295  18.261   9.782   8.550
 5792POPC   D2A20296  18.249   9.751   8.250
 5792POPC   C3A20297  18.304   9.737   7.950
 5792POPC   C4A20298  18.243   9.781   7.650
 5792POPC   C1B20299  18.180   9.487   8.550
 5792POPC   C2B20300  18.238   9.522   8.250
 5792POPC   C3B20301  18.206   9.491   7.950
 5792POPC   C4B20302  18.171   9.542   7.650
 5793POPC   NC320303   9.003  36.096   9.450
 5793POPC   PO420304   8.942  36.119   9.150
 5793POPC   GL120305   9.013  36.118   8.850
 5793POPC   GL220306   8.880  36.162   8.850
 5793POPC   C1A20307   9.011  36.151   8.550
 5793POPC   D2A20308   9.010  36.164   8.250
 5793POPC   C3A20309   8.979  36.153   7.950
 5793POPC   C4A20310   8.960  36.162   7.650
 5793POPC   C1B20311   8.742  36.182   8.550
 5793POPC   C2B20312   8.751  36.169   8.250
 5793POPC   C3B20313   8.691  36.201   7.950
 5793POPC   C4B20314   8.698  36.189   7.650
 5794POPC   NC320315   5.096  27.620   9.450
 5794POPC   PO420316   5.105  27.642   9.150
 5794POPC   GL120317   5.056  27.562   8.850
 5794POPC   GL220318   5.118  27.503   8.850
 5794POPC   C1A20319   5.079  27.634   8.550
 5794POPC   D2A20320   5.095  27.626   8.250
 5794POPC   C3A20321   5.059  27.633   7.950
 5794POPC   C4A20322   5.097  27.612   7.650
 5794POPC   C1B20323   5.114  27.317   8.550
 5794POPC   C2B20324   5.139  27.392   8.250
 5794POPC   C3B20325   5.110  27.341   7.950
 5794POPC   C4B20326   5.140  27.298   7.650
 5795POPC   NC320327  15.189   3.560   9.450
 5795POPC   PO420328  15.208   3.572   9.150
 5795POPC   GL120329  15.142   3.581   8.850
 5795POPC   GL220330  15.139   3.656   8.850
 5795POPC   C1A20331  15.198   3.548   8.550
 5795POPC   D2A20332  15.174   3.549   8.250
 5795POPC   C3A20333  15.193   3.567   7.950
 5795POPC   C4A20334  15.176   3.568   7.650
 5795POPC   C1B20335  15.051   3.781   8.550
 5795POPC   C2B20336  15.008   3.781   8.250
 5795POPC   C3B20337  14.974   3.757   7.950
 5795POPC   C4B20338  15.011   3.699   7.650
 5796POPC   NC320339  36.146  14.412   9.450
 5796POPC   PO420340  36.157  14.363   9.150
 5796POPC   GL120341  36.102  14.407   8.850
 5796POPC   GL220342  36.236  14.332   8.850
 5796POPC   C1A20343  36.115  14.431   8.550
 5796POPC   D2A20344  36.081  14.366   8.250
 5796POPC   C3A20345  36.171  14.452   7.950
 5796POPC   C4A20346  36.126  14.413   7.650
 5796POPC   C1B20347  36.330  14.312   8.550
 5796POPC   C2B20348  36.357  14.268   8.250
 5796POPC   C3B20349  36.387  14.253   7.950
 5796POPC   C4B20350  36.365  14.311   7.650
 5797POPC   NC320351  40.048  28.400   9.450
 5797POPC   PO420352  40.025  28.407   9.150
 5797POPC   GL120353  40.044  28.344   8.850
 5797POPC   GL220354  39.947  28.414   8.850
 5797POPC   C1A20355  40.043  28.377   8.550
 5797POPC   D2A20356  40.030  28.324   8.250
 5797POPC   C3A20357  39.979  28.352   7.950
 5797POPC   C4A20358  40.054  28.363   7.650
 5797POPC   C1B20359  39.821  28.509   8.550
 5797POPC   C2B20360  39.839  28.533   8.250
 5797POPC   C3B20361  39.830  28.533   7.950
 5797POPC   C4B20362  39.850  28.513   7.650
 5798POPC   NC320363  25.223  32.983   9.450
 5798POPC   PO420364  25.277  33.011   9.150
 5798POPC   GL120365  25.224  33.029   8.850
 5798POPC   GL220366  25.130  33.119   8.850
 5798POPC   C1A20367  25.235  32.986   8.550
 5798POPC   D2A20368  25.256  32.997   8.250
 5798POPC   C3A20369  25.220  33.071   7.950
 5798POPC   C4A20370  25.243  33.067   7.650
 5798POPC   C1B20371  25.044  33.221   8.550
 5798POPC   C2B20372  25.108  33.199   8.250
 5798POPC   C3B20373  25.085  33.213   7.950
 5798POPC   C4B20374  25.064  33.154   7.650
 5799POPC   NC320375   8.195  33.067   9.450
 5799POPC   PO420376   8.226  32.978   9.150
 5799POPC   GL120377   8.170  33.051   8.850
 5799POPC   GL220378   8.082  33.090   8.850
 5799POPC   C1A20379   8.148  32.982   8.550
 5799POPC   D2A20380   8.167  33.054   8.250
 5799POPC   C3A20381   8.165  33.058   7.950
 5799POPC   C4A20382   8.164  33.021   7.650
 5799POPC   C1B20383   7.917  33.093   8.550
 5799POPC   C2B20384   7.917  33.018   8.250
 5799POPC   C3B20385   7.900  33.084   7.950
 5799POPC   C4B20386   7.918  33.027   7.650
 5800POPC   NC320387  28.344  34.539   9.450
 5800POPC   PO420388  28.406  34.607   9.150
 5800POPC   GL120389  28.354  34.594   8.850
 5800POPC   GL220390  28.441  34.456   8.850
 5800POPC   C1A20391  28.375  34.543   8.550
 5800POPC   D2A20392  28.327  34.554   8.250
 5800POPC   C3A20393  28.364  34.619   7.950
 5800POPC   C4A20394  28.322  34.531   7.650
 5800POPC   C1B20395  28.585  34.459   8.550
 5800POPC   C2B20396  28.589  34.408   8.250
 5800POPC   C3B20397  28.611  34.389   7.950
 5800POPC   C4B20398  28.541  34.387   7.650
 5801POPC   NC320399  38.476  25.234   9.450
 5801POPC   PO420400  38.487  25.297   9.150
 5801POPC   GL120401  38.444  25.230   8.850
 5801POPC   GL220402  38.459  25.163   8.850
 5801POPC   C1A20403  38.414  25.294   8.550
 5801POPC   D2A20404  38.453  25.252   8.250
 5801POPC   C3A20405  38.412  25.284   7.950
 5801POPC   C4A20406  38.482  25.251   7.650
 5801POPC   C1B20407  38.341  25.055   8.550
 5801POPC   C2B20408  38.339  25.032   8.250
 5801POPC   C3B20409  38.344  25.072   7.950
 5801POPC   C4B20410  38.420  24.997   7.650
 5802POPC   NC320411  10.497   4.303   9.450
 5802POPC   PO420412  10.543   4.305   9.150
 5802POPC   GL120413  10.517   4.327   8.850
 5802POPC   GL220414  10.655   4.305   8.850
 5802POPC   C1A20415  10.489   4.283   8.550
 5802POPC   D2A20416  10.538   4.291   8.250
 5802POPC   C3A20417  10.550   4.296   7.950
 5802POPC   C4A20418  10.567   4.295   7.650
 5802POPC   C1B20419  10.810   4.328   8.550
 5802POPC   C2B20420  10.763   4.295   8.250
 5802POPC   C3B20421  10.752   4.347   7.950
 5802POPC   C4B20422  10.790   4.349   7.650
 5803POPC   NC320423  25.308  19.077   9.450
 5803POPC   PO420424  25.287  19.107   9.150
 5803POPC   GL120425  25.251  19.058   8.850
 5803POPC   GL220426  25.176  19.123   8.850
 5803POPC   C1A20427  25.242  19.020   8.550
 5803POPC   D2A20428  25.246  19.067   8.250
 5803POPC   C3A20429  25.231  19.063   7.950
 5803POPC   C4A20430  25.247  19.074   7.650
 5803POPC   C1B20431  25.077  19.112   8.550
 5803POPC   C2B20432  25.058  19.095   8.250
 5803POPC   C3B20433  25.006  19.138   7.950
 5803POPC   C4B20434  25.030  19.113   7.650
 5804POPC   NC320435  41.586  15.162   9.450
 5804POPC   PO420436  41.563  15.164   9.150
 5804POPC   GL120437  41.588  15.218   8.850
 5804POPC   GL220438  41.462  15.330   8.850
 5804POPC   C1A20439  41.588  15.221   8.550
 5804POPC   D2A20440  41.601  15.199   8.250
 5804POPC   C3A20441  41.569  15.177   7.950
 5804POPC   C4A20442  41.528  15.153   7.650
 5804POPC   C1B20443  41.468  15.408   8.550
 5804POPC   C2B20444  41.467  15.400   8.250
 5804POPC   C3B20445  41.425  15.416   7.950
 5804POPC   C4B20446  41.450  15.345   7.650
 5805POPC   NC320447  26.775   1.187   9.450
 5805POPC   PO420448  26.842   1.254   9.150
 5805POPC   GL120449  26.819   1.166   8.850
 5805POPC   GL220450  26.754   1.367   8.850
 5805POPC   C1A20451  26.776   1.262   8.550
 5805POPC   D2A20452  26.837   1.233   8.250
 5805POPC   C3A20453  26.858   1.211   7.950
 5805POPC   C4A20454  26.770   1.184   7.650
 5805POPC   C1B20455  26.801   1.436   8.550
 5805POPC   C2B20456  26.781   1.493   8.250
 5805POPC   C3B20457  26.797   1.474   7.950
 5805POPC   C4B20458  26.780   1.430   7.650
 5806POPC   NC320459  15.228  16.752   9.450
 5806POPC   PO420460  15.180  16.700   9.150
 5806POPC   GL120461  15.191  16.717   8.850
 5806POPC   GL220462  15.240  16.675   8.850
 5806POPC   C1A20463  15.225  16.682   8.550
 5806POPC   D2A20464  15.228  16.743   8.250
 5806POPC   C3A20465  15.147  16.771   7.950
 5806POPC   C4A20466  15.172  16.727   7.650
 5806POPC   C1B20467  15.394  16.601   8.550
 5806POPC   C2B20468  15.429  16.637   8.250
 5806POPC   C3B20469  15.407  16.612   7.950
 5806POPC   C4B20470  15.373  16.607   7.650
 5807POPC   NC320471  26.827  36.916   9.450
 5807POPC   PO420472  26.821  36.926   9.150
 5807POPC   GL120473  26.845  36.946   8.850
 5807POPC   GL220474  26.898  36.773   8.850
 5807POPC   C1A20475  26.832  36.939   8.550
 5807POPC   D2A20476  26.812  36.920   8.250
 5807POPC   C3A20477  26.786  36.862   7.950
 5807POPC   C4A20478  26.810  36.889   7.650
 5807POPC   C1B20479  26.984  36.756   8.550
 5807POPC   C2B20480  26.999  36.716   8.250
 5807POPC   C3B20481  27.023  36.743   7.950
 5807POPC   C4B20482  27.018  36.684   7.650
 5808POPC   NC320483   8.235  36.900   9.450
 5808POPC   PO420484   8.237  36.869   9.150
 5808POPC   GL120485   8.216  36.861   8.850
 5808POPC   GL220486   8.089  36.762   8.850
 5808POPC   C1A20487   8.192  36.872   8.550
 5808POPC   D2A20488   8.160  36.885   8.250
 5808POPC   C3A20489   8.160  36.945   7.950
 5808POPC   C4A20490   8.192  36.873   7.650
 5808POPC   C1B20491   8.023  36.671   8.550
 5808POPC   C2B20492   8.058  36.681   8.250
 5808POPC   C3B20493   8.062  36.734   7.950
 5808POPC   C4B20494   8.059  36.731   7.650
 5809POPC   NC320495  40.744  43.906   9.450
 5809POPC   PO420496  40.787  43.875   9.150
 5809POPC   GL120497  40.788  43.927   8.850
 5809POPC   GL220498  40.759  43.985   8.850
 5809POPC   C1A20499  40.752  43.851   8.550
 5809POPC   D2A20500  40.746  43.915   8.250
 5809POPC   C3A20501  40.764  43.905   7.950
 5809POPC   C4A20502  40.827  43.877   7.650
 5809POPC   C1B20503  40.734  44.090   8.550
 5809POPC   C2B20504  40.759  44.108   8.250
 5809POPC   C3B20505  40.780  44.109   7.950
 5809POPC   C4B20506  40.701  44.176   7.650
 5810POPC   NC320507  10.534  29.891   9.450
 5810POPC   PO420508  10.532  29.917   9.150
 5810POPC   GL120509  10.499  29.945   8.850
 5810POPC   GL220510  10.656  29.884   8.850
 5810POPC   C1A20511  10.484  29.900   8.550
 5810POPC   D2A20512  10.543  29.959   8.250
 5810POPC   C3A20513  10.487  29.905   7.950
 5810POPC   C4A20514  10.513  29.943   7.650
 5810POPC   C1B20515  10.719  29.815   8.550
 5810POPC   C2B20516  10.732  29.810   8.250
 5810POPC   C3B20517  10.799  29.831   7.950
 5810POPC   C4B20518  10.760  29.853   7.650
 5811POPC   NC320519  33.766  29.161   9.450
 5811POPC   PO420520  33.813  29.166   9.150
 5811POPC   GL120521  33.825  29.144   8.850
 5811POPC   GL220522  33.872  29.204   8.850
 5811POPC   C1A20523  33.778  29.101   8.550
 5811POPC   D2A20524  33.802  29.184   8.250
 5811POPC   C3A20525  33.820  29.141   7.950
 5811POPC   C4A20526  33.756  29.104   7.650
 5811POPC   C1B20527  34.032  29.248   8.550
 5811POPC   C2B20528  34.047  29.250   8.250
 5811POPC   C3B20529  33.960  29.338   7.950
 5811POPC   C4B20530  34.005  29.334   7.650
 5812POPC   NC320531  34.531  44.622   9.450
 5812POPC   PO420532  34.591  44.618   9.150
 5812POPC   GL120533  34.617  44.626   8.850
 5812POPC   GL220534  34.599  44.543   8.850
 5812POPC   C1A20535  34.578  44.638   8.550
 5812POPC   D2A20536  34.586  44.659   8.250
 5812POPC   C3A20537  34.539  44.616   7.950
 5812POPC   C4A20538  34.571  44.710   7.650
 5812POPC   C1B20539  34.617  44.427   8.550
 5812POPC   C2B20540  34.627  44.406   8.250
 5812POPC   C3B20541  34.632  44.374   7.950
 5812POPC   C4B20542  34.624  44.423   7.650
 5813POPC   NC320543  23.741  37.712   9.450
 5813POPC   PO420544  23.745  37.661   9.150
 5813POPC   GL120545  23.733  37.674   8.850
 5813POPC   GL220546  23.823  37.545   8.850
 5813POPC   C1A20547  23.683  37.666   8.550
 5813POPC   D2A20548  23.721  37.652   8.250
 5813POPC   C3A20549  23.665  37.691   7.950
 5813POPC   C4A20550  23.722  37.725   7.650
 5813POPC   C1B20551  23.875  37.507   8.550
 5813POPC   C2B20552  23.859  37.466   8.250
 5813POPC   C3B20553  23.881  37.504   7.950
 5813POPC   C4B20554  23.855  37.525   7.650
 5814POPC   NC320555  16.002  24.455   9.450
 5814POPC   PO420556  15.953  24.521   9.150
 5814POPC   GL120557  15.999  24.513   8.850
 5814POPC   GL220558  15.846  24.438   8.850
 5814POPC   C1A20559  15.969  24.500   8.550
 5814POPC   D2A20560  15.961  24.457   8.250
 5814POPC   C3A20561  15.979  24.459   7.950
 5814POPC   C4A20562  15.969  24.497   7.650
 5814POPC   C1B20563  15.810  24.268   8.550
 5814POPC   C2B20564  15.796  24.330   8.250
 5814POPC   C3B20565  15.854  24.253   7.950
 5814POPC   C4B20566  15.802  24.290   7.650
 5815POPC   NC320567  43.129  27.594   9.450
 5815POPC   PO420568  43.157  27.595   9.150
 5815POPC   GL120569  43.150  27.562   8.850
 5815POPC   GL220570  43.220  27.551   8.850
 5815POPC   C1A20571  43.126  27.632   8.550
 5815POPC   D2A20572  43.138  27.632   8.250
 5815POPC   C3A20573  43.135  27.635   7.950
 5815POPC   C4A20574  43.091  27.583   7.650
 5815POPC   C1B20575  43.284  27.403   8.550
 5815POPC   C2B20576  43.247  27.445   8.250
 5815POPC   C3B20577  43.266  27.398   7.950
 5815POPC   C4B20578  43.264  27.431   7.650
 5816POPC   NC320579   5.855  30.687   9.450
 5816POPC   PO420580   5.835  30.737   9.150
 5816POPC   GL120581   5.910  30.672   8.850
 5816POPC   GL220582   5.851  30.563   8.850
 5816POPC   C1A20583   5.910  30.703   8.550
 5816POPC   D2A20584   5.897  30.661   8.250
 5816POPC   C3A20585   5.859  30.700   7.950
 5816POPC   C4A20586   5.869  30.673   7.650
 5816POPC   C1B20587   5.772  30.449   8.550
 5816POPC   C2B20588   5.731  30.425   8.250
 5816POPC   C3B20589   5.743  30.453   7.950
 5816POPC   C4B20590   5.805  30.457   7.650
 5817POPC   NC320591   5.055  24.509   9.450
 5817POPC   PO420592   5.076  24.530   9.150
 5817POPC   GL120593   5.091  24.497   8.850
 5817POPC   GL220594   5.061  24.404   8.850
 5817POPC   C1A20595   5.075  24.481   8.550
 5817POPC   D2A20596   5.110  24.517   8.250
 5817POPC   C3A20597   5.105  24.441   7.950
 5817POPC   C4A20598   5.072  24.454   7.650
 5817POPC   C1B20599   5.013  24.243   8.550
 5817POPC   C2B20600   4.970  24.222   8.250
 5817POPC   C3B20601   4.991  24.297   7.950
 5817POPC   C4B20602   5.019  24.292   7.650
 5818POPC   NC320603  22.951  37.646   9.450
 5818POPC   PO420604  22.908  37.632   9.150
 5818POPC   GL120605  22.939  37.634   8.850
 5818POPC   GL220606  22.788  37.770   8.850
 5818POPC   C1A20607  22.891  37.692   8.550
 5818POPC   D2A20608  22.907  37.686   8.250
 5818POPC   C3A20609  22.988  37.716   7.950
 5818POPC   C4A20610  22.951  37.638   7.650
 5818POPC   C1B20611  22.754  37.817   8.550
 5818POPC   C2B20612  22.722  37.833   8.250
 5818POPC   C3B20613  22.719  37.782   7.950
 5818POPC   C4B20614  22.721  37.808   7.650
 5819POPC   NC320615  24.455  20.645   9.450
 5819POPC   PO420616  24.443  20.586   9.150
 5819POPC   GL120617  24.530  20.563   8.850
 5819POPC   GL220618  24.417  20.742   8.850
 5819POPC   C1A20619  24.454  20.601   8.550
 5819POPC   D2A20620  24.529  20.612   8.250
 5819POPC   C3A20621  24.506  20.592   7.950
 5819POPC   C4A20622  24.472  20.564   7.650
 5819POPC   C1B20623  24.337  20.777   8.550
 5819POPC   C2B20624  24.272  20.827   8.250
 5819POPC   C3B20625  24.344  20.806   7.950
 5819POPC   C4B20626  24.344  20.748   7.650
 5820POPC   NC320627  25.266   0.407   9.450
 5820POPC   PO420628  25.241   0.407   9.150
 5820POPC   GL120629  25.276   0.417   8.850
 5820POPC   GL220630  25.343   0.443   8.850
 5820POPC   C1A20631  25.243   0.411   8.550
 5820POPC   D2A20632  25.286   0.422   8.250
 5820POPC   C3A20633  25.277   0.391   7.950
 5820POPC   C4A20634  25.256   0.419   7.650
 5820POPC   C1B20635  25.559   0.464   8.550
 5820POPC   C2B20636  25.543   0.484   8.250
 5820POPC   C3B20637  25.515   0.526   7.950
 5820POPC   C4B20638  25.531   0.544   7.650
 5821POPC   NC320639  30.738  43.150   9.450
 5821POPC   PO420640  30.720  43.125   9.150
 5821POPC   GL120641  30.682  43.088   8.850
 5821POPC   GL220642  30.830  43.023   8.850
 5821POPC   C1A20643  30.687  43.120   8.550
 5821POPC   D2A20644  30.663  43.094   8.250
 5821POPC   C3A20645  30.746  43.124   7.950
 5821POPC   C4A20646  30.647  43.120   7.650
 5821POPC   C1B20647  30.843  42.909   8.550
 5821POPC   C2B20648  30.847  42.926   8.250
 5821POPC   C3B20649  30.842  42.950   7.950
 5821POPC   C4B20650  30.914  42.977   7.650
 5822POPC   NC320651  25.253  22.987   9.450
 5822POPC   PO420652  25.289  22.911   9.150
 5822POPC   GL120653  25.295  22.969   8.850
 5822POPC   GL220654  25.182  22.866   8.850
 5822POPC   C1A20655  25.282  22.949   8.550
 5822POPC   D2A20656  25.266  22.985   8.250
 5822POPC   C3A20657  25.239  22.959   7.950
 5822POPC   C4A20658  25.282  22.899   7.650
 5822POPC   C1B20659  25.119  22.783   8.550
 5822POPC   C2B20660  25.133  22.781   8.250
 5822POPC   C3B20661  25.114  22.725   7.950
 5822POPC   C4B20662  25.048  22.790   7.650
 5823POPC   NC320663  38.497  34.624   9.450
 5823POPC   PO420664  38.472  34.582   9.150
 5823POPC   GL120665  38.497  34.579   8.850
 5823POPC   GL220666  38.429  34.433   8.850
 5823POPC   C1A20667  38.444  34.586   8.550
 5823POPC   D2A20668  38.480  34.567   8.250
 5823POPC   C3A20669  38.454  34.535   7.950
 5823POPC   C4A20670  38.465  34.548   7.650
 5823POPC   C1B20671  38.357  34.370   8.550
 5823POPC   C2B20672  38.403  34.362   8.250
 5823POPC   C3B20673  38.360  34.341   7.950
 5823POPC   C4B20674  38.393  34.306   7.650
 5824POPC   NC320675  19.101  11.274   9.450
 5824POPC   PO420676  19.018  11.279   9.150
 5824POPC   GL120677  19.012  11.288   8.850
 5824POPC   GL220678  19.133  11.267   8.850
 5824POPC   C1A20679  19.060  11.318   8.550
 5824POPC   D2A20680  19.079  11.290   8.250
 5824POPC   C3A20681  19.101  11.330   7.950
 5824POPC   C4A20682  19.071  11.306   7.650
 5824POPC   C1B20683  19.298  11.179   8.550
 5824POPC   C2B20684  19.305  11.119   8.250
 5824POPC   C3B20685  19.309  11.131   7.950
 5824POPC   C4B20686  19.267  11.149   7.650
 5825POPC   NC320687   1.220  15.933   9.450
 5825POPC   PO420688   1.212  15.908   9.150
 5825POPC   GL120689   1.242  15.935   8.850
 5825POPC   GL220690   1.253  15.839   8.850
 5825POPC   C1A20691   1.233  15.984   8.550
 5825POPC   D2A20692   1.225  16.001   8.250
 5825POPC   C3A20693   1.230  15.936   7.950
 5825POPC   C4A20694   1.230  15.966   7.650
 5825POPC   C1B20695   1.326  15.754   8.550
 5825POPC   C2B20696   1.324  15.709   8.250
 5825POPC   C3B20697   1.378  15.759   7.950
 5825POPC   C4B20698   1.337  15.697   7.650
 5826POPC   NC320699  35.333  28.356   9.450
 5826POPC   PO420700  35.350  28.339   9.150
 5826POPC   GL120701  35.321  28.406   8.850
 5826POPC   GL220702  35.439  28.369   8.850
 5826POPC   C1A20703  35.389  28.387   8.550
 5826POPC   D2A20704  35.359  28.357   8.250
 5826POPC   C3A20705  35.344  28.367   7.950
 5826POPC   C4A20706  35.311  28.384   7.650
 5826POPC   C1B20707  35.621  28.370   8.550
 5826POPC   C2B20708  35.626  28.374   8.250
 5826POPC   C3B20709  35.620  28.362   7.950
 5826POPC   C4B20710  35.559  28.374   7.650
 5827POPC   NC320711  13.602  28.357   9.450
 5827POPC   PO420712  13.602  28.379   9.150
 5827POPC   GL120713  13.665  28.394   8.850
 5827POPC   GL220714  13.503  28.322   8.850
 5827POPC   C1A20715  13.579  28.355   8.550
 5827POPC   D2A20716  13.580  28.400   8.250
 5827POPC   C3A20717  13.667  28.337   7.950
 5827POPC   C4A20718  13.604  28.390   7.650
 5827POPC   C1B20719  13.494  28.206   8.550
 5827POPC   C2B20720  13.460  28.195   8.250
 5827POPC   C3B20721  13.471  28.174   7.950
 5827POPC   C4B20722  13.416  28.220   7.650
 5828POPC   NC320723   7.443  34.556   9.450
 5828POPC   PO420724   7.376  34.541   9.150
 5828POPC   GL120725   7.462  34.534   8.850
 5828POPC   GL220726   7.370  34.440   8.850
 5828POPC   C1A20727   7.413  34.589   8.550
 5828POPC   D2A20728   7.393  34.581   8.250
 5828POPC   C3A20729   7.447  34.536   7.950
 5828POPC   C4A20730   7.463  34.544   7.650
 5828POPC   C1B20731   7.364  34.283   8.550
 5828POPC   C2B20732   7.394  34.356   8.250
 5828POPC   C3B20733   7.369  34.375   7.950
 5828POPC   C4B20734   7.386  34.321   7.650
 5829POPC   NC320735  19.800  20.658   9.450
 5829POPC   PO420736  19.822  20.598   9.150
 5829POPC   GL120737  19.836  20.603   8.850
 5829POPC   GL220738  19.842  20.716   8.850
 5829POPC   C1A20739  19.834  20.639   8.550
 5829POPC   D2A20740  19.849  20.651   8.250
 5829POPC   C3A20741  19.805  20.581   7.950
 5829POPC   C4A20742  19.843  20.616   7.650
 5829POPC   C1B20743  19.816  20.854   8.550
 5829POPC   C2B20744  19.752  20.896   8.250
 5829POPC   C3B20745  19.848  20.853   7.950
 5829POPC   C4B20746  19.789  20.890   7.650
 5830POPC   NC320747  14.412  15.150   9.450
 5830POPC   PO420748  14.441  15.193   9.150
 5830POPC   GL120749  14.416  15.217   8.850
 5830POPC   GL220750  14.306  15.238   8.850
 5830POPC   C1A20751  14.370  15.197   8.550
 5830POPC   D2A20752  14.380  15.212   8.250
 5830POPC   C3A20753  14.440  15.224   7.950
 5830POPC   C4A20754  14.432  15.146   7.650
 5830POPC   C1B20755  14.135  15.250   8.550
 5830POPC   C2B20756  14.141  15.205   8.250
 5830POPC   C3B20757  14.187  15.207   7.950
 5830POPC   C4B20758  14.185  15.202   7.650
 5831POPC   NC320759  38.428  28.321   9.450
 5831POPC   PO420760  38.479  28.325   9.150
 5831POPC   GL120761  38.476  28.350   8.850
 5831POPC   GL220762  38.376  28.310   8.850
 5831POPC   C1A20763  38.433  28.416   8.550
 5831POPC   D2A20764  38.491  28.370   8.250
 5831POPC   C3A20765  38.474  28.369   7.950
 5831POPC   C4A20766  38.442  28.345   7.650
 5831POPC   C1B20767  38.339  28.183   8.550
 5831POPC   C2B20768  38.328  28.178   8.250
 5831POPC   C3B20769  38.262  28.212   7.950
 5831POPC   C4B20770  38.340  28.205   7.650
 5832POPC   NC320771  36.158  36.172   9.450
 5832POPC   PO420772  36.127  36.136   9.150
 5832POPC   GL120773  36.097  36.151   8.850
 5832POPC   GL220774  36.248  36.094   8.850
 5832POPC   C1A20775  36.164  36.119   8.550
 5832POPC   D2A20776  36.128  36.120   8.250
 5832POPC   C3A20777  36.090  36.155   7.950
 5832POPC   C4A20778  36.155  36.174   7.650
 5832POPC   C1B20779  36.348  35.970   8.550
 5832POPC   C2B20780  36.370  36.010   8.250
 5832POPC   C3B20781  36.304  35.963   7.950
 5832POPC   C4B20782  36.384  36.033   7.650
 5833POPC   NC320783  37.710  29.941   9.450
 5833POPC   PO420784  37.673  29.940   9.150
 5833POPC   GL120785  37.715  29.874   8.850
 5833POPC   GL220786  37.617  30.025   8.850
 5833POPC   C1A20787  37.705  29.912   8.550
 5833POPC   D2A20788  37.661  29.950   8.250
 5833POPC   C3A20789  37.647  29.907   7.950
 5833POPC   C4A20790  37.703  29.933   7.650
 5833POPC   C1B20791  37.490  30.044   8.550
 5833POPC   C2B20792  37.450  30.029   8.250
 5833POPC   C3B20793  37.503  30.008   7.950
 5833POPC   C4B20794  37.497  30.027   7.650
 5834POPC   NC320795   9.760   1.204   9.450
 5834POPC   PO420796   9.707   1.182   9.150
 5834POPC   GL120797   9.709   1.186   8.850
 5834POPC   GL220798   9.598   1.164   8.850
 5834POPC   C1A20799   9.733   1.177   8.550
 5834POPC   D2A20800   9.753   1.186   8.250
 5834POPC   C3A20801   9.737   1.233   7.950
 5834POPC   C4A20802   9.718   1.189   7.650
 5834POPC   C1B20803   9.517   1.085   8.550
 5834POPC   C2B20804   9.559   1.078   8.250
 5834POPC   C3B20805   9.515   1.146   7.950
 5834POPC   C4B20806   9.510   1.080   7.650
 5835POPC   NC320807  40.001   7.456   9.450
 5835POPC   PO420808  39.981   7.469   9.150
 5835POPC   GL120809  40.042   7.442   8.850
 5835POPC   GL220810  40.098   7.391   8.850
 5835POPC   C1A20811  39.961   7.374   8.550
 5835POPC   D2A20812  40.008   7.455   8.250
 5835POPC   C3A20813  40.034   7.444   7.950
 5835POPC   C4A20814  39.971   7.422   7.650
 5835POPC   C1B20815  40.264   7.359   8.550
 5835POPC   C2B20816  40.232   7.369   8.250
 5835POPC   C3B20817  40.266   7.382   7.950
 5835POPC   C4B20818  40.255   7.354   7.650
 5836POPC   NC320819  35.310  26.087   9.450
 5836POPC   PO420820  35.363  26.006   9.150
 5836POPC   GL120821  35.336  26.048   8.850
 5836POPC   GL220822  35.411  25.935   8.850
 5836POPC   C1A20823  35.369  26.091   8.550
 5836POPC   D2A20824  35.340  26.076   8.250
 5836POPC   C3A20825  35.367  26.028   7.950
 5836POPC   C4A20826  35.348  26.059   7.650
 5836POPC   C1B20827  35.422  25.842   8.550
 5836POPC   C2B20828  35.453  25.806   8.250
 5836POPC   C3B20829  35.459  25.779   7.950
 5836POPC   C4B20830  35.424  25.799   7.650
 5837POPC   NC320831  34.564  24.505   9.450
 5837POPC   PO420832  34.610  24.534   9.150
 5837POPC   GL120833  34.575  24.496   8.850
 5837POPC   GL220834  34.474  24.522   8.850
 5837POPC   C1A20835  34.602  24.468   8.550
 5837POPC   D2A20836  34.576  24.528   8.250
 5837POPC   C3A20837  34.611  24.453   7.950
 5837POPC   C4A20838  34.572  24.495   7.650
 5837POPC   C1B20839  34.293  24.435   8.550
 5837POPC   C2B20840  34.343  24.449   8.250
 5837POPC   C3B20841  34.320  24.503   7.950
 5837POPC   C4B20842  34.355  24.443   7.650
 5838POPC   NC320843  27.563  13.623   9.450
 5838POPC   PO420844  27.633  13.599   9.150
 5838POPC   GL120845  27.637  13.580   8.850
 5838POPC   GL220846  27.678  13.651   8.850
 5838POPC   C1A20847  27.617  13.653   8.550
 5838POPC   D2A20848  27.589  13.619   8.250
 5838POPC   C3A20849  27.553  13.622   7.950
 5838POPC   C4A20850  27.594  13.589   7.650
 5838POPC   C1B20851  27.817  13.713   8.550
 5838POPC   C2B20852  27.794  13.664   8.250
 5838POPC   C3B20853  27.851  13.726   7.950
 5838POPC   C4B20854  27.835  13.750   7.650
 5839POPC   NC320855  25.247  26.077   9.450
 5839POPC   PO420856  25.290  26.027   9.150
 5839POPC   GL120857  25.220  26.036   8.850
 5839POPC   GL220858  25.406  26.031   8.850
 5839POPC   C1A20859  25.235  26.042   8.550
 5839POPC   D2A20860  25.291  26.023   8.250
 5839POPC   C3A20861  25.232  26.035   7.950
 5839POPC   C4A20862  25.290  26.048   7.650
 5839POPC   C1B20863  25.529  26.084   8.550
 5839POPC   C2B20864  25.544  26.099   8.250
 5839POPC   C3B20865  25.513  26.013   7.950
 5839POPC   C4B20866  25.518  26.036   7.650
 5840POPC   NC320867  43.880  26.793   9.450
 5840POPC   PO420868  43.870  26.812   9.150
 5840POPC   GL120869  43.863  26.827   8.850
 5840POPC   GL220870  43.952  26.702   8.850
 5840POPC   C1A20871  43.899  26.795   8.550
 5840POPC   D2A20872  43.863  26.831   8.250
 5840POPC   C3A20873  43.916  26.836   7.950
 5840POPC   C4A20874  43.896  26.811   7.650
 5840POPC   C1B20875  43.965  26.541   8.550
 5840POPC   C2B20876  43.970  26.571   8.250
 5840POPC   C3B20877  43.974  26.565   7.950
 5840POPC   C4B20878  43.922  26.592   7.650
 5841POPC   NC320879   4.347   8.931   9.450
 5841POPC   PO420880   4.305   8.975   9.150
 5841POPC   GL120881   4.324   8.945   8.850
 5841POPC   GL220882   4.408   9.101   8.850
 5841POPC   C1A20883   4.335   9.010   8.550
 5841POPC   D2A20884   4.274   9.018   8.250
 5841POPC   C3A20885   4.329   8.937   7.950
 5841POPC   C4A20886   4.275   8.951   7.650
 5841POPC   C1B20887   4.520   9.089   8.550
 5841POPC   C2B20888   4.482   9.091   8.250
 5841POPC   C3B20889   4.537   9.138   7.950
 5841POPC   C4B20890   4.556   9.121   7.650
 5842POPC   NC320891   6.650   5.853   9.450
 5842POPC   PO420892   6.633   5.836   9.150
 5842POPC   GL120893   6.651   5.843   8.850
 5842POPC   GL220894   6.707   5.770   8.850
 5842POPC   C1A20895   6.694   5.877   8.550
 5842POPC   D2A20896   6.674   5.858   8.250
 5842POPC   C3A20897   6.674   5.884   7.950
 5842POPC   C4A20898   6.637   5.893   7.650
 5842POPC   C1B20899   6.815   5.677   8.550
 5842POPC   C2B20900   6.799   5.632   8.250
 5842POPC   C3B20901   6.799   5.696   7.950
 5842POPC   C4B20902   6.803   5.656   7.650
 5843POPC   NC320903  33.786  19.875   9.450
 5843POPC   PO420904  33.777  19.802   9.150
 5843POPC   GL120905  33.829  19.870   8.850
 5843POPC   GL220906  33.728  19.982   8.850
 5843POPC   C1A20907  33.796  19.811   8.550
 5843POPC   D2A20908  33.830  19.825   8.250
 5843POPC   C3A20909  33.796  19.882   7.950
 5843POPC   C4A20910  33.779  19.876   7.650
 5843POPC   C1B20911  33.692  20.106   8.550
 5843POPC   C2B20912  33.727  20.081   8.250
 5843POPC   C3B20913  33.695  20.085   7.950
 5843POPC   C4B20914  33.675  20.117   7.650
 5844POPC   NC320915  26.045  44.642   9.450
 5844POPC   PO420916  26.077  44.629   9.150
 5844POPC   GL120917  26.037  44.639   8.850
 5844POPC   GL220918  26.038  44.811   8.850
 5844POPC   C1A20919  26.027  44.652   8.550
 5844POPC   D2A20920  26.079  44.690   8.250
 5844POPC   C3A20921  26.020  44.650   7.950
 5844POPC   C4A20922  26.008  44.701   7.650
 5844POPC   C1B20923  26.018  44.927   8.550
 5844POPC   C2B20924  25.953  44.945   8.250
 5844POPC   C3B20925  26.007  44.905   7.950
 5844POPC   C4B20926  26.013  44.923   7.650
 5845POPC   NC320927  11.279   2.740   9.450
 5845POPC   PO420928  11.323   2.752   9.150
 5845POPC   GL120929  11.256   2.781   8.850
 5845POPC   GL220930  11.268   2.884   8.850
 5845POPC   C1A20931  11.313   2.726   8.550
 5845POPC   D2A20932  11.309   2.809   8.250
 5845POPC   C3A20933  11.321   2.764   7.950
 5845POPC   C4A20934  11.301   2.812   7.650
 5845POPC   C1B20935  11.186   3.019   8.550
 5845POPC   C2B20936  11.219   2.986   8.250
 5845POPC   C3B20937  11.157   2.992   7.950
 5845POPC   C4B20938  11.150   3.000   7.650
 5846POPC   NC320939   5.113  15.149   9.450
 5846POPC   PO420940   5.117  15.205   9.150
 5846POPC   GL120941   5.130  15.134   8.850
 5846POPC   GL220942   5.188  15.042   8.850
 5846POPC   C1A20943   5.048  15.216   8.550
 5846POPC   D2A20944   5.120  15.195   8.250
 5846POPC   C3A20945   5.097  15.205   7.950
 5846POPC   C4A20946   5.101  15.187   7.650
 5846POPC   C1B20947   5.210  15.019   8.550
 5846POPC   C2B20948   5.193  14.991   8.250
 5846POPC   C3B20949   5.230  14.936   7.950
 5846POPC   C4B20950   5.233  14.952   7.650
 5847POPC   NC320951  39.185  40.756   9.450
 5847POPC   PO420952  39.251  40.800   9.150
 5847POPC   GL120953  39.266  40.747   8.850
 5847POPC   GL220954  39.135  40.690   8.850
 5847POPC   C1A20955  39.234  40.781   8.550
 5847POPC   D2A20956  39.251  40.749   8.250
 5847POPC   C3A20957  39.233  40.743   7.950
 5847POPC   C4A20958  39.202  40.796   7.650
 5847POPC   C1B20959  39.021  40.661   8.550
 5847POPC   C2B20960  39.004  40.639   8.250
 5847POPC   C3B20961  39.025  40.620   7.950
 5847POPC   C4B20962  39.019  40.619   7.650
 5848POPC   NC320963  11.325  36.928   9.450
 5848POPC   PO420964  11.309  36.863   9.150
 5848POPC   GL120965  11.327  36.924   8.850
 5848POPC   GL220966  11.347  36.954   8.850
 5848POPC   C1A20967  11.272  36.892   8.550
 5848POPC   D2A20968  11.335  36.872   8.250
 5848POPC   C3A20969  11.278  36.913   7.950
 5848POPC   C4A20970  11.257  36.861   7.650
 5848POPC   C1B20971  11.483  37.134   8.550
 5848POPC   C2B20972  11.476  37.112   8.250
 5848POPC   C3B20973  11.460  37.094   7.950
 5848POPC   C4B20974  11.417  37.057   7.650
 5849POPC   NC320975  29.883  38.471   9.450
 5849POPC   PO420976  29.879  38.495   9.150
 5849POPC   GL120977  29.921  38.455   8.850
 5849POPC   GL220978  30.042  38.532   8.850
 5849POPC   C1A20979  29.875  38.470   8.550
 5849POPC   D2A20980  29.954  38.406   8.250
 5849POPC   C3A20981  29.903  38.436   7.950
 5849POPC   C4A20982  29.908  38.495   7.650
 5849POPC   C1B20983  30.110  38.561   8.550
 5849POPC   C2B20984  30.121  38.539   8.250
 5849POPC   C3B20985  30.164  38.571   7.950
 5849POPC   C4B20986  30.169  38.588   7.650
 5850POPC   NC320987  24.473   4.291   9.450
 5850POPC   PO420988  24.528   4.364   9.150
 5850POPC   GL120989  24.510   4.347   8.850
 5850POPC   GL220990  24.489   4.438   8.850
 5850POPC   C1A20991  24.454   4.351   8.550
 5850POPC   D2A20992  24.469   4.339   8.250
 5850POPC   C3A20993  24.453   4.293   7.950
 5850POPC   C4A20994  24.529   4.275   7.650
 5850POPC   C1B20995  24.519   4.605   8.550
 5850POPC   C2B20996  24.529   4.590   8.250
 5850POPC   C3B20997  24.495   4.536   7.950
 5850POPC   C4B20998  24.524   4.553   7.650
 5851POPC   NC320999  37.646   8.215   9.450
 5851POPC   PO421000  37.678   8.233   9.150
 5851POPC   GL121001  37.664   8.155   8.850
 5851POPC   GL221002  37.812   8.095   8.850
 5851POPC   C1A21003  37.651   8.154   8.550
 5851POPC   D2A21004  37.666   8.227   8.250
 5851POPC   C3A21005  37.668   8.223   7.950
 5851POPC   C4A21006  37.693   8.192   7.650
 5851POPC   C1B21007  37.896   8.048   8.550
 5851POPC   C2B21008  37.930   8.114   8.250
 5851POPC   C3B21009  37.930   8.089   7.950
 5851POPC   C4B21010  37.855   8.065   7.650
 5852POPC   NC321011   5.102  44.710   9.450
 5852POPC   PO421012   5.088  44.671   9.150
 5852POPC   GL121013   5.122  44.708   8.850
 5852POPC   GL221014   5.229  44.573   8.850
 5852POPC   C1A21015   5.066  44.681   8.550
 5852POPC   D2A21016   5.108  44.699   8.250
 5852POPC   C3A21017   5.119  44.643   7.950
 5852POPC   C4A21018   5.134  44.706   7.650
 5852POPC   C1B21019   5.293  44.557   8.550
 5852POPC   C2B21020   5.297  44.568   8.250
 5852POPC   C3B21021   5.336  44.507   7.950
 5852POPC   C4B21022   5.261  44.516   7.650
 5853POPC   NC321023  43.138  10.561   9.450
 5853POPC   PO421024  43.069  10.485   9.150
 5853POPC   GL121025  43.074  10.515   8.850
 5853POPC   GL221026  43.068  10.592   8.850
 5853POPC   C1A21027  43.141  10.518   8.550
 5853POPC   D2A21028  43.063  10.490   8.250
 5853POPC   C3A21029  43.144  10.564   7.950
 5853POPC   C4A21030  43.069  10.566   7.650
 5853POPC   C1B21031  43.008  10.770   8.550
 5853POPC   C2B21032  42.998  10.728   8.250
 5853POPC   C3B21033  43.059  10.807   7.950
 5853POPC   C4B21034  43.029  10.793   7.650
 5854POPC   NC321035  17.465  41.574   9.450
 5854POPC   PO421036  17.512  41.527   9.150
 5854POPC   GL121037  17.537  41.523   8.850
 5854POPC   GL221038  17.584  41.438   8.850
 5854POPC   C1A21039  17.524  41.546   8.550
 5854POPC   D2A21040  17.550  41.588   8.250
 5854POPC   C3A21041  17.539  41.540   7.950
 5854POPC   C4A21042  17.548  41.565   7.650
 5854POPC   C1B21043  17.706  41.389   8.550
 5854POPC   C2B21044  17.759  41.391   8.250
 5854POPC   C3B21045  17.676  41.437   7.950
 5854POPC   C4B21046  17.666  41.426   7.650
 5855POPC   NC321047   1.992  19.069   9.450
 5855POPC   PO421048   1.941  19.018   9.150
 5855POPC   GL121049   2.008  19.033   8.850
 5855POPC   GL221050   2.001  18.964   8.850
 5855POPC   C1A21051   1.990  19.094   8.550
 5855POPC   D2A21052   2.009  19.050   8.250
 5855POPC   C3A21053   2.010  19.046   7.950
 5855POPC   C4A21054   2.023  19.098   7.650
 5855POPC   C1B21055   2.078  18.845   8.550
 5855POPC   C2B21056   2.116  18.833   8.250
 5855POPC   C3B21057   2.061  18.822   7.950
 5855POPC   C4B21058   2.138  18.780   7.650
 5856POPC   NC321059  14.425   1.239   9.450
 5856POPC   PO421060  14.404   1.242   9.150
 5856POPC   GL121061  14.361   1.205   8.850
 5856POPC   GL221062  14.245   1.197   8.850
 5856POPC   C1A21063  14.438   1.168   8.550
 5856POPC   D2A21064  14.421   1.263   8.250
 5856POPC   C3A21065  14.384   1.213   7.950
 5856POPC   C4A21066  14.443   1.238   7.650
 5856POPC   C1B21067  14.227   1.104   8.550
 5856POPC   C2B21068  14.168   1.055   8.250
 5856POPC   C3B21069  14.157   1.104   7.950
 5856POPC   C4B21070  14.199   1.122   7.650
 5857POPC   NC321071  26.088  36.869   9.450
 5857POPC   PO421072  26.073  36.855   9.150
 5857POPC   GL121073  26.031  36.950   8.850
 5857POPC   GL221074  26.033  37.047   8.850
 5857POPC   C1A21075  26.006  36.857   8.550
 5857POPC   D2A21076  26.034  36.907   8.250
 5857POPC   C3A21077  26.013  36.906   7.950
 5857POPC   C4A21078  26.055  36.900   7.650
 5857POPC   C1B21079  26.007  37.157   8.550
 5857POPC   C2B21080  26.040  37.110   8.250
 5857POPC   C3B21081  26.031  37.134   7.950
 5857POPC   C4B21082  26.025  37.149   7.650
 5858POPC   NC321083  40.822  32.230   9.450
 5858POPC   PO421084  40.805  32.278   9.150
 5858POPC   GL121085  40.801  32.262   8.850
 5858POPC   GL221086  40.754  32.341   8.850
 5858POPC   C1A21087  40.811  32.204   8.550
 5858POPC   D2A21088  40.833  32.262   8.250
 5858POPC   C3A21089  40.794  32.219   7.950
 5858POPC   C4A21090  40.794  32.274   7.650
 5858POPC   C1B21091  40.682  32.512   8.550
 5858POPC   C2B21092  40.623  32.461   8.250
 5858POPC   C3B21093  40.626  32.487   7.950
 5858POPC   C4B21094  40.681  32.502   7.650
 5859POPC   NC321095   5.111   3.573   9.450
 5859POPC   PO421096   5.051   3.591   9.150
 5859POPC   GL121097   5.107   3.502   8.850
 5859POPC   GL221098   5.177   3.643   8.850
 5859POPC   C1A21099   5.103   3.561   8.550
 5859POPC   D2A21100   5.055   3.529   8.250
 5859POPC   C3A21101   5.082   3.523   7.950
 5859POPC   C4A21102   5.116   3.572   7.650
 5859POPC   C1B21103   5.319   3.707   8.550
 5859POPC   C2B21104   5.329   3.756   8.250
 5859POPC   C3B21105   5.248   3.676   7.950
 5859POPC   C4B21106   5.268   3.686   7.650
 5860POPC   NC321107  41.603  11.313   9.450
 5860POPC   PO421108  41.528  11.257   9.150
 5860POPC   GL121109  41.544  11.307   8.850
 5860POPC   GL221110  41.472  11.334   8.850
 5860POPC   C1A21111  41.527  11.316   8.550
 5860POPC   D2A21112  41.569  11.258   8.250
 5860POPC   C3A21113  41.548  11.295   7.950
 5860POPC   C4A21114  41.552  11.303   7.650
 5860POPC   C1B21115  41.326  11.470   8.550
 5860POPC   C2B21116  41.388  11.459   8.250
 5860POPC   C3B21117  41.373  11.459   7.950
 5860POPC   C4B21118  41.381  11.414   7.650
 5861POPC   NC321119   5.099  21.436   9.450
 5861POPC   PO421120   5.056  21.370   9.150
 5861POPC   GL121121   5.045  21.358   8.850
 5861POPC   GL221122   4.965  21.422   8.850
 5861POPC   C1A21123   5.045  21.361   8.550
 5861POPC   D2A21124   5.128  21.370   8.250
 5861POPC   C3A21125   5.073  21.362   7.950
 5861POPC   C4A21126   5.080  21.408   7.650
 5861POPC   C1B21127   4.836  21.539   8.550
 5861POPC   C2B21128   4.920  21.535   8.250
 5861POPC   C3B21129   4.842  21.545   7.950
 5861POPC   C4B21130   4.856  21.556   7.650
 5862POPC   NC321131  22.927  41.609   9.450
 5862POPC   PO421132  22.972  41.548   9.150
 5862POPC   GL121133  22.979  41.539   8.850
 5862POPC   GL221134  23.055  41.529   8.850
 5862POPC   C1A21135  22.916  41.511   8.550
 5862POPC   D2A21136  22.930  41.536   8.250
 5862POPC   C3A21137  22.953  41.535   7.950
 5862POPC   C4A21138  22.944  41.569   7.650
 5862POPC   C1B21139  23.195  41.466   8.550
 5862POPC   C2B21140  23.170  41.481   8.250
 5862POPC   C3B21141  23.162  41.452   7.950
 5862POPC   C4B21142  23.133  41.490   7.650
 5863POPC   NC321143   3.513  19.046   9.450
 5863POPC   PO421144   3.580  19.105   9.150
 5863POPC   GL121145   3.522  19.043   8.850
 5863POPC   GL221146   3.673  19.052   8.850
 5863POPC   C1A21147   3.492  19.012   8.550
 5863POPC   D2A21148   3.550  19.010   8.250
 5863POPC   C3A21149   3.501  19.035   7.950
 5863POPC   C4A21150   3.499  19.059   7.650
 5863POPC   C1B21151   3.825  19.097   8.550
 5863POPC   C2B21152   3.784  19.010   8.250
 5863POPC   C3B21153   3.841  19.100   7.950
 5863POPC   C4B21154   3.785  19.040   7.650
 5864POPC   NC321155  13.651  17.487   9.450
 5864POPC   PO421156  13.598  17.554   9.150
 5864POPC   GL121157  13.673  17.504   8.850
 5864POPC   GL221158  13.660  17.350   8.850
 5864POPC   C1A21159  13.635  17.529   8.550
 5864POPC   D2A21160  13.596  17.477   8.250
 5864POPC   C3A21161  13.621  17.508   7.950
 5864POPC   C4A21162  13.581  17.493   7.650
 5864POPC   C1B21163  13.758  17.293   8.550
 5864POPC   C2B21164  13.726  17.271   8.250
 5864POPC   C3B21165  13.687  17.282   7.950
 5864POPC   C4B21166  13.695  17.294   7.650
 5865POPC   NC321167   5.855  41.559   9.450
 5865POPC   PO421168   5.910  41.549   9.150
 5865POPC   GL121169   5.883  41.568   8.850
 5865POPC   GL221170   5.713  41.612   8.850
 5865POPC   C1A21171   5.846  41.563   8.550
 5865POPC   D2A21172   5.821  41.540   8.250
 5865POPC   C3A21173   5.883  41.599   7.950
 5865POPC   C4A21174   5.821  41.572   7.650
 5865POPC   C1B21175   5.618  41.564   8.550
 5865POPC   C2B21176   5.663  41.606   8.250
 5865POPC   C3B21177   5.632  41.604   7.950
 5865POPC   C4B21178   5.660  41.526   7.650
 5866POPC   NC321179  15.175  30.720   9.450
 5866POPC   PO421180  15.210  30.711   9.150
 5866POPC   GL121181  15.199  30.702   8.850
 5866POPC   GL221182  15.229  30.754   8.850
 5866POPC   C1A21183  15.186  30.730   8.550
 5866POPC   D2A21184  15.162  30.658   8.250
 5866POPC   C3A21185  15.222  30.672   7.950
 5866POPC   C4A21186  15.174  30.657   7.650
 5866POPC   C1B21187  15.368  30.862   8.550
 5866POPC   C2B21188  15.389  30.884   8.250
 5866POPC   C3B21189  15.304  30.887   7.950
 5866POPC   C4B21190  15.369  30.871   7.650
 5867POPC   NC321191  10.478   9.758   9.450
 5867POPC   PO421192  10.487   9.701   9.150
 5867POPC   GL121193  10.504   9.733   8.850
 5867POPC   GL221194  10.376   9.744   8.850
 5867POPC   C1A21195  10.559   9.794   8.550
 5867POPC   D2A21196  10.480   9.728   8.250
 5867POPC   C3A21197  10.480   9.734   7.950
 5867POPC   C4A21198  10.518   9.793   7.650
 5867POPC   C1B21199  10.237   9.719   8.550
 5867POPC   C2B21200  10.275   9.632   8.250
 5867POPC   C3B21201  10.309   9.685   7.950
 5867POPC   C4B21202  10.235   9.653   7.650
 5868POPC   NC321203  41.519   0.402   9.450
 5868POPC   PO421204  41.606   0.485   9.150
 5868POPC   GL121205  41.565   0.477   8.850
 5868POPC   GL221206  41.600   0.316   8.850
 5868POPC   C1A21207  41.546   0.472   8.550
 5868POPC   D2A21208  41.590   0.484   8.250
 5868POPC   C3A21209  41.572   0.457   7.950
 5868POPC   C4A21210  41.592   0.396   7.650
 5868POPC   C1B21211  41.608   0.215   8.550
 5868POPC   C2B21212  41.647   0.199   8.250
 5868POPC   C3B21213  41.556   0.197   7.950
 5868POPC   C4B21214  41.576   0.215   7.650
 5869POPC   NC321215  12.061  35.319   9.450
 5869POPC   PO421216  12.123  35.357   9.150
 5869POPC   GL121217  12.099  35.385   8.850
 5869POPC   GL221218  12.104  35.422   8.850
 5869POPC   C1A21219  12.075  35.359   8.550
 5869POPC   D2A21220  12.054  35.377   8.250
 5869POPC   C3A21221  12.029  35.392   7.950
 5869POPC   C4A21222  12.109  35.314   7.650
 5869POPC   C1B21223  12.125  35.575   8.550
 5869POPC   C2B21224  12.173  35.610   8.250
 5869POPC   C3B21225  12.175  35.622   7.950
 5869POPC   C4B21226  12.150  35.543   7.650
 5870POPC   NC321227  32.235  38.471   9.450
 5870POPC   PO421228  32.211  38.448   9.150
 5870POPC   GL121229  32.229  38.415   8.850
 5870POPC   GL221230  32.353  38.573   8.850
 5870POPC   C1A21231  32.220  38.490   8.550
 5870POPC   D2A21232  32.280  38.406   8.250
 5870POPC   C3A21233  32.269  38.411   7.950
 5870POPC   C4A21234  32.201  38.417   7.650
 5870POPC   C1B21235  32.436  38.655   8.550
 5870POPC   C2B21236  32.358  38.654   8.250
 5870POPC   C3B21237  32.427  38.689   7.950
 5870POPC   C4B21238  32.354  38.680   7.650
 5871POPC   NC321239  14.397  29.905   9.450
 5871POPC   PO421240  14.370  29.900   9.150
 5871POPC   GL121241  14.403  29.878   8.850
 5871POPC   GL221242  14.367  29.846   8.850
 5871POPC   C1A21243  14.451  29.876   8.550
 5871POPC   D2A21244  14.380  29.890   8.250
 5871POPC   C3A21245  14.416  29.911   7.950
 5871POPC   C4A21246  14.379  29.940   7.650
 5871POPC   C1B21247  14.226  29.743   8.550
 5871POPC   C2B21248  14.219  29.744   8.250
 5871POPC   C3B21249  14.203  29.748   7.950
 5871POPC   C4B21250  14.242  29.780   7.650
 5872POPC   NC321251   4.290  38.407   9.450
 5872POPC   PO421252   4.299  38.474   9.150
 5872POPC   GL121253   4.364  38.455   8.850
 5872POPC   GL221254   4.361  38.339   8.850
 5872POPC   C1A21255   4.301  38.425   8.550
 5872POPC   D2A21256   4.316  38.447   8.250
 5872POPC   C3A21257   4.306  38.457   7.950
 5872POPC   C4A21258   4.347  38.416   7.650
 5872POPC   C1B21259   4.478  38.303   8.550
 5872POPC   C2B21260   4.474  38.319   8.250
 5872POPC   C3B21261   4.520  38.326   7.950
 5872POPC   C4B21262   4.498  38.300   7.650
 5873POPC   NC321263  44.616  12.890   9.450
 5873POPC   PO421264  44.644  12.845   9.150
 5873POPC   GL121265  44.627  12.886   8.850
 5873POPC   GL221266  44.702  12.767   8.850
 5873POPC   C1A21267  44.686  12.869   8.550
 5873POPC   D2A21268  44.688  12.827   8.250
 5873POPC   C3A21269  44.615  12.831   7.950
 5873POPC   C4A21270  44.621  12.878   7.650
 5873POPC   C1B21271  44.751  12.643   8.550
 5873POPC   C2B21272  44.726  12.577   8.250
 5873POPC   C3B21273  44.755  12.580   7.950
 5873POPC   C4B21274  44.711  12.639   7.650
 5874POPC   NC321275  43.924  14.376   9.450
 5874POPC   PO421276  43.899  14.372   9.150
 5874POPC   GL121277  43.925  14.432   8.850
 5874POPC   GL221278  43.750  14.503   8.850
 5874POPC   C1A21279  43.843  14.356   8.550
 5874POPC   D2A21280  43.891  14.449   8.250
 5874POPC   C3A21281  43.864  14.439   7.950
 5874POPC   C4A21282  43.861  14.440   7.650
 5874POPC   C1B21283  43.734  14.623   8.550
 5874POPC   C2B21284  43.723  14.581   8.250
 5874POPC   C3B21285  43.744  14.630   7.950
 5874POPC   C4B21286  43.724  14.575   7.650
 5875POPC   NC321287  36.867  40.750   9.450
 5875POPC   PO421288  36.918  40.750   9.150
 5875POPC   GL121289  36.883  40.832   8.850
 5875POPC   GL221290  36.808  40.838   8.850
 5875POPC   C1A21291  36.950  40.733   8.550
 5875POPC   D2A21292  36.931  40.749   8.250
 5875POPC   C3A21293  36.899  40.758   7.950
 5875POPC   C4A21294  36.921  40.744   7.650
 5875POPC   C1B21295  36.674  40.932   8.550
 5875POPC   C2B21296  36.688  40.947   8.250
 5875POPC   C3B21297  36.713  40.971   7.950
 5875POPC   C4B21298  36.662  40.901   7.650
 5876POPC   NC321299  30.720  29.189   9.450
 5876POPC   PO421300  30.690  29.121   9.150
 5876POPC   GL121301  30.661  29.165   8.850
 5876POPC   GL221302  30.763  29.284   8.850
 5876POPC   C1A21303  30.718  29.123   8.550
 5876POPC   D2A21304  30.673  29.165   8.250
 5876POPC   C3A21305  30.706  29.144   7.950
 5876POPC   C4A21306  30.673  29.124   7.650
 5876POPC   C1B21307  30.737  29.353   8.550
 5876POPC   C2B21308  30.732  29.376   8.250
 5876POPC   C3B21309  30.798  29.348   7.950
 5876POPC   C4B21310  30.791  29.393   7.650
 5877POPC   NC321311  12.824   5.875   9.450
 5877POPC   PO421312  12.811   5.896   9.150
 5877POPC   GL121313  12.888   5.829   8.850
 5877POPC   GL221314  12.969   5.852   8.850
 5877POPC   C1A21315  12.858   5.864   8.550
 5877POPC   D2A21316  12.833   5.893   8.250
 5877POPC   C3A21317  12.868   5.822   7.950
 5877POPC   C4A21318  12.865   5.908   7.650
 5877POPC   C1B21319  13.112   5.885   8.550
 5877POPC   C2B21320  13.062   5.926   8.250
 5877POPC   C3B21321  13.080   5.956   7.950
 5877POPC   C4B21322  13.085   5.881   7.650
 5878POPC   NC321323  44.654   9.723   9.450
 5878POPC   PO421324  44.646   9.786   9.150
 5878POPC   GL121325  44.683   9.791   8.850
 5878POPC   GL221326  44.796   9.771   8.850
 5878POPC   C1A21327  44.637   9.795   8.550
 5878POPC   D2A21328  44.641   9.705   8.250
 5878POPC   C3A21329  44.621   9.776   7.950
 5878POPC   C4A21330  44.636   9.698   7.650
 5878POPC   C1B21331  44.930   9.851   8.550
 5878POPC   C2B21332  44.873   9.805   8.250
 5878POPC   C3B21333  44.902   9.850   7.950
 5878POPC   C4B21334  44.878   9.769   7.650
 5879POPC   NC321335  39.275  10.482   9.450
 5879POPC   PO421336  39.235  10.518   9.150
 5879POPC   GL121337  39.188  10.521   8.850
 5879POPC   GL221338  39.251  10.421   8.850
 5879POPC   C1A21339  39.216  10.508   8.550
 5879POPC   D2A21340  39.262  10.542   8.250
 5879POPC   C3A21341  39.225  10.561   7.950
 5879POPC   C4A21342  39.234  10.572   7.650
 5879POPC   C1B21343  39.346  10.307   8.550
 5879POPC   C2B21344  39.330  10.262   8.250
 5879POPC   C3B21345  39.303  10.248   7.950
 5879POPC   C4B21346  39.320  10.303   7.650
 5880POPC   NC321347  17.479  43.927   9.450
 5880POPC   PO421348  17.522  43.932   9.150
 5880POPC   GL121349  17.470  43.895   8.850
 5880POPC   GL221350  17.375  43.863   8.850
 5880POPC   C1A21351  17.529  43.887   8.550
 5880POPC   D2A21352  17.519  43.895   8.250
 5880POPC   C3A21353  17.518  43.915   7.950
 5880POPC   C4A21354  17.526  43.897   7.650
 5880POPC   C1B21355  17.289  43.712   8.550
 5880POPC   C2B21356  17.286  43.723   8.250
 5880POPC   C3B21357  17.265  43.708   7.950
 5880POPC   C4B21358  17.265  43.775   7.650
 5881POPC   NC321359  24.494  31.486   9.450
 5881POPC   PO421360  24.511  31.430   9.150
 5881POPC   GL121361  24.533  31.510   8.850
 5881POPC   GL221362  24.603  31.532   8.850
 5881POPC   C1A21363  24.533  31.517   8.550
 5881POPC   D2A21364  24.537  31.466   8.250
 5881POPC   C3A21365  24.505  31.474   7.950
 5881POPC   C4A21366  24.465  31.516   7.650
 5881POPC   C1B21367  24.672  31.586   8.550
 5881POPC   C2B21368  24.674  31.669   8.250
 5881POPC   C3B21369  24.683  31.661   7.950
 5881POPC   C4B21370  24.712  31.610   7.650
 5882POPC   NC321371  27.640  26.015   9.450
 5882POPC   PO421372  27.551  26.074   9.150
 5882POPC   GL121373  27.585  26.085   8.850
 5882POPC   GL221374  27.693  26.083   8.850
 5882POPC   C1A21375  27.597  26.029   8.550
 5882POPC   D2A21376  27.595  25.992   8.250
 5882POPC   C3A21377  27.635  26.058   7.950
 5882POPC   C4A21378  27.551  26.087   7.650
 5882POPC   C1B21379  27.856  26.167   8.550
 5882POPC   C2B21380  27.819  26.165   8.250
 5882POPC   C3B21381  27.816  26.111   7.950
 5882POPC   C4B21382  27.792  26.142   7.650
 5883POPC   NC321383   2.014   5.849   9.450
 5883POPC   PO421384   1.973   5.859   9.150
 5883POPC   GL121385   1.974   5.895   8.850
 5883POPC   GL221386   1.921   5.940   8.850
 5883POPC   C1A21387   2.008   5.826   8.550
 5883POPC   D2A21388   2.011   5.867   8.250
 5883POPC   C3A21389   2.027   5.829   7.950
 5883POPC   C4A21390   2.030   5.898   7.650
 5883POPC   C1B21391   1.874   6.138   8.550
 5883POPC   C2B21392   1.886   6.147   8.250
 5883POPC   C3B21393   1.935   6.074   7.950
 5883POPC   C4B21394   1.946   6.071   7.650
 5884POPC   NC321395  16.756   8.936   9.450
 5884POPC   PO421396  16.748   8.964   9.150
 5884POPC   GL121397  16.744   8.992   8.850
 5884POPC   GL221398  16.574   9.011   8.850
 5884POPC   C1A21399  16.749   9.022   8.550
 5884POPC   D2A21400  16.744   9.007   8.250
 5884POPC   C3A21401  16.740   8.923   7.950
 5884POPC   C4A21402  16.715   8.943   7.650
 5884POPC   C1B21403  16.471   8.939   8.550
 5884POPC   C2B21404  16.514   8.968   8.250
 5884POPC   C3B21405  16.452   8.972   7.950
 5884POPC   C4B21406  16.450   9.018   7.650
 5885POPC   NC321407  14.446  25.239   9.450
 5885POPC   PO421408  14.418  25.223   9.150
 5885POPC   GL121409  14.436  25.305   8.850
 5885POPC   GL221410  14.505  25.390   8.850
 5885POPC   C1A21411  14.432  25.256   8.550
 5885POPC   D2A21412  14.398  25.282   8.250
 5885POPC   C3A21413  14.381  25.226   7.950
 5885POPC   C4A21414  14.407  25.283   7.650
 5885POPC   C1B21415  14.555  25.407   8.550
 5885POPC   C2B21416  14.601  25.443   8.250
 5885POPC   C3B21417  14.621  25.392   7.950
 5885POPC   C4B21418  14.634  25.436   7.650
 5886POPC   NC321419  29.950  18.303   9.450
 5886POPC   PO421420  29.919  18.309   9.150
 5886POPC   GL121421  29.939  18.265   8.850
 5886POPC   GL221422  30.069  18.357   8.850
 5886POPC   C1A21423  29.913  18.244   8.550
 5886POPC   D2A21424  29.911  18.235   8.250
 5886POPC   C3A21425  29.910  18.284   7.950
 5886POPC   C4A21426  29.960  18.331   7.650
 5886POPC   C1B21427  30.196  18.342   8.550
 5886POPC   C2B21428  30.194  18.367   8.250
 5886POPC   C3B21429  30.167  18.354   7.950
 5886POPC   C4B21430  30.114  18.378   7.650
 5887POPC   NC321431  25.266  34.537   9.450
 5887POPC   PO421432  25.256  34.547   9.150
 5887POPC   GL121433  25.240  34.532   8.850
 5887POPC   GL221434  25.279  34.726   8.850
 5887POPC   C1A21435  25.243  34.573   8.550
 5887POPC   D2A21436  25.314  34.570   8.250
 5887POPC   C3A21437  25.287  34.598   7.950
 5887POPC   C4A21438  25.267  34.555   7.650
 5887POPC   C1B21439  25.279  34.850   8.550
 5887POPC   C2B21440  25.280  34.789   8.250
 5887POPC   C3B21441  25.294  34.786   7.950
 5887POPC   C4B21442  25.245  34.833   7.650
 5888POPC   NC321443  25.222  18.236   9.450
 5888POPC   PO421444  25.246  18.303   9.150
 5888POPC   GL121445  25.263  18.275   8.850
 5888POPC   GL221446  25.137  18.188   8.850
 5888POPC   C1A21447  25.283  18.318   8.550
 5888POPC   D2A21448  25.255  18.305   8.250
 5888POPC   C3A21449  25.221  18.236   7.950
 5888POPC   C4A21450  25.234  18.319   7.650
 5888POPC   C1B21451  25.057  18.067   8.550
 5888POPC   C2B21452  25.071  18.123   8.250
 5888POPC   C3B21453  25.133  18.083   7.950
 5888POPC   C4B21454  25.096  18.131   7.650
 5889POPC   NC321455   3.512  38.478   9.450
 5889POPC   PO421456   3.579  38.492   9.150
 5889POPC   GL121457   3.515  38.405   8.850
 5889POPC   GL221458   3.449  38.545   8.850
 5889POPC   C1A21459   3.562  38.470   8.550
 5889POPC   D2A21460   3.529  38.486   8.250
 5889POPC   C3A21461   3.528  38.417   7.950
 5889POPC   C4A21462   3.541  38.505   7.650
 5889POPC   C1B21463   3.340  38.591   8.550
 5889POPC   C2B21464   3.315  38.635   8.250
 5889POPC   C3B21465   3.308  38.552   7.950
 5889POPC   C4B21466   3.357  38.630   7.650
 5890POPC   NC321467  22.890  44.629   9.450
 5890POPC   PO421468  22.937  44.637   9.150
 5890POPC   GL121469  22.948  44.647   8.850
 5890POPC   GL221470  22.925  44.533   8.850
 5890POPC   C1A21471  22.948  44.654   8.550
 5890POPC   D2A21472  22.940  44.695   8.250
 5890POPC   C3A21473  22.958  44.651   7.950
 5890POPC   C4A21474  22.905  44.651   7.650
 5890POPC   C1B21475  22.836  44.426   8.550
 5890POPC   C2B21476  22.841  44.491   8.250
 5890POPC   C3B21477  22.846  44.479   7.950
 5890POPC   C4B21478  22.770  44.398   7.650
 5891POPC   NC321479  17.457   2.018   9.450
 5891POPC   PO421480  17.461   1.978   9.150
 5891POPC   GL121481  17.493   2.027   8.850
 5891POPC   GL221482  17.500   2.134   8.850
 5891POPC   C1A21483  17.509   1.987   8.550
 5891POPC   D2A21484  17.508   2.005   8.250
 5891POPC   C3A21485  17.493   1.956   7.950
 5891POPC   C4A21486  17.467   1.945   7.650
 5891POPC   C1B21487  17.561   2.275   8.550
 5891POPC   C2B21488  17.512   2.278   8.250
 5891POPC   C3B21489  17.529   2.187   7.950
 5891POPC   C4B21490  17.515   2.284   7.650
 5892POPC   NC321491  22.209  40.824   9.450
 5892POPC   PO421492  22.141  40.792   9.150
 5892POPC   GL121493  22.169  40.782   8.850
 5892POPC   GL221494  22.295  40.686   8.850
 5892POPC   C1A21495  22.155  40.779   8.550
 5892POPC   D2A21496  22.118  40.829   8.250
 5892POPC   C3A21497  22.119  40.738   7.950
 5892POPC   C4A21498  22.147  40.815   7.650
 5892POPC   C1B21499  22.374  40.652   8.550
 5892POPC   C2B21500  22.370  40.661   8.250
 5892POPC   C3B21501  22.391  40.648   7.950
 5892POPC   C4B21502  22.404  40.652   7.650
 5893POPC   NC321503  16.715   1.251   9.450
 5893POPC   PO421504  16.741   1.220   9.150
 5893POPC   GL121505  16.713   1.168   8.850
 5893POPC   GL221506  16.738   1.110   8.850
 5893POPC   C1A21507  16.727   1.233   8.550
 5893POPC   D2A21508  16.769   1.166   8.250
 5893POPC   C3A21509  16.687   1.186   7.950
 5893POPC   C4A21510  16.753   1.179   7.650
 5893POPC   C1B21511  16.750   0.941   8.550
 5893POPC   C2B21512  16.746   1.014   8.250
 5893POPC   C3B21513  16.765   0.961   7.950
 5893POPC   C4B21514  16.713   0.969   7.650
 5894POPC   NC321515  17.459  44.711   9.450
 5894POPC   PO421516  17.480  44.643   9.150
 5894POPC   GL121517  17.545  44.637   8.850
 5894POPC   GL221518  17.448  44.679   8.850
 5894POPC   C1A21519  17.504  44.627   8.550
 5894POPC   D2A21520  17.508  44.649   8.250
 5894POPC   C3A21521  17.548  44.635   7.950
 5894POPC   C4A21522  17.515  44.690   7.650
 5894POPC   C1B21523  17.330  44.777   8.550
 5894POPC   C2B21524  17.244  44.808   8.250
 5894POPC   C3B21525  17.274  44.741   7.950
 5894POPC   C4B21526  17.260  44.826   7.650
 5895POPC   NC321527  38.476  32.255   9.450
 5895POPC   PO421528  38.424  32.203   9.150
 5895POPC   GL121529  38.455  32.290   8.850
 5895POPC   GL221530  38.409  32.311   8.850
 5895POPC   C1A21531  38.436  32.260   8.550
 5895POPC   D2A21532  38.413  32.219   8.250
 5895POPC   C3A21533  38.490  32.236   7.950
 5895POPC   C4A21534  38.432  32.211   7.650
 5895POPC   C1B21535  38.310  32.461   8.550
 5895POPC   C2B21536  38.258  32.461   8.250
 5895POPC   C3B21537  38.299  32.394   7.950
 5895POPC   C4B21538  38.301  32.431   7.650
 5896POPC   NC321539  35.388  26.772   9.450
 5896POPC   PO421540  35.354  26.779   9.150
 5896POPC   GL121541  35.395  26.827   8.850
 5896POPC   GL221542  35.400  26.965   8.850
 5896POPC   C1A21543  35.309  26.812   8.550
 5896POPC   D2A21544  35.356  26.811   8.250
 5896POPC   C3A21545  35.376  26.797   7.950
 5896POPC   C4A21546  35.311  26.837   7.650
 5896POPC   C1B21547  35.323  27.062   8.550
 5896POPC   C2B21548  35.384  27.106   8.250
 5896POPC   C3B21549  35.379  27.113   7.950
 5896POPC   C4B21550  35.318  27.068   7.650
 5897POPC   NC321551  26.773  12.834   9.450
 5897POPC   PO421552  26.841  12.889   9.150
 5897POPC   GL121553  26.818  12.830   8.850
 5897POPC   GL221554  26.680  12.796   8.850
 5897POPC   C1A21555  26.790  12.879   8.550
 5897POPC   D2A21556  26.772  12.815   8.250
 5897POPC   C3A21557  26.860  12.884   7.950
 5897POPC   C4A21558  26.826  12.845   7.650
 5897POPC   C1B21559  26.554  12.763   8.550
 5897POPC   C2B21560  26.609  12.767   8.250
 5897POPC   C3B21561  26.651  12.721   7.950
 5897POPC   C4B21562  26.649  12.760   7.650
 5898POPC   NC321563   5.821  35.381   9.450
 5898POPC   PO421564   5.896  35.336   9.150
 5898POPC   GL121565   5.822  35.350   8.850
 5898POPC   GL221566   6.012  35.327   8.850
 5898POPC   C1A21567   5.857  35.394   8.550
 5898POPC   D2A21568   5.851  35.341   8.250
 5898POPC   C3A21569   5.849  35.324   7.950
 5898POPC   C4A21570   5.888  35.391   7.650
 5898POPC   C1B21571   6.066  35.227   8.550
 5898POPC   C2B21572   6.030  35.227   8.250
 5898POPC   C3B21573   6.069  35.178   7.950
 5898POPC   C4B21574   6.077  35.200   7.650
 5899POPC   NC321575   3.530   9.773   9.450
 5899POPC   PO421576   3.512   9.778   9.150
 5899POPC   GL121577   3.586   9.777   8.850
 5899POPC   GL221578   3.600   9.660   8.850
 5899POPC   C1A21579   3.517   9.757   8.550
 5899POPC   D2A21580   3.581   9.768   8.250
 5899POPC   C3A21581   3.567   9.700   7.950
 5899POPC   C4A21582   3.554   9.773   7.650
 5899POPC   C1B21583   3.610   9.533   8.550
 5899POPC   C2B21584   3.647   9.497   8.250
 5899POPC   C3B21585   3.585   9.500   7.950
 5899POPC   C4B21586   3.623   9.535   7.650
 5900POPC   NC321587  33.828  36.166   9.450
 5900POPC   PO421588  33.840  36.106   9.150
 5900POPC   GL121589  33.811  36.103   8.850
 5900POPC   GL221590  33.930  36.200   8.850
 5900POPC   C1A21591  33.779  36.088   8.550
 5900POPC   D2A21592  33.798  36.152   8.250
 5900POPC   C3A21593  33.764  36.131   7.950
 5900POPC   C4A21594  33.784  36.110   7.650
 5900POPC   C1B21595  34.039  36.234   8.550
 5900POPC   C2B21596  33.970  36.311   8.250
 5900POPC   C3B21597  33.991  36.317   7.950
 5900POPC   C4B21598  34.031  36.307   7.650
 5901POPC   NC321599  32.235  34.590   9.450
 5901POPC   PO421600  32.229  34.576   9.150
 5901POPC   GL121601  32.211  34.592   8.850
 5901POPC   GL221602  32.091  34.563   8.850
 5901POPC   C1A21603  32.296  34.535   8.550
 5901POPC   D2A21604  32.228  34.592   8.250
 5901POPC   C3A21605  32.222  34.587   7.950
 5901POPC   C4A21606  32.219  34.545   7.650
 5901POPC   C1B21607  32.002  34.614   8.550
 5901POPC   C2B21608  31.988  34.653   8.250
 5901POPC   C3B21609  31.967  34.654   7.950
 5901POPC   C4B21610  32.001  34.680   7.650
 5902POPC   NC321611  14.400   0.429   9.450
 5902POPC   PO421612  14.433   0.424   9.150
 5902POPC   GL121613  14.422   0.444   8.850
 5902POPC   GL221614  14.331   0.507   8.850
 5902POPC   C1A21615  14.389   0.462   8.550
 5902POPC   D2A21616  14.451   0.449   8.250
 5902POPC   C3A21617  14.408   0.483   7.950
 5902POPC   C4A21618  14.359   0.454   7.650
 5902POPC   C1B21619  14.225   0.573   8.550
 5902POPC   C2B21620  14.198   0.572   8.250
 5902POPC   C3B21621  14.206   0.580   7.950
 5902POPC   C4B21622  14.190   0.617   7.650
 5903POPC   NC321623  28.354  33.832   9.450
 5903POPC   PO421624  28.389  33.838   9.150
 5903POPC   GL121625  28.401  33.842   8.850
 5903POPC   GL221626  28.400  33.630   8.850
 5903POPC   C1A21627  28.363  33.767   8.550
 5903POPC   D2A21628  28.377  33.791   8.250
 5903POPC   C3A21629  28.399  33.828   7.950
 5903POPC   C4A21630  28.353  33.847   7.650
 5903POPC   C1B21631  28.362  33.514   8.550
 5903POPC   C2B21632  28.359  33.541   8.250
 5903POPC   C3B21633  28.420  33.581   7.950
 5903POPC   C4B21634  28.336  33.525   7.650
 5904POPC   NC321635   9.749  32.986   9.450
 5904POPC   PO421636   9.754  33.001   9.150
 5904POPC   GL121637   9.789  33.063   8.850
 5904POPC   GL221638   9.826  32.893   8.850
 5904POPC   C1A21639   9.733  33.074   8.550
 5904POPC   D2A21640   9.745  32.986   8.250
 5904POPC   C3A21641   9.793  33.011   7.950
 5904POPC   C4A21642   9.733  33.060   7.650
 5904POPC   C1B21643   9.843  32.791   8.550
 5904POPC   C2B21644   9.812  32.815   8.250
 5904POPC   C3B21645   9.859  32.800   7.950
 5904POPC   C4B21646   9.874  32.836   7.650
 5905POPC   NC321647  19.078  24.516   9.450
 5905POPC   PO421648  19.079  24.472   9.150
 5905POPC   GL121649  19.053  24.466   8.850
 5905POPC   GL221650  19.062  24.586   8.850
 5905POPC   C1A21651  19.087  24.477   8.550
 5905POPC   D2A21652  19.080  24.462   8.250
 5905POPC   C3A21653  19.012  24.461   7.950
 5905POPC   C4A21654  19.091  24.495   7.650
 5905POPC   C1B21655  19.186  24.679   8.550
 5905POPC   C2B21656  19.176  24.749   8.250
 5905POPC   C3B21657  19.096  24.735   7.950
 5905POPC   C4B21658  19.143  24.759   7.650
 5906POPC   NC321659   5.871  11.314   9.450
 5906POPC   PO421660   5.877  11.277   9.150
 5906POPC   GL121661   5.903  11.337   8.850
 5906POPC   GL221662   5.860  11.191   8.850
 5906POPC   C1A21663   5.833  11.254   8.550
 5906POPC   D2A21664   5.913  11.285   8.250
 5906POPC   C3A21665   5.847  11.278   7.950
 5906POPC   C4A21666   5.859  11.322   7.650
 5906POPC   C1B21667   5.873  11.064   8.550
 5906POPC   C2B21668   5.857  11.010   8.250
 5906POPC   C3B21669   5.874  11.071   7.950
 5906POPC   C4B21670   5.856  11.071   7.650
 5907POPC   NC321671  35.341  17.510   9.450
 5907POPC   PO421672  35.330  17.461   9.150
 5907POPC   GL121673  35.304  17.537   8.850
 5907POPC   GL221674  35.423  17.354   8.850
 5907POPC   C1A21675  35.347  17.540   8.550
 5907POPC   D2A21676  35.347  17.529   8.250
 5907POPC   C3A21677  35.306  17.539   7.950
 5907POPC   C4A21678  35.306  17.482   7.650
 5907POPC   C1B21679  35.456  17.235   8.550
 5907POPC   C2B21680  35.414  17.318   8.250
 5907POPC   C3B21681  35.475  17.299   7.950
 5907POPC   C4B21682  35.446  17.237   7.650
 5908POPC   NC321683  26.025  22.969   9.450
 5908POPC   PO421684  26.056  22.980   9.150
 5908POPC   GL121685  26.033  22.949   8.850
 5908POPC   GL221686  25.918  22.868   8.850
 5908POPC   C1A21687  26.069  22.953   8.550
 5908POPC   D2A21688  26.012  22.920   8.250
 5908POPC   C3A21689  26.090  22.919   7.950
 5908POPC   C4A21690  26.049  22.958   7.650
 5908POPC   C1B21691  25.853  22.819   8.550
 5908POPC   C2B21692  25.813  22.860   8.250
 5908POPC   C3B21693  25.819  22.877   7.950
 5908POPC   C4B21694  25.797  22.857   7.650
 5909POPC   NC321695  21.367  10.522   9.450
 5909POPC   PO421696  21.392  10.569   9.150
 5909POPC   GL121697  21.359  10.534   8.850
 5909POPC   GL221698  21.315  10.545   8.850
 5909POPC   C1A21699  21.434  10.483   8.550
 5909POPC   D2A21700  21.370  10.554   8.250
 5909POPC   C3A21701  21.376  10.567   7.950
 5909POPC   C4A21702  21.350  10.552   7.650
 5909POPC   C1B21703  21.202  10.670   8.550
 5909POPC   C2B21704  21.141  10.593   8.250
 5909POPC   C3B21705  21.190  10.678   7.950
 5909POPC   C4B21706  21.193  10.586   7.650
 5910POPC   NC321707  17.511   1.260   9.450
 5910POPC   PO421708  17.522   1.208   9.150
 5910POPC   GL121709  17.458   1.177   8.850
 5910POPC   GL221710  17.354   1.170   8.850
 5910POPC   C1A21711  17.516   1.178   8.550
 5910POPC   D2A21712  17.489   1.217   8.250
 5910POPC   C3A21713  17.488   1.263   7.950
 5910POPC   C4A21714  17.529   1.201   7.650
 5910POPC   C1B21715  17.281   1.078   8.550
 5910POPC   C2B21716  17.310   1.111   8.250
 5910POPC   C3B21717  17.252   1.169   7.950
 5910POPC   C4B21718  17.288   1.156   7.650
 5911POPC   NC321719  26.801  43.844   9.450
 5911POPC   PO421720  26.815  43.883   9.150
 5911POPC   GL121721  26.814  43.871   8.850
 5911POPC   GL221722  26.748  43.728   8.850
 5911POPC   C1A21723  26.818  43.880   8.550
 5911POPC   D2A21724  26.768  43.865   8.250
 5911POPC   C3A21725  26.844  43.843   7.950
 5911POPC   C4A21726  26.803  43.889   7.650
 5911POPC   C1B21727  26.768  43.680   8.550
 5911POPC   C2B21728  26.737  43.627   8.250
 5911POPC   C3B21729  26.729  43.617   7.950
 5911POPC   C4B21730  26.772  43.687   7.650
 5912POPC   NC321731  21.338  21.344   9.450
 5912POPC   PO421732  21.411  21.434   9.150
 5912POPC   GL121733  21.371  21.355   8.850
 5912POPC   GL221734  21.233  21.438   8.850
 5912POPC   C1A21735  21.398  21.343   8.550
 5912POPC   D2A21736  21.377  21.387   8.250
 5912POPC   C3A21737  21.356  21.348   7.950
 5912POPC   C4A21738  21.342  21.427   7.650
 5912POPC   C1B21739  21.180  21.444   8.550
 5912POPC   C2B21740  21.167  21.392   8.250
 5912POPC   C3B21741  21.122  21.416   7.950
 5912POPC   C4B21742  21.175  21.393   7.650
 5913POPC   NC321743  36.164  38.411   9.450
 5913POPC   PO421744  36.117  38.451   9.150
 5913POPC   GL121745  36.103  38.486   8.850
 5913POPC   GL221746  36.209  38.303   8.850
 5913POPC   C1A21747  36.148  38.409   8.550
 5913POPC   D2A21748  36.078  38.415   8.250
 5913POPC   C3A21749  36.115  38.503   7.950
 5913POPC   C4A21750  36.143  38.447   7.650
 5913POPC   C1B21751  36.245  38.267   8.550
 5913POPC   C2B21752  36.262  38.277   8.250
 5913POPC   C3B21753  36.242  38.249   7.950
 5913POPC   C4B21754  36.286  38.240   7.650
 5914POPC   NC321755  14.356  40.784   9.450
 5914POPC   PO421756  14.403  40.776   9.150
 5914POPC   GL121757  14.354  40.808   8.850
 5914POPC   GL221758  14.467  40.844   8.850
 5914POPC   C1A21759  14.447  40.797   8.550
 5914POPC   D2A21760  14.374  40.782   8.250
 5914POPC   C3A21761  14.379  40.742   7.950
 5914POPC   C4A21762  14.426  40.770   7.650
 5914POPC   C1B21763  14.588  40.886   8.550
 5914POPC   C2B21764  14.633  40.883   8.250
 5914POPC   C3B21765  14.638  40.932   7.950
 5914POPC   C4B21766  14.563  40.884   7.650
 5915POPC   NC321767  37.645   8.974   9.450
 5915POPC   PO421768  37.640   8.977   9.150
 5915POPC   GL121769  37.650   8.986   8.850
 5915POPC   GL221770  37.753   8.854   8.850
 5915POPC   C1A21771  37.697   8.949   8.550
 5915POPC   D2A21772  37.686   8.938   8.250
 5915POPC   C3A21773  37.675   8.944   7.950
 5915POPC   C4A21774  37.661   8.987   7.650
 5915POPC   C1B21775  37.783   8.745   8.550
 5915POPC   C2B21776  37.814   8.722   8.250
 5915POPC   C3B21777  37.773   8.800   7.950
 5915POPC   C4B21778  37.807   8.766   7.650
 5916POPC   NC321779  37.644  33.011   9.450
 5916POPC   PO421780  37.655  33.048   9.150
 5916POPC   GL121781  37.699  32.998   8.850
 5916POPC   GL221782  37.675  33.146   8.850
 5916POPC   C1A21783  37.682  32.982   8.550
 5916POPC   D2A21784  37.688  33.039   8.250
 5916POPC   C3A21785  37.664  33.022   7.950
 5916POPC   C4A21786  37.670  33.018   7.650
 5916POPC   C1B21787  37.611  33.289   8.550
 5916POPC   C2B21788  37.618  33.269   8.250
 5916POPC   C3B21789  37.579  33.295   7.950
 5916POPC   C4B21790  37.637  33.292   7.650
 5917POPC   NC321791  42.381  38.493   9.450
 5917POPC   PO421792  42.323  38.477   9.150
 5917POPC   GL121793  42.370  38.469   8.850
 5917POPC   GL221794  42.361  38.558   8.850
 5917POPC   C1A21795  42.337  38.440   8.550
 5917POPC   D2A21796  42.318  38.485   8.250
 5917POPC   C3A21797  42.370  38.472   7.950
 5917POPC   C4A21798  42.306  38.466   7.650
 5917POPC   C1B21799  42.243  38.702   8.550
 5917POPC   C2B21800  42.306  38.721   8.250
 5917POPC   C3B21801  42.306  38.749   7.950
 5917POPC   C4B21802  42.287  38.722   7.650
 5918POPC   NC321803   8.191  26.081   9.450
 5918POPC   PO421804   8.176  26.075   9.150
 5918POPC   GL121805   8.245  26.079   8.850
 5918POPC   GL221806   8.328  25.941   8.850
 5918POPC   C1A21807   8.201  26.080   8.550
 5918POPC   D2A21808   8.172  26.075   8.250
 5918POPC   C3A21809   8.194  26.028   7.950
 5918POPC   C4A21810   8.221  26.077   7.650
 5918POPC   C1B21811   8.392  25.836   8.550
 5918POPC   C2B21812   8.391  25.878   8.250
 5918POPC   C3B21813   8.362  25.895   7.950
 5918POPC   C4B21814   8.348  25.918   7.650
 5919POPC   NC321815  27.551  18.294   9.450
 5919POPC   PO421816  27.619  18.242   9.150
 5919POPC   GL121817  27.587  18.237   8.850
 5919POPC   GL221818  27.630  18.199   8.850
 5919POPC   C1A21819  27.619  18.286   8.550
 5919POPC   D2A21820  27.613  18.244   8.250
 5919POPC   C3A21821  27.620  18.286   7.950
 5919POPC   C4A21822  27.559  18.299   7.650
 5919POPC   C1B21823  27.770  18.080   8.550
 5919POPC   C2B21824  27.758  18.105   8.250
 5919POPC   C3B21825  27.733  18.103   7.950
 5919POPC   C4B21826  27.787  18.044   7.650
 5920POPC   NC321827  18.311  19.796   9.450
 5920POPC   PO421828  18.274  19.796   9.150
 5920POPC   GL121829  18.274  19.872   8.850
 5920POPC   GL221830  18.449  19.852   8.850
 5920POPC   C1A21831  18.264  19.852   8.550
 5920POPC   D2A21832  18.308  19.834   8.250
 5920POPC   C3A21833  18.279  19.870   7.950
 5920POPC   C4A21834  18.283  19.794   7.650
 5920POPC   C1B21835  18.551  19.760   8.550
 5920POPC   C2B21836  18.491  19.756   8.250
 5920POPC   C3B21837  18.559  19.802   7.950
 5920POPC   C4B21838  18.545  19.841   7.650
 5921POPC   NC321839  25.229  14.449   9.450
 5921POPC   PO421840  25.298  14.357   9.150
 5921POPC   GL121841  25.305  14.375   8.850
 5921POPC   GL221842  25.245  14.529   8.850
 5921POPC   C1A21843  25.216  14.447   8.550
 5921POPC   D2A21844  25.278  14.428   8.250
 5921POPC   C3A21845  25.228  14.424   7.950
 5921POPC   C4A21846  25.222  14.366   7.650
 5921POPC   C1B21847  25.264  14.612   8.550
 5921POPC   C2B21848  25.249  14.621   8.250
 5921POPC   C3B21849  25.258  14.618   7.950
 5921POPC   C4B21850  25.244  14.601   7.650
 5922POPC   NC321851  31.448  19.024   9.450
 5922POPC   PO421852  31.435  19.094   9.150
 5922POPC   GL121853  31.448  19.019   8.850
 5922POPC   GL221854  31.458  19.142   8.850
 5922POPC   C1A21855  31.468  19.013   8.550
 5922POPC   D2A21856  31.508  19.079   8.250
 5922POPC   C3A21857  31.517  19.039   7.950
 5922POPC   C4A21858  31.469  19.100   7.650
 5922POPC   C1B21859  31.390  19.279   8.550
 5922POPC   C2B21860  31.413  19.327   8.250
 5922POPC   C3B21861  31.426  19.308   7.950
 5922POPC   C4B21862  31.414  19.316   7.650
 5923POPC   NC321863  29.919  36.119   9.450
 5923POPC   PO421864  29.889  36.150   9.150
 5923POPC   GL121865  29.914  36.139   8.850
 5923POPC   GL221866  29.847  36.262   8.850
 5923POPC   C1A21867  29.927  36.123   8.550
 5923POPC   D2A21868  29.940  36.158   8.250
 5923POPC   C3A21869  29.949  36.094   7.950
 5923POPC   C4A21870  29.888  36.174   7.650
 5923POPC   C1B21871  29.845  36.380   8.550
 5923POPC   C2B21872  29.818  36.332   8.250
 5923POPC   C3B21873  29.837  36.304   7.950
 5923POPC   C4B21874  29.846  36.328   7.650
 5924POPC   NC321875  19.101  14.374   9.450
 5924POPC   PO421876  19.074  14.434   9.150
 5924POPC   GL121877  19.057  14.437   8.850
 5924POPC   GL221878  19.209  14.436   8.850
 5924POPC   C1A21879  19.061  14.435   8.550
 5924POPC   D2A21880  19.080  14.368   8.250
 5924POPC   C3A21881  19.011  14.422   7.950
 5924POPC   C4A21882  19.023  14.415   7.650
 5924POPC   C1B21883  19.248  14.550   8.550
 5924POPC   C2B21884  19.241  14.490   8.250
 5924POPC   C3B21885  19.314  14.526   7.950
 5924POPC   C4B21886  19.305  14.506   7.650
 5925POPC   NC321887  12.839  16.745   9.450
 5925POPC   PO421888  12.860  16.693   9.150
 5925POPC   GL121889  12.854  16.693   8.850
 5925POPC   GL221890  12.755  16.721   8.850
 5925POPC   C1A21891  12.872  16.738   8.550
 5925POPC   D2A21892  12.808  16.717   8.250
 5925POPC   C3A21893  12.803  16.737   7.950
 5925POPC   C4A21894  12.816  16.707   7.650
 5925POPC   C1B21895  12.657  16.648   8.550
 5925POPC   C2B21896  12.617  16.599   8.250
 5925POPC   C3B21897  12.621  16.655   7.950
 5925POPC   C4B21898  12.575  16.601   7.650
 5926POPC   NC321899  29.171   1.973   9.450
 5926POPC   PO421900  29.114   1.955   9.150
 5926POPC   GL121901  29.107   2.039   8.850
 5926POPC   GL221902  29.246   1.989   8.850
 5926POPC   C1A21903  29.149   2.027   8.550
 5926POPC   D2A21904  29.117   2.011   8.250
 5926POPC   C3A21905  29.177   1.960   7.950
 5926POPC   C4A21906  29.138   1.982   7.650
 5926POPC   C1B21907  29.420   2.078   8.550
 5926POPC   C2B21908  29.414   2.018   8.250
 5926POPC   C3B21909  29.391   2.077   7.950
 5926POPC   C4B21910  29.391   2.106   7.650
 5927POPC   NC321911  24.470   3.496   9.450
 5927POPC   PO421912  24.483   3.548   9.150
 5927POPC   GL121913  24.533   3.493   8.850
 5927POPC   GL221914  24.552   3.660   8.850
 5927POPC   C1A21915  24.488   3.569   8.550
 5927POPC   D2A21916  24.524   3.563   8.250
 5927POPC   C3A21917  24.471   3.560   7.950
 5927POPC   C4A21918  24.528   3.496   7.650
 5927POPC   C1B21919  24.654   3.719   8.550
 5927POPC   C2B21920  24.576   3.716   8.250
 5927POPC   C3B21921  24.614   3.797   7.950
 5927POPC   C4B21922  24.568   3.754   7.650
 5928POPC   NC321923  33.796   2.811   9.450
 5928POPC   PO421924  33.783   2.810   9.150
 5928POPC   GL121925  33.772   2.778   8.850
 5928POPC   GL221926  33.796   2.861   8.850
 5928POPC   C1A21927  33.811   2.718   8.550
 5928POPC   D2A21928  33.787   2.716   8.250
 5928POPC   C3A21929  33.800   2.742   7.950
 5928POPC   C4A21930  33.783   2.738   7.650
 5928POPC   C1B21931  33.920   2.966   8.550
 5928POPC   C2B21932  33.856   3.029   8.250
 5928POPC   C3B21933  33.924   2.958   7.950
 5928POPC   C4B21934  33.905   2.991   7.650
 5929POPC   NC321935  17.485  42.293   9.450
 5929POPC   PO421936  17.510  42.354   9.150
 5929POPC   GL121937  17.510  42.353   8.850
 5929POPC   GL221938  17.388  42.227   8.850
 5929POPC   C1A21939  17.527  42.340   8.550
 5929POPC   D2A21940  17.478  42.354   8.250
 5929POPC   C3A21941  17.514  42.359   7.950
 5929POPC   C4A21942  17.476  42.287   7.650
 5929POPC   C1B21943  17.312  42.172   8.550
 5929POPC   C2B21944  17.291  42.174   8.250
 5929POPC   C3B21945  17.280  42.205   7.950
 5929POPC   C4B21946  17.326  42.174   7.650
 5930POPC   NC321947   8.159  32.211   9.450
 5930POPC   PO421948   8.168  32.228   9.150
 5930POPC   GL121949   8.224  32.276   8.850
 5930POPC   GL221950   8.078  32.309   8.850
 5930POPC   C1A21951   8.202  32.212   8.550
 5930POPC   D2A21952   8.158  32.201   8.250
 5930POPC   C3A21953   8.182  32.257   7.950
 5930POPC   C4A21954   8.246  32.241   7.650
 5930POPC   C1B21955   8.016  32.357   8.550
 5930POPC   C2B21956   8.019  32.441   8.250
 5930POPC   C3B21957   8.000  32.405   7.950
 5930POPC   C4B21958   7.982  32.439   7.650
 5931POPC   NC321959  40.737  13.653   9.450
 5931POPC   PO421960  40.786  13.604   9.150
 5931POPC   GL121961  40.759  13.621   8.850
 5931POPC   GL221962  40.824  13.761   8.850
 5931POPC   C1A21963  40.755  13.657   8.550
 5931POPC   D2A21964  40.794  13.662   8.250
 5931POPC   C3A21965  40.778  13.606   7.950
 5931POPC   C4A21966  40.832  13.673   7.650
 5931POPC   C1B21967  40.930  13.856   8.550
 5931POPC   C2B21968  40.952  13.827   8.250
 5931POPC   C3B21969  40.907  13.774   7.950
 5931POPC   C4B21970  40.904  13.823   7.650
 5932POPC   NC321971  36.078   1.239   9.450
 5932POPC   PO421972  36.107   1.198   9.150
 5932POPC   GL121973  36.161   1.201   8.850
 5932POPC   GL221974  36.271   1.189   8.850
 5932POPC   C1A21975  36.138   1.191   8.550
 5932POPC   D2A21976  36.109   1.200   8.250
 5932POPC   C3A21977  36.093   1.225   7.950
 5932POPC   C4A21978  36.089   1.230   7.650
 5932POPC   C1B21979  36.365   1.251   8.550
 5932POPC   C2B21980  36.415   1.283   8.250
 5932POPC   C3B21981  36.381   1.263   7.950
 5932POPC   C4B21982  36.363   1.211   7.650
 5933POPC   NC321983  41.546  33.004   9.450
 5933POPC   PO421984  41.579  33.022   9.150
 5933POPC   GL121985  41.547  33.011   8.850
 5933POPC   GL221986  41.464  33.016   8.850
 5933POPC   C1A21987  41.605  33.054   8.550
 5933POPC   D2A21988  41.572  33.072   8.250
 5933POPC   C3A21989  41.605  33.072   7.950
 5933POPC   C4A21990  41.512  33.024   7.650
 5933POPC   C1B21991  41.306  33.099   8.550
 5933POPC   C2B21992  41.269  33.047   8.250
 5933POPC   C3B21993  41.321  33.094   7.950
 5933POPC   C4B21994  41.330  33.053   7.650
 5934POPC   NC321995  33.019   0.433   9.450
 5934POPC   PO421996  33.066   0.448   9.150
 5934POPC   GL121997  32.993   0.402   8.850
 5934POPC   GL221998  32.923   0.417   8.850
 5934POPC   C1A21999  33.050   0.444   8.550
 5934POPC   D2A22000  32.983   0.484   8.250
 5934POPC   C3A22001  33.049   0.450   7.950
 5934POPC   C4A22002  33.030   0.454   7.650
 5934POPC   C1B22003  32.803   0.384   8.550
 5934POPC   C2B22004  32.782   0.319   8.250
 5934POPC   C3B22005  32.786   0.323   7.950
 5934POPC   C4B22006  32.833   0.377   7.650
 5935POPC   NC322007  13.607  37.712   9.450
 5935POPC   PO422008  13.587  37.695   9.150
 5935POPC   GL122009  13.627  37.669   8.850
 5935POPC   GL222010  13.745  37.563   8.850
 5935POPC   C1A22011  13.653  37.728   8.550
 5935POPC   D2A22012  13.579  37.694   8.250
 5935POPC   C3A22013  13.620  37.700   7.950
 5935POPC   C4A22014  13.592  37.727   7.650
 5935POPC   C1B22015  13.809  37.505   8.550
 5935POPC   C2B22016  13.846  37.566   8.250
 5935POPC   C3B22017  13.872  37.543   7.950
 5935POPC   C4B22018  13.834  37.544   7.650
 5936POPC   NC322019  28.324  29.890   9.450
 5936POPC   PO422020  28.355  29.892   9.150
 5936POPC   GL122021  28.347  29.922   8.850
 5936POPC   GL222022  28.358  30.070   8.850
 5936POPC   C1A22023  28.404  29.916   8.550
 5936POPC   D2A22024  28.368  29.954   8.250
 5936POPC   C3A22025  28.371  29.882   7.950
 5936POPC   C4A22026  28.345  29.949   7.650
 5936POPC   C1B22027  28.397  30.134   8.550
 5936POPC   C2B22028  28.335  30.148   8.250
 5936POPC   C3B22029  28.434  30.203   7.950
 5936POPC   C4B22030  28.415  30.135   7.650
 5937POPC   NC322031  27.629  36.123   9.450
 5937POPC   PO422032  27.574  36.111   9.150
 5937POPC   GL122033  27.643  36.078   8.850
 5937POPC   GL222034  27.637  36.189   8.850
 5937POPC   C1A22035  27.571  36.107   8.550
 5937POPC   D2A22036  27.628  36.117   8.250
 5937POPC   C3A22037  27.642  36.143   7.950
 5937POPC   C4A22038  27.603  36.133   7.650
 5937POPC   C1B22039  27.730  36.377   8.550
 5937POPC   C2B22040  27.750  36.299   8.250
 5937POPC   C3B22041  27.695  36.374   7.950
 5937POPC   C4B22042  27.720  36.383   7.650
 5938POPC   NC322043  33.011   5.910   9.450
 5938POPC   PO422044  33.046   5.908   9.150
 5938POPC   GL122045  33.022   5.876   8.850
 5938POPC   GL222046  32.987   5.783   8.850
 5938POPC   C1A22047  32.979   5.862   8.550
 5938POPC   D2A22048  33.029   5.824   8.250
 5938POPC   C3A22049  32.983   5.916   7.950
 5938POPC   C4A22050  32.988   5.884   7.650
 5938POPC   C1B22051  32.825   5.683   8.550
 5938POPC   C2B22052  32.863   5.675   8.250
 5938POPC   C3B22053  32.876   5.643   7.950
 5938POPC   C4B22054  32.888   5.690   7.650
 5939POPC   NC322055  36.080   2.804   9.450
 5939POPC   PO422056  36.137   2.770   9.150
 5939POPC   GL122057  36.112   2.768   8.850
 5939POPC   GL222058  36.094   2.658   8.850
 5939POPC   C1A22059  36.100   2.751   8.550
 5939POPC   D2A22060  36.152   2.724   8.250
 5939POPC   C3A22061  36.125   2.782   7.950
 5939POPC   C4A22062  36.111   2.723   7.650
 5939POPC   C1B22063  36.070   2.543   8.550
 5939POPC   C2B22064  36.111   2.494   8.250
 5939POPC   C3B22065  36.025   2.494   7.950
 5939POPC   C4B22066  36.065   2.561   7.650
 5940POPC   NC322067   3.573  24.512   9.450
 5940POPC   PO422068   3.581  24.503   9.150
 5940POPC   GL122069   3.511  24.461   8.850
 5940POPC   GL222070   3.655  24.377   8.850
 5940POPC   C1A22071   3.583  24.453   8.550
 5940POPC   D2A22072   3.500  24.466   8.250
 5940POPC   C3A22073   3.506  24.449   7.950
 5940POPC   C4A22074   3.502  24.523   7.650
 5940POPC   C1B22075   3.708  24.325   8.550
 5940POPC   C2B22076   3.712  24.343   8.250
 5940POPC   C3B22077   3.772  24.291   7.950
 5940POPC   C4B22078   3.738  24.282   7.650
 5941POPC   NC322079  23.737  43.884   9.450
 5941POPC   PO422080  23.711  43.878   9.150
 5941POPC   GL122081  23.713  43.868   8.850
 5941POPC   GL222082  23.601  43.785   8.850
 5941POPC   C1A22083  23.671  43.867   8.550
 5941POPC   D2A22084  23.688  43.901   8.250
 5941POPC   C3A22085  23.673  43.876   7.950
 5941POPC   C4A22086  23.721  43.854   7.650
 5941POPC   C1B22087  23.515  43.783   8.550
 5941POPC   C2B22088  23.462  43.793   8.250
 5941POPC   C3B22089  23.467  43.737   7.950
 5941POPC   C4B22090  23.452  43.780   7.650
 5942POPC   NC322091   5.095   6.666   9.450
 5942POPC   PO422092   5.070   6.613   9.150
 5942POPC   GL122093   5.091   6.670   8.850
 5942POPC   GL222094   5.116   6.522   8.850
 5942POPC   C1A22095   5.097   6.620   8.550
 5942POPC   D2A22096   5.057   6.674   8.250
 5942POPC   C3A22097   5.141   6.627   7.950
 5942POPC   C4A22098   5.078   6.668   7.650
 5942POPC   C1B22099   5.272   6.429   8.550
 5942POPC   C2B22100   5.249   6.444   8.250
 5942POPC   C3B22101   5.199   6.478   7.950
 5942POPC   C4B22102   5.233   6.444   7.650
 5943POPC   NC322103  29.179   3.559   9.450
 5943POPC   PO422104  29.195   3.576   9.150
 5943POPC   GL122105  29.147   3.536   8.850
 5943POPC   GL222106  29.177   3.667   8.850
 5943POPC   C1A22107  29.152   3.555   8.550
 5943POPC   D2A22108  29.145   3.537   8.250
 5943POPC   C3A22109  29.113   3.560   7.950
 5943POPC   C4A22110  29.158   3.579   7.650
 5943POPC   C1B22111  29.190   3.797   8.550
 5943POPC   C2B22112  29.202   3.805   8.250
 5943POPC   C3B22113  29.195   3.803   7.950
 5943POPC   C4B22114  29.230   3.747   7.650
 5944POPC   NC322115  24.457   2.771   9.450
 5944POPC   PO422116  24.494   2.762   9.150
 5944POPC   GL122117  24.528   2.766   8.850
 5944POPC   GL222118  24.547   2.596   8.850
 5944POPC   C1A22119  24.446   2.724   8.550
 5944POPC   D2A22120  24.502   2.775   8.250
 5944POPC   C3A22121  24.449   2.774   7.950
 5944POPC   C4A22122  24.442   2.806   7.650
 5944POPC   C1B22123  24.555   2.537   8.550
 5944POPC   C2B22124  24.559   2.478   8.250
 5944POPC   C3B22125  24.573   2.506   7.950
 5944POPC   C4B22126  24.565   2.521   7.650
 5945POPC   NC322127  14.447  14.416   9.450
 5945POPC   PO422128  14.425  14.408   9.150
 5945POPC   GL122129  14.362  14.414   8.850
 5945POPC   GL222130  14.258  14.507   8.850
 5945POPC   C1A22131  14.443  14.453   8.550
 5945POPC   D2A22132  14.356  14.391   8.250
 5945POPC   C3A22133  14.375  14.381   7.950
 5945POPC   C4A22134  14.363  14.380   7.650
 5945POPC   C1B22135  14.150  14.531   8.550
 5945POPC   C2B22136  14.132  14.465   8.250
 5945POPC   C3B22137  14.155  14.469   7.950
 5945POPC   C4B22138  14.157  14.542   7.650
 5946POPC   NC322139  29.127   2.755   9.450
 5946POPC   PO422140  29.096   2.772   9.150
 5946POPC   GL122141  29.182   2.740   8.850
 5946POPC   GL222142  29.286   2.646   8.850
 5946POPC   C1A22143  29.097   2.734   8.550
 5946POPC   D2A22144  29.145   2.759   8.250
 5946POPC   C3A22145  29.099   2.799   7.950
 5946POPC   C4A22146  29.176   2.748   7.650
 5946POPC   C1B22147  29.353   2.600   8.550
 5946POPC   C2B22148  29.344   2.636   8.250
 5946POPC   C3B22149  29.397   2.591   7.950
 5946POPC   C4B22150  29.324   2.645   7.650
 5947POPC   NC322151  40.777  42.290   9.450
 5947POPC   PO422152  40.813  42.352   9.150
 5947POPC   GL122153  40.765  42.327   8.850
 5947POPC   GL222154  40.864  42.459   8.850
 5947POPC   C1A22155  40.778  42.320   8.550
 5947POPC   D2A22156  40.772  42.297   8.250
 5947POPC   C3A22157  40.791  42.290   7.950
 5947POPC   C4A22158  40.785  42.350   7.650
 5947POPC   C1B22159  40.889  42.530   8.550
 5947POPC   C2B22160  40.862  42.528   8.250
 5947POPC   C3B22161  40.899  42.614   7.950
 5947POPC   C4B22162  40.859  42.611   7.650
 5948POPC   NC322163   7.398  38.430   9.450
 5948POPC   PO422164   7.398  38.503   9.150
 5948POPC   GL122165   7.407  38.497   8.850
 5948POPC   GL222166   7.416  38.528   8.850
 5948POPC   C1A22167   7.455  38.415   8.550
 5948POPC   D2A22168   7.405  38.503   8.250
 5948POPC   C3A22169   7.381  38.487   7.950
 5948POPC   C4A22170   7.402  38.496   7.650
 5948POPC   C1B22171   7.327  38.738   8.550
 5948POPC   C2B22172   7.399  38.720   8.250
 5948POPC   C3B22173   7.413  38.725   7.950
 5948POPC   C4B22174   7.412  38.704   7.650
 5949POPC   NC322175  22.189   1.229   9.450
 5949POPC   PO422176  22.164   1.174   9.150
 5949POPC   GL122177  22.191   1.241   8.850
 5949POPC   GL222178  22.051   1.113   8.850
 5949POPC   C1A22179  22.118   1.227   8.550
 5949POPC   D2A22180  22.170   1.232   8.250
 5949POPC   C3A22181  22.129   1.247   7.950
 5949POPC   C4A22182  22.160   1.200   7.650
 5949POPC   C1B22183  21.915   1.053   8.550
 5949POPC   C2B22184  21.912   1.083   8.250
 5949POPC   C3B22185  21.989   1.102   7.950
 5949POPC   C4B22186  21.922   1.071   7.650
 5950POPC   NC322187  18.246  10.476   9.450
 5950POPC   PO422188  18.238  10.490   9.150
 5950POPC   GL122189  18.260  10.501   8.850
 5950POPC   GL222190  18.206  10.448   8.850
 5950POPC   C1A22191  18.270  10.531   8.550
 5950POPC   D2A22192  18.276  10.543   8.250
 5950POPC   C3A22193  18.283  10.535   7.950
 5950POPC   C4A22194  18.323  10.509   7.650
 5950POPC   C1B22195  18.059  10.458   8.550
 5950POPC   C2B22196  18.092  10.432   8.250
 5950POPC   C3B22197  18.027  10.397   7.950
 5950POPC   C4B22198  18.085  10.474   7.650
 5951POPC   NC322199  12.839  29.169   9.450
 5951POPC   PO422200  12.829  29.132   9.150
 5951POPC   GL122201  12.892  29.119   8.850
 5951POPC   GL222202  12.941  29.055   8.850
 5951POPC   C1A22203  12.859  29.186   8.550
 5951POPC   D2A22204  12.897  29.097   8.250
 5951POPC   C3A22205  12.857  29.133   7.950
 5951POPC   C4A22206  12.856  29.127   7.650
 5951POPC   C1B22207  13.067  29.072   8.550
 5951POPC   C2B22208  13.038  29.068   8.250
 5951POPC   C3B22209  13.088  29.056   7.950
 5951POPC   C4B22210  13.124  29.004   7.650
 5952POPC   NC322211  22.966  40.825   9.450
 5952POPC   PO422212  22.900  40.743   9.150
 5952POPC   GL122213  22.905  40.797   8.850
 5952POPC   GL222214  23.035  40.696   8.850
 5952POPC   C1A22215  22.914  40.761   8.550
 5952POPC   D2A22216  22.974  40.808   8.250
 5952POPC   C3A22217  22.918  40.792   7.950
 5952POPC   C4A22218  22.946  40.812   7.650
 5952POPC   C1B22219  23.143  40.657   8.550
 5952POPC   C2B22220  23.145  40.707   8.250
 5952POPC   C3B22221  23.184  40.692   7.950
 5952POPC   C4B22222  23.194  40.670   7.650
 5953POPC   NC322223  35.342   5.864   9.450
 5953POPC   PO422224  35.328   5.897   9.150
 5953POPC   GL122225  35.399   5.902   8.850
 5953POPC   GL222226  35.245   5.900   8.850
 5953POPC   C1A22227  35.350   5.901   8.550
 5953POPC   D2A22228  35.385   5.898   8.250
 5953POPC   C3A22229  35.304   5.840   7.950
 5953POPC   C4A22230  35.395   5.846   7.650
 5953POPC   C1B22231  35.191   5.988   8.550
 5953POPC   C2B22232  35.173   5.960   8.250
 5953POPC   C3B22233  35.159   6.020   7.950
 5953POPC   C4B22234  35.170   6.025   7.650
 5954POPC   NC322235  42.333  27.564   9.450
 5954POPC   PO422236  42.342  27.607   9.150
 5954POPC   GL122237  42.329  27.583   8.850
 5954POPC   GL222238  42.438  27.703   8.850
 5954POPC   C1A22239  42.350  27.602   8.550
 5954POPC   D2A22240  42.375  27.612   8.250
 5954POPC   C3A22241  42.313  27.637   7.950
 5954POPC   C4A22242  42.307  27.596   7.650
 5954POPC   C1B22243  42.599  27.759   8.550
 5954POPC   C2B22244  42.551  27.665   8.250
 5954POPC   C3B22245  42.577  27.717   7.950
 5954POPC   C4B22246  42.573  27.727   7.650
 5955POPC   NC322247  33.797  23.683   9.450
 5955POPC   PO422248  33.791  23.740   9.150
 5955POPC   GL122249  33.812  23.683   8.850
 5955POPC   GL222250  33.795  23.640   8.850
 5955POPC   C1A22251  33.796  23.758   8.550
 5955POPC   D2A22252  33.840  23.666   8.250
 5955POPC   C3A22253  33.838  23.721   7.950
 5955POPC   C4A22254  33.791  23.675   7.650
 5955POPC   C1B22255  33.688  23.486   8.550
 5955POPC   C2B22256  33.724  23.502   8.250
 5955POPC   C3B22257  33.669  23.464   7.950
 5955POPC   C4B22258  33.738  23.441   7.650
 5956POPC   NC322259   8.936  32.200   9.450
 5956POPC   PO422260   8.935  32.250   9.150
 5956POPC   GL122261   8.984  32.205   8.850
 5956POPC   GL222262   9.076  32.306   8.850
 5956POPC   C1A22263   8.933  32.238   8.550
 5956POPC   D2A22264   8.944  32.209   8.250
 5956POPC   C3A22265   8.935  32.272   7.950
 5956POPC   C4A22266   8.971  32.283   7.650
 5956POPC   C1B22267   9.184  32.468   8.550
 5956POPC   C2B22268   9.163  32.382   8.250
 5956POPC   C3B22269   9.148  32.468   7.950
 5956POPC   C4B22270   9.112  32.475   7.650
 5957POPC   NC322271  44.620  22.944   9.450
 5957POPC   PO422272  44.694  22.904   9.150
 5957POPC   GL122273  44.700  22.956   8.850
 5957POPC   GL222274  44.766  22.901   8.850
 5957POPC   C1A22275  44.615  22.947   8.550
 5957POPC   D2A22276  44.642  22.967   8.250
 5957POPC   C3A22277  44.618  22.908   7.950
 5957POPC   C4A22278  44.646  22.924   7.650
 5957POPC   C1B22279  44.902  22.828   8.550
 5957POPC   C2B22280  44.856  22.825   8.250
 5957POPC   C3B22281  44.886  22.817   7.950
 5957POPC   C4B22282  44.860  22.795   7.650
 5958POPC   NC322283   1.198  39.979   9.450
 5958POPC   PO422284   1.259  40.014   9.150
 5958POPC   GL122285   1.244  40.015   8.850
 5958POPC   GL222286   1.338  40.011   8.850
 5958POPC   C1A22287   1.202  40.027   8.550
 5958POPC   D2A22288   1.200  39.994   8.250
 5958POPC   C3A22289   1.241  39.973   7.950
 5958POPC   C4A22290   1.167  40.011   7.650
 5958POPC   C1B22291   1.491  39.980   8.550
 5958POPC   C2B22292   1.494  40.036   8.250
 5958POPC   C3B22293   1.466  39.957   7.950
 5958POPC   C4B22294   1.471  40.014   7.650
 5959POPC   NC322295  13.620  44.622   9.450
 5959POPC   PO422296  13.632  44.683   9.150
 5959POPC   GL122297  13.644  44.687   8.850
 5959POPC   GL222298  13.578  44.805   8.850
 5959POPC   C1A22299  13.668  44.638   8.550
 5959POPC   D2A22300  13.601  44.688   8.250
 5959POPC   C3A22301  13.626  44.646   7.950
 5959POPC   C4A22302  13.595  44.634   7.650
 5959POPC   C1B22303  13.510  44.858   8.550
 5959POPC   C2B22304  13.528  44.855   8.250
 5959POPC   C3B22305  13.497  44.896   7.950
 5959POPC   C4B22306  13.517  44.925   7.650
 5960POPC   NC322307  14.383   5.889   9.450
 5960POPC   PO422308  14.385   5.892   9.150
 5960POPC   GL122309  14.388   5.893   8.850
 5960POPC   GL222310  14.378   6.027   8.850
 5960POPC   C1A22311  14.403   5.826   8.550
 5960POPC   D2A22312  14.377   5.824   8.250
 5960POPC   C3A22313  14.424   5.854   7.950
 5960POPC   C4A22314  14.370   5.866   7.650
 5960POPC   C1B22315  14.381   6.166   8.550
 5960POPC   C2B22316  14.338   6.106   8.250
 5960POPC   C3B22317  14.361   6.153   7.950
 5960POPC   C4B22318  14.379   6.119   7.650
 5961POPC   NC322319  20.563   1.987   9.450
 5961POPC   PO422320  20.637   1.961   9.150
 5961POPC   GL122321  20.579   2.010   8.850
 5961POPC   GL222322  20.663   2.101   8.850
 5961POPC   C1A22323  20.606   1.950   8.550
 5961POPC   D2A22324  20.600   1.975   8.250
 5961POPC   C3A22325  20.588   2.005   7.950
 5961POPC   C4A22326  20.623   1.962   7.650
 5961POPC   C1B22327  20.737   2.205   8.550
 5961POPC   C2B22328  20.785   2.138   8.250
 5961POPC   C3B22329  20.816   2.215   7.950
 5961POPC   C4B22330  20.749   2.154   7.650
 5962POPC   NC322331  26.795   0.402   9.450
 5962POPC   PO422332  26.856   0.403   9.150
 5962POPC   GL122333  26.810   0.442   8.850
 5962POPC   GL222334  26.906   0.556   8.850
 5962POPC   C1A22335  26.769   0.441   8.550
 5962POPC   D2A22336  26.859   0.450   8.250
 5962POPC   C3A22337  26.850   0.466   7.950
 5962POPC   C4A22338  26.786   0.430   7.650
 5962POPC   C1B22339  26.995   0.639   8.550
 5962POPC   C2B22340  27.055   0.584   8.250
 5962POPC   C3B22341  26.970   0.604   7.950
 5962POPC   C4B22342  27.010   0.587   7.650
 5963POPC   NC322343  13.629   9.788   9.450
 5963POPC   PO422344  13.670   9.711   9.150
 5963POPC   GL122345  13.650   9.766   8.850
 5963POPC   GL222346  13.734   9.755   8.850
 5963POPC   C1A22347  13.649   9.752   8.550
 5963POPC   D2A22348  13.595   9.716   8.250
 5963POPC   C3A22349  13.662   9.717   7.950
 5963POPC   C4A22350  13.614   9.785   7.650
 5963POPC   C1B22351  13.901   9.850   8.550
 5963POPC   C2B22352  13.911   9.779   8.250
 5963POPC   C3B22353  13.853   9.818   7.950
 5963POPC   C4B22354  13.912   9.783   7.650
 5964POPC   NC322355  43.852  10.480   9.450
 5964POPC   PO422356  43.906  10.548   9.150
 5964POPC   GL122357  43.856  10.543   8.850
 5964POPC   GL222358  43.978  10.434   8.850
 5964POPC   C1A22359  43.916  10.518   8.550
 5964POPC   D2A22360  43.872  10.482   8.250
 5964POPC   C3A22361  43.911  10.559   7.950
 5964POPC   C4A22362  43.886  10.517   7.650
 5964POPC   C1B22363  44.044  10.330   8.550
 5964POPC   C2B22364  44.042  10.353   8.250
 5964POPC   C3B22365  44.041  10.328   7.950
 5964POPC   C4B22366  44.018  10.330   7.650
 5965POPC   NC322367   1.255  20.643   9.450
 5965POPC   PO422368   1.231  20.587   9.150
 5965POPC   GL122369   1.250  20.654   8.850
 5965POPC   GL222370   1.248  20.450   8.850
 5965POPC   C1A22371   1.172  20.581   8.550
 5965POPC   D2A22372   1.221  20.588   8.250
 5965POPC   C3A22373   1.253  20.599   7.950
 5965POPC   C4A22374   1.215  20.624   7.650
 5965POPC   C1B22375   1.253  20.358   8.550
 5965POPC   C2B22376   1.234  20.359   8.250
 5965POPC   C3B22377   1.275  20.320   7.950
 5965POPC   C4B22378   1.224  20.333   7.650
 5966POPC   NC322379  33.023  26.008   9.450
 5966POPC   PO422380  33.046  26.003   9.150
 5966POPC   GL122381  33.056  26.082   8.850
 5966POPC   GL222382  32.969  26.150   8.850
 5966POPC   C1A22383  32.986  26.046   8.550
 5966POPC   D2A22384  33.035  26.083   8.250
 5966POPC   C3A22385  33.017  26.058   7.950
 5966POPC   C4A22386  33.028  26.044   7.650
 5966POPC   C1B22387  32.865  26.219   8.550
 5966POPC   C2B22388  32.903  26.270   8.250
 5966POPC   C3B22389  32.849  26.264   7.950
 5966POPC   C4B22390  32.862  26.212   7.650
 5967POPC   NC322391  10.541   8.193   9.450
 5967POPC   PO422392  10.558   8.157   9.150
 5967POPC   GL122393  10.533   8.195   8.850
 5967POPC   GL222394  10.561   8.277   8.850
 5967POPC   C1A22395  10.552   8.159   8.550
 5967POPC   D2A22396  10.488   8.153   8.250
 5967POPC   C3A22397  10.561   8.236   7.950
 5967POPC   C4A22398  10.511   8.164   7.650
 5967POPC   C1B22399  10.572   8.484   8.550
 5967POPC   C2B22400  10.550   8.484   8.250
 5967POPC   C3B22401  10.576   8.437   7.950
 5967POPC   C4B22402  10.625   8.479   7.650
 5968POPC   NC322403  31.475  32.216   9.450
 5968POPC   PO422404  31.494  32.236   9.150
 5968POPC   GL122405  31.508  32.287   8.850
 5968POPC   GL222406  31.308  32.319   8.850
 5968POPC   C1A22407  31.424  32.227   8.550
 5968POPC   D2A22408  31.517  32.238   8.250
 5968POPC   C3A22409  31.457  32.276   7.950
 5968POPC   C4A22410  31.500  32.291   7.650
 5968POPC   C1B22411  31.200  32.361   8.550
 5968POPC   C2B22412  31.287  32.298   8.250
 5968POPC   C3B22413  31.273  32.322   7.950
 5968POPC   C4B22414  31.286  32.354   7.650
 5969POPC   NC322415  13.657   4.277   9.450
 5969POPC   PO422416  13.669   4.335   9.150
 5969POPC   GL122417  13.631   4.306   8.850
 5969POPC   GL222418  13.729   4.444   8.850
 5969POPC   C1A22419  13.650   4.313   8.550
 5969POPC   D2A22420  13.591   4.309   8.250
 5969POPC   C3A22421  13.656   4.280   7.950
 5969POPC   C4A22422  13.620   4.343   7.650
 5969POPC   C1B22423  13.834   4.480   8.550
 5969POPC   C2B22424  13.816   4.511   8.250
 5969POPC   C3B22425  13.808   4.481   7.950
 5969POPC   C4B22426  13.789   4.438   7.650
 5970POPC   NC322427  19.855  29.883   9.450
 5970POPC   PO422428  19.816  29.924   9.150
 5970POPC   GL122429  19.794  29.884   8.850
 5970POPC   GL222430  19.720  30.049   8.850
 5970POPC   C1A22431  19.852  29.938   8.550
 5970POPC   D2A22432  19.848  29.923   8.250
 5970POPC   C3A22433  19.822  29.898   7.950
 5970POPC   C4A22434  19.877  29.888   7.650
 5970POPC   C1B22435  19.600  30.042   8.550
 5970POPC   C2B22436  19.614  30.130   8.250
 5970POPC   C3B22437  19.633  30.066   7.950
 5970POPC   C4B22438  19.662  30.051   7.650
 5971POPC   NC322439   4.304  29.133   9.450
 5971POPC   PO422440   4.365  29.184   9.150
 5971POPC   GL122441   4.321  29.145   8.850
 5971POPC   GL222442   4.288  28.988   8.850
 5971POPC   C1A22443   4.289  29.182   8.550
 5971POPC   D2A22444   4.352  29.160   8.250
 5971POPC   C3A22445   4.295  29.189   7.950
 5971POPC   C4A22446   4.299  29.163   7.650
 5971POPC   C1B22447   4.226  28.866   8.550
 5971POPC   C2B22448   4.295  28.888   8.250
 5971POPC   C3B22449   4.205  28.885   7.950
 5971POPC   C4B22450   4.202  28.896   7.650
 5972POPC   NC322451   3.553  23.725   9.450
 5972POPC   PO422452   3.532  23.715   9.150
 5972POPC   GL122453   3.554  23.762   8.850
 5972POPC   GL222454   3.408  23.636   8.850
 5972POPC   C1A22455   3.499  23.713   8.550
 5972POPC   D2A22456   3.514  23.691   8.250
 5972POPC   C3A22457   3.530  23.672   7.950
 5972POPC   C4A22458   3.534  23.703   7.650
 5972POPC   C1B22459   3.348  23.612   8.550
 5972POPC   C2B22460   3.296  23.633   8.250
 5972POPC   C3B22461   3.289  23.618   7.950
 5972POPC   C4B22462   3.280  23.683   7.650
 5973POPC   NC322463  30.660  37.644   9.450
 5973POPC   PO422464  30.661  37.717   9.150
 5973POPC   GL122465  30.692  37.652   8.850
 5973POPC   GL222466  30.581  37.795   8.850
 5973POPC   C1A22467  30.683  37.684   8.550
 5973POPC   D2A22468  30.711  37.676   8.250
 5973POPC   C3A22469  30.739  37.634   7.950
 5973POPC   C4A22470  30.656  37.648   7.650
 5973POPC   C1B22471  30.456  37.871   8.550
 5973POPC   C2B22472  30.448  37.853   8.250
 5973POPC   C3B22473  30.523  37.863   7.950
 5973POPC   C4B22474  30.520  37.842   7.650
 5974POPC   NC322475  43.074  12.810   9.450
 5974POPC   PO422476  43.107  12.873   9.150
 5974POPC   GL122477  43.102  12.837   8.850
 5974POPC   GL222478  43.032  12.692   8.850
 5974POPC   C1A22479  43.107  12.866   8.550
 5974POPC   D2A22480  43.067  12.885   8.250
 5974POPC   C3A22481  43.061  12.842   7.950
 5974POPC   C4A22482  43.105  12.832   7.650
 5974POPC   C1B22483  43.060  12.592   8.550
 5974POPC   C2B22484  43.000  12.569   8.250
 5974POPC   C3B22485  43.019  12.657   7.950
 5974POPC   C4B22486  43.045  12.622   7.650
 5975POPC   NC322487  13.667  16.738   9.450
 5975POPC   PO422488  13.636  16.709   9.150
 5975POPC   GL122489  13.637  16.721   8.850
 5975POPC   GL222490  13.767  16.697   8.850
 5975POPC   C1A22491  13.579  16.775   8.550
 5975POPC   D2A22492  13.600  16.740   8.250
 5975POPC   C3A22493  13.644  16.754   7.950
 5975POPC   C4A22494  13.592  16.687   7.650
 5975POPC   C1B22495  13.886  16.660   8.550
 5975POPC   C2B22496  13.906  16.639   8.250
 5975POPC   C3B22497  13.846  16.704   7.950
 5975POPC   C4B22498  13.910  16.628   7.650
 5976POPC   NC322499  22.925  25.305   9.450
 5976POPC   PO422500  22.937  25.219   9.150
 5976POPC   GL122501  22.907  25.238   8.850
 5976POPC   GL222502  23.090  25.257   8.850
 5976POPC   C1A22503  22.915  25.291   8.550
 5976POPC   D2A22504  22.954  25.235   8.250
 5976POPC   C3A22505  22.914  25.274   7.950
 5976POPC   C4A22506  22.967  25.292   7.650
 5976POPC   C1B22507  23.161  25.364   8.550
 5976POPC   C2B22508  23.159  25.317   8.250
 5976POPC   C3B22509  23.140  25.347   7.950
 5976POPC   C4B22510  23.219  25.354   7.650
 5977POPC   NC322511  13.593  34.611   9.450
 5977POPC   PO422512  13.620  34.545   9.150
 5977POPC   GL122513  13.623  34.562   8.850
 5977POPC   GL222514  13.705  34.474   8.850
 5977POPC   C1A22515  13.621  34.536   8.550
 5977POPC   D2A22516  13.622  34.566   8.250
 5977POPC   C3A22517  13.665  34.543   7.950
 5977POPC   C4A22518  13.582  34.567   7.650
 5977POPC   C1B22519  13.764  34.369   8.550
 5977POPC   C2B22520  13.767  34.384   8.250
 5977POPC   C3B22521  13.813  34.373   7.950
 5977POPC   C4B22522  13.861  34.437   7.650
 5978POPC   NC322523   6.688  21.419   9.450
 5978POPC   PO422524   6.652  21.406   9.150
 5978POPC   GL122525   6.602  21.390   8.850
 5978POPC   GL222526   6.641  21.523   8.850
 5978POPC   C1A22527   6.659  21.382   8.550
 5978POPC   D2A22528   6.610  21.409   8.250
 5978POPC   C3A22529   6.640  21.342   7.950
 5978POPC   C4A22530   6.595  21.351   7.650
 5978POPC   C1B22531   6.595  21.660   8.550
 5978POPC   C2B22532   6.606  21.586   8.250
 5978POPC   C3B22533   6.570  21.583   7.950
 5978POPC   C4B22534   6.556  21.604   7.650
 5979POPC   NC322535  25.301  21.364   9.450
 5979POPC   PO422536  25.305  21.423   9.150
 5979POPC   GL122537  25.292  21.423   8.850
 5979POPC   GL222538  25.264  21.215   8.850
 5979POPC   C1A22539  25.274  21.367   8.550
 5979POPC   D2A22540  25.311  21.432   8.250
 5979POPC   C3A22541  25.300  21.354   7.950
 5979POPC   C4A22542  25.277  21.417   7.650
 5979POPC   C1B22543  25.295  21.120   8.550
 5979POPC   C2B22544  25.329  21.122   8.250
 5979POPC   C3B22545  25.350  21.150   7.950
 5979POPC   C4B22546  25.278  21.162   7.650
 5980POPC   NC322547  35.304   0.458   9.450
 5980POPC   PO422548  35.354   0.479   9.150
 5980POPC   GL122549  35.353   0.444   8.850
 5980POPC   GL222550  35.358   0.292   8.850
 5980POPC   C1A22551  35.321   0.405   8.550
 5980POPC   D2A22552  35.396   0.470   8.250
 5980POPC   C3A22553  35.371   0.399   7.950
 5980POPC   C4A22554  35.314   0.474   7.650
 5980POPC   C1B22555  35.355   0.158   8.550
 5980POPC   C2B22556  35.335   0.162   8.250
 5980POPC   C3B22557  35.342   0.168   7.950
 5980POPC   C4B22558  35.399   0.209   7.650
 5981POPC   NC322559  33.792   1.967   9.450
 5981POPC   PO422560  33.848   1.968   9.150
 5981POPC   GL122561  33.820   2.033   8.850
 5981POPC   GL222562  33.862   2.034   8.850
 5981POPC   C1A22563  33.805   2.031   8.550
 5981POPC   D2A22564  33.823   2.023   8.250
 5981POPC   C3A22565  33.794   1.943   7.950
 5981POPC   C4A22566  33.791   2.039   7.650
 5981POPC   C1B22567  33.982   2.156   8.550
 5981POPC   C2B22568  34.037   2.115   8.250
 5981POPC   C3B22569  33.994   2.100   7.950
 5981POPC   C4B22570  34.044   2.130   7.650
 5982POPC   NC322571  27.610  29.961   9.450
 5982POPC   PO422572  27.629  29.946   9.150
 5982POPC   GL122573  27.558  29.908   8.850
 5982POPC   GL222574  27.444  29.878   8.850
 5982POPC   C1A22575  27.606  29.893   8.550
 5982POPC   D2A22576  27.567  29.875   8.250
 5982POPC   C3A22577  27.559  29.887   7.950
 5982POPC   C4A22578  27.615  29.930   7.650
 5982POPC   C1B22579  27.367  29.775   8.550
 5982POPC   C2B22580  27.346  29.786   8.250
 5982POPC   C3B22581  27.362  29.746   7.950
 5982POPC   C4B22582  27.416  29.809   7.650
 5983POPC   NC322583  22.978  29.143   9.450
 5983POPC   PO422584  22.967  29.139   9.150
 5983POPC   GL122585  22.937  29.105   8.850
 5983POPC   GL222586  23.006  29.221   8.850
 5983POPC   C1A22587  22.935  29.103   8.550
 5983POPC   D2A22588  22.971  29.109   8.250
 5983POPC   C3A22589  22.939  29.166   7.950
 5983POPC   C4A22590  22.907  29.133   7.650
 5983POPC   C1B22591  23.140  29.344   8.550
 5983POPC   C2B22592  23.106  29.375   8.250
 5983POPC   C3B22593  23.078  29.311   7.950
 5983POPC   C4B22594  23.114  29.352   7.650
 5984POPC   NC322595  43.888  21.378   9.450
 5984POPC   PO422596  43.886  21.391   9.150
 5984POPC   GL122597  43.867  21.369   8.850
 5984POPC   GL222598  44.040  21.442   8.850
 5984POPC   C1A22599  43.882  21.430   8.550
 5984POPC   D2A22600  43.928  21.366   8.250
 5984POPC   C3A22601  43.856  21.429   7.950
 5984POPC   C4A22602  43.837  21.390   7.650
 5984POPC   C1B22603  44.127  21.419   8.550
 5984POPC   C2B22604  44.087  21.463   8.250
 5984POPC   C3B22605  44.116  21.429   7.950
 5984POPC   C4B22606  44.171  21.423   7.650
 5985POPC   NC322607  22.977  14.388   9.450
 5985POPC   PO422608  22.927  14.372   9.150
 5985POPC   GL122609  22.985  14.417   8.850
 5985POPC   GL222610  23.003  14.314   8.850
 5985POPC   C1A22611  22.927  14.360   8.550
 5985POPC   D2A22612  22.956  14.356   8.250
 5985POPC   C3A22613  22.919  14.451   7.950
 5985POPC   C4A22614  22.954  14.453   7.650
 5985POPC   C1B22615  23.135  14.281   8.550
 5985POPC   C2B22616  23.174  14.255   8.250
 5985POPC   C3B22617  23.128  14.206   7.950
 5985POPC   C4B22618  23.134  14.192   7.650
 5986POPC   NC322619  30.661  12.111   9.450
 5986POPC   PO422620  30.679  12.048   9.150
 5986POPC   GL122621  30.670  12.050   8.850
 5986POPC   GL222622  30.614  12.201   8.850
 5986POPC   C1A22623  30.717  12.120   8.550
 5986POPC   D2A22624  30.695  12.064   8.250
 5986POPC   C3A22625  30.666  12.103   7.950
 5986POPC   C4A22626  30.745  12.034   7.650
 5986POPC   C1B22627  30.562  12.315   8.550
 5986POPC   C2B22628  30.562  12.352   8.250
 5986POPC   C3B22629  30.551  12.328   7.950
 5986POPC   C4B22630  30.598  12.312   7.650
 5987POPC   NC322631  41.525  30.696   9.450
 5987POPC   PO422632  41.562  30.725   9.150
 5987POPC   GL122633  41.591  30.660   8.850
 5987POPC   GL222634  41.447  30.613   8.850
 5987POPC   C1A22635  41.563  30.704   8.550
 5987POPC   D2A22636  41.523  30.712   8.250
 5987POPC   C3A22637  41.558  30.684   7.950
 5987POPC   C4A22638  41.588  30.672   7.650
 5987POPC   C1B22639  41.385  30.627   8.550
 5987POPC   C2B22640  41.303  30.567   8.250
 5987POPC   C3B22641  41.337  30.582   7.950
 5987POPC   C4B22642  41.319  30.608   7.650
 5988POPC   NC322643  37.666   5.835   9.450
 5988POPC   PO422644  37.658   5.915   9.150
 5988POPC   GL122645  37.662   5.852   8.850
 5988POPC   GL222646  37.812   5.843   8.850
 5988POPC   C1A22647  37.685   5.843   8.550
 5988POPC   D2A22648  37.722   5.909   8.250
 5988POPC   C3A22649  37.695   5.903   7.950
 5988POPC   C4A22650  37.644   5.825   7.650
 5988POPC   C1B22651  37.950   5.905   8.550
 5988POPC   C2B22652  37.918   5.841   8.250
 5988POPC   C3B22653  37.916   5.840   7.950
 5988POPC   C4B22654  37.951   5.879   7.650
 5989POPC   NC322655  39.213  41.568   9.450
 5989POPC   PO422656  39.246  41.549   9.150
 5989POPC   GL122657  39.244  41.592   8.850
 5989POPC   GL222658  39.318  41.427   8.850
 5989POPC   C1A22659  39.191  41.511   8.550
 5989POPC   D2A22660  39.204  41.528   8.250
 5989POPC   C3A22661  39.230  41.576   7.950
 5989POPC   C4A22662  39.251  41.605   7.650
 5989POPC   C1B22663  39.357  41.346   8.550
 5989POPC   C2B22664  39.359  41.373   8.250
 5989POPC   C3B22665  39.427  41.375   7.950
 5989POPC   C4B22666  39.386  41.337   7.650
 5990POPC   NC322667  26.861  29.918   9.450
 5990POPC   PO422668  26.844  29.899   9.150
 5990POPC   GL122669  26.812  29.907   8.850
 5990POPC   GL222670  26.829  30.079   8.850
 5990POPC   C1A22671  26.784  29.911   8.550
 5990POPC   D2A22672  26.770  29.900   8.250
 5990POPC   C3A22673  26.775  29.942   7.950
 5990POPC   C4A22674  26.798  29.886   7.650
 5990POPC   C1B22675  26.867  30.191   8.550
 5990POPC   C2B22676  26.786  30.141   8.250
 5990POPC   C3B22677  26.864  30.196   7.950
 5990POPC   C4B22678  26.818  30.161   7.650
 5991POPC   NC322679  32.265  24.504   9.450
 5991POPC   PO422680  32.260  24.445   9.150
 5991POPC   GL122681  32.198  24.455   8.850
 5991POPC   GL222682  32.263  24.400   8.850
 5991POPC   C1A22683  32.209  24.520   8.550
 5991POPC   D2A22684  32.257  24.504   8.250
 5991POPC   C3A22685  32.260  24.452   7.950
 5991POPC   C4A22686  32.250  24.458   7.650
 5991POPC   C1B22687  32.413  24.313   8.550
 5991POPC   C2B22688  32.330  24.284   8.250
 5991POPC   C3B22689  32.332  24.286   7.950
 5991POPC   C4B22690  32.354  24.306   7.650
 5992POPC   NC322691  22.184  39.259   9.450
 5992POPC   PO422692  22.160  39.244   9.150
 5992POPC   GL122693  22.153  39.241   8.850
 5992POPC   GL222694  22.078  39.126   8.850
 5992POPC   C1A22695  22.187  39.252   8.550
 5992POPC   D2A22696  22.178  39.276   8.250
 5992POPC   C3A22697  22.120  39.230   7.950
 5992POPC   C4A22698  22.129  39.271   7.650
 5992POPC   C1B22699  22.086  38.996   8.550
 5992POPC   C2B22700  22.057  38.958   8.250
 5992POPC   C3B22701  22.085  39.002   7.950
 5992POPC   C4B22702  22.041  39.005   7.650
 5993POPC   NC322703  36.087   9.738   9.450
 5993POPC   PO422704  36.160   9.797   9.150
 5993POPC   GL122705  36.152   9.736   8.850
 5993POPC   GL222706  36.211   9.608   8.850
 5993POPC   C1A22707  36.154   9.750   8.550
 5993POPC   D2A22708  36.138   9.727   8.250
 5993POPC   C3A22709  36.091   9.746   7.950
 5993POPC   C4A22710  36.157   9.754   7.650
 5993POPC   C1B22711  36.237   9.582   8.550
 5993POPC   C2B22712  36.281   9.557   8.250
 5993POPC   C3B22713  36.260   9.536   7.950
 5993POPC   C4B22714  36.323   9.555   7.650
 5994POPC   NC322715  14.400  22.183   9.450
 5994POPC   PO422716  14.446  22.168   9.150
 5994POPC   GL122717  14.405  22.200   8.850
 5994POPC   GL222718  14.241  22.205   8.850
 5994POPC   C1A22719  14.426  22.185   8.550
 5994POPC   D2A22720  14.419  22.166   8.250
 5994POPC   C3A22721  14.427  22.162   7.950
 5994POPC   C4A22722  14.373  22.135   7.650
 5994POPC   C1B22723  14.185  22.159   8.550
 5994POPC   C2B22724  14.107  22.217   8.250
 5994POPC   C3B22725  14.187  22.238   7.950
 5994POPC   C4B22726  14.165  22.173   7.650
 5995POPC   NC322727  21.374  11.251   9.450
 5995POPC   PO422728  21.354  11.295   9.150
 5995POPC   GL122729  21.339  11.280   8.850
 5995POPC   GL222730  21.334  11.237   8.850
 5995POPC   C1A22731  21.388  11.294   8.550
 5995POPC   D2A22732  21.386  11.338   8.250
 5995POPC   C3A22733  21.364  11.301   7.950
 5995POPC   C4A22734  21.346  11.279   7.650
 5995POPC   C1B22735  21.169  11.155   8.550
 5995POPC   C2B22736  21.164  11.102   8.250
 5995POPC   C3B22737  21.241  11.133   7.950
 5995POPC   C4B22738  21.207  11.120   7.650
 5996POPC   NC322739  15.197  21.360   9.450
 5996POPC   PO422740  15.215  21.352   9.150
 5996POPC   GL122741  15.176  21.406   8.850
 5996POPC   GL222742  15.298  21.441   8.850
 5996POPC   C1A22743  15.227  21.409   8.550
 5996POPC   D2A22744  15.141  21.419   8.250
 5996POPC   C3A22745  15.173  21.367   7.950
 5996POPC   C4A22746  15.195  21.366   7.650
 5996POPC   C1B22747  15.473  21.377   8.550
 5996POPC   C2B22748  15.394  21.400   8.250
 5996POPC   C3B22749  15.419  21.379   7.950
 5996POPC   C4B22750  15.467  21.455   7.650
 5997POPC   NC322751  29.875   4.321   9.450
 5997POPC   PO422752  29.889   4.288   9.150
 5997POPC   GL122753  29.969   4.278   8.850
 5997POPC   GL222754  29.926   4.166   8.850
 5997POPC   C1A22755  29.930   4.349   8.550
 5997POPC   D2A22756  29.882   4.321   8.250
 5997POPC   C3A22757  29.883   4.298   7.950
 5997POPC   C4A22758  29.939   4.297   7.650
 5997POPC   C1B22759  29.848   4.095   8.550
 5997POPC   C2B22760  29.889   4.093   8.250
 5997POPC   C3B22761  29.905   4.097   7.950
 5997POPC   C4B22762  29.886   4.099   7.650
 5998POPC   NC322763  34.608  42.348   9.450
 5998POPC   PO422764  34.603  42.310   9.150
 5998POPC   GL122765  34.604  42.384   8.850
 5998POPC   GL222766  34.732  42.322   8.850
 5998POPC   C1A22767  34.527  42.311   8.550
 5998POPC   D2A22768  34.619  42.307   8.250
 5998POPC   C3A22769  34.564  42.311   7.950
 5998POPC   C4A22770  34.559  42.323   7.650
 5998POPC   C1B22771  34.855  42.213   8.550
 5998POPC   C2B22772  34.797  42.286   8.250
 5998POPC   C3B22773  34.855  42.211   7.950
 5998POPC   C4B22774  34.851  42.208   7.650
 5999POPC   NC322775   6.636  17.466   9.450
 5999POPC   PO422776   6.647  17.514   9.150
 5999POPC   GL122777   6.622  17.547   8.850
 5999POPC   GL222778   6.565  17.613   8.850
 5999POPC   C1A22779   6.666  17.478   8.550
 5999POPC   D2A22780   6.694  17.528   8.250
 5999POPC   C3A22781   6.644  17.495   7.950
 5999POPC   C4A22782   6.614  17.508   7.650
 5999POPC   C1B22783   6.391  17.621   8.550
 5999POPC   C2B22784   6.400  17.626   8.250
 5999POPC   C3B22785   6.453  17.665   7.950
 5999POPC   C4B22786   6.470  17.682   7.650
 6000POPC   NC322787  19.817  43.065   9.450
 6000POPC   PO422788  19.849  43.103   9.150
 6000POPC   GL122789  19.869  43.106   8.850
 6000POPC   GL222790  19.684  43.142   8.850
 6000POPC   C1A22791  19.833  43.079   8.550
 6000POPC   D2A22792  19.800  43.135   8.250
 6000POPC   C3A22793  19.847  43.133   7.950
 6000POPC   C4A22794  19.807  43.101   7.650
 6000POPC   C1B22795  19.586  43.162   8.550
 6000POPC   C2B22796  19.648  43.254   8.250
 6000POPC   C3B22797  19.573  43.191   7.950
 6000POPC   C4B22798  19.640  43.257   7.650
 6001POPC   NC322799   1.958  40.012   9.450
 6001POPC   PO422800   1.959  39.993   9.150
 6001POPC   GL122801   1.974  39.992   8.850
 6001POPC   GL222802   1.906  40.031   8.850
 6001POPC   C1A22803   1.997  40.031   8.550
 6001POPC   D2A22804   1.963  39.986   8.250
 6001POPC   C3A22805   2.018  40.012   7.950
 6001POPC   C4A22806   1.997  40.002   7.650
 6001POPC   C1B22807   1.693  40.037   8.550
 6001POPC   C2B22808   1.710  40.045   8.250
 6001POPC   C3B22809   1.784  40.027   7.950
 6001POPC   C4B22810   1.709  39.960   7.650
 6002POPC   NC322811   5.045   9.721   9.450
 6002POPC   PO422812   5.074   9.708   9.150
 6002POPC   GL122813   5.107   9.739   8.850
 6002POPC   GL222814   5.087   9.638   8.850
 6002POPC   C1A22815   5.045   9.765   8.550
 6002POPC   D2A22816   5.117   9.722   8.250
 6002POPC   C3A22817   5.120   9.783   7.950
 6002POPC   C4A22818   5.044   9.760   7.650
 6002POPC   C1B22819   5.050   9.497   8.550
 6002POPC   C2B22820   5.047   9.528   8.250
 6002POPC   C3B22821   4.980   9.484   7.950
 6002POPC   C4B22822   5.025   9.510   7.650
 6003POPC   NC322823  13.664  10.551   9.450
 6003POPC   PO422824  13.592  10.557   9.150
 6003POPC   GL122825  13.596  10.510   8.850
 6003POPC   GL222826  13.658  10.475   8.850
 6003POPC   C1A22827  13.635  10.546   8.550
 6003POPC   D2A22828  13.660  10.560   8.250
 6003POPC   C3A22829  13.677  10.546   7.950
 6003POPC   C4A22830  13.599  10.535   7.650
 6003POPC   C1B22831  13.828  10.376   8.550
 6003POPC   C2B22832  13.757  10.346   8.250
 6003POPC   C3B22833  13.798  10.362   7.950
 6003POPC   C4B22834  13.733  10.335   7.650
 6004POPC   NC322835  17.471  23.723   9.450
 6004POPC   PO422836  17.539  23.755   9.150
 6004POPC   GL122837  17.531  23.716   8.850
 6004POPC   GL222838  17.639  23.754   8.850
 6004POPC   C1A22839  17.490  23.707   8.550
 6004POPC   D2A22840  17.531  23.708   8.250
 6004POPC   C3A22841  17.459  23.695   7.950
 6004POPC   C4A22842  17.465  23.723   7.650
 6004POPC   C1B22843  17.756  23.675   8.550
 6004POPC   C2B22844  17.804  23.711   8.250
 6004POPC   C3B22845  17.766  23.749   7.950
 6004POPC   C4B22846  17.799  23.746   7.650
 6005POPC   NC322847  32.991  32.292   9.450
 6005POPC   PO422848  32.999  32.258   9.150
 6005POPC   GL122849  33.028  32.222   8.850
 6005POPC   GL222850  33.132  32.333   8.850
 6005POPC   C1A22851  32.984  32.233   8.550
 6005POPC   D2A22852  33.064  32.273   8.250
 6005POPC   C3A22853  33.053  32.269   7.950
 6005POPC   C4A22854  33.024  32.203   7.650
 6005POPC   C1B22855  33.243  32.374   8.550
 6005POPC   C2B22856  33.211  32.324   8.250
 6005POPC   C3B22857  33.244  32.324   7.950
 6005POPC   C4B22858  33.241  32.346   7.650
 6006POPC   NC322859  14.437   7.468   9.450
 6006POPC   PO422860  14.361   7.413   9.150
 6006POPC   GL122861  14.392   7.414   8.850
 6006POPC   GL222862  14.252   7.511   8.850
 6006POPC   C1A22863  14.417   7.383   8.550
 6006POPC   D2A22864  14.397   7.432   8.250
 6006POPC   C3A22865  14.431   7.381   7.950
 6006POPC   C4A22866  14.432   7.399   7.650
 6006POPC   C1B22867  14.157   7.595   8.550
 6006POPC   C2B22868  14.234   7.521   8.250
 6006POPC   C3B22869  14.164   7.538   7.950
 6006POPC   C4B22870  14.234   7.590   7.650
 6007POPC   NC322871  13.620  36.082   9.450
 6007POPC   PO422872  13.613  36.106   9.150
 6007POPC   GL122873  13.626  36.089   8.850
 6007POPC   GL222874  13.717  36.088   8.850
 6007POPC   C1A22875  13.658  36.159   8.550
 6007POPC   D2A22876  13.616  36.112   8.250
 6007POPC   C3A22877  13.645  36.143   7.950
 6007POPC   C4A22878  13.609  36.081   7.650
 6007POPC   C1B22879  13.821  35.959   8.550
 6007POPC   C2B22880  13.848  35.998   8.250
 6007POPC   C3B22881  13.797  35.954   7.950
 6007POPC   C4B22882  13.855  35.960   7.650
 6008POPC   NC322883   0.457  15.951   9.450
 6008POPC   PO422884   0.435  15.941   9.150
 6008POPC   GL122885   0.416  15.948   8.850
 6008POPC   GL222886   0.395  16.051   8.850
 6008POPC   C1A22887   0.393  15.973   8.550
 6008POPC   D2A22888   0.482  15.924   8.250
 6008POPC   C3A22889   0.464  15.971   7.950
 6008POPC   C4A22890   0.398  15.926   7.650
 6008POPC   C1B22891   0.359  16.231   8.550
 6008POPC   C2B22892   0.426  16.234   8.250
 6008POPC   C3B22893   0.383  16.173   7.950
 6008POPC   C4B22894   0.331  16.159   7.650
 6009POPC   NC322895  32.278  18.298   9.450
 6009POPC   PO422896  32.260  18.271   9.150
 6009POPC   GL122897  32.251  18.331   8.850
 6009POPC   GL222898  32.343  18.266   8.850
 6009POPC   C1A22899  32.264  18.283   8.550
 6009POPC   D2A22900  32.209  18.304   8.250
 6009POPC   C3A22901  32.278  18.300   7.950
 6009POPC   C4A22902  32.254  18.248   7.650
 6009POPC   C1B22903  32.437  18.123   8.550
 6009POPC   C2B22904  32.420  18.198   8.250
 6009POPC   C3B22905  32.485  18.116   7.950
 6009POPC   C4B22906  32.420  18.197   7.650
 6010POPC   NC322907  35.320  33.760   9.450
 6010POPC   PO422908  35.327  33.828   9.150
 6010POPC   GL122909  35.303  33.791   8.850
 6010POPC   GL222910  35.426  33.690   8.850
 6010POPC   C1A22911  35.320  33.758   8.550
 6010POPC   D2A22912  35.378  33.848   8.250
 6010POPC   C3A22913  35.398  33.818   7.950
 6010POPC   C4A22914  35.318  33.848   7.650
 6010POPC   C1B22915  35.470  33.614   8.550
 6010POPC   C2B22916  35.433  33.582   8.250
 6010POPC   C3B22917  35.449  33.594   7.950
 6010POPC   C4B22918  35.493  33.561   7.650
 6011POPC   NC322919  38.426  10.485   9.450
 6011POPC   PO422920  38.459  10.562   9.150
 6011POPC   GL122921  38.500  10.506   8.850
 6011POPC   GL222922  38.397  10.615   8.850
 6011POPC   C1A22923  38.448  10.480   8.550
 6011POPC   D2A22924  38.481  10.489   8.250
 6011POPC   C3A22925  38.425  10.519   7.950
 6011POPC   C4A22926  38.422  10.483   7.650
 6011POPC   C1B22927  38.254  10.719   8.550
 6011POPC   C2B22928  38.269  10.706   8.250
 6011POPC   C3B22929  38.267  10.668   7.950
 6011POPC   C4B22930  38.214  10.631   7.650
 6012POPC   NC322931  15.129  15.985   9.450
 6012POPC   PO422932  15.214  15.956   9.150
 6012POPC   GL122933  15.206  15.942   8.850
 6012POPC   GL222934  15.175  15.848   8.850
 6012POPC   C1A22935  15.199  15.959   8.550
 6012POPC   D2A22936  15.133  15.986   8.250
 6012POPC   C3A22937  15.149  15.948   7.950
 6012POPC   C4A22938  15.208  15.985   7.650
 6012POPC   C1B22939  15.194  15.750   8.550
 6012POPC   C2B22940  15.164  15.699   8.250
 6012POPC   C3B22941  15.142  15.670   7.950
 6012POPC   C4B22942  15.158  15.745   7.650
 6013POPC   NC322943  16.000  32.994   9.450
 6013POPC   PO422944  15.924  33.051   9.150
 6013POPC   GL122945  15.956  33.063   8.850
 6013POPC   GL222946  15.815  33.121   8.850
 6013POPC   C1A22947  15.987  33.069   8.550
 6013POPC   D2A22948  15.953  33.023   8.250
 6013POPC   C3A22949  15.933  33.003   7.950
 6013POPC   C4A22950  15.947  33.044   7.650
 6013POPC   C1B22951  15.803  33.196   8.550
 6013POPC   C2B22952  15.756  33.219   8.250
 6013POPC   C3B22953  15.778  33.201   7.950
 6013POPC   C4B22954  15.725  33.172   7.650
 6014POPC   NC322955  27.600  25.218   9.450
 6014POPC   PO422956  27.643  25.244   9.150
 6014POPC   GL122957  27.564  25.274   8.850
 6014POPC   GL222958  27.586  25.157   8.850
 6014POPC   C1A22959  27.637  25.223   8.550
 6014POPC   D2A22960  27.546  25.289   8.250
 6014POPC   C3A22961  27.607  25.297   7.950
 6014POPC   C4A22962  27.581  25.299   7.650
 6014POPC   C1B22963  27.606  25.004   8.550
 6014POPC   C2B22964  27.626  25.043   8.250
 6014POPC   C3B22965  27.630  25.058   7.950
 6014POPC   C4B22966  27.690  24.975   7.650
 6015POPC   NC322967  17.524  20.622   9.450
 6015POPC   PO422968  17.507  20.648   9.150
 6015POPC   GL122969  17.506  20.600   8.850
 6015POPC   GL222970  17.444  20.555   8.850
 6015POPC   C1A22971  17.522  20.603   8.550
 6015POPC   D2A22972  17.524  20.602   8.250
 6015POPC   C3A22973  17.527  20.597   7.950
 6015POPC   C4A22974  17.468  20.582   7.650
 6015POPC   C1B22975  17.293  20.498   8.550
 6015POPC   C2B22976  17.264  20.419   8.250
 6015POPC   C3B22977  17.345  20.441   7.950
 6015POPC   C4B22978  17.265  20.499   7.650
 6016POPC   NC322979  43.114  42.300   9.450
 6016POPC   PO422980  43.060  42.313   9.150
 6016POPC   GL122981  43.074  42.329   8.850
 6016POPC   GL222982  43.212  42.398   8.850
 6016POPC   C1A22983  43.095  42.335   8.550
 6016POPC   D2A22984  43.117  42.289   8.250
 6016POPC   C3A22985  43.102  42.310   7.950
 6016POPC   C4A22986  43.152  42.347   7.650
 6016POPC   C1B22987  43.306  42.504   8.550
 6016POPC   C2B22988  43.288  42.506   8.250
 6016POPC   C3B22989  43.306  42.471   7.950
 6016POPC   C4B22990  43.262  42.558   7.650
 6017POPC   NC322991  12.029  43.841   9.450
 6017POPC   PO422992  12.055  43.862   9.150
 6017POPC   GL122993  12.081  43.873   8.850
 6017POPC   GL222994  12.041  43.985   8.850
 6017POPC   C1A22995  12.110  43.897   8.550
 6017POPC   D2A22996  12.075  43.840   8.250
 6017POPC   C3A22997  12.126  43.874   7.950
 6017POPC   C4A22998  12.077  43.844   7.650
 6017POPC   C1B22999  12.123  44.144   8.550
 6017POPC   C2B23000  12.105  44.095   8.250
 6017POPC   C3B23001  12.039  44.090   7.950
 6017POPC   C4B23002  12.126  44.158   7.650
 6018POPC   NC323003  34.618  33.830   9.450
 6018POPC   PO423004  34.589  33.837   9.150
 6018POPC   GL123005  34.548  33.777   8.850
 6018POPC   GL223006  34.673  33.729   8.850
 6018POPC   C1A23007  34.534  33.787   8.550
 6018POPC   D2A23008  34.613  33.794   8.250
 6018POPC   C3A23009  34.557  33.780   7.950
 6018POPC   C4A23010  34.594  33.838   7.650
 6018POPC   C1B23011  34.816  33.685   8.550
 6018POPC   C2B23012  34.814  33.670   8.250
 6018POPC   C3B23013  34.796  33.662   7.950
 6018POPC   C4B23014  34.803  33.757   7.650
 6019POPC   NC323015  33.018  43.928   9.450
 6019POPC   PO423016  33.068  43.879   9.150
 6019POPC   GL123017  33.023  43.840   8.850
 6019POPC   GL223018  33.022  43.804   8.850
 6019POPC   C1A23019  33.020  43.852   8.550
 6019POPC   D2A23020  33.049  43.896   8.250
 6019POPC   C3A23021  33.039  43.843   7.950
 6019POPC   C4A23022  33.052  43.874   7.650
 6019POPC   C1B23023  32.944  43.655   8.550
 6019POPC   C2B23024  32.919  43.676   8.250
 6019POPC   C3B23025  32.949  43.687   7.950
 6019POPC   C4B23026  32.924  43.700   7.650
 6020POPC   NC323027  35.326  12.071   9.450
 6020POPC   PO423028  35.364  12.111   9.150
 6020POPC   GL123029  35.367  12.105   8.850
 6020POPC   GL223030  35.208  12.033   8.850
 6020POPC   C1A23031  35.378  12.122   8.550
 6020POPC   D2A23032  35.310  12.103   8.250
 6020POPC   C3A23033  35.340  12.072   7.950
 6020POPC   C4A23034  35.324  12.044   7.650
 6020POPC   C1B23035  35.073  11.946   8.550
 6020POPC   C2B23036  35.084  11.971   8.250
 6020POPC   C3B23037  35.126  12.023   7.950
 6020POPC   C4B23038  35.148  12.028   7.650
 6021POPC   NC323039  23.696  25.270   9.450
 6021POPC   PO423040  23.762  25.253   9.150
 6021POPC   GL123041  23.709  25.311   8.850
 6021POPC   GL223042  23.785  25.241   8.850
 6021POPC   C1A23043  23.709  25.243   8.550
 6021POPC   D2A23044  23.676  25.239   8.250
 6021POPC   C3A23045  23.731  25.271   7.950
 6021POPC   C4A23046  23.738  25.307   7.650
 6021POPC   C1B23047  23.977  25.190   8.550
 6021POPC   C2B23048  23.988  25.196   8.250
 6021POPC   C3B23049  23.944  25.202   7.950
 6021POPC   C4B23050  23.945  25.145   7.650
 6022POPC   NC323051  15.924  16.687   9.450
 6022POPC   PO423052  15.936  16.701   9.150
 6022POPC   GL123053  15.934  16.763   8.850
 6022POPC   GL223054  15.880  16.785   8.850
 6022POPC   C1A23055  15.981  16.771   8.550
 6022POPC   D2A23056  15.973  16.712   8.250
 6022POPC   C3A23057  15.964  16.724   7.950
 6022POPC   C4A23058  15.908  16.747   7.650
 6022POPC   C1B23059  15.663  16.705   8.550
 6022POPC   C2B23060  15.687  16.771   8.250
 6022POPC   C3B23061  15.663  16.728   7.950
 6022POPC   C4B23062  15.721  16.725   7.650
 6023POPC   NC323063  10.491   2.010   9.450
 6023POPC   PO423064  10.554   1.962   9.150
 6023POPC   GL123065  10.535   1.996   8.850
 6023POPC   GL223066  10.643   1.920   8.850
 6023POPC   C1A23067  10.553   1.998   8.550
 6023POPC   D2A23068  10.571   1.985   8.250
 6023POPC   C3A23069  10.487   2.018   7.950
 6023POPC   C4A23070  10.523   1.985   7.650
 6023POPC   C1B23071  10.740   1.815   8.550
 6023POPC   C2B23072  10.766   1.841   8.250
 6023POPC   C3B23073  10.672   1.845   7.950
 6023POPC   C4B23074  10.745   1.841   7.650
 6024POPC   NC323075  23.747   2.810   9.450
 6024POPC   PO423076  23.665   2.725   9.150
 6024POPC   GL123077  23.742   2.759   8.850
 6024POPC   GL223078  23.617   2.771   8.850
 6024POPC   C1A23079  23.693   2.719   8.550
 6024POPC   D2A23080  23.682   2.767   8.250
 6024POPC   C3A23081  23.708   2.797   7.950
 6024POPC   C4A23082  23.742   2.778   7.650
 6024POPC   C1B23083  23.512   2.759   8.550
 6024POPC   C2B23084  23.503   2.741   8.250
 6024POPC   C3B23085  23.462   2.769   7.950
 6024POPC   C4B23086  23.426   2.769   7.650
 6025POPC   NC323087  36.862  22.985   9.450
 6025POPC   PO423088  36.892  22.918   9.150
 6025POPC   GL123089  36.906  22.964   8.850
 6025POPC   GL223090  36.803  22.894   8.850
 6025POPC   C1A23091  36.899  22.979   8.550
 6025POPC   D2A23092  36.885  22.941   8.250
 6025POPC   C3A23093  36.940  22.899   7.950
 6025POPC   C4A23094  36.944  22.972   7.650
 6025POPC   C1B23095  36.719  22.843   8.550
 6025POPC   C2B23096  36.649  22.841   8.250
 6025POPC   C3B23097  36.714  22.846   7.950
 6025POPC   C4B23098  36.701  22.843   7.650
 6026POPC   NC323099  24.452  19.070   9.450
 6026POPC   PO423100  24.488  19.028   9.150
 6026POPC   GL123101  24.442  19.016   8.850
 6026POPC   GL223102  24.413  19.168   8.850
 6026POPC   C1A23103  24.462  19.082   8.550
 6026POPC   D2A23104  24.456  19.070   8.250
 6026POPC   C3A23105  24.521  19.104   7.950
 6026POPC   C4A23106  24.503  19.031   7.650
 6026POPC   C1B23107  24.410  19.263   8.550
 6026POPC   C2B23108  24.427  19.315   8.250
 6026POPC   C3B23109  24.425  19.331   7.950
 6026POPC   C4B23110  24.419  19.277   7.650
 6027POPC   NC323111   4.354  43.849   9.450
 6027POPC   PO423112   4.304  43.883   9.150
 6027POPC   GL123113   4.351  43.874   8.850
 6027POPC   GL223114   4.385  44.022   8.850
 6027POPC   C1A23115   4.297  43.909   8.550
 6027POPC   D2A23116   4.317  43.899   8.250
 6027POPC   C3A23117   4.348  43.931   7.950
 6027POPC   C4A23118   4.363  43.850   7.650
 6027POPC   C1B23119   4.423  44.091   8.550
 6027POPC   C2B23120   4.430  44.093   8.250
 6027POPC   C3B23121   4.356  44.116   7.950
 6027POPC   C4B23122   4.409  44.122   7.650
 6028POPC   NC323123  30.684   8.185   9.450
 6028POPC   PO423124  30.728   8.230   9.150
 6028POPC   GL123125  30.688   8.212   8.850
 6028POPC   GL223126  30.798   8.251   8.850
 6028POPC   C1A23127  30.652   8.188   8.550
 6028POPC   D2A23128  30.746   8.228   8.250
 6028POPC   C3A23129  30.690   8.195   7.950
 6028POPC   C4A23130  30.742   8.185   7.650
 6028POPC   C1B23131  30.857   8.363   8.550
 6028POPC   C2B23132  30.943   8.350   8.250
 6028POPC   C3B23133  30.949   8.344   7.950
 6028POPC   C4B23134  30.898   8.292   7.650
 6029POPC   NC323135   9.701  24.479   9.450
 6029POPC   PO423136   9.795  24.459   9.150
 6029POPC   GL123137   9.770  24.525   8.850
 6029POPC   GL223138   9.835  24.498   8.850
 6029POPC   C1A23139   9.777  24.461   8.550
 6029POPC   D2A23140   9.745  24.475   8.250
 6029POPC   C3A23141   9.724  24.494   7.950
 6029POPC   C4A23142   9.795  24.493   7.650
 6029POPC   C1B23143   9.967  24.508   8.550
 6029POPC   C2B23144   9.964  24.537   8.250
 6029POPC   C3B23145   9.992  24.497   7.950
 6029POPC   C4B23146   9.984  24.485   7.650
 6030POPC   NC323147  43.156  41.590   9.450
 6030POPC   PO423148  43.138  41.518   9.150
 6030POPC   GL123149  43.061  41.512   8.850
 6030POPC   GL223150  43.098  41.432   8.850
 6030POPC   C1A23151  43.083  41.593   8.550
 6030POPC   D2A23152  43.080  41.530   8.250
 6030POPC   C3A23153  43.117  41.521   7.950
 6030POPC   C4A23154  43.095  41.582   7.650
 6030POPC   C1B23155  43.095  41.339   8.550
 6030POPC   C2B23156  43.127  41.269   8.250
 6030POPC   C3B23157  43.100  41.302   7.950
 6030POPC   C4B23158  43.148  41.306   7.650
 6031POPC   NC323159  35.357  43.868   9.450
 6031POPC   PO423160  35.322  43.884   9.150
 6031POPC   GL123161  35.332  43.898   8.850
 6031POPC   GL223162  35.322  44.036   8.850
 6031POPC   C1A23163  35.375  43.922   8.550
 6031POPC   D2A23164  35.352  43.934   8.250
 6031POPC   C3A23165  35.356  43.890   7.950
 6031POPC   C4A23166  35.387  43.847   7.650
 6031POPC   C1B23167  35.398  44.122   8.550
 6031POPC   C2B23168  35.333  44.108   8.250
 6031POPC   C3B23169  35.398  44.119   7.950
 6031POPC   C4B23170  35.330  44.169   7.650
 6032POPC   NC323171   8.178  19.074   9.450
 6032POPC   PO423172   8.195  19.033   9.150
 6032POPC   GL123173   8.180  19.094   8.850
 6032POPC   GL223174   8.101  19.124   8.850
 6032POPC   C1A23175   8.161  19.012   8.550
 6032POPC   D2A23176   8.182  19.075   8.250
 6032POPC   C3A23177   8.156  19.106   7.950
 6032POPC   C4A23178   8.217  19.087   7.650
 6032POPC   C1B23179   7.991  19.167   8.550
 6032POPC   C2B23180   8.027  19.167   8.250
 6032POPC   C3B23181   7.982  19.174   7.950
 6032POPC   C4B23182   7.977  19.191   7.650
 6033POPC   NC323183  41.588  36.876   9.450
 6033POPC   PO423184  41.548  36.855   9.150
 6033POPC   GL123185  41.586  36.930   8.850
 6033POPC   GL223186  41.686  36.871   8.850
 6033POPC   C1A23187  41.601  36.904   8.550
 6033POPC   D2A23188  41.586  36.901   8.250
 6033POPC   C3A23189  41.596  36.865   7.950
 6033POPC   C4A23190  41.531  36.872   7.650
 6033POPC   C1B23191  41.771  36.841   8.550
 6033POPC   C2B23192  41.760  36.879   8.250
 6033POPC   C3B23193  41.759  36.834   7.950
 6033POPC   C4B23194  41.813  36.835   7.650
 6034POPC   NC323195  12.090  24.443   9.450
 6034POPC   PO423196  12.083  24.499   9.150
 6034POPC   GL123197  12.074  24.510   8.850
 6034POPC   GL223198  12.198  24.505   8.850
 6034POPC   C1A23199  12.072  24.494   8.550
 6034POPC   D2A23200  12.061  24.519   8.250
 6034POPC   C3A23201  12.117  24.528   7.950
 6034POPC   C4A23202  12.059  24.466   7.650
 6034POPC   C1B23203  12.344  24.534   8.550
 6034POPC   C2B23204  12.343  24.555   8.250
 6034POPC   C3B23205  12.310  24.503   7.950
 6034POPC   C4B23206  12.280  24.518   7.650
 6035POPC   NC323207   5.066  22.207   9.450
 6035POPC   PO423208   5.138  22.196   9.150
 6035POPC   GL123209   5.135  22.199   8.850
 6035POPC   GL223210   5.143  22.110   8.850
 6035POPC   C1A23211   5.055  22.186   8.550
 6035POPC   D2A23212   5.104  22.152   8.250
 6035POPC   C3A23213   5.101  22.139   7.950
 6035POPC   C4A23214   5.132  22.199   7.650
 6035POPC   C1B23215   5.254  22.041   8.550
 6035POPC   C2B23216   5.300  22.025   8.250
 6035POPC   C3B23217   5.304  22.000   7.950
 6035POPC   C4B23218   5.339  22.053   7.650
 6036POPC   NC323219  26.021  28.409   9.450
 6036POPC   PO423220  26.088  28.412   9.150
 6036POPC   GL123221  26.083  28.403   8.850
 6036POPC   GL223222  25.908  28.440   8.850
 6036POPC   C1A23223  26.067  28.340   8.550
 6036POPC   D2A23224  26.073  28.368   8.250
 6036POPC   C3A23225  26.033  28.407   7.950
 6036POPC   C4A23226  26.022  28.413   7.650
 6036POPC   C1B23227  25.854  28.492   8.550
 6036POPC   C2B23228  25.814  28.477   8.250
 6036POPC   C3B23229  25.774  28.519   7.950
 6036POPC   C4B23230  25.852  28.481   7.650
 6037POPC   NC323231  27.629  10.551   9.450
 6037POPC   PO423232  27.581  10.562   9.150
 6037POPC   GL123233  27.579  10.494   8.850
 6037POPC   GL223234  27.590  10.630   8.850
 6037POPC   C1A23235  27.554  10.546   8.550
 6037POPC   D2A23236  27.590  10.540   8.250
 6037POPC   C3A23237  27.630  10.568   7.950
 6037POPC   C4A23238  27.584  10.515   7.650
 6037POPC   C1B23239  27.567  10.751   8.550
 6037POPC   C2B23240  27.517  10.721   8.250
 6037POPC   C3B23241  27.530  10.777   7.950
 6037POPC   C4B23242  27.544  10.774   7.650
 6038POPC   NC323243  24.526  12.843   9.450
 6038POPC   PO423244  24.512  12.862   9.150
 6038POPC   GL123245  24.507  12.832   8.850
 6038POPC   GL223246  24.647  12.803   8.850
 6038POPC   C1A23247  24.457  12.851   8.550
 6038POPC   D2A23248  24.495  12.824   8.250
 6038POPC   C3A23249  24.513  12.858   7.950
 6038POPC   C4A23250  24.496  12.898   7.650
 6038POPC   C1B23251  24.724  12.737   8.550
 6038POPC   C2B23252  24.762  12.758   8.250
 6038POPC   C3B23253  24.718  12.769   7.950
 6038POPC   C4B23254  24.770  12.817   7.650
 6039POPC   NC323255   0.458   8.176   9.450
 6039POPC   PO423256   0.419   8.208   9.150
 6039POPC   GL123257   0.479   8.173   8.850
 6039POPC   GL223258   0.367   8.357   8.850
 6039POPC   C1A23259   0.452   8.203   8.550
 6039POPC   D2A23260   0.437   8.184   8.250
 6039POPC   C3A23261   0.474   8.184   7.950
 6039POPC   C4A23262   0.408   8.205   7.650
 6039POPC   C1B23263   0.359   8.470   8.550
 6039POPC   C2B23264   0.297   8.388   8.250
 6039POPC   C3B23265   0.300   8.427   7.950
 6039POPC   C4B23266   0.375   8.446   7.650
 6040POPC   NC323267  12.110  34.575   9.450
 6040POPC   PO423268  12.102  34.595   9.150
 6040POPC   GL123269  12.064  34.589   8.850
 6040POPC   GL223270  12.156  34.611   8.850
 6040POPC   C1A23271  12.068  34.572   8.550
 6040POPC   D2A23272  12.070  34.532   8.250
 6040POPC   C3A23273  12.123  34.553   7.950
 6040POPC   C4A23274  12.089  34.609   7.650
 6040POPC   C1B23275  12.324  34.674   8.550
 6040POPC   C2B23276  12.290  34.665   8.250
 6040POPC   C3B23277  12.306  34.675   7.950
 6040POPC   C4B23278  12.289  34.692   7.650
 6041POPC   NC323279  40.735   8.936   9.450
 6041POPC   PO423280  40.736   8.970   9.150
 6041POPC   GL123281  40.828   8.942   8.850
 6041POPC   GL223282  40.845   8.822   8.850
 6041POPC   C1A23283  40.759   8.963   8.550
 6041POPC   D2A23284  40.806   8.951   8.250
 6041POPC   C3A23285  40.734   8.956   7.950
 6041POPC   C4A23286  40.832   9.015   7.650
 6041POPC   C1B23287  40.872   8.746   8.550
 6041POPC   C2B23288  40.823   8.770   8.250
 6041POPC   C3B23289  40.803   8.712   7.950
 6041POPC   C4B23290  40.846   8.715   7.650
 6042POPC   NC323291  26.847  13.611   9.450
 6042POPC   PO423292  26.798  13.644   9.150
 6042POPC   GL123293  26.788  13.616   8.850
 6042POPC   GL223294  26.951  13.675   8.850
 6042POPC   C1A23295  26.864  13.656   8.550
 6042POPC   D2A23296  26.780  13.631   8.250
 6042POPC   C3A23297  26.861  13.632   7.950
 6042POPC   C4A23298  26.828  13.645   7.650
 6042POPC   C1B23299  27.062  13.739   8.550
 6042POPC   C2B23300  27.039  13.797   8.250
 6042POPC   C3B23301  27.062  13.798   7.950
 6042POPC   C4B23302  27.054  13.805   7.650
 6043POPC   NC323303  26.059  37.637   9.450
 6043POPC   PO423304  26.054  37.691   9.150
 6043POPC   GL123305  26.059  37.676   8.850
 6043POPC   GL223306  25.985  37.570   8.850
 6043POPC   C1A23307  26.008  37.655   8.550
 6043POPC   D2A23308  26.088  37.651   8.250
 6043POPC   C3A23309  25.997  37.709   7.950
 6043POPC   C4A23310  26.019  37.707   7.650
 6043POPC   C1B23311  25.817  37.578   8.550
 6043POPC   C2B23312  25.814  37.537   8.250
 6043POPC   C3B23313  25.801  37.579   7.950
 6043POPC   C4B23314  25.867  37.526   7.650
 6044POPC   NC323315  31.498  37.699   9.450
 6044POPC   PO423316  31.494  37.671   9.150
 6044POPC   GL123317  31.474  37.683   8.850
 6044POPC   GL223318  31.456  37.561   8.850
 6044POPC   C1A23319  31.505  37.668   8.550
 6044POPC   D2A23320  31.472  37.702   8.250
 6044POPC   C3A23321  31.512  37.683   7.950
 6044POPC   C4A23322  31.433  37.717   7.650
 6044POPC   C1B23323  31.328  37.469   8.550
 6044POPC   C2B23324  31.378  37.429   8.250
 6044POPC   C3B23325  31.327  37.482   7.950
 6044POPC   C4B23326  31.348  37.450   7.650
 6045POPC   NC323327  25.269  25.248   9.450
 6045POPC   PO423328  25.241  25.256   9.150
 6045POPC   GL123329  25.241  25.250   8.850
 6045POPC   GL223330  25.141  25.238   8.850
 6045POPC   C1A23331  25.242  25.222   8.550
 6045POPC   D2A23332  25.252  25.297   8.250
 6045POPC   C3A23333  25.272  25.245   7.950
 6045POPC   C4A23334  25.273  25.305   7.650
 6045POPC   C1B23335  25.037  25.187   8.550
 6045POPC   C2B23336  25.033  25.138   8.250
 6045POPC   C3B23337  25.018  25.180   7.950
 6045POPC   C4B23338  25.009  25.149   7.650
 6046POPC   NC323339  35.309  31.446   9.450
 6046POPC   PO423340  35.306  31.478   9.150
 6046POPC   GL123341  35.325  31.509   8.850
 6046POPC   GL223342  35.386  31.316   8.850
 6046POPC   C1A23343  35.383  31.468   8.550
 6046POPC   D2A23344  35.348  31.443   8.250
 6046POPC   C3A23345  35.367  31.449   7.950
 6046POPC   C4A23346  35.338  31.500   7.650
 6046POPC   C1B23347  35.348  31.228   8.550
 6046POPC   C2B23348  35.393  31.263   8.250
 6046POPC   C3B23349  35.419  31.257   7.950
 6046POPC   C4B23350  35.325  31.204   7.650
 6047POPC   NC323351  22.173  36.892   9.450
 6047POPC   PO423352  22.151  36.875   9.150
 6047POPC   GL123353  22.120  36.930   8.850
 6047POPC   GL223354  22.313  36.982   8.850
 6047POPC   C1A23355  22.179  36.870   8.550
 6047POPC   D2A23356  22.152  36.951   8.250
 6047POPC   C3A23357  22.206  36.936   7.950
 6047POPC   C4A23358  22.133  36.919   7.650
 6047POPC   C1B23359  22.401  36.985   8.550
 6047POPC   C2B23360  22.374  37.002   8.250
 6047POPC   C3B23361  22.354  37.010   7.950
 6047POPC   C4B23362  22.435  36.987   7.650
 6048POPC   NC323363  13.588  26.841   9.450
 6048POPC   PO423364  13.671  26.813   9.150
 6048POPC   GL123365  13.652  26.854   8.850
 6048POPC   GL223366  13.547  26.799   8.850
 6048POPC   C1A23367  13.625  26.775   8.550
 6048POPC   D2A23368  13.612  26.775   8.250
 6048POPC   C3A23369  13.665  26.858   7.950
 6048POPC   C4A23370  13.618  26.784   7.650
 6048POPC   C1B23371  13.377  26.815   8.550
 6048POPC   C2B23372  13.384  26.752   8.250
 6048POPC   C3B23373  13.342  26.753   7.950
 6048POPC   C4B23374  13.415  26.803   7.650
 6049POPC   NC323375  36.946   3.562   9.450
 6049POPC   PO423376  36.918   3.587   9.150
 6049POPC   GL123377  36.931   3.505   8.850
 6049POPC   GL223378  37.067   3.566   8.850
 6049POPC   C1A23379  36.917   3.540   8.550
 6049POPC   D2A23380  36.948   3.566   8.250
 6049POPC   C3A23381  36.916   3.567   7.950
 6049POPC   C4A23382  36.868   3.563   7.650
 6049POPC   C1B23383  37.174   3.541   8.550
 6049POPC   C2B23384  37.183   3.580   8.250
 6049POPC   C3B23385  37.135   3.570   7.950
 6049POPC   C4B23386  37.131   3.584   7.650
 6050POPC   NC323387   0.481  19.049   9.450
 6050POPC   PO423388   0.422  19.036   9.150
 6050POPC   GL123389   0.482  19.030   8.850
 6050POPC   GL223390   0.431  18.913   8.850
 6050POPC   C1A23391   0.459  19.057   8.550
 6050POPC   D2A23392   0.488  19.059   8.250
 6050POPC   C3A23393   0.401  19.095   7.950
 6050POPC   C4A23394   0.415  19.105   7.650
 6050POPC   C1B23395   0.443  18.807   8.550
 6050POPC   C2B23396   0.444  18.817   8.250
 6050POPC   C3B23397   0.416  18.810   7.950
 6050POPC   C4B23398   0.414  18.811   7.650
 6051POPC   NC323399  21.367  36.883   9.450
 6051POPC   PO423400  21.361  36.872   9.150
 6051POPC   GL123401  21.433  36.929   8.850
 6051POPC   GL223402  21.364  36.976   8.850
 6051POPC   C1A23403  21.433  36.860   8.550
 6051POPC   D2A23404  21.370  36.901   8.250
 6051POPC   C3A23405  21.336  36.913   7.950
 6051POPC   C4A23406  21.357  36.934   7.650
 6051POPC   C1B23407  21.303  37.091   8.550
 6051POPC   C2B23408  21.267  37.132   8.250
 6051POPC   C3B23409  21.318  37.112   7.950
 6051POPC   C4B23410  21.328  37.165   7.650
 6052POPC   NC323411  21.348  26.041   9.450
 6052POPC   PO423412  21.376  26.009   9.150
 6052POPC   GL123413  21.364  25.992   8.850
 6052POPC   GL223414  21.238  25.954   8.850
 6052POPC   C1A23415  21.406  25.995   8.550
 6052POPC   D2A23416  21.340  26.006   8.250
 6052POPC   C3A23417  21.397  26.044   7.950
 6052POPC   C4A23418  21.348  26.066   7.650
 6052POPC   C1B23419  21.133  25.897   8.550
 6052POPC   C2B23420  21.134  25.924   8.250
 6052POPC   C3B23421  21.159  25.916   7.950
 6052POPC   C4B23422  21.107  25.927   7.650
 6053POPC   NC323423  17.484  26.776   9.450
 6053POPC   PO423424  17.498  26.836   9.150
 6053POPC   GL123425  17.551  26.789   8.850
 6053POPC   GL223426  17.575  26.871   8.850
 6053POPC   C1A23427  17.528  26.809   8.550
 6053POPC   D2A23428  17.469  26.772   8.250
 6053POPC   C3A23429  17.532  26.815   7.950
 6053POPC   C4A23430  17.460  26.771   7.650
 6053POPC   C1B23431  17.614  27.021   8.550
 6053POPC   C2B23432  17.648  27.015   8.250
 6053POPC   C3B23433  17.697  27.026   7.950
 6053POPC   C4B23434  17.622  27.045   7.650
 6054POPC   NC323435  18.319  27.544   9.450
 6054POPC   PO423436  18.294  27.576   9.150
 6054POPC   GL123437  18.317  27.606   8.850
 6054POPC   GL223438  18.307  27.512   8.850
 6054POPC   C1A23439  18.268  27.621   8.550
 6054POPC   D2A23440  18.311  27.624   8.250
 6054POPC   C3A23441  18.251  27.545   7.950
 6054POPC   C4A23442  18.257  27.585   7.650
 6054POPC   C1B23443  18.398  27.352   8.550
 6054POPC   C2B23444  18.432  27.415   8.250
 6054POPC   C3B23445  18.416  27.376   7.950
 6054POPC   C4B23446  18.420  27.341   7.650
 6055POPC   NC323447  16.715   5.103   9.450
 6055POPC   PO423448  16.742   5.132   9.150
 6055POPC   GL123449  16.744   5.109   8.850
 6055POPC   GL223450  16.862   5.205   8.850
 6055POPC   C1A23451  16.683   5.046   8.550
 6055POPC   D2A23452  16.732   5.059   8.250
 6055POPC   C3A23453  16.734   5.062   7.950
 6055POPC   C4A23454  16.762   5.134   7.650
 6055POPC   C1B23455  16.988   5.253   8.550
 6055POPC   C2B23456  16.985   5.270   8.250
 6055POPC   C3B23457  16.893   5.186   7.950
 6055POPC   C4B23458  16.956   5.270   7.650
 6056POPC   NC323459  16.711  33.766   9.450
 6056POPC   PO423460  16.732  33.845   9.150
 6056POPC   GL123461  16.682  33.835   8.850
 6056POPC   GL223462  16.686  33.899   8.850
 6056POPC   C1A23463  16.744  33.818   8.550
 6056POPC   D2A23464  16.737  33.828   8.250
 6056POPC   C3A23465  16.762  33.822   7.950
 6056POPC   C4A23466  16.746  33.751   7.650
 6056POPC   C1B23467  16.725  34.002   8.550
 6056POPC   C2B23468  16.731  34.088   8.250
 6056POPC   C3B23469  16.708  34.094   7.950
 6056POPC   C4B23470  16.663  34.078   7.650
 6057POPC   NC323471   3.499  25.992   9.450
 6057POPC   PO423472   3.492  26.079   9.150
 6057POPC   GL123473   3.551  26.021   8.850
 6057POPC   GL223474   3.558  25.939   8.850
 6057POPC   C1A23475   3.497  26.037   8.550
 6057POPC   D2A23476   3.559  26.054   8.250
 6057POPC   C3A23477   3.562  26.041   7.950
 6057POPC   C4A23478   3.563  26.050   7.650
 6057POPC   C1B23479   3.579  25.822   8.550
 6057POPC   C2B23480   3.589  25.804   8.250
 6057POPC   C3B23481   3.591  25.826   7.950
 6057POPC   C4B23482   3.607  25.775   7.650
 6058POPC   NC323483  34.577  11.293   9.450
 6058POPC   PO423484  34.542  11.312   9.150
 6058POPC   GL123485  34.550  11.260   8.850
 6058POPC   GL223486  34.510  11.201   8.850
 6058POPC   C1A23487  34.620  11.329   8.550
 6058POPC   D2A23488  34.562  11.259   8.250
 6058POPC   C3A23489  34.619  11.285   7.950
 6058POPC   C4A23490  34.541  11.324   7.650
 6058POPC   C1B23491  34.420  11.110   8.550
 6058POPC   C2B23492  34.387  11.146   8.250
 6058POPC   C3B23493  34.386  11.168   7.950
 6058POPC   C4B23494  34.397  11.110   7.650
 6059POPC   NC323495  19.846  12.898   9.450
 6059POPC   PO423496  19.826  12.888   9.150
 6059POPC   GL123497  19.793  12.853   8.850
 6059POPC   GL223498  19.848  12.931   8.850
 6059POPC   C1A23499  19.799  12.861   8.550
 6059POPC   D2A23500  19.793  12.869   8.250
 6059POPC   C3A23501  19.793  12.815   7.950
 6059POPC   C4A23502  19.864  12.871   7.650
 6059POPC   C1B23503  19.917  13.102   8.550
 6059POPC   C2B23504  19.916  13.125   8.250
 6059POPC   C3B23505  19.964  13.060   7.950
 6059POPC   C4B23506  19.968  13.105   7.650
 6060POPC   NC323507  16.781   8.222   9.450
 6060POPC   PO423508  16.720   8.169   9.150
 6060POPC   GL123509  16.717   8.172   8.850
 6060POPC   GL223510  16.659   8.104   8.850
 6060POPC   C1A23511  16.700   8.224   8.550
 6060POPC   D2A23512  16.776   8.219   8.250
 6060POPC   C3A23513  16.771   8.242   7.950
 6060POPC   C4A23514  16.720   8.224   7.650
 6060POPC   C1B23515  16.468   8.067   8.550
 6060POPC   C2B23516  16.498   8.051   8.250
 6060POPC   C3B23517  16.513   8.125   7.950
 6060POPC   C4B23518  16.528   8.065   7.650
 6061POPC   NC323519  11.269  19.017   9.450
 6061POPC   PO423520  11.295  19.037   9.150
 6061POPC   GL123521  11.262  19.060   8.850
 6061POPC   GL223522  11.199  19.061   8.850
 6061POPC   C1A23523  11.312  19.105   8.550
 6061POPC   D2A23524  11.253  19.024   8.250
 6061POPC   C3A23525  11.272  19.098   7.950
 6061POPC   C4A23526  11.335  19.040   7.650
 6061POPC   C1B23527  11.076  18.998   8.550
 6061POPC   C2B23528  11.092  18.976   8.250
 6061POPC   C3B23529  11.042  18.975   7.950
 6061POPC   C4B23530  11.060  18.972   7.650
 6062POPC   NC323531  21.407  27.634   9.450
 6062POPC   PO423532  21.371  27.597   9.150
 6062POPC   GL123533  21.379  27.617   8.850
 6062POPC   GL223534  21.297  27.544   8.850
 6062POPC   C1A23535  21.339  27.584   8.550
 6062POPC   D2A23536  21.343  27.595   8.250
 6062POPC   C3A23537  21.432  27.626   7.950
 6062POPC   C4A23538  21.359  27.636   7.650
 6062POPC   C1B23539  21.139  27.524   8.550
 6062POPC   C2B23540  21.185  27.602   8.250
 6062POPC   C3B23541  21.184  27.571   7.950
 6062POPC   C4B23542  21.180  27.559   7.650
 6063POPC   NC323543   1.991  26.007   9.450
 6063POPC   PO423544   2.007  26.023   9.150
 6063POPC   GL123545   2.021  26.064   8.850
 6063POPC   GL223546   2.054  26.108   8.850
 6063POPC   C1A23547   1.952  26.051   8.550
 6063POPC   D2A23548   1.976  26.069   8.250
 6063POPC   C3A23549   1.946  26.069   7.950
 6063POPC   C4A23550   2.031  26.088   7.650
 6063POPC   C1B23551   2.093  26.232   8.550
 6063POPC   C2B23552   2.080  26.244   8.250
 6063POPC   C3B23553   2.102  26.226   7.950
 6063POPC   C4B23554   2.148  26.212   7.650
 6064POPC   NC323555  13.607  42.376   9.450
 6064POPC   PO423556  13.602  42.380   9.150
 6064POPC   GL123557  13.658  42.336   8.850
 6064POPC   GL223558  13.596  42.460   8.850
 6064POPC   C1A23559  13.667  42.319   8.550
 6064POPC   D2A23560  13.648  42.369   8.250
 6064POPC   C3A23561  13.668  42.312   7.950
 6064POPC   C4A23562  13.631  42.355   7.650
 6064POPC   C1B23563  13.523  42.556   8.550
 6064POPC   C2B23564  13.618  42.610   8.250
 6064POPC   C3B23565  13.566  42.545   7.950
 6064POPC   C4B23566  13.567  42.609   7.650
 6065POPC   NC323567   8.936  30.722   9.450
 6065POPC   PO423568   8.952  30.659   9.150
 6065POPC   GL123569   8.968  30.667   8.850
 6065POPC   GL223570   9.040  30.787   8.850
 6065POPC   C1A23571   8.950  30.704   8.550
 6065POPC   D2A23572   8.931  30.718   8.250
 6065POPC   C3A23573   8.984  30.728   7.950
 6065POPC   C4A23574   8.974  30.740   7.650
 6065POPC   C1B23575   9.136  30.840   8.550
 6065POPC   C2B23576   9.134  30.880   8.250
 6065POPC   C3B23577   9.199  30.842   7.950
 6065POPC   C4B23578   9.204  30.819   7.650
 6066POPC   NC323579  34.549  38.427   9.450
 6066POPC   PO423580  34.545  38.489   9.150
 6066POPC   GL123581  34.603  38.424   8.850
 6066POPC   GL223582  34.633  38.586   8.850
 6066POPC   C1A23583  34.620  38.482   8.550
 6066POPC   D2A23584  34.587  38.464   8.250
 6066POPC   C3A23585  34.533  38.497   7.950
 6066POPC   C4A23586  34.615  38.434   7.650
 6066POPC   C1B23587  34.677  38.731   8.550
 6066POPC   C2B23588  34.644  38.716   8.250
 6066POPC   C3B23589  34.676  38.667   7.950
 6066POPC   C4B23590  34.614  38.704   7.650
 6067POPC   NC323591   5.113  33.807   9.450
 6067POPC   PO423592   5.069  33.792   9.150
 6067POPC   GL123593   5.097  33.802   8.850
 6067POPC   GL223594   5.180  33.653   8.850
 6067POPC   C1A23595   5.140  33.775   8.550
 6067POPC   D2A23596   5.094  33.814   8.250
 6067POPC   C3A23597   5.076  33.782   7.950
 6067POPC   C4A23598   5.091  33.770   7.650
 6067POPC   C1B23599   5.254  33.585   8.550
 6067POPC   C2B23600   5.229  33.611   8.250
 6067POPC   C3B23601   5.213  33.563   7.950
 6067POPC   C4B23602   5.221  33.617   7.650
 6068POPC   NC323603   2.004  18.298   9.450
 6068POPC   PO423604   2.009  18.289   9.150
 6068POPC   GL123605   2.002  18.270   8.850
 6068POPC   GL223606   1.885  18.227   8.850
 6068POPC   C1A23607   1.983  18.289   8.550
 6068POPC   D2A23608   1.988  18.235   8.250
 6068POPC   C3A23609   1.955  18.290   7.950
 6068POPC   C4A23610   2.026  18.265   7.650
 6068POPC   C1B23611   1.888  18.069   8.550
 6068POPC   C2B23612   1.873  18.054   8.250
 6068POPC   C3B23613   1.816  18.035   7.950
 6068POPC   C4B23614   1.897  18.064   7.650
 6069POPC   NC323615  12.052  22.190   9.450
 6069POPC   PO423616  12.070  22.118   9.150
 6069POPC   GL123617  12.062  22.163   8.850
 6069POPC   GL223618  12.216  22.137   8.850
 6069POPC   C1A23619  12.064  22.194   8.550
 6069POPC   D2A23620  12.098  22.172   8.250
 6069POPC   C3A23621  12.118  22.120   7.950
 6069POPC   C4A23622  12.082  22.194   7.650
 6069POPC   C1B23623  12.292  22.110   8.550
 6069POPC   C2B23624  12.295  22.137   8.250
 6069POPC   C3B23625  12.309  22.117   7.950
 6069POPC   C4B23626  12.322  22.144   7.650
 6070POPC   NC323627   2.749  21.402   9.450
 6070POPC   PO423628   2.736  21.349   9.150
 6070POPC   GL123629   2.725  21.351   8.850
 6070POPC   GL223630   2.889  21.387   8.850
 6070POPC   C1A23631   2.789  21.339   8.550
 6070POPC   D2A23632   2.719  21.378   8.250
 6070POPC   C3A23633   2.806  21.434   7.950
 6070POPC   C4A23634   2.802  21.354   7.650
 6070POPC   C1B23635   2.994  21.271   8.550
 6070POPC   C2B23636   2.989  21.330   8.250
 6070POPC   C3B23637   2.961  21.294   7.950
 6070POPC   C4B23638   3.006  21.262   7.650
 6071POPC   NC323639   1.188  18.313   9.450
 6071POPC   PO423640   1.186  18.316   9.150
 6071POPC   GL123641   1.243  18.286   8.850
 6071POPC   GL223642   1.180  18.117   8.850
 6071POPC   C1A23643   1.201  18.307   8.550
 6071POPC   D2A23644   1.230  18.328   8.250
 6071POPC   C3A23645   1.224  18.252   7.950
 6071POPC   C4A23646   1.259  18.313   7.650
 6071POPC   C1B23647   1.138  17.996   8.550
 6071POPC   C2B23648   1.091  18.018   8.250
 6071POPC   C3B23649   1.166  18.054   7.950
 6071POPC   C4B23650   1.168  18.051   7.650
 6072POPC   NC323651   1.196  12.847   9.450
 6072POPC   PO423652   1.258  12.821   9.150
 6072POPC   GL123653   1.191  12.893   8.850
 6072POPC   GL223654   1.107  12.938   8.850
 6072POPC   C1A23655   1.243  12.810   8.550
 6072POPC   D2A23656   1.224  12.894   8.250
 6072POPC   C3A23657   1.219  12.876   7.950
 6072POPC   C4A23658   1.228  12.808   7.650
 6072POPC   C1B23659   1.027  13.053   8.550
 6072POPC   C2B23660   1.070  13.011   8.250
 6072POPC   C3B23661   1.064  13.066   7.950
 6072POPC   C4B23662   1.006  12.994   7.650
 6073POPC   NC323663  44.709  44.671   9.450
 6073POPC   PO423664  44.684  44.707   9.150
 6073POPC   GL123665  44.657  44.661   8.850
 6073POPC   GL223666  44.505  44.641   8.850
 6073POPC   C1A23667  44.644  44.685   8.550
 6073POPC   D2A23668  44.640  44.661   8.250
 6073POPC   C3A23669  44.651  44.641   7.950
 6073POPC   C4A23670  44.681  44.701   7.650
 6073POPC   C1B23671  44.380  44.622   8.550
 6073POPC   C2B23672  44.406  44.546   8.250
 6073POPC   C3B23673  44.419  44.631   7.950
 6073POPC   C4B23674  44.446  44.554   7.650
 6074POPC   NC323675   6.685  36.884   9.450
 6074POPC   PO423676   6.685  36.884   9.150
 6074POPC   GL123677   6.663  36.875   8.850
 6074POPC   GL223678   6.701  36.743   8.850
 6074POPC   C1A23679   6.626  36.913   8.550
 6074POPC   D2A23680   6.604  36.939   8.250
 6074POPC   C3A23681   6.626  36.945   7.950
 6074POPC   C4A23682   6.653  36.873   7.650
 6074POPC   C1B23683   6.699  36.611   8.550
 6074POPC   C2B23684   6.685  36.652   8.250
 6074POPC   C3B23685   6.690  36.622   7.950
 6074POPC   C4B23686   6.669  36.643   7.650
 6075POPC   NC323687  18.325   0.481   9.450
 6075POPC   PO423688  18.261   0.449   9.150
 6075POPC   GL123689  18.275   0.450   8.850
 6075POPC   GL223690  18.422   0.493   8.850
 6075POPC   C1A23691  18.313   0.426   8.550
 6075POPC   D2A23692  18.293   0.426   8.250
 6075POPC   C3A23693  18.238   0.398   7.950
 6075POPC   C4A23694  18.255   0.400   7.650
 6075POPC   C1B23695  18.446   0.608   8.550
 6075POPC   C2B23696  18.539   0.604   8.250
 6075POPC   C3B23697  18.533   0.618   7.950
 6075POPC   C4B23698  18.450   0.610   7.650
 6076POPC   NC323699  36.880  13.663   9.450
 6076POPC   PO423700  36.928  13.651   9.150
 6076POPC   GL123701  36.952  13.641   8.850
 6076POPC   GL223702  36.805  13.552   8.850
 6076POPC   C1A23703  36.941  13.588   8.550
 6076POPC   D2A23704  36.883  13.579   8.250
 6076POPC   C3A23705  36.863  13.613   7.950
 6076POPC   C4A23706  36.854  13.586   7.650
 6076POPC   C1B23707  36.693  13.483   8.550
 6076POPC   C2B23708  36.734  13.492   8.250
 6076POPC   C3B23709  36.782  13.438   7.950
 6076POPC   C4B23710  36.742  13.395   7.650
 6077POPC   NC323711  43.924  15.164   9.450
 6077POPC   PO423712  43.901  15.195   9.150
 6077POPC   GL123713  43.896  15.214   8.850
 6077POPC   GL223714  43.979  15.259   8.850
 6077POPC   C1A23715  43.860  15.176   8.550
 6077POPC   D2A23716  43.844  15.212   8.250
 6077POPC   C3A23717  43.915  15.183   7.950
 6077POPC   C4A23718  43.915  15.165   7.650
 6077POPC   C1B23719  43.974  15.352   8.550
 6077POPC   C2B23720  44.019  15.349   8.250
 6077POPC   C3B23721  44.045  15.350   7.950
 6077POPC   C4B23722  44.039  15.430   7.650
 6078POPC   NC323723  18.333   2.754   9.450
 6078POPC   PO423724  18.282   2.758   9.150
 6078POPC   GL123725  18.321   2.755   8.850
 6078POPC   GL223726  18.404   2.662   8.850
 6078POPC   C1A23727  18.263   2.750   8.550
 6078POPC   D2A23728  18.294   2.743   8.250
 6078POPC   C3A23729  18.265   2.800   7.950
 6078POPC   C4A23730  18.257   2.748   7.650
 6078POPC   C1B23731  18.469   2.663   8.550
 6078POPC   C2B23732  18.502   2.616   8.250
 6078POPC   C3B23733  18.484   2.650   7.950
 6078POPC   C4B23734  18.519   2.648   7.650
 6079POPC   NC323735  11.262  29.097   9.450
 6079POPC   PO423736  11.264  29.150   9.150
 6079POPC   GL123737  11.345  29.175   8.850
 6079POPC   GL223738  11.203  29.124   8.850
 6079POPC   C1A23739  11.259  29.125   8.550
 6079POPC   D2A23740  11.332  29.167   8.250
 6079POPC   C3A23741  11.279  29.177   7.950
 6079POPC   C4A23742  11.277  29.115   7.650
 6079POPC   C1B23743  11.020  29.134   8.550
 6079POPC   C2B23744  11.097  29.168   8.250
 6079POPC   C3B23745  11.012  29.113   7.950
 6079POPC   C4B23746  11.022  29.114   7.650
 6080POPC   NC323747  15.972  43.926   9.450
 6080POPC   PO423748  15.938  43.888   9.150
 6080POPC   GL123749  15.957  43.889   8.850
 6080POPC   GL223750  15.888  43.903   8.850
 6080POPC   C1A23751  15.926  43.842   8.550
 6080POPC   D2A23752  16.003  43.912   8.250
 6080POPC   C3A23753  15.969  43.867   7.950
 6080POPC   C4A23754  15.999  43.851   7.650
 6080POPC   C1B23755  15.679  44.027   8.550
 6080POPC   C2B23756  15.746  43.953   8.250
 6080POPC   C3B23757  15.727  43.982   7.950
 6080POPC   C4B23758  15.754  43.948   7.650
 6081POPC   NC323759  12.877  40.797   9.450
 6081POPC   PO423760  12.852  40.816   9.150
 6081POPC   GL123761  12.901  40.784   8.850
 6081POPC   GL223762  12.895  40.864   8.850
 6081POPC   C1A23763  12.869  40.757   8.550
 6081POPC   D2A23764  12.805  40.826   8.250
 6081POPC   C3A23765  12.829  40.748   7.950
 6081POPC   C4A23766  12.875  40.833   7.650
 6081POPC   C1B23767  12.874  40.991   8.550
 6081POPC   C2B23768  12.875  41.007   8.250
 6081POPC   C3B23769  12.865  41.027   7.950
 6081POPC   C4B23770  12.944  40.990   7.650
 6082POPC   NC323771  22.183  32.986   9.450
 6082POPC   PO423772  22.127  33.032   9.150
 6082POPC   GL123773  22.118  33.024   8.850
 6082POPC   GL223774  22.304  32.956   8.850
 6082POPC   C1A23775  22.135  33.006   8.550
 6082POPC   D2A23776  22.174  33.070   8.250
 6082POPC   C3A23777  22.138  32.990   7.950
 6082POPC   C4A23778  22.187  33.064   7.650
 6082POPC   C1B23779  22.433  32.969   8.550
 6082POPC   C2B23780  22.375  32.906   8.250
 6082POPC   C3B23781  22.405  32.998   7.950
 6082POPC   C4B23782  22.428  32.985   7.650
 6083POPC   NC323783  31.515  36.177   9.450
 6083POPC   PO423784  31.439  36.093   9.150
 6083POPC   GL123785  31.484  36.115   8.850
 6083POPC   GL223786  31.421  36.028   8.850
 6083POPC   C1A23787  31.447  36.098   8.550
 6083POPC   D2A23788  31.483  36.172   8.250
 6083POPC   C3A23789  31.428  36.106   7.950
 6083POPC   C4A23790  31.482  36.151   7.650
 6083POPC   C1B23791  31.292  35.935   8.550
 6083POPC   C2B23792  31.344  35.958   8.250
 6083POPC   C3B23793  31.321  35.899   7.950
 6083POPC   C4B23794  31.356  35.962   7.650
 6084POPC   NC323795  15.940  28.391   9.450
 6084POPC   PO423796  15.981  28.370   9.150
 6084POPC   GL123797  15.931  28.384   8.850
 6084POPC   GL223798  15.866  28.434   8.850
 6084POPC   C1A23799  15.964  28.361   8.550
 6084POPC   D2A23800  15.980  28.409   8.250
 6084POPC   C3A23801  15.996  28.331   7.950
 6084POPC   C4A23802  15.906  28.403   7.650
 6084POPC   C1B23803  15.852  28.555   8.550
 6084POPC   C2B23804  15.768  28.577   8.250
 6084POPC   C3B23805  15.810  28.617   7.950
 6084POPC   C4B23806  15.791  28.534   7.650
 6085POPC   NC323807  29.144   0.481   9.450
 6085POPC   PO423808  29.137   0.455   9.150
 6085POPC   GL123809  29.177   0.455   8.850
 6085POPC   GL223810  29.254   0.465   8.850
 6085POPC   C1A23811  29.101   0.408   8.550
 6085POPC   D2A23812  29.142   0.406   8.250
 6085POPC   C3A23813  29.172   0.484   7.950
 6085POPC   C4A23814  29.120   0.438   7.650
 6085POPC   C1B23815  29.414   0.456   8.550
 6085POPC   C2B23816  29.385   0.423   8.250
 6085POPC   C3B23817  29.364   0.498   7.950
 6085POPC   C4B23818  29.399   0.435   7.650
 6086POPC   NC323819  22.190  31.496   9.450
 6086POPC   PO423820  22.116  31.472   9.150
 6086POPC   GL123821  22.189  31.515   8.850
 6086POPC   GL223822  22.260  31.587   8.850
 6086POPC   C1A23823  22.170  31.474   8.550
 6086POPC   D2A23824  22.197  31.426   8.250
 6086POPC   C3A23825  22.154  31.494   7.950
 6086POPC   C4A23826  22.152  31.503   7.650
 6086POPC   C1B23827  22.285  31.628   8.550
 6086POPC   C2B23828  22.291  31.645   8.250
 6086POPC   C3B23829  22.364  31.703   7.950
 6086POPC   C4B23830  22.341  31.683   7.650
 6087POPC   NC323831  36.124  22.927   9.450
 6087POPC   PO423832  36.142  22.984   9.150
 6087POPC   GL123833  36.156  22.921   8.850
 6087POPC   GL223834  36.137  23.080   8.850
 6087POPC   C1A23835  36.107  22.966   8.550
 6087POPC   D2A23836  36.106  22.971   8.250
 6087POPC   C3A23837  36.104  22.916   7.950
 6087POPC   C4A23838  36.105  22.951   7.650
 6087POPC   C1B23839  36.194  23.151   8.550
 6087POPC   C2B23840  36.184  23.152   8.250
 6087POPC   C3B23841  36.222  23.157   7.950
 6087POPC   C4B23842  36.255  23.202   7.650
 6088POPC   NC323843  25.260  42.335   9.450
 6088POPC   PO423844  25.249  42.342   9.150
 6088POPC   GL123845  25.235  42.356   8.850
 6088POPC   GL223846  25.344  42.338   8.850
 6088POPC   C1A23847  25.269  42.369   8.550
 6088POPC   D2A23848  25.302  42.343   8.250
 6088POPC   C3A23849  25.217  42.342   7.950
 6088POPC   C4A23850  25.253  42.351   7.650
 6088POPC   C1B23851  25.521  42.434   8.550
 6088POPC   C2B23852  25.545  42.421   8.250
 6088POPC   C3B23853  25.497  42.445   7.950
 6088POPC   C4B23854  25.460  42.435   7.650
 6089POPC   NC323855   6.622   1.259   9.450
 6089POPC   PO423856   6.618   1.207   9.150
 6089POPC   GL123857   6.635   1.243   8.850
 6089POPC   GL223858   6.703   1.084   8.850
 6089POPC   C1A23859   6.600   1.207   8.550
 6089POPC   D2A23860   6.654   1.204   8.250
 6089POPC   C3A23861   6.648   1.238   7.950
 6089POPC   C4A23862   6.641   1.223   7.650
 6089POPC   C1B23863   6.794   1.022   8.550
 6089POPC   C2B23864   6.783   1.048   8.250
 6089POPC   C3B23865   6.799   1.083   7.950
 6089POPC   C4B23866   6.800   1.083   7.650
 6090POPC   NC323867   7.419  26.812   9.450
 6090POPC   PO423868   7.430  26.833   9.150
 6090POPC   GL123869   7.386  26.849   8.850
 6090POPC   GL223870   7.364  26.694   8.850
 6090POPC   C1A23871   7.470  26.798   8.550
 6090POPC   D2A23872   7.419  26.769   8.250
 6090POPC   C3A23873   7.470  26.811   7.950
 6090POPC   C4A23874   7.449  26.810   7.650
 6090POPC   C1B23875   7.376  26.561   8.550
 6090POPC   C2B23876   7.343  26.558   8.250
 6090POPC   C3B23877   7.404  26.591   7.950
 6090POPC   C4B23878   7.439  26.609   7.650
 6091POPC   NC323879   5.850  26.037   9.450
 6091POPC   PO423880   5.900  26.035   9.150
 6091POPC   GL123881   5.887  25.996   8.850
 6091POPC   GL223882   6.027  26.026   8.850
 6091POPC   C1A23883   5.883  26.010   8.550
 6091POPC   D2A23884   5.866  26.054   8.250
 6091POPC   C3A23885   5.866  26.002   7.950
 6091POPC   C4A23886   5.906  26.020   7.650
 6091POPC   C1B23887   6.081  26.087   8.550
 6091POPC   C2B23888   6.105  26.078   8.250
 6091POPC   C3B23889   6.091  26.134   7.950
 6091POPC   C4B23890   6.072  26.130   7.650
 6092POPC   NC323891  29.103  44.698   9.450
 6092POPC   PO423892  29.099  44.644   9.150
 6092POPC   GL123893  29.144  44.699   8.850
 6092POPC   GL223894  29.143  44.517   8.850
 6092POPC   C1A23895  29.146  44.655   8.550
 6092POPC   D2A23896  29.115  44.680   8.250
 6092POPC   C3A23897  29.154  44.672   7.950
 6092POPC   C4A23898  29.173  44.638   7.650
 6092POPC   C1B23899  29.123  44.444   8.550
 6092POPC   C2B23900  29.086  44.453   8.250
 6092POPC   C3B23901  29.124  44.450   7.950
 6092POPC   C4B23902  29.047  44.463   7.650
 6093POPC   NC323903  39.253  13.657   9.450
 6093POPC   PO423904  39.196  13.608   9.150
 6093POPC   GL123905  39.198  13.623   8.850
 6093POPC   GL223906  39.292  13.556   8.850
 6093POPC   C1A23907  39.248  13.656   8.550
 6093POPC   D2A23908  39.194  13.581   8.250
 6093POPC   C3A23909  39.262  13.628   7.950
 6093POPC   C4A23910  39.185  13.634   7.650
 6093POPC   C1B23911  39.348  13.394   8.550
 6093POPC   C2B23912  39.298  13.379   8.250
 6093POPC   C3B23913  39.358  13.362   7.950
 6093POPC   C4B23914  39.339  13.390   7.650
 6094POPC   NC323915   4.305  40.743   9.450
 6094POPC   PO423916   4.359  40.781   9.150
 6094POPC   GL123917   4.343  40.800   8.850
 6094POPC   GL223918   4.355  40.947   8.850
 6094POPC   C1A23919   4.358  40.796   8.550
 6094POPC   D2A23920   4.289  40.769   8.250
 6094POPC   C3A23921   4.273  40.769   7.950
 6094POPC   C4A23922   4.277  40.760   7.650
 6094POPC   C1B23923   4.429  40.991   8.550
 6094POPC   C2B23924   4.366  40.986   8.250
 6094POPC   C3B23925   4.419  41.043   7.950
 6094POPC   C4B23926   4.452  40.976   7.650
 6095POPC   NC323927  22.913   0.402   9.450
 6095POPC   PO423928  22.897   0.468   9.150
 6095POPC   GL123929  22.948   0.480   8.850
 6095POPC   GL223930  22.952   0.366   8.850
 6095POPC   C1A23931  22.914   0.406   8.550
 6095POPC   D2A23932  22.986   0.432   8.250
 6095POPC   C3A23933  22.916   0.463   7.950
 6095POPC   C4A23934  22.911   0.456   7.650
 6095POPC   C1B23935  22.998   0.210   8.550
 6095POPC   C2B23936  23.038   0.237   8.250
 6095POPC   C3B23937  22.976   0.183   7.950
 6095POPC   C4B23938  23.053   0.185   7.650
 6096POPC   NC323939  25.275   6.673   9.450
 6096POPC   PO423940  25.223   6.601   9.150
 6096POPC   GL123941  25.303   6.648   8.850
 6096POPC   GL223942  25.327   6.544   8.850
 6096POPC   C1A23943  25.245   6.621   8.550
 6096POPC   D2A23944  25.256   6.665   8.250
 6096POPC   C3A23945  25.219   6.679   7.950
 6096POPC   C4A23946  25.308   6.690   7.650
 6096POPC   C1B23947  25.483   6.501   8.550
 6096POPC   C2B23948  25.477   6.449   8.250
 6096POPC   C3B23949  25.428   6.489   7.950
 6096POPC   C4B23950  25.481   6.445   7.650
 6097POPC   NC323951  33.014  15.211   9.450
 6097POPC   PO423952  33.018  15.177   9.150
 6097POPC   GL123953  33.000  15.172   8.850
 6097POPC   GL223954  32.941  15.204   8.850
 6097POPC   C1A23955  33.000  15.143   8.550
 6097POPC   D2A23956  32.980  15.223   8.250
 6097POPC   C3A23957  32.991  15.224   7.950
 6097POPC   C4A23958  33.021  15.166   7.650
 6097POPC   C1B23959  32.751  15.162   8.550
 6097POPC   C2B23960  32.806  15.141   8.250
 6097POPC   C3B23961  32.777  15.221   7.950
 6097POPC   C4B23962  32.756  15.201   7.650
 6098POPC   NC323963  42.338  39.189   9.450
 6098POPC   PO423964  42.321  39.255   9.150
 6098POPC   GL123965  42.354  39.218   8.850
 6098POPC   GL223966  42.328  39.059   8.850
 6098POPC   C1A23967  42.353  39.208   8.550
 6098POPC   D2A23968  42.326  39.187   8.250
 6098POPC   C3A23969  42.292  39.217   7.950
 6098POPC   C4A23970  42.341  39.243   7.650
 6098POPC   C1B23971  42.289  39.034   8.550
 6098POPC   C2B23972  42.266  38.991   8.250
 6098POPC   C3B23973  42.327  38.950   7.950
 6098POPC   C4B23974  42.258  38.968   7.650
 6099POPC   NC323975  40.044  24.474   9.450
 6099POPC   PO423976  40.050  24.502   9.150
 6099POPC   GL123977  40.024  24.473   8.850
 6099POPC   GL223978  39.956  24.629   8.850
 6099POPC   C1A23979  40.014  24.488   8.550
 6099POPC   D2A23980  40.030  24.482   8.250
 6099POPC   C3A23981  39.960  24.466   7.950
 6099POPC   C4A23982  39.969  24.487   7.650
 6099POPC   C1B23983  39.893  24.679   8.550
 6099POPC   C2B23984  39.906  24.673   8.250
 6099POPC   C3B23985  39.852  24.717   7.950
 6099POPC   C4B23986  39.931  24.678   7.650
 6100POPC   NC323987  15.963   3.548   9.450
 6100POPC   PO423988  15.972   3.578   9.150
 6100POPC   GL123989  15.910   3.517   8.850
 6100POPC   GL223990  16.013   3.690   8.850
 6100POPC   C1A23991  15.988   3.566   8.550
 6100POPC   D2A23992  15.962   3.590   8.250
 6100POPC   C3A23993  15.992   3.558   7.950
 6100POPC   C4A23994  15.912   3.514   7.650
 6100POPC   C1B23995  16.095   3.703   8.550
 6100POPC   C2B23996  16.064   3.799   8.250
 6100POPC   C3B23997  16.056   3.755   7.950
 6100POPC   C4B23998  16.061   3.799   7.650
 6101POPC   NC323999  28.393   2.008   9.450
 6101POPC   PO424000  28.418   1.961   9.150
 6101POPC   GL124001  28.343   2.008   8.850
 6101POPC   GL224002  28.248   2.037   8.850
 6101POPC   C1A24003  28.407   1.978   8.550
 6101POPC   D2A24004  28.340   1.992   8.250
 6101POPC   C3A24005  28.361   1.996   7.950
 6101POPC   C4A24006  28.381   1.989   7.650
 6101POPC   C1B24007  28.135   2.081   8.550
 6101POPC   C2B24008  28.168   2.049   8.250
 6101POPC   C3B24009  28.173   2.032   7.950
 6101POPC   C4B24010  28.112   2.111   7.650
 6102POPC   NC324011  34.591  30.714   9.450
 6102POPC   PO424012  34.548  30.657   9.150
 6102POPC   GL124013  34.548  30.686   8.850
 6102POPC   GL224014  34.594  30.583   8.850
 6102POPC   C1A24015  34.579  30.730   8.550
 6102POPC   D2A24016  34.608  30.659   8.250
 6102POPC   C3A24017  34.570  30.687   7.950
 6102POPC   C4A24018  34.538  30.718   7.650
 6102POPC   C1B24019  34.577  30.447   8.550
 6102POPC   C2B24020  34.534  30.467   8.250
 6102POPC   C3B24021  34.512  30.471   7.950
 6102POPC   C4B24022  34.557  30.447   7.650
 6103POPC   NC324023   6.596   6.659   9.450
 6103POPC   PO424024   6.601   6.626   9.150
 6103POPC   GL124025   6.682   6.618   8.850
 6103POPC   GL224026   6.739   6.770   8.850
 6103POPC   C1A24027   6.695   6.693   8.550
 6103POPC   D2A24028   6.607   6.662   8.250
 6103POPC   C3A24029   6.629   6.644   7.950
 6103POPC   C4A24030   6.659   6.685   7.650
 6103POPC   C1B24031   6.820   6.863   8.550
 6103POPC   C2B24032   6.791   6.799   8.250
 6103POPC   C3B24033   6.855   6.819   7.950
 6103POPC   C4B24034   6.837   6.863   7.650
 6104POPC   NC324035  35.317   2.026   9.450
 6104POPC   PO424036  35.366   1.996   9.150
 6104POPC   GL124037  35.396   2.028   8.850
 6104POPC   GL224038  35.201   2.017   8.850
 6104POPC   C1A24039  35.378   2.036   8.550
 6104POPC   D2A24040  35.303   2.011   8.250
 6104POPC   C3A24041  35.372   2.018   7.950
 6104POPC   C4A24042  35.391   1.941   7.650
 6104POPC   C1B24043  35.146   2.092   8.550
 6104POPC   C2B24044  35.121   2.048   8.250
 6104POPC   C3B24045  35.157   2.104   7.950
 6104POPC   C4B24046  35.111   2.044   7.650
 6105POPC   NC324047  23.710  36.891   9.450
 6105POPC   PO424048  23.734  36.867   9.150
 6105POPC   GL124049  23.700  36.891   8.850
 6105POPC   GL224050  23.795  36.821   8.850
 6105POPC   C1A24051  23.689  36.900   8.550
 6105POPC   D2A24052  23.755  36.933   8.250
 6105POPC   C3A24053  23.761  36.931   7.950
 6105POPC   C4A24054  23.734  36.927   7.650
 6105POPC   C1B24055  23.882  36.713   8.550
 6105POPC   C2B24056  23.911  36.794   8.250
 6105POPC   C3B24057  23.955  36.788   7.950
 6105POPC   C4B24058  23.940  36.810   7.650
 6106POPC   NC324059  21.380  12.841   9.450
 6106POPC   PO424060  21.340  12.851   9.150
 6106POPC   GL124061  21.398  12.881   8.850
 6106POPC   GL224062  21.319  12.932   8.850
 6106POPC   C1A24063  21.418  12.901   8.550
 6106POPC   D2A24064  21.435  12.875   8.250
 6106POPC   C3A24065  21.400  12.831   7.950
 6106POPC   C4A24066  21.383  12.901   7.650
 6106POPC   C1B24067  21.241  13.023   8.550
 6106POPC   C2B24068  21.253  13.099   8.250
 6106POPC   C3B24069  21.255  13.035   7.950
 6106POPC   C4B24070  21.222  13.041   7.650
 6107POPC   NC324071   2.806  16.773   9.450
 6107POPC   PO424072   2.787  16.741   9.150
 6107POPC   GL124073   2.798  16.726   8.850
 6107POPC   GL224074   2.748  16.814   8.850
 6107POPC   C1A24075   2.785  16.750   8.550
 6107POPC   D2A24076   2.785  16.780   8.250
 6107POPC   C3A24077   2.782  16.732   7.950
 6107POPC   C4A24078   2.757  16.711   7.650
 6107POPC   C1B24079   2.684  16.924   8.550
 6107POPC   C2B24080   2.631  16.929   8.250
 6107POPC   C3B24081   2.686  16.962   7.950
 6107POPC   C4B24082   2.677  16.914   7.650
 6108POPC   NC324083   9.727  17.515   9.450
 6108POPC   PO424084   9.764  17.523   9.150
 6108POPC   GL124085   9.720  17.494   8.850
 6108POPC   GL224086   9.848  17.595   8.850
 6108POPC   C1A24087   9.787  17.551   8.550
 6108POPC   D2A24088   9.783  17.465   8.250
 6108POPC   C3A24089   9.747  17.470   7.950
 6108POPC   C4A24090   9.744  17.479   7.650
 6108POPC   C1B24091   9.915  17.720   8.550
 6108POPC   C2B24092   9.846  17.724   8.250
 6108POPC   C3B24093   9.903  17.684   7.950
 6108POPC   C4B24094   9.843  17.740   7.650
 6109POPC   NC324095  33.814  12.098   9.450
 6109POPC   PO424096  33.792  12.033   9.150
 6109POPC   GL124097  33.764  12.042   8.850
 6109POPC   GL224098  33.638  12.103   8.850
 6109POPC   C1A24099  33.770  12.055   8.550
 6109POPC   D2A24100  33.766  12.089   8.250
 6109POPC   C3A24101  33.786  12.055   7.950
 6109POPC   C4A24102  33.808  12.044   7.650
 6109POPC   C1B24103  33.545  12.189   8.550
 6109POPC   C2B24104  33.519  12.184   8.250
 6109POPC   C3B24105  33.536  12.139   7.950
 6109POPC   C4B24106  33.538  12.114   7.650
 6110POPC   NC324107  19.873  24.497   9.450
 6110POPC   PO424108  19.833  24.480   9.150
 6110POPC   GL124109  19.849  24.441   8.850
 6110POPC   GL224110  19.948  24.388   8.850
 6110POPC   C1A24111  19.818  24.494   8.550
 6110POPC   D2A24112  19.850  24.495   8.250
 6110POPC   C3A24113  19.839  24.501   7.950
 6110POPC   C4A24114  19.851  24.531   7.650
 6110POPC   C1B24115  20.054  24.323   8.550
 6110POPC   C2B24116  20.102  24.340   8.250
 6110POPC   C3B24117  20.058  24.411   7.950
 6110POPC   C4B24118  20.033  24.345   7.650
 6111POPC   NC324119  43.160  40.797   9.450
 6111POPC   PO424120  43.077  40.827   9.150
 6111POPC   GL124121  43.130  40.815   8.850
 6111POPC   GL224122  43.269  40.705   8.850
 6111POPC   C1A24123  43.067  40.740   8.550
 6111POPC   D2A24124  43.110  40.811   8.250
 6111POPC   C3A24125  43.104  40.739   7.950
 6111POPC   C4A24126  43.147  40.768   7.650
 6111POPC   C1B24127  43.342  40.724   8.550
 6111POPC   C2B24128  43.386  40.746   8.250
 6111POPC   C3B24129  43.395  40.711   7.950
 6111POPC   C4B24130  43.380  40.722   7.650
 6112POPC   NC324131   3.572  40.744   9.450
 6112POPC   PO424132   3.542  40.804   9.150
 6112POPC   GL124133   3.511  40.765   8.850
 6112POPC   GL224134   3.688  40.833   8.850
 6112POPC   C1A24135   3.500  40.808   8.550
 6112POPC   D2A24136   3.520  40.804   8.250
 6112POPC   C3A24137   3.549  40.780   7.950
 6112POPC   C4A24138   3.550  40.737   7.650
 6112POPC   C1B24139   3.775  40.913   8.550
 6112POPC   C2B24140   3.781  40.873   8.250
 6112POPC   C3B24141   3.773  40.861   7.950
 6112POPC   C4B24142   3.735  40.912   7.650
 6113POPC   NC324143  37.698   7.410   9.450
 6113POPC   PO424144  37.707   7.421   9.150
 6113POPC   GL124145  37.657   7.455   8.850
 6113POPC   GL224146  37.733   7.590   8.850
 6113POPC   C1A24147  37.691   7.410   8.550
 6113POPC   D2A24148  37.650   7.378   8.250
 6113POPC   C3A24149  37.699   7.392   7.950
 6113POPC   C4A24150  37.686   7.388   7.650
 6113POPC   C1B24151  37.760   7.674   8.550
 6113POPC   C2B24152  37.743   7.678   8.250
 6113POPC   C3B24153  37.792   7.615   7.950
 6113POPC   C4B24154  37.739   7.641   7.650
 6114POPC   NC324155   2.776  42.294   9.450
 6114POPC   PO424156   2.777  42.309   9.150
 6114POPC   GL124157   2.779  42.352   8.850
 6114POPC   GL224158   2.789  42.493   8.850
 6114POPC   C1A24159   2.720  42.359   8.550
 6114POPC   D2A24160   2.728  42.311   8.250
 6114POPC   C3A24161   2.758  42.371   7.950
 6114POPC   C4A24162   2.738  42.310   7.650
 6114POPC   C1B24163   2.746  42.553   8.550
 6114POPC   C2B24164   2.722  42.548   8.250
 6114POPC   C3B24165   2.772  42.596   7.950
 6114POPC   C4B24166   2.727  42.539   7.650
 6115POPC   NC324167  37.700  43.852   9.450
 6115POPC   PO424168  37.708  43.934   9.150
 6115POPC   GL124169  37.722  43.936   8.850
 6115POPC   GL224170  37.691  43.738   8.850
 6115POPC   C1A24171  37.699  43.862   8.550
 6115POPC   D2A24172  37.638  43.930   8.250
 6115POPC   C3A24173  37.696  43.852   7.950
 6115POPC   C4A24174  37.718  43.911   7.650
 6115POPC   C1B24175  37.752  43.640   8.550
 6115POPC   C2B24176  37.782  43.637   8.250
 6115POPC   C3B24177  37.729  43.664   7.950
 6115POPC   C4B24178  37.817  43.654   7.650
 6116POPC   NC324179  27.633  33.826   9.450
 6116POPC   PO424180  27.633  33.831   9.150
 6116POPC   GL124181  27.640  33.797   8.850
 6116POPC   GL224182  27.514  33.710   8.850
 6116POPC   C1A24183  27.618  33.812   8.550
 6116POPC   D2A24184  27.593  33.751   8.250
 6116POPC   C3A24185  27.578  33.791   7.950
 6116POPC   C4A24186  27.604  33.752   7.650
 6116POPC   C1B24187  27.324  33.738   8.550
 6116POPC   C2B24188  27.324  33.689   8.250
 6116POPC   C3B24189  27.392  33.655   7.950
 6116POPC   C4B24190  27.366  33.679   7.650
 6117POPC   NC324191  33.073  30.687   9.450
 6117POPC   PO424192  33.034  30.685   9.150
 6117POPC   GL124193  32.994  30.729   8.850
 6117POPC   GL224194  33.157  30.706   8.850
 6117POPC   C1A24195  33.069  30.723   8.550
 6117POPC   D2A24196  32.997  30.656   8.250
 6117POPC   C3A24197  33.055  30.738   7.950
 6117POPC   C4A24198  33.042  30.712   7.650
 6117POPC   C1B24199  33.245  30.798   8.550
 6117POPC   C2B24200  33.240  30.765   8.250
 6117POPC   C3B24201  33.302  30.843   7.950
 6117POPC   C4B24202  33.239  30.807   7.650
 6118POPC   NC324203  25.288  16.723   9.450
 6118POPC   PO424204  25.279  16.774   9.150
 6118POPC   GL124205  25.252  16.738   8.850
 6118POPC   GL224206  25.365  16.826   8.850
 6118POPC   C1A24207  25.304  16.722   8.550
 6118POPC   D2A24208  25.259  16.768   8.250
 6118POPC   C3A24209  25.286  16.762   7.950
 6118POPC   C4A24210  25.292  16.701   7.650
 6118POPC   C1B24211  25.471  16.930   8.550
 6118POPC   C2B24212  25.448  16.877   8.250
 6118POPC   C3B24213  25.434  16.920   7.950
 6118POPC   C4B24214  25.403  16.923   7.650
 6119POPC   NC324215  12.086  44.684   9.450
 6119POPC   PO424216  12.073  44.690   9.150
 6119POPC   GL124217  12.052  44.712   8.850
 6119POPC   GL224218  12.009  44.712   8.850
 6119POPC   C1A24219  12.042  44.693   8.550
 6119POPC   D2A24220  12.044  44.638   8.250
 6119POPC   C3A24221  12.100  44.656   7.950
 6119POPC   C4A24222  12.051  44.644   7.650
 6119POPC   C1B24223  11.875  44.764   8.550
 6119POPC   C2B24224  11.800  44.722   8.250
 6119POPC   C3B24225  11.830  44.795   7.950
 6119POPC   C4B24226  11.828  44.782   7.650
 6120POPC   NC324227  43.073   5.136   9.450
 6120POPC   PO424228  43.156   5.065   9.150
 6120POPC   GL124229  43.085   5.142   8.850
 6120POPC   GL224230  43.226   4.999   8.850
 6120POPC   C1A24231  43.112   5.111   8.550
 6120POPC   D2A24232  43.137   5.073   8.250
 6120POPC   C3A24233  43.072   5.107   7.950
 6120POPC   C4A24234  43.097   5.106   7.650
 6120POPC   C1B24235  43.284   4.958   8.550
 6120POPC   C2B24236  43.289   4.932   8.250
 6120POPC   C3B24237  43.282   4.972   7.950
 6120POPC   C4B24238  43.302   4.888   7.650
 6121POPC   NC324239  33.770  11.344   9.450
 6121POPC   PO424240  33.750  11.255   9.150
 6121POPC   GL124241  33.769  11.324   8.850
 6121POPC   GL224242  33.705  11.298   8.850
 6121POPC   C1A24243  33.842  11.306   8.550
 6121POPC   D2A24244  33.829  11.327   8.250
 6121POPC   C3A24245  33.752  11.321   7.950
 6121POPC   C4A24246  33.812  11.299   7.650
 6121POPC   C1B24247  33.545  11.330   8.550
 6121POPC   C2B24248  33.574  11.355   8.250
 6121POPC   C3B24249  33.530  11.287   7.950
 6121POPC   C4B24250  33.596  11.380   7.650
 6122POPC   NC324251  40.750  22.916   9.450
 6122POPC   PO424252  40.763  22.959   9.150
 6122POPC   GL124253  40.778  22.944   8.850
 6122POPC   GL224254  40.808  23.086   8.850
 6122POPC   C1A24255  40.759  22.949   8.550
 6122POPC   D2A24256  40.785  22.962   8.250
 6122POPC   C3A24257  40.797  22.946   7.950
 6122POPC   C4A24258  40.773  22.927   7.650
 6122POPC   C1B24259  40.745  23.191   8.550
 6122POPC   C2B24260  40.784  23.147   8.250
 6122POPC   C3B24261  40.729  23.158   7.950
 6122POPC   C4B24262  40.760  23.229   7.650
 6123POPC   NC324263   6.666  33.024   9.450
 6123POPC   PO424264   6.676  33.035   9.150
 6123POPC   GL124265   6.651  33.003   8.850
 6123POPC   GL224266   6.623  33.151   8.850
 6123POPC   C1A24267   6.601  33.024   8.550
 6123POPC   D2A24268   6.683  32.980   8.250
 6123POPC   C3A24269   6.670  33.016   7.950
 6123POPC   C4A24270   6.673  33.025   7.650
 6123POPC   C1B24271   6.571  33.229   8.550
 6123POPC   C2B24272   6.622  33.241   8.250
 6123POPC   C3B24273   6.667  33.234   7.950
 6123POPC   C4B24274   6.621  33.293   7.650
 6124POPC   NC324275  36.945  26.832   9.450
 6124POPC   PO424276  36.916  26.800   9.150
 6124POPC   GL124277  36.903  26.796   8.850
 6124POPC   GL224278  36.793  26.899   8.850
 6124POPC   C1A24279  36.913  26.863   8.550
 6124POPC   D2A24280  36.877  26.773   8.250
 6124POPC   C3A24281  36.854  26.817   7.950
 6124POPC   C4A24282  36.892  26.791   7.650
 6124POPC   C1B24283  36.653  26.938   8.550
 6124POPC   C2B24284  36.703  26.925   8.250
 6124POPC   C3B24285  36.698  26.995   7.950
 6124POPC   C4B24286  36.750  26.961   7.650
 6125POPC   NC324287  20.564  33.811   9.450
 6125POPC   PO424288  20.610  33.841   9.150
 6125POPC   GL124289  20.635  33.769   8.850
 6125POPC   GL224290  20.556  33.924   8.850
 6125POPC   C1A24291  20.585  33.767   8.550
 6125POPC   D2A24292  20.610  33.754   8.250
 6125POPC   C3A24293  20.607  33.814   7.950
 6125POPC   C4A24294  20.660  33.841   7.650
 6125POPC   C1B24295  20.501  33.995   8.550
 6125POPC   C2B24296  20.514  34.049   8.250
 6125POPC   C3B24297  20.502  33.997   7.950
 6125POPC   C4B24298  20.485  34.042   7.650
 6126POPC   NC324299  19.787  21.400   9.450
 6126POPC   PO424300  19.797  21.417   9.150
 6126POPC   GL124301  19.861  21.346   8.850
 6126POPC   GL224302  19.908  21.279   8.850
 6126POPC   C1A24303  19.848  21.371   8.550
 6126POPC   D2A24304  19.855  21.404   8.250
 6126POPC   C3A24305  19.806  21.431   7.950
 6126POPC   C4A24306  19.785  21.378   7.650
 6126POPC   C1B24307  19.932  21.197   8.550
 6126POPC   C2B24308  19.957  21.127   8.250
 6126POPC   C3B24309  19.888  21.148   7.950
 6126POPC   C4B24310  19.912  21.191   7.650
 6127POPC   NC324311  18.291   1.184   9.450
 6127POPC   PO424312  18.269   1.250   9.150
 6127POPC   GL124313  18.317   1.191   8.850
 6127POPC   GL224314  18.253   1.350   8.850
 6127POPC   C1A24315  18.331   1.212   8.550
 6127POPC   D2A24316  18.263   1.187   8.250
 6127POPC   C3A24317  18.268   1.177   7.950
 6127POPC   C4A24318  18.271   1.200   7.650
 6127POPC   C1B24319  18.194   1.414   8.550
 6127POPC   C2B24320  18.268   1.426   8.250
 6127POPC   C3B24321  18.240   1.429   7.950
 6127POPC   C4B24322  18.232   1.436   7.650
 6128POPC   NC324323  25.234  37.700   9.450
 6128POPC   PO424324  25.245  37.648   9.150
 6128POPC   GL124325  25.297  37.635   8.850
 6128POPC   GL224326  25.258  37.761   8.850
 6128POPC   C1A24327  25.304  37.649   8.550
 6128POPC   D2A24328  25.300  37.672   8.250
 6128POPC   C3A24329  25.290  37.718   7.950
 6128POPC   C4A24330  25.244  37.685   7.650
 6128POPC   C1B24331  25.329  37.887   8.550
 6128POPC   C2B24332  25.339  37.966   8.250
 6128POPC   C3B24333  25.336  37.962   7.950
 6128POPC   C4B24334  25.272  37.907   7.650
 6129POPC   NC324335  15.956  40.746   9.450
 6129POPC   PO424336  15.937  40.798   9.150
 6129POPC   GL124337  15.930  40.762   8.850
 6129POPC   GL224338  15.968  40.706   8.850
 6129POPC   C1A24339  15.979  40.816   8.550
 6129POPC   D2A24340  15.908  40.790   8.250
 6129POPC   C3A24341  15.948  40.831   7.950
 6129POPC   C4A24342  15.948  40.754   7.650
 6129POPC   C1B24343  16.108  40.566   8.550
 6129POPC   C2B24344  16.024  40.589   8.250
 6129POPC   C3B24345  16.110  40.560   7.950
 6129POPC   C4B24346  16.115  40.561   7.650
 6130POPC   NC324347  42.301   0.488   9.450
 6130POPC   PO424348  42.372   0.475   9.150
 6130POPC   GL124349  42.356   0.443   8.850
 6130POPC   GL224350  42.213   0.313   8.850
 6130POPC   C1A24351  42.371   0.439   8.550
 6130POPC   D2A24352  42.342   0.413   8.250
 6130POPC   C3A24353  42.351   0.394   7.950
 6130POPC   C4A24354  42.301   0.470   7.650
 6130POPC   C1B24355  42.163   0.295   8.550
 6130POPC   C2B24356  42.122   0.258   8.250
 6130POPC   C3B24357  42.093   0.289   7.950
 6130POPC   C4B24358  42.130   0.263   7.650
 6131POPC   NC324359  34.621   6.693   9.450
 6131POPC   PO424360  34.538   6.638   9.150
 6131POPC   GL124361  34.574   6.683   8.850
 6131POPC   GL224362  34.540   6.565   8.850
 6131POPC   C1A24363  34.604   6.645   8.550
 6131POPC   D2A24364  34.538   6.648   8.250
 6131POPC   C3A24365  34.606   6.620   7.950
 6131POPC   C4A24366  34.615   6.694   7.650
 6131POPC   C1B24367  34.449   6.447   8.550
 6131POPC   C2B24368  34.467   6.445   8.250
 6131POPC   C3B24369  34.445   6.420   7.950
 6131POPC   C4B24370  34.454   6.405   7.650
 6132POPC   NC324371  10.550  28.389   9.450
 6132POPC   PO424372  10.508  28.376   9.150
 6132POPC   GL124373  10.516  28.342   8.850
 6132POPC   GL224374  10.508  28.274   8.850
 6132POPC   C1A24375  10.480  28.382   8.550
 6132POPC   D2A24376  10.541  28.324   8.250
 6132POPC   C3A24377  10.512  28.378   7.950
 6132POPC   C4A24378  10.487  28.350   7.650
 6132POPC   C1B24379  10.566  28.093   8.550
 6132POPC   C2B24380  10.610  28.155   8.250
 6132POPC   C3B24381  10.535  28.101   7.950
 6132POPC   C4B24382  10.544  28.102   7.650
 6133POPC   NC324383   1.996  39.261   9.450
 6133POPC   PO424384   2.021  39.238   9.150
 6133POPC   GL124385   2.026  39.278   8.850
 6133POPC   GL224386   2.024  39.360   8.850
 6133POPC   C1A24387   1.950  39.186   8.550
 6133POPC   D2A24388   2.024  39.230   8.250
 6133POPC   C3A24389   1.963  39.229   7.950
 6133POPC   C4A24390   1.946  39.242   7.650
 6133POPC   C1B24391   1.983  39.432   8.550
 6133POPC   C2B24392   2.003  39.516   8.250
 6133POPC   C3B24393   1.950  39.452   7.950
 6133POPC   C4B24394   2.046  39.492   7.650
 6134POPC   NC324395  35.342  22.119   9.450
 6134POPC   PO424396  35.348  22.158   9.150
 6134POPC   GL124397  35.327  22.144   8.850
 6134POPC   GL224398  35.177  22.110   8.850
 6134POPC   C1A24399  35.330  22.158   8.550
 6134POPC   D2A24400  35.326  22.198   8.250
 6134POPC   C3A24401  35.361  22.171   7.950
 6134POPC   C4A24402  35.359  22.160   7.650
 6134POPC   C1B24403  35.089  22.150   8.550
 6134POPC   C2B24404  35.116  22.126   8.250
 6134POPC   C3B24405  35.146  22.121   7.950
 6134POPC   C4B24406  35.124  22.184   7.650
 6135POPC   NC324407   7.457  43.896   9.450
 6135POPC   PO424408   7.460  43.876   9.150
 6135POPC   GL124409   7.420  43.836   8.850
 6135POPC   GL224410   7.456  43.976   8.850
 6135POPC   C1A24411   7.388  43.887   8.550
 6135POPC   D2A24412   7.432  43.858   8.250
 6135POPC   C3A24413   7.457  43.853   7.950
 6135POPC   C4A24414   7.458  43.918   7.650
 6135POPC   C1B24415   7.562  44.057   8.550
 6135POPC   C2B24416   7.578  44.069   8.250
 6135POPC   C3B24417   7.513  44.121   7.950
 6135POPC   C4B24418   7.583  44.139   7.650
 6136POPC   NC324419  13.597   1.187   9.450
 6136POPC   PO424420  13.627   1.228   9.150
 6136POPC   GL124421  13.664   1.191   8.850
 6136POPC   GL224422  13.558   1.275   8.850
 6136POPC   C1A24423  13.637   1.176   8.550
 6136POPC   D2A24424  13.674   1.205   8.250
 6136POPC   C3A24425  13.627   1.242   7.950
 6136POPC   C4A24426  13.617   1.248   7.650
 6136POPC   C1B24427  13.519   1.387   8.550
 6136POPC   C2B24428  13.519   1.441   8.250
 6136POPC   C3B24429  13.527   1.452   7.950
 6136POPC   C4B24430  13.511   1.436   7.650
 6137POPC   NC324431  36.139  31.468   9.450
 6137POPC   PO424432  36.098  31.438   9.150
 6137POPC   GL124433  36.119  31.514   8.850
 6137POPC   GL224434  36.134  31.314   8.850
 6137POPC   C1A24435  36.089  31.429   8.550
 6137POPC   D2A24436  36.085  31.495   8.250
 6137POPC   C3A24437  36.101  31.488   7.950
 6137POPC   C4A24438  36.133  31.426   7.650
 6137POPC   C1B24439  36.024  31.275   8.550
 6137POPC   C2B24440  36.007  31.253   8.250
 6137POPC   C3B24441  36.104  31.213   7.950
 6137POPC   C4B24442  36.072  31.187   7.650
 6138POPC   NC324443   0.443  43.881   9.450
 6138POPC   PO424444   0.480  43.841   9.150
 6138POPC   GL124445   0.478  43.900   8.850
 6138POPC   GL224446   0.536  43.802   8.850
 6138POPC   C1A24447   0.449  43.897   8.550
 6138POPC   D2A24448   0.440  43.934   8.250
 6138POPC   C3A24449   0.447  43.902   7.950
 6138POPC   C4A24450   0.424  43.881   7.650
 6138POPC   C1B24451   0.511  43.669   8.550
 6138POPC   C2B24452   0.596  43.665   8.250
 6138POPC   C3B24453   0.546  43.667   7.950
 6138POPC   C4B24454   0.519  43.621   7.650
 6139POPC   NC324455  32.282  12.842   9.450
 6139POPC   PO424456  32.257  12.868   9.150
 6139POPC   GL124457  32.238  12.808   8.850
 6139POPC   GL224458  32.222  12.774   8.850
 6139POPC   C1A24459  32.249  12.863   8.550
 6139POPC   D2A24460  32.205  12.866   8.250
 6139POPC   C3A24461  32.279  12.895   7.950
 6139POPC   C4A24462  32.292  12.858   7.650
 6139POPC   C1B24463  32.242  12.630   8.550
 6139POPC   C2B24464  32.265  12.576   8.250
 6139POPC   C3B24465  32.263  12.592   7.950
 6139POPC   C4B24466  32.232  12.642   7.650
 6140POPC   NC324467  32.222  33.845   9.450
 6140POPC   PO424468  32.201  33.782   9.150
 6140POPC   GL124469  32.298  33.801   8.850
 6140POPC   GL224470  32.338  33.703   8.850
 6140POPC   C1A24471  32.207  33.796   8.550
 6140POPC   D2A24472  32.265  33.822   8.250
 6140POPC   C3A24473  32.253  33.798   7.950
 6140POPC   C4A24474  32.281  33.844   7.650
 6140POPC   C1B24475  32.478  33.733   8.550
 6140POPC   C2B24476  32.525  33.712   8.250
 6140POPC   C3B24477  32.498  33.717   7.950
 6140POPC   C4B24478  32.485  33.678   7.650
 6141POPC   NC324479  30.672   4.364   9.450
 6141POPC   PO424480  30.656   4.328   9.150
 6141POPC   GL124481  30.675   4.366   8.850
 6141POPC   GL224482  30.546   4.311   8.850
 6141POPC   C1A24483  30.716   4.331   8.550
 6141POPC   D2A24484  30.718   4.291   8.250
 6141POPC   C3A24485  30.739   4.303   7.950
 6141POPC   C4A24486  30.692   4.357   7.650
 6141POPC   C1B24487  30.440   4.368   8.550
 6141POPC   C2B24488  30.480   4.351   8.250
 6141POPC   C3B24489  30.453   4.333   7.950
 6141POPC   C4B24490  30.499   4.374   7.650
 6142POPC   NC324491  16.707   3.500   9.450
 6142POPC   PO424492  16.768   3.548   9.150
 6142POPC   GL124493  16.681   3.503   8.850
 6142POPC   GL224494  16.799   3.470   8.850
 6142POPC   C1A24495  16.692   3.492   8.550
 6142POPC   D2A24496  16.682   3.539   8.250
 6142POPC   C3A24497  16.722   3.495   7.950
 6142POPC   C4A24498  16.682   3.590   7.650
 6142POPC   C1B24499  16.931   3.450   8.550
 6142POPC   C2B24500  16.940   3.405   8.250
 6142POPC   C3B24501  16.915   3.460   7.950
 6142POPC   C4B24502  16.953   3.468   7.650
 6143POPC   NC324503  11.332  32.977   9.450
 6143POPC   PO424504  11.301  33.027   9.150
 6143POPC   GL124505  11.337  33.038   8.850
 6143POPC   GL224506  11.247  32.920   8.850
 6143POPC   C1A24507  11.272  33.051   8.550
 6143POPC   D2A24508  11.337  33.004   8.250
 6143POPC   C3A24509  11.332  33.039   7.950
 6143POPC   C4A24510  11.324  32.995   7.650
 6143POPC   C1B24511  11.151  32.843   8.550
 6143POPC   C2B24512  11.175  32.818   8.250
 6143POPC   C3B24513  11.148  32.859   7.950
 6143POPC   C4B24514  11.114  32.832   7.650
 6144POPC   NC324515  32.984   9.018   9.450
 6144POPC   PO424516  32.990   9.011   9.150
 6144POPC   GL124517  33.037   8.994   8.850
 6144POPC   GL224518  33.009   9.124   8.850
 6144POPC   C1A24519  33.010   8.943   8.550
 6144POPC   D2A24520  33.071   8.950   8.250
 6144POPC   C3A24521  33.068   8.987   7.950
 6144POPC   C4A24522  32.984   8.957   7.650
 6144POPC   C1B24523  33.086   9.262   8.550
 6144POPC   C2B24524  33.003   9.248   8.250
 6144POPC   C3B24525  33.048   9.258   7.950
 6144POPC   C4B24526  33.030   9.240   7.650
 6145POPC   NC324527  19.833  30.729   9.450
 6145POPC   PO424528  19.841  30.707   9.150
 6145POPC   GL124529  19.878  30.651   8.850
 6145POPC   GL224530  19.986  30.644   8.850
 6145POPC   C1A24531  19.843  30.654   8.550
 6145POPC   D2A24532  19.852  30.703   8.250
 6145POPC   C3A24533  19.826  30.735   7.950
 6145POPC   C4A24534  19.878  30.710   7.650
 6145POPC   C1B24535  20.109  30.682   8.550
 6145POPC   C2B24536  20.116  30.676   8.250
 6145POPC   C3B24537  20.130  30.712   7.950
 6145POPC   C4B24538  20.063  30.720   7.650
 6146POPC   NC324539   5.874  36.904   9.450
 6146POPC   PO424540   5.836  36.907   9.150
 6146POPC   GL124541   5.838  36.935   8.850
 6146POPC   GL224542   5.761  37.047   8.850
 6146POPC   C1A24543   5.879  36.903   8.550
 6146POPC   D2A24544   5.833  36.857   8.250
 6146POPC   C3A24545   5.826  36.870   7.950
 6146POPC   C4A24546   5.894  36.890   7.650
 6146POPC   C1B24547   5.694  37.080   8.550
 6146POPC   C2B24548   5.705  37.114   8.250
 6146POPC   C3B24549   5.786  37.125   7.950
 6146POPC   C4B24550   5.743  37.099   7.650
 6147POPC   NC324551  18.242  15.172   9.450
 6147POPC   PO424552  18.280  15.183   9.150
 6147POPC   GL124553  18.264  15.221   8.850
 6147POPC   GL224554  18.260  15.015   8.850
 6147POPC   C1A24555  18.313  15.220   8.550
 6147POPC   D2A24556  18.323  15.226   8.250
 6147POPC   C3A24557  18.272  15.214   7.950
 6147POPC   C4A24558  18.269  15.228   7.650
 6147POPC   C1B24559  18.320  14.944   8.550
 6147POPC   C2B24560  18.287  14.902   8.250
 6147POPC   C3B24561  18.317  14.967   7.950
 6147POPC   C4B24562  18.277  14.948   7.650
 6148POPC   NC324563  19.882  31.501   9.450
 6148POPC   PO424564  19.838  31.441   9.150
 6148POPC   GL124565  19.874  31.460   8.850
 6148POPC   GL224566  19.693  31.439   8.850
 6148POPC   C1A24567  19.822  31.481   8.550
 6148POPC   D2A24568  19.800  31.429   8.250
 6148POPC   C3A24569  19.844  31.490   7.950
 6148POPC   C4A24570  19.791  31.485   7.650
 6148POPC   C1B24571  19.579  31.424   8.550
 6148POPC   C2B24572  19.537  31.436   8.250
 6148POPC   C3B24573  19.587  31.480   7.950
 6148POPC   C4B24574  19.581  31.404   7.650
 6149POPC   NC324575  36.131  30.734   9.450
 6149POPC   PO424576  36.080  30.720   9.150
 6149POPC   GL124577  36.081  30.718   8.850
 6149POPC   GL224578  36.037  30.617   8.850
 6149POPC   C1A24579  36.135  30.660   8.550
 6149POPC   D2A24580  36.097  30.705   8.250
 6149POPC   C3A24581  36.118  30.708   7.950
 6149POPC   C4A24582  36.167  30.738   7.650
 6149POPC   C1B24583  35.898  30.571   8.550
 6149POPC   C2B24584  35.886  30.615   8.250
 6149POPC   C3B24585  35.858  30.593   7.950
 6149POPC   C4B24586  35.915  30.587   7.650
 6150POPC   NC324587  37.641  35.371   9.450
 6150POPC   PO424588  37.693  35.382   9.150
 6150POPC   GL124589  37.668  35.394   8.850
 6150POPC   GL224590  37.551  35.293   8.850
 6150POPC   C1A24591  37.724  35.307   8.550
 6150POPC   D2A24592  37.717  35.366   8.250
 6150POPC   C3A24593  37.670  35.331   7.950
 6150POPC   C4A24594  37.661  35.334   7.650
 6150POPC   C1B24595  37.398  35.376   8.550
 6150POPC   C2B24596  37.386  35.289   8.250
 6150POPC   C3B24597  37.453  35.328   7.950
 6150POPC   C4B24598  37.412  35.344   7.650
 6151POPC   NC324599  26.860  28.418   9.450
 6151POPC   PO424600  26.786  28.351   9.150
 6151POPC   GL124601  26.783  28.347   8.850
 6151POPC   GL224602  26.727  28.454   8.850
 6151POPC   C1A24603  26.780  28.329   8.550
 6151POPC   D2A24604  26.803  28.405   8.250
 6151POPC   C3A24605  26.853  28.385   7.950
 6151POPC   C4A24606  26.858  28.355   7.650
 6151POPC   C1B24607  26.592  28.501   8.550
 6151POPC   C2B24608  26.623  28.506   8.250
 6151POPC   C3B24609  26.647  28.501   7.950
 6151POPC   C4B24610  26.581  28.546   7.650
 6152POPC   NC324611  12.071   1.982   9.450
 6152POPC   PO424612  12.122   1.987   9.150
 6152POPC   GL124613  12.084   1.971   8.850
 6152POPC   GL224614  12.210   1.987   8.850
 6152POPC   C1A24615  12.081   1.994   8.550
 6152POPC   D2A24616  12.115   2.022   8.250
 6152POPC   C3A24617  12.087   2.036   7.950
 6152POPC   C4A24618  12.087   2.006   7.650
 6152POPC   C1B24619  12.329   1.948   8.550
 6152POPC   C2B24620  12.351   2.034   8.250
 6152POPC   C3B24621  12.373   2.040   7.950
 6152POPC   C4B24622  12.347   1.953   7.650
 6153POPC   NC324623   3.508  19.821   9.450
 6153POPC   PO424624   3.576  19.872   9.150
 6153POPC   GL124625   3.545  19.860   8.850
 6153POPC   GL224626   3.517  19.726   8.850
 6153POPC   C1A24627   3.519  19.809   8.550
 6153POPC   D2A24628   3.573  19.874   8.250
 6153POPC   C3A24629   3.535  19.870   7.950
 6153POPC   C4A24630   3.522  19.795   7.650
 6153POPC   C1B24631   3.454  19.604   8.550
 6153POPC   C2B24632   3.384  19.610   8.250
 6153POPC   C3B24633   3.385  19.657   7.950
 6153POPC   C4B24634   3.456  19.594   7.650
 6154POPC   NC324635  10.518  24.476   9.450
 6154POPC   PO424636  10.500  24.514   9.150
 6154POPC   GL124637  10.491  24.472   8.850
 6154POPC   GL224638  10.574  24.576   8.850
 6154POPC   C1A24639  10.479  24.497   8.550
 6154POPC   D2A24640  10.548  24.457   8.250
 6154POPC   C3A24641  10.520  24.485   7.950
 6154POPC   C4A24642  10.506  24.449   7.650
 6154POPC   C1B24643  10.685  24.642   8.550
 6154POPC   C2B24644  10.677  24.724   8.250
 6154POPC   C3B24645  10.717  24.688   7.950
 6154POPC   C4B24646  10.725  24.653   7.650
 6155POPC   NC324647  34.621   4.271   9.450
 6155POPC   PO424648  34.533   4.338   9.150
 6155POPC   GL124649  34.595   4.348   8.850
 6155POPC   GL224650  34.479   4.225   8.850
 6155POPC   C1A24651  34.570   4.269   8.550
 6155POPC   D2A24652  34.550   4.274   8.250
 6155POPC   C3A24653  34.603   4.310   7.950
 6155POPC   C4A24654  34.560   4.285   7.650
 6155POPC   C1B24655  34.388   4.163   8.550
 6155POPC   C2B24656  34.391   4.163   8.250
 6155POPC   C3B24657  34.382   4.094   7.950
 6155POPC   C4B24658  34.443   4.101   7.650
 6156POPC   NC324659   2.729  19.789   9.450
 6156POPC   PO424660   2.732  19.838   9.150
 6156POPC   GL124661   2.719  19.831   8.850
 6156POPC   GL224662   2.690  19.757   8.850
 6156POPC   C1A24663   2.805  19.833   8.550
 6156POPC   D2A24664   2.807  19.858   8.250
 6156POPC   C3A24665   2.814  19.870   7.950
 6156POPC   C4A24666   2.769  19.814   7.650
 6156POPC   C1B24667   2.612  19.602   8.550
 6156POPC   C2B24668   2.670  19.654   8.250
 6156POPC   C3B24669   2.688  19.589   7.950
 6156POPC   C4B24670   2.704  19.633   7.650
 6157POPC   NC324671  10.522   7.375   9.450
 6157POPC   PO424672  10.560   7.464   9.150
 6157POPC   GL124673  10.517   7.462   8.850
 6157POPC   GL224674  10.667   7.313   8.850
 6157POPC   C1A24675  10.500   7.450   8.550
 6157POPC   D2A24676  10.497   7.446   8.250
 6157POPC   C3A24677  10.527   7.431   7.950
 6157POPC   C4A24678  10.506   7.468   7.650
 6157POPC   C1B24679  10.707   7.272   8.550
 6157POPC   C2B24680  10.689   7.256   8.250
 6157POPC   C3B24681  10.750   7.266   7.950
 6157POPC   C4B24682  10.731   7.285   7.650
 6158POPC   NC324683  16.758   7.411   9.450
 6158POPC   PO424684  16.740   7.420   9.150
 6158POPC   GL124685  16.723   7.429   8.850
 6158POPC   GL224686  16.686   7.533   8.850
 6158POPC   C1A24687  16.735   7.420   8.550
 6158POPC   D2A24688  16.758   7.457   8.250
 6158POPC   C3A24689  16.735   7.418   7.950
 6158POPC   C4A24690  16.755   7.426   7.650
 6158POPC   C1B24691  16.751   7.669   8.550
 6158POPC   C2B24692  16.664   7.704   8.250
 6158POPC   C3B24693  16.673   7.663   7.950
 6158POPC   C4B24694  16.739   7.666   7.650
 6159POPC   NC324695  26.834   1.994   9.450
 6159POPC   PO424696  26.821   2.030   9.150
 6159POPC   GL124697  26.833   2.028   8.850
 6159POPC   GL224698  26.968   2.009   8.850
 6159POPC   C1A24699  26.784   1.956   8.550
 6159POPC   D2A24700  26.857   1.965   8.250
 6159POPC   C3A24701  26.772   2.006   7.950
 6159POPC   C4A24702  26.811   1.976   7.650
 6159POPC   C1B24703  27.062   2.089   8.550
 6159POPC   C2B24704  27.058   2.115   8.250
 6159POPC   C3B24705  27.000   2.074   7.950
 6159POPC   C4B24706  27.088   2.118   7.650
 6160POPC   NC324707  18.286  26.061   9.450
 6160POPC   PO424708  18.291  26.014   9.150
 6160POPC   GL124709  18.287  26.050   8.850
 6160POPC   GL224710  18.222  26.160   8.850
 6160POPC   C1A24711  18.294  26.082   8.550
 6160POPC   D2A24712  18.286  26.053   8.250
 6160POPC   C3A24713  18.263  26.034   7.950
 6160POPC   C4A24714  18.297  26.001   7.650
 6160POPC   C1B24715  18.193  26.273   8.550
 6160POPC   C2B24716  18.193  26.268   8.250
 6160POPC   C3B24717  18.238  26.253   7.950
 6160POPC   C4B24718  18.213  26.312   7.650
 6161POPC   NC324719  30.689  41.583   9.450
 6161POPC   PO424720  30.712  41.608   9.150
 6161POPC   GL124721  30.746  41.533   8.850
 6161POPC   GL224722  30.561  41.583   8.850
 6161POPC   C1A24723  30.666  41.607   8.550
 6161POPC   D2A24724  30.725  41.566   8.250
 6161POPC   C3A24725  30.714  41.564   7.950
 6161POPC   C4A24726  30.674  41.551   7.650
 6161POPC   C1B24727  30.431  41.494   8.550
 6161POPC   C2B24728  30.414  41.521   8.250
 6161POPC   C3B24729  30.454  41.518   7.950
 6161POPC   C4B24730  30.497  41.528   7.650
 6162POPC   NC324731   2.805  27.571   9.450
 6162POPC   PO424732   2.762  27.554   9.150
 6162POPC   GL124733   2.732  27.564   8.850
 6162POPC   GL224734   2.697  27.559   8.850
 6162POPC   C1A24735   2.716  27.602   8.550
 6162POPC   D2A24736   2.809  27.630   8.250
 6162POPC   C3A24737   2.807  27.581   7.950
 6162POPC   C4A24738   2.746  27.632   7.650
 6162POPC   C1B24739   2.561  27.501   8.550
 6162POPC   C2B24740   2.558  27.479   8.250
 6162POPC   C3B24741   2.536  27.487   7.950
 6162POPC   C4B24742   2.520  27.523   7.650
 6163POPC   NC324743  12.091  38.450   9.450
 6163POPC   PO424744  12.032  38.453   9.150
 6163POPC   GL124745  12.100  38.476   8.850
 6163POPC   GL224746  12.143  38.562   8.850
 6163POPC   C1A24747  12.051  38.479   8.550
 6163POPC   D2A24748  12.039  38.418   8.250
 6163POPC   C3A24749  12.095  38.451   7.950
 6163POPC   C4A24750  12.096  38.478   7.650
 6163POPC   C1B24751  12.109  38.707   8.550
 6163POPC   C2B24752  12.103  38.713   8.250
 6163POPC   C3B24753  12.170  38.676   7.950
 6163POPC   C4B24754  12.118  38.715   7.650
 6164POPC   NC324755  15.159  18.281   9.450
 6164POPC   PO424756  15.154  18.235   9.150
 6164POPC   GL124757  15.177  18.330   8.850
 6164POPC   GL224758  15.244  18.220   8.850
 6164POPC   C1A24759  15.150  18.291   8.550
 6164POPC   D2A24760  15.169  18.290   8.250
 6164POPC   C3A24761  15.146  18.235   7.950
 6164POPC   C4A24762  15.207  18.326   7.650
 6164POPC   C1B24763  15.393  18.181   8.550
 6164POPC   C2B24764  15.367  18.178   8.250
 6164POPC   C3B24765  15.411  18.150   7.950
 6164POPC   C4B24766  15.341  18.091   7.650
 6165POPC   NC324767  36.112  34.585   9.450
 6165POPC   PO424768  36.167  34.561   9.150
 6165POPC   GL124769  36.111  34.626   8.850
 6165POPC   GL224770  36.103  34.487   8.850
 6165POPC   C1A24771  36.107  34.603   8.550
 6165POPC   D2A24772  36.088  34.576   8.250
 6165POPC   C3A24773  36.114  34.599   7.950
 6165POPC   C4A24774  36.103  34.606   7.650
 6165POPC   C1B24775  36.048  34.336   8.550
 6165POPC   C2B24776  36.016  34.305   8.250
 6165POPC   C3B24777  36.076  34.316   7.950
 6165POPC   C4B24778  36.012  34.319   7.650
 6166POPC   NC324779   9.006  28.325   9.450
 6166POPC   PO424780   8.977  28.327   9.150
 6166POPC   GL124781   8.977  28.393   8.850
 6166POPC   GL224782   8.865  28.332   8.850
 6166POPC   C1A24783   8.971  28.346   8.550
 6166POPC   D2A24784   8.940  28.361   8.250
 6166POPC   C3A24785   8.977  28.344   7.950
 6166POPC   C4A24786   8.934  28.327   7.650
 6166POPC   C1B24787   8.737  28.236   8.550
 6166POPC   C2B24788   8.718  28.245   8.250
 6166POPC   C3B24789   8.753  28.286   7.950
 6166POPC   C4B24790   8.774  28.219   7.650
 6167POPC   NC324791  14.416  43.899   9.450
 6167POPC   PO424792  14.363  43.857   9.150
 6167POPC   GL124793  14.357  43.932   8.850
 6167POPC   GL224794  14.321  43.820   8.850
 6167POPC   C1A24795  14.435  43.872   8.550
 6167POPC   D2A24796  14.355  43.868   8.250
 6167POPC   C3A24797  14.440  43.907   7.950
 6167POPC   C4A24798  14.432  43.840   7.650
 6167POPC   C1B24799  14.206  43.735   8.550
 6167POPC   C2B24800  14.157  43.809   8.250
 6167POPC   C3B24801  14.170  43.796   7.950
 6167POPC   C4B24802  14.209  43.723   7.650
 6168POPC   NC324803   1.976  11.282   9.450
 6168POPC   PO424804   1.988  11.336   9.150
 6168POPC   GL124805   1.993  11.321   8.850
 6168POPC   GL224806   2.044  11.150   8.850
 6168POPC   C1A24807   2.000  11.293   8.550
 6168POPC   D2A24808   2.013  11.323   8.250
 6168POPC   C3A24809   2.027  11.316   7.950
 6168POPC   C4A24810   1.987  11.287   7.650
 6168POPC   C1B24811   1.992  11.098   8.550
 6168POPC   C2B24812   2.029  11.078   8.250
 6168POPC   C3B24813   2.044  11.050   7.950
 6168POPC   C4B24814   2.020  11.032   7.650
 6169POPC   NC324815  36.154  11.334   9.450
 6169POPC   PO424816  36.099  11.253   9.150
 6169POPC   GL124817  36.128  11.260   8.850
 6169POPC   GL224818  36.247  11.233   8.850
 6169POPC   C1A24819  36.176  11.342   8.550
 6169POPC   D2A24820  36.153  11.312   8.250
 6169POPC   C3A24821  36.148  11.273   7.950
 6169POPC   C4A24822  36.124  11.260   7.650
 6169POPC   C1B24823  36.354  11.268   8.550
 6169POPC   C2B24824  36.323  11.224   8.250
 6169POPC   C3B24825  36.379  11.278   7.950
 6169POPC   C4B24826  36.361  11.274   7.650
 6170POPC   NC324827  29.959  24.457   9.450
 6170POPC   PO424828  29.888  24.526   9.150
 6170POPC   GL124829  29.936  24.444   8.850
 6170POPC   GL224830  30.057  24.553   8.850
 6170POPC   C1A24831  29.922  24.483   8.550
 6170POPC   D2A24832  29.895  24.459   8.250
 6170POPC   C3A24833  29.963  24.501   7.950
 6170POPC   C4A24834  29.893  24.494   7.650
 6170POPC   C1B24835  30.152  24.546   8.550
 6170POPC   C2B24836  30.185  24.541   8.250
 6170POPC   C3B24837  30.151  24.566   7.950
 6170POPC   C4B24838  30.142  24.551   7.650
 6171POPC   NC324839   8.220  41.528   9.450
 6171POPC   PO424840   8.212  41.529   9.150
 6171POPC   GL124841   8.199  41.537   8.850
 6171POPC   GL224842   8.318  41.648   8.850
 6171POPC   C1A24843   8.226  41.561   8.550
 6171POPC   D2A24844   8.182  41.569   8.250
 6171POPC   C3A24845   8.187  41.537   7.950
 6171POPC   C4A24846   8.219  41.606   7.650
 6171POPC   C1B24847   8.342  41.772   8.550
 6171POPC   C2B24848   8.341  41.721   8.250
 6171POPC   C3B24849   8.377  41.752   7.950
 6171POPC   C4B24850   8.313  41.804   7.650
 6172POPC   NC324851  21.345  24.440   9.450
 6172POPC   PO424852  21.352  24.473   9.150
 6172POPC   GL124853  21.432  24.514   8.850
 6172POPC   GL224854  21.275  24.489   8.850
 6172POPC   C1A24855  21.361  24.507   8.550
 6172POPC   D2A24856  21.407  24.468   8.250
 6172POPC   C3A24857  21.339  24.474   7.950
 6172POPC   C4A24858  21.412  24.458   7.650
 6172POPC   C1B24859  21.163  24.508   8.550
 6172POPC   C2B24860  21.143  24.488   8.250
 6172POPC   C3B24861  21.184  24.525   7.950
 6172POPC   C4B24862  21.172  24.444   7.650
 6173POPC   NC324863  18.269  22.165   9.450
 6173POPC   PO424864  18.287  22.197   9.150
 6173POPC   GL124865  18.281  22.127   8.850
 6173POPC   GL224866  18.383  22.125   8.850
 6173POPC   C1A24867  18.256  22.133   8.550
 6173POPC   D2A24868  18.248  22.210   8.250
 6173POPC   C3A24869  18.292  22.181   7.950
 6173POPC   C4A24870  18.254  22.198   7.650
 6173POPC   C1B24871  18.441  21.957   8.550
 6173POPC   C2B24872  18.504  21.948   8.250
 6173POPC   C3B24873  18.455  21.979   7.950
 6173POPC   C4B24874  18.491  21.979   7.650
 6174POPC   NC324875   1.244  26.005   9.450
 6174POPC   PO424876   1.184  25.996   9.150
 6174POPC   GL124877   1.201  26.017   8.850
 6174POPC   GL224878   1.175  25.907   8.850
 6174POPC   C1A24879   1.211  26.047   8.550
 6174POPC   D2A24880   1.164  26.088   8.250
 6174POPC   C3A24881   1.187  26.018   7.950
 6174POPC   C4A24882   1.244  26.004   7.650
 6174POPC   C1B24883   1.080  25.799   8.550
 6174POPC   C2B24884   1.109  25.875   8.250
 6174POPC   C3B24885   1.068  25.877   7.950
 6174POPC   C4B24886   1.099  25.797   7.650
 6175POPC   NC324887   1.242  44.628   9.450
 6175POPC   PO424888   1.192  44.680   9.150
 6175POPC   GL124889   1.250  44.685   8.850
 6175POPC   GL224890   1.380  44.610   8.850
 6175POPC   C1A24891   1.195  44.697   8.550
 6175POPC   D2A24892   1.185  44.628   8.250
 6175POPC   C3A24893   1.264  44.636   7.950
 6175POPC   C4A24894   1.218  44.696   7.650
 6175POPC   C1B24895   1.417  44.623   8.550
 6175POPC   C2B24896   1.501  44.615   8.250
 6175POPC   C3B24897   1.494  44.670   7.950
 6175POPC   C4B24898   1.453  44.640   7.650
 6176POPC   NC324899   9.771  36.902   9.450
 6176POPC   PO424900   9.779  36.949   9.150
 6176POPC   GL124901   9.760  36.907   8.850
 6176POPC   GL224902   9.678  36.804   8.850
 6176POPC   C1A24903   9.739  36.902   8.550
 6176POPC   D2A24904   9.727  36.943   8.250
 6176POPC   C3A24905   9.708  36.869   7.950
 6176POPC   C4A24906   9.738  36.875   7.650
 6176POPC   C1B24907   9.682  36.643   8.550
 6176POPC   C2B24908   9.641  36.657   8.250
 6176POPC   C3B24909   9.600  36.648   7.950
 6176POPC   C4B24910   9.695  36.697   7.650
 6177POPC   NC324911   9.704   5.091   9.450
 6177POPC   PO424912   9.705   5.105   9.150
 6177POPC   GL124913   9.772   5.054   8.850
 6177POPC   GL224914   9.662   5.114   8.850
 6177POPC   C1A24915   9.731   5.086   8.550
 6177POPC   D2A24916   9.790   5.062   8.250
 6177POPC   C3A24917   9.793   5.092   7.950
 6177POPC   C4A24918   9.762   5.067   7.650
 6177POPC   C1B24919   9.513   5.168   8.550
 6177POPC   C2B24920   9.538   5.192   8.250
 6177POPC   C3B24921   9.484   5.211   7.950
 6177POPC   C4B24922   9.540   5.248   7.650
 6178POPC   NC324923  20.623  10.492   9.450
 6178POPC   PO424924  20.629  10.520   9.150
 6178POPC   GL124925  20.604  10.558   8.850
 6178POPC   GL224926  20.689  10.523   8.850
 6178POPC   C1A24927  20.601  10.562   8.550
 6178POPC   D2A24928  20.622  10.516   8.250
 6178POPC   C3A24929  20.640  10.506   7.950
 6178POPC   C4A24930  20.566  10.478   7.650
 6178POPC   C1B24931  20.881  10.515   8.550
 6178POPC   C2B24932  20.830  10.552   8.250
 6178POPC   C3B24933  20.830  10.502   7.950
 6178POPC   C4B24934  20.900  10.570   7.650
 6179POPC   NC324935  24.531  14.391   9.450
 6179POPC   PO424936  24.501  14.387   9.150
 6179POPC   GL124937  24.512  14.448   8.850
 6179POPC   GL224938  24.403  14.508   8.850
 6179POPC   C1A24939  24.529  14.362   8.550
 6179POPC   D2A24940  24.465  14.408   8.250
 6179POPC   C3A24941  24.510  14.373   7.950
 6179POPC   C4A24942  24.505  14.420   7.650
 6179POPC   C1B24943  24.294  14.578   8.550
 6179POPC   C2B24944  24.294  14.558   8.250
 6179POPC   C3B24945  24.321  14.572   7.950
 6179POPC   C4B24946  24.306  14.597   7.650
 6180POPC   NC324947   5.864   6.602   9.450
 6180POPC   PO424948   5.861   6.647   9.150
 6180POPC   GL124949   5.848   6.602   8.850
 6180POPC   GL224950   5.951   6.716   8.850
 6180POPC   C1A24951   5.892   6.693   8.550
 6180POPC   D2A24952   5.830   6.620   8.250
 6180POPC   C3A24953   5.892   6.608   7.950
 6180POPC   C4A24954   5.873   6.676   7.650
 6180POPC   C1B24955   5.956   6.876   8.550
 6180POPC   C2B24956   5.922   6.894   8.250
 6180POPC   C3B24957   5.956   6.826   7.950
 6180POPC   C4B24958   5.961   6.867   7.650
 6181POPC   NC324959   1.941  37.660   9.450
 6181POPC   PO424960   1.976  37.634   9.150
 6181POPC   GL124961   1.992  37.644   8.850
 6181POPC   GL224962   2.122  37.673   8.850
 6181POPC   C1A24963   1.963  37.681   8.550
 6181POPC   D2A24964   1.981  37.671   8.250
 6181POPC   C3A24965   1.963  37.647   7.950
 6181POPC   C4A24966   1.941  37.716   7.650
 6181POPC   C1B24967   2.198  37.627   8.550
 6181POPC   C2B24968   2.197  37.620   8.250
 6181POPC   C3B24969   2.214  37.658   7.950
 6181POPC   C4B24970   2.214  37.611   7.650
 6182POPC   NC324971   8.956   5.078   9.450
 6182POPC   PO424972   8.929   5.114   9.150
 6182POPC   GL124973   9.020   5.069   8.850
 6182POPC   GL224974   9.032   4.954   8.850
 6182POPC   C1A24975   8.981   5.116   8.550
 6182POPC   D2A24976   9.018   5.073   8.250
 6182POPC   C3A24977   8.959   5.051   7.950
 6182POPC   C4A24978   8.994   5.136   7.650
 6182POPC   C1B24979   9.067   4.887   8.550
 6182POPC   C2B24980   9.104   4.924   8.250
 6182POPC   C3B24981   9.100   4.866   7.950
 6182POPC   C4B24982   9.159   4.903   7.650
 6183POPC   NC324983  35.361  18.308   9.450
 6183POPC   PO424984  35.354  18.245   9.150
 6183POPC   GL124985  35.375  18.326   8.850
 6183POPC   GL224986  35.318  18.377   8.850
 6183POPC   C1A24987  35.358  18.254   8.550
 6183POPC   D2A24988  35.305  18.270   8.250
 6183POPC   C3A24989  35.373  18.319   7.950
 6183POPC   C4A24990  35.385  18.233   7.650
 6183POPC   C1B24991  35.222  18.478   8.550
 6183POPC   C2B24992  35.188  18.443   8.250
 6183POPC   C3B24993  35.203  18.472   7.950
 6183POPC   C4B24994  35.178  18.490   7.650
 6184POPC   NC324995  13.604  15.934   9.450
 6184POPC   PO424996  13.597  15.916   9.150
 6184POPC   GL124997  13.587  15.937   8.850
 6184POPC   GL224998  13.582  15.884   8.850
 6184POPC   C1A24999  13.666  15.983   8.550
 6184POPC   D2A25000  13.641  15.912   8.250
 6184POPC   C3A25001  13.677  15.935   7.950
 6184POPC   C4A25002  13.631  15.939   7.650
 6184POPC   C1B25003  13.450  15.771   8.550
 6184POPC   C2B25004  13.477  15.825   8.250
 6184POPC   C3B25005  13.497  15.798   7.950
 6184POPC   C4B25006  13.416  15.756   7.650
 6185POPC   NC325007  36.166  28.347   9.450
 6185POPC   PO425008  36.091  28.401   9.150
 6185POPC   GL125009  36.117  28.327   8.850
 6185POPC   GL225010  36.282  28.332   8.850
 6185POPC   C1A25011  36.112  28.348   8.550
 6185POPC   D2A25012  36.159  28.415   8.250
 6185POPC   C3A25013  36.111  28.361   7.950
 6185POPC   C4A25014  36.131  28.382   7.650
 6185POPC   C1B25015  36.310  28.269   8.550
 6185POPC   C2B25016  36.331  28.233   8.250
 6185POPC   C3B25017  36.365  28.277   7.950
 6185POPC   C4B25018  36.362  28.258   7.650
 6186POPC   NC325019   7.397  22.202   9.450
 6186POPC   PO425020   7.414  22.164   9.150
 6186POPC   GL125021   7.432  22.160   8.850
 6186POPC   GL225022   7.388  22.286   8.850
 6186POPC   C1A25023   7.417  22.120   8.550
 6186POPC   D2A25024   7.458  22.175   8.250
 6186POPC   C3A25025   7.469  22.116   7.950
 6186POPC   C4A25026   7.394  22.125   7.650
 6186POPC   C1B25027   7.361  22.444   8.550
 6186POPC   C2B25028   7.357  22.440   8.250
 6186POPC   C3B25029   7.352  22.370   7.950
 6186POPC   C4B25030   7.385  22.362   7.650
 6187POPC   NC325031  15.201  35.357   9.450
 6187POPC   PO425032  15.208  35.307   9.150
 6187POPC   GL125033  15.156  35.361   8.850
 6187POPC   GL225034  15.101  35.266   8.850
 6187POPC   C1A25035  15.220  35.343   8.550
 6187POPC   D2A25036  15.212  35.361   8.250
 6187POPC   C3A25037  15.208  35.373   7.950
 6187POPC   C4A25038  15.184  35.370   7.650
 6187POPC   C1B25039  15.008  35.175   8.550
 6187POPC   C2B25040  14.987  35.185   8.250
 6187POPC   C3B25041  14.998  35.198   7.950
 6187POPC   C4B25042  15.032  35.139   7.650
 6188POPC   NC325043   9.018   3.503   9.450
 6188POPC   PO425044   8.959   3.562   9.150
 6188POPC   GL125045   8.947   3.539   8.850
 6188POPC   GL225046   8.984   3.422   8.850
 6188POPC   C1A25047   9.002   3.541   8.550
 6188POPC   D2A25048   8.978   3.539   8.250
 6188POPC   C3A25049   8.948   3.545   7.950
 6188POPC   C4A25050   8.940   3.590   7.650
 6188POPC   C1B25051   8.903   3.280   8.550
 6188POPC   C2B25052   8.914   3.303   8.250
 6188POPC   C3B25053   8.896   3.331   7.950
 6188POPC   C4B25054   8.896   3.327   7.650
 6189POPC   NC325055  22.976  35.364   9.450
 6189POPC   PO425056  22.903  35.303   9.150
 6189POPC   GL125057  22.963  35.378   8.850
 6189POPC   GL225058  23.007  35.433   8.850
 6189POPC   C1A25059  22.937  35.312   8.550
 6189POPC   D2A25060  22.936  35.362   8.250
 6189POPC   C3A25061  22.907  35.329   7.950
 6189POPC   C4A25062  22.910  35.327   7.650
 6189POPC   C1B25063  22.995  35.563   8.550
 6189POPC   C2B25064  23.031  35.605   8.250
 6189POPC   C3B25065  23.044  35.543   7.950
 6189POPC   C4B25066  22.994  35.603   7.650
 6190POPC   NC325067  40.822   8.179   9.450
 6190POPC   PO425068  40.735   8.147   9.150
 6190POPC   GL125069  40.751   8.151   8.850
 6190POPC   GL225070  40.915   8.229   8.850
 6190POPC   C1A25071  40.750   8.241   8.550
 6190POPC   D2A25072  40.825   8.214   8.250
 6190POPC   C3A25073  40.749   8.222   7.950
 6190POPC   C4A25074  40.802   8.153   7.650
 6190POPC   C1B25075  41.064   8.231   8.550
 6190POPC   C2B25076  40.982   8.228   8.250
 6190POPC   C3B25077  41.066   8.308   7.950
 6190POPC   C4B25078  41.023   8.304   7.650
 6191POPC   NC325079  13.650  35.362   9.450
 6191POPC   PO425080  13.633  35.353   9.150
 6191POPC   GL125081  13.596  35.315   8.850
 6191POPC   GL225082  13.548  35.432   8.850
 6191POPC   C1A25083  13.652  35.367   8.550
 6191POPC   D2A25084  13.602  35.387   8.250
 6191POPC   C3A25085  13.674  35.366   7.950
 6191POPC   C4A25086  13.622  35.339   7.650
 6191POPC   C1B25087  13.466  35.578   8.550
 6191POPC   C2B25088  13.507  35.588   8.250
 6191POPC   C3B25089  13.520  35.558   7.950
 6191POPC   C4B25090  13.463  35.531   7.650
 6192POPC   NC325091  21.399  25.274   9.450
 6192POPC   PO425092  21.413  25.261   9.150
 6192POPC   GL125093  21.367  25.270   8.850
 6192POPC   GL225094  21.427  25.167   8.850
 6192POPC   C1A25095  21.409  25.280   8.550
 6192POPC   D2A25096  21.414  25.268   8.250
 6192POPC   C3A25097  21.419  25.234   7.950
 6192POPC   C4A25098  21.426  25.220   7.650
 6192POPC   C1B25099  21.516  25.065   8.550
 6192POPC   C2B25100  21.549  25.061   8.250
 6192POPC   C3B25101  21.514  25.042   7.950
 6192POPC   C4B25102  21.498  25.028   7.650
 6193POPC   NC325103  42.346  26.046   9.450
 6193POPC   PO425104  42.309  26.031   9.150
 6193POPC   GL125105  42.303  26.082   8.850
 6193POPC   GL225106  42.444  25.973   8.850
 6193POPC   C1A25107  42.306  26.090   8.550
 6193POPC   D2A25108  42.319  26.053   8.250
 6193POPC   C3A25109  42.358  26.054   7.950
 6193POPC   C4A25110  42.309  26.065   7.650
 6193POPC   C1B25111  42.435  25.874   8.550
 6193POPC   C2B25112  42.494  25.797   8.250
 6193POPC   C3B25113  42.440  25.839   7.950
 6193POPC   C4B25114  42.510  25.847   7.650
 6194POPC   NC325115   4.321  24.526   9.450
 6194POPC   PO425116   4.277  24.503   9.150
 6194POPC   GL125117   4.351  24.539   8.850
 6194POPC   GL225118   4.326  24.650   8.850
 6194POPC   C1A25119   4.293  24.477   8.550
 6194POPC   D2A25120   4.292  24.500   8.250
 6194POPC   C3A25121   4.356  24.456   7.950
 6194POPC   C4A25122   4.270  24.489   7.650
 6194POPC   C1B25123   4.372  24.730   8.550
 6194POPC   C2B25124   4.385  24.715   8.250
 6194POPC   C3B25125   4.316  24.755   7.950
 6194POPC   C4B25126   4.356  24.746   7.650
 6195POPC   NC325127  25.302  43.153   9.450
 6195POPC   PO425128  25.307  43.077   9.150
 6195POPC   GL125129  25.293  43.091   8.850
 6195POPC   GL225130  25.342  43.014   8.850
 6195POPC   C1A25131  25.225  43.069   8.550
 6195POPC   D2A25132  25.248  43.074   8.250
 6195POPC   C3A25133  25.274  43.148   7.950
 6195POPC   C4A25134  25.313  43.089   7.650
 6195POPC   C1B25135  25.407  42.969   8.550
 6195POPC   C2B25136  25.422  42.904   8.250
 6195POPC   C3B25137  25.437  42.920   7.950
 6195POPC   C4B25138  25.404  42.967   7.650
 6196POPC   NC325139  32.291   7.428   9.450
 6196POPC   PO425140  32.257   7.453   9.150
 6196POPC   GL125141  32.217   7.372   8.850
 6196POPC   GL225142  32.222   7.512   8.850
 6196POPC   C1A25143  32.275   7.401   8.550
 6196POPC   D2A25144  32.228   7.462   8.250
 6196POPC   C3A25145  32.206   7.417   7.950
 6196POPC   C4A25146  32.277   7.372   7.650
 6196POPC   C1B25147  32.150   7.648   8.550
 6196POPC   C2B25148  32.166   7.679   8.250
 6196POPC   C3B25149  32.178   7.662   7.950
 6196POPC   C4B25150  32.233   7.665   7.650
 6197POPC   NC325151  22.951  13.645   9.450
 6197POPC   PO425152  22.959  13.661   9.150
 6197POPC   GL125153  22.956  13.622   8.850
 6197POPC   GL225154  22.850  13.467   8.850
 6197POPC   C1A25155  22.966  13.595   8.550
 6197POPC   D2A25156  22.922  13.579   8.250
 6197POPC   C3A25157  22.979  13.673   7.950
 6197POPC   C4A25158  22.908  13.640   7.650
 6197POPC   C1B25159  22.828  13.438   8.550
 6197POPC   C2B25160  22.841  13.394   8.250
 6197POPC   C3B25161  22.839  13.361   7.950
 6197POPC   C4B25162  22.855  13.426   7.650
 6198POPC   NC325163  35.381  38.489   9.450
 6198POPC   PO425164  35.334  38.490   9.150
 6198POPC   GL125165  35.352  38.414   8.850
 6198POPC   GL225166  35.479  38.343   8.850
 6198POPC   C1A25167  35.335  38.491   8.550
 6198POPC   D2A25168  35.325  38.455   8.250
 6198POPC   C3A25169  35.389  38.481   7.950
 6198POPC   C4A25170  35.395  38.413   7.650
 6198POPC   C1B25171  35.539  38.308   8.550
 6198POPC   C2B25172  35.573  38.349   8.250
 6198POPC   C3B25173  35.560  38.350   7.950
 6198POPC   C4B25174  35.539  38.356   7.650
 6199POPC   NC325175  12.834  42.320   9.450
 6199POPC   PO425176  12.869  42.366   9.150
 6199POPC   GL125177  12.820  42.321   8.850
 6199POPC   GL225178  12.936  42.242   8.850
 6199POPC   C1A25179  12.880  42.364   8.550
 6199POPC   D2A25180  12.809  42.382   8.250
 6199POPC   C3A25181  12.863  42.320   7.950
 6199POPC   C4A25182  12.893  42.294   7.650
 6199POPC   C1B25183  12.987  42.082   8.550
 6199POPC   C2B25184  12.934  42.117   8.250
 6199POPC   C3B25185  12.977  42.162   7.950
 6199POPC   C4B25186  12.951  42.158   7.650
 6200POPC   NC325187   4.317  23.673   9.450
 6200POPC   PO425188   4.327  23.672   9.150
 6200POPC   GL125189   4.279  23.710   8.850
 6200POPC   GL225190   4.364  23.636   8.850
 6200POPC   C1A25191   4.299  23.676   8.550
 6200POPC   D2A25192   4.300  23.730   8.250
 6200POPC   C3A25193   4.315  23.732   7.950
 6200POPC   C4A25194   4.272  23.755   7.650
 6200POPC   C1B25195   4.465  23.454   8.550
 6200POPC   C2B25196   4.438  23.448   8.250
 6200POPC   C3B25197   4.401  23.479   7.950
 6200POPC   C4B25198   4.469  23.515   7.650
 6201POPC   NC325199  30.653  29.888   9.450
 6201POPC   PO425200  30.729  29.947   9.150
 6201POPC   GL125201  30.699  29.887   8.850
 6201POPC   GL225202  30.597  29.816   8.850
 6201POPC   C1A25203  30.719  29.938   8.550
 6201POPC   D2A25204  30.650  29.879   8.250
 6201POPC   C3A25205  30.660  29.933   7.950
 6201POPC   C4A25206  30.680  29.942   7.650
 6201POPC   C1B25207  30.630  29.694   8.550
 6201POPC   C2B25208  30.565  29.676   8.250
 6201POPC   C3B25209  30.574  29.676   7.950
 6201POPC   C4B25210  30.591  29.726   7.650
 6202POPC   NC325211  39.267  21.394   9.450
 6202POPC   PO425212  39.226  21.397   9.150
 6202POPC   GL125213  39.187  21.417   8.850
 6202POPC   GL225214  39.095  21.315   8.850
 6202POPC   C1A25215  39.184  21.363   8.550
 6202POPC   D2A25216  39.229  21.396   8.250
 6202POPC   C3A25217  39.239  21.350   7.950
 6202POPC   C4A25218  39.280  21.378   7.650
 6202POPC   C1B25219  38.978  21.289   8.550
 6202POPC   C2B25220  39.036  21.334   8.250
 6202POPC   C3B25221  39.007  21.269   7.950
 6202POPC   C4B25222  39.027  21.309   7.650
 6203POPC   NC325223  22.908  20.647   9.450
 6203POPC   PO425224  22.969  20.655   9.150
 6203POPC   GL125225  22.918  20.572   8.850
 6203POPC   GL225226  22.814  20.578   8.850
 6203POPC   C1A25227  22.942  20.582   8.550
 6203POPC   D2A25228  22.951  20.656   8.250
 6203POPC   C3A25229  22.938  20.582   7.950
 6203POPC   C4A25230  22.944  20.645   7.650
 6203POPC   C1B25231  22.727  20.419   8.550
 6203POPC   C2B25232  22.714  20.446   8.250
 6203POPC   C3B25233  22.714  20.422   7.950
 6203POPC   C4B25234  22.770  20.485   7.650
 6204POPC   NC325235  29.097  18.281   9.450
 6204POPC   PO425236  29.160  18.314   9.150
 6204POPC   GL125237  29.165  18.263   8.850
 6204POPC   GL225238  29.234  18.403   8.850
 6204POPC   C1A25239  29.105  18.285   8.550
 6204POPC   D2A25240  29.191  18.315   8.250
 6204POPC   C3A25241  29.144  18.276   7.950
 6204POPC   C4A25242  29.156  18.249   7.650
 6204POPC   C1B25243  29.310  18.426   8.550
 6204POPC   C2B25244  29.378  18.408   8.250
 6204POPC   C3B25245  29.279  18.501   7.950
 6204POPC   C4B25246  29.350  18.410   7.650
 6205POPC   NC325247  37.653   9.769   9.450
 6205POPC   PO425248  37.705   9.778   9.150
 6205POPC   GL125249  37.725   9.752   8.850
 6205POPC   GL225250  37.556   9.709   8.850
 6205POPC   C1A25251  37.661   9.756   8.550
 6205POPC   D2A25252  37.674   9.743   8.250
 6205POPC   C3A25253  37.631   9.722   7.950
 6205POPC   C4A25254  37.722   9.786   7.650
 6205POPC   C1B25255  37.452   9.642   8.550
 6205POPC   C2B25256  37.412   9.676   8.250
 6205POPC   C3B25257  37.418   9.614   7.950
 6205POPC   C4B25258  37.467   9.620   7.650
 6206POPC   NC325259   5.136  15.928   9.450
 6206POPC   PO425260   5.062  15.992   9.150
 6206POPC   GL125261   5.082  15.984   8.850
 6206POPC   GL225262   5.044  15.993   8.850
 6206POPC   C1A25263   5.096  15.953   8.550
 6206POPC   D2A25264   5.043  15.973   8.250
 6206POPC   C3A25265   5.073  15.938   7.950
 6206POPC   C4A25266   5.045  15.951   7.650
 6206POPC   C1B25267   4.932  16.141   8.550
 6206POPC   C2B25268   4.915  16.151   8.250
 6206POPC   C3B25269   4.900  16.153   7.950
 6206POPC   C4B25270   4.860  16.093   7.650
 6207POPC   NC325271  35.328  19.809   9.450
 6207POPC   PO425272  35.315  19.819   9.150
 6207POPC   GL125273  35.384  19.805   8.850
 6207POPC   GL225274  35.395  19.683   8.850
 6207POPC   C1A25275  35.329  19.854   8.550
 6207POPC   D2A25276  35.331  19.817   8.250
 6207POPC   C3A25277  35.321  19.805   7.950
 6207POPC   C4A25278  35.382  19.816   7.650
 6207POPC   C1B25279  35.332  19.537   8.550
 6207POPC   C2B25280  35.352  19.548   8.250
 6207POPC   C3B25281  35.416  19.612   7.950
 6207POPC   C4B25282  35.370  19.539   7.650
 6208POPC   NC325283  37.674  10.486   9.450
 6208POPC   PO425284  37.630  10.574   9.150
 6208POPC   GL125285  37.637  10.500   8.850
 6208POPC   GL225286  37.628  10.379   8.850
 6208POPC   C1A25287  37.696  10.568   8.550
 6208POPC   D2A25288  37.724  10.507   8.250
 6208POPC   C3A25289  37.694  10.486   7.950
 6208POPC   C4A25290  37.652  10.504   7.650
 6208POPC   C1B25291  37.588  10.268   8.550
 6208POPC   C2B25292  37.583  10.333   8.250
 6208POPC   C3B25293  37.556  10.322   7.950
 6208POPC   C4B25294  37.546  10.255   7.650
 6209POPC   NC325295  36.934  34.587   9.450
 6209POPC   PO425296  36.893  34.623   9.150
 6209POPC   GL125297  36.934  34.575   8.850
 6209POPC   GL225298  36.774  34.583   8.850
 6209POPC   C1A25299  36.934  34.547   8.550
 6209POPC   D2A25300  36.855  34.595   8.250
 6209POPC   C3A25301  36.902  34.526   7.950
 6209POPC   C4A25302  36.865  34.583   7.650
 6209POPC   C1B25303  36.618  34.485   8.550
 6209POPC   C2B25304  36.647  34.506   8.250
 6209POPC   C3B25305  36.628  34.576   7.950
 6209POPC   C4B25306  36.659  34.570   7.650
 6210POPC   NC325307  11.273   0.434   9.450
 6210POPC   PO425308  11.341   0.470   9.150
 6210POPC   GL125309  11.339   0.413   8.850
 6210POPC   GL225310  11.344   0.329   8.850
 6210POPC   C1A25311  11.294   0.444   8.550
 6210POPC   D2A25312  11.307   0.451   8.250
 6210POPC   C3A25313  11.321   0.469   7.950
 6210POPC   C4A25314  11.255   0.456   7.650
 6210POPC   C1B25315  11.503   0.300   8.550
 6210POPC   C2B25316  11.501   0.270   8.250
 6210POPC   C3B25317  11.447   0.228   7.950
 6210POPC   C4B25318  11.452   0.256   7.650
 6211POPC   NC325319  12.839  19.041   9.450
 6211POPC   PO425320  12.887  19.063   9.150
 6211POPC   GL125321  12.868  19.044   8.850
 6211POPC   GL225322  12.747  19.113   8.850
 6211POPC   C1A25323  12.819  19.063   8.550
 6211POPC   D2A25324  12.839  19.054   8.250
 6211POPC   C3A25325  12.809  19.018   7.950
 6211POPC   C4A25326  12.869  19.031   7.650
 6211POPC   C1B25327  12.632  19.166   8.550
 6211POPC   C2B25328  12.617  19.202   8.250
 6211POPC   C3B25329  12.582  19.136   7.950
 6211POPC   C4B25330  12.670  19.151   7.650
 6212POPC   NC325331  41.582  24.462   9.450
 6212POPC   PO425332  41.564  24.535   9.150
 6212POPC   GL125333  41.546  24.486   8.850
 6212POPC   GL225334  41.672  24.376   8.850
 6212POPC   C1A25335  41.591  24.480   8.550
 6212POPC   D2A25336  41.576  24.469   8.250
 6212POPC   C3A25337  41.520  24.515   7.950
 6212POPC   C4A25338  41.545  24.449   7.650
 6212POPC   C1B25339  41.749  24.291   8.550
 6212POPC   C2B25340  41.792  24.333   8.250
 6212POPC   C3B25341  41.775  24.367   7.950
 6212POPC   C4B25342  41.730  24.355   7.650
 6213POPC   NC325343  44.639  38.451   9.450
 6213POPC   PO425344  44.696  38.505   9.150
 6213POPC   GL125345  44.638  38.486   8.850
 6213POPC   GL225346  44.699  38.332   8.850
 6213POPC   C1A25347  44.653  38.495   8.550
 6213POPC   D2A25348  44.682  38.438   8.250
 6213POPC   C3A25349  44.708  38.429   7.950
 6213POPC   C4A25350  44.623  38.426   7.650
 6213POPC   C1B25351  44.711  38.218   8.550
 6213POPC   C2B25352  44.665  38.192   8.250
 6213POPC   C3B25353  44.739  38.215   7.950
 6213POPC   C4B25354  44.694  38.172   7.650
 6214POPC   NC325355  42.332   8.226   9.450
 6214POPC   PO425356  42.299   8.220   9.150
 6214POPC   GL125357  42.371   8.244   8.850
 6214POPC   GL225358  42.249   8.091   8.850
 6214POPC   C1A25359  42.302   8.233   8.550
 6214POPC   D2A25360  42.309   8.174   8.250
 6214POPC   C3A25361  42.367   8.204   7.950
 6214POPC   C4A25362  42.292   8.240   7.650
 6214POPC   C1B25363  42.164   8.051   8.550
 6214POPC   C2B25364  42.138   8.018   8.250
 6214POPC   C3B25365  42.173   8.036   7.950
 6214POPC   C4B25366  42.095   8.038   7.650
 6215POPC   NC325367  22.194  32.289   9.450
 6215POPC   PO425368  22.177  32.289   9.150
 6215POPC   GL125369  22.135  32.223   8.850
 6215POPC   GL225370  22.242  32.232   8.850
 6215POPC   C1A25371  22.143  32.292   8.550
 6215POPC   D2A25372  22.166  32.276   8.250
 6215POPC   C3A25373  22.145  32.213   7.950
 6215POPC   C4A25374  22.154  32.295   7.650
 6215POPC   C1B25375  22.364  32.193   8.550
 6215POPC   C2B25376  22.362  32.257   8.250
 6215POPC   C3B25377  22.411  32.247   7.950
 6215POPC   C4B25378  22.384  32.223   7.650
 6216POPC   NC325379  25.270  13.654   9.450
 6216POPC   PO425380  25.240  13.580   9.150
 6216POPC   GL125381  25.253  13.632   8.850
 6216POPC   GL225382  25.274  13.520   8.850
 6216POPC   C1A25383  25.286  13.582   8.550
 6216POPC   D2A25384  25.271  13.602   8.250
 6216POPC   C3A25385  25.258  13.603   7.950
 6216POPC   C4A25386  25.286  13.645   7.650
 6216POPC   C1B25387  25.410  13.394   8.550
 6216POPC   C2B25388  25.342  13.428   8.250
 6216POPC   C3B25389  25.383  13.424   7.950
 6216POPC   C4B25390  25.381  13.426   7.650
 6217POPC   NC325391  35.390  39.210   9.450
 6217POPC   PO425392  35.320  39.271   9.150
 6217POPC   GL125393  35.335  39.188   8.850
 6217POPC   GL225394  35.371  39.299   8.850
 6217POPC   C1A25395  35.360  39.224   8.550
 6217POPC   D2A25396  35.352  39.199   8.250
 6217POPC   C3A25397  35.367  39.249   7.950
 6217POPC   C4A25398  35.399  39.241   7.650
 6217POPC   C1B25399  35.496  39.430   8.550
 6217POPC   C2B25400  35.440  39.416   8.250
 6217POPC   C3B25401  35.436  39.436   7.950
 6217POPC   C4B25402  35.470  39.488   7.650
 6218POPC   NC325403  19.806  33.812   9.450
 6218POPC   PO425404  19.870  33.760   9.150
 6218POPC   GL125405  19.788  33.813   8.850
 6218POPC   GL225406  19.785  33.667   8.850
 6218POPC   C1A25407  19.830  33.795   8.550
 6218POPC   D2A25408  19.868  33.819   8.250
 6218POPC   C3A25409  19.884  33.827   7.950
 6218POPC   C4A25410  19.807  33.758   7.650
 6218POPC   C1B25411  19.729  33.521   8.550
 6218POPC   C2B25412  19.807  33.545   8.250
 6218POPC   C3B25413  19.775  33.563   7.950
 6218POPC   C4B25414  19.764  33.533   7.650
 6219POPC   NC325415  18.312   3.562   9.450
 6219POPC   PO425416  18.239   3.523   9.150
 6219POPC   GL125417  18.280   3.500   8.850
 6219POPC   GL225418  18.109   3.580   8.850
 6219POPC   C1A25419  18.283   3.560   8.550
 6219POPC   D2A25420  18.322   3.535   8.250
 6219POPC   C3A25421  18.321   3.512   7.950
 6219POPC   C4A25422  18.249   3.568   7.650
 6219POPC   C1B25423  17.995   3.519   8.550
 6219POPC   C2B25424  18.036   3.509   8.250
 6219POPC   C3B25425  18.078   3.502   7.950
 6219POPC   C4B25426  18.007   3.545   7.650
 6220POPC   NC325427  27.598   8.927   9.450
 6220POPC   PO425428  27.558   8.967   9.150
 6220POPC   GL125429  27.575   8.983   8.850
 6220POPC   GL225430  27.575   8.904   8.850
 6220POPC   C1A25431  27.583   8.935   8.550
 6220POPC   D2A25432  27.559   9.017   8.250
 6220POPC   C3A25433  27.625   8.999   7.950
 6220POPC   C4A25434  27.601   9.014   7.650
 6220POPC   C1B25435  27.463   8.803   8.550
 6220POPC   C2B25436  27.451   8.767   8.250
 6220POPC   C3B25437  27.452   8.765   7.950
 6220POPC   C4B25438  27.518   8.741   7.650
 6221POPC   NC325439  39.186   8.221   9.450
 6221POPC   PO425440  39.182   8.181   9.150
 6221POPC   GL125441  39.247   8.177   8.850
 6221POPC   GL225442  39.281   8.081   8.850
 6221POPC   C1A25443  39.264   8.232   8.550
 6221POPC   D2A25444  39.248   8.190   8.250
 6221POPC   C3A25445  39.278   8.202   7.950
 6221POPC   C4A25446  39.226   8.185   7.650
 6221POPC   C1B25447  39.207   7.995   8.550
 6221POPC   C2B25448  39.236   7.947   8.250
 6221POPC   C3B25449  39.281   7.961   7.950
 6221POPC   C4B25450  39.245   7.901   7.650
 6222POPC   NC325451  23.708   1.174   9.450
 6222POPC   PO425452  23.671   1.215   9.150
 6222POPC   GL125453  23.757   1.248   8.850
 6222POPC   GL225454  23.799   1.119   8.850
 6222POPC   C1A25455  23.734   1.186   8.550
 6222POPC   D2A25456  23.751   1.184   8.250
 6222POPC   C3A25457  23.714   1.169   7.950
 6222POPC   C4A25458  23.717   1.174   7.650
 6222POPC   C1B25459  23.904   1.082   8.550
 6222POPC   C2B25460  23.870   1.052   8.250
 6222POPC   C3B25461  23.939   1.025   7.950
 6222POPC   C4B25462  23.961   1.108   7.650
 6223POPC   NC325463  39.227  36.084   9.450
 6223POPC   PO425464  39.265  36.107   9.150
 6223POPC   GL125465  39.206  36.159   8.850
 6223POPC   GL225466  39.155  36.211   8.850
 6223POPC   C1A25467  39.201  36.080   8.550
 6223POPC   D2A25468  39.232  36.170   8.250
 6223POPC   C3A25469  39.196  36.118   7.950
 6223POPC   C4A25470  39.203  36.173   7.650
 6223POPC   C1B25471  39.073  36.267   8.550
 6223POPC   C2B25472  39.048  36.326   8.250
 6223POPC   C3B25473  39.054  36.332   7.950
 6223POPC   C4B25474  39.061  36.243   7.650
 6224POPC   NC325475   5.126  18.312   9.450
 6224POPC   PO425476   5.115  18.300   9.150
 6224POPC   GL125477   5.142  18.269   8.850
 6224POPC   GL225478   5.013  18.154   8.850
 6224POPC   C1A25479   5.119  18.235   8.550
 6224POPC   D2A25480   5.064  18.269   8.250
 6224POPC   C3A25481   5.076  18.333   7.950
 6224POPC   C4A25482   5.043  18.291   7.650
 6224POPC   C1B25483   4.938  18.066   8.550
 6224POPC   C2B25484   4.957  18.018   8.250
 6224POPC   C3B25485   5.007  18.105   7.950
 6224POPC   C4B25486   5.013  18.058   7.650
 6225POPC   NC325487   1.239  40.833   9.450
 6225POPC   PO425488   1.176  40.824   9.150
 6225POPC   GL125489   1.168  40.820   8.850
 6225POPC   GL225490   1.247  40.951   8.850
 6225POPC   C1A25491   1.235  40.806   8.550
 6225POPC   D2A25492   1.172  40.804   8.250
 6225POPC   C3A25493   1.254  40.742   7.950
 6225POPC   C4A25494   1.221  40.826   7.650
 6225POPC   C1B25495   1.170  40.981   8.550
 6225POPC   C2B25496   1.195  41.023   8.250
 6225POPC   C3B25497   1.194  41.028   7.950
 6225POPC   C4B25498   1.180  41.030   7.650
 6226POPC   NC325499  12.055  30.744   9.450
 6226POPC   PO425500  12.036  30.690   9.150
 6226POPC   GL125501  12.082  30.734   8.850
 6226POPC   GL225502  12.051  30.602   8.850
 6226POPC   C1A25503  12.091  30.720   8.550
 6226POPC   D2A25504  12.031  30.656   8.250
 6226POPC   C3A25505  12.107  30.692   7.950
 6226POPC   C4A25506  12.101  30.736   7.650
 6226POPC   C1B25507  12.021  30.480   8.550
 6226POPC   C2B25508  11.983  30.453   8.250
 6226POPC   C3B25509  11.940  30.448   7.950
 6226POPC   C4B25510  11.932  30.459   7.650
 6227POPC   NC325511   5.119  39.973   9.450
 6227POPC   PO425512   5.118  40.055   9.150
 6227POPC   GL125513   5.138  40.006   8.850
 6227POPC   GL225514   5.006  40.011   8.850
 6227POPC   C1A25515   5.047  40.006   8.550
 6227POPC   D2A25516   5.132  40.008   8.250
 6227POPC   C3A25517   5.085  40.043   7.950
 6227POPC   C4A25518   5.132  39.987   7.650
 6227POPC   C1B25519   4.871  39.956   8.550
 6227POPC   C2B25520   4.897  39.880   8.250
 6227POPC   C3B25521   4.901  39.912   7.950
 6227POPC   C4B25522   4.832  39.907   7.650
 6228POPC   NC325523  40.046  40.750   9.450
 6228POPC   PO425524  40.053  40.759   9.150
 6228POPC   GL125525  40.038  40.831   8.850
 6228POPC   GL225526  39.887  40.793   8.850
 6228POPC   C1A25527  39.975  40.827   8.550
 6228POPC   D2A25528  40.034  40.736   8.250
 6228POPC   C3A25529  39.989  40.797   7.950
 6228POPC   C4A25530  40.037  40.738   7.650
 6228POPC   C1B25531  39.765  40.817   8.550
 6228POPC   C2B25532  39.724  40.811   8.250
 6228POPC   C3B25533  39.748  40.878   7.950
 6228POPC   C4B25534  39.749  40.821   7.650
 6229POPC   NC325535  33.803  33.752   9.450
 6229POPC   PO425536  33.829  33.829   9.150
 6229POPC   GL125537  33.810  33.836   8.850
 6229POPC   GL225538  33.799  33.916   8.850
 6229POPC   C1A25539  33.807  33.752   8.550
 6229POPC   D2A25540  33.840  33.826   8.250
 6229POPC   C3A25541  33.764  33.790   7.950
 6229POPC   C4A25542  33.810  33.850   7.650
 6229POPC   C1B25543  33.729  34.020   8.550
 6229POPC   C2B25544  33.718  34.031   8.250
 6229POPC   C3B25545  33.711  34.053   7.950
 6229POPC   C4B25546  33.684  34.010   7.650
 6230POPC   NC325547  41.541  21.426   9.450
 6230POPC   PO425548  41.525  21.406   9.150
 6230POPC   GL125549  41.523  21.429   8.850
 6230POPC   GL225550  41.471  21.291   8.850
 6230POPC   C1A25551  41.562  21.416   8.550
 6230POPC   D2A25552  41.565  21.419   8.250
 6230POPC   C3A25553  41.565  21.346   7.950
 6230POPC   C4A25554  41.520  21.413   7.650
 6230POPC   C1B25555  41.363  21.239   8.550
 6230POPC   C2B25556  41.426  21.167   8.250
 6230POPC   C3B25557  41.359  21.146   7.950
 6230POPC   C4B25558  41.375  21.198   7.650
 6231POPC   NC325559  12.076  10.525   9.450
 6231POPC   PO425560  12.099  10.553   9.150
 6231POPC   GL125561  12.121  10.544   8.850
 6231POPC   GL225562  12.152  10.649   8.850
 6231POPC   C1A25563  12.066  10.479   8.550
 6231POPC   D2A25564  12.103  10.498   8.250
 6231POPC   C3A25565  12.108  10.530   7.950
 6231POPC   C4A25566  12.116  10.544   7.650
 6231POPC   C1B25567  12.179  10.717   8.550
 6231POPC   C2B25568  12.126  10.754   8.250
 6231POPC   C3B25569  12.124  10.753   7.950
 6231POPC   C4B25570  12.188  10.721   7.650
 6232POPC   NC325571  32.240  37.678   9.450
 6232POPC   PO425572  32.295  37.661   9.150
 6232POPC   GL125573  32.284  37.724   8.850
 6232POPC   GL225574  32.247  37.757   8.850
 6232POPC   C1A25575  32.284  37.653   8.550
 6232POPC   D2A25576  32.208  37.651   8.250
 6232POPC   C3A25577  32.230  37.722   7.950
 6232POPC   C4A25578  32.247  37.696   7.650
 6232POPC   C1B25579  32.235  37.903   8.550
 6232POPC   C2B25580  32.259  37.890   8.250
 6232POPC   C3B25581  32.220  37.919   7.950
 6232POPC   C4B25582  32.226  37.968   7.650
 6233POPC   NC325583   9.002  15.985   9.450
 6233POPC   PO425584   8.929  15.962   9.150
 6233POPC   GL125585   8.993  15.985   8.850
 6233POPC   GL225586   8.913  16.116   8.850
 6233POPC   C1A25587   8.952  15.951   8.550
 6233POPC   D2A25588   8.925  15.973   8.250
 6233POPC   C3A25589   8.962  15.960   7.950
 6233POPC   C4A25590   8.977  15.935   7.650
 6233POPC   C1B25591   8.975  16.228   8.550
 6233POPC   C2B25592   8.913  16.250   8.250
 6233POPC   C3B25593   8.932  16.156   7.950
 6233POPC   C4B25594   8.883  16.174   7.650
 6234POPC   NC325595  29.153  26.055   9.450
 6234POPC   PO425596  29.098  26.007   9.150
 6234POPC   GL125597  29.189  26.090   8.850
 6234POPC   GL225598  29.236  26.061   8.850
 6234POPC   C1A25599  29.179  26.022   8.550
 6234POPC   D2A25600  29.102  26.087   8.250
 6234POPC   C3A25601  29.173  26.042   7.950
 6234POPC   C4A25602  29.194  26.081   7.650
 6234POPC   C1B25603  29.375  26.021   8.550
 6234POPC   C2B25604  29.397  26.057   8.250
 6234POPC   C3B25605  29.403  25.994   7.950
 6234POPC   C4B25606  29.348  25.993   7.650
 6235POPC   NC325607  25.283  29.104   9.450
 6235POPC   PO425608  25.269  29.169   9.150
 6235POPC   GL125609  25.291  29.106   8.850
 6235POPC   GL225610  25.298  28.991   8.850
 6235POPC   C1A25611  25.228  29.168   8.550
 6235POPC   D2A25612  25.218  29.182   8.250
 6235POPC   C3A25613  25.263  29.107   7.950
 6235POPC   C4A25614  25.299  29.105   7.650
 6235POPC   C1B25615  25.403  28.878   8.550
 6235POPC   C2B25616  25.413  28.887   8.250
 6235POPC   C3B25617  25.395  28.903   7.950
 6235POPC   C4B25618  25.345  28.949   7.650
 6236POPC   NC325619  40.786  39.183   9.450
 6236POPC   PO425620  40.774  39.264   9.150
 6236POPC   GL125621  40.773  39.228   8.850
 6236POPC   GL225622  40.784  39.089   8.850
 6236POPC   C1A25623  40.748  39.235   8.550
 6236POPC   D2A25624  40.802  39.258   8.250
 6236POPC   C3A25625  40.737  39.234   7.950
 6236POPC   C4A25626  40.786  39.183   7.650
 6236POPC   C1B25627  40.752  38.991   8.550
 6236POPC   C2B25628  40.828  39.000   8.250
 6236POPC   C3B25629  40.765  38.981   7.950
 6236POPC   C4B25630  40.804  38.971   7.650
 6237POPC   NC325631  41.544  33.791   9.450
 6237POPC   PO425632  41.544  33.808   9.150
 6237POPC   GL125633  41.604  33.794   8.850
 6237POPC   GL225634  41.627  33.862   8.850
 6237POPC   C1A25635  41.532  33.818   8.550
 6237POPC   D2A25636  41.563  33.809   8.250
 6237POPC   C3A25637  41.575  33.777   7.950
 6237POPC   C4A25638  41.554  33.781   7.650
 6237POPC   C1B25639  41.759  34.016   8.550
 6237POPC   C2B25640  41.690  34.004   8.250
 6237POPC   C3B25641  41.672  33.954   7.950
 6237POPC   C4B25642  41.732  34.005   7.650
 6238POPC   NC325643  40.756  41.587   9.450
 6238POPC   PO425644  40.757  41.589   9.150
 6238POPC   GL125645  40.791  41.521   8.850
 6238POPC   GL225646  40.879  41.598   8.850
 6238POPC   C1A25647  40.814  41.592   8.550
 6238POPC   D2A25648  40.748  41.569   8.250
 6238POPC   C3A25649  40.744  41.542   7.950
 6238POPC   C4A25650  40.774  41.587   7.650
 6238POPC   C1B25651  41.043  41.658   8.550
 6238POPC   C2B25652  41.003  41.694   8.250
 6238POPC   C3B25653  41.005  41.669   7.950
 6238POPC   C4B25654  40.982  41.644   7.650
 6239POPC   NC325655  22.975  40.032   9.450
 6239POPC   PO425656  22.936  40.012   9.150
 6239POPC   GL125657  22.903  40.022   8.850
 6239POPC   GL225658  23.032  40.072   8.850
 6239POPC   C1A25659  22.921  39.966   8.550
 6239POPC   D2A25660  22.964  39.999   8.250
 6239POPC   C3A25661  22.927  40.032   7.950
 6239POPC   C4A25662  22.942  40.057   7.650
 6239POPC   C1B25663  23.095  40.161   8.550
 6239POPC   C2B25664  23.039  40.218   8.250
 6239POPC   C3B25665  23.092  40.220   7.950
 6239POPC   C4B25666  23.122  40.239   7.650
 6240POPC   NC325667  37.711   1.181   9.450
 6240POPC   PO425668  37.677   1.209   9.150
 6240POPC   GL125669  37.700   1.228   8.850
 6240POPC   GL225670  37.674   1.116   8.850
 6240POPC   C1A25671  37.674   1.225   8.550
 6240POPC   D2A25672  37.668   1.246   8.250
 6240POPC   C3A25673  37.715   1.223   7.950
 6240POPC   C4A25674  37.646   1.166   7.650
 6240POPC   C1B25675  37.620   0.969   8.550
 6240POPC   C2B25676  37.574   0.983   8.250
 6240POPC   C3B25677  37.571   1.010   7.950
 6240POPC   C4B25678  37.609   0.964   7.650
 6241POPC   NC325679  15.987  42.291   9.450
 6241POPC   PO425680  15.977  42.358   9.150
 6241POPC   GL125681  15.953  42.348   8.850
 6241POPC   GL225682  16.084  42.312   8.850
 6241POPC   C1A25683  15.925  42.338   8.550
 6241POPC   D2A25684  15.937  42.326   8.250
 6241POPC   C3A25685  15.969  42.338   7.950
 6241POPC   C4A25686  16.005  42.316   7.650
 6241POPC   C1B25687  16.158  42.383   8.550
 6241POPC   C2B25688  16.182  42.372   8.250
 6241POPC   C3B25689  16.163  42.313   7.950
 6241POPC   C4B25690  16.178  42.360   7.650
 6242POPC   NC325691  33.789   9.774   9.450
 6242POPC   PO425692  33.842   9.766   9.150
 6242POPC   GL125693  33.784   9.736   8.850
 6242POPC   GL225694  33.735   9.827   8.850
 6242POPC   C1A25695  33.793   9.702   8.550
 6242POPC   D2A25696  33.846   9.747   8.250
 6242POPC   C3A25697  33.782   9.776   7.950
 6242POPC   C4A25698  33.828   9.727   7.650
 6242POPC   C1B25699  33.555   9.881   8.550
 6242POPC   C2B25700  33.591   9.920   8.250
 6242POPC   C3B25701  33.571   9.934   7.950
 6242POPC   C4B25702  33.589   9.917   7.650
 6243POPC   NC325703  17.509   3.511   9.450
 6243POPC   PO425704  17.466   3.500   9.150
 6243POPC   GL125705  17.498   3.549   8.850
 6243POPC   GL225706  17.470   3.622   8.850
 6243POPC   C1A25707  17.493   3.500   8.550
 6243POPC   D2A25708  17.489   3.573   8.250
 6243POPC   C3A25709  17.550   3.585   7.950
 6243POPC   C4A25710  17.495   3.559   7.650
 6243POPC   C1B25711  17.352   3.787   8.550
 6243POPC   C2B25712  17.411   3.777   8.250
 6243POPC   C3B25713  17.403   3.716   7.950
 6243POPC   C4B25714  17.338   3.789   7.650
 6244POPC   NC325715   2.749  39.272   9.450
 6244POPC   PO425716   2.773  39.229   9.150
 6244POPC   GL125717   2.757  39.186   8.850
 6244POPC   GL225718   2.610  39.124   8.850
 6244POPC   C1A25719   2.754  39.229   8.550
 6244POPC   D2A25720   2.753  39.211   8.250
 6244POPC   C3A25721   2.763  39.227   7.950
 6244POPC   C4A25722   2.797  39.252   7.650
 6244POPC   C1B25723   2.574  39.083   8.550
 6244POPC   C2B25724   2.540  39.073   8.250
 6244POPC   C3B25725   2.529  39.076   7.950
 6244POPC   C4B25726   2.533  39.089   7.650
 6245POPC   NC325727   8.966  18.323   9.450
 6245POPC   PO425728   9.008  18.323   9.150
 6245POPC   GL125729   8.972  18.325   8.850
 6245POPC   GL225730   9.131  18.287   8.850
 6245POPC   C1A25731   8.941  18.256   8.550
 6245POPC   D2A25732   8.989  18.320   8.250
 6245POPC   C3A25733   8.982  18.282   7.950
 6245POPC   C4A25734   8.932  18.257   7.650
 6245POPC   C1B25735   9.206  18.357   8.550
 6245POPC   C2B25736   9.174  18.310   8.250
 6245POPC   C3B25737   9.232  18.356   7.950
 6245POPC   C4B25738   9.224  18.387   7.650
 6246POPC   NC325739  25.302  43.848   9.450
 6246POPC   PO425740  25.260  43.899   9.150
 6246POPC   GL125741  25.247  43.884   8.850
 6246POPC   GL225742  25.238  43.719   8.850
 6246POPC   C1A25743  25.278  43.867   8.550
 6246POPC   D2A25744  25.241  43.911   8.250
 6246POPC   C3A25745  25.297  43.889   7.950
 6246POPC   C4A25746  25.310  43.900   7.650
 6246POPC   C1B25747  25.208  43.614   8.550
 6246POPC   C2B25748  25.203  43.648   8.250
 6246POPC   C3B25749  25.218  43.673   7.950
 6246POPC   C4B25750  25.271  43.612   7.650
 6247POPC   NC325751  41.608  26.075   9.450
 6247POPC   PO425752  41.517  26.039   9.150
 6247POPC   GL125753  41.516  26.081   8.850
 6247POPC   GL225754  41.643  25.943   8.850
 6247POPC   C1A25755  41.558  26.010   8.550
 6247POPC   D2A25756  41.567  26.090   8.250
 6247POPC   C3A25757  41.594  26.059   7.950
 6247POPC   C4A25758  41.602  26.061   7.650
 6247POPC   C1B25759  41.812  25.932   8.550
 6247POPC   C2B25760  41.764  25.909   8.250
 6247POPC   C3B25761  41.759  25.872   7.950
 6247POPC   C4B25762  41.790  25.941   7.650
 6248POPC   NC325763  10.512  43.847   9.450
 6248POPC   PO425764  10.481  43.887   9.150
 6248POPC   GL125765  10.563  43.836   8.850
 6248POPC   GL225766  10.680  43.892   8.850
 6248POPC   C1A25767  10.510  43.886   8.550
 6248POPC   D2A25768  10.489  43.873   8.250
 6248POPC   C3A25769  10.545  43.886   7.950
 6248POPC   C4A25770  10.532  43.877   7.650
 6248POPC   C1B25771  10.714  43.766   8.550
 6248POPC   C2B25772  10.751  43.846   8.250
 6248POPC   C3B25773  10.731  43.820   7.950
 6248POPC   C4B25774  10.749  43.835   7.650
 6249POPC   NC325775  44.619   5.049   9.450
 6249POPC   PO425776  44.616   5.135   9.150
 6249POPC   GL125777  44.631   5.109   8.850
 6249POPC   GL225778  44.579   5.112   8.850
 6249POPC   C1A25779  44.676   5.138   8.550
 6249POPC   D2A25780  44.659   5.121   8.250
 6249POPC   C3A25781  44.622   5.085   7.950
 6249POPC   C4A25782  44.621   5.117   7.650
 6249POPC   C1B25783  44.478   5.210   8.550
 6249POPC   C2B25784  44.433   5.147   8.250
 6249POPC   C3B25785  44.392   5.160   7.950
 6249POPC   C4B25786  44.406   5.208   7.650
 6250POPC   NC325787  26.002  12.830   9.450
 6250POPC   PO425788  26.024  12.851   9.150
 6250POPC   GL125789  26.008  12.853   8.850
 6250POPC   GL225790  25.951  12.766   8.850
 6250POPC   C1A25791  26.041  12.847   8.550
 6250POPC   D2A25792  26.005  12.849   8.250
 6250POPC   C3A25793  26.069  12.833   7.950
 6250POPC   C4A25794  26.038  12.842   7.650
 6250POPC   C1B25795  25.834  12.736   8.550
 6250POPC   C2B25796  25.848  12.716   8.250
 6250POPC   C3B25797  25.815  12.676   7.950
 6250POPC   C4B25798  25.789  12.736   7.650
 6251POPC   NC325799  28.397  36.854   9.450
 6251POPC   PO425800  28.357  36.875   9.150
 6251POPC   GL125801  28.416  36.921   8.850
 6251POPC   GL225802  28.447  36.823   8.850
 6251POPC   C1A25803  28.390  36.884   8.550
 6251POPC   D2A25804  28.370  36.937   8.250
 6251POPC   C3A25805  28.321  36.888   7.950
 6251POPC   C4A25806  28.412  36.919   7.650
 6251POPC   C1B25807  28.558  36.801   8.550
 6251POPC   C2B25808  28.627  36.832   8.250
 6251POPC   C3B25809  28.546  36.833   7.950
 6251POPC   C4B25810  28.567  36.779   7.650
 6252POPC   NC325811   5.853  13.618   9.450
 6252POPC   PO425812   5.854  13.623   9.150
 6252POPC   GL125813   5.859  13.653   8.850
 6252POPC   GL225814   5.811  13.560   8.850
 6252POPC   C1A25815   5.879  13.672   8.550
 6252POPC   D2A25816   5.893  13.635   8.250
 6252POPC   C3A25817   5.895  13.591   7.950
 6252POPC   C4A25818   5.839  13.623   7.650
 6252POPC   C1B25819   5.681  13.428   8.550
 6252POPC   C2B25820   5.710  13.462   8.250
 6252POPC   C3B25821   5.695  13.444   7.950
 6252POPC   C4B25822   5.672  13.434   7.650
 6253POPC   NC325823  31.453   4.319   9.450
 6253POPC   PO425824  31.471   4.341   9.150
 6253POPC   GL125825  31.520   4.277   8.850
 6253POPC   GL225826  31.365   4.178   8.850
 6253POPC   C1A25827  31.432   4.285   8.550
 6253POPC   D2A25828  31.504   4.342   8.250
 6253POPC   C3A25829  31.507   4.314   7.950
 6253POPC   C4A25830  31.482   4.341   7.650
 6253POPC   C1B25831  31.270   4.109   8.550
 6253POPC   C2B25832  31.311   4.139   8.250
 6253POPC   C3B25833  31.266   4.096   7.950
 6253POPC   C4B25834  31.303   4.121   7.650
 6254POPC   NC325835  33.788  13.630   9.450
 6254POPC   PO425836  33.848  13.648   9.150
 6254POPC   GL125837  33.838  13.652   8.850
 6254POPC   GL225838  33.853  13.751   8.850
 6254POPC   C1A25839  33.791  13.639   8.550
 6254POPC   D2A25840  33.784  13.677   8.250
 6254POPC   C3A25841  33.815  13.593   7.950
 6254POPC   C4A25842  33.818  13.622   7.650
 6254POPC   C1B25843  33.891  13.829   8.550
 6254POPC   C2B25844  33.824  13.877   8.250
 6254POPC   C3B25845  33.841  13.862   7.950
 6254POPC   C4B25846  33.808  13.898   7.650
 6255POPC   NC325847   5.845  36.129   9.450
 6255POPC   PO425848   5.881  36.132   9.150
 6255POPC   GL125849   5.900  36.137   8.850
 6255POPC   GL225850   5.842  36.281   8.850
 6255POPC   C1A25851   5.903  36.090   8.550
 6255POPC   D2A25852   5.845  36.106   8.250
 6255POPC   C3A25853   5.891  36.139   7.950
 6255POPC   C4A25854   5.835  36.144   7.650
 6255POPC   C1B25855   5.748  36.347   8.550
 6255POPC   C2B25856   5.804  36.397   8.250
 6255POPC   C3B25857   5.772  36.330   7.950
 6255POPC   C4B25858   5.768  36.346   7.650
 6256POPC   NC325859  11.298  10.535   9.450
 6256POPC   PO425860  11.322  10.491   9.150
 6256POPC   GL125861  11.343  10.572   8.850
 6256POPC   GL225862  11.442  10.445   8.850
 6256POPC   C1A25863  11.284  10.520   8.550
 6256POPC   D2A25864  11.306  10.478   8.250
 6256POPC   C3A25865  11.264  10.492   7.950
 6256POPC   C4A25866  11.256  10.503   7.650
 6256POPC   C1B25867  11.521  10.413   8.550
 6256POPC   C2B25868  11.516  10.319   8.250
 6256POPC   C3B25869  11.493  10.406   7.950
 6256POPC   C4B25870  11.447  10.367   7.650
 6257POPC   NC325871   5.896  22.115   9.450
 6257POPC   PO425872   5.867  22.139   9.150
 6257POPC   GL125873   5.837  22.153   8.850
 6257POPC   GL225874   5.818  22.277   8.850
 6257POPC   C1A25875   5.850  22.170   8.550
 6257POPC   D2A25876   5.860  22.186   8.250
 6257POPC   C3A25877   5.864  22.121   7.950
 6257POPC   C4A25878   5.889  22.136   7.650
 6257POPC   C1B25879   5.744  22.413   8.550
 6257POPC   C2B25880   5.702  22.419   8.250
 6257POPC   C3B25881   5.705  22.337   7.950
 6257POPC   C4B25882   5.768  22.418   7.650
 6258POPC   NC325883   3.563  10.534   9.450
 6258POPC   PO425884   3.521  10.500   9.150
 6258POPC   GL125885   3.498  10.553   8.850
 6258POPC   GL225886   3.447  10.444   8.850
 6258POPC   C1A25887   3.511  10.516   8.550
 6258POPC   D2A25888   3.511  10.493   8.250
 6258POPC   C3A25889   3.535  10.557   7.950
 6258POPC   C4A25890   3.578  10.569   7.650
 6258POPC   C1B25891   3.344  10.334   8.550
 6258POPC   C2B25892   3.347  10.273   8.250
 6258POPC   C3B25893   3.351  10.313   7.950
 6258POPC   C4B25894   3.427  10.329   7.650
 6259POPC   NC325895  24.464  22.133   9.450
 6259POPC   PO425896  24.493  22.211   9.150
 6259POPC   GL125897  24.539  22.144   8.850
 6259POPC   GL225898  24.563  22.234   8.850
 6259POPC   C1A25899  24.464  22.137   8.550
 6259POPC   D2A25900  24.483  22.146   8.250
 6259POPC   C3A25901  24.520  22.209   7.950
 6259POPC   C4A25902  24.528  22.180   7.650
 6259POPC   C1B25903  24.746  22.305   8.550
 6259POPC   C2B25904  24.759  22.233   8.250
 6259POPC   C3B25905  24.682  22.273   7.950
 6259POPC   C4B25906  24.704  22.253   7.650
 6260POPC   NC325907  22.209  28.414   9.450
 6260POPC   PO425908  22.207  28.374   9.150
 6260POPC   GL125909  22.160  28.328   8.850
 6260POPC   GL225910  22.281  28.225   8.850
 6260POPC   C1A25911  22.165  28.400   8.550
 6260POPC   D2A25912  22.199  28.406   8.250
 6260POPC   C3A25913  22.192  28.331   7.950
 6260POPC   C4A25914  22.123  28.408   7.650
 6260POPC   C1B25915  22.316  28.167   8.550
 6260POPC   C2B25916  22.306  28.174   8.250
 6260POPC   C3B25917  22.293  28.164   7.950
 6260POPC   C4B25918  22.333  28.178   7.650
 6261POPC   NC325919   1.943  40.803   9.450
 6261POPC   PO425920   1.992  40.783   9.150
 6261POPC   GL125921   2.027  40.749   8.850
 6261POPC   GL225922   2.000  40.620   8.850
 6261POPC   C1A25923   1.962  40.814   8.550
 6261POPC   D2A25924   1.944  40.735   8.250
 6261POPC   C3A25925   2.029  40.794   7.950
 6261POPC   C4A25926   2.006  40.829   7.650
 6261POPC   C1B25927   2.016  40.546   8.550
 6261POPC   C2B25928   2.033  40.546   8.250
 6261POPC   C3B25929   1.976  40.489   7.950
 6261POPC   C4B25930   1.946  40.502   7.650
 6262POPC   NC325931   9.760  22.892   9.450
 6262POPC   PO425932   9.744  22.929   9.150
 6262POPC   GL125933   9.719  22.918   8.850
 6262POPC   GL225934   9.873  23.030   8.850
 6262POPC   C1A25935   9.753  22.892   8.550
 6262POPC   D2A25936   9.773  22.916   8.250
 6262POPC   C3A25937   9.788  22.960   7.950
 6262POPC   C4A25938   9.755  22.917   7.650
 6262POPC   C1B25939   9.866  23.111   8.550
 6262POPC   C2B25940   9.913  23.108   8.250
 6262POPC   C3B25941   9.869  23.147   7.950
 6262POPC   C4B25942   9.926  23.129   7.650
 6263POPC   NC325943   4.311  42.337   9.450
 6263POPC   PO425944   4.276  42.347   9.150
 6263POPC   GL125945   4.293  42.313   8.850
 6263POPC   GL225946   4.466  42.364   8.850
 6263POPC   C1A25947   4.354  42.327   8.550
 6263POPC   D2A25948   4.331  42.350   8.250
 6263POPC   C3A25949   4.341  42.347   7.950
 6263POPC   C4A25950   4.293  42.361   7.650
 6263POPC   C1B25951   4.530  42.350   8.550
 6263POPC   C2B25952   4.566  42.370   8.250
 6263POPC   C3B25953   4.546  42.326   7.950
 6263POPC   C4B25954   4.570  42.389   7.650
 6264POPC   NC325955  43.123  38.472   9.450
 6264POPC   PO425956  43.143  38.472   9.150
 6264POPC   GL125957  43.119  38.417   8.850
 6264POPC   GL225958  43.099  38.542   8.850
 6264POPC   C1A25959  43.073  38.477   8.550
 6264POPC   D2A25960  43.152  38.437   8.250
 6264POPC   C3A25961  43.133  38.462   7.950
 6264POPC   C4A25962  43.117  38.498   7.650
 6264POPC   C1B25963  43.147  38.711   8.550
 6264POPC   C2B25964  43.153  38.741   8.250
 6264POPC   C3B25965  43.153  38.679   7.950
 6264POPC   C4B25966  43.087  38.733   7.650
 6265POPC   NC325967  31.484  43.128   9.450
 6265POPC   PO425968  31.428  43.072   9.150
 6265POPC   GL125969  31.439  43.100   8.850
 6265POPC   GL225970  31.541  43.206   8.850
 6265POPC   C1A25971  31.493  43.083   8.550
 6265POPC   D2A25972  31.463  43.075   8.250
 6265POPC   C3A25973  31.515  43.073   7.950
 6265POPC   C4A25974  31.453  43.157   7.650
 6265POPC   C1B25975  31.637  43.358   8.550
 6265POPC   C2B25976  31.587  43.275   8.250
 6265POPC   C3B25977  31.560  43.328   7.950
 6265POPC   C4B25978  31.585  43.335   7.650
 6266POPC   NC325979  39.276   7.417   9.450
 6266POPC   PO425980  39.209   7.421   9.150
 6266POPC   GL125981  39.258   7.385   8.850
 6266POPC   GL225982  39.096   7.541   8.850
 6266POPC   C1A25983  39.228   7.464   8.550
 6266POPC   D2A25984  39.265   7.447   8.250
 6266POPC   C3A25985  39.224   7.377   7.950
 6266POPC   C4A25986  39.197   7.436   7.650
 6266POPC   C1B25987  39.040   7.594   8.550
 6266POPC   C2B25988  39.006   7.525   8.250
 6266POPC   C3B25989  38.999   7.589   7.950
 6266POPC   C4B25990  38.984   7.571   7.650
 6267POPC   NC325991  34.626  39.201   9.450
 6267POPC   PO425992  34.552  39.255   9.150
 6267POPC   GL125993  34.578  39.256   8.850
 6267POPC   GL225994  34.611  39.370   8.850
 6267POPC   C1A25995  34.612  39.252   8.550
 6267POPC   D2A25996  34.549  39.262   8.250
 6267POPC   C3A25997  34.572  39.279   7.950
 6267POPC   C4A25998  34.559  39.230   7.650
 6267POPC   C1B25999  34.718  39.504   8.550
 6267POPC   C2B26000  34.718  39.450   8.250
 6267POPC   C3B26001  34.698  39.470   7.950
 6267POPC   C4B26002  34.715  39.470   7.650
 6268POPC   NC326003  26.791   6.695   9.450
 6268POPC   PO426004  26.778   6.661   9.150
 6268POPC   GL126005  26.815   6.672   8.850
 6268POPC   GL226006  26.775   6.497   8.850
 6268POPC   C1A26007  26.854   6.674   8.550
 6268POPC   D2A26008  26.775   6.613   8.250
 6268POPC   C3A26009  26.801   6.606   7.950
 6268POPC   C4A26010  26.769   6.611   7.650
 6268POPC   C1B26011  26.741   6.443   8.550
 6268POPC   C2B26012  26.746   6.432   8.250
 6268POPC   C3B26013  26.770   6.393   7.950
 6268POPC   C4B26014  26.736   6.365   7.650
 6269POPC   NC326015   8.165  29.905   9.450
 6269POPC   PO426016   8.226  29.968   9.150
 6269POPC   GL126017   8.233  29.937   8.850
 6269POPC   GL226018   8.156  30.009   8.850
 6269POPC   C1A26019   8.166  29.886   8.550
 6269POPC   D2A26020   8.171  29.881   8.250
 6269POPC   C3A26021   8.233  29.928   7.950
 6269POPC   C4A26022   8.162  29.961   7.650
 6269POPC   C1B26023   8.099  30.151   8.550
 6269POPC   C2B26024   8.081  30.176   8.250
 6269POPC   C3B26025   8.082  30.140   7.950
 6269POPC   C4B26026   8.086  30.147   7.650
 6270POPC   NC326027  39.281   5.110   9.450
 6270POPC   PO426028  39.181   5.052   9.150
 6270POPC   GL126029  39.273   5.112   8.850
 6270POPC   GL226030  39.189   5.264   8.850
 6270POPC   C1A26031  39.225   5.122   8.550
 6270POPC   D2A26032  39.216   5.092   8.250
 6270POPC   C3A26033  39.206   5.044   7.950
 6270POPC   C4A26034  39.189   5.133   7.650
 6270POPC   C1B26035  39.247   5.379   8.550
 6270POPC   C2B26036  39.185   5.375   8.250
 6270POPC   C3B26037  39.249   5.299   7.950
 6270POPC   C4B26038  39.190   5.338   7.650
 6271POPC   NC326039  13.647   5.094   9.450
 6271POPC   PO426040  13.629   5.129   9.150
 6271POPC   GL126041  13.598   5.077   8.850
 6271POPC   GL226042  13.603   4.953   8.850
 6271POPC   C1A26043  13.652   5.132   8.550
 6271POPC   D2A26044  13.623   5.140   8.250
 6271POPC   C3A26045  13.656   5.127   7.950
 6271POPC   C4A26046  13.649   5.114   7.650
 6271POPC   C1B26047  13.502   4.922   8.550
 6271POPC   C2B26048  13.549   4.869   8.250
 6271POPC   C3B26049  13.554   4.915   7.950
 6271POPC   C4B26050  13.536   4.881   7.650
 6272POPC   NC326051  40.790  29.933   9.450
 6272POPC   PO426052  40.777  29.875   9.150
 6272POPC   GL126053  40.766  29.914   8.850
 6272POPC   GL226054  40.786  30.028   8.850
 6272POPC   C1A26055  40.799  29.950   8.550
 6272POPC   D2A26056  40.787  29.886   8.250
 6272POPC   C3A26057  40.831  29.934   7.950
 6272POPC   C4A26058  40.753  29.970   7.650
 6272POPC   C1B26059  40.809  30.201   8.550
 6272POPC   C2B26060  40.818  30.214   8.250
 6272POPC   C3B26061  40.748  30.181   7.950
 6272POPC   C4B26062  40.817  30.140   7.650
 6273POPC   NC326063  22.132  10.535   9.450
 6273POPC   PO426064  22.157  10.519   9.150
 6273POPC   GL126065  22.199  10.509   8.850
 6273POPC   GL226066  22.289  10.611   8.850
 6273POPC   C1A26067  22.129  10.528   8.550
 6273POPC   D2A26068  22.132  10.533   8.250
 6273POPC   C3A26069  22.186  10.559   7.950
 6273POPC   C4A26070  22.158  10.544   7.650
 6273POPC   C1B26071  22.304  10.736   8.550
 6273POPC   C2B26072  22.368  10.656   8.250
 6273POPC   C3B26073  22.368  10.713   7.950
 6273POPC   C4B26074  22.336  10.721   7.650
 6274POPC   NC326075  19.792   0.465   9.450
 6274POPC   PO426076  19.840   0.439   9.150
 6274POPC   GL126077  19.811   0.423   8.850
 6274POPC   GL226078  19.712   0.529   8.850
 6274POPC   C1A26079  19.839   0.455   8.550
 6274POPC   D2A26080  19.863   0.392   8.250
 6274POPC   C3A26081  19.819   0.430   7.950
 6274POPC   C4A26082  19.848   0.461   7.650
 6274POPC   C1B26083  19.620   0.577   8.550
 6274POPC   C2B26084  19.620   0.586   8.250
 6274POPC   C3B26085  19.607   0.618   7.950
 6274POPC   C4B26086  19.667   0.614   7.650
 6275POPC   NC326087  12.109   5.083   9.450
 6275POPC   PO426088  12.113   5.082   9.150
 6275POPC   GL126089  12.052   5.047   8.850
 6275POPC   GL226090  12.085   5.211   8.850
 6275POPC   C1A26091  12.104   5.077   8.550
 6275POPC   D2A26092  12.101   5.128   8.250
 6275POPC   C3A26093  12.070   5.103   7.950
 6275POPC   C4A26094  12.108   5.142   7.650
 6275POPC   C1B26095  12.109   5.298   8.550
 6275POPC   C2B26096  12.122   5.319   8.250
 6275POPC   C3B26097  12.168   5.334   7.950
 6275POPC   C4B26098  12.099   5.344   7.650
 6276POPC   NC326099  43.897  18.292   9.450
 6276POPC   PO426100  43.886  18.260   9.150
 6276POPC   GL126101  43.864  18.244   8.850
 6276POPC   GL226102  44.004  18.394   8.850
 6276POPC   C1A26103  43.888  18.282   8.550
 6276POPC   D2A26104  43.910  18.323   8.250
 6276POPC   C3A26105  43.845  18.264   7.950
 6276POPC   C4A26106  43.889  18.253   7.650
 6276POPC   C1B26107  44.051  18.455   8.550
 6276POPC   C2B26108  44.030  18.427   8.250
 6276POPC   C3B26109  44.046  18.420   7.950
 6276POPC   C4B26110  44.027  18.495   7.650
 6277POPC   NC326111   1.259  39.262   9.450
 6277POPC   PO426112   1.219  39.209   9.150
 6277POPC   GL126113   1.208  39.230   8.850
 6277POPC   GL226114   1.085  39.238   8.850
 6277POPC   C1A26115   1.214  39.203   8.550
 6277POPC   D2A26116   1.255  39.277   8.250
 6277POPC   C3A26117   1.168  39.186   7.950
 6277POPC   C4A26118   1.253  39.260   7.650
 6277POPC   C1B26119   0.940  39.355   8.550
 6277POPC   C2B26120   1.003  39.309   8.250
 6277POPC   C3B26121   1.006  39.324   7.950
 6277POPC   C4B26122   1.020  39.299   7.650
 6278POPC   NC326123  28.359  30.736   9.450
 6278POPC   PO426124  28.334  30.680   9.150
 6278POPC   GL126125  28.375  30.733   8.850
 6278POPC   GL226126  28.473  30.651   8.850
 6278POPC   C1A26127  28.334  30.736   8.550
 6278POPC   D2A26128  28.404  30.732   8.250
 6278POPC   C3A26129  28.347  30.717   7.950
 6278POPC   C4A26130  28.381  30.723   7.650
 6278POPC   C1B26131  28.557  30.637   8.550
 6278POPC   C2B26132  28.646  30.560   8.250
 6278POPC   C3B26133  28.578  30.560   7.950
 6278POPC   C4B26134  28.549  30.586   7.650
 6279POPC   NC326135  33.011  39.279   9.450
 6279POPC   PO426136  33.061  39.204   9.150
 6279POPC   GL126137  33.072  39.238   8.850
 6279POPC   GL226138  32.903  39.375   8.850
 6279POPC   C1A26139  33.029  39.272   8.550
 6279POPC   D2A26140  32.982  39.191   8.250
 6279POPC   C3A26141  33.006  39.266   7.950
 6279POPC   C4A26142  33.055  39.181   7.650
 6279POPC   C1B26143  32.829  39.469   8.550
 6279POPC   C2B26144  32.894  39.416   8.250
 6279POPC   C3B26145  32.858  39.391   7.950
 6279POPC   C4B26146  32.879  39.408   7.650
 6280POPC   NC326147  40.049  34.581   9.450
 6280POPC   PO426148  40.031  34.596   9.150
 6280POPC   GL126149  39.961  34.595   8.850
 6280POPC   GL226150  39.907  34.453   8.850
 6280POPC   C1A26151  40.040  34.580   8.550
 6280POPC   D2A26152  40.049  34.580   8.250
 6280POPC   C3A26153  39.969  34.570   7.950
 6280POPC   C4A26154  39.992  34.572   7.650
 6280POPC   C1B26155  39.923  34.325   8.550
 6280POPC   C2B26156  39.872  34.399   8.250
 6280POPC   C3B26157  39.844  34.333   7.950
 6280POPC   C4B26158  39.923  34.318   7.650
 6281POPC   NC326159  42.303  21.342   9.450
 6281POPC   PO426160  42.298  21.341   9.150
 6281POPC   GL126161  42.287  21.427   8.850
 6281POPC   GL226162  42.194  21.376   8.850
 6281POPC   C1A26163  42.349  21.371   8.550
 6281POPC   D2A26164  42.320  21.426   8.250
 6281POPC   C3A26165  42.352  21.414   7.950
 6281POPC   C4A26166  42.302  21.436   7.650
 6281POPC   C1B26167  42.129  21.321   8.550
 6281POPC   C2B26168  42.051  21.370   8.250
 6281POPC   C3B26169  42.044  21.336   7.950
 6281POPC   C4B26170  42.130  21.337   7.650
 6282POPC   NC326171  33.042  28.334   9.450
 6282POPC   PO426172  33.062  28.330   9.150
 6282POPC   GL126173  33.066  28.324   8.850
 6282POPC   GL226174  32.927  28.467   8.850
 6282POPC   C1A26175  33.039  28.333   8.550
 6282POPC   D2A26176  33.023  28.383   8.250
 6282POPC   C3A26177  33.006  28.379   7.950
 6282POPC   C4A26178  33.067  28.366   7.650
 6282POPC   C1B26179  32.959  28.606   8.550
 6282POPC   C2B26180  32.875  28.585   8.250
 6282POPC   C3B26181  32.874  28.633   7.950
 6282POPC   C4B26182  32.931  28.600   7.650
 6283POPC   NC326183  18.304  43.882   9.450
 6283POPC   PO426184  18.272  43.863   9.150
 6283POPC   GL126185  18.271  43.838   8.850
 6283POPC   GL226186  18.196  43.788   8.850
 6283POPC   C1A26187  18.277  43.857   8.550
 6283POPC   D2A26188  18.309  43.907   8.250
 6283POPC   C3A26189  18.310  43.840   7.950
 6283POPC   C4A26190  18.332  43.923   7.650
 6283POPC   C1B26191  18.182  43.681   8.550
 6283POPC   C2B26192  18.125  43.668   8.250
 6283POPC   C3B26193  18.145  43.633   7.950
 6283POPC   C4B26194  18.163  43.683   7.650
 6284POPC   NC326195  17.507  29.140   9.450
 6284POPC   PO426196  17.525  29.166   9.150
 6284POPC   GL126197  17.482  29.121   8.850
 6284POPC   GL226198  17.452  29.009   8.850
 6284POPC   C1A26199  17.496  29.130   8.550
 6284POPC   D2A26200  17.554  29.107   8.250
 6284POPC   C3A26201  17.555  29.140   7.950
 6284POPC   C4A26202  17.504  29.128   7.650
 6284POPC   C1B26203  17.525  28.847   8.550
 6284POPC   C2B26204  17.464  28.941   8.250
 6284POPC   C3B26205  17.479  28.915   7.950
 6284POPC   C4B26206  17.536  28.889   7.650
 6285POPC   NC326207  33.846  25.276   9.450
 6285POPC   PO426208  33.802  25.258   9.150
 6285POPC   GL126209  33.837  25.296   8.850
 6285POPC   GL226210  33.968  25.278   8.850
 6285POPC   C1A26211  33.840  25.272   8.550
 6285POPC   D2A26212  33.837  25.276   8.250
 6285POPC   C3A26213  33.809  25.304   7.950
 6285POPC   C4A26214  33.753  25.257   7.650
 6285POPC   C1B26215  34.035  25.314   8.550
 6285POPC   C2B26216  34.084  25.303   8.250
 6285POPC   C3B26217  34.014  25.307   7.950
 6285POPC   C4B26218  34.029  25.392   7.650
 6286POPC   NC326219  26.064  25.266   9.450
 6286POPC   PO426220  26.074  25.239   9.150
 6286POPC   GL126221  26.059  25.218   8.850
 6286POPC   GL226222  25.966  25.327   8.850
 6286POPC   C1A26223  26.063  25.298   8.550
 6286POPC   D2A26224  26.023  25.216   8.250
 6286POPC   C3A26225  26.072  25.301   7.950
 6286POPC   C4A26226  26.057  25.300   7.650
 6286POPC   C1B26227  25.936  25.473   8.550
 6286POPC   C2B26228  25.845  25.478   8.250
 6286POPC   C3B26229  25.932  25.469   7.950
 6286POPC   C4B26230  25.891  25.455   7.650
 6287POPC   NC326231  43.885  11.268   9.450
 6287POPC   PO426232  43.872  11.343   9.150
 6287POPC   GL126233  43.886  11.273   8.850
 6287POPC   GL226234  43.863  11.197   8.850
 6287POPC   C1A26235  43.852  11.326   8.550
 6287POPC   D2A26236  43.839  11.253   8.250
 6287POPC   C3A26237  43.927  11.336   7.950
 6287POPC   C4A26238  43.858  11.342   7.650
 6287POPC   C1B26239  43.873  11.090   8.550
 6287POPC   C2B26240  43.928  11.099   8.250
 6287POPC   C3B26241  43.903  11.013   7.950
 6287POPC   C4B26242  43.882  11.087   7.650
 6288POPC   NC326243  27.569  42.296   9.450
 6288POPC   PO426244  27.601  42.290   9.150
 6288POPC   GL126245  27.572  42.366   8.850
 6288POPC   GL226246  27.638  42.242   8.850
 6288POPC   C1A26247  27.625  42.354   8.550
 6288POPC   D2A26248  27.600  42.381   8.250
 6288POPC   C3A26249  27.603  42.333   7.950
 6288POPC   C4A26250  27.615  42.345   7.650
 6288POPC   C1B26251  27.748  42.088   8.550
 6288POPC   C2B26252  27.747  42.145   8.250
 6288POPC   C3B26253  27.776  42.121   7.950
 6288POPC   C4B26254  27.783  42.131   7.650
 6289POPC   NC326255  23.728  20.631   9.450
 6289POPC   PO426256  23.736  20.638   9.150
 6289POPC   GL126257  23.706  20.624   8.850
 6289POPC   GL226258  23.813  20.705   8.850
 6289POPC   C1A26259  23.688  20.588   8.550
 6289POPC   D2A26260  23.710  20.659   8.250
 6289POPC   C3A26261  23.674  20.588   7.950
 6289POPC   C4A26262  23.721  20.600   7.650
 6289POPC   C1B26263  23.916  20.785   8.550
 6289POPC   C2B26264  23.884  20.819   8.250
 6289POPC   C3B26265  23.849  20.734   7.950
 6289POPC   C4B26266  23.936  20.828   7.650
 6290POPC   NC326267  29.964   8.965   9.450
 6290POPC   PO426268  29.917   8.949   9.150
 6290POPC   GL126269  29.948   9.019   8.850
 6290POPC   GL226270  29.861   8.844   8.850
 6290POPC   C1A26271  29.965   9.013   8.550
 6290POPC   D2A26272  29.928   8.939   8.250
 6290POPC   C3A26273  29.970   9.017   7.950
 6290POPC   C4A26274  29.920   8.969   7.650
 6290POPC   C1B26275  29.768   8.797   8.550
 6290POPC   C2B26276  29.785   8.833   8.250
 6290POPC   C3B26277  29.716   8.809   7.950
 6290POPC   C4B26278  29.776   8.795   7.650
 6291POPC   NC326279  35.384  27.636   9.450
 6291POPC   PO426280  35.351  27.567   9.150
 6291POPC   GL126281  35.390  27.614   8.850
 6291POPC   GL226282  35.206  27.652   8.850
 6291POPC   C1A26283  35.308  27.580   8.550
 6291POPC   D2A26284  35.310  27.589   8.250
 6291POPC   C3A26285  35.373  27.607   7.950
 6291POPC   C4A26286  35.347  27.588   7.650
 6291POPC   C1B26287  35.113  27.680   8.550
 6291POPC   C2B26288  35.080  27.652   8.250
 6291POPC   C3B26289  35.073  27.628   7.950
 6291POPC   C4B26290  35.065  27.676   7.650
 6292POPC   NC326291  40.739  35.373   9.450
 6292POPC   PO426292  40.762  35.382   9.150
 6292POPC   GL126293  40.776  35.394   8.850
 6292POPC   GL226294  40.867  35.519   8.850
 6292POPC   C1A26295  40.811  35.372   8.550
 6292POPC   D2A26296  40.787  35.357   8.250
 6292POPC   C3A26297  40.792  35.341   7.950
 6292POPC   C4A26298  40.829  35.343   7.650
 6292POPC   C1B26299  40.896  35.634   8.550
 6292POPC   C2B26300  40.849  35.602   8.250
 6292POPC   C3B26301  40.857  35.594   7.950
 6292POPC   C4B26302  40.916  35.568   7.650
 6293POPC   NC326303   5.894   1.959   9.450
 6293POPC   PO426304   5.902   1.987   9.150
 6293POPC   GL126305   5.853   1.962   8.850
 6293POPC   GL226306   5.974   2.026   8.850
 6293POPC   C1A26307   5.889   1.967   8.550
 6293POPC   D2A26308   5.862   2.004   8.250
 6293POPC   C3A26309   5.828   1.967   7.950
 6293POPC   C4A26310   5.913   2.001   7.650
 6293POPC   C1B26311   6.168   1.956   8.550
 6293POPC   C2B26312   6.072   1.979   8.250
 6293POPC   C3B26313   6.076   2.009   7.950
 6293POPC   C4B26314   6.090   2.029   7.650
 6294POPC   NC326315  32.237  35.394   9.450
 6294POPC   PO426316  32.214  35.321   9.150
 6294POPC   GL126317  32.214  35.375   8.850
 6294POPC   GL226318  32.294  35.227   8.850
 6294POPC   C1A26319  32.235  35.304   8.550
 6294POPC   D2A26320  32.281  35.388   8.250
 6294POPC   C3A26321  32.266  35.399   7.950
 6294POPC   C4A26322  32.216  35.316   7.650
 6294POPC   C1B26323  32.361  35.069   8.550
 6294POPC   C2B26324  32.375  35.127   8.250
 6294POPC   C3B26325  32.365  35.116   7.950
 6294POPC   C4B26326  32.339  35.149   7.650
 6295POPC   NC326327  10.544   0.459   9.450
 6295POPC   PO426328  10.522   0.404   9.150
 6295POPC   GL126329  10.486   0.447   8.850
 6295POPC   GL226330  10.476   0.541   8.850
 6295POPC   C1A26331  10.528   0.439   8.550
 6295POPC   D2A26332  10.483   0.426   8.250
 6295POPC   C3A26333  10.482   0.391   7.950
 6295POPC   C4A26334  10.482   0.437   7.650
 6295POPC   C1B26335  10.435   0.717   8.550
 6295POPC   C2B26336  10.431   0.648   8.250
 6295POPC   C3B26337  10.443   0.677   7.950
 6295POPC   C4B26338  10.430   0.637   7.650
 6296POPC   NC326339  18.275  30.731   9.450
 6296POPC   PO426340  18.324  30.722   9.150
 6296POPC   GL126341  18.259  30.681   8.850
 6296POPC   GL226342  18.276  30.553   8.850
 6296POPC   C1A26343  18.246  30.670   8.550
 6296POPC   D2A26344  18.302  30.723   8.250
 6296POPC   C3A26345  18.274  30.724   7.950
 6296POPC   C4A26346  18.237  30.721   7.650
 6296POPC   C1B26347  18.288  30.427   8.550
 6296POPC   C2B26348  18.329  30.422   8.250
 6296POPC   C3B26349  18.342  30.437   7.950
 6296POPC   C4B26350  18.294  30.444   7.650
 6297POPC   NC326351  43.870  17.552   9.450
 6297POPC   PO426352  43.894  17.497   9.150
 6297POPC   GL126353  43.887  17.513   8.850
 6297POPC   GL226354  43.911  17.386   8.850
 6297POPC   C1A26355  43.908  17.469   8.550
 6297POPC   D2A26356  43.924  17.512   8.250
 6297POPC   C3A26357  43.847  17.525   7.950
 6297POPC   C4A26358  43.861  17.476   7.650
 6297POPC   C1B26359  43.808  17.262   8.550
 6297POPC   C2B26360  43.803  17.238   8.250
 6297POPC   C3B26361  43.884  17.227   7.950
 6297POPC   C4B26362  43.807  17.241   7.650
 6298POPC   NC326363  26.867   9.012   9.450
 6298POPC   PO426364  26.861   8.997   9.150
 6298POPC   GL126365  26.857   9.008   8.850
 6298POPC   GL226366  26.906   9.085   8.850
 6298POPC   C1A26367  26.821   9.011   8.550
 6298POPC   D2A26368  26.854   8.944   8.250
 6298POPC   C3A26369  26.856   9.013   7.950
 6298POPC   C4A26370  26.794   8.981   7.650
 6298POPC   C1B26371  26.963   9.206   8.550
 6298POPC   C2B26372  26.997   9.126   8.250
 6298POPC   C3B26373  26.992   9.200   7.950
 6298POPC   C4B26374  26.973   9.179   7.650
 6299POPC   NC326375  29.106  27.631   9.450
 6299POPC   PO426376  29.136  27.574   9.150
 6299POPC   GL126377  29.152  27.602   8.850
 6299POPC   GL226378  29.123  27.446   8.850
 6299POPC   C1A26379  29.101  27.637   8.550
 6299POPC   D2A26380  29.125  27.627   8.250
 6299POPC   C3A26381  29.173  27.573   7.950
 6299POPC   C4A26382  29.157  27.627   7.650
 6299POPC   C1B26383  29.187  27.394   8.550
 6299POPC   C2B26384  29.122  27.391   8.250
 6299POPC   C3B26385  29.151  27.318   7.950
 6299POPC   C4B26386  29.211  27.324   7.650
 6300POPC   NC326387   8.233  17.477   9.450
 6300POPC   PO426388   8.209  17.486   9.150
 6300POPC   GL126389   8.204  17.498   8.850
 6300POPC   GL226390   8.286  17.485   8.850
 6300POPC   C1A26391   8.225  17.533   8.550
 6300POPC   D2A26392   8.189  17.502   8.250
 6300POPC   C3A26393   8.154  17.488   7.950
 6300POPC   C4A26394   8.217  17.554   7.650
 6300POPC   C1B26395   8.473  17.609   8.550
 6300POPC   C2B26396   8.403  17.561   8.250
 6300POPC   C3B26397   8.441  17.512   7.950
 6300POPC   C4B26398   8.477  17.551   7.650
 6301POPC   NC326399  38.453  23.692   9.450
 6301POPC   PO426400  38.410  23.720   9.150
 6301POPC   GL126401  38.501  23.728   8.850
 6301POPC   GL226402  38.584  23.730   8.850
 6301POPC   C1A26403  38.481  23.710   8.550
 6301POPC   D2A26404  38.443  23.730   8.250
 6301POPC   C3A26405  38.425  23.722   7.950
 6301POPC   C4A26406  38.428  23.700   7.650
 6301POPC   C1B26407  38.689  23.804   8.550
 6301POPC   C2B26408  38.637  23.855   8.250
 6301POPC   C3B26409  38.642  23.773   7.950
 6301POPC   C4B26410  38.633  23.868   7.650
 6302POPC   NC326411  14.445  38.467   9.450
 6302POPC   PO426412  14.377  38.482   9.150
 6302POPC   GL126413  14.399  38.484   8.850
 6302POPC   GL226414  14.369  38.625   8.850
 6302POPC   C1A26415  14.353  38.494   8.550
 6302POPC   D2A26416  14.377  38.455   8.250
 6302POPC   C3A26417  14.357  38.434   7.950
 6302POPC   C4A26418  14.434  38.440   7.650
 6302POPC   C1B26419  14.418  38.688   8.550
 6302POPC   C2B26420  14.398  38.733   8.250
 6302POPC   C3B26421  14.400  38.729   7.950
 6302POPC   C4B26422  14.460  38.697   7.650
 6303POPC   NC326423  22.943  29.948   9.450
 6303POPC   PO426424  22.920  29.963   9.150
 6303POPC   GL126425  22.965  29.957   8.850
 6303POPC   GL226426  23.034  29.828   8.850
 6303POPC   C1A26427  22.965  29.952   8.550
 6303POPC   D2A26428  22.982  29.933   8.250
 6303POPC   C3A26429  22.958  29.949   7.950
 6303POPC   C4A26430  22.930  29.966   7.650
 6303POPC   C1B26431  23.101  29.689   8.550
 6303POPC   C2B26432  23.059  29.689   8.250
 6303POPC   C3B26433  23.108  29.695   7.950
 6303POPC   C4B26434  23.106  29.754   7.650
 6304POPC   NC326435   5.057  22.904   9.450
 6304POPC   PO426436   5.047  22.976   9.150
 6304POPC   GL126437   5.094  22.967   8.850
 6304POPC   GL226438   5.130  22.827   8.850
 6304POPC   C1A26439   5.100  22.944   8.550
 6304POPC   D2A26440   5.124  22.954   8.250
 6304POPC   C3A26441   5.077  22.965   7.950
 6304POPC   C4A26442   5.070  22.934   7.650
 6304POPC   C1B26443   5.169  22.723   8.550
 6304POPC   C2B26444   5.187  22.753   8.250
 6304POPC   C3B26445   5.241  22.746   7.950
 6304POPC   C4B26446   5.239  22.752   7.650
 6305POPC   NC326447  24.474   7.426   9.450
 6305POPC   PO426448  24.458   7.375   9.150
 6305POPC   GL126449  24.460   7.466   8.850
 6305POPC   GL226450  24.357   7.462   8.850
 6305POPC   C1A26451  24.465   7.383   8.550
 6305POPC   D2A26452  24.445   7.416   8.250
 6305POPC   C3A26453  24.534   7.373   7.950
 6305POPC   C4A26454  24.444   7.392   7.650
 6305POPC   C1B26455  24.255   7.495   8.550
 6305POPC   C2B26456  24.269   7.478   8.250
 6305POPC   C3B26457  24.267   7.485   7.950
 6305POPC   C4B26458  24.258   7.437   7.650
 6306POPC   NC326459  43.863   8.189   9.450
 6306POPC   PO426460  43.900   8.240   9.150
 6306POPC   GL126461  43.847   8.191   8.850
 6306POPC   GL226462  43.872   8.106   8.850
 6306POPC   C1A26463  43.930   8.162   8.550
 6306POPC   D2A26464  43.856   8.184   8.250
 6306POPC   C3A26465  43.884   8.171   7.950
 6306POPC   C4A26466  43.883   8.177   7.650
 6306POPC   C1B26467  43.921   7.972   8.550
 6306POPC   C2B26468  43.888   7.977   8.250
 6306POPC   C3B26469  43.934   7.921   7.950
 6306POPC   C4B26470  43.944   7.907   7.650
 6307POPC   NC326471  10.523  25.998   9.450
 6307POPC   PO426472  10.513  26.002   9.150
 6307POPC   GL126473  10.492  26.090   8.850
 6307POPC   GL226474  10.546  25.883   8.850
 6307POPC   C1A26475  10.485  26.076   8.550
 6307POPC   D2A26476  10.513  26.005   8.250
 6307POPC   C3A26477  10.559  26.069   7.950
 6307POPC   C4A26478  10.566  26.042   7.650
 6307POPC   C1B26479  10.528  25.757   8.550
 6307POPC   C2B26480  10.529  25.781   8.250
 6307POPC   C3B26481  10.461  25.813   7.950
 6307POPC   C4B26482  10.518  25.785   7.650
 6308POPC   NC326483  13.635  25.238   9.450
 6308POPC   PO426484  13.616  25.301   9.150
 6308POPC   GL126485  13.614  25.286   8.850
 6308POPC   GL226486  13.608  25.103   8.850
 6308POPC   C1A26487  13.626  25.236   8.550
 6308POPC   D2A26488  13.651  25.251   8.250
 6308POPC   C3A26489  13.592  25.235   7.950
 6308POPC   C4A26490  13.639  25.223   7.650
 6308POPC   C1B26491  13.672  24.978   8.550
 6308POPC   C2B26492  13.650  25.018   8.250
 6308POPC   C3B26493  13.654  24.996   7.950
 6308POPC   C4B26494  13.689  24.982   7.650
 6309POPC   NC326495  38.454  36.084   9.450
 6309POPC   PO426496  38.416  36.163   9.150
 6309POPC   GL126497  38.473  36.142   8.850
 6309POPC   GL226498  38.325  36.040   8.850
 6309POPC   C1A26499  38.454  36.110   8.550
 6309POPC   D2A26500  38.426  36.110   8.250
 6309POPC   C3A26501  38.476  36.130   7.950
 6309POPC   C4A26502  38.441  36.161   7.650
 6309POPC   C1B26503  38.228  36.024   8.550
 6309POPC   C2B26504  38.224  35.971   8.250
 6309POPC   C3B26505  38.237  36.006   7.950
 6309POPC   C4B26506  38.215  36.047   7.650
 6310POPC   NC326507  26.081  38.451   9.450
 6310POPC   PO426508  26.073  38.422   9.150
 6310POPC   GL126509  26.027  38.495   8.850
 6310POPC   GL226510  26.117  38.375   8.850
 6310POPC   C1A26511  26.052  38.417   8.550
 6310POPC   D2A26512  26.024  38.487   8.250
 6310POPC   C3A26513  26.073  38.505   7.950
 6310POPC   C4A26514  26.064  38.415   7.650
 6310POPC   C1B26515  26.100  38.231   8.550
 6310POPC   C2B26516  26.145  38.226   8.250
 6310POPC   C3B26517  26.088  38.234   7.950
 6310POPC   C4B26518  26.101  38.244   7.650
 6311POPC   NC326519  44.672  25.238   9.450
 6311POPC   PO426520  44.629  25.297   9.150
 6311POPC   GL126521  44.663  25.286   8.850
 6311POPC   GL226522  44.738  25.412   8.850
 6311POPC   C1A26523  44.624  25.264   8.550
 6311POPC   D2A26524  44.701  25.276   8.250
 6311POPC   C3A26525  44.613  25.289   7.950
 6311POPC   C4A26526  44.633  25.274   7.650
 6311POPC   C1B26527  44.710  25.515   8.550
 6311POPC   C2B26528  44.790  25.494   8.250
 6311POPC   C3B26529  44.731  25.490   7.950
 6311POPC   C4B26530  44.726  25.520   7.650
 6312POPC   NC326531  43.909   5.100   9.450
 6312POPC   PO426532  43.886   5.107   9.150
 6312POPC   GL126533  43.853   5.056   8.850
 6312POPC   GL226534  43.815   5.057   8.850
 6312POPC   C1A26535  43.910   5.100   8.550
 6312POPC   D2A26536  43.929   5.076   8.250
 6312POPC   C3A26537  43.920   5.108   7.950
 6312POPC   C4A26538  43.926   5.107   7.650
 6312POPC   C1B26539  43.624   5.022   8.550
 6312POPC   C2B26540  43.628   4.974   8.250
 6312POPC   C3B26541  43.678   5.051   7.950
 6312POPC   C4B26542  43.620   5.004   7.650
 6313POPC   NC326543  29.970  42.315   9.450
 6313POPC   PO426544  29.894  42.296   9.150
 6313POPC   GL126545  29.909  42.298   8.850
 6313POPC   GL226546  29.829  42.358   8.850
 6313POPC   C1A26547  29.906  42.353   8.550
 6313POPC   D2A26548  29.917  42.289   8.250
 6313POPC   C3A26549  29.944  42.298   7.950
 6313POPC   C4A26550  29.919  42.305   7.650
 6313POPC   C1B26551  29.705  42.392   8.550
 6313POPC   C2B26552  29.704  42.395   8.250
 6313POPC   C3B26553  29.704  42.390   7.950
 6313POPC   C4B26554  29.693  42.438   7.650
 6314POPC   NC326555  40.010  33.059   9.450
 6314POPC   PO426556  39.989  32.983   9.150
 6314POPC   GL126557  40.043  33.059   8.850
 6314POPC   GL226558  40.151  33.059   8.850
 6314POPC   C1A26559  39.976  33.063   8.550
 6314POPC   D2A26560  39.989  33.018   8.250
 6314POPC   C3A26561  39.962  33.006   7.950
 6314POPC   C4A26562  39.966  32.981   7.650
 6314POPC   C1B26563  40.232  33.068   8.550
 6314POPC   C2B26564  40.224  33.059   8.250
 6314POPC   C3B26565  40.278  33.065   7.950
 6314POPC   C4B26566  40.296  33.095   7.650
 6315POPC   NC326567  26.085  16.729   9.450
 6315POPC   PO426568  26.023  16.778   9.150
 6315POPC   GL126569  26.018  16.743   8.850
 6315POPC   GL226570  25.978  16.612   8.850
 6315POPC   C1A26571  26.069  16.779   8.550
 6315POPC   D2A26572  26.087  16.770   8.250
 6315POPC   C3A26573  26.064  16.687   7.950
 6315POPC   C4A26574  26.051  16.721   7.650
 6315POPC   C1B26575  25.911  16.525   8.550
 6315POPC   C2B26576  25.937  16.466   8.250
 6315POPC   C3B26577  25.943  16.477   7.950
 6315POPC   C4B26578  25.910  16.539   7.650
 6316POPC   NC326579  26.769  32.247   9.450
 6316POPC   PO426580  26.826  32.251   9.150
 6316POPC   GL126581  26.857  32.260   8.850
 6316POPC   GL226582  26.742  32.391   8.850
 6316POPC   C1A26583  26.811  32.246   8.550
 6316POPC   D2A26584  26.863  32.292   8.250
 6316POPC   C3A26585  26.819  32.263   7.950
 6316POPC   C4A26586  26.805  32.268   7.650
 6316POPC   C1B26587  26.648  32.505   8.550
 6316POPC   C2B26588  26.692  32.442   8.250
 6316POPC   C3B26589  26.631  32.457   7.950
 6316POPC   C4B26590  26.667  32.411   7.650
 6317POPC   NC326591  43.142  22.901   9.450
 6317POPC   PO426592  43.108  22.892   9.150
 6317POPC   GL126593  43.130  22.940   8.850
 6317POPC   GL226594  42.940  22.997   8.850
 6317POPC   C1A26595  43.131  22.963   8.550
 6317POPC   D2A26596  43.134  22.934   8.250
 6317POPC   C3A26597  43.066  22.960   7.950
 6317POPC   C4A26598  43.119  22.912   7.650
 6317POPC   C1B26599  42.882  23.032   8.550
 6317POPC   C2B26600  42.845  22.978   8.250
 6317POPC   C3B26601  42.822  22.964   7.950
 6317POPC   C4B26602  42.913  23.047   7.650
 6318POPC   NC326603  19.033  22.912   9.450
 6318POPC   PO426604  19.107  22.910   9.150
 6318POPC   GL126605  19.090  22.971   8.850
 6318POPC   GL226606  18.985  22.873   8.850
 6318POPC   C1A26607  19.067  22.956   8.550
 6318POPC   D2A26608  19.029  22.923   8.250
 6318POPC   C3A26609  19.083  22.922   7.950
 6318POPC   C4A26610  19.024  22.976   7.650
 6318POPC   C1B26611  18.772  22.896   8.550
 6318POPC   C2B26612  18.853  22.841   8.250
 6318POPC   C3B26613  18.860  22.896   7.950
 6318POPC   C4B26614  18.791  22.887   7.650
 6319POPC   NC326615  33.027   3.545   9.450
 6319POPC   PO426616  33.072   3.526   9.150
 6319POPC   GL126617  33.034   3.523   8.850
 6319POPC   GL226618  33.118   3.501   8.850
 6319POPC   C1A26619  33.050   3.516   8.550
 6319POPC   D2A26620  32.995   3.519   8.250
 6319POPC   C3A26621  33.019   3.591   7.950
 6319POPC   C4A26622  33.031   3.544   7.650
 6319POPC   C1B26623  33.217   3.361   8.550
 6319POPC   C2B26624  33.173   3.362   8.250
 6319POPC   C3B26625  33.222   3.374   7.950
 6319POPC   C4B26626  33.254   3.408   7.650
 6320POPC   NC326627  28.349  33.062   9.450
 6320POPC   PO426628  28.354  33.051   9.150
 6320POPC   GL126629  28.416  33.070   8.850
 6320POPC   GL226630  28.484  32.920   8.850
 6320POPC   C1A26631  28.327  33.054   8.550
 6320POPC   D2A26632  28.340  32.975   8.250
 6320POPC   C3A26633  28.417  33.032   7.950
 6320POPC   C4A26634  28.405  32.978   7.650
 6320POPC   C1B26635  28.530  32.763   8.550
 6320POPC   C2B26636  28.463  32.798   8.250
 6320POPC   C3B26637  28.538  32.812   7.950
 6320POPC   C4B26638  28.541  32.772   7.650
 6321POPC   NC326639  15.170   1.219   9.450
 6321POPC   PO426640  15.166   1.202   9.150
 6321POPC   GL126641  15.137   1.240   8.850
 6321POPC   GL226642  15.131   1.269   8.850
 6321POPC   C1A26643  15.209   1.238   8.550
 6321POPC   D2A26644  15.154   1.166   8.250
 6321POPC   C3A26645  15.208   1.179   7.950
 6321POPC   C4A26646  15.163   1.256   7.650
 6321POPC   C1B26647  14.968   1.380   8.550
 6321POPC   C2B26648  15.013   1.347   8.250
 6321POPC   C3B26649  15.016   1.392   7.950
 6321POPC   C4B26650  15.026   1.363   7.650
 6322POPC   NC326651   5.063  39.242   9.450
 6322POPC   PO426652   5.142  39.256   9.150
 6322POPC   GL126653   5.067  39.221   8.850
 6322POPC   GL226654   4.971  39.178   8.850
 6322POPC   C1A26655   5.086  39.201   8.550
 6322POPC   D2A26656   5.056  39.196   8.250
 6322POPC   C3A26657   5.050  39.229   7.950
 6322POPC   C4A26658   5.143  39.271   7.650
 6322POPC   C1B26659   4.855  39.189   8.550
 6322POPC   C2B26660   4.812  39.231   8.250
 6322POPC   C3B26661   4.797  39.194   7.950
 6322POPC   C4B26662   4.847  39.148   7.650
 6323POPC   NC326663  35.379   8.245   9.450
 6323POPC   PO426664  35.318   8.209   9.150
 6323POPC   GL126665  35.373   8.243   8.850
 6323POPC   GL226666  35.441   8.112   8.850
 6323POPC   C1A26667  35.334   8.225   8.550
 6323POPC   D2A26668  35.361   8.196   8.250
 6323POPC   C3A26669  35.396   8.246   7.950
 6323POPC   C4A26670  35.332   8.171   7.650
 6323POPC   C1B26671  35.574   8.047   8.550
 6323POPC   C2B26672  35.561   8.042   8.250
 6323POPC   C3B26673  35.588   8.012   7.950
 6323POPC   C4B26674  35.506   8.025   7.650
 6324POPC   NC326675  18.289  33.808   9.450
 6324POPC   PO426676  18.271  33.756   9.150
 6324POPC   GL126677  18.241  33.845   8.850
 6324POPC   GL226678  18.323  33.913   8.850
 6324POPC   C1A26679  18.255  33.806   8.550
 6324POPC   D2A26680  18.298  33.810   8.250
 6324POPC   C3A26681  18.283  33.800   7.950
 6324POPC   C4A26682  18.233  33.792   7.650
 6324POPC   C1B26683  18.325  34.038   8.550
 6324POPC   C2B26684  18.409  34.074   8.250
 6324POPC   C3B26685  18.330  34.072   7.950
 6324POPC   C4B26686  18.411  34.074   7.650
 6325POPC   NC326687  33.056  11.326   9.450
 6325POPC   PO426688  33.074  11.313   9.150
 6325POPC   GL126689  33.057  11.322   8.850
 6325POPC   GL226690  32.943  11.312   8.850
 6325POPC   C1A26691  33.041  11.321   8.550
 6325POPC   D2A26692  33.053  11.340   8.250
 6325POPC   C3A26693  32.988  11.290   7.950
 6325POPC   C4A26694  32.980  11.252   7.650
 6325POPC   C1B26695  32.763  11.248   8.550
 6325POPC   C2B26696  32.763  11.248   8.250
 6325POPC   C3B26697  32.801  11.288   7.950
 6325POPC   C4B26698  32.766  11.239   7.650
 6326POPC   NC326699  33.783  18.323   9.450
 6326POPC   PO426700  33.798  18.267   9.150
 6326POPC   GL126701  33.840  18.302   8.850
 6326POPC   GL226702  33.772  18.413   8.850
 6326POPC   C1A26703  33.811  18.273   8.550
 6326POPC   D2A26704  33.838  18.251   8.250
 6326POPC   C3A26705  33.782  18.245   7.950
 6326POPC   C4A26706  33.818  18.329   7.650
 6326POPC   C1B26707  33.869  18.560   8.550
 6326POPC   C2B26708  33.854  18.581   8.250
 6326POPC   C3B26709  33.843  18.525   7.950
 6326POPC   C4B26710  33.838  18.572   7.650
 6327POPC   NC326711  16.751   2.739   9.450
 6327POPC   PO426712  16.762   2.752   9.150
 6327POPC   GL126713  16.703   2.782   8.850
 6327POPC   GL226714  16.744   2.902   8.850
 6327POPC   C1A26715  16.720   2.769   8.550
 6327POPC   D2A26716  16.750   2.790   8.250
 6327POPC   C3A26717  16.739   2.740   7.950
 6327POPC   C4A26718  16.774   2.757   7.650
 6327POPC   C1B26719  16.717   2.970   8.550
 6327POPC   C2B26720  16.726   3.040   8.250
 6327POPC   C3B26721  16.741   2.985   7.950
 6327POPC   C4B26722  16.735   2.982   7.650
 6328POPC   NC326723   3.551  33.053   9.450
 6328POPC   PO426724   3.550  33.046   9.150
 6328POPC   GL126725   3.565  33.015   8.850
 6328POPC   GL226726   3.681  33.003   8.850
 6328POPC   C1A26727   3.549  32.994   8.550
 6328POPC   D2A26728   3.552  33.057   8.250
 6328POPC   C3A26729   3.504  33.027   7.950
 6328POPC   C4A26730   3.534  32.991   7.650
 6328POPC   C1B26731   3.781  33.088   8.550
 6328POPC   C2B26732   3.774  33.060   8.250
 6328POPC   C3B26733   3.815  33.005   7.950
 6328POPC   C4B26734   3.839  33.095   7.650
 6329POPC   NC326735   1.204  11.315   9.450
 6329POPC   PO426736   1.174  11.345   9.150
 6329POPC   GL126737   1.211  11.280   8.850
 6329POPC   GL226738   1.125  11.192   8.850
 6329POPC   C1A26739   1.203  11.282   8.550
 6329POPC   D2A26740   1.191  11.312   8.250
 6329POPC   C3A26741   1.239  11.303   7.950
 6329POPC   C4A26742   1.185  11.307   7.650
 6329POPC   C1B26743   0.967  11.143   8.550
 6329POPC   C2B26744   0.957  11.157   8.250
 6329POPC   C3B26745   1.000  11.139   7.950
 6329POPC   C4B26746   0.951  11.220   7.650
 6330POPC   NC326747  30.712   9.718   9.450
 6330POPC   PO426748  30.689   9.698   9.150
 6330POPC   GL126749  30.708   9.772   8.850
 6330POPC   GL226750  30.817   9.749   8.850
 6330POPC   C1A26751  30.697   9.712   8.550
 6330POPC   D2A26752  30.725   9.726   8.250
 6330POPC   C3A26753  30.675   9.756   7.950
 6330POPC   C4A26754  30.670   9.738   7.650
 6330POPC   C1B26755  30.905   9.782   8.550
 6330POPC   C2B26756  30.920   9.803   8.250
 6330POPC   C3B26757  30.981   9.806   7.950
 6330POPC   C4B26758  30.921   9.794   7.650
 6331POPC   NC326759   0.477  15.208   9.450
 6331POPC   PO426760   0.486  15.215   9.150
 6331POPC   GL126761   0.452  15.134   8.850
 6331POPC   GL226762   0.563  15.044   8.850
 6331POPC   C1A26763   0.423  15.190   8.550
 6331POPC   D2A26764   0.399  15.219   8.250
 6331POPC   C3A26765   0.421  15.166   7.950
 6331POPC   C4A26766   0.430  15.138   7.650
 6331POPC   C1B26767   0.572  15.001   8.550
 6331POPC   C2B26768   0.574  14.985   8.250
 6331POPC   C3B26769   0.607  14.987   7.950
 6331POPC   C4B26770   0.589  14.984   7.650
 6332POPC   NC326771  43.929  39.226   9.450
 6332POPC   PO426772  43.892  39.242   9.150
 6332POPC   GL126773  43.845  39.188   8.850
 6332POPC   GL226774  43.798  39.238   8.850
 6332POPC   C1A26775  43.935  39.276   8.550
 6332POPC   D2A26776  43.854  39.212   8.250
 6332POPC   C3A26777  43.884  39.244   7.950
 6332POPC   C4A26778  43.895  39.184   7.650
 6332POPC   C1B26779  43.687  39.316   8.550
 6332POPC   C2B26780  43.684  39.304   8.250
 6332POPC   C3B26781  43.629  39.339   7.950
 6332POPC   C4B26782  43.615  39.282   7.650
 6333POPC   NC326783  26.054  40.777   9.450
 6333POPC   PO426784  26.012  40.782   9.150
 6333POPC   GL126785  26.000  40.824   8.850
 6333POPC   GL226786  25.922  40.692   8.850
 6333POPC   C1A26787  26.003  40.796   8.550
 6333POPC   D2A26788  26.054  40.774   8.250
 6333POPC   C3A26789  26.028  40.768   7.950
 6333POPC   C4A26790  26.036  40.814   7.650
 6333POPC   C1B26791  25.823  40.613   8.550
 6333POPC   C2B26792  25.862  40.614   8.250
 6333POPC   C3B26793  25.796  40.678   7.950
 6333POPC   C4B26794  25.809  40.669   7.650
 6334POPC   NC326795  29.922  35.306   9.450
 6334POPC   PO426796  29.919  35.354   9.150
 6334POPC   GL126797  29.939  35.311   8.850
 6334POPC   GL226798  29.894  35.439   8.850
 6334POPC   C1A26799  29.888  35.394   8.550
 6334POPC   D2A26800  29.902  35.321   8.250
 6334POPC   C3A26801  29.926  35.337   7.950
 6334POPC   C4A26802  29.886  35.378   7.650
 6334POPC   C1B26803  29.860  35.592   8.550
 6334POPC   C2B26804  29.817  35.607   8.250
 6334POPC   C3B26805  29.863  35.611   7.950
 6334POPC   C4B26806  29.810  35.545   7.650
 6335POPC   NC326807  17.532  19.019   9.450
 6335POPC   PO426808  17.509  19.052   9.150
 6335POPC   GL126809  17.492  19.010   8.850
 6335POPC   GL226810  17.401  19.045   8.850
 6335POPC   C1A26811  17.532  19.031   8.550
 6335POPC   D2A26812  17.533  19.082   8.250
 6335POPC   C3A26813  17.539  19.048   7.950
 6335POPC   C4A26814  17.540  19.079   7.650
 6335POPC   C1B26815  17.259  19.123   8.550
 6335POPC   C2B26816  17.250  19.068   8.250
 6335POPC   C3B26817  17.224  19.102   7.950
 6335POPC   C4B26818  17.293  19.073   7.650
 6336POPC   NC326819  34.551  12.873   9.450
 6336POPC   PO426820  34.545  12.883   9.150
 6336POPC   GL126821  34.615  12.893   8.850
 6336POPC   GL226822  34.485  12.766   8.850
 6336POPC   C1A26823  34.599  12.847   8.550
 6336POPC   D2A26824  34.585  12.885   8.250
 6336POPC   C3A26825  34.569  12.841   7.950
 6336POPC   C4A26826  34.568  12.827   7.650
 6336POPC   C1B26827  34.349  12.716   8.550
 6336POPC   C2B26828  34.351  12.733   8.250
 6336POPC   C3B26829  34.348  12.680   7.950
 6336POPC   C4B26830  34.342  12.698   7.650
 6337POPC   NC326831  40.039  41.510   9.450
 6337POPC   PO426832  40.004  41.537   9.150
 6337POPC   GL126833  39.973  41.568   8.850
 6337POPC   GL226834  39.964  41.710   8.850
 6337POPC   C1A26835  39.985  41.525   8.550
 6337POPC   D2A26836  39.993  41.535   8.250
 6337POPC   C3A26837  40.053  41.564   7.950
 6337POPC   C4A26838  39.988  41.557   7.650
 6337POPC   C1B26839  39.979  41.783   8.550
 6337POPC   C2B26840  39.949  41.833   8.250
 6337POPC   C3B26841  39.927  41.768   7.950
 6337POPC   C4B26842  39.929  41.843   7.650
 6338POPC   NC326843  37.648  40.771   9.450
 6338POPC   PO426844  37.643  40.766   9.150
 6338POPC   GL126845  37.658  40.801   8.850
 6338POPC   GL226846  37.788  40.887   8.850
 6338POPC   C1A26847  37.680  40.759   8.550
 6338POPC   D2A26848  37.630  40.742   8.250
 6338POPC   C3A26849  37.686  40.832   7.950
 6338POPC   C4A26850  37.630  40.748   7.650
 6338POPC   C1B26851  37.917  40.901   8.550
 6338POPC   C2B26852  37.895  40.911   8.250
 6338POPC   C3B26853  37.852  40.965   7.950
 6338POPC   C4B26854  37.843  40.935   7.650
 6339POPC   NC326855   9.758  38.420   9.450
 6339POPC   PO426856   9.733  38.476   9.150
 6339POPC   GL126857   9.755  38.494   8.850
 6339POPC   GL226858   9.588  38.479   8.850
 6339POPC   C1A26859   9.709  38.457   8.550
 6339POPC   D2A26860   9.719  38.451   8.250
 6339POPC   C3A26861   9.740  38.494   7.950
 6339POPC   C4A26862   9.724  38.497   7.650
 6339POPC   C1B26863   9.484  38.444   8.550
 6339POPC   C2B26864   9.492  38.439   8.250
 6339POPC   C3B26865   9.480  38.432   7.950
 6339POPC   C4B26866   9.480  38.423   7.650
 6340POPC   NC326867  38.432  31.441   9.450
 6340POPC   PO426868  38.478  31.455   9.150
 6340POPC   GL126869  38.430  31.475   8.850
 6340POPC   GL226870  38.490  31.324   8.850
 6340POPC   C1A26871  38.496  31.483   8.550
 6340POPC   D2A26872  38.464  31.449   8.250
 6340POPC   C3A26873  38.480  31.465   7.950
 6340POPC   C4A26874  38.459  31.425   7.650
 6340POPC   C1B26875  38.467  31.253   8.550
 6340POPC   C2B26876  38.487  31.205   8.250
 6340POPC   C3B26877  38.538  31.234   7.950
 6340POPC   C4B26878  38.542  31.218   7.650
 6341POPC   NC326879  26.786  19.863   9.450
 6341POPC   PO426880  26.836  19.822   9.150
 6341POPC   GL126881  26.774  19.829   8.850
 6341POPC   GL226882  26.827  19.934   8.850
 6341POPC   C1A26883  26.820  19.832   8.550
 6341POPC   D2A26884  26.788  19.807   8.250
 6341POPC   C3A26885  26.827  19.870   7.950
 6341POPC   C4A26886  26.827  19.865   7.650
 6341POPC   C1B26887  26.807  20.078   8.550
 6341POPC   C2B26888  26.789  20.118   8.250
 6341POPC   C3B26889  26.835  20.078   7.950
 6341POPC   C4B26890  26.807  20.065   7.650
 6342POPC   NC326891  35.367  21.385   9.450
 6342POPC   PO426892  35.319  21.377   9.150
 6342POPC   GL126893  35.362  21.399   8.850
 6342POPC   GL226894  35.217  21.421   8.850
 6342POPC   C1A26895  35.305  21.425   8.550
 6342POPC   D2A26896  35.316  21.415   8.250
 6342POPC   C3A26897  35.317  21.424   7.950
 6342POPC   C4A26898  35.371  21.434   7.650
 6342POPC   C1B26899  35.117  21.463   8.550
 6342POPC   C2B26900  35.104  21.470   8.250
 6342POPC   C3B26901  35.157  21.410   7.950
 6342POPC   C4B26902  35.117  21.412   7.650
 6343POPC   NC326903  29.120  22.153   9.450
 6343POPC   PO426904  29.189  22.203   9.150
 6343POPC   GL126905  29.119  22.175   8.850
 6343POPC   GL226906  29.166  22.314   8.850
 6343POPC   C1A26907  29.098  22.165   8.550
 6343POPC   D2A26908  29.174  22.177   8.250
 6343POPC   C3A26909  29.164  22.152   7.950
 6343POPC   C4A26910  29.134  22.120   7.650
 6343POPC   C1B26911  29.282  22.331   8.550
 6343POPC   C2B26912  29.230  22.360   8.250
 6343POPC   C3B26913  29.258  22.336   7.950
 6343POPC   C4B26914  29.317  22.402   7.650
 6344POPC   NC326915  44.625   7.443   9.450
 6344POPC   PO426916  44.685   7.406   9.150
 6344POPC   GL126917  44.703   7.446   8.850
 6344POPC   GL226918  44.766   7.522   8.850
 6344POPC   C1A26919  44.661   7.468   8.550
 6344POPC   D2A26920  44.661   7.452   8.250
 6344POPC   C3A26921  44.681   7.391   7.950
 6344POPC   C4A26922  44.657   7.390   7.650
 6344POPC   C1B26923  44.745   7.629   8.550
 6344POPC   C2B26924  44.796   7.678   8.250
 6344POPC   C3B26925  44.775   7.653   7.950
 6344POPC   C4B26926  44.757   7.630   7.650
 6345POPC   NC326927  34.565   8.946   9.450
 6345POPC   PO426928  34.613   8.968   9.150
 6345POPC   GL126929  34.585   8.924   8.850
 6345POPC   GL226930  34.704   9.018   8.850
 6345POPC   C1A26931  34.558   9.009   8.550
 6345POPC   D2A26932  34.546   8.964   8.250
 6345POPC   C3A26933  34.621   9.009   7.950
 6345POPC   C4A26934  34.625   8.986   7.650
 6345POPC   C1B26935  34.770   9.111   8.550
 6345POPC   C2B26936  34.798   9.106   8.250
 6345POPC   C3B26937  34.797   9.103   7.950
 6345POPC   C4B26938  34.753   9.133   7.650
 6346POPC   NC326939   8.168   5.058   9.450
 6346POPC   PO426940   8.224   5.081   9.150
 6346POPC   GL126941   8.187   5.069   8.850
 6346POPC   GL226942   8.169   5.218   8.850
 6346POPC   C1A26943   8.219   5.142   8.550
 6346POPC   D2A26944   8.205   5.113   8.250
 6346POPC   C3A26945   8.163   5.122   7.950
 6346POPC   C4A26946   8.164   5.127   7.650
 6346POPC   C1B26947   8.073   5.331   8.550
 6346POPC   C2B26948   8.089   5.347   8.250
 6346POPC   C3B26949   8.044   5.342   7.950
 6346POPC   C4B26950   8.124   5.352   7.650
 6347POPC   NC326951  35.308  13.662   9.450
 6347POPC   PO426952  35.313  13.665   9.150
 6347POPC   GL126953  35.379  13.583   8.850
 6347POPC   GL226954  35.367  13.458   8.850
 6347POPC   C1A26955  35.360  13.620   8.550
 6347POPC   D2A26956  35.347  13.649   8.250
 6347POPC   C3A26957  35.328  13.627   7.950
 6347POPC   C4A26958  35.313  13.631   7.650
 6347POPC   C1B26959  35.326  13.363   8.550
 6347POPC   C2B26960  35.398  13.349   8.250
 6347POPC   C3B26961  35.314  13.333   7.950
 6347POPC   C4B26962  35.374  13.423   7.650
 6348POPC   NC326963  23.677  33.043   9.450
 6348POPC   PO426964  23.733  33.061   9.150
 6348POPC   GL126965  23.697  33.015   8.850
 6348POPC   GL226966  23.660  32.933   8.850
 6348POPC   C1A26967  23.753  33.044   8.550
 6348POPC   D2A26968  23.761  33.049   8.250
 6348POPC   C3A26969  23.763  33.064   7.950
 6348POPC   C4A26970  23.739  32.975   7.650
 6348POPC   C1B26971  23.544  32.837   8.550
 6348POPC   C2B26972  23.572  32.835   8.250
 6348POPC   C3B26973  23.494  32.838   7.950
 6348POPC   C4B26974  23.562  32.804   7.650
 6349POPC   NC326975  30.654  27.590   9.450
 6349POPC   PO426976  30.734  27.611   9.150
 6349POPC   GL126977  30.694  27.626   8.850
 6349POPC   GL226978  30.597  27.501   8.850
 6349POPC   C1A26979  30.648  27.589   8.550
 6349POPC   D2A26980  30.649  27.565   8.250
 6349POPC   C3A26981  30.648  27.548   7.950
 6349POPC   C4A26982  30.705  27.612   7.650
 6349POPC   C1B26983  30.572  27.456   8.550
 6349POPC   C2B26984  30.510  27.404   8.250
 6349POPC   C3B26985  30.515  27.434   7.950
 6349POPC   C4B26986  30.499  27.409   7.650
 6350POPC   NC326987  28.408   5.884   9.450
 6350POPC   PO426988  28.364   5.841   9.150
 6350POPC   GL126989  28.416   5.824   8.850
 6350POPC   GL226990  28.486   5.762   8.850
 6350POPC   C1A26991  28.418   5.917   8.550
 6350POPC   D2A26992  28.395   5.882   8.250
 6350POPC   C3A26993  28.369   5.891   7.950
 6350POPC   C4A26994  28.363   5.894   7.650
 6350POPC   C1B26995  28.575   5.686   8.550
 6350POPC   C2B26996  28.549   5.721   8.250
 6350POPC   C3B26997  28.585   5.699   7.950
 6350POPC   C4B26998  28.536   5.692   7.650
 6351POPC   NC326999  12.040  20.570   9.450
 6351POPC   PO427000  12.118  20.657   9.150
 6351POPC   GL127001  12.060  20.614   8.850
 6351POPC   GL227002  12.163  20.718   8.850
 6351POPC   C1A27003  12.085  20.624   8.550
 6351POPC   D2A27004  12.075  20.588   8.250
 6351POPC   C3A27005  12.075  20.589   7.950
 6351POPC   C4A27006  12.042  20.658   7.650
 6351POPC   C1B27007  12.261  20.844   8.550
 6351POPC   C2B27008  12.249  20.817   8.250
 6351POPC   C3B27009  12.246  20.815   7.950
 6351POPC   C4B27010  12.219  20.772   7.650
 6352POPC   NC327011  16.769   2.018   9.450
 6352POPC   PO427012  16.769   2.012   9.150
 6352POPC   GL127013  16.753   1.946   8.850
 6352POPC   GL227014  16.878   1.950   8.850
 6352POPC   C1A27015  16.754   1.945   8.550
 6352POPC   D2A27016  16.689   2.029   8.250
 6352POPC   C3A27017  16.749   1.992   7.950
 6352POPC   C4A27018  16.760   1.995   7.650
 6352POPC   C1B27019  16.951   1.970   8.550
 6352POPC   C2B27020  16.996   2.006   8.250
 6352POPC   C3B27021  16.966   1.971   7.950
 6352POPC   C4B27022  16.954   2.000   7.650
 6353POPC   NC327023   3.542  16.717   9.450
 6353POPC   PO427024   3.555  16.700   9.150
 6353POPC   GL127025   3.513  16.756   8.850
 6353POPC   GL227026   3.419  16.790   8.850
 6353POPC   C1A27027   3.518  16.773   8.550
 6353POPC   D2A27028   3.553  16.770   8.250
 6353POPC   C3A27029   3.525  16.701   7.950
 6353POPC   C4A27030   3.556  16.772   7.650
 6353POPC   C1B27031   3.333  16.740   8.550
 6353POPC   C2B27032   3.289  16.729   8.250
 6353POPC   C3B27033   3.277  16.775   7.950
 6353POPC   C4B27034   3.274  16.769   7.650
 6354POPC   NC327035  41.572  38.492   9.450
 6354POPC   PO427036  41.569  38.471   9.150
 6354POPC   GL127037  41.598  38.447   8.850
 6354POPC   GL227038  41.663  38.451   8.850
 6354POPC   C1A27039  41.540  38.460   8.550
 6354POPC   D2A27040  41.561  38.432   8.250
 6354POPC   C3A27041  41.535  38.435   7.950
 6354POPC   C4A27042  41.552  38.438   7.650
 6354POPC   C1B27043  41.823  38.453   8.550
 6354POPC   C2B27044  41.833  38.442   8.250
 6354POPC   C3B27045  41.843  38.503   7.950
 6354POPC   C4B27046  41.761  38.514   7.650
 6355POPC   NC327047   2.791  15.181   9.450
 6355POPC   PO427048   2.809  15.204   9.150
 6355POPC   GL127049   2.727  15.180   8.850
 6355POPC   GL227050   2.828  15.077   8.850
 6355POPC   C1A27051   2.720  15.175   8.550
 6355POPC   D2A27052   2.758  15.218   8.250
 6355POPC   C3A27053   2.735  15.151   7.950
 6355POPC   C4A27054   2.716  15.174   7.650
 6355POPC   C1B27055   2.899  14.987   8.550
 6355POPC   C2B27056   2.915  14.929   8.250
 6355POPC   C3B27057   2.860  14.926   7.950
 6355POPC   C4B27058   2.865  14.924   7.650
 6356POPC   NC327059  11.276  32.228   9.450
 6356POPC   PO427060  11.300  32.290   9.150
 6356POPC   GL127061  11.338  32.285   8.850
 6356POPC   GL227062  11.252  32.332   8.850
 6356POPC   C1A27063  11.324  32.264   8.550
 6356POPC   D2A27064  11.292  32.216   8.250
 6356POPC   C3A27065  11.291  32.255   7.950
 6356POPC   C4A27066  11.290  32.253   7.650
 6356POPC   C1B27067  11.251  32.515   8.550
 6356POPC   C2B27068  11.248  32.500   8.250
 6356POPC   C3B27069  11.306  32.473   7.950
 6356POPC   C4B27070  11.310  32.514   7.650
 6357POPC   NC327071  36.119  32.265   9.450
 6357POPC   PO427072  36.153  32.280   9.150
 6357POPC   GL127073  36.165  32.227   8.850
 6357POPC   GL227074  36.139  32.386   8.850
 6357POPC   C1A27075  36.093  32.257   8.550
 6357POPC   D2A27076  36.116  32.242   8.250
 6357POPC   C3A27077  36.157  32.230   7.950
 6357POPC   C4A27078  36.134  32.276   7.650
 6357POPC   C1B27079  36.222  32.497   8.550
 6357POPC   C2B27080  36.288  32.499   8.250
 6357POPC   C3B27081  36.293  32.500   7.950
 6357POPC   C4B27082  36.218  32.440   7.650
 6358POPC   NC327083  36.144  13.663   9.450
 6358POPC   PO427084  36.118  13.641   9.150
 6358POPC   GL127085  36.170  13.677   8.850
 6358POPC   GL227086  36.042  13.547   8.850
 6358POPC   C1A27087  36.171  13.613   8.550
 6358POPC   D2A27088  36.153  13.627   8.250
 6358POPC   C3A27089  36.132  13.622   7.950
 6358POPC   C4A27090  36.145  13.631   7.650
 6358POPC   C1B27091  35.870  13.548   8.550
 6358POPC   C2B27092  35.871  13.521   8.250
 6358POPC   C3B27093  35.841  13.569   7.950
 6358POPC   C4B27094  35.907  13.521   7.650
 6359POPC   NC327095  27.574  43.156   9.450
 6359POPC   PO427096  27.587  43.070   9.150
 6359POPC   GL127097  27.576  43.073   8.850
 6359POPC   GL227098  27.511  42.993   8.850
 6359POPC   C1A27099  27.546  43.103   8.550
 6359POPC   D2A27100  27.563  43.130   8.250
 6359POPC   C3A27101  27.576  43.132   7.950
 6359POPC   C4A27102  27.574  43.142   7.650
 6359POPC   C1B27103  27.439  42.936   8.550
 6359POPC   C2B27104  27.498  42.915   8.250
 6359POPC   C3B27105  27.501  42.890   7.950
 6359POPC   C4B27106  27.456  42.917   7.650
 6360POPC   NC327107  32.273  32.211   9.450
 6360POPC   PO427108  32.272  32.262   9.150
 6360POPC   GL127109  32.281  32.238   8.850
 6360POPC   GL227110  32.346  32.342   8.850
 6360POPC   C1A27111  32.281  32.244   8.550
 6360POPC   D2A27112  32.285  32.236   8.250
 6360POPC   C3A27113  32.222  32.207   7.950
 6360POPC   C4A27114  32.232  32.294   7.650
 6360POPC   C1B27115  32.400  32.478   8.550
 6360POPC   C2B27116  32.371  32.430   8.250
 6360POPC   C3B27117  32.341  32.447   7.950
 6360POPC   C4B27118  32.411  32.473   7.650
 6361POPC   NC327119  19.037  17.504   9.450
 6361POPC   PO427120  19.037  17.549   9.150
 6361POPC   GL127121  19.106  17.481   8.850
 6361POPC   GL227122  19.042  17.405   8.850
 6361POPC   C1A27123  19.106  17.517   8.550
 6361POPC   D2A27124  19.085  17.550   8.250
 6361POPC   C3A27125  19.077  17.461   7.950
 6361POPC   C4A27126  19.014  17.462   7.650
 6361POPC   C1B27127  19.036  17.219   8.550
 6361POPC   C2B27128  19.017  17.249   8.250
 6361POPC   C3B27129  19.039  17.222   7.950
 6361POPC   C4B27130  18.964  17.265   7.650
 6362POPC   NC327131  26.782  30.650   9.450
 6362POPC   PO427132  26.841  30.727   9.150
 6362POPC   GL127133  26.839  30.713   8.850
 6362POPC   GL227134  26.674  30.644   8.850
 6362POPC   C1A27135  26.794  30.738   8.550
 6362POPC   D2A27136  26.836  30.703   8.250
 6362POPC   C3A27137  26.850  30.650   7.950
 6362POPC   C4A27138  26.798  30.745   7.650
 6362POPC   C1B27139  26.621  30.522   8.550
 6362POPC   C2B27140  26.635  30.587   8.250
 6362POPC   C3B27141  26.559  30.531   7.950
 6362POPC   C4B27142  26.624  30.597   7.650
 6363POPC   NC327143   1.197  27.614   9.450
 6363POPC   PO427144   1.253  27.594   9.150
 6363POPC   GL127145   1.187  27.620   8.850
 6363POPC   GL227146   1.205  27.501   8.850
 6363POPC   C1A27147   1.242  27.593   8.550
 6363POPC   D2A27148   1.175  27.610   8.250
 6363POPC   C3A27149   1.244  27.616   7.950
 6363POPC   C4A27150   1.215  27.570   7.650
 6363POPC   C1B27151   1.276  27.326   8.550
 6363POPC   C2B27152   1.210  27.340   8.250
 6363POPC   C3B27153   1.219  27.356   7.950
 6363POPC   C4B27154   1.263  27.314   7.650
 6364POPC   NC327155  25.231   5.062   9.450
 6364POPC   PO427156  25.297   5.115   9.150
 6364POPC   GL127157  25.306   5.110   8.850
 6364POPC   GL227158  25.217   5.255   8.850
 6364POPC   C1A27159  25.300   5.064   8.550
 6364POPC   D2A27160  25.226   5.073   8.250
 6364POPC   C3A27161  25.312   5.128   7.950
 6364POPC   C4A27162  25.293   5.126   7.650
 6364POPC   C1B27163  25.225   5.326   8.550
 6364POPC   C2B27164  25.253   5.300   8.250
 6364POPC   C3B27165  25.191   5.318   7.950
 6364POPC   C4B27166  25.220   5.295   7.650
 6365POPC   NC327167   3.577  13.660   9.450
 6365POPC   PO427168   3.567  13.639   9.150
 6365POPC   GL127169   3.571  13.594   8.850
 6365POPC   GL227170   3.535  13.500   8.850
 6365POPC   C1A27171   3.533  13.632   8.550
 6365POPC   D2A27172   3.547  13.639   8.250
 6365POPC   C3A27173   3.575  13.597   7.950
 6365POPC   C4A27174   3.520  13.655   7.650
 6365POPC   C1B27175   3.583  13.383   8.550
 6365POPC   C2B27176   3.663  13.398   8.250
 6365POPC   C3B27177   3.631  13.352   7.950
 6365POPC   C4B27178   3.646  13.414   7.650
 6366POPC   NC327179  26.804  44.616   9.450
 6366POPC   PO427180  26.769  44.679   9.150
 6366POPC   GL127181  26.778  44.694   8.850
 6366POPC   GL227182  26.767  44.819   8.850
 6366POPC   C1A27183  26.774  44.686   8.550
 6366POPC   D2A27184  26.843  44.702   8.250
 6366POPC   C3A27185  26.803  44.683   7.950
 6366POPC   C4A27186  26.864  44.652   7.650
 6366POPC   C1B27187  26.717  44.858   8.550
 6366POPC   C2B27188  26.676  44.828   8.250
 6366POPC   C3B27189  26.675  44.903   7.950
 6366POPC   C4B27190  26.691  44.904   7.650
 6367POPC   NC327191  36.151  43.066   9.450
 6367POPC   PO427192  36.097  43.134   9.150
 6367POPC   GL127193  36.101  43.090   8.850
 6367POPC   GL227194  36.100  43.214   8.850
 6367POPC   C1A27195  36.139  43.122   8.550
 6367POPC   D2A27196  36.164  43.085   8.250
 6367POPC   C3A27197  36.174  43.137   7.950
 6367POPC   C4A27198  36.118  43.100   7.650
 6367POPC   C1B27199  36.104  43.355   8.550
 6367POPC   C2B27200  36.117  43.388   8.250
 6367POPC   C3B27201  36.096  43.335   7.950
 6367POPC   C4B27202  36.071  43.384   7.650
 6368POPC   NC327203   1.967   8.224   9.450
 6368POPC   PO427204   1.983   8.166   9.150
 6368POPC   GL127205   1.947   8.165   8.850
 6368POPC   GL227206   1.844   8.229   8.850
 6368POPC   C1A27207   1.980   8.211   8.550
 6368POPC   D2A27208   2.038   8.176   8.250
 6368POPC   C3A27209   2.019   8.231   7.950
 6368POPC   C4A27210   1.949   8.232   7.650
 6368POPC   C1B27211   1.771   8.255   8.550
 6368POPC   C2B27212   1.727   8.244   8.250
 6368POPC   C3B27213   1.727   8.340   7.950
 6368POPC   C4B27214   1.757   8.243   7.650
 6369POPC   NC327215  44.686  21.402   9.450
 6369POPC   PO427216  44.707  21.391   9.150
 6369POPC   GL127217  44.658  21.351   8.850
 6369POPC   GL227218  44.792  21.460   8.850
 6369POPC   C1A27219  44.632  21.379   8.550
 6369POPC   D2A27220  44.643  21.427   8.250
 6369POPC   C3A27221  44.701  21.411   7.950
 6369POPC   C4A27222  44.671  21.399   7.650
 6369POPC   C1B27223  44.931  21.507   8.550
 6369POPC   C2B27224  44.867  21.529   8.250
 6369POPC   C3B27225  44.896  21.506   7.950
 6369POPC   C4B27226  44.838  21.456   7.650
 6370POPC   NC327227  11.283  17.470   9.450
 6370POPC   PO427228  11.278  17.496   9.150
 6370POPC   GL127229  11.261  17.477   8.850
 6370POPC   GL227230  11.271  17.419   8.850
 6370POPC   C1A27231  11.305  17.527   8.550
 6370POPC   D2A27232  11.345  17.524   8.250
 6370POPC   C3A27233  11.282  17.495   7.950
 6370POPC   C4A27234  11.297  17.499   7.650
 6370POPC   C1B27235  11.197  17.272   8.550
 6370POPC   C2B27236  11.223  17.305   8.250
 6370POPC   C3B27237  11.211  17.239   7.950
 6370POPC   C4B27238  11.162  17.272   7.650
 6371POPC   NC327239  26.013  18.292   9.450
 6371POPC   PO427240  26.003  18.278   9.150
 6371POPC   GL127241  26.083  18.249   8.850
 6371POPC   GL227242  26.042  18.424   8.850
 6371POPC   C1A27243  26.013  18.288   8.550
 6371POPC   D2A27244  26.089  18.318   8.250
 6371POPC   C3A27245  26.007  18.277   7.950
 6371POPC   C4A27246  26.075  18.257   7.650
 6371POPC   C1B27247  26.047  18.576   8.550
 6371POPC   C2B27248  26.029  18.563   8.250
 6371POPC   C3B27249  26.069  18.500   7.950
 6371POPC   C4B27250  26.005  18.577   7.650
 6372POPC   NC327251  27.626  38.430   9.450
 6372POPC   PO427252  27.626  38.413   9.150
 6372POPC   GL127253  27.549  38.410   8.850
 6372POPC   GL227254  27.457  38.403   8.850
 6372POPC   C1A27255  27.578  38.431   8.550
 6372POPC   D2A27256  27.629  38.501   8.250
 6372POPC   C3A27257  27.622  38.489   7.950
 6372POPC   C4A27258  27.615  38.448   7.650
 6372POPC   C1B27259  27.466  38.290   8.550
 6372POPC   C2B27260  27.437  38.262   8.250
 6372POPC   C3B27261  27.369  38.259   7.950
 6372POPC   C4B27262  27.436  38.326   7.650
 6373POPC   NC327263  12.117  19.876   9.450
 6373POPC   PO427264  12.037  19.787   9.150
 6373POPC   GL127265  12.051  19.802   8.850
 6373POPC   GL227266  12.156  19.732   8.850
 6373POPC   C1A27267  12.037  19.815   8.550
 6373POPC   D2A27268  12.050  19.884   8.250
 6373POPC   C3A27269  12.077  19.842   7.950
 6373POPC   C4A27270  12.123  19.832   7.650
 6373POPC   C1B27271  12.269  19.688   8.550
 6373POPC   C2B27272  12.282  19.697   8.250
 6373POPC   C3B27273  12.252  19.621   7.950
 6373POPC   C4B27274  12.263  19.670   7.650
 6374POPC   NC327275  17.502   4.364   9.450
 6374POPC   PO427276  17.459   4.270   9.150
 6374POPC   GL127277  17.542   4.360   8.850
 6374POPC   GL227278  17.417   4.211   8.850
 6374POPC   C1A27279  17.465   4.365   8.550
 6374POPC   D2A27280  17.541   4.334   8.250
 6374POPC   C3A27281  17.536   4.345   7.950
 6374POPC   C4A27282  17.474   4.314   7.650
 6374POPC   C1B27283  17.285   4.130   8.550
 6374POPC   C2B27284  17.278   4.131   8.250
 6374POPC   C3B27285  17.277   4.129   7.950
 6374POPC   C4B27286  17.294   4.161   7.650
 6375POPC   NC327287  44.631  16.727   9.450
 6375POPC   PO427288  44.644  16.779   9.150
 6375POPC   GL127289  44.670  16.706   8.850
 6375POPC   GL227290  44.715  16.642   8.850
 6375POPC   C1A27291  44.626  16.768   8.550
 6375POPC   D2A27292  44.616  16.762   8.250
 6375POPC   C3A27293  44.676  16.749   7.950
 6375POPC   C4A27294  44.666  16.697   7.650
 6375POPC   C1B27295  44.675  16.492   8.550
 6375POPC   C2B27296  44.659  16.491   8.250
 6375POPC   C3B27297  44.667  16.502   7.950
 6375POPC   C4B27298  44.720  16.440   7.650
 6376POPC   NC327299  26.784  40.754   9.450
 6376POPC   PO427300  26.786  40.821   9.150
 6376POPC   GL127301  26.773  40.747   8.850
 6376POPC   GL227302  26.889  40.696   8.850
 6376POPC   C1A27303  26.785  40.765   8.550
 6376POPC   D2A27304  26.780  40.795   8.250
 6376POPC   C3A27305  26.802  40.800   7.950
 6376POPC   C4A27306  26.802  40.765   7.650
 6376POPC   C1B27307  27.047  40.660   8.550
 6376POPC   C2B27308  27.065  40.625   8.250
 6376POPC   C3B27309  26.982  40.617   7.950
 6376POPC   C4B27310  27.043  40.664   7.650
 6377POPC   NC327311  27.564   5.912   9.450
 6377POPC   PO427312  27.575   5.914   9.150
 6377POPC   GL127313  27.604   5.909   8.850
 6377POPC   GL227314  27.660   5.918   8.850
 6377POPC   C1A27315  27.563   5.916   8.550
 6377POPC   D2A27316  27.612   5.869   8.250
 6377POPC   C3A27317  27.587   5.887   7.950
 6377POPC   C4A27318  27.595   5.916   7.650
 6377POPC   C1B27319  27.818   6.040   8.550
 6377POPC   C2B27320  27.791   5.978   8.250
 6377POPC   C3B27321  27.766   5.997   7.950
 6377POPC   C4B27322  27.804   6.034   7.650
 6378POPC   NC327323  22.984   3.585   9.450
 6378POPC   PO427324  22.916   3.538   9.150
 6378POPC   GL127325  22.930   3.567   8.850
 6378POPC   GL227326  22.870   3.681   8.850
 6378POPC   C1A27327  22.914   3.568   8.550
 6378POPC   D2A27328  22.954   3.544   8.250
 6378POPC   C3A27329  22.909   3.530   7.950
 6378POPC   C4A27330  22.891   3.572   7.650
 6378POPC   C1B27331  22.855   3.808   8.550
 6378POPC   C2B27332  22.791   3.781   8.250
 6378POPC   C3B27333  22.811   3.726   7.950
 6378POPC   C4B27334  22.828   3.764   7.650
 6379POPC   NC327335  40.754   7.407   9.450
 6379POPC   PO427336  40.778   7.375   9.150
 6379POPC   GL127337  40.733   7.461   8.850
 6379POPC   GL227338  40.668   7.528   8.850
 6379POPC   C1A27339  40.813   7.401   8.550
 6379POPC   D2A27340  40.780   7.409   8.250
 6379POPC   C3A27341  40.753   7.371   7.950
 6379POPC   C4A27342  40.798   7.400   7.650
 6379POPC   C1B27343  40.602   7.548   8.550
 6379POPC   C2B27344  40.529   7.534   8.250
 6379POPC   C3B27345  40.566   7.506   7.950
 6379POPC   C4B27346  40.605   7.519   7.650
 6380POPC   NC327347  13.588  11.325   9.450
 6380POPC   PO427348  13.588  11.343   9.150
 6380POPC   GL127349  13.669  11.321   8.850
 6380POPC   GL227350  13.724  11.271   8.850
 6380POPC   C1A27351  13.630  11.273   8.550
 6380POPC   D2A27352  13.646  11.308   8.250
 6380POPC   C3A27353  13.633  11.309   7.950
 6380POPC   C4A27354  13.663  11.331   7.650
 6380POPC   C1B27355  13.872  11.112   8.550
 6380POPC   C2B27356  13.800  11.199   8.250
 6380POPC   C3B27357  13.825  11.200   7.950
 6380POPC   C4B27358  13.808  11.172   7.650
 6381POPC   NC327359  38.446   0.397   9.450
 6381POPC   PO427360  38.499   0.477   9.150
 6381POPC   GL127361  38.488   0.416   8.850
 6381POPC   GL227362  38.430   0.307   8.850
 6381POPC   C1A27363  38.462   0.450   8.550
 6381POPC   D2A27364  38.475   0.471   8.250
 6381POPC   C3A27365  38.469   0.474   7.950
 6381POPC   C4A27366  38.494   0.464   7.650
 6381POPC   C1B27367  38.321   0.224   8.550
 6381POPC   C2B27368  38.346   0.243   8.250
 6381POPC   C3B27369  38.381   0.227   7.950
 6381POPC   C4B27370  38.373   0.190   7.650
 6382POPC   NC327371  42.320  28.397   9.450
 6382POPC   PO427372  42.301  28.366   9.150
 6382POPC   GL127373  42.361  28.404   8.850
 6382POPC   GL227374  42.451  28.404   8.850
 6382POPC   C1A27375  42.368  28.415   8.550
 6382POPC   D2A27376  42.376  28.364   8.250
 6382POPC   C3A27377  42.377  28.414   7.950
 6382POPC   C4A27378  42.371  28.331   7.650
 6382POPC   C1B27379  42.621  28.371   8.550
 6382POPC   C2B27380  42.546  28.394   8.250
 6382POPC   C3B27381  42.554  28.345   7.950
 6382POPC   C4B27382  42.614  28.382   7.650
 6383POPC   NC327383   4.327  26.807   9.450
 6383POPC   PO427384   4.292  26.788   9.150
 6383POPC   GL127385   4.337  26.849   8.850
 6383POPC   GL227386   4.183  26.712   8.850
 6383POPC   C1A27387   4.360  26.822   8.550
 6383POPC   D2A27388   4.341  26.798   8.250
 6383POPC   C3A27389   4.340  26.803   7.950
 6383POPC   C4A27390   4.296  26.806   7.650
 6383POPC   C1B27391   4.107  26.599   8.550
 6383POPC   C2B27392   4.145  26.662   8.250
 6383POPC   C3B27393   4.168  26.641   7.950
 6383POPC   C4B27394   4.155  26.654   7.650
 6384POPC   NC327395  43.930   0.436   9.450
 6384POPC   PO427396  43.894   0.436   9.150
 6384POPC   GL127397  43.839   0.464   8.850
 6384POPC   GL227398  43.858   0.367   8.850
 6384POPC   C1A27399  43.839   0.442   8.550
 6384POPC   D2A27400  43.930   0.417   8.250
 6384POPC   C3A27401  43.884   0.426   7.950
 6384POPC   C4A27402  43.888   0.455   7.650
 6384POPC   C1B27403  43.737   0.182   8.550
 6384POPC   C2B27404  43.796   0.198   8.250
 6384POPC   C3B27405  43.788   0.192   7.950
 6384POPC   C4B27406  43.764   0.174   7.650
 6385POPC   NC327407  20.654  21.376   9.450
 6385POPC   PO427408  20.596  21.436   9.150
 6385POPC   GL127409  20.605  21.376   8.850
 6385POPC   GL227410  20.670  21.244   8.850
 6385POPC   C1A27411  20.568  21.369   8.550
 6385POPC   D2A27412  20.601  21.360   8.250
 6385POPC   C3A27413  20.649  21.371   7.950
 6385POPC   C4A27414  20.570  21.398   7.650
 6385POPC   C1B27415  20.802  21.158   8.550
 6385POPC   C2B27416  20.716  21.176   8.250
 6385POPC   C3B27417  20.791  21.195   7.950
 6385POPC   C4B27418  20.762  21.187   7.650
 6386POPC   NC327419  17.467   8.977   9.450
 6386POPC   PO427420  17.538   8.943   9.150
 6386POPC   GL127421  17.514   8.926   8.850
 6386POPC   GL227422  17.454   8.859   8.850
 6386POPC   C1A27423  17.497   9.015   8.550
 6386POPC   D2A27424  17.485   9.020   8.250
 6386POPC   C3A27425  17.469   8.946   7.950
 6386POPC   C4A27426  17.470   9.008   7.650
 6386POPC   C1B27427  17.398   8.769   8.550
 6386POPC   C2B27428  17.316   8.795   8.250
 6386POPC   C3B27429  17.334   8.741   7.950
 6386POPC   C4B27430  17.384   8.735   7.650
 6387POPC   NC327431  40.808  38.463   9.450
 6387POPC   PO427432  40.792  38.422   9.150
 6387POPC   GL127433  40.773  38.489   8.850
 6387POPC   GL227434  40.886  38.388   8.850
 6387POPC   C1A27435  40.796  38.428   8.550
 6387POPC   D2A27436  40.823  38.468   8.250
 6387POPC   C3A27437  40.799  38.504   7.950
 6387POPC   C4A27438  40.768  38.501   7.650
 6387POPC   C1B27439  41.055  38.379   8.550
 6387POPC   C2B27440  41.045  38.436   8.250
 6387POPC   C3B27441  40.983  38.446   7.950
 6387POPC   C4B27442  40.993  38.409   7.650
 6388POPC   NC327443   5.826  16.700   9.450
 6388POPC   PO427444   5.828  16.767   9.150
 6388POPC   GL127445   5.917  16.752   8.850
 6388POPC   GL227446   5.803  16.655   8.850
 6388POPC   C1A27447   5.873  16.734   8.550
 6388POPC   D2A27448   5.886  16.722   8.250
 6388POPC   C3A27449   5.849  16.728   7.950
 6388POPC   C4A27450   5.832  16.715   7.650
 6388POPC   C1B27451   5.635  16.612   8.550
 6388POPC   C2B27452   5.592  16.601   8.250
 6388POPC   C3B27453   5.620  16.683   7.950
 6388POPC   C4B27454   5.612  16.665   7.650
 6389POPC   NC327455  10.548   3.507   9.450
 6389POPC   PO427456  10.508   3.575   9.150
 6389POPC   GL127457  10.508   3.499   8.850
 6389POPC   GL227458  10.470   3.647   8.850
 6389POPC   C1A27459  10.546   3.514   8.550
 6389POPC   D2A27460  10.564   3.546   8.250
 6389POPC   C3A27461  10.541   3.519   7.950
 6389POPC   C4A27462  10.555   3.497   7.650
 6389POPC   C1B27463  10.367   3.721   8.550
 6389POPC   C2B27464  10.379   3.743   8.250
 6389POPC   C3B27465  10.351   3.790   7.950
 6389POPC   C4B27466  10.384   3.722   7.650
 6390POPC   NC327467  25.294  10.513   9.450
 6390POPC   PO427468  25.253  10.572   9.150
 6390POPC   GL127469  25.242  10.561   8.850
 6390POPC   GL227470  25.173  10.542   8.850
 6390POPC   C1A27471  25.294  10.525   8.550
 6390POPC   D2A27472  25.217  10.564   8.250
 6390POPC   C3A27473  25.308  10.534   7.950
 6390POPC   C4A27474  25.223  10.488   7.650
 6390POPC   C1B27475  25.048  10.534   8.550
 6390POPC   C2B27476  24.993  10.453   8.250
 6390POPC   C3B27477  24.991  10.453   7.950
 6390POPC   C4B27478  25.030  10.510   7.650
 6391POPC   NC327479  12.093   5.893   9.450
 6391POPC   PO427480  12.119   5.841   9.150
 6391POPC   GL127481  12.087   5.846   8.850
 6391POPC   GL227482  12.058   5.772   8.850
 6391POPC   C1A27483  12.099   5.835   8.550
 6391POPC   D2A27484  12.054   5.894   8.250
 6391POPC   C3A27485  12.096   5.891   7.950
 6391POPC   C4A27486  12.081   5.828   7.650
 6391POPC   C1B27487  12.133   5.585   8.550
 6391POPC   C2B27488  12.180   5.591   8.250
 6391POPC   C3B27489  12.110   5.598   7.950
 6391POPC   C4B27490  12.127   5.677   7.650
 6392POPC   NC327491  13.668  29.936   9.450
 6392POPC   PO427492  13.585  29.907   9.150
 6392POPC   GL127493  13.653  29.923   8.850
 6392POPC   GL227494  13.543  29.950   8.850
 6392POPC   C1A27495  13.618  29.883   8.550
 6392POPC   D2A27496  13.672  29.906   8.250
 6392POPC   C3A27497  13.660  29.909   7.950
 6392POPC   C4A27498  13.642  29.965   7.650
 6392POPC   C1B27499  13.406  29.956   8.550
 6392POPC   C2B27500  13.375  29.979   8.250
 6392POPC   C3B27501  13.424  30.014   7.950
 6392POPC   C4B27502  13.359  30.020   7.650
 6393POPC   NC327503  36.863  39.267   9.450
 6393POPC   PO427504  36.890  39.201   9.150
 6393POPC   GL127505  36.933  39.181   8.850
 6393POPC   GL227506  36.893  39.381   8.850
 6393POPC   C1A27507  36.923  39.248   8.550
 6393POPC   D2A27508  36.876  39.216   8.250
 6393POPC   C3A27509  36.900  39.275   7.950
 6393POPC   C4A27510  36.869  39.259   7.650
 6393POPC   C1B27511  36.783  39.514   8.550
 6393POPC   C2B27512  36.768  39.426   8.250
 6393POPC   C3B27513  36.837  39.481   7.950
 6393POPC   C4B27514  36.798  39.420   7.650
 6394POPC   NC327515  20.598  29.174   9.450
 6394POPC   PO427516  20.643  29.168   9.150
 6394POPC   GL127517  20.593  29.120   8.850
 6394POPC   GL227518  20.468  29.255   8.850
 6394POPC   C1A27519  20.620  29.120   8.550
 6394POPC   D2A27520  20.610  29.096   8.250
 6394POPC   C3A27521  20.637  29.189   7.950
 6394POPC   C4A27522  20.585  29.178   7.650
 6394POPC   C1B27523  20.399  29.277   8.550
 6394POPC   C2B27524  20.442  29.254   8.250
 6394POPC   C3B27525  20.408  29.327   7.950
 6394POPC   C4B27526  20.375  29.327   7.650
 6395POPC   NC327527  25.231  15.219   9.450
 6395POPC   PO427528  25.223  15.158   9.150
 6395POPC   GL127529  25.255  15.154   8.850
 6395POPC   GL227530  25.367  15.114   8.850
 6395POPC   C1A27531  25.219  15.198   8.550
 6395POPC   D2A27532  25.273  15.195   8.250
 6395POPC   C3A27533  25.310  15.201   7.950
 6395POPC   C4A27534  25.271  15.130   7.650
 6395POPC   C1B27535  25.444  14.970   8.550
 6395POPC   C2B27536  25.458  15.025   8.250
 6395POPC   C3B27537  25.468  14.981   7.950
 6395POPC   C4B27538  25.419  15.037   7.650
 6396POPC   NC327539  37.701  42.293   9.450
 6396POPC   PO427540  37.659  42.329   9.150
 6396POPC   GL127541  37.724  42.327   8.850
 6396POPC   GL227542  37.806  42.256   8.850
 6396POPC   C1A27543  37.683  42.360   8.550
 6396POPC   D2A27544  37.670  42.325   8.250
 6396POPC   C3A27545  37.650  42.310   7.950
 6396POPC   C4A27546  37.680  42.377   7.650
 6396POPC   C1B27547  37.836  42.135   8.550
 6396POPC   C2B27548  37.835  42.187   8.250
 6396POPC   C3B27549  37.838  42.175   7.950
 6396POPC   C4B27550  37.827  42.111   7.650
 6397POPC   NC327551  16.693  14.385   9.450
 6397POPC   PO427552  16.698  14.397   9.150
 6397POPC   GL127553  16.684  14.446   8.850
 6397POPC   GL227554  16.611  14.475   8.850
 6397POPC   C1A27555  16.686  14.378   8.550
 6397POPC   D2A27556  16.756  14.407   8.250
 6397POPC   C3A27557  16.756  14.380   7.950
 6397POPC   C4A27558  16.734  14.357   7.650
 6397POPC   C1B27559  16.544  14.439   8.550
 6397POPC   C2B27560  16.495  14.454   8.250
 6397POPC   C3B27561  16.508  14.455   7.950
 6397POPC   C4B27562  16.505  14.514   7.650
 6398POPC   NC327563  21.419  44.655   9.450
 6398POPC   PO427564  21.347  44.687   9.150
 6398POPC   GL127565  21.386  44.698   8.850
 6398POPC   GL227566  21.481  44.647   8.850
 6398POPC   C1A27567  21.348  44.653   8.550
 6398POPC   D2A27568  21.404  44.614   8.250
 6398POPC   C3A27569  21.344  44.683   7.950
 6398POPC   C4A27570  21.423  44.656   7.650
 6398POPC   C1B27571  21.649  44.663   8.550
 6398POPC   C2B27572  21.608  44.661   8.250
 6398POPC   C3B27573  21.616  44.640   7.950
 6398POPC   C4B27574  21.596  44.628   7.650
 6399POPC   NC327575  28.412  42.296   9.450
 6399POPC   PO427576  28.351  42.336   9.150
 6399POPC   GL127577  28.363  42.367   8.850
 6399POPC   GL227578  28.338  42.245   8.850
 6399POPC   C1A27579  28.412  42.354   8.550
 6399POPC   D2A27580  28.364  42.346   8.250
 6399POPC   C3A27581  28.411  42.321   7.950
 6399POPC   C4A27582  28.355  42.350   7.650
 6399POPC   C1B27583  28.350  42.120   8.550
 6399POPC   C2B27584  28.332  42.100   8.250
 6399POPC   C3B27585  28.333  42.049   7.950
 6399POPC   C4B27586  28.399  42.051   7.650
 6400POPC   NC327587  39.230  25.281   9.450
 6400POPC   PO427588  39.201  25.236   9.150
 6400POPC   GL127589  39.221  25.243   8.850
 6400POPC   GL227590  39.160  25.427   8.850
 6400POPC   C1A27591  39.249  25.309   8.550
 6400POPC   D2A27592  39.250  25.245   8.250
 6400POPC   C3A27593  39.215  25.235   7.950
 6400POPC   C4A27594  39.237  25.243   7.650
 6400POPC   C1B27595  39.238  25.546   8.550
 6400POPC   C2B27596  39.235  25.472   8.250
 6400POPC   C3B27597  39.228  25.486   7.950
 6400POPC   C4B27598  39.193  25.559   7.650
 6401POPC   NC327599  11.312  33.844   9.450
 6401POPC   PO427600  11.348  33.820   9.150
 6401POPC   GL127601  11.284  33.762   8.850
 6401POPC   GL227602  11.160  33.715   8.850
 6401POPC   C1A27603  11.261  33.809   8.550
 6401POPC   D2A27604  11.316  33.813   8.250
 6401POPC   C3A27605  11.324  33.793   7.950
 6401POPC   C4A27606  11.295  33.847   7.650
 6401POPC   C1B27607  11.088  33.656   8.550
 6401POPC   C2B27608  11.134  33.653   8.250
 6401POPC   C3B27609  11.166  33.662   7.950
 6401POPC   C4B27610  11.097  33.661   7.650
 6402POPC   NC327611  33.034  41.583   9.450
 6402POPC   PO427612  33.014  41.562   9.150
 6402POPC   GL127613  32.992  41.589   8.850
 6402POPC   GL227614  32.908  41.585   8.850
 6402POPC   C1A27615  33.051  41.609   8.550
 6402POPC   D2A27616  33.067  41.549   8.250
 6402POPC   C3A27617  33.012  41.546   7.950
 6402POPC   C4A27618  33.007  41.547   7.650
 6402POPC   C1B27619  32.808  41.645   8.550
 6402POPC   C2B27620  32.807  41.597   8.250
 6402POPC   C3B27621  32.758  41.551   7.950
 6402POPC   C4B27622  32.797  41.558   7.650
 6403POPC   NC327623  25.283  11.341   9.450
 6403POPC   PO427624  25.292  11.297   9.150
 6403POPC   GL127625  25.259  11.302   8.850
 6403POPC   GL227626  25.255  11.169   8.850
 6403POPC   C1A27627  25.304  11.346   8.550
 6403POPC   D2A27628  25.230  11.307   8.250
 6403POPC   C3A27629  25.286  11.308   7.950
 6403POPC   C4A27630  25.315  11.339   7.650
 6403POPC   C1B27631  25.275  11.071   8.550
 6403POPC   C2B27632  25.293  11.044   8.250
 6403POPC   C3B27633  25.282  11.019   7.950
 6403POPC   C4B27634  25.252  11.031   7.650
 6404POPC   NC327635  12.839   1.960   9.450
 6404POPC   PO427636  12.810   1.988   9.150
 6404POPC   GL127637  12.810   2.011   8.850
 6404POPC   GL227638  12.733   1.843   8.850
 6404POPC   C1A27639  12.826   2.005   8.550
 6404POPC   D2A27640  12.878   2.016   8.250
 6404POPC   C3A27641  12.812   1.989   7.950
 6404POPC   C4A27642  12.806   1.992   7.650
 6404POPC   C1B27643  12.668   1.810   8.550
 6404POPC   C2B27644  12.724   1.747   8.250
 6404POPC   C3B27645  12.731   1.759   7.950
 6404POPC   C4B27646  12.744   1.766   7.650
 6405POPC   NC327647  44.634  12.083   9.450
 6405POPC   PO427648  44.667  12.086   9.150
 6405POPC   GL127649  44.639  12.064   8.850
 6405POPC   GL227650  44.602  11.940   8.850
 6405POPC   C1A27651  44.691  12.060   8.550
 6405POPC   D2A27652  44.612  12.028   8.250
 6405POPC   C3A27653  44.622  12.053   7.950
 6405POPC   C4A27654  44.697  12.068   7.650
 6405POPC   C1B27655  44.574  11.872   8.550
 6405POPC   C2B27656  44.601  11.803   8.250
 6405POPC   C3B27657  44.594  11.856   7.950
 6405POPC   C4B27658  44.648  11.811   7.650
 6406POPC   NC327659  12.095   4.331   9.450
 6406POPC   PO427660  12.041   4.362   9.150
 6406POPC   GL127661  12.056   4.275   8.850
 6406POPC   GL227662  12.075   4.210   8.850
 6406POPC   C1A27663  12.051   4.269   8.550
 6406POPC   D2A27664  12.054   4.287   8.250
 6406POPC   C3A27665  12.037   4.334   7.950
 6406POPC   C4A27666  12.093   4.328   7.650
 6406POPC   C1B27667  11.958   4.096   8.550
 6406POPC   C2B27668  11.949   4.112   8.250
 6406POPC   C3B27669  11.945   4.111   7.950
 6406POPC   C4B27670  12.043   4.087   7.650
 6407POPC   NC327671  31.499   7.384   9.450
 6407POPC   PO427672  31.514   7.459   9.150
 6407POPC   GL127673  31.448   7.446   8.850
 6407POPC   GL227674  31.549   7.312   8.850
 6407POPC   C1A27675  31.436   7.470   8.550
 6407POPC   D2A27676  31.520   7.413   8.250
 6407POPC   C3A27677  31.429   7.465   7.950
 6407POPC   C4A27678  31.460   7.470   7.650
 6407POPC   C1B27679  31.630   7.230   8.550
 6407POPC   C2B27680  31.580   7.231   8.250
 6407POPC   C3B27681  31.559   7.246   7.950
 6407POPC   C4B27682  31.602   7.214   7.650
 6408POPC   NC327683  36.114  16.738   9.450
 6408POPC   PO427684  36.092  16.734   9.150
 6408POPC   GL127685  36.095  16.701   8.850
 6408POPC   GL227686  36.085  16.652   8.850
 6408POPC   C1A27687  36.148  16.778   8.550
 6408POPC   D2A27688  36.085  16.726   8.250
 6408POPC   C3A27689  36.085  16.774   7.950
 6408POPC   C4A27690  36.096  16.774   7.650
 6408POPC   C1B27691  36.036  16.553   8.550
 6408POPC   C2B27692  36.026  16.548   8.250
 6408POPC   C3B27693  35.978  16.516   7.950
 6408POPC   C4B27694  36.039  16.472   7.650
 6409POPC   NC327695  43.154   5.867   9.450
 6409POPC   PO427696  43.119   5.859   9.150
 6409POPC   GL127697  43.094   5.911   8.850
 6409POPC   GL227698  43.015   5.779   8.850
 6409POPC   C1A27699  43.137   5.841   8.550
 6409POPC   D2A27700  43.088   5.834   8.250
 6409POPC   C3A27701  43.118   5.828   7.950
 6409POPC   C4A27702  43.102   5.827   7.650
 6409POPC   C1B27703  42.989   5.640   8.550
 6409POPC   C2B27704  42.975   5.642   8.250
 6409POPC   C3B27705  42.934   5.695   7.950
 6409POPC   C4B27706  42.926   5.669   7.650
 6410POPC   NC327707  15.204  26.032   9.450
 6410POPC   PO427708  15.222  26.067   9.150
 6410POPC   GL127709  15.188  26.006   8.850
 6410POPC   GL227710  15.075  26.073   8.850
 6410POPC   C1A27711  15.135  26.043   8.550
 6410POPC   D2A27712  15.148  26.026   8.250
 6410POPC   C3A27713  15.205  26.013   7.950
 6410POPC   C4A27714  15.186  26.084   7.650
 6410POPC   C1B27715  14.920  26.127   8.550
 6410POPC   C2B27716  14.962  26.202   8.250
 6410POPC   C3B27717  14.982  26.173   7.950
 6410POPC   C4B27718  15.012  26.133   7.650
 6411POPC   NC327719  36.891  31.460   9.450
 6411POPC   PO427720  36.905  31.498   9.150
 6411POPC   GL127721  36.930  31.497   8.850
 6411POPC   GL227722  36.953  31.311   8.850
 6411POPC   C1A27723  36.923  31.424   8.550
 6411POPC   D2A27724  36.857  31.460   8.250
 6411POPC   C3A27725  36.911  31.464   7.950
 6411POPC   C4A27726  36.874  31.495   7.650
 6411POPC   C1B27727  36.981  31.207   8.550
 6411POPC   C2B27728  36.971  31.190   8.250
 6411POPC   C3B27729  37.004  31.261   7.950
 6411POPC   C4B27730  36.942  31.265   7.650
 6412POPC   NC327731  37.633  15.950   9.450
 6412POPC   PO427732  37.716  15.981   9.150
 6412POPC   GL127733  37.647  15.994   8.850
 6412POPC   GL227734  37.632  15.889   8.850
 6412POPC   C1A27735  37.656  15.964   8.550
 6412POPC   D2A27736  37.704  15.941   8.250
 6412POPC   C3A27737  37.694  15.989   7.950
 6412POPC   C4A27738  37.693  15.916   7.650
 6412POPC   C1B27739  37.587  15.762   8.550
 6412POPC   C2B27740  37.588  15.738   8.250
 6412POPC   C3B27741  37.551  15.760   7.950
 6412POPC   C4B27742  37.550  15.698   7.650
 6413POPC   NC327743  38.468  38.470   9.450
 6413POPC   PO427744  38.488  38.405   9.150
 6413POPC   GL127745  38.459  38.442   8.850
 6413POPC   GL227746  38.574  38.376   8.850
 6413POPC   C1A27747  38.454  38.429   8.550
 6413POPC   D2A27748  38.494  38.442   8.250
 6413POPC   C3A27749  38.490  38.405   7.950
 6413POPC   C4A27750  38.429  38.467   7.650
 6413POPC   C1B27751  38.617  38.295   8.550
 6413POPC   C2B27752  38.624  38.214   8.250
 6413POPC   C3B27753  38.616  38.250   7.950
 6413POPC   C4B27754  38.612  38.286   7.650
 6414POPC   NC327755  12.030  19.088   9.450
 6414POPC   PO427756  12.049  19.100   9.150
 6414POPC   GL127757  12.080  19.026   8.850
 6414POPC   GL227758  12.001  19.152   8.850
 6414POPC   C1A27759  12.089  19.020   8.550
 6414POPC   D2A27760  12.106  19.051   8.250
 6414POPC   C3A27761  12.078  19.027   7.950
 6414POPC   C4A27762  12.037  19.037   7.650
 6414POPC   C1B27763  11.862  19.209   8.550
 6414POPC   C2B27764  11.915  19.207   8.250
 6414POPC   C3B27765  11.881  19.190   7.950
 6414POPC   C4B27766  11.837  19.247   7.650
 6415POPC   NC327767   8.984  43.122   9.450
 6415POPC   PO427768   9.013  43.140   9.150
 6415POPC   GL127769   8.945  43.074   8.850
 6415POPC   GL227770   9.076  43.152   8.850
 6415POPC   C1A27771   8.954  43.085   8.550
 6415POPC   D2A27772   8.936  43.103   8.250
 6415POPC   C3A27773   8.991  43.135   7.950
 6415POPC   C4A27774   8.960  43.134   7.650
 6415POPC   C1B27775   9.128  43.312   8.550
 6415POPC   C2B27776   9.141  43.313   8.250
 6415POPC   C3B27777   9.106  43.253   7.950
 6415POPC   C4B27778   9.136  43.337   7.650
 6416POPC   NC327779  36.930  15.184   9.450
 6416POPC   PO427780  36.888  15.162   9.150
 6416POPC   GL127781  36.923  15.191   8.850
 6416POPC   GL227782  36.833  15.072   8.850
 6416POPC   C1A27783  36.948  15.215   8.550
 6416POPC   D2A27784  36.927  15.130   8.250
 6416POPC   C3A27785  36.857  15.220   7.950
 6416POPC   C4A27786  36.915  15.146   7.650
 6416POPC   C1B27787  36.754  15.024   8.550
 6416POPC   C2B27788  36.697  15.033   8.250
 6416POPC   C3B27789  36.688  15.047   7.950
 6416POPC   C4B27790  36.707  14.988   7.650
 6417POPC   NC327791  21.425  32.270   9.450
 6417POPC   PO427792  21.424  32.248   9.150
 6417POPC   GL127793  21.413  32.260   8.850
 6417POPC   GL227794  21.482  32.384   8.850
 6417POPC   C1A27795  21.432  32.211   8.550
 6417POPC   D2A27796  21.337  32.275   8.250
 6417POPC   C3A27797  21.345  32.267   7.950
 6417POPC   C4A27798  21.421  32.270   7.650
 6417POPC   C1B27799  21.580  32.449   8.550
 6417POPC   C2B27800  21.524  32.417   8.250
 6417POPC   C3B27801  21.566  32.435   7.950
 6417POPC   C4B27802  21.564  32.479   7.650
 6418POPC   NC327803  21.384  29.929   9.450
 6418POPC   PO427804  21.362  29.884   9.150
 6418POPC   GL127805  21.416  29.906   8.850
 6418POPC   GL227806  21.492  29.885   8.850
 6418POPC   C1A27807  21.355  29.962   8.550
 6418POPC   D2A27808  21.415  29.960   8.250
 6418POPC   C3A27809  21.414  29.929   7.950
 6418POPC   C4A27810  21.379  29.878   7.650
 6418POPC   C1B27811  21.632  29.801   8.550
 6418POPC   C2B27812  21.599  29.814   8.250
 6418POPC   C3B27813  21.619  29.819   7.950
 6418POPC   C4B27814  21.555  29.795   7.650
 6419POPC   NC327815   0.391  14.369   9.450
 6419POPC   PO427816   0.391  14.354   9.150
 6419POPC   GL127817   0.451  14.383   8.850
 6419POPC   GL227818   0.356  14.342   8.850
 6419POPC   C1A27819   0.399  14.358   8.550
 6419POPC   D2A27820   0.427  14.434   8.250
 6419POPC   C3A27821   0.446  14.391   7.950
 6419POPC   C4A27822   0.411  14.385   7.650
 6419POPC   C1B27823   0.152  14.400   8.550
 6419POPC   C2B27824   0.218  14.308   8.250
 6419POPC   C3B27825   0.188  14.308   7.950
 6419POPC   C4B27826   0.237  14.311   7.650
 6420POPC   NC327827   4.341  44.687   9.450
 6420POPC   PO427828   4.356  44.703   9.150
 6420POPC   GL127829   4.367  44.628   8.850
 6420POPC   GL227830   4.277  44.739   8.850
 6420POPC   C1A27831   4.289  44.614   8.550
 6420POPC   D2A27832   4.319  44.698   8.250
 6420POPC   C3A27833   4.331  44.699   7.950
 6420POPC   C4A27834   4.301  44.696   7.650
 6420POPC   C1B27835   4.305  44.888   8.550
 6420POPC   C2B27836   4.248  44.943   8.250
 6420POPC   C3B27837   4.299  44.936   7.950
 6420POPC   C4B27838   4.300  44.954   7.650
 6421POPC   NC327839  34.545  14.404   9.450
 6421POPC   PO427840  34.620  14.436   9.150
 6421POPC   GL127841  34.619  14.358   8.850
 6421POPC   GL227842  34.466  14.430   8.850
 6421POPC   C1A27843  34.599  14.424   8.550
 6421POPC   D2A27844  34.617  14.453   8.250
 6421POPC   C3A27845  34.591  14.354   7.950
 6421POPC   C4A27846  34.601  14.366   7.650
 6421POPC   C1B27847  34.302  14.422   8.550
 6421POPC   C2B27848  34.333  14.475   8.250
 6421POPC   C3B27849  34.341  14.455   7.950
 6421POPC   C4B27850  34.285  14.388   7.650
 6422POPC   NC327851  36.892   5.073   9.450
 6422POPC   PO427852  36.946   5.067   9.150
 6422POPC   GL127853  36.945   5.119   8.850
 6422POPC   GL227854  36.795   5.034   8.850
 6422POPC   C1A27855  36.927   5.132   8.550
 6422POPC   D2A27856  36.887   5.075   8.250
 6422POPC   C3A27857  36.858   5.079   7.950
 6422POPC   C4A27858  36.929   5.136   7.650
 6422POPC   C1B27859  36.747   4.881   8.550
 6422POPC   C2B27860  36.686   4.967   8.250
 6422POPC   C3B27861  36.702   4.907   7.950
 6422POPC   C4B27862  36.698   4.951   7.650
 6423POPC   NC327863  44.677   8.232   9.450
 6423POPC   PO427864  44.668   8.239   9.150
 6423POPC   GL127865  44.629   8.191   8.850
 6423POPC   GL227866  44.836   8.214   8.850
 6423POPC   C1A27867  44.661   8.173   8.550
 6423POPC   D2A27868  44.684   8.226   8.250
 6423POPC   C3A27869  44.663   8.148   7.950
 6423POPC   C4A27870  44.655   8.148   7.650
 6423POPC   C1B27871  44.883   8.232   8.550
 6423POPC   C2B27872  44.932   8.232   8.250
 6423POPC   C3B27873  44.887   8.169   7.950
 6423POPC   C4B27874  44.932   8.187   7.650
 6424POPC   NC327875  10.517  32.975   9.450
 6424POPC   PO427876  10.565  33.014   9.150
 6424POPC   GL127877  10.504  33.037   8.850
 6424POPC   GL227878  10.445  32.986   8.850
 6424POPC   C1A27879  10.484  33.023   8.550
 6424POPC   D2A27880  10.529  32.981   8.250
 6424POPC   C3A27881  10.567  33.060   7.950
 6424POPC   C4A27882  10.562  33.000   7.650
 6424POPC   C1B27883  10.313  32.938   8.550
 6424POPC   C2B27884  10.322  32.927   8.250
 6424POPC   C3B27885  10.279  32.989   7.950
 6424POPC   C4B27886  10.297  32.994   7.650
 6425POPC   NC327887  16.001  21.395   9.450
 6425POPC   PO427888  15.920  21.422   9.150
 6425POPC   GL127889  15.941  21.361   8.850
 6425POPC   GL227890  15.993  21.499   8.850
 6425POPC   C1A27891  15.984  21.412   8.550
 6425POPC   D2A27892  15.924  21.360   8.250
 6425POPC   C3A27893  15.981  21.398   7.950
 6425POPC   C4A27894  15.969  21.363   7.650
 6425POPC   C1B27895  16.132  21.626   8.550
 6425POPC   C2B27896  16.062  21.556   8.250
 6425POPC   C3B27897  16.119  21.563   7.950
 6425POPC   C4B27898  16.107  21.545   7.650
 6426POPC   NC327899  15.951  11.329   9.450
 6426POPC   PO427900  15.913  11.339   9.150
 6426POPC   GL127901  15.921  11.308   8.850
 6426POPC   GL227902  15.986  11.183   8.850
 6426POPC   C1A27903  15.994  11.338   8.550
 6426POPC   D2A27904  15.954  11.316   8.250
 6426POPC   C3A27905  15.940  11.286   7.950
 6426POPC   C4A27906  15.927  11.258   7.650
 6426POPC   C1B27907  16.070  11.152   8.550
 6426POPC   C2B27908  16.075  11.110   8.250
 6426POPC   C3B27909  16.154  11.152   7.950
 6426POPC   C4B27910  16.136  11.066   7.650
 6427POPC   NC327911  29.897  11.332   9.450
 6427POPC   PO427912  29.946  11.274   9.150
 6427POPC   GL127913  29.896  11.320   8.850
 6427POPC   GL227914  29.768  11.291   8.850
 6427POPC   C1A27915  29.945  11.323   8.550
 6427POPC   D2A27916  29.889  11.258   8.250
 6427POPC   C3A27917  29.937  11.254   7.950
 6427POPC   C4A27918  29.879  11.333   7.650
 6427POPC   C1B27919  29.629  11.382   8.550
 6427POPC   C2B27920  29.720  11.309   8.250
 6427POPC   C3B27921  29.704  11.338   7.950
 6427POPC   C4B27922  29.662  11.383   7.650
 6428POPC   NC327923  26.829   3.522   9.450
 6428POPC   PO427924  26.779   3.580   9.150
 6428POPC   GL127925  26.799   3.494   8.850
 6428POPC   GL227926  26.889   3.392   8.850
 6428POPC   C1A27927  26.770   3.581   8.550
 6428POPC   D2A27928  26.854   3.570   8.250
 6428POPC   C3A27929  26.799   3.579   7.950
 6428POPC   C4A27930  26.794   3.562   7.650
 6428POPC   C1B27931  26.968   3.305   8.550
 6428POPC   C2B27932  26.928   3.349   8.250
 6428POPC   C3B27933  26.905   3.327   7.950
 6428POPC   C4B27934  26.968   3.360   7.650
 6429POPC   NC327935  13.665  40.792   9.450
 6429POPC   PO427936  13.675  40.778   9.150
 6429POPC   GL127937  13.667  40.802   8.850
 6429POPC   GL227938  13.474  40.833   8.850
 6429POPC   C1A27939  13.617  40.762   8.550
 6429POPC   D2A27940  13.665  40.734   8.250
 6429POPC   C3A27941  13.638  40.813   7.950
 6429POPC   C4A27942  13.614  40.817   7.650
 6429POPC   C1B27943  13.401  40.877   8.550
 6429POPC   C2B27944  13.413  40.960   8.250
 6429POPC   C3B27945  13.410  40.953   7.950
 6429POPC   C4B27946  13.457  40.924   7.650
 6430POPC   NC327947  18.264  12.860   9.450
 6430POPC   PO427948  18.238  12.822   9.150
 6430POPC   GL127949  18.312  12.818   8.850
 6430POPC   GL227950  18.311  13.002   8.850
 6430POPC   C1A27951  18.314  12.816   8.550
 6430POPC   D2A27952  18.306  12.825   8.250
 6430POPC   C3A27953  18.248  12.868   7.950
 6430POPC   C4A27954  18.305  12.895   7.650
 6430POPC   C1B27955  18.455  13.025   8.550
 6430POPC   C2B27956  18.423  13.112   8.250
 6430POPC   C3B27957  18.414  13.057   7.950
 6430POPC   C4B27958  18.458  13.071   7.650
 6431POPC   NC327959  33.826  44.679   9.450
 6431POPC   PO427960  33.840  44.691   9.150
 6431POPC   GL127961  33.764  44.673   8.850
 6431POPC   GL227962  33.894  44.564   8.850
 6431POPC   C1A27963  33.822  44.627   8.550
 6431POPC   D2A27964  33.778  44.710   8.250
 6431POPC   C3A27965  33.798  44.686   7.950
 6431POPC   C4A27966  33.825  44.645   7.650
 6431POPC   C1B27967  34.053  44.559   8.550
 6431POPC   C2B27968  33.983  44.562   8.250
 6431POPC   C3B27969  34.064  44.511   7.950
 6431POPC   C4B27970  33.978  44.535   7.650
 6432POPC   NC327971  10.518  17.490   9.450
 6432POPC   PO427972  10.535  17.485   9.150
 6432POPC   GL127973  10.557  17.519   8.850
 6432POPC   GL227974  10.450  17.446   8.850
 6432POPC   C1A27975  10.570  17.492   8.550
 6432POPC   D2A27976  10.550  17.553   8.250
 6432POPC   C3A27977  10.479  17.508   7.950
 6432POPC   C4A27978  10.500  17.518   7.650
 6432POPC   C1B27979  10.330  17.308   8.550
 6432POPC   C2B27980  10.366  17.314   8.250
 6432POPC   C3B27981  10.373  17.305   7.950
 6432POPC   C4B27982  10.298  17.340   7.650
 6433POPC   NC327983   8.204  31.474   9.450
 6433POPC   PO427984   8.179  31.490   9.150
 6433POPC   GL127985   8.184  31.463   8.850
 6433POPC   GL227986   8.223  31.569   8.850
 6433POPC   C1A27987   8.150  31.492   8.550
 6433POPC   D2A27988   8.148  31.506   8.250
 6433POPC   C3A27989   8.152  31.496   7.950
 6433POPC   C4A27990   8.187  31.457   7.650
 6433POPC   C1B27991   8.333  31.699   8.550
 6433POPC   C2B27992   8.332  31.733   8.250
 6433POPC   C3B27993   8.317  31.679   7.950
 6433POPC   C4B27994   8.266  31.750   7.650
 6434POPC   NC327995  38.472  29.187   9.450
 6434POPC   PO427996  38.479  29.117   9.150
 6434POPC   GL127997  38.464  29.133   8.850
 6434POPC   GL227998  38.408  29.071   8.850
 6434POPC   C1A27999  38.459  29.103   8.550
 6434POPC   D2A28000  38.503  29.175   8.250
 6434POPC   C3A28001  38.418  29.100   7.950
 6434POPC   C4A28002  38.450  29.111   7.650
 6434POPC   C1B28003  38.286  28.911   8.550
 6434POPC   C2B28004  38.287  28.897   8.250
 6434POPC   C3B28005  38.324  28.962   7.950
 6434POPC   C4B28006  38.304  28.950   7.650
 6435POPC   NC328007  13.657  21.431   9.450
 6435POPC   PO428008  13.596  21.401   9.150
 6435POPC   GL128009  13.616  21.399   8.850
 6435POPC   GL228010  13.753  21.289   8.850
 6435POPC   C1A28011  13.652  21.406   8.550
 6435POPC   D2A28012  13.637  21.406   8.250
 6435POPC   C3A28013  13.611  21.342   7.950
 6435POPC   C4A28014  13.620  21.366   7.650
 6435POPC   C1B28015  13.818  21.262   8.550
 6435POPC   C2B28016  13.872  21.284   8.250
 6435POPC   C3B28017  13.889  21.269   7.950
 6435POPC   C4B28018  13.901  21.296   7.650
 6436POPC   NC328019  12.864   8.966   9.450
 6436POPC   PO428020  12.839   8.942   9.150
 6436POPC   GL128021  12.893   8.961   8.850
 6436POPC   GL228022  12.946   8.950   8.850
 6436POPC   C1A28023  12.853   8.940   8.550
 6436POPC   D2A28024  12.864   8.952   8.250
 6436POPC   C3A28025  12.818   8.982   7.950
 6436POPC   C4A28026  12.871   8.937   7.650
 6436POPC   C1B28027  13.055   8.946   8.550
 6436POPC   C2B28028  13.091   8.971   8.250
 6436POPC   C3B28029  13.070   8.991   7.950
 6436POPC   C4B28030  13.113   8.980   7.650
 6437POPC   NC328031  15.917  15.153   9.450
 6437POPC   PO428032  15.907  15.188   9.150
 6437POPC   GL128033  15.974  15.156   8.850
 6437POPC   GL228034  15.941  15.330   8.850
 6437POPC   C1A28035  15.953  15.153   8.550
 6437POPC   D2A28036  15.947  15.159   8.250
 6437POPC   C3A28037  15.981  15.173   7.950
 6437POPC   C4A28038  15.917  15.133   7.650
 6437POPC   C1B28039  16.000  15.377   8.550
 6437POPC   C2B28040  16.037  15.414   8.250
 6437POPC   C3B28041  15.986  15.400   7.950
 6437POPC   C4B28042  16.047  15.464   7.650
 6438POPC   NC328043  40.820  28.392   9.450
 6438POPC   PO428044  40.810  28.363   9.150
 6438POPC   GL128045  40.810  28.322   8.850
 6438POPC   GL228046  40.920  28.442   8.850
 6438POPC   C1A28047  40.772  28.342   8.550
 6438POPC   D2A28048  40.737  28.320   8.250
 6438POPC   C3A28049  40.820  28.340   7.950
 6438POPC   C4A28050  40.804  28.320   7.650
 6438POPC   C1B28051  41.001  28.467   8.550
 6438POPC   C2B28052  40.972  28.472   8.250
 6438POPC   C3B28053  41.023  28.433   7.950
 6438POPC   C4B28054  41.012  28.499   7.650
 6439POPC   NC328055   5.135   5.071   9.450
 6439POPC   PO428056   5.063   5.094   9.150
 6439POPC   GL128057   5.065   5.132   8.850
 6439POPC   GL228058   5.000   5.141   8.850
 6439POPC   C1A28059   5.135   5.104   8.550
 6439POPC   D2A28060   5.081   5.106   8.250
 6439POPC   C3A28061   5.140   5.111   7.950
 6439POPC   C4A28062   5.069   5.142   7.650
 6439POPC   C1B28063   4.925   5.231   8.550
 6439POPC   C2B28064   4.893   5.296   8.250
 6439POPC   C3B28065   4.946   5.300   7.950
 6439POPC   C4B28066   4.973   5.322   7.650
 6440POPC   NC328067  19.873  41.589   9.450
 6440POPC   PO428068  19.865  41.528   9.150
 6440POPC   GL128069  19.785  41.567   8.850
 6440POPC   GL228070  19.930  41.561   8.850
 6440POPC   C1A28071  19.861  41.589   8.550
 6440POPC   D2A28072  19.854  41.606   8.250
 6440POPC   C3A28073  19.841  41.562   7.950
 6440POPC   C4A28074  19.843  41.607   7.650
 6440POPC   C1B28075  20.064  41.667   8.550
 6440POPC   C2B28076  20.087  41.649   8.250
 6440POPC   C3B28077  20.110  41.623   7.950
 6440POPC   C4B28078  20.050  41.604   7.650
 6441POPC   NC328079  17.473  19.847   9.450
 6441POPC   PO428080  17.491  19.801   9.150
 6441POPC   GL128081  17.507  19.852   8.850
 6441POPC   GL228082  17.432  19.938   8.850
 6441POPC   C1A28083  17.505  19.791   8.550
 6441POPC   D2A28084  17.556  19.858   8.250
 6441POPC   C3A28085  17.531  19.784   7.950
 6441POPC   C4A28086  17.544  19.802   7.650
 6441POPC   C1B28087  17.361  20.001   8.550
 6441POPC   C2B28088  17.310  19.973   8.250
 6441POPC   C3B28089  17.304  20.018   7.950
 6441POPC   C4B28090  17.327  20.009   7.650
 6442POPC   NC328091   4.330   5.110   9.450
 6442POPC   PO428092   4.306   5.099   9.150
 6442POPC   GL128093   4.367   5.064   8.850
 6442POPC   GL228094   4.238   4.965   8.850
 6442POPC   C1A28095   4.332   5.045   8.550
 6442POPC   D2A28096   4.346   5.045   8.250
 6442POPC   C3A28097   4.287   5.079   7.950
 6442POPC   C4A28098   4.274   5.137   7.650
 6442POPC   C1B28099   4.271   4.875   8.550
 6442POPC   C2B28100   4.194   4.845   8.250
 6442POPC   C3B28101   4.244   4.826   7.950
 6442POPC   C4B28102   4.223   4.841   7.650
 6443POPC   NC328103  26.085  39.245   9.450
 6443POPC   PO428104  26.009  39.251   9.150
 6443POPC   GL128105  26.070  39.266   8.850
 6443POPC   GL228106  25.970  39.155   8.850
 6443POPC   C1A28107  26.055  39.221   8.550
 6443POPC   D2A28108  26.029  39.202   8.250
 6443POPC   C3A28109  26.012  39.251   7.950
 6443POPC   C4A28110  26.089  39.192   7.650
 6443POPC   C1B28111  25.882  39.044   8.550
 6443POPC   C2B28112  25.862  39.092   8.250
 6443POPC   C3B28113  25.854  39.089   7.950
 6443POPC   C4B28114  25.850  39.048   7.650
 6444POPC   NC328115  19.068  43.874   9.450
 6444POPC   PO428116  19.055  43.916   9.150
 6444POPC   GL128117  19.078  43.889   8.850
 6444POPC   GL228118  19.020  43.756   8.850
 6444POPC   C1A28119  19.043  43.893   8.550
 6444POPC   D2A28120  19.089  43.846   8.250
 6444POPC   C3A28121  19.044  43.876   7.950
 6444POPC   C4A28122  19.040  43.915   7.650
 6444POPC   C1B28123  19.122  43.682   8.550
 6444POPC   C2B28124  19.101  43.683   8.250
 6444POPC   C3B28125  19.071  43.622   7.950
 6444POPC   C4B28126  19.111  43.662   7.650
 6445POPC   NC328127   3.580  39.998   9.450
 6445POPC   PO428128   3.534  40.018   9.150
 6445POPC   GL128129   3.563  40.042   8.850
 6445POPC   GL228130   3.595  39.859   8.850
 6445POPC   C1A28131   3.561  40.037   8.550
 6445POPC   D2A28132   3.563  39.997   8.250
 6445POPC   C3A28133   3.580  40.031   7.950
 6445POPC   C4A28134   3.505  39.979   7.650
 6445POPC   C1B28135   3.716  39.778   8.550
 6445POPC   C2B28136   3.655  39.752   8.250
 6445POPC   C3B28137   3.699  39.846   7.950
 6445POPC   C4B28138   3.641  39.785   7.650
 6446POPC   NC328139   4.288  39.264   9.450
 6446POPC   PO428140   4.307  39.196   9.150
 6446POPC   GL128141   4.357  39.211   8.850
 6446POPC   GL228142   4.483  39.236   8.850
 6446POPC   C1A28143   4.292  39.277   8.550
 6446POPC   D2A28144   4.367  39.225   8.250
 6446POPC   C3A28145   4.268  39.183   7.950
 6446POPC   C4A28146   4.349  39.193   7.650
 6446POPC   C1B28147   4.571  39.273   8.550
 6446POPC   C2B28148   4.538  39.362   8.250
 6446POPC   C3B28149   4.553  39.322   7.950
 6446POPC   C4B28150   4.594  39.339   7.650
 6447POPC   NC328151  35.375  41.566   9.450
 6447POPC   PO428152  35.359  41.552   9.150
 6447POPC   GL128153  35.321  41.564   8.850
 6447POPC   GL228154  35.507  41.518   8.850
 6447POPC   C1A28155  35.325  41.576   8.550
 6447POPC   D2A28156  35.339  41.550   8.250
 6447POPC   C3A28157  35.316  41.522   7.950
 6447POPC   C4A28158  35.376  41.594   7.650
 6447POPC   C1B28159  35.553  41.483   8.550
 6447POPC   C2B28160  35.574  41.473   8.250
 6447POPC   C3B28161  35.618  41.472   7.950
 6447POPC   C4B28162  35.568  41.548   7.650
 6448POPC   NC328163  24.489  42.310   9.450
 6448POPC   PO428164  24.463  42.339   9.150
 6448POPC   GL128165  24.451  42.335   8.850
 6448POPC   GL228166  24.406  42.251   8.850
 6448POPC   C1A28167  24.484  42.320   8.550
 6448POPC   D2A28168  24.440  42.351   8.250
 6448POPC   C3A28169  24.500  42.379   7.950
 6448POPC   C4A28170  24.526  42.335   7.650
 6448POPC   C1B28171  24.228  42.269   8.550
 6448POPC   C2B28172  24.206  42.265   8.250
 6448POPC   C3B28173  24.282  42.258   7.950
 6448POPC   C4B28174  24.282  42.264   7.650
 6449POPC   NC328175  15.937  43.087   9.450
 6449POPC   PO428176  15.934  43.105   9.150
 6449POPC   GL128177  15.921  43.153   8.850
 6449POPC   GL228178  15.881  43.029   8.850
 6449POPC   C1A28179  15.932  43.151   8.550
 6449POPC   D2A28180  15.937  43.103   8.250
 6449POPC   C3A28181  15.933  43.090   7.950
 6449POPC   C4A28182  15.954  43.153   7.650
 6449POPC   C1B28183  15.744  42.922   8.550
 6449POPC   C2B28184  15.789  42.908   8.250
 6449POPC   C3B28185  15.808  42.981   7.950
 6449POPC   C4B28186  15.717  42.931   7.650
 6450POPC   NC328187  44.641  37.700   9.450
 6450POPC   PO428188  44.699  37.684   9.150
 6450POPC   GL128189  44.617  37.670   8.850
 6450POPC   GL228190  44.581  37.596   8.850
 6450POPC   C1A28191  44.707  37.665   8.550
 6450POPC   D2A28192  44.634  37.676   8.250
 6450POPC   C3A28193  44.672  37.695   7.950
 6450POPC   C4A28194  44.633  37.654   7.650
 6450POPC   C1B28195  44.391  37.591   8.550
 6450POPC   C2B28196  44.456  37.590   8.250
 6450POPC   C3B28197  44.398  37.584   7.950
 6450POPC   C4B28198  44.460  37.609   7.650
 6451POPC   NC328199  26.825  12.112   9.450
 6451POPC   PO428200  26.792  12.084   9.150
 6451POPC   GL128201  26.854  12.030   8.850
 6451POPC   GL228202  26.785  12.177   8.850
 6451POPC   C1A28203  26.829  12.066   8.550
 6451POPC   D2A28204  26.849  12.051   8.250
 6451POPC   C3A28205  26.799  12.066   7.950
 6451POPC   C4A28206  26.855  12.115   7.650
 6451POPC   C1B28207  26.675  12.272   8.550
 6451POPC   C2B28208  26.664  12.333   8.250
 6451POPC   C3B28209  26.727  12.268   7.950
 6451POPC   C4B28210  26.731  12.310   7.650
 6452POPC   NC328211   2.758  24.494   9.450
 6452POPC   PO428212   2.771  24.534   9.150
 6452POPC   GL128213   2.812  24.506   8.850
 6452POPC   GL228214   2.880  24.441   8.850
 6452POPC   C1A28215   2.756  24.470   8.550
 6452POPC   D2A28216   2.719  24.466   8.250
 6452POPC   C3A28217   2.756  24.525   7.950
 6452POPC   C4A28218   2.798  24.463   7.650
 6452POPC   C1B28219   3.055  24.447   8.550
 6452POPC   C2B28220   2.999  24.461   8.250
 6452POPC   C3B28221   3.058  24.455   7.950
 6452POPC   C4B28222   3.006  24.473   7.650
 6453POPC   NC328223  15.168  36.141   9.450
 6453POPC   PO428224  15.155  36.115   9.150
 6453POPC   GL128225  15.150  36.111   8.850
 6453POPC   GL228226  15.266  36.031   8.850
 6453POPC   C1A28227  15.136  36.161   8.550
 6453POPC   D2A28228  15.136  36.154   8.250
 6453POPC   C3A28229  15.133  36.094   7.950
 6453POPC   C4A28230  15.142  36.162   7.650
 6453POPC   C1B28231  15.404  35.934   8.550
 6453POPC   C2B28232  15.364  35.995   8.250
 6453POPC   C3B28233  15.340  35.981   7.950
 6453POPC   C4B28234  15.353  35.956   7.650
 6454POPC   NC328235  43.918  25.283   9.450
 6454POPC   PO428236  43.879  25.267   9.150
 6454POPC   GL128237  43.904  25.307   8.850
 6454POPC   GL228238  43.811  25.237   8.850
 6454POPC   C1A28239  43.872  25.222   8.550
 6454POPC   D2A28240  43.840  25.293   8.250
 6454POPC   C3A28241  43.841  25.228   7.950
 6454POPC   C4A28242  43.884  25.274   7.650
 6454POPC   C1B28243  43.631  25.161   8.550
 6454POPC   C2B28244  43.638  25.128   8.250
 6454POPC   C3B28245  43.684  25.205   7.950
 6454POPC   C4B28246  43.668  25.138   7.650
 6455POPC   NC328247   6.690  22.145   9.450
 6455POPC   PO428248   6.656  22.133   9.150
 6455POPC   GL128249   6.620  22.206   8.850
 6455POPC   GL228250   6.632  22.318   8.850
 6455POPC   C1A28251   6.694  22.170   8.550
 6455POPC   D2A28252   6.601  22.193   8.250
 6455POPC   C3A28253   6.639  22.181   7.950
 6455POPC   C4A28254   6.614  22.175   7.650
 6455POPC   C1B28255   6.538  22.388   8.550
 6455POPC   C2B28256   6.539  22.350   8.250
 6455POPC   C3B28257   6.584  22.353   7.950
 6455POPC   C4B28258   6.494  22.397   7.650
 6456POPC   NC328259  22.173  20.582   9.450
 6456POPC   PO428260  22.179  20.588   9.150
 6456POPC   GL128261  22.138  20.604   8.850
 6456POPC   GL228262  22.107  20.455   8.850
 6456POPC   C1A28263  22.190  20.608   8.550
 6456POPC   D2A28264  22.148  20.646   8.250
 6456POPC   C3A28265  22.195  20.571   7.950
 6456POPC   C4A28266  22.123  20.571   7.650
 6456POPC   C1B28267  22.067  20.423   8.550
 6456POPC   C2B28268  22.116  20.349   8.250
 6456POPC   C3B28269  22.079  20.355   7.950
 6456POPC   C4B28270  22.070  20.392   7.650
 6457POPC   NC328271  16.728  29.158   9.450
 6457POPC   PO428272  16.781  29.129   9.150
 6457POPC   GL128273  16.707  29.136   8.850
 6457POPC   GL228274  16.829  29.044   8.850
 6457POPC   C1A28275  16.685  29.105   8.550
 6457POPC   D2A28276  16.780  29.121   8.250
 6457POPC   C3A28277  16.739  29.153   7.950
 6457POPC   C4A28278  16.746  29.145   7.650
 6457POPC   C1B28279  16.888  28.980   8.550
 6457POPC   C2B28280  16.865  28.990   8.250
 6457POPC   C3B28281  16.836  28.916   7.950
 6457POPC   C4B28282  16.927  28.922   7.650
 6458POPC   NC328283  16.707  44.619   9.450
 6458POPC   PO428284  16.756  44.617   9.150
 6458POPC   GL128285  16.777  44.613   8.850
 6458POPC   GL228286  16.635  44.631   8.850
 6458POPC   C1A28287  16.691  44.692   8.550
 6458POPC   D2A28288  16.721  44.664   8.250
 6458POPC   C3A28289  16.697  44.710   7.950
 6458POPC   C4A28290  16.714  44.638   7.650
 6458POPC   C1B28291  16.530  44.551   8.550
 6458POPC   C2B28292  16.579  44.541   8.250
 6458POPC   C3B28293  16.484  44.526   7.950
 6458POPC   C4B28294  16.488  44.511   7.650
 6459POPC   NC328295  31.447  26.010   9.450
 6459POPC   PO428296  31.477  26.030   9.150
 6459POPC   GL128297  31.471  26.074   8.850
 6459POPC   GL228298  31.634  26.028   8.850
 6459POPC   C1A28299  31.472  26.059   8.550
 6459POPC   D2A28300  31.436  26.060   8.250
 6459POPC   C3A28301  31.493  26.080   7.950
 6459POPC   C4A28302  31.445  26.013   7.650
 6459POPC   C1B28303  31.677  26.055   8.550
 6459POPC   C2B28304  31.682  25.992   8.250
 6459POPC   C3B28305  31.689  26.053   7.950
 6459POPC   C4B28306  31.719  26.006   7.650
 6460POPC   NC328307  39.239  39.203   9.450
 6460POPC   PO428308  39.273  39.183   9.150
 6460POPC   GL128309  39.269  39.201   8.850
 6460POPC   GL228310  39.304  39.344   8.850
 6460POPC   C1A28311  39.192  39.240   8.550
 6460POPC   D2A28312  39.195  39.190   8.250
 6460POPC   C3A28313  39.278  39.220   7.950
 6460POPC   C4A28314  39.211  39.235   7.650
 6460POPC   C1B28315  39.412  39.371   8.550
 6460POPC   C2B28316  39.420  39.350   8.250
 6460POPC   C3B28317  39.452  39.371   7.950
 6460POPC   C4B28318  39.415  39.416   7.650
 6461POPC   NC328319  26.066   5.073   9.450
 6461POPC   PO428320  26.071   5.107   9.150
 6461POPC   GL128321  26.069   5.062   8.850
 6461POPC   GL228322  26.109   5.028   8.850
 6461POPC   C1A28323  26.077   5.094   8.550
 6461POPC   D2A28324  26.017   5.055   8.250
 6461POPC   C3A28325  26.087   5.110   7.950
 6461POPC   C4A28326  26.031   5.132   7.650
 6461POPC   C1B28327  26.166   4.835   8.550
 6461POPC   C2B28328  26.110   4.817   8.250
 6461POPC   C3B28329  26.168   4.865   7.950
 6461POPC   C4B28330  26.132   4.913   7.650
 6462POPC   NC328331  14.393  36.176   9.450
 6462POPC   PO428332  14.438  36.095   9.150
 6462POPC   GL128333  14.383  36.139   8.850
 6462POPC   GL228334  14.522  36.202   8.850
 6462POPC   C1A28335  14.407  36.125   8.550
 6462POPC   D2A28336  14.412  36.139   8.250
 6462POPC   C3A28337  14.394  36.103   7.950
 6462POPC   C4A28338  14.423  36.106   7.650
 6462POPC   C1B28339  14.581  36.246   8.550
 6462POPC   C2B28340  14.650  36.262   8.250
 6462POPC   C3B28341  14.652  36.253   7.950
 6462POPC   C4B28342  14.617  36.239   7.650
 6463POPC   NC328343  33.009  33.071   9.450
 6463POPC   PO428344  33.061  33.032   9.150
 6463POPC   GL128345  33.060  32.995   8.850
 6463POPC   GL228346  33.122  32.953   8.850
 6463POPC   C1A28347  33.052  33.012   8.550
 6463POPC   D2A28348  33.029  32.995   8.250
 6463POPC   C3A28349  33.062  33.022   7.950
 6463POPC   C4A28350  32.997  32.977   7.650
 6463POPC   C1B28351  33.211  32.954   8.550
 6463POPC   C2B28352  33.206  32.945   8.250
 6463POPC   C3B28353  33.294  32.938   7.950
 6463POPC   C4B28354  33.263  32.920   7.650
 6464POPC   NC328355   4.355  29.914   9.450
 6464POPC   PO428356   4.343  29.947   9.150
 6464POPC   GL128357   4.271  29.881   8.850
 6464POPC   GL228358   4.331  30.060   8.850
 6464POPC   C1A28359   4.363  29.892   8.550
 6464POPC   D2A28360   4.280  29.959   8.250
 6464POPC   C3A28361   4.342  29.894   7.950
 6464POPC   C4A28362   4.270  29.937   7.650
 6464POPC   C1B28363   4.376  30.147   8.550
 6464POPC   C2B28364   4.370  30.118   8.250
 6464POPC   C3B28365   4.333  30.185   7.950
 6464POPC   C4B28366   4.327  30.191   7.650
 6465POPC   NC328367   2.777  25.217   9.450
 6465POPC   PO428368   2.799  25.302   9.150
 6465POPC   GL128369   2.721  25.263   8.850
 6465POPC   GL228370   2.929  25.206   8.850
 6465POPC   C1A28371   2.805  25.278   8.550
 6465POPC   D2A28372   2.791  25.244   8.250
 6465POPC   C3A28373   2.743  25.225   7.950
 6465POPC   C4A28374   2.799  25.264   7.650
 6465POPC   C1B28375   2.983  25.129   8.550
 6465POPC   C2B28376   2.997  25.163   8.250
 6465POPC   C3B28377   3.036  25.216   7.950
 6465POPC   C4B28378   2.984  25.165   7.650
 6466POPC   NC328379  30.677  21.423   9.450
 6466POPC   PO428380  30.687  21.426   9.150
 6466POPC   GL128381  30.670  21.396   8.850
 6466POPC   GL228382  30.699  21.317   8.850
 6466POPC   C1A28383  30.726  21.377   8.550
 6466POPC   D2A28384  30.724  21.396   8.250
 6466POPC   C3A28385  30.736  21.422   7.950
 6466POPC   C4A28386  30.720  21.348   7.650
 6466POPC   C1B28387  30.799  21.148   8.550
 6466POPC   C2B28388  30.808  21.172   8.250
 6466POPC   C3B28389  30.795  21.118   7.950
 6466POPC   C4B28390  30.751  21.111   7.650
 6467POPC   NC328391  29.906  22.190   9.450
 6467POPC   PO428392  29.955  22.173   9.150
 6467POPC   GL128393  29.920  22.128   8.850
 6467POPC   GL228394  29.934  22.035   8.850
 6467POPC   C1A28395  29.907  22.211   8.550
 6467POPC   D2A28396  29.966  22.153   8.250
 6467POPC   C3A28397  29.961  22.206   7.950
 6467POPC   C4A28398  29.899  22.179   7.650
 6467POPC   C1B28399  29.840  21.963   8.550
 6467POPC   C2B28400  29.873  21.890   8.250
 6467POPC   C3B28401  29.868  21.911   7.950
 6467POPC   C4B28402  29.849  21.930   7.650
 6468POPC   NC328403  43.143   6.652   9.450
 6468POPC   PO428404  43.067   6.676   9.150
 6468POPC   GL128405  43.076   6.689   8.850
 6468POPC   GL228406  43.061   6.773   8.850
 6468POPC   C1A28407  43.147   6.675   8.550
 6468POPC   D2A28408  43.113   6.600   8.250
 6468POPC   C3A28409  43.145   6.648   7.950
 6468POPC   C4A28410  43.105   6.657   7.650
 6468POPC   C1B28411  43.064   6.839   8.550
 6468POPC   C2B28412  42.999   6.887   8.250
 6468POPC   C3B28413  42.981   6.877   7.950
 6468POPC   C4B28414  42.987   6.854   7.650
 6469POPC   NC328415  41.592  37.725   9.450
 6469POPC   PO428416  41.532  37.695   9.150
 6469POPC   GL128417  41.550  37.714   8.850
 6469POPC   GL228418  41.515  37.846   8.850
 6469POPC   C1A28419  41.555  37.676   8.550
 6469POPC   D2A28420  41.608  37.698   8.250
 6469POPC   C3A28421  41.518  37.650   7.950
 6469POPC   C4A28422  41.520  37.728   7.650
 6469POPC   C1B28423  41.561  37.901   8.550
 6469POPC   C2B28424  41.553  37.961   8.250
 6469POPC   C3B28425  41.554  37.972   7.950
 6469POPC   C4B28426  41.533  37.883   7.650
 6470POPC   NC328427   8.169   1.239   9.450
 6470POPC   PO428428   8.231   1.172   9.150
 6470POPC   GL128429   8.196   1.185   8.850
 6470POPC   GL228430   8.367   1.260   8.850
 6470POPC   C1A28431   8.221   1.225   8.550
 6470POPC   D2A28432   8.215   1.258   8.250
 6470POPC   C3A28433   8.171   1.226   7.950
 6470POPC   C4A28434   8.204   1.211   7.650
 6470POPC   C1B28435   8.423   1.225   8.550
 6470POPC   C2B28436   8.446   1.246   8.250
 6470POPC   C3B28437   8.476   1.251   7.950
 6470POPC   C4B28438   8.418   1.223   7.650
 6471POPC   NC328439  23.727  26.819   9.450
 6471POPC   PO428440  23.737  26.839   9.150
 6471POPC   GL128441  23.671  26.857   8.850
 6471POPC   GL228442  23.767  26.699   8.850
 6471POPC   C1A28443  23.712  26.782   8.550
 6471POPC   D2A28444  23.725  26.799   8.250
 6471POPC   C3A28445  23.715  26.814   7.950
 6471POPC   C4A28446  23.716  26.802   7.650
 6471POPC   C1B28447  23.842  26.585   8.550
 6471POPC   C2B28448  23.777  26.623   8.250
 6471POPC   C3B28449  23.851  26.616   7.950
 6471POPC   C4B28450  23.806  26.549   7.650
 6472POPC   NC328451  15.990  23.665   9.450
 6472POPC   PO428452  15.943  23.722   9.150
 6472POPC   GL128453  15.946  23.710   8.850
 6472POPC   GL228454  15.879  23.621   8.850
 6472POPC   C1A28455  15.985  23.679   8.550
 6472POPC   D2A28456  15.954  23.716   8.250
 6472POPC   C3A28457  15.955  23.716   7.950
 6472POPC   C4A28458  15.969  23.759   7.650
 6472POPC   C1B28459  15.756  23.646   8.550
 6472POPC   C2B28460  15.710  23.612   8.250
 6472POPC   C3B28461  15.731  23.575   7.950
 6472POPC   C4B28462  15.699  23.635   7.650
 6473POPC   NC328463  18.305  28.411   9.450
 6473POPC   PO428464  18.283  28.345   9.150
 6473POPC   GL128465  18.289  28.340   8.850
 6473POPC   GL228466  18.232  28.240   8.850
 6473POPC   C1A28467  18.261  28.366   8.550
 6473POPC   D2A28468  18.306  28.400   8.250
 6473POPC   C3A28469  18.264  28.408   7.950
 6473POPC   C4A28470  18.252  28.387   7.650
 6473POPC   C1B28471  18.240  28.125   8.550
 6473POPC   C2B28472  18.260  28.131   8.250
 6473POPC   C3B28473  18.264  28.144   7.950
 6473POPC   C4B28474  18.229  28.157   7.650
 6474POPC   NC328475  13.607  43.935   9.450
 6474POPC   PO428476  13.670  43.854   9.150
 6474POPC   GL128477  13.646  43.866   8.850
 6474POPC   GL228478  13.651  43.797   8.850
 6474POPC   C1A28479  13.588  43.926   8.550
 6474POPC   D2A28480  13.586  43.864   8.250
 6474POPC   C3A28481  13.655  43.884   7.950
 6474POPC   C4A28482  13.636  43.935   7.650
 6474POPC   C1B28483  13.630  43.605   8.550
 6474POPC   C2B28484  13.629  43.614   8.250
 6474POPC   C3B28485  13.581  43.592   7.950
 6474POPC   C4B28486  13.614  43.646   7.650
 6475POPC   NC328487  30.681   5.065   9.450
 6475POPC   PO428488  30.732   5.104   9.150
 6475POPC   GL128489  30.739   5.095   8.850
 6475POPC   GL228490  30.662   5.001   8.850
 6475POPC   C1A28491  30.648   5.142   8.550
 6475POPC   D2A28492  30.715   5.101   8.250
 6475POPC   C3A28493  30.685   5.134   7.950
 6475POPC   C4A28494  30.647   5.136   7.650
 6475POPC   C1B28495  30.568   4.839   8.550
 6475POPC   C2B28496  30.556   4.893   8.250
 6475POPC   C3B28497  30.590   4.862   7.950
 6475POPC   C4B28498  30.566   4.868   7.650
 6476POPC   NC328499  29.154  36.090   9.450
 6476POPC   PO428500  29.125  36.130   9.150
 6476POPC   GL128501  29.157  36.094   8.850
 6476POPC   GL228502  29.135  36.052   8.850
 6476POPC   C1A28503  29.116  36.169   8.550
 6476POPC   D2A28504  29.138  36.135   8.250
 6476POPC   C3A28505  29.112  36.080   7.950
 6476POPC   C4A28506  29.163  36.122   7.650
 6476POPC   C1B28507  29.078  35.852   8.550
 6476POPC   C2B28508  29.156  35.910   8.250
 6476POPC   C3B28509  29.147  35.917   7.950
 6476POPC   C4B28510  29.103  35.916   7.650
 6477POPC   NC328511  42.306  36.865   9.450
 6477POPC   PO428512  42.315  36.940   9.150
 6477POPC   GL128513  42.382  36.914   8.850
 6477POPC   GL228514  42.453  37.016   8.850
 6477POPC   C1A28515  42.319  36.870   8.550
 6477POPC   D2A28516  42.320  36.881   8.250
 6477POPC   C3A28517  42.314  36.929   7.950
 6477POPC   C4A28518  42.285  36.854   7.650
 6477POPC   C1B28519  42.541  37.105   8.550
 6477POPC   C2B28520  42.507  37.058   8.250
 6477POPC   C3B28521  42.529  37.057   7.950
 6477POPC   C4B28522  42.486  37.046   7.650
 6478POPC   NC328523  41.561  41.553   9.450
 6478POPC   PO428524  41.595  41.577   9.150
 6478POPC   GL128525  41.598  41.600   8.850
 6478POPC   GL228526  41.626  41.685   8.850
 6478POPC   C1A28527  41.518  41.533   8.550
 6478POPC   D2A28528  41.534  41.605   8.250
 6478POPC   C3A28529  41.530  41.550   7.950
 6478POPC   C4A28530  41.546  41.525   7.650
 6478POPC   C1B28531  41.650  41.811   8.550
 6478POPC   C2B28532  41.669  41.818   8.250
 6478POPC   C3B28533  41.615  41.794   7.950
 6478POPC   C4B28534  41.619  41.791   7.650
 6479POPC   NC328535  37.671  28.328   9.450
 6479POPC   PO428536  37.632  28.388   9.150
 6479POPC   GL128537  37.719  28.326   8.850
 6479POPC   GL228538  37.733  28.235   8.850
 6479POPC   C1A28539  37.665  28.376   8.550
 6479POPC   D2A28540  37.635  28.391   8.250
 6479POPC   C3A28541  37.713  28.364   7.950
 6479POPC   C4A28542  37.693  28.336   7.650
 6479POPC   C1B28543  37.793  28.140   8.550
 6479POPC   C2B28544  37.714  28.120   8.250
 6479POPC   C3B28545  37.760  28.084   7.950
 6479POPC   C4B28546  37.725  28.161   7.650
 6480POPC   NC328547  29.912  41.539   9.450
 6480POPC   PO428548  29.910  41.601   9.150
 6480POPC   GL128549  29.969  41.543   8.850
 6480POPC   GL228550  29.973  41.694   8.850
 6480POPC   C1A28551  29.944  41.511   8.550
 6480POPC   D2A28552  29.911  41.509   8.250
 6480POPC   C3A28553  29.915  41.606   7.950
 6480POPC   C4A28554  29.939  41.597   7.650
 6480POPC   C1B28555  29.981  41.792   8.550
 6480POPC   C2B28556  29.987  41.766   8.250
 6480POPC   C3B28557  30.006  41.760   7.950
 6480POPC   C4B28558  30.025  41.841   7.650
 6481POPC   NC328559  36.172   1.947   9.450
 6481POPC   PO428560  36.174   2.007   9.150
 6481POPC   GL128561  36.151   1.952   8.850
 6481POPC   GL228562  36.009   2.098   8.850
 6481POPC   C1A28563  36.091   2.005   8.550
 6481POPC   D2A28564  36.147   1.952   8.250
 6481POPC   C3A28565  36.135   1.993   7.950
 6481POPC   C4A28566  36.173   2.015   7.650
 6481POPC   C1B28567  35.874   2.148   8.550
 6481POPC   C2B28568  35.972   2.167   8.250
 6481POPC   C3B28569  35.886   2.132   7.950
 6481POPC   C4B28570  35.948   2.126   7.650
 6482POPC   NC328571  20.654  29.905   9.450
 6482POPC   PO428572  20.590  29.962   9.150
 6482POPC   GL128573  20.581  29.941   8.850
 6482POPC   GL228574  20.551  29.816   8.850
 6482POPC   C1A28575  20.599  29.943   8.550
 6482POPC   D2A28576  20.657  29.970   8.250
 6482POPC   C3A28577  20.603  29.897   7.950
 6482POPC   C4A28578  20.651  29.905   7.650
 6482POPC   C1B28579  20.537  29.694   8.550
 6482POPC   C2B28580  20.557  29.717   8.250
 6482POPC   C3B28581  20.594  29.687   7.950
 6482POPC   C4B28582  20.534  29.682   7.650
 6483POPC   NC328583   5.132  14.433   9.450
 6483POPC   PO428584   5.048  14.419   9.150
 6483POPC   GL128585   5.103  14.398   8.850
 6483POPC   GL228586   4.981  14.522   8.850
 6483POPC   C1A28587   5.133  14.384   8.550
 6483POPC   D2A28588   5.091  14.362   8.250
 6483POPC   C3A28589   5.075  14.354   7.950
 6483POPC   C4A28590   5.059  14.450   7.650
 6483POPC   C1B28591   4.921  14.584   8.550
 6483POPC   C2B28592   4.886  14.589   8.250
 6483POPC   C3B28593   4.885  14.582   7.950
 6483POPC   C4B28594   4.943  14.537   7.650
 6484POPC   NC328595  30.682  42.362   9.450
 6484POPC   PO428596  30.693  42.308   9.150
 6484POPC   GL128597  30.704  42.347   8.850
 6484POPC   GL228598  30.668  42.452   8.850
 6484POPC   C1A28599  30.712  42.285   8.550
 6484POPC   D2A28600  30.687  42.311   8.250
 6484POPC   C3A28601  30.673  42.369   7.950
 6484POPC   C4A28602  30.667  42.361   7.650
 6484POPC   C1B28603  30.707  42.576   8.550
 6484POPC   C2B28604  30.663  42.541   8.250
 6484POPC   C3B28605  30.722  42.543   7.950
 6484POPC   C4B28606  30.740  42.632   7.650
 6485POPC   NC328607  30.723  35.384   9.450
 6485POPC   PO428608  30.746  35.345   9.150
 6485POPC   GL128609  30.716  35.378   8.850
 6485POPC   GL228610  30.644  35.476   8.850
 6485POPC   C1A28611  30.650  35.386   8.550
 6485POPC   D2A28612  30.679  35.390   8.250
 6485POPC   C3A28613  30.709  35.305   7.950
 6485POPC   C4A28614  30.659  35.312   7.650
 6485POPC   C1B28615  30.636  35.597   8.550
 6485POPC   C2B28616  30.628  35.605   8.250
 6485POPC   C3B28617  30.581  35.629   7.950
 6485POPC   C4B28618  30.585  35.627   7.650
 6486POPC   NC328619  22.889  32.261   9.450
 6486POPC   PO428620  22.926  32.264   9.150
 6486POPC   GL128621  22.946  32.293   8.850
 6486POPC   GL228622  23.018  32.302   8.850
 6486POPC   C1A28623  22.933  32.251   8.550
 6486POPC   D2A28624  22.971  32.290   8.250
 6486POPC   C3A28625  22.911  32.202   7.950
 6486POPC   C4A28626  22.987  32.294   7.650
 6486POPC   C1B28627  23.054  32.424   8.550
 6486POPC   C2B28628  23.054  32.419   8.250
 6486POPC   C3B28629  23.068  32.439   7.950
 6486POPC   C4B28630  23.075  32.474   7.650
 6487POPC   NC328631  29.154  40.024   9.450
 6487POPC   PO428632  29.157  39.959   9.150
 6487POPC   GL128633  29.097  40.037   8.850
 6487POPC   GL228634  29.029  40.062   8.850
 6487POPC   C1A28635  29.096  40.033   8.550
 6487POPC   D2A28636  29.137  40.016   8.250
 6487POPC   C3A28637  29.108  40.035   7.950
 6487POPC   C4A28638  29.151  40.028   7.650
 6487POPC   C1B28639  28.907  40.031   8.550
 6487POPC   C2B28640  28.901  40.076   8.250
 6487POPC   C3B28641  28.856  40.077   7.950
 6487POPC   C4B28642  28.910  40.008   7.650
 6488POPC   NC328643  24.442  36.860   9.450
 6488POPC   PO428644  24.501  36.946   9.150
 6488POPC   GL128645  24.442  36.869   8.850
 6488POPC   GL228646  24.326  36.900   8.850
 6488POPC   C1A28647  24.457  36.882   8.550
 6488POPC   D2A28648  24.499  36.889   8.250
 6488POPC   C3A28649  24.485  36.879   7.950
 6488POPC   C4A28650  24.506  36.944   7.650
 6488POPC   C1B28651  24.274  37.020   8.550
 6488POPC   C2B28652  24.253  36.997   8.250
 6488POPC   C3B28653  24.226  36.975   7.950
 6488POPC   C4B28654  24.283  36.984   7.650
 6489POPC   NC328655  15.978  41.594   9.450
 6489POPC   PO428656  15.924  41.544   9.150
 6489POPC   GL128657  15.930  41.568   8.850
 6489POPC   GL228658  16.026  41.456   8.850
 6489POPC   C1A28659  15.952  41.595   8.550
 6489POPC   D2A28660  15.919  41.575   8.250
 6489POPC   C3A28661  15.990  41.510   7.950
 6489POPC   C4A28662  15.968  41.583   7.650
 6489POPC   C1B28663  16.081  41.349   8.550
 6489POPC   C2B28664  16.063  41.351   8.250
 6489POPC   C3B28665  16.049  41.397   7.950
 6489POPC   C4B28666  16.114  41.307   7.650
 6490POPC   NC328667  23.746   0.413   9.450
 6490POPC   PO428668  23.745   0.464   9.150
 6490POPC   GL128669  23.671   0.478   8.850
 6490POPC   GL228670  23.818   0.342   8.850
 6490POPC   C1A28671  23.755   0.465   8.550
 6490POPC   D2A28672  23.725   0.419   8.250
 6490POPC   C3A28673  23.670   0.424   7.950
 6490POPC   C4A28674  23.754   0.467   7.650
 6490POPC   C1B28675  23.957   0.362   8.550
 6490POPC   C2B28676  23.906   0.318   8.250
 6490POPC   C3B28677  23.977   0.344   7.950
 6490POPC   C4B28678  23.939   0.279   7.650
 6491POPC   NC328679  29.878  10.563   9.450
 6491POPC   PO428680  29.882  10.488   9.150
 6491POPC   GL128681  29.955  10.551   8.850
 6491POPC   GL228682  30.000  10.563   8.850
 6491POPC   C1A28683  29.877  10.520   8.550
 6491POPC   D2A28684  29.950  10.477   8.250
 6491POPC   C3A28685  29.871  10.559   7.950
 6491POPC   C4A28686  29.929  10.496   7.650
 6491POPC   C1B28687  30.158  10.641   8.550
 6491POPC   C2B28688  30.175  10.663   8.250
 6491POPC   C3B28689  30.139  10.589   7.950
 6491POPC   C4B28690  30.145  10.661   7.650
 6492POPC   NC328691  29.895  34.596   9.450
 6492POPC   PO428692  29.941  34.556   9.150
 6492POPC   GL128693  29.899  34.526   8.850
 6492POPC   GL228694  30.027  34.620   8.850
 6492POPC   C1A28695  29.934  34.571   8.550
 6492POPC   D2A28696  29.894  34.593   8.250
 6492POPC   C3A28697  29.901  34.613   7.950
 6492POPC   C4A28698  29.956  34.564   7.650
 6492POPC   C1B28699  30.105  34.732   8.550
 6492POPC   C2B28700  30.065  34.710   8.250
 6492POPC   C3B28701  30.065  34.718   7.950
 6492POPC   C4B28702  30.094  34.739   7.650
 6493POPC   NC328703  36.945  11.263   9.450
 6493POPC   PO428704  36.917  11.311   9.150
 6493POPC   GL128705  36.921  11.335   8.850
 6493POPC   GL228706  37.034  11.204   8.850
 6493POPC   C1A28707  36.934  11.321   8.550
 6493POPC   D2A28708  36.884  11.324   8.250
 6493POPC   C3A28709  36.887  11.324   7.950
 6493POPC   C4A28710  36.921  11.297   7.650
 6493POPC   C1B28711  37.137  11.214   8.550
 6493POPC   C2B28712  37.152  11.231   8.250
 6493POPC   C3B28713  37.144  11.194   7.950
 6493POPC   C4B28714  37.167  11.157   7.650
 6494POPC   NC328715  34.587   1.996   9.450
 6494POPC   PO428716  34.588   2.032   9.150
 6494POPC   GL128717  34.574   1.966   8.850
 6494POPC   GL228718  34.444   1.941   8.850
 6494POPC   C1A28719  34.574   2.031   8.550
 6494POPC   D2A28720  34.551   1.998   8.250
 6494POPC   C3A28721  34.621   2.011   7.950
 6494POPC   C4A28722  34.543   1.970   7.650
 6494POPC   C1B28723  34.344   1.921   8.550
 6494POPC   C2B28724  34.334   1.839   8.250
 6494POPC   C3B28725  34.391   1.827   7.950
 6494POPC   C4B28726  34.311   1.906   7.650
 6495POPC   NC328727  17.468  43.145   9.450
 6495POPC   PO428728  17.515  43.083   9.150
 6495POPC   GL128729  17.533  43.133   8.850
 6495POPC   GL228730  17.596  43.113   8.850
 6495POPC   C1A28731  17.521  43.098   8.550
 6495POPC   D2A28732  17.460  43.128   8.250
 6495POPC   C3A28733  17.514  43.113   7.950
 6495POPC   C4A28734  17.547  43.127   7.650
 6495POPC   C1B28735  17.706  43.107   8.550
 6495POPC   C2B28736  17.770  43.070   8.250
 6495POPC   C3B28737  17.757  43.076   7.950
 6495POPC   C4B28738  17.797  43.121   7.650
 6496POPC   NC328739   2.021   7.379   9.450
 6496POPC   PO428740   1.945   7.468   9.150
 6496POPC   GL128741   1.964   7.428   8.850
 6496POPC   GL228742   2.015   7.501   8.850
 6496POPC   C1A28743   1.986   7.464   8.550
 6496POPC   D2A28744   2.021   7.447   8.250
 6496POPC   C3A28745   1.950   7.437   7.950
 6496POPC   C4A28746   2.006   7.389   7.650
 6496POPC   C1B28747   2.093   7.649   8.550
 6496POPC   C2B28748   2.059   7.688   8.250
 6496POPC   C3B28749   2.064   7.618   7.950
 6496POPC   C4B28750   2.115   7.636   7.650
 6497POPC   NC328751   1.205  15.208   9.450
 6497POPC   PO428752   1.237  15.206   9.150
 6497POPC   GL128753   1.208  15.169   8.850
 6497POPC   GL228754   1.101  15.095   8.850
 6497POPC   C1A28755   1.237  15.193   8.550
 6497POPC   D2A28756   1.167  15.183   8.250
 6497POPC   C3A28757   1.222  15.201   7.950
 6497POPC   C4A28758   1.178  15.224   7.650
 6497POPC   C1B28759   1.084  15.015   8.550
 6497POPC   C2B28760   1.022  14.966   8.250
 6497POPC   C3B28761   1.073  14.966   7.950
 6497POPC   C4B28762   1.009  15.039   7.650
 6498POPC   NC328763  15.940   2.803   9.450
 6498POPC   PO428764  15.976   2.749   9.150
 6498POPC   GL128765  15.990   2.815   8.850
 6498POPC   GL228766  15.792   2.760   8.850
 6498POPC   C1A28767  15.932   2.742   8.550
 6498POPC   D2A28768  15.996   2.781   8.250
 6498POPC   C3A28769  15.942   2.766   7.950
 6498POPC   C4A28770  15.929   2.805   7.650
 6498POPC   C1B28771  15.741   2.740   8.550
 6498POPC   C2B28772  15.718   2.807   8.250
 6498POPC   C3B28773  15.673   2.734   7.950
 6498POPC   C4B28774  15.726   2.765   7.650
 6499POPC   NC328775  42.286  34.621   9.450
 6499POPC   PO428776  42.297  34.604   9.150
 6499POPC   GL128777  42.383  34.620   8.850
 6499POPC   GL228778  42.261  34.439   8.850
 6499POPC   C1A28779  42.375  34.591   8.550
 6499POPC   D2A28780  42.316  34.584   8.250
 6499POPC   C3A28781  42.341  34.547   7.950
 6499POPC   C4A28782  42.370  34.533   7.650
 6499POPC   C1B28783  42.269  34.385   8.550
 6499POPC   C2B28784  42.203  34.394   8.250
 6499POPC   C3B28785  42.187  34.378   7.950
 6499POPC   C4B28786  42.248  34.331   7.650
 6500POPC   NC328787  22.172  19.785   9.450
 6500POPC   PO428788  22.202  19.817   9.150
 6500POPC   GL128789  22.126  19.791   8.850
 6500POPC   GL228790  22.269  19.777   8.850
 6500POPC   C1A28791  22.148  19.851   8.550
 6500POPC   D2A28792  22.170  19.858   8.250
 6500POPC   C3A28793  22.147  19.846   7.950
 6500POPC   C4A28794  22.206  19.807   7.650
 6500POPC   C1B28795  22.405  19.798   8.550
 6500POPC   C2B28796  22.446  19.866   8.250
 6500POPC   C3B28797  22.421  19.848   7.950
 6500POPC   C4B28798  22.370  19.795   7.650
 6501POPC   NC328799  39.973   6.669   9.450
 6501POPC   PO428800  39.972   6.686   9.150
 6501POPC   GL128801  40.016   6.628   8.850
 6501POPC   GL228802  40.113   6.533   8.850
 6501POPC   C1A28803  39.972   6.670   8.550
 6501POPC   D2A28804  40.002   6.639   8.250
 6501POPC   C3A28805  40.037   6.611   7.950
 6501POPC   C4A28806  39.972   6.599   7.650
 6501POPC   C1B28807  40.211   6.433   8.550
 6501POPC   C2B28808  40.139   6.480   8.250
 6501POPC   C3B28809  40.205   6.512   7.950
 6501POPC   C4B28810  40.175   6.515   7.650
 6502POPC   NC328811  38.410   9.764   9.450
 6502POPC   PO428812  38.499   9.729   9.150
 6502POPC   GL128813  38.491   9.781   8.850
 6502POPC   GL228814  38.472   9.654   8.850
 6502POPC   C1A28815  38.457   9.784   8.550
 6502POPC   D2A28816  38.445   9.718   8.250
 6502POPC   C3A28817  38.446   9.708   7.950
 6502POPC   C4A28818  38.455   9.768   7.650
 6502POPC   C1B28819  38.447   9.503   8.550
 6502POPC   C2B28820  38.405   9.530   8.250
 6502POPC   C3B28821  38.438   9.462   7.950
 6502POPC   C4B28822  38.430   9.543   7.650
 6503POPC   NC328823  30.683   8.928   9.450
 6503POPC   PO428824  30.683   8.935   9.150
 6503POPC   GL128825  30.685   8.947   8.850
 6503POPC   GL228826  30.580   9.061   8.850
 6503POPC   C1A28827  30.651   8.932   8.550
 6503POPC   D2A28828  30.686   8.982   8.250
 6503POPC   C3A28829  30.725   9.007   7.950
 6503POPC   C4A28830  30.717   8.957   7.650
 6503POPC   C1B28831  30.467   9.101   8.550
 6503POPC   C2B28832  30.531   9.144   8.250
 6503POPC   C3B28833  30.487   9.108   7.950
 6503POPC   C4B28834  30.464   9.127   7.650
 6504POPC   NC328835  43.068  25.258   9.450
 6504POPC   PO428836  43.142  25.229   9.150
 6504POPC   GL128837  43.068  25.291   8.850
 6504POPC   GL228838  43.082  25.107   8.850
 6504POPC   C1A28839  43.126  25.217   8.550
 6504POPC   D2A28840  43.140  25.272   8.250
 6504POPC   C3A28841  43.081  25.218   7.950
 6504POPC   C4A28842  43.111  25.293   7.650
 6504POPC   C1B28843  43.058  24.983   8.550
 6504POPC   C2B28844  43.067  24.994   8.250
 6504POPC   C3B28845  42.972  25.043   7.950
 6504POPC   C4B28846  42.991  25.025   7.650
 6505POPC   NC328847  36.911  41.541   9.450
 6505POPC   PO428848  36.875  41.526   9.150
 6505POPC   GL128849  36.928  41.591   8.850
 6505POPC   GL228850  36.796  41.437   8.850
 6505POPC   C1A28851  36.926  41.522   8.550
 6505POPC   D2A28852  36.855  41.608   8.250
 6505POPC   C3A28853  36.924  41.570   7.950
 6505POPC   C4A28854  36.889  41.549   7.650
 6505POPC   C1B28855  36.766  41.354   8.550
 6505POPC   C2B28856  36.706  41.373   8.250
 6505POPC   C3B28857  36.722  41.326   7.950
 6505POPC   C4B28858  36.701  41.333   7.650
 6506POPC   NC328859  42.377  13.624   9.450
 6506POPC   PO428860  42.294  13.654   9.150
 6506POPC   GL128861  42.365  13.628   8.850
 6506POPC   GL228862  42.387  13.791   8.850
 6506POPC   C1A28863  42.315  13.595   8.550
 6506POPC   D2A28864  42.345  13.632   8.250
 6506POPC   C3A28865  42.368  13.640   7.950
 6506POPC   C4A28866  42.376  13.643   7.650
 6506POPC   C1B28867  42.386  13.903   8.550
 6506POPC   C2B28868  42.438  13.845   8.250
 6506POPC   C3B28869  42.415  13.848   7.950
 6506POPC   C4B28870  42.436  13.882   7.650
 6507POPC   NC328871  13.607  19.082   9.450
 6507POPC   PO428872  13.608  19.107   9.150
 6507POPC   GL128873  13.649  19.076   8.850
 6507POPC   GL228874  13.590  18.912   8.850
 6507POPC   C1A28875  13.605  19.058   8.550
 6507POPC   D2A28876  13.598  19.060   8.250
 6507POPC   C3A28877  13.671  19.036   7.950
 6507POPC   C4A28878  13.665  19.032   7.650
 6507POPC   C1B28879  13.575  18.819   8.550
 6507POPC   C2B28880  13.575  18.855   8.250
 6507POPC   C3B28881  13.604  18.820   7.950
 6507POPC   C4B28882  13.550  18.794   7.650
 6508POPC   NC328883  33.064  22.136   9.450
 6508POPC   PO428884  33.064  22.190   9.150
 6508POPC   GL128885  33.057  22.198   8.850
 6508POPC   GL228886  32.867  22.189   8.850
 6508POPC   C1A28887  33.060  22.204   8.550
 6508POPC   D2A28888  33.049  22.206   8.250
 6508POPC   C3A28889  32.998  22.132   7.950
 6508POPC   C4A28890  33.067  22.165   7.650
 6508POPC   C1B28891  32.803  22.183   8.550
 6508POPC   C2B28892  32.745  22.120   8.250
 6508POPC   C3B28893  32.772  22.149   7.950
 6508POPC   C4B28894  32.801  22.211   7.650
 6509POPC   NC328895  35.363  35.332   9.450
 6509POPC   PO428896  35.302  35.400   9.150
 6509POPC   GL128897  35.307  35.387   8.850
 6509POPC   GL228898  35.415  35.398   8.850
 6509POPC   C1A28899  35.378  35.381   8.550
 6509POPC   D2A28900  35.374  35.322   8.250
 6509POPC   C3A28901  35.331  35.378   7.950
 6509POPC   C4A28902  35.380  35.397   7.650
 6509POPC   C1B28903  35.547  35.486   8.550
 6509POPC   C2B28904  35.609  35.442   8.250
 6509POPC   C3B28905  35.533  35.470   7.950
 6509POPC   C4B28906  35.584  35.426   7.650
 6510POPC   NC328907  36.131  37.689   9.450
 6510POPC   PO428908  36.156  37.675   9.150
 6510POPC   GL128909  36.088  37.677   8.850
 6510POPC   GL228910  36.212  37.844   8.850
 6510POPC   C1A28911  36.139  37.717   8.550
 6510POPC   D2A28912  36.139  37.675   8.250
 6510POPC   C3A28913  36.143  37.688   7.950
 6510POPC   C4A28914  36.145  37.689   7.650
 6510POPC   C1B28915  36.182  37.868   8.550
 6510POPC   C2B28916  36.219  37.905   8.250
 6510POPC   C3B28917  36.243  37.886   7.950
 6510POPC   C4B28918  36.250  37.925   7.650
 6511POPC   NC328919  17.462  12.062   9.450
 6511POPC   PO428920  17.466  12.084   9.150
 6511POPC   GL128921  17.527  12.092   8.850
 6511POPC   GL228922  17.483  12.196   8.850
 6511POPC   C1A28923  17.549  12.074   8.550
 6511POPC   D2A28924  17.519  12.041   8.250
 6511POPC   C3A28925  17.499  12.099   7.950
 6511POPC   C4A28926  17.537  12.086   7.650
 6511POPC   C1B28927  17.428  12.303   8.550
 6511POPC   C2B28928  17.483  12.282   8.250
 6511POPC   C3B28929  17.501  12.362   7.950
 6511POPC   C4B28930  17.510  12.297   7.650
 6512POPC   NC328931  15.975  19.863   9.450
 6512POPC   PO428932  15.931  19.850   9.150
 6512POPC   GL128933  15.982  19.880   8.850
 6512POPC   GL228934  15.845  19.687   8.850
 6512POPC   C1A28935  15.930  19.832   8.550
 6512POPC   D2A28936  15.977  19.861   8.250
 6512POPC   C3A28937  15.971  19.874   7.950
 6512POPC   C4A28938  16.002  19.869   7.650
 6512POPC   C1B28939  15.804  19.639   8.550
 6512POPC   C2B28940  15.760  19.659   8.250
 6512POPC   C3B28941  15.793  19.662   7.950
 6512POPC   C4B28942  15.766  19.667   7.650
 6513POPC   NC328943  19.105  40.797   9.450
 6513POPC   PO428944  19.052  40.792   9.150
 6513POPC   GL128945  19.093  40.794   8.850
 6513POPC   GL228946  19.098  40.883   8.850
 6513POPC   C1A28947  19.038  40.753   8.550
 6513POPC   D2A28948  19.058  40.824   8.250
 6513POPC   C3A28949  19.094  40.806   7.950
 6513POPC   C4A28950  19.038  40.821   7.650
 6513POPC   C1B28951  19.154  40.998   8.550
 6513POPC   C2B28952  19.068  40.980   8.250
 6513POPC   C3B28953  19.112  41.054   7.950
 6513POPC   C4B28954  19.152  41.033   7.650
 6514POPC   NC328955   1.220  43.092   9.450
 6514POPC   PO428956   1.208  43.068   9.150
 6514POPC   GL128957   1.245  43.134   8.850
 6514POPC   GL228958   1.051  43.088   8.850
 6514POPC   C1A28959   1.192  43.125   8.550
 6514POPC   D2A28960   1.176  43.132   8.250
 6514POPC   C3A28961   1.199  43.067   7.950
 6514POPC   C4A28962   1.198  43.103   7.650
 6514POPC   C1B28963   0.967  43.139   8.550
 6514POPC   C2B28964   0.947  43.067   8.250
 6514POPC   C3B28965   0.979  43.144   7.950
 6514POPC   C4B28966   0.969  43.049   7.650
 6515POPC   NC328967   7.464  22.932   9.450
 6515POPC   PO428968   7.466  22.904   9.150
 6515POPC   GL128969   7.451  22.970   8.850
 6515POPC   GL228970   7.394  23.002   8.850
 6515POPC   C1A28971   7.418  22.976   8.550
 6515POPC   D2A28972   7.460  22.913   8.250
 6515POPC   C3A28973   7.411  22.939   7.950
 6515POPC   C4A28974   7.417  22.936   7.650
 6515POPC   C1B28975   7.260  23.146   8.550
 6515POPC   C2B28976   7.314  23.156   8.250
 6515POPC   C3B28977   7.308  23.122   7.950
 6515POPC   C4B28978   7.270  23.185   7.650
 6516POPC   NC328979  21.393  31.457   9.450
 6516POPC   PO428980  21.346  31.467   9.150
 6516POPC   GL128981  21.389  31.448   8.850
 6516POPC   GL228982  21.325  31.369   8.850
 6516POPC   C1A28983  21.434  31.429   8.550
 6516POPC   D2A28984  21.410  31.502   8.250
 6516POPC   C3A28985  21.415  31.491   7.950
 6516POPC   C4A28986  21.414  31.465   7.650
 6516POPC   C1B28987  21.289  31.262   8.550
 6516POPC   C2B28988  21.300  31.186   8.250
 6516POPC   C3B28989  21.294  31.238   7.950
 6516POPC   C4B28990  21.318  31.193   7.650
 6517POPC   NC328991  22.156  29.919   9.450
 6517POPC   PO428992  22.129  29.944   9.150
 6517POPC   GL128993  22.202  29.900   8.850
 6517POPC   GL228994  22.277  29.908   8.850
 6517POPC   C1A28995  22.153  29.907   8.550
 6517POPC   D2A28996  22.167  29.910   8.250
 6517POPC   C3A28997  22.120  29.903   7.950
 6517POPC   C4A28998  22.173  29.881   7.650
 6517POPC   C1B28999  22.438  29.858   8.550
 6517POPC   C2B29000  22.376  29.841   8.250
 6517POPC   C3B29001  22.408  29.919   7.950
 6517POPC   C4B29002  22.380  29.923   7.650
 6518POPC   NC329003   1.942  44.704   9.450
 6518POPC   PO429004   1.992  44.620   9.150
 6518POPC   GL129005   1.992  44.678   8.850
 6518POPC   GL229006   1.986  44.525   8.850
 6518POPC   C1A29007   1.962  44.643   8.550
 6518POPC   D2A29008   1.977  44.646   8.250
 6518POPC   C3A29009   1.984  44.616   7.950
 6518POPC   C4A29010   1.999  44.630   7.650
 6518POPC   C1B29011   2.002  44.378   8.550
 6518POPC   C2B29012   1.955  44.413   8.250
 6518POPC   C3B29013   2.024  44.456   7.950
 6518POPC   C4B29014   1.994  44.362   7.650
 6519POPC   NC329015  44.672  22.132   9.450
 6519POPC   PO429016  44.674  22.157   9.150
 6519POPC   GL129017  44.673  22.151   8.850
 6519POPC   GL229018  44.702  22.061   8.850
 6519POPC   C1A29019  44.638  22.142   8.550
 6519POPC   D2A29020  44.624  22.155   8.250
 6519POPC   C3A29021  44.687  22.134   7.950
 6519POPC   C4A29022  44.657  22.125   7.650
 6519POPC   C1B29023  44.786  21.929   8.550
 6519POPC   C2B29024  44.717  21.902   8.250
 6519POPC   C3B29025  44.808  21.963   7.950
 6519POPC   C4B29026  44.735  21.948   7.650
 6520POPC   NC329027  28.399   8.154   9.450
 6520POPC   PO429028  28.369   8.161   9.150
 6520POPC   GL129029  28.342   8.163   8.850
 6520POPC   GL229030  28.318   8.322   8.850
 6520POPC   C1A29031  28.360   8.147   8.550
 6520POPC   D2A29032  28.392   8.221   8.250
 6520POPC   C3A29033  28.344   8.147   7.950
 6520POPC   C4A29034  28.399   8.244   7.650
 6520POPC   C1B29035  28.177   8.411   8.550
 6520POPC   C2B29036  28.241   8.374   8.250
 6520POPC   C3B29037  28.164   8.387   7.950
 6520POPC   C4B29038  28.197   8.348   7.650
 6521POPC   NC329039  35.399  32.976   9.450
 6521POPC   PO429040  35.342  32.976   9.150
 6521POPC   GL129041  35.389  33.051   8.850
 6521POPC   GL229042  35.443  33.027   8.850
 6521POPC   C1A29043  35.341  33.003   8.550
 6521POPC   D2A29044  35.343  33.034   8.250
 6521POPC   C3A29045  35.344  33.004   7.950
 6521POPC   C4A29046  35.331  32.987   7.650
 6521POPC   C1B29047  35.542  32.974   8.550
 6521POPC   C2B29048  35.573  32.911   8.250
 6521POPC   C3B29049  35.597  32.930   7.950
 6521POPC   C4B29050  35.545  32.949   7.650
 6522POPC   NC329051  13.651  20.585   9.450
 6522POPC   PO429052  13.659  20.657   9.150
 6522POPC   GL129053  13.595  20.586   8.850
 6522POPC   GL229054  13.635  20.779   8.850
 6522POPC   C1A29055  13.618  20.571   8.550
 6522POPC   D2A29056  13.619  20.621   8.250
 6522POPC   C3A29057  13.634  20.621   7.950
 6522POPC   C4A29058  13.617  20.582   7.650
 6522POPC   C1B29059  13.610  20.861   8.550
 6522POPC   C2B29060  13.632  20.900   8.250
 6522POPC   C3B29061  13.636  20.894   7.950
 6522POPC   C4B29062  13.618  20.889   7.650
 6523POPC   NC329063  23.716  29.109   9.450
 6523POPC   PO429064  23.748  29.121   9.150
 6523POPC   GL129065  23.708  29.165   8.850
 6523POPC   GL229066  23.792  29.066   8.850
 6523POPC   C1A29067  23.691  29.107   8.550
 6523POPC   D2A29068  23.685  29.150   8.250
 6523POPC   C3A29069  23.670  29.114   7.950
 6523POPC   C4A29070  23.746  29.166   7.650
 6523POPC   C1B29071  23.798  28.973   8.550
 6523POPC   C2B29072  23.864  28.975   8.250
 6523POPC   C3B29073  23.857  28.937   7.950
 6523POPC   C4B29074  23.816  28.947   7.650
 6524POPC   NC329075  36.921  42.285   9.450
 6524POPC   PO429076  36.883  42.369   9.150
 6524POPC   GL129077  36.865  42.301   8.850
 6524POPC   GL229078  36.807  42.397   8.850
 6524POPC   C1A29079  36.900  42.336   8.550
 6524POPC   D2A29080  36.896  42.298   8.250
 6524POPC   C3A29081  36.911  42.319   7.950
 6524POPC   C4A29082  36.944  42.335   7.650
 6524POPC   C1B29083  36.705  42.453   8.550
 6524POPC   C2B29084  36.730  42.425   8.250
 6524POPC   C3B29085  36.667  42.416   7.950
 6524POPC   C4B29086  36.661  42.463   7.650
 6525POPC   NC329087   9.780   4.307   9.450
 6525POPC   PO429088   9.734   4.339   9.150
 6525POPC   GL129089   9.727   4.276   8.850
 6525POPC   GL229090   9.764   4.435   8.850
 6525POPC   C1A29091   9.710   4.338   8.550
 6525POPC   D2A29092   9.772   4.273   8.250
 6525POPC   C3A29093   9.718   4.299   7.950
 6525POPC   C4A29094   9.776   4.352   7.650
 6525POPC   C1B29095   9.862   4.485   8.550
 6525POPC   C2B29096   9.878   4.552   8.250
 6525POPC   C3B29097   9.865   4.532   7.950
 6525POPC   C4B29098   9.823   4.522   7.650
 6526POPC   NC329099  36.948   9.707   9.450
 6526POPC   PO429100  36.944   9.780   9.150
 6526POPC   GL129101  36.908   9.763   8.850
 6526POPC   GL229102  36.841   9.714   8.850
 6526POPC   C1A29103  36.899   9.779   8.550
 6526POPC   D2A29104  36.877   9.730   8.250
 6526POPC   C3A29105  36.923   9.699   7.950
 6526POPC   C4A29106  36.926   9.780   7.650
 6526POPC   C1B29107  36.699   9.608   8.550
 6526POPC   C2B29108  36.711   9.613   8.250
 6526POPC   C3B29109  36.748   9.634   7.950
 6526POPC   C4B29110  36.703   9.611   7.650
 6527POPC   NC329111   5.132  16.706   9.450
 6527POPC   PO429112   5.090  16.699   9.150
 6527POPC   GL129113   5.065  16.745   8.850
 6527POPC   GL229114   5.061  16.624   8.850
 6527POPC   C1A29115   5.142  16.704   8.550
 6527POPC   D2A29116   5.137  16.705   8.250
 6527POPC   C3A29117   5.070  16.682   7.950
 6527POPC   C4A29118   5.115  16.703   7.650
 6527POPC   C1B29119   4.953  16.549   8.550
 6527POPC   C2B29120   4.965  16.495   8.250
 6527POPC   C3B29121   4.957  16.508   7.950
 6527POPC   C4B29122   4.978  16.556   7.650
 6528POPC   NC329123  29.947  43.152   9.450
 6528POPC   PO429124  29.879  43.117   9.150
 6528POPC   GL129125  29.904  43.062   8.850
 6528POPC   GL229126  29.842  43.164   8.850
 6528POPC   C1A29127  29.905  43.159   8.550
 6528POPC   D2A29128  29.967  43.066   8.250
 6528POPC   C3A29129  29.938  43.084   7.950
 6528POPC   C4A29130  29.918  43.152   7.650
 6528POPC   C1B29131  29.800  43.345   8.550
 6528POPC   C2B29132  29.812  43.333   8.250
 6528POPC   C3B29133  29.792  43.340   7.950
 6528POPC   C4B29134  29.768  43.345   7.650
 6529POPC   NC329135   3.581  12.094   9.450
 6529POPC   PO429136   3.563  12.030   9.150
 6529POPC   GL129137   3.582  12.089   8.850
 6529POPC   GL229138   3.449  12.203   8.850
 6529POPC   C1A29139   3.527  12.031   8.550
 6529POPC   D2A29140   3.548  12.044   8.250
 6529POPC   C3A29141   3.500  12.077   7.950
 6529POPC   C4A29142   3.559  12.107   7.650
 6529POPC   C1B29143   3.434  12.263   8.550
 6529POPC   C2B29144   3.365  12.274   8.250
 6529POPC   C3B29145   3.383  12.270   7.950
 6529POPC   C4B29146   3.413  12.244   7.650
 6530POPC   NC329147  20.636  24.497   9.450
 6530POPC   PO429148  20.650  24.519   9.150
 6530POPC   GL129149  20.571  24.463   8.850
 6530POPC   GL229150  20.507  24.511   8.850
 6530POPC   C1A29151  20.577  24.457   8.550
 6530POPC   D2A29152  20.600  24.534   8.250
 6530POPC   C3A29153  20.649  24.484   7.950
 6530POPC   C4A29154  20.639  24.459   7.650
 6530POPC   C1B29155  20.403  24.553   8.550
 6530POPC   C2B29156  20.343  24.562   8.250
 6530POPC   C3B29157  20.351  24.573   7.950
 6530POPC   C4B29158  20.333  24.530   7.650
 6531POPC   NC329159  33.842  39.975   9.450
 6531POPC   PO429160  33.824  40.049   9.150
 6531POPC   GL129161  33.832  40.004   8.850
 6531POPC   GL229162  33.713  40.076   8.850
 6531POPC   C1A29163  33.838  40.025   8.550
 6531POPC   D2A29164  33.825  40.027   8.250
 6531POPC   C3A29165  33.834  40.027   7.950
 6531POPC   C4A29166  33.836  40.025   7.650
 6531POPC   C1B29167  33.595  40.059   8.550
 6531POPC   C2B29168  33.567  40.021   8.250
 6531POPC   C3B29169  33.581  40.066   7.950
 6531POPC   C4B29170  33.526  40.091   7.650
 6532POPC   NC329171  33.042   5.050   9.450
 6532POPC   PO429172  33.066   5.057   9.150
 6532POPC   GL129173  33.027   5.081   8.850
 6532POPC   GL229174  33.051   5.209   8.850
 6532POPC   C1A29175  33.038   5.082   8.550
 6532POPC   D2A29176  32.980   5.109   8.250
 6532POPC   C3A29177  32.996   5.061   7.950
 6532POPC   C4A29178  32.983   5.105   7.650
 6532POPC   C1B29179  33.115   5.331   8.550
 6532POPC   C2B29180  33.168   5.349   8.250
 6532POPC   C3B29181  33.095   5.325   7.950
 6532POPC   C4B29182  33.101   5.354   7.650
 6533POPC   NC329183  33.064  29.955   9.450
 6533POPC   PO429184  33.012  29.938   9.150
 6533POPC   GL129185  32.995  29.946   8.850
 6533POPC   GL229186  33.054  29.770   8.850
 6533POPC   C1A29187  33.051  29.932   8.550
 6533POPC   D2A29188  33.003  29.876   8.250
 6533POPC   C3A29189  33.036  29.891   7.950
 6533POPC   C4A29190  33.004  29.913   7.650
 6533POPC   C1B29191  33.024  29.648   8.550
 6533POPC   C2B29192  32.995  29.657   8.250
 6533POPC   C3B29193  32.944  29.654   7.950
 6533POPC   C4B29194  32.964  29.713   7.650
 6534POPC   NC329195  12.898  12.805   9.450
 6534POPC   PO429196  12.889  12.802   9.150
 6534POPC   GL129197  12.859  12.878   8.850
 6534POPC   GL229198  12.941  12.758   8.850
 6534POPC   C1A29199  12.806  12.893   8.550
 6534POPC   D2A29200  12.845  12.821   8.250
 6534POPC   C3A29201  12.897  12.865   7.950
 6534POPC   C4A29202  12.847  12.813   7.650
 6534POPC   C1B29203  13.055  12.744   8.550
 6534POPC   C2B29204  13.049  12.741   8.250
 6534POPC   C3B29205  13.071  12.732   7.950
 6534POPC   C4B29206  13.085  12.674   7.650
 6535POPC   NC329207   7.466  13.597   9.450
 6535POPC   PO429208   7.429  13.627   9.150
 6535POPC   GL129209   7.431  13.673   8.850
 6535POPC   GL229210   7.420  13.714   8.850
 6535POPC   C1A29211   7.425  13.609   8.550
 6535POPC   D2A29212   7.384  13.612   8.250
 6535POPC   C3A29213   7.379  13.627   7.950
 6535POPC   C4A29214   7.419  13.588   7.650
 6535POPC   C1B29215   7.391  13.910   8.550
 6535POPC   C2B29216   7.431  13.843   8.250
 6535POPC   C3B29217   7.428  13.874   7.950
 6535POPC   C4B29218   7.436  13.852   7.650
 6536POPC   NC329219  15.951  31.489   9.450
 6536POPC   PO429220  15.991  31.519   9.150
 6536POPC   GL129221  15.930  31.426   8.850
 6536POPC   GL229222  15.850  31.547   8.850
 6536POPC   C1A29223  15.967  31.440   8.550
 6536POPC   D2A29224  15.975  31.512   8.250
 6536POPC   C3A29225  16.001  31.458   7.950
 6536POPC   C4A29226  15.921  31.490   7.650
 6536POPC   C1B29227  15.744  31.684   8.550
 6536POPC   C2B29228  15.795  31.662   8.250
 6536POPC   C3B29229  15.720  31.686   7.950
 6536POPC   C4B29230  15.804  31.632   7.650
 6537POPC   NC329231  22.983  27.625   9.450
 6537POPC   PO429232  22.919  27.569   9.150
 6537POPC   GL129233  22.950  27.607   8.850
 6537POPC   GL229234  22.888  27.486   8.850
 6537POPC   C1A29235  22.920  27.610   8.550
 6537POPC   D2A29236  22.935  27.631   8.250
 6537POPC   C3A29237  22.920  27.555   7.950
 6537POPC   C4A29238  22.945  27.638   7.650
 6537POPC   C1B29239  22.852  27.326   8.550
 6537POPC   C2B29240  22.783  27.345   8.250
 6537POPC   C3B29241  22.821  27.322   7.950
 6537POPC   C4B29242  22.878  27.399   7.650
 6538POPC   NC329243  10.533   2.771   9.450
 6538POPC   PO429244  10.516   2.765   9.150
 6538POPC   GL129245  10.567   2.731   8.850
 6538POPC   GL229246  10.483   2.627   8.850
 6538POPC   C1A29247  10.499   2.813   8.550
 6538POPC   D2A29248  10.499   2.758   8.250
 6538POPC   C3A29249  10.491   2.773   7.950
 6538POPC   C4A29250  10.523   2.771   7.650
 6538POPC   C1B29251  10.470   2.493   8.550
 6538POPC   C2B29252  10.490   2.571   8.250
 6538POPC   C3B29253  10.484   2.564   7.950
 6538POPC   C4B29254  10.487   2.535   7.650
 6539POPC   NC329255  40.006  39.190   9.450
 6539POPC   PO429256  39.998  39.234   9.150
 6539POPC   GL129257  40.034  39.255   8.850
 6539POPC   GL229258  40.048  39.342   8.850
 6539POPC   C1A29259  39.995  39.264   8.550
 6539POPC   D2A29260  40.021  39.273   8.250
 6539POPC   C3A29261  39.961  39.195   7.950
 6539POPC   C4A29262  40.046  39.220   7.650
 6539POPC   C1B29263  40.048  39.510   8.550
 6539POPC   C2B29264  40.066  39.465   8.250
 6539POPC   C3B29265  40.050  39.424   7.950
 6539POPC   C4B29266  40.046  39.492   7.650
 6540POPC   NC329267   5.840  15.206   9.450
 6540POPC   PO429268   5.834  15.155   9.150
 6540POPC   GL129269   5.844  15.224   8.850
 6540POPC   GL229270   5.755  15.184   8.850
 6540POPC   C1A29271   5.892  15.140   8.550
 6540POPC   D2A29272   5.820  15.228   8.250
 6540POPC   C3A29273   5.823  15.226   7.950
 6540POPC   C4A29274   5.878  15.226   7.650
 6540POPC   C1B29275   5.632  15.232   8.550
 6540POPC   C2B29276   5.663  15.231   8.250
 6540POPC   C3B29277   5.625  15.288   7.950
 6540POPC   C4B29278   5.606  15.293   7.650
 6541POPC   NC329279  14.414  16.769   9.450
 6541POPC   PO429280  14.431  16.781   9.150
 6541POPC   GL129281  14.364  16.762   8.850
 6541POPC   GL229282  14.360  16.585   8.850
 6541POPC   C1A29283  14.418  16.683   8.550
 6541POPC   D2A29284  14.372  16.733   8.250
 6541POPC   C3A29285  14.354  16.718   7.950
 6541POPC   C4A29286  14.447  16.719   7.650
 6541POPC   C1B29287  14.265  16.525   8.550
 6541POPC   C2B29288  14.241  16.511   8.250
 6541POPC   C3B29289  14.227  16.550   7.950
 6541POPC   C4B29290  14.286  16.509   7.650
 6542POPC   NC329291  33.787  20.613   9.450
 6542POPC   PO429292  33.847  20.561   9.150
 6542POPC   GL129293  33.825  20.567   8.850
 6542POPC   GL229294  33.844  20.468   8.850
 6542POPC   C1A29295  33.842  20.591   8.550
 6542POPC   D2A29296  33.812  20.578   8.250
 6542POPC   C3A29297  33.772  20.563   7.950
 6542POPC   C4A29298  33.777  20.596   7.650
 6542POPC   C1B29299  33.872  20.419   8.550
 6542POPC   C2B29300  33.957  20.378   8.250
 6542POPC   C3B29301  33.926  20.372   7.950
 6542POPC   C4B29302  33.870  20.439   7.650
 6543POPC   NC329303  43.857   6.682   9.450
 6543POPC   PO429304  43.935   6.686   9.150
 6543POPC   GL129305  43.916   6.598   8.850
 6543POPC   GL229306  43.938   6.509   8.850
 6543POPC   C1A29307  43.842   6.693   8.550
 6543POPC   D2A29308  43.898   6.678   8.250
 6543POPC   C3A29309  43.893   6.629   7.950
 6543POPC   C4A29310  43.880   6.651   7.650
 6543POPC   C1B29311  43.951   6.433   8.550
 6543POPC   C2B29312  43.883   6.367   8.250
 6543POPC   C3B29313  43.948   6.356   7.950
 6543POPC   C4B29314  43.946   6.396   7.650
 6544POPC   NC329315  29.107  42.311   9.450
 6544POPC   PO429316  29.096  42.352   9.150
 6544POPC   GL129317  29.120  42.318   8.850
 6544POPC   GL229318  29.282  42.354   8.850
 6544POPC   C1A29319  29.141  42.378   8.550
 6544POPC   D2A29320  29.100  42.382   8.250
 6544POPC   C3A29321  29.133  42.340   7.950
 6544POPC   C4A29322  29.124  42.372   7.650
 6544POPC   C1B29323  29.363  42.406   8.550
 6544POPC   C2B29324  29.361  42.370   8.250
 6544POPC   C3B29325  29.393  42.364   7.950
 6544POPC   C4B29326  29.401  42.383   7.650
 6545POPC   NC329327  16.710  19.052   9.450
 6545POPC   PO429328  16.717  19.024   9.150
 6545POPC   GL129329  16.777  19.016   8.850
 6545POPC   GL229330  16.593  19.066   8.850
 6545POPC   C1A29331  16.715  19.093   8.550
 6545POPC   D2A29332  16.734  19.053   8.250
 6545POPC   C3A29333  16.689  19.044   7.950
 6545POPC   C4A29334  16.694  19.101   7.650
 6545POPC   C1B29335  16.493  18.977   8.550
 6545POPC   C2B29336  16.478  19.035   8.250
 6545POPC   C3B29337  16.525  19.004   7.950
 6545POPC   C4B29338  16.517  19.027   7.650
 6546POPC   NC329339   1.216  43.865   9.450
 6546POPC   PO429340   1.251  43.878   9.150
 6546POPC   GL129341   1.200  43.859   8.850
 6546POPC   GL229342   1.296  43.776   8.850
 6546POPC   C1A29343   1.188  43.871   8.550
 6546POPC   D2A29344   1.209  43.840   8.250
 6546POPC   C3A29345   1.214  43.865   7.950
 6546POPC   C4A29346   1.257  43.890   7.650
 6546POPC   C1B29347   1.333  43.697   8.550
 6546POPC   C2B29348   1.402  43.693   8.250
 6546POPC   C3B29349   1.367  43.661   7.950
 6546POPC   C4B29350   1.417  43.674   7.650
 6547POPC   NC329351   7.382   4.291   9.450
 6547POPC   PO429352   7.438   4.323   9.150
 6547POPC   GL129353   7.426   4.293   8.850
 6547POPC   GL229354   7.352   4.187   8.850
 6547POPC   C1A29355   7.440   4.342   8.550
 6547POPC   D2A29356   7.414   4.361   8.250
 6547POPC   C3A29357   7.457   4.334   7.950
 6547POPC   C4A29358   7.395   4.361   7.650
 6547POPC   C1B29359   7.314   4.056   8.550
 6547POPC   C2B29360   7.343   4.141   8.250
 6547POPC   C3B29361   7.351   4.096   7.950
 6547POPC   C4B29362   7.292   4.139   7.650
 6548POPC   NC329363  28.345   7.376   9.450
 6548POPC   PO429364  28.338   7.401   9.150
 6548POPC   GL129365  28.337   7.389   8.850
 6548POPC   GL229366  28.302   7.327   8.850
 6548POPC   C1A29367  28.397   7.463   8.550
 6548POPC   D2A29368  28.339   7.420   8.250
 6548POPC   C3A29369  28.362   7.465   7.950
 6548POPC   C4A29370  28.326   7.452   7.650
 6548POPC   C1B29371  28.155   7.256   8.550
 6548POPC   C2B29372  28.126   7.311   8.250
 6548POPC   C3B29373  28.148   7.317   7.950
 6548POPC   C4B29374  28.178   7.296   7.650
 6549POPC   NC329375  15.974  44.663   9.450
 6549POPC   PO429376  15.932  44.624   9.150
 6549POPC   GL129377  15.975  44.685   8.850
 6549POPC   GL229378  16.008  44.501   8.850
 6549POPC   C1A29379  15.974  44.663   8.550
 6549POPC   D2A29380  15.931  44.693   8.250
 6549POPC   C3A29381  15.984  44.626   7.950
 6549POPC   C4A29382  15.928  44.700   7.650
 6549POPC   C1B29383  15.987  44.374   8.550
 6549POPC   C2B29384  15.975  44.422   8.250
 6549POPC   C3B29385  16.051  44.391   7.950
 6549POPC   C4B29386  16.033  44.380   7.650
 6550POPC   NC329387   4.364   6.629   9.450
 6550POPC   PO429388   4.290   6.637   9.150
 6550POPC   GL129389   4.322   6.664   8.850
 6550POPC   GL229390   4.229   6.717   8.850
 6550POPC   C1A29391   4.269   6.611   8.550
 6550POPC   D2A29392   4.271   6.679   8.250
 6550POPC   C3A29393   4.342   6.605   7.950
 6550POPC   C4A29394   4.321   6.646   7.650
 6550POPC   C1B29395   4.159   6.881   8.550
 6550POPC   C2B29396   4.179   6.816   8.250
 6550POPC   C3B29397   4.194   6.877   7.950
 6550POPC   C4B29398   4.213   6.834   7.650
 6551POPC   NC329399  36.907  33.754   9.450
 6551POPC   PO429400  36.856  33.810   9.150
 6551POPC   GL129401  36.860  33.842   8.850
 6551POPC   GL229402  36.795  33.760   8.850
 6551POPC   C1A29403  36.867  33.842   8.550
 6551POPC   D2A29404  36.925  33.791   8.250
 6551POPC   C3A29405  36.882  33.834   7.950
 6551POPC   C4A29406  36.886  33.770   7.650
 6551POPC   C1B29407  36.700  33.737   8.550
 6551POPC   C2B29408  36.616  33.799   8.250
 6551POPC   C3B29409  36.666  33.737   7.950
 6551POPC   C4B29410  36.634  33.761   7.650
 6552POPC   NC329411  26.014  19.863   9.450
 6552POPC   PO429412  26.013  19.821   9.150
 6552POPC   GL129413  26.028  19.807   8.850
 6552POPC   GL229414  26.148  19.853   8.850
 6552POPC   C1A29415  26.074  19.883   8.550
 6552POPC   D2A29416  26.071  19.817   8.250
 6552POPC   C3A29417  26.046  19.804   7.950
 6552POPC   C4A29418  26.085  19.786   7.650
 6552POPC   C1B29419  26.244  19.954   8.550
 6552POPC   C2B29420  26.305  19.910   8.250
 6552POPC   C3B29421  26.261  19.936   7.950
 6552POPC   C4B29422  26.269  19.928   7.650
 6553POPC   NC329423  13.655  30.676   9.450
 6553POPC   PO429424  13.626  30.668   9.150
 6553POPC   GL129425  13.671  30.733   8.850
 6553POPC   GL229426  13.578  30.590   8.850
 6553POPC   C1A29427  13.665  30.659   8.550
 6553POPC   D2A29428  13.586  30.709   8.250
 6553POPC   C3A29429  13.650  30.709   7.950
 6553POPC   C4A29430  13.652  30.677   7.650
 6553POPC   C1B29431  13.561  30.478   8.550
 6553POPC   C2B29432  13.559  30.499   8.250
 6553POPC   C3B29433  13.514  30.491   7.950
 6553POPC   C4B29434  13.556  30.508   7.650
 6554POPC   NC329435  24.457  34.549   9.450
 6554POPC   PO429436  24.498  34.584   9.150
 6554POPC   GL129437  24.461  34.535   8.850
 6554POPC   GL229438  24.620  34.641   8.850
 6554POPC   C1A29439  24.531  34.542   8.550
 6554POPC   D2A29440  24.509  34.550   8.250
 6554POPC   C3A29441  24.536  34.602   7.950
 6554POPC   C4A29442  24.521  34.591   7.650
 6554POPC   C1B29443  24.719  34.699   8.550
 6554POPC   C2B29444  24.691  34.687   8.250
 6554POPC   C3B29445  24.691  34.676   7.950
 6554POPC   C4B29446  24.704  34.635   7.650
 6555POPC   NC329447   6.687   9.785   9.450
 6555POPC   PO429448   6.670   9.752   9.150
 6555POPC   GL129449   6.672   9.733   8.850
 6555POPC   GL229450   6.662   9.871   8.850
 6555POPC   C1A29451   6.693   9.700   8.550
 6555POPC   D2A29452   6.651   9.786   8.250
 6555POPC   C3A29453   6.694   9.714   7.950
 6555POPC   C4A29454   6.612   9.776   7.650
 6555POPC   C1B29455   6.592   9.964   8.550
 6555POPC   C2B29456   6.626  10.006   8.250
 6555POPC   C3B29457   6.578   9.997   7.950
 6555POPC   C4B29458   6.592   9.949   7.650
 6556POPC   NC329459  24.457   1.969   9.450
 6556POPC   PO429460  24.497   2.029   9.150
 6556POPC   GL129461  24.473   2.004   8.850
 6556POPC   GL229462  24.518   2.073   8.850
 6556POPC   C1A29463  24.494   1.952   8.550
 6556POPC   D2A29464  24.459   1.955   8.250
 6556POPC   C3A29465  24.519   1.964   7.950
 6556POPC   C4A29466  24.537   2.023   7.650
 6556POPC   C1B29467  24.507   2.271   8.550
 6556POPC   C2B29468  24.514   2.241   8.250
 6556POPC   C3B29469  24.525   2.228   7.950
 6556POPC   C4B29470  24.542   2.245   7.650
 6557POPC   NC329471   7.429   9.770   9.450
 6557POPC   PO429472   7.422   9.714   9.150
 6557POPC   GL129473   7.375   9.774   8.850
 6557POPC   GL229474   7.355   9.644   8.850
 6557POPC   C1A29475   7.395   9.766   8.550
 6557POPC   D2A29476   7.388   9.730   8.250
 6557POPC   C3A29477   7.372   9.709   7.950
 6557POPC   C4A29478   7.430   9.777   7.650
 6557POPC   C1B29479   7.396   9.465   8.550
 6557POPC   C2B29480   7.378   9.516   8.250
 6557POPC   C3B29481   7.320   9.533   7.950
 6557POPC   C4B29482   7.349   9.545   7.650
 6558POPC   NC329483  40.811  36.952   9.450
 6558POPC   PO429484  40.778  36.868   9.150
 6558POPC   GL129485  40.772  36.950   8.850
 6558POPC   GL229486  40.895  36.848   8.850
 6558POPC   C1A29487  40.751  36.948   8.550
 6558POPC   D2A29488  40.749  36.857   8.250
 6558POPC   C3A29489  40.795  36.897   7.950
 6558POPC   C4A29490  40.787  36.897   7.650
 6558POPC   C1B29491  40.977  36.806   8.550
 6558POPC   C2B29492  40.978  36.809   8.250
 6558POPC   C3B29493  41.003  36.805   7.950
 6558POPC   C4B29494  41.044  36.811   7.650
 6559POPC   NC329495  11.322  43.836   9.450
 6559POPC   PO429496  11.283  43.875   9.150
 6559POPC   GL129497  11.330  43.928   8.850
 6559POPC   GL229498  11.332  43.782   8.850
 6559POPC   C1A29499  11.293  43.884   8.550
 6559POPC   D2A29500  11.303  43.926   8.250
 6559POPC   C3A29501  11.279  43.851   7.950
 6559POPC   C4A29502  11.285  43.898   7.650
 6559POPC   C1B29503  11.271  43.656   8.550
 6559POPC   C2B29504  11.304  43.660   8.250
 6559POPC   C3B29505  11.284  43.642   7.950
 6559POPC   C4B29506  11.353  43.598   7.650
 6560POPC   NC329507  44.666  23.709   9.450
 6560POPC   PO429508  44.622  23.738   9.150
 6560POPC   GL129509  44.628  23.709   8.850
 6560POPC   GL229510  44.584  23.804   8.850
 6560POPC   C1A29511  44.648  23.706   8.550
 6560POPC   D2A29512  44.679  23.719   8.250
 6560POPC   C3A29513  44.648  23.758   7.950
 6560POPC   C4A29514  44.701  23.667   7.650
 6560POPC   C1B29515  44.417  23.813   8.550
 6560POPC   C2B29516  44.418  23.783   8.250
 6560POPC   C3B29517  44.424  23.798   7.950
 6560POPC   C4B29518  44.397  23.842   7.650
 6561POPC   NC329519   9.743   8.232   9.450
 6561POPC   PO429520   9.756   8.182   9.150
 6561POPC   GL129521   9.714   8.182   8.850
 6561POPC   GL229522   9.799   8.159   8.850
 6561POPC   C1A29523   9.771   8.211   8.550
 6561POPC   D2A29524   9.706   8.163   8.250
 6561POPC   C3A29525   9.702   8.209   7.950
 6561POPC   C4A29526   9.700   8.201   7.650
 6561POPC   C1B29527   9.916   7.991   8.550
 6561POPC   C2B29528   9.958   8.048   8.250
 6561POPC   C3B29529   9.959   8.047   7.950
 6561POPC   C4B29530   9.964   8.031   7.650
 6562POPC   NC329531  14.439  44.619   9.450
 6562POPC   PO429532  14.430  44.710   9.150
 6562POPC   GL129533  14.411  44.663   8.850
 6562POPC   GL229534  14.541  44.785   8.850
 6562POPC   C1A29535  14.433  44.646   8.550
 6562POPC   D2A29536  14.370  44.639   8.250
 6562POPC   C3A29537  14.375  44.691   7.950
 6562POPC   C4A29538  14.394  44.675   7.650
 6562POPC   C1B29539  14.562  44.819   8.550
 6562POPC   C2B29540  14.553  44.863   8.250
 6562POPC   C3B29541  14.618  44.803   7.950
 6562POPC   C4B29542  14.553  44.849   7.650
 6563POPC   NC329543   8.936  35.346   9.450
 6563POPC   PO429544   8.984  35.377   9.150
 6563POPC   GL129545   8.951  35.392   8.850
 6563POPC   GL229546   9.018  35.283   8.850
 6563POPC   C1A29547   8.975  35.390   8.550
 6563POPC   D2A29548   8.954  35.374   8.250
 6563POPC   C3A29549   8.941  35.339   7.950
 6563POPC   C4A29550   8.972  35.352   7.650
 6563POPC   C1B29551   9.148  35.190   8.550
 6563POPC   C2B29552   9.169  35.146   8.250
 6563POPC   C3B29553   9.164  35.147   7.950
 6563POPC   C4B29554   9.089  35.115   7.650
 6564POPC   NC329555  12.112  33.004   9.450
 6564POPC   PO429556  12.037  33.041   9.150
 6564POPC   GL129557  12.035  33.012   8.850
 6564POPC   GL229558  12.167  33.152   8.850
 6564POPC   C1A29559  12.089  33.048   8.550
 6564POPC   D2A29560  12.104  33.010   8.250
 6564POPC   C3A29561  12.093  32.989   7.950
 6564POPC   C4A29562  12.073  33.004   7.650
 6564POPC   C1B29563  12.174  33.228   8.550
 6564POPC   C2B29564  12.215  33.239   8.250
 6564POPC   C3B29565  12.168  33.232   7.950
 6564POPC   C4B29566  12.195  33.227   7.650
 6565POPC   NC329567  26.014   0.435   9.450
 6565POPC   PO429568  26.079   0.397   9.150
 6565POPC   GL129569  26.071   0.401   8.850
 6565POPC   GL229570  26.083   0.594   8.850
 6565POPC   C1A29571  26.005   0.421   8.550
 6565POPC   D2A29572  26.036   0.452   8.250
 6565POPC   C3A29573  26.080   0.448   7.950
 6565POPC   C4A29574  26.058   0.450   7.650
 6565POPC   C1B29575  26.129   0.697   8.550
 6565POPC   C2B29576  26.153   0.620   8.250
 6565POPC   C3B29577  26.147   0.697   7.950
 6565POPC   C4B29578  26.174   0.641   7.650
 6566POPC   NC329579  28.378   9.782   9.450
 6566POPC   PO429580  28.413   9.792   9.150
 6566POPC   GL129581  28.400   9.736   8.850
 6566POPC   GL229582  28.482   9.783   8.850
 6566POPC   C1A29583  28.395   9.749   8.550
 6566POPC   D2A29584  28.368   9.744   8.250
 6566POPC   C3A29585  28.372   9.707   7.950
 6566POPC   C4A29586  28.353   9.778   7.650
 6566POPC   C1B29587  28.600   9.761   8.550
 6566POPC   C2B29588  28.592   9.728   8.250
 6566POPC   C3B29589  28.574   9.762   7.950
 6566POPC   C4B29590  28.637   9.735   7.650
 6567POPC   NC329591   2.019  15.968   9.450
 6567POPC   PO429592   1.985  16.005   9.150
 6567POPC   GL129593   2.014  15.931   8.850
 6567POPC   GL229594   1.997  16.102   8.850
 6567POPC   C1A29595   2.027  15.966   8.550
 6567POPC   D2A29596   2.013  15.957   8.250
 6567POPC   C3A29597   1.994  15.958   7.950
 6567POPC   C4A29598   1.992  15.966   7.650
 6567POPC   C1B29599   1.930  16.196   8.550
 6567POPC   C2B29600   1.977  16.242   8.250
 6567POPC   C3B29601   2.021  16.250   7.950
 6567POPC   C4B29602   1.938  16.242   7.650
 6568POPC   NC329603   8.948  16.694   9.450
 6568POPC   PO429604   8.924  16.779   9.150
 6568POPC   GL129605   8.958  16.683   8.850
 6568POPC   GL229606   8.933  16.602   8.850
 6568POPC   C1A29607   8.941  16.757   8.550
 6568POPC   D2A29608   8.927  16.761   8.250
 6568POPC   C3A29609   8.954  16.711   7.950
 6568POPC   C4A29610   8.949  16.685   7.650
 6568POPC   C1B29611   8.874  16.496   8.550
 6568POPC   C2B29612   8.854  16.482   8.250
 6568POPC   C3B29613   8.890  16.474   7.950
 6568POPC   C4B29614   8.847  16.503   7.650
 6569POPC   NC329615  19.082  25.315   9.450
 6569POPC   PO429616  19.015  25.242   9.150
 6569POPC   GL129617  19.102  25.216   8.850
 6569POPC   GL229618  18.942  25.285   8.850
 6569POPC   C1A29619  19.095  25.288   8.550
 6569POPC   D2A29620  19.009  25.232   8.250
 6569POPC   C3A29621  19.093  25.262   7.950
 6569POPC   C4A29622  19.104  25.216   7.650
 6569POPC   C1B29623  18.795  25.256   8.550
 6569POPC   C2B29624  18.800  25.316   8.250
 6569POPC   C3B29625  18.802  25.342   7.950
 6569POPC   C4B29626  18.845  25.301   7.650
 6570POPC   NC329627  27.637  35.308   9.450
 6570POPC   PO429628  27.598  35.349   9.150
 6570POPC   GL129629  27.609  35.316   8.850
 6570POPC   GL229630  27.715  35.381   8.850
 6570POPC   C1A29631  27.569  35.345   8.550
 6570POPC   D2A29632  27.617  35.387   8.250
 6570POPC   C3A29633  27.584  35.323   7.950
 6570POPC   C4A29634  27.614  35.371   7.650
 6570POPC   C1B29635  27.803  35.355   8.550
 6570POPC   C2B29636  27.831  35.337   8.250
 6570POPC   C3B29637  27.860  35.376   7.950
 6570POPC   C4B29638  27.877  35.325   7.650
 6571POPC   NC329639  13.666  27.627   9.450
 6571POPC   PO429640  13.656  27.611   9.150
 6571POPC   GL129641  13.645  27.586   8.850
 6571POPC   GL229642  13.504  27.606   8.850
 6571POPC   C1A29643  13.597  27.638   8.550
 6571POPC   D2A29644  13.638  27.576   8.250
 6571POPC   C3A29645  13.601  27.631   7.950
 6571POPC   C4A29646  13.596  27.622   7.650
 6571POPC   C1B29647  13.336  27.490   8.550
 6571POPC   C2B29648  13.372  27.506   8.250
 6571POPC   C3B29649  13.410  27.501   7.950
 6571POPC   C4B29650  13.375  27.530   7.650
 6572POPC   NC329651  19.866  40.803   9.450
 6572POPC   PO429652  19.830  40.802   9.150
 6572POPC   GL129653  19.800  40.830   8.850
 6572POPC   GL229654  19.804  40.905   8.850
 6572POPC   C1A29655  19.833  40.786   8.550
 6572POPC   D2A29656  19.882  40.803   8.250
 6572POPC   C3A29657  19.846  40.788   7.950
 6572POPC   C4A29658  19.849  40.764   7.650
 6572POPC   C1B29659  19.748  41.036   8.550
 6572POPC   C2B29660  19.820  41.077   8.250
 6572POPC   C3B29661  19.833  41.018   7.950
 6572POPC   C4B29662  19.803  41.026   7.650
 6573POPC   NC329663  21.354   9.753   9.450
 6573POPC   PO429664  21.369   9.703   9.150
 6573POPC   GL129665  21.408   9.789   8.850
 6573POPC   GL229666  21.433   9.639   8.850
 6573POPC   C1A29667  21.435   9.786   8.550
 6573POPC   D2A29668  21.417   9.719   8.250
 6573POPC   C3A29669  21.386   9.711   7.950
 6573POPC   C4A29670  21.411   9.798   7.650
 6573POPC   C1B29671  21.419   9.478   8.550
 6573POPC   C2B29672  21.423   9.468   8.250
 6573POPC   C3B29673  21.434   9.474   7.950
 6573POPC   C4B29674  21.440   9.495   7.650
 6574POPC   NC329675  39.197  11.311   9.450
 6574POPC   PO429676  39.273  11.330   9.150
 6574POPC   GL129677  39.252  11.305   8.850
 6574POPC   GL229678  39.188  11.396   8.850
 6574POPC   C1A29679  39.190  11.312   8.550
 6574POPC   D2A29680  39.207  11.261   8.250
 6574POPC   C3A29681  39.278  11.269   7.950
 6574POPC   C4A29682  39.244  11.270   7.650
 6574POPC   C1B29683  39.122  11.559   8.550
 6574POPC   C2B29684  39.123  11.533   8.250
 6574POPC   C3B29685  39.059  11.496   7.950
 6574POPC   C4B29686  39.076  11.502   7.650
 6575POPC   NC329687  32.199  26.088   9.450
 6575POPC   PO429688  32.268  26.008   9.150
 6575POPC   GL129689  32.218  26.027   8.850
 6575POPC   GL229690  32.168  26.038   8.850
 6575POPC   C1A29691  32.298  26.049   8.550
 6575POPC   D2A29692  32.214  26.014   8.250
 6575POPC   C3A29693  32.214  26.045   7.950
 6575POPC   C4A29694  32.247  26.066   7.650
 6575POPC   C1B29695  32.015  26.077   8.550
 6575POPC   C2B29696  31.968  26.030   8.250
 6575POPC   C3B29697  31.975  26.029   7.950
 6575POPC   C4B29698  32.009  26.046   7.650
 6576POPC   NC329699  42.383  40.740   9.450
 6576POPC   PO429700  42.287  40.738   9.150
 6576POPC   GL129701  42.368  40.739   8.850
 6576POPC   GL229702  42.217  40.869   8.850
 6576POPC   C1A29703  42.363  40.747   8.550
 6576POPC   D2A29704  42.312  40.763   8.250
 6576POPC   C3A29705  42.320  40.738   7.950
 6576POPC   C4A29706  42.384  40.829   7.650
 6576POPC   C1B29707  42.084  40.888   8.550
 6576POPC   C2B29708  42.128  40.898   8.250
 6576POPC   C3B29709  42.128  40.916   7.950
 6576POPC   C4B29710  42.142  40.922   7.650
 6577POPC   NC329711   7.466  15.981   9.450
 6577POPC   PO429712   7.470  15.974   9.150
 6577POPC   GL129713   7.374  15.987   8.850
 6577POPC   GL229714   7.314  15.914   8.850
 6577POPC   C1A29715   7.436  15.992   8.550
 6577POPC   D2A29716   7.403  15.954   8.250
 6577POPC   C3A29717   7.383  15.929   7.950
 6577POPC   C4A29718   7.435  15.908   7.650
 6577POPC   C1B29719   7.257  15.860   8.550
 6577POPC   C2B29720   7.229  15.860   8.250
 6577POPC   C3B29721   7.169  15.864   7.950
 6577POPC   C4B29722   7.164  15.837   7.650
 6578POPC   NC329723  26.074  27.581   9.450
 6578POPC   PO429724  26.055  27.568   9.150
 6578POPC   GL129725  26.081  27.633   8.850
 6578POPC   GL229726  25.971  27.695   8.850
 6578POPC   C1A29727  26.025  27.615   8.550
 6578POPC   D2A29728  26.062  27.563   8.250
 6578POPC   C3A29729  26.067  27.625   7.950
 6578POPC   C4A29730  26.083  27.589   7.650
 6578POPC   C1B29731  25.776  27.746   8.550
 6578POPC   C2B29732  25.818  27.746   8.250
 6578POPC   C3B29733  25.786  27.716   7.950
 6578POPC   C4B29734  25.824  27.731   7.650
 6579POPC   NC329735  37.682  24.495   9.450
 6579POPC   PO429736  37.728  24.534   9.150
 6579POPC   GL129737  37.668  24.453   8.850
 6579POPC   GL229738  37.751  24.411   8.850
 6579POPC   C1A29739  37.703  24.489   8.550
 6579POPC   D2A29740  37.701  24.523   8.250
 6579POPC   C3A29741  37.655  24.497   7.950
 6579POPC   C4A29742  37.717  24.537   7.650
 6579POPC   C1B29743  37.858  24.318   8.550
 6579POPC   C2B29744  37.787  24.276   8.250
 6579POPC   C3B29745  37.766  24.315   7.950
 6579POPC   C4B29746  37.819  24.308   7.650
 6580POPC   NC329747  21.377  43.121   9.450
 6580POPC   PO429748  21.409  43.130   9.150
 6580POPC   GL129749  21.353  43.151   8.850
 6580POPC   GL229750  21.491  43.149   8.850
 6580POPC   C1A29751  21.353  43.142   8.550
 6580POPC   D2A29752  21.434  43.077   8.250
 6580POPC   C3A29753  21.416  43.092   7.950
 6580POPC   C4A29754  21.376  43.073   7.650
 6580POPC   C1B29755  21.661  43.217   8.550
 6580POPC   C2B29756  21.597  43.183   8.250
 6580POPC   C3B29757  21.596  43.181   7.950
 6580POPC   C4B29758  21.611  43.206   7.650
 6581POPC   NC329759  32.208   4.285   9.450
 6581POPC   PO429760  32.211   4.319   9.150
 6581POPC   GL129761  32.257   4.328   8.850
 6581POPC   GL229762  32.150   4.273   8.850
 6581POPC   C1A29763  32.293   4.289   8.550
 6581POPC   D2A29764  32.270   4.354   8.250
 6581POPC   C3A29765  32.256   4.267   7.950
 6581POPC   C4A29766  32.245   4.322   7.650
 6581POPC   C1B29767  32.056   4.208   8.550
 6581POPC   C2B29768  32.032   4.211   8.250
 6581POPC   C3B29769  32.010   4.262   7.950
 6581POPC   C4B29770  32.019   4.251   7.650
 6582POPC   NC329771  22.176  23.730   9.450
 6582POPC   PO429772  22.207  23.683   9.150
 6582POPC   GL129773  22.150  23.762   8.850
 6582POPC   GL229774  22.157  23.830   8.850
 6582POPC   C1A29775  22.122  23.716   8.550
 6582POPC   D2A29776  22.123  23.735   8.250
 6582POPC   C3A29777  22.184  23.729   7.950
 6582POPC   C4A29778  22.174  23.748   7.650
 6582POPC   C1B29779  22.044  23.987   8.550
 6582POPC   C2B29780  22.067  23.935   8.250
 6582POPC   C3B29781  22.107  23.933   7.950
 6582POPC   C4B29782  22.105  23.918   7.650
 6583POPC   NC329783  34.540   2.729   9.450
 6583POPC   PO429784  34.617   2.750   9.150
 6583POPC   GL129785  34.623   2.723   8.850
 6583POPC   GL229786  34.481   2.858   8.850
 6583POPC   C1A29787  34.537   2.719   8.550
 6583POPC   D2A29788  34.540   2.785   8.250
 6583POPC   C3A29789  34.620   2.726   7.950
 6583POPC   C4A29790  34.586   2.800   7.650
 6583POPC   C1B29791  34.382   2.902   8.550
 6583POPC   C2B29792  34.354   2.936   8.250
 6583POPC   C3B29793  34.393   2.917   7.950
 6583POPC   C4B29794  34.359   2.952   7.650
 6584POPC   NC329795  31.488  41.564   9.450
 6584POPC   PO429796  31.437  41.536   9.150
 6584POPC   GL129797  31.431  41.545   8.850
 6584POPC   GL229798  31.484  41.672   8.850
 6584POPC   C1A29799  31.503  41.595   8.550
 6584POPC   D2A29800  31.471  41.575   8.250
 6584POPC   C3A29801  31.434  41.589   7.950
 6584POPC   C4A29802  31.487  41.512   7.650
 6584POPC   C1B29803  31.505  41.792   8.550
 6584POPC   C2B29804  31.531  41.752   8.250
 6584POPC   C3B29805  31.543  41.757   7.950
 6584POPC   C4B29806  31.585  41.760   7.650
 6585POPC   NC329807  39.988  38.410   9.450
 6585POPC   PO429808  39.969  38.478   9.150
 6585POPC   GL129809  40.043  38.496   8.850
 6585POPC   GL229810  39.874  38.447   8.850
 6585POPC   C1A29811  39.967  38.500   8.550
 6585POPC   D2A29812  39.998  38.408   8.250
 6585POPC   C3A29813  40.005  38.476   7.950
 6585POPC   C4A29814  39.987  38.484   7.650
 6585POPC   C1B29815  39.719  38.422   8.550
 6585POPC   C2B29816  39.720  38.413   8.250
 6585POPC   C3B29817  39.727  38.399   7.950
 6585POPC   C4B29818  39.741  38.443   7.650
 6586POPC   NC329819   1.993  42.290   9.450
 6586POPC   PO429820   1.971  42.376   9.150
 6586POPC   GL129821   1.972  42.348   8.850
 6586POPC   GL229822   2.037  42.385   8.850
 6586POPC   C1A29823   2.033  42.316   8.550
 6586POPC   D2A29824   2.034  42.384   8.250
 6586POPC   C3A29825   1.952  42.370   7.950
 6586POPC   C4A29826   1.973  42.341   7.650
 6586POPC   C1B29827   2.161  42.511   8.550
 6586POPC   C2B29828   2.182  42.496   8.250
 6586POPC   C3B29829   2.143  42.486   7.950
 6586POPC   C4B29830   2.202  42.538   7.650
 6587POPC   NC329831  35.328  23.667   9.450
 6587POPC   PO429832  35.304  23.687   9.150
 6587POPC   GL129833  35.312  23.741   8.850
 6587POPC   GL229834  35.402  23.643   8.850
 6587POPC   C1A29835  35.392  23.749   8.550
 6587POPC   D2A29836  35.336  23.679   8.250
 6587POPC   C3A29837  35.388  23.736   7.950
 6587POPC   C4A29838  35.353  23.667   7.650
 6587POPC   C1B29839  35.485  23.536   8.550
 6587POPC   C2B29840  35.491  23.532   8.250
 6587POPC   C3B29841  35.447  23.532   7.950
 6587POPC   C4B29842  35.443  23.465   7.650
 6588POPC   NC329843  24.510  33.038   9.450
 6588POPC   PO429844  24.462  32.983   9.150
 6588POPC   GL129845  24.496  33.073   8.850
 6588POPC   GL229846  24.495  33.135   8.850
 6588POPC   C1A29847  24.461  32.984   8.550
 6588POPC   D2A29848  24.508  33.063   8.250
 6588POPC   C3A29849  24.536  33.015   7.950
 6588POPC   C4A29850  24.468  32.994   7.650
 6588POPC   C1B29851  24.479  33.243   8.550
 6588POPC   C2B29852  24.497  33.323   8.250
 6588POPC   C3B29853  24.447  33.245   7.950
 6588POPC   C4B29854  24.521  33.278   7.650
 6589POPC   NC329855   6.613  41.531   9.450
 6589POPC   PO429856   6.681  41.580   9.150
 6589POPC   GL129857   6.649  41.556   8.850
 6589POPC   GL229858   6.565  41.531   8.850
 6589POPC   C1A29859   6.667  41.590   8.550
 6589POPC   D2A29860   6.659  41.548   8.250
 6589POPC   C3A29861   6.600  41.558   7.950
 6589POPC   C4A29862   6.619  41.514   7.650
 6589POPC   C1B29863   6.427  41.396   8.550
 6589POPC   C2B29864   6.463  41.371   8.250
 6589POPC   C3B29865   6.422  41.374   7.950
 6589POPC   C4B29866   6.429  41.424   7.650
 6590POPC   NC329867  26.785  33.068   9.450
 6590POPC   PO429868  26.784  32.985   9.150
 6590POPC   GL129869  26.802  33.030   8.850
 6590POPC   GL229870  26.773  32.917   8.850
 6590POPC   C1A29871  26.847  33.022   8.550
 6590POPC   D2A29872  26.773  33.018   8.250
 6590POPC   C3A29873  26.858  32.976   7.950
 6590POPC   C4A29874  26.831  33.003   7.650
 6590POPC   C1B29875  26.749  32.736   8.550
 6590POPC   C2B29876  26.753  32.818   8.250
 6590POPC   C3B29877  26.746  32.831   7.950
 6590POPC   C4B29878  26.794  32.751   7.650
 6591POPC   NC329879   1.247  16.724   9.450
 6591POPC   PO429880   1.255  16.699   9.150
 6591POPC   GL129881   1.193  16.741   8.850
 6591POPC   GL229882   1.203  16.812   8.850
 6591POPC   C1A29883   1.238  16.751   8.550
 6591POPC   D2A29884   1.246  16.760   8.250
 6591POPC   C3A29885   1.211  16.779   7.950
 6591POPC   C4A29886   1.229  16.752   7.650
 6591POPC   C1B29887   1.215  16.944   8.550
 6591POPC   C2B29888   1.199  16.943   8.250
 6591POPC   C3B29889   1.135  16.959   7.950
 6591POPC   C4B29890   1.226  16.938   7.650
 6592POPC   NC329891  31.503  26.827   9.450
 6592POPC   PO429892  31.479  26.855   9.150
 6592POPC   GL129893  31.427  26.813   8.850
 6592POPC   GL229894  31.429  26.734   8.850
 6592POPC   C1A29895  31.473  26.821   8.550
 6592POPC   D2A29896  31.492  26.794   8.250
 6592POPC   C3A29897  31.453  26.782   7.950
 6592POPC   C4A29898  31.509  26.792   7.650
 6592POPC   C1B29899  31.493  26.609   8.550
 6592POPC   C2B29900  31.447  26.581   8.250
 6592POPC   C3B29901  31.461  26.533   7.950
 6592POPC   C4B29902  31.463  26.583   7.650
 6593POPC   NC329903   7.391  40.054   9.450
 6593POPC   PO429904   7.388  40.056   9.150
 6593POPC   GL129905   7.388  39.968   8.850
 6593POPC   GL229906   7.271  39.947   8.850
 6593POPC   C1A29907   7.437  39.982   8.550
 6593POPC   D2A29908   7.373  40.001   8.250
 6593POPC   C3A29909   7.433  40.005   7.950
 6593POPC   C4A29910   7.414  40.023   7.650
 6593POPC   C1B29911   7.255  39.851   8.550
 6593POPC   C2B29912   7.261  39.888   8.250
 6593POPC   C3B29913   7.262  39.900   7.950
 6593POPC   C4B29914   7.248  39.855   7.650
 6594POPC   NC329915  23.715  15.999   9.450
 6594POPC   PO429916  23.710  15.965   9.150
 6594POPC   GL129917  23.696  15.946   8.850
 6594POPC   GL229918  23.883  16.006   8.850
 6594POPC   C1A29919  23.669  15.909   8.550
 6594POPC   D2A29920  23.693  15.924   8.250
 6594POPC   C3A29921  23.724  15.988   7.950
 6594POPC   C4A29922  23.672  15.963   7.650
 6594POPC   C1B29923  24.002  16.016   8.550
 6594POPC   C2B29924  23.950  16.022   8.250
 6594POPC   C3B29925  23.951  15.965   7.950
 6594POPC   C4B29926  23.926  16.026   7.650
 6595POPC   NC329927  35.378  22.979   9.450
 6595POPC   PO429928  35.392  22.940   9.150
 6595POPC   GL129929  35.369  22.890   8.850
 6595POPC   GL229930  35.411  22.789   8.850
 6595POPC   C1A29931  35.342  22.915   8.550
 6595POPC   D2A29932  35.357  22.972   8.250
 6595POPC   C3A29933  35.338  22.940   7.950
 6595POPC   C4A29934  35.345  22.924   7.650
 6595POPC   C1B29935  35.432  22.697   8.550
 6595POPC   C2B29936  35.394  22.701   8.250
 6595POPC   C3B29937  35.425  22.726   7.950
 6595POPC   C4B29938  35.453  22.663   7.650
 6596POPC   NC329939  37.681  22.208   9.450
 6596POPC   PO429940  37.666  22.178   9.150
 6596POPC   GL129941  37.727  22.159   8.850
 6596POPC   GL229942  37.806  22.203   8.850
 6596POPC   C1A29943  37.652  22.197   8.550
 6596POPC   D2A29944  37.653  22.190   8.250
 6596POPC   C3A29945  37.637  22.142   7.950
 6596POPC   C4A29946  37.695  22.158   7.650
 6596POPC   C1B29947  37.951  22.155   8.550
 6596POPC   C2B29948  37.978  22.128   8.250
 6596POPC   C3B29949  37.951  22.208   7.950
 6596POPC   C4B29950  37.883  22.206   7.650
 6597POPC   NC329951   9.003  22.171   9.450
 6597POPC   PO429952   8.926  22.207   9.150
 6597POPC   GL129953   9.016  22.190   8.850
 6597POPC   GL229954   9.043  22.230   8.850
 6597POPC   C1A29955   8.963  22.170   8.550
 6597POPC   D2A29956   8.940  22.201   8.250
 6597POPC   C3A29957   9.003  22.160   7.950
 6597POPC   C4A29958   9.020  22.127   7.650
 6597POPC   C1B29959   9.207  22.245   8.550
 6597POPC   C2B29960   9.192  22.255   8.250
 6597POPC   C3B29961   9.223  22.230   7.950
 6597POPC   C4B29962   9.182  22.220   7.650
 6598POPC   NC329963  36.931  35.379   9.450
 6598POPC   PO429964  36.878  35.401   9.150
 6598POPC   GL129965  36.883  35.391   8.850
 6598POPC   GL229966  36.772  35.329   8.850
 6598POPC   C1A29967  36.922  35.319   8.550
 6598POPC   D2A29968  36.880  35.335   8.250
 6598POPC   C3A29969  36.942  35.353   7.950
 6598POPC   C4A29970  36.894  35.375   7.650
 6598POPC   C1B29971  36.663  35.198   8.550
 6598POPC   C2B29972  36.728  35.215   8.250
 6598POPC   C3B29973  36.730  35.255   7.950
 6598POPC   C4B29974  36.646  35.245   7.650
 6599POPC   NC329975  36.083   8.990   9.450
 6599POPC   PO429976  36.165   8.988   9.150
 6599POPC   GL129977  36.090   8.977   8.850
 6599POPC   GL229978  36.051   9.061   8.850
 6599POPC   C1A29979  36.095   9.008   8.550
 6599POPC   D2A29980  36.090   9.009   8.250
 6599POPC   C3A29981  36.133   8.939   7.950
 6599POPC   C4A29982  36.089   9.004   7.650
 6599POPC   C1B29983  36.062   9.183   8.550
 6599POPC   C2B29984  36.045   9.221   8.250
 6599POPC   C3B29985  36.019   9.173   7.950
 6599POPC   C4B29986  36.086   9.254   7.650
 6600POPC   NC329987  16.764  21.354   9.450
 6600POPC   PO429988  16.738  21.381   9.150
 6600POPC   GL129989  16.733  21.351   8.850
 6600POPC   GL229990  16.640  21.293   8.850
 6600POPC   C1A29991  16.768  21.337   8.550
 6600POPC   D2A29992  16.703  21.421   8.250
 6600POPC   C3A29993  16.698  21.377   7.950
 6600POPC   C4A29994  16.778  21.351   7.650
 6600POPC   C1B29995  16.610  21.120   8.550
 6600POPC   C2B29996  16.626  21.214   8.250
 6600POPC   C3B29997  16.585  21.133   7.950
 6600POPC   C4B29998  16.636  21.177   7.650
 6601POPC   NC329999  12.895   3.493   9.450
 6601POPC   PO430000  12.811   3.549   9.150
 6601POPC   GL130001  12.861   3.515   8.850
 6601POPC   GL230002  12.811   3.665   8.850
 6601POPC   C1A30003  12.882   3.546   8.550
 6601POPC   D2A30004  12.897   3.555   8.250
 6601POPC   C3A30005  12.878   3.559   7.950
 6601POPC   C4A30006  12.853   3.536   7.650
 6601POPC   C1B30007  12.688   3.700   8.550
 6601POPC   C2B30008  12.697   3.712   8.250
 6601POPC   C3B30009  12.662   3.752   7.950
 6601POPC   C4B30010  12.727   3.774   7.650
 6602POPC   NC330011  36.918  43.898   9.450
 6602POPC   PO430012  36.917  43.866   9.150
 6602POPC   GL130013  36.898  43.910   8.850
 6602POPC   GL230014  36.735  43.861   8.850
 6602POPC   C1A30015  36.948  43.885   8.550
 6602POPC   D2A30016  36.879  43.902   8.250
 6602POPC   C3A30017  36.892  43.922   7.950
 6602POPC   C4A30018  36.901  43.860   7.650
 6602POPC   C1B30019  36.677  43.816   8.550
 6602POPC   C2B30020  36.657  43.892   8.250
 6602POPC   C3B30021  36.653  43.804   7.950
 6602POPC   C4B30022  36.646  43.864   7.650
 6603POPC   NC330023  33.769  37.681   9.450
 6603POPC   PO430024  33.751  37.693   9.150
 6603POPC   GL130025  33.789  37.662   8.850
 6603POPC   GL230026  33.677  37.760   8.850
 6603POPC   C1A30027  33.777  37.688   8.550
 6603POPC   D2A30028  33.813  37.668   8.250
 6603POPC   C3A30029  33.761  37.645   7.950
 6603POPC   C4A30030  33.794  37.691   7.650
 6603POPC   C1B30031  33.634  37.861   8.550
 6603POPC   C2B30032  33.643  37.892   8.250
 6603POPC   C3B30033  33.651  37.890   7.950
 6603POPC   C4B30034  33.628  37.843   7.650
 6604POPC   NC330035   2.802  30.670   9.450
 6604POPC   PO430036   2.745  30.681   9.150
 6604POPC   GL130037   2.805  30.728   8.850
 6604POPC   GL230038   2.622  30.576   8.850
 6604POPC   C1A30039   2.725  30.663   8.550
 6604POPC   D2A30040   2.800  30.647   8.250
 6604POPC   C3A30041   2.761  30.679   7.950
 6604POPC   C4A30042   2.729  30.742   7.650
 6604POPC   C1B30043   2.538  30.565   8.550
 6604POPC   C2B30044   2.589  30.566   8.250
 6604POPC   C3B30045   2.528  30.585   7.950
 6604POPC   C4B30046   2.604  30.582   7.650
 6605POPC   NC330047  28.391  39.978   9.450
 6605POPC   PO430048  28.341  39.960   9.150
 6605POPC   GL130049  28.321  40.004   8.850
 6605POPC   GL230050  28.232  40.091   8.850
 6605POPC   C1A30051  28.396  40.050   8.550
 6605POPC   D2A30052  28.336  39.979   8.250
 6605POPC   C3A30053  28.367  40.024   7.950
 6605POPC   C4A30054  28.376  40.037   7.650
 6605POPC   C1B30055  28.108  40.072   8.550
 6605POPC   C2B30056  28.109  40.105   8.250
 6605POPC   C3B30057  28.102  40.112   7.950
 6605POPC   C4B30058  28.189  40.139   7.650
 6606POPC   NC330059  31.470   1.990   9.450
 6606POPC   PO430060  31.431   2.000   9.150
 6606POPC   GL130061  31.511   2.009   8.850
 6606POPC   GL230062  31.431   2.117   8.850
 6606POPC   C1A30063  31.466   1.949   8.550
 6606POPC   D2A30064  31.515   2.013   8.250
 6606POPC   C3A30065  31.478   1.989   7.950
 6606POPC   C4A30066  31.471   1.963   7.650
 6606POPC   C1B30067  31.303   2.237   8.550
 6606POPC   C2B30068  31.329   2.195   8.250
 6606POPC   C3B30069  31.374   2.242   7.950
 6606POPC   C4B30070  31.393   2.236   7.650
 6607POPC   NC330071  15.218   1.997   9.450
 6607POPC   PO430072  15.147   1.950   9.150
 6607POPC   GL130073  15.181   1.981   8.850
 6607POPC   GL230074  15.016   2.022   8.850
 6607POPC   C1A30075  15.199   2.003   8.550
 6607POPC   D2A30076  15.146   1.992   8.250
 6607POPC   C3A30077  15.179   2.037   7.950
 6607POPC   C4A30078  15.218   1.963   7.650
 6607POPC   C1B30079  14.886   1.968   8.550
 6607POPC   C2B30080  14.887   2.035   8.250
 6607POPC   C3B30081  14.966   1.959   7.950
 6607POPC   C4B30082  14.933   1.997   7.650
 6608POPC   NC330083   6.636  34.617   9.450
 6608POPC   PO430084   6.633  34.535   9.150
 6608POPC   GL130085   6.642  34.608   8.850
 6608POPC   GL230086   6.518  34.532   8.850
 6608POPC   C1A30087   6.683  34.552   8.550
 6608POPC   D2A30088   6.675  34.582   8.250
 6608POPC   C3A30089   6.614  34.607   7.950
 6608POPC   C4A30090   6.637  34.539   7.650
 6608POPC   C1B30091   6.447  34.567   8.550
 6608POPC   C2B30092   6.432  34.522   8.250
 6608POPC   C3B30093   6.428  34.573   7.950
 6608POPC   C4B30094   6.380  34.489   7.650
 6609POPC   NC330095  13.624  22.139   9.450
 6609POPC   PO430096  13.621  22.119   9.150
 6609POPC   GL130097  13.608  22.148   8.850
 6609POPC   GL230098  13.532  22.207   8.850
 6609POPC   C1A30099  13.624  22.166   8.550
 6609POPC   D2A30100  13.620  22.133   8.250
 6609POPC   C3A30101  13.662  22.203   7.950
 6609POPC   C4A30102  13.613  22.186   7.650
 6609POPC   C1B30103  13.360  22.154   8.550
 6609POPC   C2B30104  13.393  22.170   8.250
 6609POPC   C3B30105  13.426  22.168   7.950
 6609POPC   C4B30106  13.389  22.178   7.650
 6610POPC   NC330107   7.418   3.530   9.450
 6610POPC   PO430108   7.459   3.569   9.150
 6610POPC   GL130109   7.393   3.568   8.850
 6610POPC   GL230110   7.588   3.581   8.850
 6610POPC   C1A30111   7.459   3.589   8.550
 6610POPC   D2A30112   7.460   3.590   8.250
 6610POPC   C3A30113   7.440   3.542   7.950
 6610POPC   C4A30114   7.420   3.559   7.650
 6610POPC   C1B30115   7.695   3.635   8.550
 6610POPC   C2B30116   7.609   3.586   8.250
 6610POPC   C3B30117   7.708   3.629   7.950
 6610POPC   C4B30118   7.680   3.663   7.650
 6611POPC   NC330119  43.932  16.778   9.450
 6611POPC   PO430120  43.864  16.730   9.150
 6611POPC   GL130121  43.933  16.707   8.850
 6611POPC   GL230122  43.854  16.585   8.850
 6611POPC   C1A30123  43.913  16.690   8.550
 6611POPC   D2A30124  43.925  16.722   8.250
 6611POPC   C3A30125  43.925  16.735   7.950
 6611POPC   C4A30126  43.921  16.712   7.650
 6611POPC   C1B30127  43.808  16.528   8.550
 6611POPC   C2B30128  43.715  16.538   8.250
 6611POPC   C3B30129  43.784  16.484   7.950
 6611POPC   C4B30130  43.728  16.537   7.650
 6612POPC   NC330131  22.196  12.047   9.450
 6612POPC   PO430132  22.173  12.070   9.150
 6612POPC   GL130133  22.170  12.113   8.850
 6612POPC   GL230134  22.281  12.118   8.850
 6612POPC   C1A30135  22.120  12.088   8.550
 6612POPC   D2A30136  22.122  12.070   8.250
 6612POPC   C3A30137  22.156  12.075   7.950
 6612POPC   C4A30138  22.141  12.067   7.650
 6612POPC   C1B30139  22.412  12.228   8.550
 6612POPC   C2B30140  22.380  12.227   8.250
 6612POPC   C3B30141  22.347  12.175   7.950
 6612POPC   C4B30142  22.382  12.154   7.650
 6613POPC   NC330143  38.407  14.432   9.450
 6613POPC   PO430144  38.461  14.422   9.150
 6613POPC   GL130145  38.407  14.411   8.850
 6613POPC   GL230146  38.388  14.297   8.850
 6613POPC   C1A30147  38.431  14.412   8.550
 6613POPC   D2A30148  38.475  14.425   8.250
 6613POPC   C3A30149  38.414  14.412   7.950
 6613POPC   C4A30150  38.420  14.452   7.650
 6613POPC   C1B30151  38.374  14.113   8.550
 6613POPC   C2B30152  38.426  14.109   8.250
 6613POPC   C3B30153  38.444  14.169   7.950
 6613POPC   C4B30154  38.432  14.130   7.650
 6614POPC   NC330155   9.007  29.915   9.450
 6614POPC   PO430156   8.955  29.951   9.150
 6614POPC   GL130157   8.962  29.967   8.850
 6614POPC   GL230158   8.878  29.859   8.850
 6614POPC   C1A30159   8.975  29.890   8.550
 6614POPC   D2A30160   9.008  29.956   8.250
 6614POPC   C3A30161   8.935  29.969   7.950
 6614POPC   C4A30162   9.004  29.898   7.650
 6614POPC   C1B30163   8.776  29.802   8.550
 6614POPC   C2B30164   8.719  29.776   8.250
 6614POPC   C3B30165   8.719  29.801   7.950
 6614POPC   C4B30166   8.750  29.821   7.650
 6615POPC   NC330167  41.527  31.494   9.450
 6615POPC   PO430168  41.537  31.468   9.150
 6615POPC   GL130169  41.546  31.507   8.850
 6615POPC   GL230170  41.639  31.377   8.850
 6615POPC   C1A30171  41.511  31.451   8.550
 6615POPC   D2A30172  41.601  31.499   8.250
 6615POPC   C3A30173  41.537  31.482   7.950
 6615POPC   C4A30174  41.584  31.464   7.650
 6615POPC   C1B30175  41.631  31.209   8.550
 6615POPC   C2B30176  41.692  31.265   8.250
 6615POPC   C3B30177  41.671  31.244   7.950
 6615POPC   C4B30178  41.636  31.242   7.650
 6616POPC   NC330179   8.973  17.478   9.450
 6616POPC   PO430180   8.979  17.551   9.150
 6616POPC   GL130181   8.976  17.551   8.850
 6616POPC   GL230182   8.842  17.553   8.850
 6616POPC   C1A30183   8.949  17.482   8.550
 6616POPC   D2A30184   9.001  17.467   8.250
 6616POPC   C3A30185   8.994  17.544   7.950
 6616POPC   C4A30186   8.957  17.468   7.650
 6616POPC   C1B30187   8.709  17.555   8.550
 6616POPC   C2B30188   8.763  17.514   8.250
 6616POPC   C3B30189   8.676  17.540   7.950
 6616POPC   C4B30190   8.736  17.531   7.650
 6617POPC   NC330191   4.285  11.284   9.450
 6617POPC   PO430192   4.339  11.347   9.150
 6617POPC   GL130193   4.303  11.295   8.850
 6617POPC   GL230194   4.419  11.188   8.850
 6617POPC   C1A30195   4.267  11.304   8.550
 6617POPC   D2A30196   4.290  11.323   8.250
 6617POPC   C3A30197   4.366  11.344   7.950
 6617POPC   C4A30198   4.354  11.281   7.650
 6617POPC   C1B30199   4.564  11.196   8.550
 6617POPC   C2B30200   4.567  11.144   8.250
 6617POPC   C3B30201   4.501  11.113   7.950
 6617POPC   C4B30202   4.483  11.119   7.650
 6618POPC   NC330203   5.116   2.746   9.450
 6618POPC   PO430204   5.046   2.805   9.150
 6618POPC   GL130205   5.060   2.814   8.850
 6618POPC   GL230206   5.215   2.783   8.850
 6618POPC   C1A30207   5.050   2.785   8.550
 6618POPC   D2A30208   5.104   2.735   8.250
 6618POPC   C3A30209   5.079   2.740   7.950
 6618POPC   C4A30210   5.108   2.785   7.650
 6618POPC   C1B30211   5.282   2.853   8.550
 6618POPC   C2B30212   5.312   2.820   8.250
 6618POPC   C3B30213   5.319   2.827   7.950
 6618POPC   C4B30214   5.351   2.912   7.650
 6619POPC   NC330215  19.878  22.970   9.450
 6619POPC   PO430216  19.837  22.947   9.150
 6619POPC   GL130217  19.861  22.958   8.850
 6619POPC   GL230218  19.872  23.063   8.850
 6619POPC   C1A30219  19.833  22.900   8.550
 6619POPC   D2A30220  19.807  22.952   8.250
 6619POPC   C3A30221  19.843  22.904   7.950
 6619POPC   C4A30222  19.807  22.913   7.650
 6619POPC   C1B30223  19.947  23.196   8.550
 6619POPC   C2B30224  19.883  23.132   8.250
 6619POPC   C3B30225  19.958  23.203   7.950
 6619POPC   C4B30226  19.927  23.130   7.650
 6620POPC   NC330227  21.402  30.746   9.450
 6620POPC   PO430228  21.427  30.710   9.150
 6620POPC   GL130229  21.385  30.735   8.850
 6620POPC   GL230230  21.537  30.644   8.850
 6620POPC   C1A30231  21.342  30.680   8.550
 6620POPC   D2A30232  21.378  30.696   8.250
 6620POPC   C3A30233  21.366  30.675   7.950
 6620POPC   C4A30234  21.365  30.674   7.650
 6620POPC   C1B30235  21.590  30.641   8.550
 6620POPC   C2B30236  21.634  30.678   8.250
 6620POPC   C3B30237  21.600  30.661   7.950
 6620POPC   C4B30238  21.587  30.665   7.650
 6621POPC   NC330239  15.216  38.499   9.450
 6621POPC   PO430240  15.135  38.493   9.150
 6621POPC   GL130241  15.135  38.420   8.850
 6621POPC   GL230242  15.062  38.392   8.850
 6621POPC   C1A30243  15.138  38.470   8.550
 6621POPC   D2A30244  15.133  38.462   8.250
 6621POPC   C3A30245  15.228  38.413   7.950
 6621POPC   C4A30246  15.151  38.477   7.650
 6621POPC   C1B30247  15.015  38.361   8.550
 6621POPC   C2B30248  15.001  38.345   8.250
 6621POPC   C3B30249  14.929  38.314   7.950
 6621POPC   C4B30250  14.988  38.316   7.650
 6622POPC   NC330251  36.925  36.118   9.450
 6622POPC   PO430252  36.946  36.177   9.150
 6622POPC   GL130253  36.930  36.097   8.850
 6622POPC   GL230254  36.987  36.205   8.850
 6622POPC   C1A30255  36.912  36.142   8.550
 6622POPC   D2A30256  36.858  36.177   8.250
 6622POPC   C3A30257  36.894  36.167   7.950
 6622POPC   C4A30258  36.942  36.111   7.650
 6622POPC   C1B30259  37.136  36.265   8.550
 6622POPC   C2B30260  37.133  36.196   8.250
 6622POPC   C3B30261  37.138  36.208   7.950
 6622POPC   C4B30262  37.113  36.258   7.650
 6623POPC   NC330263  24.509   5.093   9.450
 6623POPC   PO430264  24.490   5.123   9.150
 6623POPC   GL130265  24.522   5.109   8.850
 6623POPC   GL230266  24.566   5.008   8.850
 6623POPC   C1A30267  24.528   5.078   8.550
 6623POPC   D2A30268  24.470   5.079   8.250
 6623POPC   C3A30269  24.498   5.119   7.950
 6623POPC   C4A30270  24.466   5.137   7.650
 6623POPC   C1B30271  24.730   5.026   8.550
 6623POPC   C2B30272  24.748   5.024   8.250
 6623POPC   C3B30273  24.732   5.016   7.950
 6623POPC   C4B30274  24.707   5.014   7.650
 6624POPC   NC330275  28.352  23.689   9.450
 6624POPC   PO430276  28.352  23.665   9.150
 6624POPC   GL130277  28.325  23.749   8.850
 6624POPC   GL230278  28.245  23.733   8.850
 6624POPC   C1A30279  28.381  23.668   8.550
 6624POPC   D2A30280  28.417  23.715   8.250
 6624POPC   C3A30281  28.382  23.713   7.950
 6624POPC   C4A30282  28.350  23.726   7.650
 6624POPC   C1B30283  28.139  23.746   8.550
 6624POPC   C2B30284  28.071  23.752   8.250
 6624POPC   C3B30285  28.116  23.706   7.950
 6624POPC   C4B30286  28.089  23.692   7.650
 6625POPC   NC330287   9.743   0.466   9.450
 6625POPC   PO430288   9.731   0.397   9.150
 6625POPC   GL130289   9.757   0.457   8.850
 6625POPC   GL230290   9.818   0.404   8.850
 6625POPC   C1A30291   9.783   0.444   8.550
 6625POPC   D2A30292   9.726   0.475   8.250
 6625POPC   C3A30293   9.701   0.474   7.950
 6625POPC   C4A30294   9.720   0.428   7.650
 6625POPC   C1B30295   9.974   0.369   8.550
 6625POPC   C2B30296   9.973   0.361   8.250
 6625POPC   C3B30297  10.032   0.376   7.950
 6625POPC   C4B30298   9.963   0.398   7.650
 6626POPC   NC330299  35.346  36.889   9.450
 6626POPC   PO430300  35.353  36.924   9.150
 6626POPC   GL130301  35.338  36.904   8.850
 6626POPC   GL230302  35.469  36.889   8.850
 6626POPC   C1A30303  35.353  36.936   8.550
 6626POPC   D2A30304  35.348  36.953   8.250
 6626POPC   C3A30305  35.393  36.933   7.950
 6626POPC   C4A30306  35.346  36.949   7.650
 6626POPC   C1B30307  35.580  36.814   8.550
 6626POPC   C2B30308  35.585  36.829   8.250
 6626POPC   C3B30309  35.587  36.851   7.950
 6626POPC   C4B30310  35.553  36.840   7.650
 6627POPC   NC330311  13.601   0.424   9.450
 6627POPC   PO430312  13.665   0.449   9.150
 6627POPC   GL130313  13.656   0.449   8.850
 6627POPC   GL230314  13.654   0.363   8.850
 6627POPC   C1A30315  13.638   0.423   8.550
 6627POPC   D2A30316  13.653   0.392   8.250
 6627POPC   C3A30317  13.667   0.440   7.950
 6627POPC   C4A30318  13.665   0.418   7.650
 6627POPC   C1B30319  13.684   0.198   8.550
 6627POPC   C2B30320  13.660   0.202   8.250
 6627POPC   C3B30321  13.663   0.224   7.950
 6627POPC   C4B30322  13.655   0.235   7.650
 6628POPC   NC330323  10.532  16.696   9.450
 6628POPC   PO430324  10.570  16.715   9.150
 6628POPC   GL130325  10.488  16.762   8.850
 6628POPC   GL230326  10.561  16.582   8.850
 6628POPC   C1A30327  10.548  16.691   8.550
 6628POPC   D2A30328  10.567  16.701   8.250
 6628POPC   C3A30329  10.496  16.692   7.950
 6628POPC   C4A30330  10.499  16.731   7.650
 6628POPC   C1B30331  10.518  16.444   8.550
 6628POPC   C2B30332  10.511  16.518   8.250
 6628POPC   C3B30333  10.485  16.485   7.950
 6628POPC   C4B30334  10.500  16.477   7.650
 6629POPC   NC330335  38.475  12.866   9.450
 6629POPC   PO430336  38.482  12.835   9.150
 6629POPC   GL130337  38.475  12.826   8.850
 6629POPC   GL230338  38.579  12.784   8.850
 6629POPC   C1A30339  38.423  12.864   8.550
 6629POPC   D2A30340  38.451  12.857   8.250
 6629POPC   C3A30341  38.408  12.837   7.950
 6629POPC   C4A30342  38.469  12.837   7.650
 6629POPC   C1B30343  38.692  12.785   8.550
 6629POPC   C2B30344  38.680  12.741   8.250
 6629POPC   C3B30345  38.706  12.701   7.950
 6629POPC   C4B30346  38.688  12.758   7.650
 6630POPC   NC330347  41.530   8.157   9.450
 6630POPC   PO430348  41.570   8.187   9.150
 6630POPC   GL130349  41.585   8.243   8.850
 6630POPC   GL230350  41.441   8.210   8.850
 6630POPC   C1A30351  41.513   8.227   8.550
 6630POPC   D2A30352  41.574   8.192   8.250
 6630POPC   C3A30353  41.552   8.187   7.950
 6630POPC   C4A30354  41.582   8.232   7.650
 6630POPC   C1B30355  41.289   8.146   8.550
 6630POPC   C2B30356  41.351   8.156   8.250
 6630POPC   C3B30357  41.314   8.136   7.950
 6630POPC   C4B30358  41.284   8.170   7.650
 6631POPC   NC330359   8.242  30.673   9.450
 6631POPC   PO430360   8.221  30.746   9.150
 6631POPC   GL130361   8.189  30.683   8.850
 6631POPC   GL230362   8.344  30.646   8.850
 6631POPC   C1A30363   8.192  30.734   8.550
 6631POPC   D2A30364   8.237  30.688   8.250
 6631POPC   C3A30365   8.237  30.710   7.950
 6631POPC   C4A30366   8.211  30.711   7.650
 6631POPC   C1B30367   8.485  30.659   8.550
 6631POPC   C2B30368   8.452  30.654   8.250
 6631POPC   C3B30369   8.468  30.721   7.950
 6631POPC   C4B30370   8.447  30.688   7.650
 6632POPC   NC330371  12.851  30.665   9.450
 6632POPC   PO430372  12.875  30.711   9.150
 6632POPC   GL130373  12.843  30.683   8.850
 6632POPC   GL230374  12.868  30.578   8.850
 6632POPC   C1A30375  12.839  30.669   8.550
 6632POPC   D2A30376  12.880  30.735   8.250
 6632POPC   C3A30377  12.895  30.651   7.950
 6632POPC   C4A30378  12.879  30.705   7.650
 6632POPC   C1B30379  12.949  30.405   8.550
 6632POPC   C2B30380  12.913  30.437   8.250
 6632POPC   C3B30381  12.934  30.461   7.950
 6632POPC   C4B30382  12.881  30.428   7.650
 6633POPC   NC330383  10.531  36.146   9.450
 6633POPC   PO430384  10.486  36.145   9.150
 6633POPC   GL130385  10.486  36.130   8.850
 6633POPC   GL230386  10.390  36.207   8.850
 6633POPC   C1A30387  10.546  36.146   8.550
 6633POPC   D2A30388  10.542  36.089   8.250
 6633POPC   C3A30389  10.520  36.149   7.950
 6633POPC   C4A30390  10.509  36.121   7.650
 6633POPC   C1B30391  10.346  36.324   8.550
 6633POPC   C2B30392  10.343  36.245   8.250
 6633POPC   C3B30393  10.293  36.282   7.950
 6633POPC   C4B30394  10.343  36.313   7.650
 6634POPC   NC330395  19.860   3.536   9.450
 6634POPC   PO430396  19.829   3.591   9.150
 6634POPC   GL130397  19.800   3.542   8.850
 6634POPC   GL230398  19.869   3.453   8.850
 6634POPC   C1A30399  19.864   3.542   8.550
 6634POPC   D2A30400  19.842   3.575   8.250
 6634POPC   C3A30401  19.823   3.579   7.950
 6634POPC   C4A30402  19.825   3.585   7.650
 6634POPC   C1B30403  19.773   3.298   8.550
 6634POPC   C2B30404  19.868   3.337   8.250
 6634POPC   C3B30405  19.811   3.288   7.950
 6634POPC   C4B30406  19.858   3.292   7.650
 6635POPC   NC330407   6.651  24.463   9.450
 6635POPC   PO430408   6.668  24.492   9.150
 6635POPC   GL130409   6.658  24.531   8.850
 6635POPC   GL230410   6.783  24.489   8.850
 6635POPC   C1A30411   6.690  24.537   8.550
 6635POPC   D2A30412   6.690  24.484   8.250
 6635POPC   C3A30413   6.688  24.518   7.950
 6635POPC   C4A30414   6.617  24.519   7.650
 6635POPC   C1B30415   6.924  24.518   8.550
 6635POPC   C2B30416   6.899  24.482   8.250
 6635POPC   C3B30417   6.847  24.544   7.950
 6635POPC   C4B30418   6.930  24.522   7.650
 6636POPC   NC330419  13.594   5.845   9.450
 6636POPC   PO430420  13.632   5.912   9.150
 6636POPC   GL130421  13.665   5.869   8.850
 6636POPC   GL230422  13.615   5.939   8.850
 6636POPC   C1A30423  13.611   5.874   8.550
 6636POPC   D2A30424  13.579   5.857   8.250
 6636POPC   C3A30425  13.675   5.828   7.950
 6636POPC   C4A30426  13.580   5.910   7.650
 6636POPC   C1B30427  13.501   6.144   8.550
 6636POPC   C2B30428  13.509   6.093   8.250
 6636POPC   C3B30429  13.523   6.078   7.950
 6636POPC   C4B30430  13.557   6.066   7.650
 6637POPC   NC330431  30.673  33.072   9.450
 6637POPC   PO430432  30.695  33.052   9.150
 6637POPC   GL130433  30.708  32.978   8.850
 6637POPC   GL230434  30.691  33.108   8.850
 6637POPC   C1A30435  30.653  33.072   8.550
 6637POPC   D2A30436  30.656  33.056   8.250
 6637POPC   C3A30437  30.731  33.028   7.950
 6637POPC   C4A30438  30.674  33.072   7.650
 6637POPC   C1B30439  30.723  33.222   8.550
 6637POPC   C2B30440  30.727  33.253   8.250
 6637POPC   C3B30441  30.712  33.310   7.950
 6637POPC   C4B30442  30.792  33.232   7.650
 6638POPC   NC330443  36.912  18.329   9.450
 6638POPC   PO430444  36.892  18.304   9.150
 6638POPC   GL130445  36.874  18.332   8.850
 6638POPC   GL230446  36.964  18.377   8.850
 6638POPC   C1A30447  36.938  18.252   8.550
 6638POPC   D2A30448  36.894  18.301   8.250
 6638POPC   C3A30449  36.893  18.306   7.950
 6638POPC   C4A30450  36.906  18.281   7.650
 6638POPC   C1B30451  37.064  18.410   8.550
 6638POPC   C2B30452  37.095  18.398   8.250
 6638POPC   C3B30453  37.098  18.425   7.950
 6638POPC   C4B30454  37.069  18.395   7.650
 6639POPC   NC330455   4.332   1.945   9.450
 6639POPC   PO430456   4.347   1.966   9.150
 6639POPC   GL130457   4.323   2.004   8.850
 6639POPC   GL230458   4.476   1.941   8.850
 6639POPC   C1A30459   4.324   1.957   8.550
 6639POPC   D2A30460   4.315   1.954   8.250
 6639POPC   C3A30461   4.331   2.012   7.950
 6639POPC   C4A30462   4.285   1.945   7.650
 6639POPC   C1B30463   4.560   1.967   8.550
 6639POPC   C2B30464   4.523   1.964   8.250
 6639POPC   C3B30465   4.581   1.948   7.950
 6639POPC   C4B30466   4.580   1.931   7.650
 6640POPC   NC330467   8.954   8.163   9.450
 6640POPC   PO430468   8.979   8.203   9.150
 6640POPC   GL130469   8.955   8.221   8.850
 6640POPC   GL230470   8.914   8.075   8.850
 6640POPC   C1A30471   8.972   8.177   8.550
 6640POPC   D2A30472   8.933   8.214   8.250
 6640POPC   C3A30473   8.987   8.167   7.950
 6640POPC   C4A30474   8.997   8.168   7.650
 6640POPC   C1B30475   8.857   7.941   8.550
 6640POPC   C2B30476   8.876   7.950   8.250
 6640POPC   C3B30477   8.827   7.946   7.950
 6640POPC   C4B30478   8.863   7.965   7.650
 6641POPC   NC330479   2.022  16.762   9.450
 6641POPC   PO430480   1.955  16.748   9.150
 6641POPC   GL130481   2.000  16.738   8.850
 6641POPC   GL230482   2.084  16.596   8.850
 6641POPC   C1A30483   2.029  16.728   8.550
 6641POPC   D2A30484   1.958  16.728   8.250
 6641POPC   C3A30485   1.967  16.770   7.950
 6641POPC   C4A30486   1.971  16.711   7.650
 6641POPC   C1B30487   2.171  16.578   8.550
 6641POPC   C2B30488   2.144  16.504   8.250
 6641POPC   C3B30489   2.167  16.553   7.950
 6641POPC   C4B30490   2.115  16.535   7.650
 6642POPC   NC330491  22.140  27.623   9.450
 6642POPC   PO430492  22.211  27.554   9.150
 6642POPC   GL130493  22.153  27.583   8.850
 6642POPC   GL230494  22.259  27.680   8.850
 6642POPC   C1A30495  22.173  27.620   8.550
 6642POPC   D2A30496  22.118  27.569   8.250
 6642POPC   C3A30497  22.211  27.569   7.950
 6642POPC   C4A30498  22.207  27.551   7.650
 6642POPC   C1B30499  22.408  27.724   8.550
 6642POPC   C2B30500  22.390  27.710   8.250
 6642POPC   C3B30501  22.417  27.707   7.950
 6642POPC   C4B30502  22.424  27.708   7.650
 6643POPC   NC330503  28.338  38.434   9.450
 6643POPC   PO430504  28.414  38.435   9.150
 6643POPC   GL130505  28.361  38.450   8.850
 6643POPC   GL230506  28.471  38.544   8.850
 6643POPC   C1A30507  28.406  38.438   8.550
 6643POPC   D2A30508  28.351  38.466   8.250
 6643POPC   C3A30509  28.390  38.453   7.950
 6643POPC   C4A30510  28.391  38.448   7.650
 6643POPC   C1B30511  28.562  38.614   8.550
 6643POPC   C2B30512  28.530  38.561   8.250
 6643POPC   C3B30513  28.582  38.610   7.950
 6643POPC   C4B30514  28.565  38.645   7.650
 6644POPC   NC330515   2.771  20.569   9.450
 6644POPC   PO430516   2.801  20.582   9.150
 6644POPC   GL130517   2.725  20.633   8.850
 6644POPC   GL230518   2.891  20.642   8.850
 6644POPC   C1A30519   2.785  20.630   8.550
 6644POPC   D2A30520   2.776  20.630   8.250
 6644POPC   C3A30521   2.811  20.634   7.950
 6644POPC   C4A30522   2.726  20.579   7.650
 6644POPC   C1B30523   2.973  20.800   8.550
 6644POPC   C2B30524   2.971  20.785   8.250
 6644POPC   C3B30525   2.960  20.784   7.950
 6644POPC   C4B30526   2.924  20.802   7.650
 6645POPC   NC330527   6.639   1.947   9.450
 6645POPC   PO430528   6.617   1.994   9.150
 6645POPC   GL130529   6.651   1.949   8.850
 6645POPC   GL230530   6.551   2.032   8.850
 6645POPC   C1A30531   6.654   1.954   8.550
 6645POPC   D2A30532   6.665   2.034   8.250
 6645POPC   C3A30533   6.659   2.014   7.950
 6645POPC   C4A30534   6.619   1.992   7.650
 6645POPC   C1B30535   6.517   2.124   8.550
 6645POPC   C2B30536   6.423   2.189   8.250
 6645POPC   C3B30537   6.422   2.176   7.950
 6645POPC   C4B30538   6.462   2.142   7.650
 6646POPC   NC330539  21.425  13.591   9.450
 6646POPC   PO430540  21.377  13.599   9.150
 6646POPC   GL130541  21.377  13.670   8.850
 6646POPC   GL230542  21.351  13.763   8.850
 6646POPC   C1A30543  21.362  13.613   8.550
 6646POPC   D2A30544  21.411  13.628   8.250
 6646POPC   C3A30545  21.367  13.594   7.950
 6646POPC   C4A30546  21.388  13.593   7.650
 6646POPC   C1B30547  21.401  13.916   8.550
 6646POPC   C2B30548  21.328  13.831   8.250
 6646POPC   C3B30549  21.345  13.831   7.950
 6646POPC   C4B30550  21.328  13.916   7.650
 6647POPC   NC330551   7.464   0.465   9.450
 6647POPC   PO430552   7.434   0.439   9.150
 6647POPC   GL130553   7.386   0.415   8.850
 6647POPC   GL230554   7.362   0.406   8.850
 6647POPC   C1A30555   7.390   0.487   8.550
 6647POPC   D2A30556   7.371   0.440   8.250
 6647POPC   C3A30557   7.396   0.484   7.950
 6647POPC   C4A30558   7.384   0.460   7.650
 6647POPC   C1B30559   7.182   0.323   8.550
 6647POPC   C2B30560   7.197   0.339   8.250
 6647POPC   C3B30561   7.161   0.329   7.950
 6647POPC   C4B30562   7.168   0.317   7.650
 6648POPC   NC330563  39.281  30.731   9.450
 6648POPC   PO430564  39.199  30.721   9.150
 6648POPC   GL130565  39.279  30.675   8.850
 6648POPC   GL230566  39.173  30.590   8.850
 6648POPC   C1A30567  39.260  30.715   8.550
 6648POPC   D2A30568  39.189  30.700   8.250
 6648POPC   C3A30569  39.226  30.693   7.950
 6648POPC   C4A30570  39.204  30.724   7.650
 6648POPC   C1B30571  39.121  30.437   8.550
 6648POPC   C2B30572  39.159  30.508   8.250
 6648POPC   C3B30573  39.113  30.495   7.950
 6648POPC   C4B30574  39.149  30.456   7.650
 6649POPC   NC330575   9.770  19.054   9.450
 6649POPC   PO430576   9.717  19.013   9.150
 6649POPC   GL130577   9.739  19.108   8.850
 6649POPC   GL230578   9.690  18.953   8.850
 6649POPC   C1A30579   9.760  19.032   8.550
 6649POPC   D2A30580   9.722  19.085   8.250
 6649POPC   C3A30581   9.757  19.052   7.950
 6649POPC   C4A30582   9.760  19.088   7.650
 6649POPC   C1B30583   9.511  18.886   8.550
 6649POPC   C2B30584   9.518  18.915   8.250
 6649POPC   C3B30585   9.577  18.895   7.950
 6649POPC   C4B30586   9.492  18.912   7.650
 6650POPC   NC330587   3.567  20.565   9.450
 6650POPC   PO430588   3.495  20.634   9.150
 6650POPC   GL130589   3.574  20.597   8.850
 6650POPC   GL230590   3.545  20.696   8.850
 6650POPC   C1A30591   3.591  20.613   8.550
 6650POPC   D2A30592   3.588  20.590   8.250
 6650POPC   C3A30593   3.550  20.634   7.950
 6650POPC   C4A30594   3.522  20.582   7.650
 6650POPC   C1B30595   3.616  20.882   8.550
 6650POPC   C2B30596   3.644  20.880   8.250
 6650POPC   C3B30597   3.615  20.834   7.950
 6650POPC   C4B30598   3.656  20.865   7.650
 6651POPC   NC330599  15.942  14.404   9.450
 6651POPC   PO430600  15.916  14.396   9.150
 6651POPC   GL130601  15.942  14.421   8.850
 6651POPC   GL230602  15.928  14.328   8.850
 6651POPC   C1A30603  15.996  14.392   8.550
 6651POPC   D2A30604  15.932  14.394   8.250
 6651POPC   C3A30605  15.989  14.397   7.950
 6651POPC   C4A30606  15.956  14.416   7.650
 6651POPC   C1B30607  15.827  14.165   8.550
 6651POPC   C2B30608  15.809  14.219   8.250
 6651POPC   C3B30609  15.838  14.151   7.950
 6651POPC   C4B30610  15.840  14.212   7.650
 6652POPC   NC330611  21.399  20.637   9.450
 6652POPC   PO430612  21.344  20.602   9.150
 6652POPC   GL130613  21.403  20.602   8.850
 6652POPC   GL230614  21.308  20.444   8.850
 6652POPC   C1A30615  21.346  20.617   8.550
 6652POPC   D2A30616  21.421  20.624   8.250
 6652POPC   C3A30617  21.404  20.647   7.950
 6652POPC   C4A30618  21.400  20.602   7.650
 6652POPC   C1B30619  21.340  20.341   8.550
 6652POPC   C2B30620  21.328  20.381   8.250
 6652POPC   C3B30621  21.316  20.414   7.950
 6652POPC   C4B30622  21.333  20.348   7.650
 6653POPC   NC330623  37.717  23.689   9.450
 6653POPC   PO430624  37.664  23.727   9.150
 6653POPC   GL130625  37.728  23.665   8.850
 6653POPC   GL230626  37.824  23.698   8.850
 6653POPC   C1A30627  37.719  23.716   8.550
 6653POPC   D2A30628  37.640  23.701   8.250
 6653POPC   C3A30629  37.667  23.690   7.950
 6653POPC   C4A30630  37.710  23.759   7.650
 6653POPC   C1B30631  37.904  23.747   8.550
 6653POPC   C2B30632  37.900  23.735   8.250
 6653POPC   C3B30633  37.907  23.796   7.950
 6653POPC   C4B30634  37.961  23.801   7.650
 6654POPC   NC330635  14.378  29.107   9.450
 6654POPC   PO430636  14.420  29.148   9.150
 6654POPC   GL130637  14.445  29.126   8.850
 6654POPC   GL230638  14.504  29.036   8.850
 6654POPC   C1A30639  14.372  29.117   8.550
 6654POPC   D2A30640  14.421  29.131   8.250
 6654POPC   C3A30641  14.419  29.173   7.950
 6654POPC   C4A30642  14.385  29.149   7.650
 6654POPC   C1B30643  14.532  28.942   8.550
 6654POPC   C2B30644  14.565  28.932   8.250
 6654POPC   C3B30645  14.474  28.888   7.950
 6654POPC   C4B30646  14.535  28.956   7.650
 6655POPC   NC330647  27.547  22.944   9.450
 6655POPC   PO430648  27.549  22.939   9.150
 6655POPC   GL130649  27.595  22.973   8.850
 6655POPC   GL230650  27.670  22.812   8.850
 6655POPC   C1A30651  27.558  22.889   8.550
 6655POPC   D2A30652  27.597  22.974   8.250
 6655POPC   C3A30653  27.551  22.978   7.950
 6655POPC   C4A30654  27.583  22.965   7.650
 6655POPC   C1B30655  27.733  22.737   8.550
 6655POPC   C2B30656  27.760  22.747   8.250
 6655POPC   C3B30657  27.760  22.746   7.950
 6655POPC   C4B30658  27.778  22.752   7.650
 6656POPC   NC330659  25.297  39.197   9.450
 6656POPC   PO430660  25.259  39.227   9.150
 6656POPC   GL130661  25.249  39.226   8.850
 6656POPC   GL230662  25.287  39.060   8.850
 6656POPC   C1A30663  25.228  39.195   8.550
 6656POPC   D2A30664  25.219  39.204   8.250
 6656POPC   C3A30665  25.279  39.235   7.950
 6656POPC   C4A30666  25.309  39.192   7.650
 6656POPC   C1B30667  25.314  38.949   8.550
 6656POPC   C2B30668  25.364  38.957   8.250
 6656POPC   C3B30669  25.324  38.992   7.950
 6656POPC   C4B30670  25.329  38.990   7.650
 6657POPC   NC330671   6.633  26.800   9.450
 6657POPC   PO430672   6.636  26.769   9.150
 6657POPC   GL130673   6.673  26.824   8.850
 6657POPC   GL230674   6.779  26.848   8.850
 6657POPC   C1A30675   6.678  26.774   8.550
 6657POPC   D2A30676   6.689  26.804   8.250
 6657POPC   C3A30677   6.657  26.814   7.950
 6657POPC   C4A30678   6.664  26.813   7.650
 6657POPC   C1B30679   6.938  26.811   8.550
 6657POPC   C2B30680   6.891  26.816   8.250
 6657POPC   C3B30681   6.934  26.798   7.950
 6657POPC   C4B30682   6.929  26.858   7.650
 6658POPC   NC330683  41.572  44.633   9.450
 6658POPC   PO430684  41.540  44.614   9.150
 6658POPC   GL130685  41.509  44.708   8.850
 6658POPC   GL230686  41.645  44.555   8.850
 6658POPC   C1A30687  41.585  44.673   8.550
 6658POPC   D2A30688  41.512  44.658   8.250
 6658POPC   C3A30689  41.562  44.622   7.950
 6658POPC   C4A30690  41.563  44.701   7.650
 6658POPC   C1B30691  41.706  44.498   8.550
 6658POPC   C2B30692  41.735  44.520   8.250
 6658POPC   C3B30693  41.687  44.481   7.950
 6658POPC   C4B30694  41.745  44.457   7.650
 6659POPC   NC330695  14.393  35.348   9.450
 6659POPC   PO430696  14.419  35.325   9.150
 6659POPC   GL130697  14.449  35.364   8.850
 6659POPC   GL230698  14.427  35.285   8.850
 6659POPC   C1A30699  14.441  35.339   8.550
 6659POPC   D2A30700  14.433  35.305   8.250
 6659POPC   C3A30701  14.357  35.400   7.950
 6659POPC   C4A30702  14.426  35.340   7.650
 6659POPC   C1B30703  14.478  35.163   8.550
 6659POPC   C2B30704  14.469  35.102   8.250
 6659POPC   C3B30705  14.467  35.112   7.950
 6659POPC   C4B30706  14.542  35.110   7.650
 6660POPC   NC330707   6.612  16.759   9.450
 6660POPC   PO430708   6.662  16.770   9.150
 6660POPC   GL130709   6.668  16.710   8.850
 6660POPC   GL230710   6.658  16.839   8.850
 6660POPC   C1A30711   6.656  16.689   8.550
 6660POPC   D2A30712   6.619  16.707   8.250
 6660POPC   C3A30713   6.655  16.729   7.950
 6660POPC   C4A30714   6.687  16.719   7.650
 6660POPC   C1B30715   6.648  16.984   8.550
 6660POPC   C2B30716   6.586  17.011   8.250
 6660POPC   C3B30717   6.589  16.975   7.950
 6660POPC   C4B30718   6.628  16.977   7.650
 6661POPC   NC330719   9.727  35.396   9.450
 6661POPC   PO430720   9.754  35.306   9.150
 6661POPC   GL130721   9.779  35.344   8.850
 6661POPC   GL230722   9.639  35.245   8.850
 6661POPC   C1A30723   9.712  35.351   8.550
 6661POPC   D2A30724   9.751  35.326   8.250
 6661POPC   C3A30725   9.780  35.393   7.950
 6661POPC   C4A30726   9.796  35.347   7.650
 6661POPC   C1B30727   9.550  35.218   8.550
 6661POPC   C2B30728   9.543  35.213   8.250
 6661POPC   C3B30729   9.525  35.185   7.950
 6661POPC   C4B30730   9.582  35.210   7.650
 6662POPC   NC330731  12.077  16.772   9.450
 6662POPC   PO430732  12.103  16.704   9.150
 6662POPC   GL130733  12.089  16.709   8.850
 6662POPC   GL230734  12.043  16.846   8.850
 6662POPC   C1A30735  12.038  16.684   8.550
 6662POPC   D2A30736  12.068  16.739   8.250
 6662POPC   C3A30737  12.043  16.735   7.950
 6662POPC   C4A30738  12.073  16.768   7.650
 6662POPC   C1B30739  11.981  16.942   8.550
 6662POPC   C2B30740  11.959  16.973   8.250
 6662POPC   C3B30741  11.980  16.997   7.950
 6662POPC   C4B30742  11.927  16.984   7.650
 6663POPC   NC330743  28.333  40.814   9.450
 6663POPC   PO430744  28.328  40.780   9.150
 6663POPC   GL130745  28.376  40.830   8.850
 6663POPC   GL230746  28.467  40.683   8.850
 6663POPC   C1A30747  28.414  40.802   8.550
 6663POPC   D2A30748  28.359  40.737   8.250
 6663POPC   C3A30749  28.319  40.815   7.950
 6663POPC   C4A30750  28.415  40.767   7.650
 6663POPC   C1B30751  28.508  40.582   8.550
 6663POPC   C2B30752  28.423  40.543   8.250
 6663POPC   C3B30753  28.452  40.518   7.950
 6663POPC   C4B30754  28.423  40.517   7.650
 6664POPC   NC330755  35.313  12.822   9.450
 6664POPC   PO430756  35.372  12.822   9.150
 6664POPC   GL130757  35.317  12.838   8.850
 6664POPC   GL230758  35.241  12.754   8.850
 6664POPC   C1A30759  35.344  12.870   8.550
 6664POPC   D2A30760  35.323  12.871   8.250
 6664POPC   C3A30761  35.392  12.882   7.950
 6664POPC   C4A30762  35.333  12.805   7.650
 6664POPC   C1B30763  35.111  12.706   8.550
 6664POPC   C2B30764  35.147  12.759   8.250
 6664POPC   C3B30765  35.134  12.712   7.950
 6664POPC   C4B30766  35.090  12.677   7.650
 6665POPC   NC330767  33.773  15.216   9.450
 6665POPC   PO430768  33.815  15.175   9.150
 6665POPC   GL130769  33.766  15.134   8.850
 6665POPC   GL230770  33.906  15.094   8.850
 6665POPC   C1A30771  33.751  15.209   8.550
 6665POPC   D2A30772  33.814  15.142   8.250
 6665POPC   C3A30773  33.752  15.186   7.950
 6665POPC   C4A30774  33.842  15.168   7.650
 6665POPC   C1B30775  33.982  15.038   8.550
 6665POPC   C2B30776  34.023  15.054   8.250
 6665POPC   C3B30777  33.979  15.021   7.950
 6665POPC   C4B30778  33.982  15.005   7.650
 6666POPC   NC330779  37.640  25.254   9.450
 6666POPC   PO430780  37.709  25.300   9.150
 6666POPC   GL130781  37.700  25.237   8.850
 6666POPC   GL230782  37.821  25.219   8.850
 6666POPC   C1A30783  37.703  25.253   8.550
 6666POPC   D2A30784  37.707  25.315   8.250
 6666POPC   C3A30785  37.678  25.282   7.950
 6666POPC   C4A30786  37.727  25.297   7.650
 6666POPC   C1B30787  37.864  25.061   8.550
 6666POPC   C2B30788  37.863  25.138   8.250
 6666POPC   C3B30789  37.828  25.089   7.950
 6666POPC   C4B30790  37.909  25.071   7.650
 6667POPC   NC330791  33.784   4.311   9.450
 6667POPC   PO430792  33.849   4.366   9.150
 6667POPC   GL130793  33.846   4.366   8.850
 6667POPC   GL230794  33.707   4.393   8.850
 6667POPC   C1A30795  33.818   4.279   8.550
 6667POPC   D2A30796  33.789   4.282   8.250
 6667POPC   C3A30797  33.756   4.303   7.950
 6667POPC   C4A30798  33.824   4.356   7.650
 6667POPC   C1B30799  33.634   4.525   8.550
 6667POPC   C2B30800  33.655   4.516   8.250
 6667POPC   C3B30801  33.612   4.512   7.950
 6667POPC   C4B30802  33.654   4.491   7.650
 6668POPC   NC330803   9.716  29.945   9.450
 6668POPC   PO430804   9.720  29.956   9.150
 6668POPC   GL130805   9.718  29.877   8.850
 6668POPC   GL230806   9.665  29.995   8.850
 6668POPC   C1A30807   9.755  29.929   8.550
 6668POPC   D2A30808   9.711  29.911   8.250
 6668POPC   C3A30809   9.759  29.925   7.950
 6668POPC   C4A30810   9.712  29.907   7.650
 6668POPC   C1B30811   9.576  30.057   8.550
 6668POPC   C2B30812   9.579  30.045   8.250
 6668POPC   C3B30813   9.586  30.063   7.950
 6668POPC   C4B30814   9.549  30.057   7.650
 6669POPC   NC330815  31.468  35.355   9.450
 6669POPC   PO430816  31.433  35.328   9.150
 6669POPC   GL130817  31.483  35.358   8.850
 6669POPC   GL230818  31.398  35.309   8.850
 6669POPC   C1A30819  31.445  35.395   8.550
 6669POPC   D2A30820  31.454  35.390   8.250
 6669POPC   C3A30821  31.444  35.347   7.950
 6669POPC   C4A30822  31.488  35.325   7.650
 6669POPC   C1B30823  31.269  35.177   8.550
 6669POPC   C2B30824  31.328  35.138   8.250
 6669POPC   C3B30825  31.324  35.222   7.950
 6669POPC   C4B30826  31.290  35.205   7.650
 6670POPC   NC330827  36.914   0.389   9.450
 6670POPC   PO430828  36.881   0.448   9.150
 6670POPC   GL130829  36.935   0.404   8.850
 6670POPC   GL230830  36.823   0.408   8.850
 6670POPC   C1A30831  36.883   0.391   8.550
 6670POPC   D2A30832  36.881   0.390   8.250
 6670POPC   C3A30833  36.914   0.466   7.950
 6670POPC   C4A30834  36.927   0.458   7.650
 6670POPC   C1B30835  36.718   0.330   8.550
 6670POPC   C2B30836  36.681   0.310   8.250
 6670POPC   C3B30837  36.640   0.358   7.950
 6670POPC   C4B30838  36.653   0.303   7.650
 6671POPC   NC330839  29.921  19.857   9.450
 6671POPC   PO430840  29.964  19.862   9.150
 6671POPC   GL130841  29.908  19.846   8.850
 6671POPC   GL230842  30.037  19.883   8.850
 6671POPC   C1A30843  29.892  19.837   8.550
 6671POPC   D2A30844  29.931  19.863   8.250
 6671POPC   C3A30845  29.900  19.792   7.950
 6671POPC   C4A30846  29.873  19.852   7.650
 6671POPC   C1B30847  30.108  20.008   8.550
 6671POPC   C2B30848  30.063  20.045   8.250
 6671POPC   C3B30849  30.098  20.028   7.950
 6671POPC   C4B30850  30.033  20.069   7.650
 6672POPC   NC330851  26.865   5.885   9.450
 6672POPC   PO430852  26.819   5.911   9.150
 6672POPC   GL130853  26.785   5.868   8.850
 6672POPC   GL230854  26.923   5.914   8.850
 6672POPC   C1A30855  26.794   5.858   8.550
 6672POPC   D2A30856  26.804   5.876   8.250
 6672POPC   C3A30857  26.774   5.894   7.950
 6672POPC   C4A30858  26.807   5.824   7.650
 6672POPC   C1B30859  27.022   5.920   8.550
 6672POPC   C2B30860  27.064   5.958   8.250
 6672POPC   C3B30861  27.028   5.975   7.950
 6672POPC   C4B30862  27.099   5.919   7.650
 6673POPC   NC330863  43.912  12.079   9.450
 6673POPC   PO430864  43.904  12.109   9.150
 6673POPC   GL130865  43.884  12.090   8.850
 6673POPC   GL230866  43.993  12.141   8.850
 6673POPC   C1A30867  43.863  12.069   8.550
 6673POPC   D2A30868  43.853  12.122   8.250
 6673POPC   C3A30869  43.851  12.109   7.950
 6673POPC   C4A30870  43.901  12.071   7.650
 6673POPC   C1B30871  44.043  12.246   8.550
 6673POPC   C2B30872  43.987  12.300   8.250
 6673POPC   C3B30873  44.030  12.274   7.950
 6673POPC   C4B30874  44.017  12.296   7.650
 6674POPC   NC330875  12.836   5.069   9.450
 6674POPC   PO430876  12.835   5.099   9.150
 6674POPC   GL130877  12.878   5.063   8.850
 6674POPC   GL230878  12.918   5.031   8.850
 6674POPC   C1A30879  12.835   5.085   8.550
 6674POPC   D2A30880  12.830   5.064   8.250
 6674POPC   C3A30881  12.810   5.105   7.950
 6674POPC   C4A30882  12.819   5.127   7.650
 6674POPC   C1B30883  13.019   4.881   8.550
 6674POPC   C2B30884  12.965   4.875   8.250
 6674POPC   C3B30885  13.046   4.933   7.950
 6674POPC   C4B30886  12.977   4.856   7.650
 6675POPC   NC330887   1.991  19.861   9.450
 6675POPC   PO430888   1.966  19.878   9.150
 6675POPC   GL130889   1.983  19.824   8.850
 6675POPC   GL230890   1.908  19.673   8.850
 6675POPC   C1A30891   2.013  19.818   8.550
 6675POPC   D2A30892   2.031  19.831   8.250
 6675POPC   C3A30893   2.011  19.819   7.950
 6675POPC   C4A30894   1.955  19.861   7.650
 6675POPC   C1B30895   1.921  19.633   8.550
 6675POPC   C2B30896   1.897  19.646   8.250
 6675POPC   C3B30897   1.876  19.549   7.950
 6675POPC   C4B30898   1.921  19.581   7.650
 6676POPC   NC330899   8.195   6.610   9.450
 6676POPC   PO430900   8.198   6.680   9.150
 6676POPC   GL130901   8.200   6.617   8.850
 6676POPC   GL230902   8.312   6.553   8.850
 6676POPC   C1A30903   8.153   6.625   8.550
 6676POPC   D2A30904   8.208   6.635   8.250
 6676POPC   C3A30905   8.167   6.602   7.950
 6676POPC   C4A30906   8.202   6.601   7.650
 6676POPC   C1B30907   8.377   6.436   8.550
 6676POPC   C2B30908   8.359   6.455   8.250
 6676POPC   C3B30909   8.360   6.459   7.950
 6676POPC   C4B30910   8.380   6.432   7.650
 6677POPC   NC330911  37.644  20.656   9.450
 6677POPC   PO430912  37.645  20.588   9.150
 6677POPC   GL130913  37.700  20.585   8.850
 6677POPC   GL230914  37.526  20.600   8.850
 6677POPC   C1A30915  37.700  20.571   8.550
 6677POPC   D2A30916  37.651  20.565   8.250
 6677POPC   C3A30917  37.649  20.615   7.950
 6677POPC   C4A30918  37.709  20.602   7.650
 6677POPC   C1B30919  37.386  20.630   8.550
 6677POPC   C2B30920  37.419  20.671   8.250
 6677POPC   C3B30921  37.396  20.606   7.950
 6677POPC   C4B30922  37.394  20.649   7.650
 6678POPC   NC330923   4.317  15.158   9.450
 6678POPC   PO430924   4.317  15.182   9.150
 6678POPC   GL130925   4.362  15.133   8.850
 6678POPC   GL230926   4.300  15.314   8.850
 6678POPC   C1A30927   4.295  15.157   8.550
 6678POPC   D2A30928   4.366  15.218   8.250
 6678POPC   C3A30929   4.347  15.199   7.950
 6678POPC   C4A30930   4.309  15.138   7.650
 6678POPC   C1B30931   4.223  15.448   8.550
 6678POPC   C2B30932   4.262  15.381   8.250
 6678POPC   C3B30933   4.185  15.420   7.950
 6678POPC   C4B30934   4.188  15.380   7.650
 6679POPC   NC330935  23.737  22.178   9.450
 6679POPC   PO430936  23.685  22.155   9.150
 6679POPC   GL130937  23.665  22.127   8.850
 6679POPC   GL230938  23.622  22.183   8.850
 6679POPC   C1A30939  23.688  22.200   8.550
 6679POPC   D2A30940  23.721  22.151   8.250
 6679POPC   C3A30941  23.736  22.136   7.950
 6679POPC   C4A30942  23.707  22.209   7.650
 6679POPC   C1B30943  23.518  22.252   8.550
 6679POPC   C2B30944  23.426  22.208   8.250
 6679POPC   C3B30945  23.432  22.264   7.950
 6679POPC   C4B30946  23.468  22.241   7.650
 6680POPC   NC330947  36.177  29.135   9.450
 6680POPC   PO430948  36.142  29.147   9.150
 6680POPC   GL130949  36.087  29.184   8.850
 6680POPC   GL230950  36.055  29.100   8.850
 6680POPC   C1A30951  36.162  29.119   8.550
 6680POPC   D2A30952  36.170  29.193   8.250
 6680POPC   C3A30953  36.171  29.177   7.950
 6680POPC   C4A30954  36.166  29.173   7.650
 6680POPC   C1B30955  35.961  29.002   8.550
 6680POPC   C2B30956  35.917  29.019   8.250
 6680POPC   C3B30957  35.878  28.999   7.950
 6680POPC   C4B30958  35.881  29.015   7.650
 6681POPC   NC330959  35.341   6.690   9.450
 6681POPC   PO430960  35.357   6.674   9.150
 6681POPC   GL130961  35.377   6.681   8.850
 6681POPC   GL230962  35.432   6.623   8.850
 6681POPC   C1A30963  35.380   6.660   8.550
 6681POPC   D2A30964  35.390   6.646   8.250
 6681POPC   C3A30965  35.352   6.610   7.950
 6681POPC   C4A30966  35.378   6.654   7.650
 6681POPC   C1B30967  35.594   6.493   8.550
 6681POPC   C2B30968  35.570   6.505   8.250
 6681POPC   C3B30969  35.587   6.522   7.950
 6681POPC   C4B30970  35.597   6.550   7.650
 6682POPC   NC330971  19.795  44.686   9.450
 6682POPC   PO430972  19.825  44.664   9.150
 6682POPC   GL130973  19.861  44.642   8.850
 6682POPC   GL230974  19.798  44.713   8.850
 6682POPC   C1A30975  19.843  44.631   8.550
 6682POPC   D2A30976  19.824  44.674   8.250
 6682POPC   C3A30977  19.825  44.710   7.950
 6682POPC   C4A30978  19.874  44.632   7.650
 6682POPC   C1B30979  19.703  44.875   8.550
 6682POPC   C2B30980  19.634  44.822   8.250
 6682POPC   C3B30981  19.676  44.882   7.950
 6682POPC   C4B30982  19.646  44.812   7.650
 6683POPC   NC330983  25.217  19.812   9.450
 6683POPC   PO430984  25.240  19.794   9.150
 6683POPC   GL130985  25.262  19.824   8.850
 6683POPC   GL230986  25.315  19.744   8.850
 6683POPC   C1A30987  25.285  19.864   8.550
 6683POPC   D2A30988  25.256  19.791   8.250
 6683POPC   C3A30989  25.251  19.788   7.950
 6683POPC   C4A30990  25.286  19.877   7.650
 6683POPC   C1B30991  25.406  19.619   8.550
 6683POPC   C2B30992  25.409  19.629   8.250
 6683POPC   C3B30993  25.475  19.653   7.950
 6683POPC   C4B30994  25.487  19.648   7.650
 6684POPC   NC330995   8.925  43.840   9.450
 6684POPC   PO430996   8.959  43.889   9.150
 6684POPC   GL130997   8.950  43.847   8.850
 6684POPC   GL230998   8.930  43.809   8.850
 6684POPC   C1A30999   8.993  43.876   8.550
 6684POPC   D2A31000   8.960  43.854   8.250
 6684POPC   C3A31001   8.993  43.863   7.950
 6684POPC   C4A31002   8.976  43.874   7.650
 6684POPC   C1B31003   8.804  43.680   8.550
 6684POPC   C2B31004   8.847  43.654   8.250
 6684POPC   C3B31005   8.813  43.699   7.950
 6684POPC   C4B31006   8.838  43.670   7.650
 6685POPC   NC331007  32.986  33.795   9.450
 6685POPC   PO431008  33.045  33.795   9.150
 6685POPC   GL131009  33.025  33.793   8.850
 6685POPC   GL231010  32.955  33.845   8.850
 6685POPC   C1A31011  33.033  33.759   8.550
 6685POPC   D2A31012  33.006  33.833   8.250
 6685POPC   C3A31013  33.062  33.771   7.950
 6685POPC   C4A31014  32.984  33.782   7.650
 6685POPC   C1B31015  32.746  33.927   8.550
 6685POPC   C2B31016  32.818  33.947   8.250
 6685POPC   C3B31017  32.767  33.891   7.950
 6685POPC   C4B31018  32.751  33.904   7.650
 6686POPC   NC331019  23.729  27.641   9.450
 6686POPC   PO431020  23.748  27.582   9.150
 6686POPC   GL131021  23.684  27.561   8.850
 6686POPC   GL231022  23.764  27.517   8.850
 6686POPC   C1A31023  23.675  27.621   8.550
 6686POPC   D2A31024  23.716  27.625   8.250
 6686POPC   C3A31025  23.755  27.566   7.950
 6686POPC   C4A31026  23.715  27.633   7.650
 6686POPC   C1B31027  23.921  27.467   8.550
 6686POPC   C2B31028  23.926  27.436   8.250
 6686POPC   C3B31029  23.848  27.452   7.950
 6686POPC   C4B31030  23.898  27.444   7.650
 6687POPC   NC331031   9.758  43.851   9.450
 6687POPC   PO431032   9.782  43.908   9.150
 6687POPC   GL131033   9.736  43.933   8.850
 6687POPC   GL231034   9.631  43.994   8.850
 6687POPC   C1A31035   9.751  43.932   8.550
 6687POPC   D2A31036   9.726  43.915   8.250
 6687POPC   C3A31037   9.753  43.846   7.950
 6687POPC   C4A31038   9.702  43.838   7.650
 6687POPC   C1B31039   9.574  44.056   8.550
 6687POPC   C2B31040   9.591  44.114   8.250
 6687POPC   C3B31041   9.652  44.136   7.950
 6687POPC   C4B31042   9.589  44.132   7.650
 6688POPC   NC331043  21.430  37.640   9.450
 6688POPC   PO431044  21.367  37.663   9.150
 6688POPC   GL131045  21.388  37.636   8.850
 6688POPC   GL231046  21.489  37.643   8.850
 6688POPC   C1A31047  21.421  37.688   8.550
 6688POPC   D2A31048  21.406  37.722   8.250
 6688POPC   C3A31049  21.400  37.657   7.950
 6688POPC   C4A31050  21.360  37.681   7.650
 6688POPC   C1B31051  21.663  37.582   8.550
 6688POPC   C2B31052  21.648  37.590   8.250
 6688POPC   C3B31053  21.629  37.552   7.950
 6688POPC   C4B31054  21.586  37.613   7.650
 6689POPC   NC331055   1.212   5.850   9.450
 6689POPC   PO431056   1.202   5.914   9.150
 6689POPC   GL131057   1.236   5.844   8.850
 6689POPC   GL231058   1.301   5.944   8.850
 6689POPC   C1A31059   1.222   5.828   8.550
 6689POPC   D2A31060   1.186   5.821   8.250
 6689POPC   C3A31061   1.197   5.844   7.950
 6689POPC   C4A31062   1.218   5.841   7.650
 6689POPC   C1B31063   1.437   5.955   8.550
 6689POPC   C2B31064   1.492   5.902   8.250
 6689POPC   C3B31065   1.467   5.970   7.950
 6689POPC   C4B31066   1.436   5.892   7.650
 6690POPC   NC331067  34.595  29.937   9.450
 6690POPC   PO431068  34.560  29.953   9.150
 6690POPC   GL131069  34.594  29.966   8.850
 6690POPC   GL231070  34.642  29.818   8.850
 6690POPC   C1A31071  34.570  29.905   8.550
 6690POPC   D2A31072  34.547  29.892   8.250
 6690POPC   C3A31073  34.581  29.955   7.950
 6690POPC   C4A31074  34.607  29.963   7.650
 6690POPC   C1B31075  34.829  29.836   8.550
 6690POPC   C2B31076  34.768  29.811   8.250
 6690POPC   C3B31077  34.773  29.766   7.950
 6690POPC   C4B31078  34.834  29.821   7.650
 6691POPC   NC331079  19.050   2.021   9.450
 6691POPC   PO431080  19.031   1.953   9.150
 6691POPC   GL131081  19.019   2.016   8.850
 6691POPC   GL231082  19.003   1.910   8.850
 6691POPC   C1A31083  19.025   2.036   8.550
 6691POPC   D2A31084  19.091   2.014   8.250
 6691POPC   C3A31085  19.011   1.974   7.950
 6691POPC   C4A31086  19.009   1.959   7.650
 6691POPC   C1B31087  18.997   1.733   8.550
 6691POPC   C2B31088  18.998   1.717   8.250
 6691POPC   C3B31089  18.988   1.740   7.950
 6691POPC   C4B31090  18.994   1.715   7.650
 6692POPC   NC331091  39.229  23.670   9.450
 6692POPC   PO431092  39.219  23.729   9.150
 6692POPC   GL131093  39.182  23.681   8.850
 6692POPC   GL231094  39.158  23.678   8.850
 6692POPC   C1A31095  39.187  23.664   8.550
 6692POPC   D2A31096  39.182  23.740   8.250
 6692POPC   C3A31097  39.263  23.761   7.950
 6692POPC   C4A31098  39.261  23.721   7.650
 6692POPC   C1B31099  39.030  23.542   8.550
 6692POPC   C2B31100  39.045  23.566   8.250
 6692POPC   C3B31101  39.048  23.547   7.950
 6692POPC   C4B31102  38.979  23.577   7.650
 6693POPC   NC331103  15.152   9.777   9.450
 6693POPC   PO431104  15.194   9.773   9.150
 6693POPC   GL131105  15.213   9.736   8.850
 6693POPC   GL231106  15.091   9.662   8.850
 6693POPC   C1A31107  15.181   9.789   8.550
 6693POPC   D2A31108  15.224   9.764   8.250
 6693POPC   C3A31109  15.190   9.725   7.950
 6693POPC   C4A31110  15.168   9.780   7.650
 6693POPC   C1B31111  14.934   9.656   8.550
 6693POPC   C2B31112  14.927   9.623   8.250
 6693POPC   C3B31113  14.923   9.589   7.950
 6693POPC   C4B31114  14.966   9.579   7.650
 6694POPC   NC331115  36.865  29.151   9.450
 6694POPC   PO431116  36.914  29.137   9.150
 6694POPC   GL131117  36.906  29.133   8.850
 6694POPC   GL231118  36.912  28.997   8.850
 6694POPC   C1A31119  36.908  29.122   8.550
 6694POPC   D2A31120  36.872  29.190   8.250
 6694POPC   C3A31121  36.941  29.099   7.950
 6694POPC   C4A31122  36.861  29.172   7.650
 6694POPC   C1B31123  36.932  28.900   8.550
 6694POPC   C2B31124  36.938  28.943   8.250
 6694POPC   C3B31125  36.965  28.906   7.950
 6694POPC   C4B31126  36.949  28.903   7.650
 6695POPC   NC331127  21.367  40.754   9.450
 6695POPC   PO431128  21.371  40.795   9.150
 6695POPC   GL131129  21.421  40.792   8.850
 6695POPC   GL231130  21.431  40.662   8.850
 6695POPC   C1A31131  21.405  40.802   8.550
 6695POPC   D2A31132  21.414  40.814   8.250
 6695POPC   C3A31133  21.398  40.779   7.950
 6695POPC   C4A31134  21.389  40.746   7.650
 6695POPC   C1B31135  21.497  40.553   8.550
 6695POPC   C2B31136  21.484  40.573   8.250
 6695POPC   C3B31137  21.516  40.508   7.950
 6695POPC   C4B31138  21.482  40.502   7.650
 6696POPC   NC331139  22.955  25.992   9.450
 6696POPC   PO431140  22.948  26.064   9.150
 6696POPC   GL131141  22.966  26.013   8.850
 6696POPC   GL231142  22.921  25.900   8.850
 6696POPC   C1A31143  22.955  26.090   8.550
 6696POPC   D2A31144  22.927  26.058   8.250
 6696POPC   C3A31145  22.901  26.018   7.950
 6696POPC   C4A31146  22.927  26.010   7.650
 6696POPC   C1B31147  22.791  25.841   8.550
 6696POPC   C2B31148  22.839  25.831   8.250
 6696POPC   C3B31149  22.833  25.826   7.950
 6696POPC   C4B31150  22.834  25.812   7.650
 6697POPC   NC331151   2.795   7.467   9.450
 6697POPC   PO431152   2.777   7.415   9.150
 6697POPC   GL131153   2.808   7.400   8.850
 6697POPC   GL231154   2.842   7.377   8.850
 6697POPC   C1A31155   2.801   7.469   8.550
 6697POPC   D2A31156   2.743   7.415   8.250
 6697POPC   C3A31157   2.757   7.468   7.950
 6697POPC   C4A31158   2.776   7.440   7.650
 6697POPC   C1B31159   2.976   7.266   8.550
 6697POPC   C2B31160   2.933   7.266   8.250
 6697POPC   C3B31161   2.942   7.265   7.950
 6697POPC   C4B31162   3.018   7.272   7.650
 6698POPC   NC331163  12.896  38.478   9.450
 6698POPC   PO431164  12.858  38.412   9.150
 6698POPC   GL131165  12.881  38.438   8.850
 6698POPC   GL231166  13.003  38.417   8.850
 6698POPC   C1A31167  12.844  38.441   8.550
 6698POPC   D2A31168  12.850  38.458   8.250
 6698POPC   C3A31169  12.840  38.434   7.950
 6698POPC   C4A31170  12.870  38.431   7.650
 6698POPC   C1B31171  13.084  38.474   8.550
 6698POPC   C2B31172  13.097  38.436   8.250
 6698POPC   C3B31173  13.060  38.466   7.950
 6698POPC   C4B31174  13.056  38.442   7.650
 6699POPC   NC331175  28.339  21.370   9.450
 6699POPC   PO431176  28.408  21.418   9.150
 6699POPC   GL131177  28.405  21.345   8.850
 6699POPC   GL231178  28.468  21.499   8.850
 6699POPC   C1A31179  28.405  21.341   8.550
 6699POPC   D2A31180  28.371  21.399   8.250
 6699POPC   C3A31181  28.351  21.350   7.950
 6699POPC   C4A31182  28.368  21.363   7.650
 6699POPC   C1B31183  28.586  21.536   8.550
 6699POPC   C2B31184  28.518  21.573   8.250
 6699POPC   C3B31185  28.521  21.577   7.950
 6699POPC   C4B31186  28.532  21.557   7.650
 6700POPC   NC331187  33.839   9.013   9.450
 6700POPC   PO431188  33.808   8.927   9.150
 6700POPC   GL131189  33.803   8.955   8.850
 6700POPC   GL231190  33.941   8.934   8.850
 6700POPC   C1A31191  33.751   9.005   8.550
 6700POPC   D2A31192  33.777   8.990   8.250
 6700POPC   C3A31193  33.772   8.924   7.950
 6700POPC   C4A31194  33.823   8.955   7.650
 6700POPC   C1B31195  34.023   8.885   8.550
 6700POPC   C2B31196  33.989   8.834   8.250
 6700POPC   C3B31197  33.960   8.879   7.950
 6700POPC   C4B31198  33.978   8.816   7.650
 6701POPC   NC331199  36.874  29.937   9.450
 6701POPC   PO431200  36.901  29.875   9.150
 6701POPC   GL131201  36.891  29.899   8.850
 6701POPC   GL231202  36.883  30.085   8.850
 6701POPC   C1A31203  36.916  29.922   8.550
 6701POPC   D2A31204  36.923  29.871   8.250
 6701POPC   C3A31205  36.947  29.942   7.950
 6701POPC   C4A31206  36.901  29.918   7.650
 6701POPC   C1B31207  36.873  30.143   8.550
 6701POPC   C2B31208  36.927  30.215   8.250
 6701POPC   C3B31209  36.838  30.142   7.950
 6701POPC   C4B31210  36.859  30.208   7.650
 6702POPC   NC331211  22.969   2.772   9.450
 6702POPC   PO431212  22.913   2.761   9.150
 6702POPC   GL131213  22.956   2.732   8.850
 6702POPC   GL231214  22.917   2.609   8.850
 6702POPC   C1A31215  22.962   2.757   8.550
 6702POPC   D2A31216  22.895   2.784   8.250
 6702POPC   C3A31217  22.910   2.717   7.950
 6702POPC   C4A31218  22.954   2.809   7.650
 6702POPC   C1B31219  22.883   2.507   8.550
 6702POPC   C2B31220  22.909   2.555   8.250
 6702POPC   C3B31221  22.871   2.517   7.950
 6702POPC   C4B31222  22.881   2.506   7.650
 6703POPC   NC331223  35.380  15.210   9.450
 6703POPC   PO431224  35.311  15.144   9.150
 6703POPC   GL131225  35.357  15.225   8.850
 6703POPC   GL231226  35.440  15.070   8.850
 6703POPC   C1A31227  35.370  15.135   8.550
 6703POPC   D2A31228  35.338  15.182   8.250
 6703POPC   C3A31229  35.392  15.149   7.950
 6703POPC   C4A31230  35.341  15.132   7.650
 6703POPC   C1B31231  35.480  15.018   8.550
 6703POPC   C2B31232  35.536  15.022   8.250
 6703POPC   C3B31233  35.513  14.992   7.950
 6703POPC   C4B31234  35.513  14.965   7.650
 6704POPC   NC331235  18.305  12.080   9.450
 6704POPC   PO431236  18.260  12.120   9.150
 6704POPC   GL131237  18.282  12.038   8.850
 6704POPC   GL231238  18.140  12.047   8.850
 6704POPC   C1A31239  18.274  12.074   8.550
 6704POPC   D2A31240  18.259  12.077   8.250
 6704POPC   C3A31241  18.305  12.114   7.950
 6704POPC   C4A31242  18.329  12.080   7.650
 6704POPC   C1B31243  18.057  12.043   8.550
 6704POPC   C2B31244  18.012  11.986   8.250
 6704POPC   C3B31245  18.037  12.036   7.950
 6704POPC   C4B31246  18.051  11.995   7.650
 6705POPC   NC331247  15.156   6.642   9.450
 6705POPC   PO431248  15.171   6.624   9.150
 6705POPC   GL131249  15.210   6.613   8.850
 6705POPC   GL231250  15.205   6.710   8.850
 6705POPC   C1A31251  15.165   6.632   8.550
 6705POPC   D2A31252  15.220   6.609   8.250
 6705POPC   C3A31253  15.162   6.641   7.950
 6705POPC   C4A31254  15.169   6.642   7.650
 6705POPC   C1B31255  15.272   6.887   8.550
 6705POPC   C2B31256  15.265   6.882   8.250
 6705POPC   C3B31257  15.297   6.904   7.950
 6705POPC   C4B31258  15.335   6.874   7.650
 6706POPC   NC331259  23.675  30.713   9.450
 6706POPC   PO431260  23.756  30.697   9.150
 6706POPC   GL131261  23.754  30.658   8.850
 6706POPC   GL231262  23.778  30.774   8.850
 6706POPC   C1A31263  23.761  30.711   8.550
 6706POPC   D2A31264  23.740  30.692   8.250
 6706POPC   C3A31265  23.687  30.679   7.950
 6706POPC   C4A31266  23.744  30.712   7.650
 6706POPC   C1B31267  23.704  30.956   8.550
 6706POPC   C2B31268  23.730  30.995   8.250
 6706POPC   C3B31269  23.743  30.898   7.950
 6706POPC   C4B31270  23.783  30.899   7.650
 6707POPC   NC331271  12.880   1.193   9.450
 6707POPC   PO431272  12.889   1.194   9.150
 6707POPC   GL131273  12.844   1.206   8.850
 6707POPC   GL231274  12.950   1.158   8.850
 6707POPC   C1A31275  12.854   1.244   8.550
 6707POPC   D2A31276  12.865   1.167   8.250
 6707POPC   C3A31277  12.806   1.235   7.950
 6707POPC   C4A31278  12.841   1.253   7.650
 6707POPC   C1B31279  13.098   1.141   8.550
 6707POPC   C2B31280  13.048   1.144   8.250
 6707POPC   C3B31281  13.102   1.107   7.950
 6707POPC   C4B31282  13.097   1.162   7.650
 6708POPC   NC331283  12.884  19.821   9.450
 6708POPC   PO431284  12.812  19.820   9.150
 6708POPC   GL131285  12.803  19.855   8.850
 6708POPC   GL231286  12.841  19.950   8.850
 6708POPC   C1A31287  12.815  19.854   8.550
 6708POPC   D2A31288  12.861  19.801   8.250
 6708POPC   C3A31289  12.807  19.800   7.950
 6708POPC   C4A31290  12.845  19.826   7.650
 6708POPC   C1B31291  12.769  20.035   8.550
 6708POPC   C2B31292  12.773  20.115   8.250
 6708POPC   C3B31293  12.759  20.094   7.950
 6708POPC   C4B31294  12.776  20.092   7.650
 6709POPC   NC331295  29.154  40.744   9.450
 6709POPC   PO431296  29.146  40.830   9.150
 6709POPC   GL131297  29.160  40.746   8.850
 6709POPC   GL231298  29.208  40.667   8.850
 6709POPC   C1A31299  29.104  40.819   8.550
 6709POPC   D2A31300  29.135  40.761   8.250
 6709POPC   C3A31301  29.124  40.781   7.950
 6709POPC   C4A31302  29.167  40.804   7.650
 6709POPC   C1B31303  29.291  40.565   8.550
 6709POPC   C2B31304  29.272  40.624   8.250
 6709POPC   C3B31305  29.327  40.594   7.950
 6709POPC   C4B31306  29.309  40.611   7.650
 6710POPC   NC331307  44.693  24.490   9.450
 6710POPC   PO431308  44.643  24.468   9.150
 6710POPC   GL131309  44.709  24.484   8.850
 6710POPC   GL231310  44.752  24.508   8.850
 6710POPC   C1A31311  44.688  24.481   8.550
 6710POPC   D2A31312  44.638  24.481   8.250
 6710POPC   C3A31313  44.674  24.453   7.950
 6710POPC   C4A31314  44.613  24.452   7.650
 6710POPC   C1B31315  44.867  24.478   8.550
 6710POPC   C2B31316  44.886  24.424   8.250
 6710POPC   C3B31317  44.913  24.501   7.950
 6710POPC   C4B31318  44.898  24.429   7.650
 6711POPC   NC331319  26.836  29.096   9.450
 6711POPC   PO431320  26.853  29.100   9.150
 6711POPC   GL131321  26.811  29.123   8.850
 6711POPC   GL231322  26.862  29.303   8.850
 6711POPC   C1A31323  26.777  29.139   8.550
 6711POPC   D2A31324  26.818  29.136   8.250
 6711POPC   C3A31325  26.824  29.189   7.950
 6711POPC   C4A31326  26.867  29.132   7.650
 6711POPC   C1B31327  26.828  29.350   8.550
 6711POPC   C2B31328  26.904  29.392   8.250
 6711POPC   C3B31329  26.892  29.366   7.950
 6711POPC   C4B31330  26.813  29.419   7.650
 6712POPC   NC331331   1.979  12.887   9.450
 6712POPC   PO431332   1.952  12.832   9.150
 6712POPC   GL131333   2.007  12.822   8.850
 6712POPC   GL231334   1.907  12.804   8.850
 6712POPC   C1A31335   1.958  12.808   8.550
 6712POPC   D2A31336   1.957  12.874   8.250
 6712POPC   C3A31337   1.994  12.833   7.950
 6712POPC   C4A31338   2.007  12.864   7.650
 6712POPC   C1B31339   1.759  12.771   8.550
 6712POPC   C2B31340   1.759  12.759   8.250
 6712POPC   C3B31341   1.766  12.753   7.950
 6712POPC   C4B31342   1.787  12.792   7.650
 6713POPC   NC331343  13.659  15.217   9.450
 6713POPC   PO431344  13.604  15.138   9.150
 6713POPC   GL131345  13.671  15.162   8.850
 6713POPC   GL231346  13.732  15.335   8.850
 6713POPC   C1A31347  13.579  15.213   8.550
 6713POPC   D2A31348  13.633  15.135   8.250
 6713POPC   C3A31349  13.629  15.139   7.950
 6713POPC   C4A31350  13.599  15.148   7.650
 6713POPC   C1B31351  13.766  15.382   8.550
 6713POPC   C2B31352  13.783  15.387   8.250
 6713POPC   C3B31353  13.714  15.433   7.950
 6713POPC   C4B31354  13.753  15.424   7.650
 6714POPC   NC331355  36.918   6.661   9.450
 6714POPC   PO431356  36.892   6.619   9.150
 6714POPC   GL131357  36.940   6.633   8.850
 6714POPC   GL231358  37.047   6.557   8.850
 6714POPC   C1A31359  36.936   6.680   8.550
 6714POPC   D2A31360  36.929   6.629   8.250
 6714POPC   C3A31361  36.878   6.692   7.950
 6714POPC   C4A31362  36.910   6.636   7.650
 6714POPC   C1B31363  37.136   6.472   8.550
 6714POPC   C2B31364  37.143   6.509   8.250
 6714POPC   C3B31365  37.109   6.455   7.950
 6714POPC   C4B31366  37.130   6.484   7.650
 6715POPC   NC331367  15.197  29.192   9.450
 6715POPC   PO431368  15.167  29.131   9.150
 6715POPC   GL131369  15.157  29.138   8.850
 6715POPC   GL231370  15.089  29.010   8.850
 6715POPC   C1A31371  15.191  29.141   8.550
 6715POPC   D2A31372  15.192  29.170   8.250
 6715POPC   C3A31373  15.216  29.184   7.950
 6715POPC   C4A31374  15.151  29.144   7.650
 6715POPC   C1B31375  15.108  28.955   8.550
 6715POPC   C2B31376  15.092  28.862   8.250
 6715POPC   C3B31377  15.122  28.901   7.950
 6715POPC   C4B31378  15.064  28.879   7.650
 6716POPC   NC331379  39.275  15.201   9.450
 6716POPC   PO431380  39.198  15.186   9.150
 6716POPC   GL131381  39.263  15.161   8.850
 6716POPC   GL231382  39.280  15.306   8.850
 6716POPC   C1A31383  39.229  15.218   8.550
 6716POPC   D2A31384  39.208  15.180   8.250
 6716POPC   C3A31385  39.278  15.188   7.950
 6716POPC   C4A31386  39.224  15.137   7.650
 6716POPC   C1B31387  39.401  15.391   8.550
 6716POPC   C2B31388  39.394  15.357   8.250
 6716POPC   C3B31389  39.411  15.363   7.950
 6716POPC   C4B31390  39.372  15.314   7.650
 6717POPC   NC331391   6.655  37.672   9.450
 6717POPC   PO431392   6.690  37.691   9.150
 6717POPC   GL131393   6.655  37.724   8.850
 6717POPC   GL231394   6.558  37.594   8.850
 6717POPC   C1A31395   6.624  37.704   8.550
 6717POPC   D2A31396   6.662  37.715   8.250
 6717POPC   C3A31397   6.684  37.640   7.950
 6717POPC   C4A31398   6.683  37.657   7.650
 6717POPC   C1B31399   6.429  37.622   8.550
 6717POPC   C2B31400   6.456  37.627   8.250
 6717POPC   C3B31401   6.368  37.564   7.950
 6717POPC   C4B31402   6.360  37.549   7.650
 6718POPC   NC331403   5.094  36.913   9.450
 6718POPC   PO431404   5.136  36.918   9.150
 6718POPC   GL131405   5.084  36.882   8.850
 6718POPC   GL231406   5.131  37.017   8.850
 6718POPC   C1A31407   5.088  36.910   8.550
 6718POPC   D2A31408   5.092  36.943   8.250
 6718POPC   C3A31409   5.087  36.948   7.950
 6718POPC   C4A31410   5.092  36.950   7.650
 6718POPC   C1B31411   5.216  37.124   8.550
 6718POPC   C2B31412   5.232  37.105   8.250
 6718POPC   C3B31413   5.161  37.091   7.950
 6718POPC   C4B31414   5.202  37.155   7.650
 6719POPC   NC331415  31.473  19.862   9.450
 6719POPC   PO431416  31.499  19.815   9.150
 6719POPC   GL131417  31.432  19.879   8.850
 6719POPC   GL231418  31.457  19.924   8.850
 6719POPC   C1A31419  31.470  19.847   8.550
 6719POPC   D2A31420  31.483  19.872   8.250
 6719POPC   C3A31421  31.511  19.785   7.950
 6719POPC   C4A31422  31.425  19.816   7.650
 6719POPC   C1B31423  31.381  20.050   8.550
 6719POPC   C2B31424  31.309  20.044   8.250
 6719POPC   C3B31425  31.318  20.016   7.950
 6719POPC   C4B31426  31.386  20.008   7.650
 6720POPC   NC331427  10.574  43.150   9.450
 6720POPC   PO431428  10.543  43.122   9.150
 6720POPC   GL131429  10.528  43.073   8.850
 6720POPC   GL231430  10.640  43.096   8.850
 6720POPC   C1A31431  10.485  43.103   8.550
 6720POPC   D2A31432  10.502  43.115   8.250
 6720POPC   C3A31433  10.547  43.065   7.950
 6720POPC   C4A31434  10.502  43.095   7.650
 6720POPC   C1B31435  10.768  43.111   8.550
 6720POPC   C2B31436  10.764  43.104   8.250
 6720POPC   C3B31437  10.750  43.134   7.950
 6720POPC   C4B31438  10.810  43.133   7.650
 6721POPC   NC331439   8.165  28.353   9.450
 6721POPC   PO431440   8.157  28.329   9.150
 6721POPC   GL131441   8.192  28.344   8.850
 6721POPC   GL231442   8.286  28.365   8.850
 6721POPC   C1A31443   8.203  28.345   8.550
 6721POPC   D2A31444   8.166  28.359   8.250
 6721POPC   C3A31445   8.242  28.395   7.950
 6721POPC   C4A31446   8.213  28.383   7.650
 6721POPC   C1B31447   8.445  28.427   8.550
 6721POPC   C2B31448   8.476  28.424   8.250
 6721POPC   C3B31449   8.412  28.449   7.950
 6721POPC   C4B31450   8.386  28.464   7.650
 6722POPC   NC331451  23.665  38.416   9.450
 6722POPC   PO431452  23.745  38.480   9.150
 6722POPC   GL131453  23.701  38.438   8.850
 6722POPC   GL231454  23.689  38.371   8.850
 6722POPC   C1A31455  23.692  38.432   8.550
 6722POPC   D2A31456  23.678  38.476   8.250
 6722POPC   C3A31457  23.667  38.414   7.950
 6722POPC   C4A31458  23.666  38.488   7.650
 6722POPC   C1B31459  23.585  38.207   8.550
 6722POPC   C2B31460  23.553  38.215   8.250
 6722POPC   C3B31461  23.538  38.245   7.950
 6722POPC   C4B31462  23.556  38.266   7.650
 6723POPC   NC331463  10.539   5.851   9.450
 6723POPC   PO431464  10.554   5.912   9.150
 6723POPC   GL131465  10.510   5.887   8.850
 6723POPC   GL231466  10.644   5.899   8.850
 6723POPC   C1A31467  10.539   5.853   8.550
 6723POPC   D2A31468  10.547   5.867   8.250
 6723POPC   C3A31469  10.572   5.847   7.950
 6723POPC   C4A31470  10.499   5.912   7.650
 6723POPC   C1B31471  10.785   5.948   8.550
 6723POPC   C2B31472  10.776   5.889   8.250
 6723POPC   C3B31473  10.748   5.903   7.950
 6723POPC   C4B31474  10.794   5.973   7.650
 6724POPC   NC331475  36.938  19.027   9.450
 6724POPC   PO431476  36.857  19.009   9.150
 6724POPC   GL131477  36.892  19.088   8.850
 6724POPC   GL231478  36.953  19.004   8.850
 6724POPC   C1A31479  36.877  19.043   8.550
 6724POPC   D2A31480  36.945  19.103   8.250
 6724POPC   C3A31481  36.922  19.097   7.950
 6724POPC   C4A31482  36.941  19.074   7.650
 6724POPC   C1B31483  37.124  18.868   8.550
 6724POPC   C2B31484  37.066  18.889   8.250
 6724POPC   C3B31485  37.108  18.909   7.950
 6724POPC   C4B31486  37.122  18.925   7.650
 6725POPC   NC331487  24.452  18.244   9.450
 6725POPC   PO431488  24.442  18.261   9.150
 6725POPC   GL131489  24.536  18.276   8.850
 6725POPC   GL231490  24.548  18.401   8.850
 6725POPC   C1A31491  24.482  18.284   8.550
 6725POPC   D2A31492  24.495  18.271   8.250
 6725POPC   C3A31493  24.462  18.327   7.950
 6725POPC   C4A31494  24.484  18.273   7.650
 6725POPC   C1B31495  24.540  18.525   8.550
 6725POPC   C2B31496  24.559  18.576   8.250
 6725POPC   C3B31497  24.568  18.571   7.950
 6725POPC   C4B31498  24.587  18.570   7.650
 6726POPC   NC331499  26.772   8.244   9.450
 6726POPC   PO431500  26.850   8.191   9.150
 6726POPC   GL131501  26.793   8.184   8.850
 6726POPC   GL231502  26.781   8.335   8.850
 6726POPC   C1A31503  26.825   8.225   8.550
 6726POPC   D2A31504  26.803   8.168   8.250
 6726POPC   C3A31505  26.790   8.187   7.950
 6726POPC   C4A31506  26.811   8.236   7.650
 6726POPC   C1B31507  26.679   8.427   8.550
 6726POPC   C2B31508  26.677   8.390   8.250
 6726POPC   C3B31509  26.671   8.391   7.950
 6726POPC   C4B31510  26.637   8.432   7.650
 6727POPC   NC331511  14.385   8.162   9.450
 6727POPC   PO431512  14.356   8.224   9.150
 6727POPC   GL131513  14.425   8.149   8.850
 6727POPC   GL231514  14.270   8.193   8.850
 6727POPC   C1A31515  14.362   8.184   8.550
 6727POPC   D2A31516  14.392   8.194   8.250
 6727POPC   C3A31517  14.406   8.225   7.950
 6727POPC   C4A31518  14.381   8.193   7.650
 6727POPC   C1B31519  14.106   8.172   8.550
 6727POPC   C2B31520  14.152   8.173   8.250
 6727POPC   C3B31521  14.182   8.251   7.950
 6727POPC   C4B31522  14.171   8.183   7.650
 6728POPC   NC331523  40.801  10.511   9.450
 6728POPC   PO431524  40.791  10.528   9.150
 6728POPC   GL131525  40.778  10.494   8.850
 6728POPC   GL231526  40.658  10.563   8.850
 6728POPC   C1A31527  40.797  10.548   8.550
 6728POPC   D2A31528  40.773  10.572   8.250
 6728POPC   C3A31529  40.798  10.530   7.950
 6728POPC   C4A31530  40.768  10.522   7.650
 6728POPC   C1B31531  40.576  10.700   8.550
 6728POPC   C2B31532  40.603  10.610   8.250
 6728POPC   C3B31533  40.598  10.641   7.950
 6728POPC   C4B31534  40.584  10.632   7.650
 6729POPC   NC331535  43.118  43.865   9.450
 6729POPC   PO431536  43.108  43.926   9.150
 6729POPC   GL131537  43.084  43.889   8.850
 6729POPC   GL231538  43.171  43.978   8.850
 6729POPC   C1A31539  43.098  43.924   8.550
 6729POPC   D2A31540  43.087  43.881   8.250
 6729POPC   C3A31541  43.078  43.886   7.950
 6729POPC   C4A31542  43.151  43.896   7.650
 6729POPC   C1B31543  43.248  44.059   8.550
 6729POPC   C2B31544  43.219  44.104   8.250
 6729POPC   C3B31545  43.308  44.056   7.950
 6729POPC   C4B31546  43.215  44.058   7.650
 6730POPC   NC331547   8.987  26.001   9.450
 6730POPC   PO431548   8.954  26.017   9.150
 6730POPC   GL131549   9.020  26.051   8.850
 6730POPC   GL231550   9.073  26.149   8.850
 6730POPC   C1A31551   8.992  26.004   8.550
 6730POPC   D2A31552   9.022  26.021   8.250
 6730POPC   C3A31553   8.954  26.067   7.950
 6730POPC   C4A31554   8.938  26.009   7.650
 6730POPC   C1B31555   9.146  26.156   8.550
 6730POPC   C2B31556   9.132  26.216   8.250
 6730POPC   C3B31557   9.138  26.176   7.950
 6730POPC   C4B31558   9.178  26.199   7.650
 6731POPC   NC331559   7.406  39.206   9.450
 6731POPC   PO431560   7.447  39.248   9.150
 6731POPC   GL131561   7.462  39.251   8.850
 6731POPC   GL231562   7.347  39.155   8.850
 6731POPC   C1A31563   7.402  39.277   8.550
 6731POPC   D2A31564   7.422  39.215   8.250
 6731POPC   C3A31565   7.402  39.187   7.950
 6731POPC   C4A31566   7.410  39.183   7.650
 6731POPC   C1B31567   7.344  38.962   8.550
 6731POPC   C2B31568   7.276  38.978   8.250
 6731POPC   C3B31569   7.325  38.960   7.950
 6731POPC   C4B31570   7.353  38.994   7.650
 6732POPC   NC331571  38.448  26.029   9.450
 6732POPC   PO431572  38.436  26.073   9.150
 6732POPC   GL131573  38.473  26.088   8.850
 6732POPC   GL231574  38.408  25.952   8.850
 6732POPC   C1A31575  38.480  26.070   8.550
 6732POPC   D2A31576  38.419  25.997   8.250
 6732POPC   C3A31577  38.434  26.060   7.950
 6732POPC   C4A31578  38.504  25.994   7.650
 6732POPC   C1B31579  38.316  25.836   8.550
 6732POPC   C2B31580  38.331  25.856   8.250
 6732POPC   C3B31581  38.305  25.810   7.950
 6732POPC   C4B31582  38.355  25.877   7.650
 6733POPC   NC331583  39.198  12.091   9.450
 6733POPC   PO431584  39.244  12.124   9.150
 6733POPC   GL131585  39.225  12.071   8.850
 6733POPC   GL231586  39.181  12.171   8.850
 6733POPC   C1A31587  39.268  12.070   8.550
 6733POPC   D2A31588  39.266  12.091   8.250
 6733POPC   C3A31589  39.225  12.074   7.950
 6733POPC   C4A31590  39.259  12.091   7.650
 6733POPC   C1B31591  39.016  12.217   8.550
 6733POPC   C2B31592  39.104  12.222   8.250
 6733POPC   C3B31593  39.055  12.294   7.950
 6733POPC   C4B31594  39.066  12.294   7.650
 6734POPC   NC331595   5.875  26.850   9.450
 6734POPC   PO431596   5.878  26.811   9.150
 6734POPC   GL131597   5.857  26.810   8.850
 6734POPC   GL231598   5.755  26.765   8.850
 6734POPC   C1A31599   5.873  26.794   8.550
 6734POPC   D2A31600   5.878  26.867   8.250
 6734POPC   C3A31601   5.879  26.843   7.950
 6734POPC   C4A31602   5.843  26.864   7.650
 6734POPC   C1B31603   5.692  26.609   8.550
 6734POPC   C2B31604   5.721  26.585   8.250
 6734POPC   C3B31605   5.690  26.674   7.950
 6734POPC   C4B31606   5.685  26.618   7.650
 6735POPC   NC331607   4.339   4.343   9.450
 6735POPC   PO431608   4.356   4.338   9.150
 6735POPC   GL131609   4.288   4.289   8.850
 6735POPC   GL231610   4.322   4.415   8.850
 6735POPC   C1A31611   4.352   4.303   8.550
 6735POPC   D2A31612   4.284   4.307   8.250
 6735POPC   C3A31613   4.288   4.338   7.950
 6735POPC   C4A31614   4.332   4.295   7.650
 6735POPC   C1B31615   4.306   4.602   8.550
 6735POPC   C2B31616   4.304   4.532   8.250
 6735POPC   C3B31617   4.298   4.518   7.950
 6735POPC   C4B31618   4.263   4.528   7.650
 6736POPC   NC331619  44.696  40.032   9.450
 6736POPC   PO431620  44.676  40.055   9.150
 6736POPC   GL131621  44.697  40.013   8.850
 6736POPC   GL231622  44.692  40.153   8.850
 6736POPC   C1A31623  44.638  40.003   8.550
 6736POPC   D2A31624  44.652  40.017   8.250
 6736POPC   C3A31625  44.697  40.027   7.950
 6736POPC   C4A31626  44.711  39.983   7.650
 6736POPC   C1B31627  44.777  40.254   8.550
 6736POPC   C2B31628  44.831  40.219   8.250
 6736POPC   C3B31629  44.856  40.244   7.950
 6736POPC   C4B31630  44.864  40.238   7.650
 6737POPC   NC331631  35.334  24.526   9.450
 6737POPC   PO431632  35.346  24.452   9.150
 6737POPC   GL131633  35.374  24.524   8.850
 6737POPC   GL231634  35.368  24.644   8.850
 6737POPC   C1A31635  35.354  24.495   8.550
 6737POPC   D2A31636  35.350  24.499   8.250
 6737POPC   C3A31637  35.373  24.489   7.950
 6737POPC   C4A31638  35.329  24.478   7.650
 6737POPC   C1B31639  35.487  24.665   8.550
 6737POPC   C2B31640  35.431  24.703   8.250
 6737POPC   C3B31641  35.420  24.689   7.950
 6737POPC   C4B31642  35.490  24.680   7.650
 6738POPC   NC331643  22.908  31.493   9.450
 6738POPC   PO431644  22.971  31.450   9.150
 6738POPC   GL131645  22.915  31.427   8.850
 6738POPC   GL231646  22.772  31.459   8.850
 6738POPC   C1A31647  22.955  31.507   8.550
 6738POPC   D2A31648  22.970  31.485   8.250
 6738POPC   C3A31649  22.891  31.433   7.950
 6738POPC   C4A31650  22.906  31.429   7.650
 6738POPC   C1B31651  22.642  31.470   8.550
 6738POPC   C2B31652  22.728  31.502   8.250
 6738POPC   C3B31653  22.655  31.460   7.950
 6738POPC   C4B31654  22.663  31.421   7.650
 6739POPC   NC331655   4.361  35.332   9.450
 6739POPC   PO431656   4.338  35.324   9.150
 6739POPC   GL131657   4.324  35.357   8.850
 6739POPC   GL231658   4.477  35.316   8.850
 6739POPC   C1A31659   4.295  35.387   8.550
 6739POPC   D2A31660   4.344  35.367   8.250
 6739POPC   C3A31661   4.329  35.395   7.950
 6739POPC   C4A31662   4.277  35.312   7.650
 6739POPC   C1B31663   4.592  35.338   8.550
 6739POPC   C2B31664   4.584  35.328   8.250
 6739POPC   C3B31665   4.542  35.335   7.950
 6739POPC   C4B31666   4.541  35.294   7.650
 6740POPC   NC331667   6.611  30.683   9.450
 6740POPC   PO431668   6.658  30.697   9.150
 6740POPC   GL131669   6.605  30.691   8.850
 6740POPC   GL231670   6.658  30.789   8.850
 6740POPC   C1A31671   6.664  30.725   8.550
 6740POPC   D2A31672   6.679  30.722   8.250
 6740POPC   C3A31673   6.680  30.661   7.950
 6740POPC   C4A31674   6.632  30.711   7.650
 6740POPC   C1B31675   6.617  30.960   8.550
 6740POPC   C2B31676   6.595  30.909   8.250
 6740POPC   C3B31677   6.655  30.979   7.950
 6740POPC   C4B31678   6.665  30.907   7.650
 6741POPC   NC331679  37.667  34.583   9.450
 6741POPC   PO431680  37.716  34.526   9.150
 6741POPC   GL131681  37.688  34.564   8.850
 6741POPC   GL231682  37.623  34.683   8.850
 6741POPC   C1A31683  37.712  34.608   8.550
 6741POPC   D2A31684  37.689  34.579   8.250
 6741POPC   C3A31685  37.691  34.622   7.950
 6741POPC   C4A31686  37.689  34.606   7.650
 6741POPC   C1B31687  37.487  34.740   8.550
 6741POPC   C2B31688  37.527  34.712   8.250
 6741POPC   C3B31689  37.539  34.728   7.950
 6741POPC   C4B31690  37.522  34.699   7.650
 6742POPC   NC331691  12.870   7.433   9.450
 6742POPC   PO431692  12.852   7.415   9.150
 6742POPC   GL131693  12.858   7.387   8.850
 6742POPC   GL231694  12.953   7.503   8.850
 6742POPC   C1A31695  12.837   7.380   8.550
 6742POPC   D2A31696  12.828   7.401   8.250
 6742POPC   C3A31697  12.807   7.397   7.950
 6742POPC   C4A31698  12.837   7.410   7.650
 6742POPC   C1B31699  13.027   7.497   8.550
 6742POPC   C2B31700  13.037   7.549   8.250
 6742POPC   C3B31701  13.103   7.522   7.950
 6742POPC   C4B31702  13.098   7.533   7.650
 6743POPC   NC331703  11.316  23.721   9.450
 6743POPC   PO431704  11.259  23.680   9.150
 6743POPC   GL131705  11.254  23.683   8.850
 6743POPC   GL231706  11.415  23.718   8.850
 6743POPC   C1A31707  11.295  23.669   8.550
 6743POPC   D2A31708  11.295  23.719   8.250
 6743POPC   C3A31709  11.324  23.758   7.950
 6743POPC   C4A31710  11.329  23.754   7.650
 6743POPC   C1B31711  11.588  23.713   8.550
 6743POPC   C2B31712  11.587  23.645   8.250
 6743POPC   C3B31713  11.565  23.654   7.950
 6743POPC   C4B31714  11.574  23.703   7.650
 6744POPC   NC331715   2.796   5.107   9.450
 6744POPC   PO431716   2.780   5.056   9.150
 6744POPC   GL131717   2.748   5.069   8.850
 6744POPC   GL231718   2.918   5.125   8.850
 6744POPC   C1A31719   2.770   5.140   8.550
 6744POPC   D2A31720   2.809   5.124   8.250
 6744POPC   C3A31721   2.733   5.142   7.950
 6744POPC   C4A31722   2.743   5.064   7.650
 6744POPC   C1B31723   3.003   5.197   8.550
 6744POPC   C2B31724   2.993   5.163   8.250
 6744POPC   C3B31725   2.954   5.138   7.950
 6744POPC   C4B31726   3.031   5.126   7.650
 6745POPC   NC331727  31.519  42.298   9.450
 6745POPC   PO431728  31.461  42.317   9.150
 6745POPC   GL131729  31.516  42.298   8.850
 6745POPC   GL231730  31.321  42.381   8.850
 6745POPC   C1A31731  31.464  42.350   8.550
 6745POPC   D2A31732  31.494  42.369   8.250
 6745POPC   C3A31733  31.436  42.341   7.950
 6745POPC   C4A31734  31.520  42.338   7.650
 6745POPC   C1B31735  31.266  42.464   8.550
 6745POPC   C2B31736  31.260  42.491   8.250
 6745POPC   C3B31737  31.245  42.453   7.950
 6745POPC   C4B31738  31.261  42.520   7.650
 6746POPC   NC331739  23.705  44.641   9.450
 6746POPC   PO431740  23.743  44.686   9.150
 6746POPC   GL131741  23.665  44.647   8.850
 6746POPC   GL231742  23.851  44.708   8.850
 6746POPC   C1A31743  23.702  44.657   8.550
 6746POPC   D2A31744  23.696  44.651   8.250
 6746POPC   C3A31745  23.676  44.704   7.950
 6746POPC   C4A31746  23.740  44.707   7.650
 6746POPC   C1B31747  23.977  44.771   8.550
 6746POPC   C2B31748  23.956  44.751   8.250
 6746POPC   C3B31749  23.912  44.728   7.950
 6746POPC   C4B31750  23.943  44.752   7.650
 6747POPC   NC331751  36.121  39.211   9.450
 6747POPC   PO431752  36.164  39.231   9.150
 6747POPC   GL131753  36.126  39.226   8.850
 6747POPC   GL231754  36.175  39.386   8.850
 6747POPC   C1A31755  36.098  39.270   8.550
 6747POPC   D2A31756  36.099  39.204   8.250
 6747POPC   C3A31757  36.159  39.203   7.950
 6747POPC   C4A31758  36.106  39.260   7.650
 6747POPC   C1B31759  36.166  39.516   8.550
 6747POPC   C2B31760  36.122  39.515   8.250
 6747POPC   C3B31761  36.160  39.498   7.950
 6747POPC   C4B31762  36.162  39.517   7.650
 6748POPC   NC331763   7.386  35.395   9.450
 6748POPC   PO431764   7.378  35.349   9.150
 6748POPC   GL131765   7.411  35.307   8.850
 6748POPC   GL231766   7.448  35.266   8.850
 6748POPC   C1A31767   7.457  35.312   8.550
 6748POPC   D2A31768   7.464  35.389   8.250
 6748POPC   C3A31769   7.371  35.348   7.950
 6748POPC   C4A31770   7.407  35.304   7.650
 6748POPC   C1B31771   7.586  35.149   8.550
 6748POPC   C2B31772   7.525  35.111   8.250
 6748POPC   C3B31773   7.565  35.166   7.950
 6748POPC   C4B31774   7.513  35.098   7.650
 6749POPC   NC331775  39.201  29.922   9.450
 6749POPC   PO431776  39.209  29.967   9.150
 6749POPC   GL131777  39.230  29.882   8.850
 6749POPC   GL231778  39.221  29.783   8.850
 6749POPC   C1A31779  39.203  29.943   8.550
 6749POPC   D2A31780  39.219  29.966   8.250
 6749POPC   C3A31781  39.194  29.881   7.950
 6749POPC   C4A31782  39.196  29.918   7.650
 6749POPC   C1B31783  39.126  29.711   8.550
 6749POPC   C2B31784  39.189  29.727   8.250
 6749POPC   C3B31785  39.212  29.705   7.950
 6749POPC   C4B31786  39.170  29.687   7.650
 6750POPC   NC331787  18.271  42.321   9.450
 6750POPC   PO431788  18.304  42.330   9.150
 6750POPC   GL131789  18.282  42.383   8.850
 6750POPC   GL231790  18.218  42.399   8.850
 6750POPC   C1A31791  18.331  42.332   8.550
 6750POPC   D2A31792  18.323  42.291   8.250
 6750POPC   C3A31793  18.251  42.325   7.950
 6750POPC   C4A31794  18.321  42.356   7.650
 6750POPC   C1B31795  18.153  42.546   8.550
 6750POPC   C2B31796  18.139  42.511   8.250
 6750POPC   C3B31797  18.173  42.580   7.950
 6750POPC   C4B31798  18.126  42.585   7.650
 6751POPC   NC331799  15.226  14.397   9.450
 6751POPC   PO431800  15.154  14.356   9.150
 6751POPC   GL131801  15.201  14.405   8.850
 6751POPC   GL231802  15.234  14.543   8.850
 6751POPC   C1A31803  15.208  14.429   8.550
 6751POPC   D2A31804  15.171  14.453   8.250
 6751POPC   C3A31805  15.177  14.422   7.950
 6751POPC   C4A31806  15.175  14.445   7.650
 6751POPC   C1B31807  15.193  14.696   8.550
 6751POPC   C2B31808  15.257  14.629   8.250
 6751POPC   C3B31809  15.173  14.650   7.950
 6751POPC   C4B31810  15.216  14.659   7.650
 6752POPC   NC331811   1.263  10.571   9.450
 6752POPC   PO431812   1.215  10.555   9.150
 6752POPC   GL131813   1.259  10.486   8.850
 6752POPC   GL231814   1.086  10.540   8.850
 6752POPC   C1A31815   1.177  10.557   8.550
 6752POPC   D2A31816   1.228  10.550   8.250
 6752POPC   C3A31817   1.245  10.560   7.950
 6752POPC   C4A31818   1.179  10.517   7.650
 6752POPC   C1B31819   0.931  10.538   8.550
 6752POPC   C2B31820   0.991  10.567   8.250
 6752POPC   C3B31821   1.014  10.532   7.950
 6752POPC   C4B31822   0.943  10.618   7.650
 6753POPC   NC331823  12.865   8.173   9.450
 6753POPC   PO431824  12.899   8.203   9.150
 6753POPC   GL131825  12.867   8.179   8.850
 6753POPC   GL231826  12.850   8.282   8.850
 6753POPC   C1A31827  12.888   8.148   8.550
 6753POPC   D2A31828  12.818   8.177   8.250
 6753POPC   C3A31829  12.821   8.151   7.950
 6753POPC   C4A31830  12.867   8.227   7.650
 6753POPC   C1B31831  12.793   8.452   8.550
 6753POPC   C2B31832  12.740   8.461   8.250
 6753POPC   C3B31833  12.760   8.458   7.950
 6753POPC   C4B31834  12.759   8.448   7.650
 6754POPC   NC331835  27.634   8.240   9.450
 6754POPC   PO431836  27.625   8.181   9.150
 6754POPC   GL131837  27.551   8.212   8.850
 6754POPC   GL231838  27.618   8.321   8.850
 6754POPC   C1A31839  27.592   8.204   8.550
 6754POPC   D2A31840  27.616   8.199   8.250
 6754POPC   C3A31841  27.552   8.154   7.950
 6754POPC   C4A31842  27.622   8.180   7.650
 6754POPC   C1B31843  27.575   8.416   8.550
 6754POPC   C2B31844  27.512   8.426   8.250
 6754POPC   C3B31845  27.540   8.433   7.950
 6754POPC   C4B31846  27.583   8.426   7.650
 6755POPC   NC331847   5.086   8.158   9.450
 6755POPC   PO431848   5.113   8.190   9.150
 6755POPC   GL131849   5.092   8.158   8.850
 6755POPC   GL231850   5.058   8.093   8.850
 6755POPC   C1A31851   5.090   8.222   8.550
 6755POPC   D2A31852   5.095   8.184   8.250
 6755POPC   C3A31853   5.110   8.198   7.950
 6755POPC   C4A31854   5.050   8.227   7.650
 6755POPC   C1B31855   5.127   7.947   8.550
 6755POPC   C2B31856   5.078   7.954   8.250
 6755POPC   C3B31857   5.073   7.983   7.950
 6755POPC   C4B31858   5.081   7.963   7.650
 6756POPC   NC331859   0.423  40.790   9.450
 6756POPC   PO431860   0.447  40.735   9.150
 6756POPC   GL131861   0.465  40.781   8.850
 6756POPC   GL231862   0.361  40.640   8.850
 6756POPC   C1A31863   0.395  40.770   8.550
 6756POPC   D2A31864   0.406  40.809   8.250
 6756POPC   C3A31865   0.443  40.786   7.950
 6756POPC   C4A31866   0.463  40.784   7.650
 6756POPC   C1B31867   0.300  40.582   8.550
 6756POPC   C2B31868   0.301  40.543   8.250
 6756POPC   C3B31869   0.328  40.530   7.950
 6756POPC   C4B31870   0.256  40.582   7.650
 6757POPC   NC331871   1.957  17.546   9.450
 6757POPC   PO431872   1.977  17.494   9.150
 6757POPC   GL131873   2.037  17.545   8.850
 6757POPC   GL231874   2.011  17.360   8.850
 6757POPC   C1A31875   1.949  17.472   8.550
 6757POPC   D2A31876   1.976  17.552   8.250
 6757POPC   C3A31877   1.999  17.514   7.950
 6757POPC   C4A31878   2.001  17.481   7.650
 6757POPC   C1B31879   2.016  17.289   8.550
 6757POPC   C2B31880   1.964  17.230   8.250
 6757POPC   C3B31881   1.992  17.296   7.950
 6757POPC   C4B31882   1.969  17.234   7.650
 6758POPC   NC331883  11.297  44.675   9.450
 6758POPC   PO431884  11.345  44.704   9.150
 6758POPC   GL131885  11.278  44.612   8.850
 6758POPC   GL231886  11.204  44.575   8.850
 6758POPC   C1A31887  11.258  44.675   8.550
 6758POPC   D2A31888  11.344  44.688   8.250
 6758POPC   C3A31889  11.345  44.672   7.950
 6758POPC   C4A31890  11.335  44.622   7.650
 6758POPC   C1B31891  11.163  44.458   8.550
 6758POPC   C2B31892  11.222  44.451   8.250
 6758POPC   C3B31893  11.201  44.390   7.950
 6758POPC   C4B31894  11.190  44.438   7.650
 6759POPC   NC331895  31.438  29.914   9.450
 6759POPC   PO431896  31.487  29.910   9.150
 6759POPC   GL131897  31.468  29.959   8.850
 6759POPC   GL231898  31.357  29.905   8.850
 6759POPC   C1A31899  31.484  29.931   8.550
 6759POPC   D2A31900  31.442  29.933   8.250
 6759POPC   C3A31901  31.502  29.890   7.950
 6759POPC   C4A31902  31.476  29.928   7.650
 6759POPC   C1B31903  31.287  29.873   8.550
 6759POPC   C2B31904  31.223  29.824   8.250
 6759POPC   C3B31905  31.240  29.834   7.950
 6759POPC   C4B31906  31.252  29.857   7.650
 6760POPC   NC331907  10.555  39.241   9.450
 6760POPC   PO431908  10.558  39.269   9.150
 6760POPC   GL131909  10.487  39.276   8.850
 6760POPC   GL231910  10.645  39.354   8.850
 6760POPC   C1A31911  10.535  39.262   8.550
 6760POPC   D2A31912  10.526  39.243   8.250
 6760POPC   C3A31913  10.504  39.210   7.950
 6760POPC   C4A31914  10.479  39.264   7.650
 6760POPC   C1B31915  10.676  39.349   8.550
 6760POPC   C2B31916  10.697  39.369   8.250
 6760POPC   C3B31917  10.762  39.336   7.950
 6760POPC   C4B31918  10.691  39.400   7.650
 6761POPC   NC331919   4.348  25.256   9.450
 6761POPC   PO431920   4.268  25.222   9.150
 6761POPC   GL131921   4.286  25.243   8.850
 6761POPC   GL231922   4.250  25.356   8.850
 6761POPC   C1A31923   4.285  25.272   8.550
 6761POPC   D2A31924   4.365  25.279   8.250
 6761POPC   C3A31925   4.316  25.228   7.950
 6761POPC   C4A31926   4.300  25.261   7.650
 6761POPC   C1B31927   4.125  25.481   8.550
 6761POPC   C2B31928   4.127  25.449   8.250
 6761POPC   C3B31929   4.152  25.421   7.950
 6761POPC   C4B31930   4.126  25.447   7.650
 6762POPC   NC331931  10.538  20.582   9.450
 6762POPC   PO431932  10.553  20.592   9.150
 6762POPC   GL131933  10.568  20.608   8.850
 6762POPC   GL231934  10.389  20.614   8.850
 6762POPC   C1A31935  10.545  20.622   8.550
 6762POPC   D2A31936  10.534  20.588   8.250
 6762POPC   C3A31937  10.502  20.590   7.950
 6762POPC   C4A31938  10.522  20.597   7.650
 6762POPC   C1B31939  10.279  20.553   8.550
 6762POPC   C2B31940  10.277  20.521   8.250
 6762POPC   C3B31941  10.257  20.480   7.950
 6762POPC   C4B31942  10.323  20.512   7.650
 6763POPC   NC331943  32.236   0.414   9.450
 6763POPC   PO431944  32.216   0.484   9.150
 6763POPC   GL131945  32.286   0.476   8.850
 6763POPC   GL231946  32.193   0.538   8.850
 6763POPC   C1A31947  32.201   0.480   8.550
 6763POPC   D2A31948  32.253   0.393   8.250
 6763POPC   C3A31949  32.211   0.400   7.950
 6763POPC   C4A31950  32.290   0.485   7.650
 6763POPC   C1B31951  32.059   0.633   8.550
 6763POPC   C2B31952  32.101   0.611   8.250
 6763POPC   C3B31953  32.050   0.594   7.950
 6763POPC   C4B31954  32.079   0.656   7.650
 6764POPC   NC331955   4.292  12.026   9.450
 6764POPC   PO431956   4.275  12.027   9.150
 6764POPC   GL131957   4.286  12.125   8.850
 6764POPC   GL231958   4.425  12.032   8.850
 6764POPC   C1A31959   4.310  12.098   8.550
 6764POPC   D2A31960   4.323  12.101   8.250
 6764POPC   C3A31961   4.342  12.121   7.950
 6764POPC   C4A31962   4.294  12.087   7.650
 6764POPC   C1B31963   4.512  11.978   8.550
 6764POPC   C2B31964   4.519  11.964   8.250
 6764POPC   C3B31965   4.512  11.946   7.950
 6764POPC   C4B31966   4.523  11.974   7.650
 6765POPC   NC331967  15.155  25.266   9.450
 6765POPC   PO431968  15.216  25.216   9.150
 6765POPC   GL131969  15.135  25.280   8.850
 6765POPC   GL231970  15.035  25.213   8.850
 6765POPC   C1A31971  15.151  25.289   8.550
 6765POPC   D2A31972  15.172  25.235   8.250
 6765POPC   C3A31973  15.186  25.292   7.950
 6765POPC   C4A31974  15.165  25.245   7.650
 6765POPC   C1B31975  15.009  25.133   8.550
 6765POPC   C2B31976  14.981  25.077   8.250
 6765POPC   C3B31977  14.944  25.093   7.950
 6765POPC   C4B31978  15.019  25.124   7.650
 6766POPC   NC331979   6.680  11.325   9.450
 6766POPC   PO431980   6.633  11.324   9.150
 6766POPC   GL131981   6.671  11.273   8.850
 6766POPC   GL231982   6.759  11.182   8.850
 6766POPC   C1A31983   6.620  11.301   8.550
 6766POPC   D2A31984   6.661  11.303   8.250
 6766POPC   C3A31985   6.670  11.303   7.950
 6766POPC   C4A31986   6.608  11.288   7.650
 6766POPC   C1B31987   6.823  11.126   8.550
 6766POPC   C2B31988   6.828  11.129   8.250
 6766POPC   C3B31989   6.817  11.148   7.950
 6766POPC   C4B31990   6.797  11.130   7.650
 6767POPC   NC331991  15.216   8.147   9.450
 6767POPC   PO431992  15.203   8.228   9.150
 6767POPC   GL131993  15.161   8.182   8.850
 6767POPC   GL231994  15.082   8.243   8.850
 6767POPC   C1A31995  15.137   8.156   8.550
 6767POPC   D2A31996  15.161   8.156   8.250
 6767POPC   C3A31997  15.194   8.183   7.950
 6767POPC   C4A31998  15.201   8.226   7.650
 6767POPC   C1B31999  14.997   8.283   8.550
 6767POPC   C2B32000  14.964   8.296   8.250
 6767POPC   C3B32001  14.955   8.322   7.950
 6767POPC   C4B32002  14.988   8.269   7.650
 6768POPC   NC332003  18.313  23.681   9.450
 6768POPC   PO432004  18.325  23.698   9.150
 6768POPC   GL132005  18.317  23.713   8.850
 6768POPC   GL232006  18.421  23.628   8.850
 6768POPC   C1A32007  18.330  23.731   8.550
 6768POPC   D2A32008  18.331  23.694   8.250
 6768POPC   C3A32009  18.314  23.752   7.950
 6768POPC   C4A32010  18.295  23.704   7.650
 6768POPC   C1B32011  18.505  23.560   8.550
 6768POPC   C2B32012  18.507  23.525   8.250
 6768POPC   C3B32013  18.511  23.512   7.950
 6768POPC   C4B32014  18.478  23.589   7.650
 6769POPC   NC332015  42.333  14.393   9.450
 6769POPC   PO432016  42.344  14.437   9.150
 6769POPC   GL132017  42.380  14.364   8.850
 6769POPC   GL232018  42.361  14.294   8.850
 6769POPC   C1A32019  42.348  14.411   8.550
 6769POPC   D2A32020  42.318  14.354   8.250
 6769POPC   C3A32021  42.364  14.384   7.950
 6769POPC   C4A32022  42.319  14.373   7.650
 6769POPC   C1B32023  42.365  14.130   8.550
 6769POPC   C2B32024  42.354  14.123   8.250
 6769POPC   C3B32025  42.340  14.122   7.950
 6769POPC   C4B32026  42.308  14.173   7.650
 6770POPC   NC332027  42.306   9.011   9.450
 6770POPC   PO432028  42.367   8.932   9.150
 6770POPC   GL132029  42.297   8.941   8.850
 6770POPC   GL232030  42.329   8.836   8.850
 6770POPC   C1A32031  42.328   9.019   8.550
 6770POPC   D2A32032  42.340   8.960   8.250
 6770POPC   C3A32033  42.286   8.942   7.950
 6770POPC   C4A32034  42.360   8.982   7.650
 6770POPC   C1B32035  42.274   8.722   8.550
 6770POPC   C2B32036  42.270   8.771   8.250
 6770POPC   C3B32037  42.261   8.739   7.950
 6770POPC   C4B32038  42.251   8.763   7.650
 6771POPC   NC332039  41.576  26.797   9.450
 6771POPC   PO432040  41.527  26.818   9.150
 6771POPC   GL132041  41.561  26.855   8.850
 6771POPC   GL232042  41.689  26.802   8.850
 6771POPC   C1A32043  41.523  26.802   8.550
 6771POPC   D2A32044  41.599  26.852   8.250
 6771POPC   C3A32045  41.601  26.831   7.950
 6771POPC   C4A32046  41.542  26.844   7.650
 6771POPC   C1B32047  41.796  26.750   8.550
 6771POPC   C2B32048  41.854  26.770   8.250
 6771POPC   C3B32049  41.765  26.793   7.950
 6771POPC   C4B32050  41.783  26.825   7.650
 6772POPC   NC332051  43.138  13.588   9.450
 6772POPC   PO432052  43.081  13.626   9.150
 6772POPC   GL132053  43.111  13.645   8.850
 6772POPC   GL232054  42.984  13.565   8.850
 6772POPC   C1A32055  43.074  13.614   8.550
 6772POPC   D2A32056  43.160  13.630   8.250
 6772POPC   C3A32057  43.146  13.592   7.950
 6772POPC   C4A32058  43.075  13.615   7.650
 6772POPC   C1B32059  42.889  13.501   8.550
 6772POPC   C2B32060  42.892  13.491   8.250
 6772POPC   C3B32061  42.850  13.535   7.950
 6772POPC   C4B32062  42.922  13.498   7.650
 6773POPC   NC332063  33.062  23.669   9.450
 6773POPC   PO432064  33.025  23.750   9.150
 6773POPC   GL132065  33.027  23.744   8.850
 6773POPC   GL232066  33.128  23.679   8.850
 6773POPC   C1A32067  33.030  23.736   8.550
 6773POPC   D2A32068  33.009  23.701   8.250
 6773POPC   C3A32069  33.033  23.712   7.950
 6773POPC   C4A32070  33.012  23.721   7.650
 6773POPC   C1B32071  33.247  23.682   8.550
 6773POPC   C2B32072  33.312  23.726   8.250
 6773POPC   C3B32073  33.316  23.700   7.950
 6773POPC   C4B32074  33.267  23.676   7.650
 6774POPC   NC332075  42.356   5.882   9.450
 6774POPC   PO432076  42.331   5.887   9.150
 6774POPC   GL132077  42.301   5.825   8.850
 6774POPC   GL232078  42.273   5.729   8.850
 6774POPC   C1A32079  42.306   5.863   8.550
 6774POPC   D2A32080  42.310   5.851   8.250
 6774POPC   C3A32081  42.359   5.833   7.950
 6774POPC   C4A32082  42.371   5.868   7.650
 6774POPC   C1B32083  42.191   5.655   8.550
 6774POPC   C2B32084  42.209   5.648   8.250
 6774POPC   C3B32085  42.246   5.663   7.950
 6774POPC   C4B32086  42.165   5.671   7.650
 6775POPC   NC332087  11.300  27.564   9.450
 6775POPC   PO432088  11.279  27.588   9.150
 6775POPC   GL132089  11.287  27.559   8.850
 6775POPC   GL232090  11.353  27.490   8.850
 6775POPC   C1A32091  11.276  27.638   8.550
 6775POPC   D2A32092  11.277  27.564   8.250
 6775POPC   C3A32093  11.252  27.576   7.950
 6775POPC   C4A32094  11.277  27.618   7.650
 6775POPC   C1B32095  11.464  27.394   8.550
 6775POPC   C2B32096  11.542  27.410   8.250
 6775POPC   C3B32097  11.478  27.424   7.950
 6775POPC   C4B32098  11.528  27.401   7.650
 6776POPC   NC332099  29.154  22.909   9.450
 6776POPC   PO432100  29.148  22.947   9.150
 6776POPC   GL132101  29.146  22.911   8.850
 6776POPC   GL232102  29.234  22.915   8.850
 6776POPC   C1A32103  29.146  22.987   8.550
 6776POPC   D2A32104  29.121  22.961   8.250
 6776POPC   C3A32105  29.136  22.982   7.950
 6776POPC   C4A32106  29.099  22.899   7.650
 6776POPC   C1B32107  29.366  22.965   8.550
 6776POPC   C2B32108  29.433  22.945   8.250
 6776POPC   C3B32109  29.350  22.958   7.950
 6776POPC   C4B32110  29.389  22.974   7.650
 6777POPC   NC332111   0.411  24.454   9.450
 6777POPC   PO432112   0.455  24.536   9.150
 6777POPC   GL132113   0.464  24.535   8.850
 6777POPC   GL232114   0.548  24.618   8.850
 6777POPC   C1A32115   0.417  24.539   8.550
 6777POPC   D2A32116   0.391  24.524   8.250
 6777POPC   C3A32117   0.451  24.463   7.950
 6777POPC   C4A32118   0.482  24.539   7.650
 6777POPC   C1B32119   0.624  24.679   8.550
 6777POPC   C2B32120   0.626  24.675   8.250
 6777POPC   C3B32121   0.571  24.639   7.950
 6777POPC   C4B32122   0.590  24.717   7.650
 6778POPC   NC332123  17.481   9.748   9.450
 6778POPC   PO432124  17.467   9.734   9.150
 6778POPC   GL132125  17.469   9.704   8.850
 6778POPC   GL232126  17.601   9.756   8.850
 6778POPC   C1A32127  17.476   9.795   8.550
 6778POPC   D2A32128  17.536   9.737   8.250
 6778POPC   C3A32129  17.530   9.794   7.950
 6778POPC   C4A32130  17.473   9.781   7.650
 6778POPC   C1B32131  17.720   9.761   8.550
 6778POPC   C2B32132  17.797   9.818   8.250
 6778POPC   C3B32133  17.796   9.738   7.950
 6778POPC   C4B32134  17.769   9.774   7.650
 6779POPC   NC332135  29.879   5.855   9.450
 6779POPC   PO432136  29.919   5.839   9.150
 6779POPC   GL132137  29.905   5.903   8.850
 6779POPC   GL232138  29.847   5.943   8.850
 6779POPC   C1A32139  29.908   5.916   8.550
 6779POPC   D2A32140  29.882   5.874   8.250
 6779POPC   C3A32141  29.905   5.856   7.950
 6779POPC   C4A32142  29.919   5.865   7.650
 6779POPC   C1B32143  29.637   6.004   8.550
 6779POPC   C2B32144  29.698   5.961   8.250
 6779POPC   C3B32145  29.718   5.985   7.950
 6779POPC   C4B32146  29.665   5.945   7.650
 6780POPC   NC332147   8.205  40.752   9.450
 6780POPC   PO432148   8.238  40.816   9.150
 6780POPC   GL132149   8.230  40.825   8.850
 6780POPC   GL232150   8.317  40.687   8.850
 6780POPC   C1A32151   8.214  40.740   8.550
 6780POPC   D2A32152   8.175  40.755   8.250
 6780POPC   C3A32153   8.161  40.764   7.950
 6780POPC   C4A32154   8.173  40.831   7.650
 6780POPC   C1B32155   8.326  40.595   8.550
 6780POPC   C2B32156   8.381  40.541   8.250
 6780POPC   C3B32157   8.359  40.621   7.950
 6780POPC   C4B32158   8.396  40.597   7.650
 6781POPC   NC332159  36.913  12.074   9.450
 6781POPC   PO432160  36.933  12.099   9.150
 6781POPC   GL132161  36.932  12.041   8.850
 6781POPC   GL232162  37.021  12.013   8.850
 6781POPC   C1A32163  36.879  12.089   8.550
 6781POPC   D2A32164  36.920  12.067   8.250
 6781POPC   C3A32165  36.854  12.031   7.950
 6781POPC   C4A32166  36.872  12.055   7.650
 6781POPC   C1B32167  37.165  11.953   8.550
 6781POPC   C2B32168  37.184  11.984   8.250
 6781POPC   C3B32169  37.146  12.018   7.950
 6781POPC   C4B32170  37.190  11.961   7.650
 6782POPC   NC332171  12.048  36.882   9.450
 6782POPC   PO432172  12.054  36.859   9.150
 6782POPC   GL132173  12.065  36.885   8.850
 6782POPC   GL232174  11.940  36.824   8.850
 6782POPC   C1A32175  12.045  36.933   8.550
 6782POPC   D2A32176  12.087  36.890   8.250
 6782POPC   C3A32177  12.091  36.947   7.950
 6782POPC   C4A32178  12.076  36.919   7.650
 6782POPC   C1B32179  11.820  36.793   8.550
 6782POPC   C2B32180  11.817  36.760   8.250
 6782POPC   C3B32181  11.873  36.811   7.950
 6782POPC   C4B32182  11.841  36.818   7.650
 6783POPC   NC332183  32.238   9.722   9.450
 6783POPC   PO432184  32.206   9.718   9.150
 6783POPC   GL132185  32.283   9.772   8.850
 6783POPC   GL232186  32.228   9.918   8.850
 6783POPC   C1A32187  32.292   9.736   8.550
 6783POPC   D2A32188  32.216   9.771   8.250
 6783POPC   C3A32189  32.230   9.795   7.950
 6783POPC   C4A32190  32.294   9.795   7.650
 6783POPC   C1B32191  32.323   9.972   8.550
 6783POPC   C2B32192  32.322  10.019   8.250
 6783POPC   C3B32193  32.278   9.950   7.950
 6783POPC   C4B32194  32.332   9.977   7.650
 6784POPC   NC332195  40.039  32.258   9.450
 6784POPC   PO432196  40.016  32.260   9.150
 6784POPC   GL132197  40.019  32.217   8.850
 6784POPC   GL232198  40.109  32.207   8.850
 6784POPC   C1A32199  39.968  32.264   8.550
 6784POPC   D2A32200  40.040  32.289   8.250
 6784POPC   C3A32201  39.967  32.209   7.950
 6784POPC   C4A32202  40.044  32.287   7.650
 6784POPC   C1B32203  40.213  32.246   8.550
 6784POPC   C2B32204  40.240  32.290   8.250
 6784POPC   C3B32205  40.253  32.256   7.950
 6784POPC   C4B32206  40.222  32.249   7.650
 6785POPC   NC332207  36.875  36.863   9.450
 6785POPC   PO432208  36.933  36.941   9.150
 6785POPC   GL132209  36.944  36.929   8.850
 6785POPC   GL232210  36.965  36.805   8.850
 6785POPC   C1A32211  36.881  36.921   8.550
 6785POPC   D2A32212  36.911  36.927   8.250
 6785POPC   C3A32213  36.912  36.903   7.950
 6785POPC   C4A32214  36.903  36.929   7.650
 6785POPC   C1B32215  37.025  36.701   8.550
 6785POPC   C2B32216  36.975  36.646   8.250
 6785POPC   C3B32217  37.065  36.678   7.950
 6785POPC   C4B32218  36.998  36.720   7.650
 6786POPC   NC332219  20.633  25.256   9.450
 6786POPC   PO432220  20.572  25.275   9.150
 6786POPC   GL132221  20.608  25.255   8.850
 6786POPC   GL232222  20.524  25.278   8.850
 6786POPC   C1A32223  20.593  25.286   8.550
 6786POPC   D2A32224  20.595  25.281   8.250
 6786POPC   C3A32225  20.652  25.275   7.950
 6786POPC   C4A32226  20.580  25.246   7.650
 6786POPC   C1B32227  20.374  25.239   8.550
 6786POPC   C2B32228  20.362  25.266   8.250
 6786POPC   C3B32229  20.370  25.233   7.950
 6786POPC   C4B32230  20.315  25.295   7.650
 6787POPC   NC332231  37.682  41.561   9.450
 6787POPC   PO432232  37.648  41.517   9.150
 6787POPC   GL132233  37.684  41.523   8.850
 6787POPC   GL232234  37.698  41.642   8.850
 6787POPC   C1A32235  37.654  41.563   8.550
 6787POPC   D2A32236  37.700  41.531   8.250
 6787POPC   C3A32237  37.679  41.587   7.950
 6787POPC   C4A32238  37.681  41.576   7.650
 6787POPC   C1B32239  37.712  41.765   8.550
 6787POPC   C2B32240  37.631  41.816   8.250
 6787POPC   C3B32241  37.695  41.802   7.950
 6787POPC   C4B32242  37.622  41.814   7.650
 6788POPC   NC332243  17.525  22.961   9.450
 6788POPC   PO432244  17.507  22.909   9.150
 6788POPC   GL132245  17.476  22.892   8.850
 6788POPC   GL232246  17.413  23.074   8.850
 6788POPC   C1A32247  17.519  22.961   8.550
 6788POPC   D2A32248  17.550  22.898   8.250
 6788POPC   C3A32249  17.535  22.975   7.950
 6788POPC   C4A32250  17.549  22.973   7.650
 6788POPC   C1B32251  17.292  23.175   8.550
 6788POPC   C2B32252  17.370  23.153   8.250
 6788POPC   C3B32253  17.312  23.104   7.950
 6788POPC   C4B32254  17.337  23.128   7.650
 6789POPC   NC332255  25.992   5.854   9.450
 6789POPC   PO432256  26.089   5.866   9.150
 6789POPC   GL132257  26.083   5.888   8.850
 6789POPC   GL232258  25.972   5.946   8.850
 6789POPC   C1A32259  26.012   5.852   8.550
 6789POPC   D2A32260  26.053   5.831   8.250
 6789POPC   C3A32261  26.023   5.898   7.950
 6789POPC   C4A32262  26.068   5.887   7.650
 6789POPC   C1B32263  25.844   6.015   8.550
 6789POPC   C2B32264  25.812   6.069   8.250
 6789POPC   C3B32265  25.867   6.010   7.950
 6789POPC   C4B32266  25.850   6.036   7.650
 6790POPC   NC332267  14.371  26.089   9.450
 6790POPC   PO432268  14.374  26.076   9.150
 6790POPC   GL132269  14.419  26.032   8.850
 6790POPC   GL232270  14.328  26.031   8.850
 6790POPC   C1A32271  14.374  26.088   8.550
 6790POPC   D2A32272  14.448  26.078   8.250
 6790POPC   C3A32273  14.437  26.051   7.950
 6790POPC   C4A32274  14.357  26.020   7.650
 6790POPC   C1B32275  14.117  26.128   8.550
 6790POPC   C2B32276  14.161  26.064   8.250
 6790POPC   C3B32277  14.202  26.114   7.950
 6790POPC   C4B32278  14.142  26.081   7.650
 6791POPC   NC332279  12.810  37.632   9.450
 6791POPC   PO432280  12.832  37.687   9.150
 6791POPC   GL132281  12.897  37.707   8.850
 6791POPC   GL232282  12.916  37.591   8.850
 6791POPC   C1A32283  12.863  37.653   8.550
 6791POPC   D2A32284  12.847  37.649   8.250
 6791POPC   C3A32285  12.889  37.651   7.950
 6791POPC   C4A32286  12.882  37.638   7.650
 6791POPC   C1B32287  13.039  37.444   8.550
 6791POPC   C2B32288  13.036  37.523   8.250
 6791POPC   C3B32289  13.035  37.517   7.950
 6791POPC   C4B32290  13.048  37.444   7.650
 6792POPC   NC332291  36.892  14.365   9.450
 6792POPC   PO432292  36.937  14.434   9.150
 6792POPC   GL132293  36.924  14.364   8.850
 6792POPC   GL232294  36.754  14.379   8.850
 6792POPC   C1A32295  36.943  14.370   8.550
 6792POPC   D2A32296  36.948  14.408   8.250
 6792POPC   C3A32297  36.859  14.392   7.950
 6792POPC   C4A32298  36.865  14.444   7.650
 6792POPC   C1B32299  36.637  14.334   8.550
 6792POPC   C2B32300  36.643  14.333   8.250
 6792POPC   C3B32301  36.629  14.379   7.950
 6792POPC   C4B32302  36.619  14.342   7.650
 6793POPC   NC332303  28.367  12.862   9.450
 6793POPC   PO432304  28.362  12.837   9.150
 6793POPC   GL132305  28.336  12.822   8.850
 6793POPC   GL232306  28.390  12.961   8.850
 6793POPC   C1A32307  28.357  12.842   8.550
 6793POPC   D2A32308  28.339  12.812   8.250
 6793POPC   C3A32309  28.366  12.841   7.950
 6793POPC   C4A32310  28.371  12.805   7.650
 6793POPC   C1B32311  28.368  13.143   8.550
 6793POPC   C2B32312  28.368  13.074   8.250
 6793POPC   C3B32313  28.389  13.132   7.950
 6793POPC   C4B32314  28.432  13.050   7.650
 6794POPC   NC332315  22.118  25.287   9.450
 6794POPC   PO432316  22.175  25.294   9.150
 6794POPC   GL132317  22.165  25.225   8.850
 6794POPC   GL232318  22.082  25.204   8.850
 6794POPC   C1A32319  22.195  25.280   8.550
 6794POPC   D2A32320  22.185  25.260   8.250
 6794POPC   C3A32321  22.144  25.247   7.950
 6794POPC   C4A32322  22.114  25.277   7.650
 6794POPC   C1B32323  22.048  25.011   8.550
 6794POPC   C2B32324  22.003  25.015   8.250
 6794POPC   C3B32325  21.981  25.029   7.950
 6794POPC   C4B32326  22.061  25.061   7.650
 6795POPC   NC332327  32.985  40.737   9.450
 6795POPC   PO432328  33.074  40.806   9.150
 6795POPC   GL132329  33.018  40.751   8.850
 6795POPC   GL232330  33.163  40.812   8.850
 6795POPC   C1A32331  33.044  40.798   8.550
 6795POPC   D2A32332  32.978  40.745   8.250
 6795POPC   C3A32333  33.022  40.800   7.950
 6795POPC   C4A32334  33.064  40.783   7.650
 6795POPC   C1B32335  33.179  40.912   8.550
 6795POPC   C2B32336  33.204  40.953   8.250
 6795POPC   C3B32337  33.243  40.960   7.950
 6795POPC   C4B32338  33.196  40.922   7.650
 6796POPC   NC332339  19.090  41.606   9.450
 6796POPC   PO432340  19.059  41.558   9.150
 6796POPC   GL132341  19.065  41.525   8.850
 6796POPC   GL232342  19.131  41.421   8.850
 6796POPC   C1A32343  19.067  41.537   8.550
 6796POPC   D2A32344  19.101  41.565   8.250
 6796POPC   C3A32345  19.024  41.529   7.950
 6796POPC   C4A32346  19.027  41.581   7.650
 6796POPC   C1B32347  19.223  41.367   8.550
 6796POPC   C2B32348  19.151  41.366   8.250
 6796POPC   C3B32349  19.223  41.313   7.950
 6796POPC   C4B32350  19.218  41.300   7.650
 6797POPC   NC332351  32.245  39.193   9.450
 6797POPC   PO432352  32.245  39.197   9.150
 6797POPC   GL132353  32.214  39.252   8.850
 6797POPC   GL232354  32.268  39.090   8.850
 6797POPC   C1A32355  32.271  39.270   8.550
 6797POPC   D2A32356  32.288  39.279   8.250
 6797POPC   C3A32357  32.275  39.221   7.950
 6797POPC   C4A32358  32.235  39.228   7.650
 6797POPC   C1B32359  32.402  39.054   8.550
 6797POPC   C2B32360  32.320  39.004   8.250
 6797POPC   C3B32361  32.333  38.972   7.950
 6797POPC   C4B32362  32.339  39.055   7.650
 6798POPC   NC332363  12.887  40.024   9.450
 6798POPC   PO432364  12.900  40.029   9.150
 6798POPC   GL132365  12.851  40.037   8.850
 6798POPC   GL232366  12.885  40.085   8.850
 6798POPC   C1A32367  12.804  39.992   8.550
 6798POPC   D2A32368  12.888  39.963   8.250
 6798POPC   C3A32369  12.859  40.024   7.950
 6798POPC   C4A32370  12.843  40.042   7.650
 6798POPC   C1B32371  12.966  40.219   8.550
 6798POPC   C2B32372  13.024  40.208   8.250
 6798POPC   C3B32373  12.963  40.245   7.950
 6798POPC   C4B32374  13.003  40.248   7.650
 6799POPC   NC332375  15.137  23.747   9.450
 6799POPC   PO432376  15.181  23.743   9.150
 6799POPC   GL132377  15.195  23.762   8.850
 6799POPC   GL232378  15.151  23.554   8.850
 6799POPC   C1A32379  15.224  23.724   8.550
 6799POPC   D2A32380  15.182  23.750   8.250
 6799POPC   C3A32381  15.165  23.761   7.950
 6799POPC   C4A32382  15.170  23.740   7.650
 6799POPC   C1B32383  15.203  23.489   8.550
 6799POPC   C2B32384  15.213  23.416   8.250
 6799POPC   C3B32385  15.195  23.471   7.950
 6799POPC   C4B32386  15.194  23.468   7.650
 6800POPC   NC332387  35.317  40.005   9.450
 6800POPC   PO432388  35.381  39.985   9.150
 6800POPC   GL132389  35.374  39.969   8.850
 6800POPC   GL232390  35.280  40.117   8.850
 6800POPC   C1A32391  35.377  39.981   8.550
 6800POPC   D2A32392  35.316  40.003   8.250
 6800POPC   C3A32393  35.374  39.991   7.950
 6800POPC   C4A32394  35.337  40.052   7.650
 6800POPC   C1B32395  35.178  40.219   8.550
 6800POPC   C2B32396  35.176  40.219   8.250
 6800POPC   C3B32397  35.135  40.136   7.950
 6800POPC   C4B32398  35.211  40.167   7.650
 6801POPC   NC332399  26.815  22.150   9.450
 6801POPC   PO432400  26.790  22.131   9.150
 6801POPC   GL132401  26.852  22.208   8.850
 6801POPC   GL232402  26.941  22.154   8.850
 6801POPC   C1A32403  26.822  22.197   8.550
 6801POPC   D2A32404  26.856  22.119   8.250
 6801POPC   C3A32405  26.785  22.206   7.950
 6801POPC   C4A32406  26.849  22.154   7.650
 6801POPC   C1B32407  27.089  22.157   8.550
 6801POPC   C2B32408  27.028  22.245   8.250
 6801POPC   C3B32409  27.102  22.180   7.950
 6801POPC   C4B32410  27.085  22.221   7.650
 6802POPC   NC332411   7.451  37.654   9.450
 6802POPC   PO432412   7.389  37.713   9.150
 6802POPC   GL132413   7.434  37.665   8.850
 6802POPC   GL232414   7.418  37.804   8.850
 6802POPC   C1A32415   7.403  37.715   8.550
 6802POPC   D2A32416   7.421  37.653   8.250
 6802POPC   C3A32417   7.442  37.637   7.950
 6802POPC   C4A32418   7.396  37.678   7.650
 6802POPC   C1B32419   7.433  37.964   8.550
 6802POPC   C2B32420   7.341  37.889   8.250
 6802POPC   C3B32421   7.377  37.971   7.950
 6802POPC   C4B32422   7.391  37.912   7.650
 6803POPC   NC332423   7.403  29.179   9.450
 6803POPC   PO432424   7.404  29.172   9.150
 6803POPC   GL132425   7.423  29.116   8.850
 6803POPC   GL232426   7.487  29.097   8.850
 6803POPC   C1A32427   7.398  29.174   8.550
 6803POPC   D2A32428   7.422  29.135   8.250
 6803POPC   C3A32429   7.398  29.124   7.950
 6803POPC   C4A32430   7.460  29.166   7.650
 6803POPC   C1B32431   7.566  28.926   8.550
 6803POPC   C2B32432   7.552  29.008   8.250
 6803POPC   C3B32433   7.594  28.992   7.950
 6803POPC   C4B32434   7.557  28.954   7.650
 6804POPC   NC332435  42.362  11.255   9.450
 6804POPC   PO432436  42.335  11.258   9.150
 6804POPC   GL132437  42.295  11.336   8.850
 6804POPC   GL232438  42.367  11.365   8.850
 6804POPC   C1A32439  42.350  11.264   8.550
 6804POPC   D2A32440  42.325  11.261   8.250
 6804POPC   C3A32441  42.310  11.320   7.950
 6804POPC   C4A32442  42.331  11.318   7.650
 6804POPC   C1B32443  42.450  11.506   8.550
 6804POPC   C2B32444  42.429  11.487   8.250
 6804POPC   C3B32445  42.467  11.480   7.950
 6804POPC   C4B32446  42.469  11.532   7.650
 6805POPC   NC332447   1.986  21.343   9.450
 6805POPC   PO432448   1.948  21.362   9.150
 6805POPC   GL132449   1.959  21.428   8.850
 6805POPC   GL232450   1.845  21.341   8.850
 6805POPC   C1A32451   2.009  21.351   8.550
 6805POPC   D2A32452   1.968  21.429   8.250
 6805POPC   C3A32453   1.983  21.408   7.950
 6805POPC   C4A32454   2.036  21.355   7.650
 6805POPC   C1B32455   1.729  21.339   8.550
 6805POPC   C2B32456   1.761  21.403   8.250
 6805POPC   C3B32457   1.762  21.361   7.950
 6805POPC   C4B32458   1.708  21.403   7.650
 6806POPC   NC332459  36.898  22.172   9.450
 6806POPC   PO432460  36.928  22.170   9.150
 6806POPC   GL132461  36.878  22.115   8.850
 6806POPC   GL232462  36.761  22.145   8.850
 6806POPC   C1A32463  36.876  22.208   8.550
 6806POPC   D2A32464  36.869  22.120   8.250
 6806POPC   C3A32465  36.854  22.190   7.950
 6806POPC   C4A32466  36.910  22.144   7.650
 6806POPC   C1B32467  36.631  22.173   8.550
 6806POPC   C2B32468  36.679  22.217   8.250
 6806POPC   C3B32469  36.683  22.254   7.950
 6806POPC   C4B32470  36.646  22.209   7.650
 6807POPC   NC332471  12.863  26.052   9.450
 6807POPC   PO432472  12.833  26.088   9.150
 6807POPC   GL132473  12.849  25.995   8.850
 6807POPC   GL232474  12.776  25.996   8.850
 6807POPC   C1A32475  12.890  26.050   8.550
 6807POPC   D2A32476  12.876  26.053   8.250
 6807POPC   C3A32477  12.822  26.022   7.950
 6807POPC   C4A32478  12.884  26.021   7.650
 6807POPC   C1B32479  12.643  25.893   8.550
 6807POPC   C2B32480  12.659  25.910   8.250
 6807POPC   C3B32481  12.680  25.943   7.950
 6807POPC   C4B32482  12.608  25.883   7.650
 6808POPC   NC332483  16.757  18.304   9.450
 6808POPC   PO432484  16.703  18.301   9.150
 6808POPC   GL132485  16.694  18.309   8.850
 6808POPC   GL232486  16.637  18.178   8.850
 6808POPC   C1A32487  16.729  18.271   8.550
 6808POPC   D2A32488  16.710  18.331   8.250
 6808POPC   C3A32489  16.695  18.275   7.950
 6808POPC   C4A32490  16.720  18.277   7.650
 6808POPC   C1B32491  16.608  18.069   8.550
 6808POPC   C2B32492  16.611  18.075   8.250
 6808POPC   C3B32493  16.648  18.083   7.950
 6808POPC   C4B32494  16.651  18.050   7.650
 6809POPC   NC332495  16.698  11.319   9.450
 6809POPC   PO432496  16.772  11.252   9.150
 6809POPC   GL132497  16.688  11.274   8.850
 6809POPC   GL232498  16.803  11.216   8.850
 6809POPC   C1A32499  16.731  11.297   8.550
 6809POPC   D2A32500  16.686  11.322   8.250
 6809POPC   C3A32501  16.757  11.308   7.950
 6809POPC   C4A32502  16.732  11.344   7.650
 6809POPC   C1B32503  16.745  11.037   8.550
 6809POPC   C2B32504  16.753  11.030   8.250
 6809POPC   C3B32505  16.793  11.020   7.950
 6809POPC   C4B32506  16.796  11.072   7.650
 6810POPC   NC332507  29.907  29.962   9.450
 6810POPC   PO432508  29.886  29.872   9.150
 6810POPC   GL132509  29.914  29.924   8.850
 6810POPC   GL232510  29.934  30.038   8.850
 6810POPC   C1A32511  29.927  29.902   8.550
 6810POPC   D2A32512  29.910  29.913   8.250
 6810POPC   C3A32513  29.944  29.885   7.950
 6810POPC   C4A32514  29.899  29.889   7.650
 6810POPC   C1B32515  29.918  30.181   8.550
 6810POPC   C2B32516  29.994  30.165   8.250
 6810POPC   C3B32517  29.927  30.198   7.950
 6810POPC   C4B32518  30.000  30.214   7.650
 6811POPC   NC332519  36.906  10.568   9.450
 6811POPC   PO432520  36.867  10.518   9.150
 6811POPC   GL132521  36.947  10.532   8.850
 6811POPC   GL232522  36.855  10.676   8.850
 6811POPC   C1A32523  36.916  10.485   8.550
 6811POPC   D2A32524  36.947  10.538   8.250
 6811POPC   C3A32525  36.928  10.555   7.950
 6811POPC   C4A32526  36.902  10.490   7.650
 6811POPC   C1B32527  36.818  10.716   8.550
 6811POPC   C2B32528  36.832  10.731   8.250
 6811POPC   C3B32529  36.751  10.710   7.950
 6811POPC   C4B32530  36.780  10.781   7.650
 6812POPC   NC332531  22.203  42.382   9.450
 6812POPC   PO432532  22.126  42.285   9.150
 6812POPC   GL132533  22.183  42.355   8.850
 6812POPC   GL232534  22.236  42.398   8.850
 6812POPC   C1A32535  22.207  42.297   8.550
 6812POPC   D2A32536  22.204  42.370   8.250
 6812POPC   C3A32537  22.200  42.338   7.950
 6812POPC   C4A32538  22.129  42.336   7.650
 6812POPC   C1B32539  22.418  42.410   8.550
 6812POPC   C2B32540  22.359  42.394   8.250
 6812POPC   C3B32541  22.447  42.423   7.950
 6812POPC   C4B32542  22.356  42.411   7.650
 6813POPC   NC332543  36.872   5.820   9.450
 6813POPC   PO432544  36.880   5.845   9.150
 6813POPC   GL132545  36.870   5.900   8.850
 6813POPC   GL232546  37.004   5.934   8.850
 6813POPC   C1A32547  36.943   5.885   8.550
 6813POPC   D2A32548  36.921   5.880   8.250
 6813POPC   C3A32549  36.951   5.841   7.950
 6813POPC   C4A32550  36.909   5.868   7.650
 6813POPC   C1B32551  37.151   5.945   8.550
 6813POPC   C2B32552  37.172   5.961   8.250
 6813POPC   C3B32553  37.157   5.914   7.950
 6813POPC   C4B32554  37.128   5.900   7.650
 6814POPC   NC332555  35.369  40.747   9.450
 6814POPC   PO432556  35.361  40.781   9.150
 6814POPC   GL132557  35.378  40.742   8.850
 6814POPC   GL232558  35.212  40.859   8.850
 6814POPC   C1A32559  35.330  40.786   8.550
 6814POPC   D2A32560  35.320  40.762   8.250
 6814POPC   C3A32561  35.393  40.815   7.950
 6814POPC   C4A32562  35.385  40.749   7.650
 6814POPC   C1B32563  35.170  40.878   8.550
 6814POPC   C2B32564  35.109  40.928   8.250
 6814POPC   C3B32565  35.108  40.890   7.950
 6814POPC   C4B32566  35.084  40.930   7.650
 6815POPC   NC332567   5.117   4.340   9.450
 6815POPC   PO432568   5.116   4.298   9.150
 6815POPC   GL132569   5.061   4.328   8.850
 6815POPC   GL232570   5.243   4.215   8.850
 6815POPC   C1A32571   5.136   4.343   8.550
 6815POPC   D2A32572   5.112   4.268   8.250
 6815POPC   C3A32573   5.138   4.280   7.950
 6815POPC   C4A32574   5.102   4.351   7.650
 6815POPC   C1B32575   5.267   4.183   8.550
 6815POPC   C2B32576   5.336   4.195   8.250
 6815POPC   C3B32577   5.352   4.190   7.950
 6815POPC   C4B32578   5.315   4.206   7.650
 6816POPC   NC332579  40.014  25.272   9.450
 6816POPC   PO432580  39.986  25.275   9.150
 6816POPC   GL132581  40.048  25.270   8.850
 6816POPC   GL232582  39.887  25.307   8.850
 6816POPC   C1A32583  40.052  25.268   8.550
 6816POPC   D2A32584  40.052  25.240   8.250
 6816POPC   C3A32585  40.032  25.227   7.950
 6816POPC   C4A32586  39.981  25.239   7.650
 6816POPC   C1B32587  39.715  25.303   8.550
 6816POPC   C2B32588  39.711  25.274   8.250
 6816POPC   C3B32589  39.774  25.247   7.950
 6816POPC   C4B32590  39.716  25.299   7.650
 6817POPC   NC332591  36.930  15.937   9.450
 6817POPC   PO432592  36.889  15.985   9.150
 6817POPC   GL132593  36.863  15.971   8.850
 6817POPC   GL232594  36.842  15.875   8.850
 6817POPC   C1A32595  36.865  15.937   8.550
 6817POPC   D2A32596  36.884  15.997   8.250
 6817POPC   C3A32597  36.953  15.981   7.950
 6817POPC   C4A32598  36.862  15.978   7.650
 6817POPC   C1B32599  36.794  15.677   8.550
 6817POPC   C2B32600  36.818  15.722   8.250
 6817POPC   C3B32601  36.855  15.681   7.950
 6817POPC   C4B32602  36.821  15.723   7.650
 6818POPC   NC332603   4.288  14.438   9.450
 6818POPC   PO432604   4.351  14.405   9.150
 6818POPC   GL132605   4.343  14.377   8.850
 6818POPC   GL232606   4.230  14.414   8.850
 6818POPC   C1A32607   4.332  14.399   8.550
 6818POPC   D2A32608   4.319  14.416   8.250
 6818POPC   C3A32609   4.298  14.399   7.950
 6818POPC   C4A32610   4.325  14.427   7.650
 6818POPC   C1B32611   4.107  14.371   8.550
 6818POPC   C2B32612   4.034  14.422   8.250
 6818POPC   C3B32613   4.052  14.408   7.950
 6818POPC   C4B32614   4.051  14.415   7.650
 6819POPC   NC332615  15.178   4.347   9.450
 6819POPC   PO432616  15.133   4.367   9.150
 6819POPC   GL132617  15.162   4.277   8.850
 6819POPC   GL232618  15.101   4.312   8.850
 6819POPC   C1A32619  15.199   4.354   8.550
 6819POPC   D2A32620  15.142   4.301   8.250
 6819POPC   C3A32621  15.203   4.325   7.950
 6819POPC   C4A32622  15.194   4.332   7.650
 6819POPC   C1B32623  14.967   4.197   8.550
 6819POPC   C2B32624  14.930   4.266   8.250
 6819POPC   C3B32625  14.988   4.189   7.950
 6819POPC   C4B32626  14.940   4.267   7.650
 6820POPC   NC332627  40.765  12.053   9.450
 6820POPC   PO432628  40.778  12.051   9.150
 6820POPC   GL132629  40.734  12.096   8.850
 6820POPC   GL232630  40.870  12.140   8.850
 6820POPC   C1A32631  40.807  12.099   8.550
 6820POPC   D2A32632  40.810  12.043   8.250
 6820POPC   C3A32633  40.738  12.042   7.950
 6820POPC   C4A32634  40.748  12.033   7.650
 6820POPC   C1B32635  40.974  12.202   8.550
 6820POPC   C2B32636  41.022  12.190   8.250
 6820POPC   C3B32637  41.053  12.180   7.950
 6820POPC   C4B32638  41.024  12.167   7.650
 6821POPC   NC332639  39.206  34.608   9.450
 6821POPC   PO432640  39.271  34.623   9.150
 6821POPC   GL132641  39.246  34.592   8.850
 6821POPC   GL232642  39.361  34.505   8.850
 6821POPC   C1A32643  39.257  34.593   8.550
 6821POPC   D2A32644  39.232  34.574   8.250
 6821POPC   C3A32645  39.256  34.624   7.950
 6821POPC   C4A32646  39.259  34.532   7.650
 6821POPC   C1B32647  39.435  34.457   8.550
 6821POPC   C2B32648  39.428  34.479   8.250
 6821POPC   C3B32649  39.446  34.504   7.950
 6821POPC   C4B32650  39.451  34.461   7.650
 6822POPC   NC332651  11.347  24.489   9.450
 6822POPC   PO432652  11.278  24.491   9.150
 6822POPC   GL132653  11.321  24.476   8.850
 6822POPC   GL232654  11.426  24.412   8.850
 6822POPC   C1A32655  11.343  24.528   8.550
 6822POPC   D2A32656  11.288  24.539   8.250
 6822POPC   C3A32657  11.296  24.469   7.950
 6822POPC   C4A32658  11.295  24.527   7.650
 6822POPC   C1B32659  11.480  24.329   8.550
 6822POPC   C2B32660  11.537  24.331   8.250
 6822POPC   C3B32661  11.521  24.394   7.950
 6822POPC   C4B32662  11.537  24.331   7.650
 6823POPC   NC332663  33.045   9.737   9.450
 6823POPC   PO432664  33.051   9.710   9.150
 6823POPC   GL132665  32.977   9.740   8.850
 6823POPC   GL232666  32.904   9.793   8.850
 6823POPC   C1A32667  33.063   9.726   8.550
 6823POPC   D2A32668  33.051   9.783   8.250
 6823POPC   C3A32669  33.056   9.724   7.950
 6823POPC   C4A32670  33.024   9.776   7.650
 6823POPC   C1B32671  32.854   9.924   8.550
 6823POPC   C2B32672  32.802   9.952   8.250
 6823POPC   C3B32673  32.834   9.904   7.950
 6823POPC   C4B32674  32.855   9.888   7.650
 6824POPC   NC332675   0.467  23.749   9.450
 6824POPC   PO432676   0.403  23.685   9.150
 6824POPC   GL132677   0.457  23.681   8.850
 6824POPC   GL232678   0.575  23.655   8.850
 6824POPC   C1A32679   0.450  23.754   8.550
 6824POPC   D2A32680   0.410  23.760   8.250
 6824POPC   C3A32681   0.432  23.676   7.950
 6824POPC   C4A32682   0.474  23.754   7.650
 6824POPC   C1B32683   0.596  23.507   8.550
 6824POPC   C2B32684   0.616  23.507   8.250
 6824POPC   C3B32685   0.612  23.599   7.950
 6824POPC   C4B32686   0.656  23.534   7.650
 6825POPC   NC332687  11.291  29.891   9.450
 6825POPC   PO432688  11.262  29.871   9.150
 6825POPC   GL132689  11.339  29.881   8.850
 6825POPC   GL232690  11.236  29.997   8.850
 6825POPC   C1A32691  11.317  29.902   8.550
 6825POPC   D2A32692  11.256  29.890   8.250
 6825POPC   C3A32693  11.254  29.881   7.950
 6825POPC   C4A32694  11.319  29.914   7.650
 6825POPC   C1B32695  11.174  30.116   8.550
 6825POPC   C2B32696  11.190  30.114   8.250
 6825POPC   C3B32697  11.202  30.100   7.950
 6825POPC   C4B32698  11.106  30.119   7.650
 6826POPC   NC332699  12.046   8.936   9.450
 6826POPC   PO432700  12.030   8.929   9.150
 6826POPC   GL132701  12.095   8.959   8.850
 6826POPC   GL232702  12.151   8.916   8.850
 6826POPC   C1A32703  12.087   9.008   8.550
 6826POPC   D2A32704  12.072   8.938   8.250
 6826POPC   C3A32705  12.043   8.949   7.950
 6826POPC   C4A32706  12.032   8.987   7.650
 6826POPC   C1B32707  12.315   8.806   8.550
 6826POPC   C2B32708  12.262   8.858   8.250
 6826POPC   C3B32709  12.259   8.811   7.950
 6826POPC   C4B32710  12.229   8.860   7.650
 6827POPC   NC332711  15.163  44.639   9.450
 6827POPC   PO432712  15.162  44.653   9.150
 6827POPC   GL132713  15.205  44.671   8.850
 6827POPC   GL232714  15.247  44.588   8.850
 6827POPC   C1A32715  15.181  44.646   8.550
 6827POPC   D2A32716  15.175  44.650   8.250
 6827POPC   C3A32717  15.228  44.685   7.950
 6827POPC   C4A32718  15.215  44.637   7.650
 6827POPC   C1B32719  15.259  44.374   8.550
 6827POPC   C2B32720  15.203  44.439   8.250
 6827POPC   C3B32721  15.202  44.443   7.950
 6827POPC   C4B32722  15.231  44.411   7.650
 6828POPC   NC332723  27.583  19.029   9.450
 6828POPC   PO432724  27.576  19.032   9.150
 6828POPC   GL132725  27.628  19.060   8.850
 6828POPC   GL232726  27.639  19.134   8.850
 6828POPC   C1A32727  27.640  19.041   8.550
 6828POPC   D2A32728  27.563  19.031   8.250
 6828POPC   C3A32729  27.601  19.038   7.950
 6828POPC   C4A32730  27.599  19.028   7.650
 6828POPC   C1B32731  27.690  19.328   8.550
 6828POPC   C2B32732  27.710  19.261   8.250
 6828POPC   C3B32733  27.681  19.268   7.950
 6828POPC   C4B32734  27.660  19.310   7.650
 6829POPC   NC332735  22.945  12.829   9.450
 6829POPC   PO432736  22.917  12.875   9.150
 6829POPC   GL132737  22.913  12.835   8.850
 6829POPC   GL232738  22.803  12.915   8.850
 6829POPC   C1A32739  22.951  12.848   8.550
 6829POPC   D2A32740  22.914  12.809   8.250
 6829POPC   C3A32741  22.968  12.878   7.950
 6829POPC   C4A32742  22.964  12.810   7.650
 6829POPC   C1B32743  22.698  13.006   8.550
 6829POPC   C2B32744  22.723  13.009   8.250
 6829POPC   C3B32745  22.696  13.006   7.950
 6829POPC   C4B32746  22.766  13.006   7.650
 6830POPC   NC332747   1.983  26.822   9.450
 6830POPC   PO432748   1.993  26.832   9.150
 6830POPC   GL132749   2.014  26.854   8.850
 6830POPC   GL232750   2.089  26.822   8.850
 6830POPC   C1A32751   2.016  26.822   8.550
 6830POPC   D2A32752   1.977  26.822   8.250
 6830POPC   C3A32753   1.953  26.825   7.950
 6830POPC   C4A32754   2.008  26.856   7.650
 6830POPC   C1B32755   2.186  26.729   8.550
 6830POPC   C2B32756   2.284  26.759   8.250
 6830POPC   C3B32757   2.191  26.725   7.950
 6830POPC   C4B32758   2.247  26.771   7.650
 6831POPC   NC332759   5.076  42.287   9.450
 6831POPC   PO432760   5.105  42.291   9.150
 6831POPC   GL132761   5.140  42.383   8.850
 6831POPC   GL232762   5.201  42.309   8.850
 6831POPC   C1A32763   5.092  42.346   8.550
 6831POPC   D2A32764   5.050  42.360   8.250
 6831POPC   C3A32765   5.091  42.336   7.950
 6831POPC   C4A32766   5.098  42.352   7.650
 6831POPC   C1B32767   5.281  42.219   8.550
 6831POPC   C2B32768   5.340  42.295   8.250
 6831POPC   C3B32769   5.292  42.264   7.950
 6831POPC   C4B32770   5.284  42.275   7.650
 6832POPC   NC332771   5.821   5.833   9.450
 6832POPC   PO432772   5.865   5.820   9.150
 6832POPC   GL132773   5.911   5.832   8.850
 6832POPC   GL232774   5.988   5.792   8.850
 6832POPC   C1A32775   5.824   5.912   8.550
 6832POPC   D2A32776   5.830   5.828   8.250
 6832POPC   C3A32777   5.823   5.913   7.950
 6832POPC   C4A32778   5.820   5.848   7.650
 6832POPC   C1B32779   6.045   5.668   8.550
 6832POPC   C2B32780   6.055   5.677   8.250
 6832POPC   C3B32781   6.107   5.716   7.950
 6832POPC   C4B32782   6.116   5.714   7.650
 6833POPC   NC332783  23.711   7.402   9.450
 6833POPC   PO432784  23.667   7.411   9.150
 6833POPC   GL132785  23.732   7.452   8.850
 6833POPC   GL232786  23.796   7.566   8.850
 6833POPC   C1A32787  23.761   7.374   8.550
 6833POPC   D2A32788  23.737   7.402   8.250
 6833POPC   C3A32789  23.682   7.377   7.950
 6833POPC   C4A32790  23.740   7.393   7.650
 6833POPC   C1B32791  23.856   7.583   8.550
 6833POPC   C2B32792  23.810   7.664   8.250
 6833POPC   C3B32793  23.885   7.609   7.950
 6833POPC   C4B32794  23.807   7.621   7.650
 6834POPC   NC332795   1.221   7.377   9.450
 6834POPC   PO432796   1.254   7.454   9.150
 6834POPC   GL132797   1.241   7.437   8.850
 6834POPC   GL232798   1.115   7.544   8.850
 6834POPC   C1A32799   1.171   7.406   8.550
 6834POPC   D2A32800   1.169   7.408   8.250
 6834POPC   C3A32801   1.216   7.449   7.950
 6834POPC   C4A32802   1.263   7.469   7.650
 6834POPC   C1B32803   1.053   7.621   8.550
 6834POPC   C2B32804   1.086   7.613   8.250
 6834POPC   C3B32805   1.085   7.582   7.950
 6834POPC   C4B32806   1.073   7.653   7.650
 6835POPC   NC332807  27.639  43.853   9.450
 6835POPC   PO432808  27.642  43.918   9.150
 6835POPC   GL132809  27.640  43.846   8.850
 6835POPC   GL232810  27.760  43.936   8.850
 6835POPC   C1A32811  27.606  43.891   8.550
 6835POPC   D2A32812  27.548  43.929   8.250
 6835POPC   C3A32813  27.558  43.878   7.950
 6835POPC   C4A32814  27.565  43.850   7.650
 6835POPC   C1B32815  27.863  43.915   8.550
 6835POPC   C2B32816  27.807  43.924   8.250
 6835POPC   C3B32817  27.878  43.966   7.950
 6835POPC   C4B32818  27.845  43.931   7.650
 6836POPC   NC332819  44.638  13.621   9.450
 6836POPC   PO432820  44.669  13.590   9.150
 6836POPC   GL132821  44.690  13.591   8.850
 6836POPC   GL232822  44.598  13.540   8.850
 6836POPC   C1A32823  44.616  13.604   8.550
 6836POPC   D2A32824  44.621  13.628   8.250
 6836POPC   C3A32825  44.623  13.673   7.950
 6836POPC   C4A32826  44.677  13.637   7.650
 6836POPC   C1B32827  44.572  13.431   8.550
 6836POPC   C2B32828  44.608  13.442   8.250
 6836POPC   C3B32829  44.572  13.369   7.950
 6836POPC   C4B32830  44.593  13.408   7.650
 6837POPC   NC332831  15.136  11.274   9.450
 6837POPC   PO432832  15.143  11.284   9.150
 6837POPC   GL132833  15.181  11.345   8.850
 6837POPC   GL232834  15.114  11.366   8.850
 6837POPC   C1A32835  15.130  11.335   8.550
 6837POPC   D2A32836  15.203  11.253   8.250
 6837POPC   C3A32837  15.166  11.319   7.950
 6837POPC   C4A32838  15.191  11.252   7.650
 6837POPC   C1B32839  14.935  11.427   8.550
 6837POPC   C2B32840  14.919  11.384   8.250
 6837POPC   C3B32841  14.915  11.373   7.950
 6837POPC   C4B32842  14.927  11.416   7.650
 6838POPC   NC332843  22.919  43.909   9.450
 6838POPC   PO432844  22.903  43.861   9.150
 6838POPC   GL132845  22.919  43.894   8.850
 6838POPC   GL232846  22.866  43.810   8.850
 6838POPC   C1A32847  22.922  43.900   8.550
 6838POPC   D2A32848  22.917  43.860   8.250
 6838POPC   C3A32849  22.974  43.873   7.950
 6838POPC   C4A32850  22.922  43.860   7.650
 6838POPC   C1B32851  22.808  43.660   8.550
 6838POPC   C2B32852  22.767  43.621   8.250
 6838POPC   C3B32853  22.861  43.670   7.950
 6838POPC   C4B32854  22.792  43.675   7.650
 6839POPC   NC332855   3.494  11.261   9.450
 6839POPC   PO432856   3.527  11.257   9.150
 6839POPC   GL132857   3.509  11.343   8.850
 6839POPC   GL232858   3.373  11.247   8.850
 6839POPC   C1A32859   3.568  11.342   8.550
 6839POPC   D2A32860   3.556  11.304   8.250
 6839POPC   C3A32861   3.572  11.281   7.950
 6839POPC   C4A32862   3.505  11.330   7.650
 6839POPC   C1B32863   3.282  11.299   8.550
 6839POPC   C2B32864   3.284  11.239   8.250
 6839POPC   C3B32865   3.340  11.229   7.950
 6839POPC   C4B32866   3.257  11.314   7.650
 6840POPC   NC332867   2.759  23.713   9.450
 6840POPC   PO432868   2.727  23.727   9.150
 6840POPC   GL132869   2.722  23.735   8.850
 6840POPC   GL232870   2.880  23.678   8.850
 6840POPC   C1A32871   2.769  23.669   8.550
 6840POPC   D2A32872   2.814  23.714   8.250
 6840POPC   C3A32873   2.758  23.711   7.950
 6840POPC   C4A32874   2.790  23.755   7.650
 6840POPC   C1B32875   3.064  23.713   8.550
 6840POPC   C2B32876   2.981  23.690   8.250
 6840POPC   C3B32877   2.976  23.708   7.950
 6840POPC   C4B32878   3.016  23.756   7.650
 6841POPC   NC332879  43.933  23.705   9.450
 6841POPC   PO432880  43.897  23.703   9.150
 6841POPC   GL132881  43.901  23.720   8.850
 6841POPC   GL232882  43.790  23.615   8.850
 6841POPC   C1A32883  43.860  23.702   8.550
 6841POPC   D2A32884  43.910  23.738   8.250
 6841POPC   C3A32885  43.842  23.762   7.950
 6841POPC   C4A32886  43.893  23.750   7.650
 6841POPC   C1B32887  43.829  23.507   8.550
 6841POPC   C2B32888  43.770  23.519   8.250
 6841POPC   C3B32889  43.741  23.453   7.950
 6841POPC   C4B32890  43.736  23.497   7.650
 6842POPC   NC332891  41.544  43.148   9.450
 6842POPC   PO432892  41.548  43.142   9.150
 6842POPC   GL132893  41.593  43.145   8.850
 6842POPC   GL232894  41.636  43.131   8.850
 6842POPC   C1A32895  41.513  43.136   8.550
 6842POPC   D2A32896  41.534  43.128   8.250
 6842POPC   C3A32897  41.568  43.136   7.950
 6842POPC   C4A32898  41.589  43.092   7.650
 6842POPC   C1B32899  41.818  43.218   8.550
 6842POPC   C2B32900  41.795  43.163   8.250
 6842POPC   C3B32901  41.792  43.132   7.950
 6842POPC   C4B32902  41.849  43.134   7.650
 6843POPC   NC332903   2.019  38.497   9.450
 6843POPC   PO432904   1.972  38.448   9.150
 6843POPC   GL132905   2.008  38.481   8.850
 6843POPC   GL232906   2.021  38.626   8.850
 6843POPC   C1A32907   1.945  38.481   8.550
 6843POPC   D2A32908   1.980  38.496   8.250
 6843POPC   C3A32909   1.979  38.410   7.950
 6843POPC   C4A32910   1.981  38.435   7.650
 6843POPC   C1B32911   2.008  38.694   8.550
 6843POPC   C2B32912   2.006  38.709   8.250
 6843POPC   C3B32913   2.010  38.715   7.950
 6843POPC   C4B32914   1.990  38.704   7.650
 6844POPC   NC332915  12.115   1.244   9.450
 6844POPC   PO432916  12.048   1.168   9.150
 6844POPC   GL132917  12.086   1.252   8.850
 6844POPC   GL232918  12.178   1.232   8.850
 6844POPC   C1A32919  12.035   1.201   8.550
 6844POPC   D2A32920  12.082   1.256   8.250
 6844POPC   C3A32921  12.075   1.188   7.950
 6844POPC   C4A32922  12.085   1.251   7.650
 6844POPC   C1B32923  12.374   1.194   8.550
 6844POPC   C2B32924  12.307   1.153   8.250
 6844POPC   C3B32925  12.296   1.187   7.950
 6844POPC   C4B32926  12.371   1.157   7.650
 6845POPC   NC332927  26.805  36.153   9.450
 6845POPC   PO432928  26.798  36.113   9.150
 6845POPC   GL132929  26.794  36.119   8.850
 6845POPC   GL232930  26.938  36.095   8.850
 6845POPC   C1A32931  26.785  36.152   8.550
 6845POPC   D2A32932  26.802  36.090   8.250
 6845POPC   C3A32933  26.787  36.147   7.950
 6845POPC   C4A32934  26.837  36.128   7.650
 6845POPC   C1B32935  27.031  36.127   8.550
 6845POPC   C2B32936  27.085  36.068   8.250
 6845POPC   C3B32937  27.085  36.056   7.950
 6845POPC   C4B32938  27.063  36.118   7.650
 6846POPC   NC332939   3.580  15.926   9.450
 6846POPC   PO432940   3.531  15.944   9.150
 6846POPC   GL132941   3.496  15.957   8.850
 6846POPC   GL232942   3.540  15.782   8.850
 6846POPC   C1A32943   3.524  15.917   8.550
 6846POPC   D2A32944   3.555  15.972   8.250
 6846POPC   C3A32945   3.561  15.992   7.950
 6846POPC   C4A32946   3.515  15.958   7.650
 6846POPC   C1B32947   3.531  15.738   8.550
 6846POPC   C2B32948   3.564  15.720   8.250
 6846POPC   C3B32949   3.542  15.724   7.950
 6846POPC   C4B32950   3.603  15.693   7.650
 6847POPC   NC332951  15.979  10.510   9.450
 6847POPC   PO432952  15.955  10.480   9.150
 6847POPC   GL132953  15.958  10.492   8.850
 6847POPC   GL232954  16.008  10.638   8.850
 6847POPC   C1A32955  16.002  10.545   8.550
 6847POPC   D2A32956  15.990  10.555   8.250
 6847POPC   C3A32957  15.988  10.516   7.950
 6847POPC   C4A32958  15.923  10.543   7.650
 6847POPC   C1B32959  16.027  10.807   8.550
 6847POPC   C2B32960  15.967  10.804   8.250
 6847POPC   C3B32961  16.035  10.805   7.950
 6847POPC   C4B32962  16.048  10.720   7.650
 6848POPC   NC332963   6.653   4.309   9.450
 6848POPC   PO432964   6.614   4.357   9.150
 6848POPC   GL132965   6.629   4.318   8.850
 6848POPC   GL232966   6.517   4.345   8.850
 6848POPC   C1A32967   6.656   4.304   8.550
 6848POPC   D2A32968   6.608   4.349   8.250
 6848POPC   C3A32969   6.655   4.273   7.950
 6848POPC   C4A32970   6.619   4.317   7.650
 6848POPC   C1B32971   6.452   4.509   8.550
 6848POPC   C2B32972   6.417   4.470   8.250
 6848POPC   C3B32973   6.477   4.428   7.950
 6848POPC   C4B32974   6.427   4.515   7.650
 6849POPC   NC332975  19.069   0.389   9.450
 6849POPC   PO432976  19.094   0.433   9.150
 6849POPC   GL132977  19.047   0.423   8.850
 6849POPC   GL232978  19.017   0.295   8.850
 6849POPC   C1A32979  19.093   0.406   8.550
 6849POPC   D2A32980  19.064   0.453   8.250
 6849POPC   C3A32981  19.098   0.429   7.950
 6849POPC   C4A32982  19.047   0.416   7.650
 6849POPC   C1B32983  18.940   0.204   8.550
 6849POPC   C2B32984  18.939   0.219   8.250
 6849POPC   C3B32985  18.952   0.243   7.950
 6849POPC   C4B32986  18.891   0.184   7.650
 6850POPC   NC332987  34.582  33.052   9.450
 6850POPC   PO432988  34.622  32.985   9.150
 6850POPC   GL132989  34.601  33.002   8.850
 6850POPC   GL232990  34.659  32.894   8.850
 6850POPC   C1A32991  34.545  33.029   8.550
 6850POPC   D2A32992  34.572  33.012   8.250
 6850POPC   C3A32993  34.556  33.048   7.950
 6850POPC   C4A32994  34.609  33.065   7.650
 6850POPC   C1B32995  34.725  32.819   8.550
 6850POPC   C2B32996  34.671  32.797   8.250
 6850POPC   C3B32997  34.716  32.787   7.950
 6850POPC   C4B32998  34.674  32.788   7.650
 6851POPC   NC332999  24.522  36.087   9.450
 6851POPC   PO433000  24.533  36.177   9.150
 6851POPC   GL133001  24.507  36.083   8.850
 6851POPC   GL233002  24.466  35.982   8.850
 6851POPC   C1A33003  24.489  36.090   8.550
 6851POPC   D2A33004  24.471  36.100   8.250
 6851POPC   C3A33005  24.442  36.166   7.950
 6851POPC   C4A33006  24.475  36.152   7.650
 6851POPC   C1B33007  24.500  35.871   8.550
 6851POPC   C2B33008  24.495  35.921   8.250
 6851POPC   C3B33009  24.489  35.866   7.950
 6851POPC   C4B33010  24.463  35.874   7.650
 6852POPC   NC333011  32.259  40.022   9.450
 6852POPC   PO433012  32.265  39.988   9.150
 6852POPC   GL133013  32.243  39.986   8.850
 6852POPC   GL233014  32.308  40.056   8.850
 6852POPC   C1A33015  32.291  40.046   8.550
 6852POPC   D2A33016  32.282  39.965   8.250
 6852POPC   C3A33017  32.233  40.032   7.950
 6852POPC   C4A33018  32.280  39.959   7.650
 6852POPC   C1B33019  32.462  40.177   8.550
 6852POPC   C2B33020  32.429  40.220   8.250
 6852POPC   C3B33021  32.425  40.196   7.950
 6852POPC   C4B33022  32.455  40.204   7.650
 6853POPC   NC333023  14.452   2.783   9.450
 6853POPC   PO433024  14.384   2.760   9.150
 6853POPC   GL133025  14.417   2.811   8.850
 6853POPC   GL233026  14.333   2.900   8.850
 6853POPC   C1A33027  14.442   2.793   8.550
 6853POPC   D2A33028  14.442   2.778   8.250
 6853POPC   C3A33029  14.446   2.790   7.950
 6853POPC   C4A33030  14.376   2.756   7.650
 6853POPC   C1B33031  14.360   2.996   8.550
 6853POPC   C2B33032  14.313   3.034   8.250
 6853POPC   C3B33033  14.320   3.017   7.950
 6853POPC   C4B33034  14.349   3.031   7.650
 6854POPC   NC333035   5.072  12.122   9.450
 6854POPC   PO433036   5.116  12.037   9.150
 6854POPC   GL133037   5.118  12.095   8.850
 6854POPC   GL233038   5.015  11.972   8.850
 6854POPC   C1A33039   5.054  12.125   8.550
 6854POPC   D2A33040   5.136  12.094   8.250
 6854POPC   C3A33041   5.089  12.099   7.950
 6854POPC   C4A33042   5.053  12.093   7.650
 6854POPC   C1B33043   4.999  11.803   8.550
 6854POPC   C2B33044   5.071  11.788   8.250
 6854POPC   C3B33045   5.004  11.814   7.950
 6854POPC   C4B33046   5.073  11.795   7.650
 6855POPC   NC333047  20.618  34.580   9.450
 6855POPC   PO433048  20.588  34.553   9.150
 6855POPC   GL133049  20.580  34.609   8.850
 6855POPC   GL233050  20.458  34.679   8.850
 6855POPC   C1A33051  20.631  34.615   8.550
 6855POPC   D2A33052  20.591  34.545   8.250
 6855POPC   C3A33053  20.587  34.604   7.950
 6855POPC   C4A33054  20.587  34.573   7.650
 6855POPC   C1B33055  20.358  34.707   8.550
 6855POPC   C2B33056  20.362  34.681   8.250
 6855POPC   C3B33057  20.407  34.733   7.950
 6855POPC   C4B33058  20.452  34.733   7.650
 6856POPC   NC333059  42.357  32.997   9.450
 6856POPC   PO433060  42.330  33.059   9.150
 6856POPC   GL133061  42.348  33.052   8.850
 6856POPC   GL233062  42.427  33.026   8.850
 6856POPC   C1A33063  42.362  33.003   8.550
 6856POPC   D2A33064  42.312  33.024   8.250
 6856POPC   C3A33065  42.340  32.986   7.950
 6856POPC   C4A33066  42.285  33.004   7.650
 6856POPC   C1B33067  42.633  33.048   8.550
 6856POPC   C2B33068  42.611  33.052   8.250
 6856POPC   C3B33069  42.591  33.075   7.950
 6856POPC   C4B33070  42.590  33.048   7.650
 6857POPC   NC333071  35.375  37.658   9.450
 6857POPC   PO433072  35.321  37.683   9.150
 6857POPC   GL133073  35.306  37.681   8.850
 6857POPC   GL233074  35.461  37.577   8.850
 6857POPC   C1A33075  35.353  37.721   8.550
 6857POPC   D2A33076  35.354  37.639   8.250
 6857POPC   C3A33077  35.327  37.671   7.950
 6857POPC   C4A33078  35.338  37.702   7.650
 6857POPC   C1B33079  35.501  37.462   8.550
 6857POPC   C2B33080  35.523  37.463   8.250
 6857POPC   C3B33081  35.501  37.489   7.950
 6857POPC   C4B33082  35.514  37.435   7.650
 6858POPC   NC333083   2.032  14.446   9.450
 6858POPC   PO433084   1.960  14.434   9.150
 6858POPC   GL133085   2.015  14.428   8.850
 6858POPC   GL233086   1.990  14.476   8.850
 6858POPC   C1A33087   1.961  14.422   8.550
 6858POPC   D2A33088   1.948  14.447   8.250
 6858POPC   C3A33089   1.990  14.430   7.950
 6858POPC   C4A33090   2.031  14.408   7.650
 6858POPC   C1B33091   1.880  14.626   8.550
 6858POPC   C2B33092   1.881  14.634   8.250
 6858POPC   C3B33093   1.882  14.645   7.950
 6858POPC   C4B33094   1.938  14.605   7.650
 6859POPC   NC333095  25.281   2.782   9.450
 6859POPC   PO433096  25.306   2.811   9.150
 6859POPC   GL133097  25.249   2.724   8.850
 6859POPC   GL233098  25.280   2.614   8.850
 6859POPC   C1A33099  25.220   2.768   8.550
 6859POPC   D2A33100  25.255   2.803   8.250
 6859POPC   C3A33101  25.302   2.728   7.950
 6859POPC   C4A33102  25.306   2.787   7.650
 6859POPC   C1B33103  25.308   2.536   8.550
 6859POPC   C2B33104  25.320   2.476   8.250
 6859POPC   C3B33105  25.253   2.536   7.950
 6859POPC   C4B33106  25.245   2.527   7.650
 6860POPC   NC333107  15.996  19.036   9.450
 6860POPC   PO433108  15.961  19.074   9.150
 6860POPC   GL133109  15.973  19.019   8.850
 6860POPC   GL233110  15.960  18.943   8.850
 6860POPC   C1A33111  15.950  19.056   8.550
 6860POPC   D2A33112  15.921  19.030   8.250
 6860POPC   C3A33113  15.982  19.021   7.950
 6860POPC   C4A33114  15.920  19.028   7.650
 6860POPC   C1B33115  16.012  18.844   8.550
 6860POPC   C2B33116  16.041  18.784   8.250
 6860POPC   C3B33117  16.037  18.843   7.950
 6860POPC   C4B33118  16.093  18.795   7.650
 6861POPC   NC333119   0.434  22.179   9.450
 6861POPC   PO433120   0.425  22.201   9.150
 6861POPC   GL133121   0.445  22.187   8.850
 6861POPC   GL233122   0.526  22.178   8.850
 6861POPC   C1A33123   0.403  22.190   8.550
 6861POPC   D2A33124   0.408  22.211   8.250
 6861POPC   C3A33125   0.452  22.139   7.950
 6861POPC   C4A33126   0.426  22.201   7.650
 6861POPC   C1B33127   0.643  22.133   8.550
 6861POPC   C2B33128   0.664  22.151   8.250
 6861POPC   C3B33129   0.638  22.143   7.950
 6861POPC   C4B33130   0.643  22.131   7.650
 6862POPC   NC333131   7.372  41.591   9.450
 6862POPC   PO433132   7.448  41.566   9.150
 6862POPC   GL133133   7.451  41.520   8.850
 6862POPC   GL233134   7.519  41.572   8.850
 6862POPC   C1A33135   7.463  41.534   8.550
 6862POPC   D2A33136   7.377  41.600   8.250
 6862POPC   C3A33137   7.456  41.531   7.950
 6862POPC   C4A33138   7.460  41.549   7.650
 6862POPC   C1B33139   7.623  41.642   8.550
 6862POPC   C2B33140   7.609  41.619   8.250
 6862POPC   C3B33141   7.664  41.654   7.950
 6862POPC   C4B33142   7.681  41.631   7.650
 6863POPC   NC333143  22.174   0.399   9.450
 6863POPC   PO433144  22.136   0.464   9.150
 6863POPC   GL133145  22.194   0.421   8.850
 6863POPC   GL233146  22.162   0.511   8.850
 6863POPC   C1A33147  22.128   0.460   8.550
 6863POPC   D2A33148  22.152   0.391   8.250
 6863POPC   C3A33149  22.131   0.486   7.950
 6863POPC   C4A33150  22.126   0.437   7.650
 6863POPC   C1B33151  22.141   0.691   8.550
 6863POPC   C2B33152  22.138   0.697   8.250
 6863POPC   C3B33153  22.113   0.715   7.950
 6863POPC   C4B33154  22.087   0.714   7.650
 6864POPC   NC333155  43.155  23.735   9.450
 6864POPC   PO433156  43.080  23.762   9.150
 6864POPC   GL133157  43.108  23.753   8.850
 6864POPC   GL233158  43.252  23.676   8.850
 6864POPC   C1A33159  43.110  23.717   8.550
 6864POPC   D2A33160  43.090  23.746   8.250
 6864POPC   C3A33161  43.104  23.664   7.950
 6864POPC   C4A33162  43.083  23.728   7.650
 6864POPC   C1B33163  43.342  23.688   8.550
 6864POPC   C2B33164  43.314  23.721   8.250
 6864POPC   C3B33165  43.331  23.713   7.950
 6864POPC   C4B33166  43.367  23.689   7.650
 6865POPC   NC333167  19.790  35.360   9.450
 6865POPC   PO433168  19.861  35.369   9.150
 6865POPC   GL133169  19.851  35.402   8.850
 6865POPC   GL233170  19.672  35.349   8.850
 6865POPC   C1A33171  19.851  35.331   8.550
 6865POPC   D2A33172  19.800  35.387   8.250
 6865POPC   C3A33173  19.881  35.323   7.950
 6865POPC   C4A33174  19.808  35.384   7.650
 6865POPC   C1B33175  19.607  35.215   8.550
 6865POPC   C2B33176  19.638  35.234   8.250
 6865POPC   C3B33177  19.597  35.263   7.950
 6865POPC   C4B33178  19.592  35.248   7.650
 6866POPC   NC333179  40.764  12.808   9.450
 6866POPC   PO433180  40.751  12.859   9.150
 6866POPC   GL133181  40.753  12.855   8.850
 6866POPC   GL233182  40.871  12.895   8.850
 6866POPC   C1A33183  40.737  12.869   8.550
 6866POPC   D2A33184  40.761  12.827   8.250
 6866POPC   C3A33185  40.828  12.885   7.950
 6866POPC   C4A33186  40.749  12.857   7.650
 6866POPC   C1B33187  41.037  12.902   8.550
 6866POPC   C2B33188  41.012  12.878   8.250
 6866POPC   C3B33189  41.031  12.929   7.950
 6866POPC   C4B33190  41.066  12.875   7.650
 6867POPC   NC333191  13.635   2.778   9.450
 6867POPC   PO433192  13.581   2.727   9.150
 6867POPC   GL133193  13.604   2.746   8.850
 6867POPC   GL233194  13.682   2.661   8.850
 6867POPC   C1A33195  13.647   2.747   8.550
 6867POPC   D2A33196  13.658   2.733   8.250
 6867POPC   C3A33197  13.640   2.758   7.950
 6867POPC   C4A33198  13.646   2.768   7.650
 6867POPC   C1B33199  13.816   2.596   8.550
 6867POPC   C2B33200  13.784   2.580   8.250
 6867POPC   C3B33201  13.824   2.545   7.950
 6867POPC   C4B33202  13.774   2.546   7.650
 6868POPC   NC333203  33.008  35.380   9.450
 6868POPC   PO433204  33.002  35.375   9.150
 6868POPC   GL133205  33.073  35.395   8.850
 6868POPC   GL233206  33.097  35.391   8.850
 6868POPC   C1A33207  33.050  35.393   8.550
 6868POPC   D2A33208  33.074  35.315   8.250
 6868POPC   C3A33209  32.980  35.320   7.950
 6868POPC   C4A33210  33.021  35.343   7.650
 6868POPC   C1B33211  33.187  35.523   8.550
 6868POPC   C2B33212  33.232  35.485   8.250
 6868POPC   C3B33213  33.181  35.487   7.950
 6868POPC   C4B33214  33.192  35.541   7.650
 6869POPC   NC333215   1.197  12.032   9.450
 6869POPC   PO433216   1.204  12.093   9.150
 6869POPC   GL133217   1.212  12.079   8.850
 6869POPC   GL233218   1.120  12.049   8.850
 6869POPC   C1A33219   1.191  12.070   8.550
 6869POPC   D2A33220   1.241  12.099   8.250
 6869POPC   C3A33221   1.204  12.121   7.950
 6869POPC   C4A33222   1.171  12.087   7.650
 6869POPC   C1B33223   1.009  12.046   8.550
 6869POPC   C2B33224   0.945  12.067   8.250
 6869POPC   C3B33225   0.978  12.100   7.950
 6869POPC   C4B33226   1.009  12.071   7.650
 6870POPC   NC333227  33.798   8.155   9.450
 6870POPC   PO433228  33.782   8.229   9.150
 6870POPC   GL133229  33.826   8.193   8.850
 6870POPC   GL233230  33.709   8.156   8.850
 6870POPC   C1A33231  33.775   8.196   8.550
 6870POPC   D2A33232  33.819   8.178   8.250
 6870POPC   C3A33233  33.754   8.187   7.950
 6870POPC   C4A33234  33.775   8.245   7.650
 6870POPC   C1B33235  33.527   8.113   8.550
 6870POPC   C2B33236  33.518   8.135   8.250
 6870POPC   C3B33237  33.519   8.101   7.950
 6870POPC   C4B33238  33.529   8.104   7.650
 6871POPC   NC333239  15.203  19.071   9.450
 6871POPC   PO433240  15.147  19.027   9.150
 6871POPC   GL133241  15.153  19.062   8.850
 6871POPC   GL233242  15.273  19.024   8.850
 6871POPC   C1A33243  15.199  19.036   8.550
 6871POPC   D2A33244  15.183  19.102   8.250
 6871POPC   C3A33245  15.215  19.102   7.950
 6871POPC   C4A33246  15.144  19.010   7.650
 6871POPC   C1B33247  15.468  18.975   8.550
 6871POPC   C2B33248  15.440  18.978   8.250
 6871POPC   C3B33249  15.434  19.011   7.950
 6871POPC   C4B33250  15.423  19.019   7.650
 6872POPC   NC333251   4.316  19.819   9.450
 6872POPC   PO433252   4.305  19.880   9.150
 6872POPC   GL133253   4.342  19.797   8.850
 6872POPC   GL233254   4.459  19.805   8.850
 6872POPC   C1A33255   4.305  19.838   8.550
 6872POPC   D2A33256   4.320  19.845   8.250
 6872POPC   C3A33257   4.282  19.809   7.950
 6872POPC   C4A33258   4.344  19.861   7.650
 6872POPC   C1B33259   4.545  19.773   8.550
 6872POPC   C2B33260   4.609  19.827   8.250
 6872POPC   C3B33261   4.616  19.760   7.950
 6872POPC   C4B33262   4.571  19.780   7.650
 6873POPC   NC333263  26.002  33.059   9.450
 6873POPC   PO433264  26.067  33.045   9.150
 6873POPC   GL133265  26.017  33.058   8.850
 6873POPC   GL233266  26.128  33.083   8.850
 6873POPC   C1A33267  26.006  33.047   8.550
 6873POPC   D2A33268  26.000  32.980   8.250
 6873POPC   C3A33269  26.083  32.994   7.950
 6873POPC   C4A33270  26.058  32.985   7.650
 6873POPC   C1B33271  26.156  33.214   8.550
 6873POPC   C2B33272  26.199  33.267   8.250
 6873POPC   C3B33273  26.156  33.217   7.950
 6873POPC   C4B33274  26.167  33.270   7.650
 6874POPC   NC333275  24.455  27.563   9.450
 6874POPC   PO433276  24.537  27.568   9.150
 6874POPC   GL133277  24.442  27.548   8.850
 6874POPC   GL233278  24.574  27.486   8.850
 6874POPC   C1A33279  24.461  27.596   8.550
 6874POPC   D2A33280  24.446  27.576   8.250
 6874POPC   C3A33281  24.513  27.554   7.950
 6874POPC   C4A33282  24.460  27.594   7.650
 6874POPC   C1B33283  24.574  27.376   8.550
 6874POPC   C2B33284  24.599  27.419   8.250
 6874POPC   C3B33285  24.598  27.346   7.950
 6874POPC   C4B33286  24.604  27.368   7.650
 6875POPC   NC333287  36.889  40.030   9.450
 6875POPC   PO433288  36.875  39.968   9.150
 6875POPC   GL133289  36.889  40.030   8.850
 6875POPC   GL233290  36.746  40.004   8.850
 6875POPC   C1A33291  36.931  40.042   8.550
 6875POPC   D2A33292  36.860  39.973   8.250
 6875POPC   C3A33293  36.934  39.980   7.950
 6875POPC   C4A33294  36.867  40.027   7.650
 6875POPC   C1B33295  36.690  39.935   8.550
 6875POPC   C2B33296  36.629  39.974   8.250
 6875POPC   C3B33297  36.680  39.923   7.950
 6875POPC   C4B33298  36.692  39.914   7.650
 6876POPC   NC333299  27.580  11.332   9.450
 6876POPC   PO433300  27.567  11.331   9.150
 6876POPC   GL133301  27.622  11.290   8.850
 6876POPC   GL233302  27.603  11.453   8.850
 6876POPC   C1A33303  27.568  11.276   8.550
 6876POPC   D2A33304  27.559  11.315   8.250
 6876POPC   C3A33305  27.590  11.340   7.950
 6876POPC   C4A33306  27.571  11.337   7.650
 6876POPC   C1B33307  27.660  11.506   8.550
 6876POPC   C2B33308  27.643  11.567   8.250
 6876POPC   C3B33309  27.645  11.557   7.950
 6876POPC   C4B33310  27.643  11.520   7.650
 6877POPC   NC333311  18.259  25.305   9.450
 6877POPC   PO433312  18.234  25.247   9.150
 6877POPC   GL133313  18.292  25.225   8.850
 6877POPC   GL233314  18.296  25.395   8.850
 6877POPC   C1A33315  18.249  25.229   8.550
 6877POPC   D2A33316  18.247  25.285   8.250
 6877POPC   C3A33317  18.320  25.286   7.950
 6877POPC   C4A33318  18.263  25.296   7.650
 6877POPC   C1B33319  18.352  25.560   8.550
 6877POPC   C2B33320  18.352  25.531   8.250
 6877POPC   C3B33321  18.304  25.494   7.950
 6877POPC   C4B33322  18.355  25.483   7.650
 6878POPC   NC333323  12.100  23.722   9.450
 6878POPC   PO433324  12.069  23.720   9.150
 6878POPC   GL133325  12.091  23.762   8.850
 6878POPC   GL233326  12.171  23.601   8.850
 6878POPC   C1A33327  12.081  23.758   8.550
 6878POPC   D2A33328  12.043  23.719   8.250
 6878POPC   C3A33329  12.071  23.694   7.950
 6878POPC   C4A33330  12.047  23.691   7.650
 6878POPC   C1B33331  12.208  23.437   8.550
 6878POPC   C2B33332  12.139  23.527   8.250
 6878POPC   C3B33333  12.219  23.442   7.950
 6878POPC   C4B33334  12.133  23.470   7.650
 6879POPC   NC333335  15.961  20.621   9.450
 6879POPC   PO433336  15.954  20.594   9.150
 6879POPC   GL133337  15.955  20.653   8.850
 6879POPC   GL233338  15.933  20.522   8.850
 6879POPC   C1A33339  15.931  20.601   8.550
 6879POPC   D2A33340  15.964  20.580   8.250
 6879POPC   C3A33341  15.927  20.568   7.950
 6879POPC   C4A33342  15.992  20.643   7.650
 6879POPC   C1B33343  15.822  20.403   8.550
 6879POPC   C2B33344  15.833  20.455   8.250
 6879POPC   C3B33345  15.849  20.407   7.950
 6879POPC   C4B33346  15.787  20.398   7.650
 6880POPC   NC333347  26.067   1.214   9.450
 6880POPC   PO433348  26.029   1.166   9.150
 6880POPC   GL133349  26.052   1.227   8.850
 6880POPC   GL233350  25.934   1.234   8.850
 6880POPC   C1A33351  25.993   1.247   8.550
 6880POPC   D2A33352  26.026   1.164   8.250
 6880POPC   C3A33353  26.082   1.178   7.950
 6880POPC   C4A33354  26.084   1.198   7.650
 6880POPC   C1B33355  25.782   1.209   8.550
 6880POPC   C2B33356  25.775   1.139   8.250
 6880POPC   C3B33357  25.757   1.156   7.950
 6880POPC   C4B33358  25.759   1.188   7.650
 6881POPC   NC333359  18.266  26.811   9.450
 6881POPC   PO433360  18.313  26.840   9.150
 6881POPC   GL133361  18.319  26.847   8.850
 6881POPC   GL233362  18.182  26.909   8.850
 6881POPC   C1A33363  18.240  26.801   8.550
 6881POPC   D2A33364  18.331  26.807   8.250
 6881POPC   C3A33365  18.265  26.856   7.950
 6881POPC   C4A33366  18.317  26.807   7.650
 6881POPC   C1B33367  18.177  27.023   8.550
 6881POPC   C2B33368  18.164  27.018   8.250
 6881POPC   C3B33369  18.157  26.984   7.950
 6881POPC   C4B33370  18.112  27.017   7.650
 6882POPC   NC333371   5.894  33.035   9.450
 6882POPC   PO433372   5.840  33.030   9.150
 6882POPC   GL133373   5.875  33.005   8.850
 6882POPC   GL233374   5.997  33.081   8.850
 6882POPC   C1A33375   5.823  33.044   8.550
 6882POPC   D2A33376   5.835  33.060   8.250
 6882POPC   C3A33377   5.856  32.980   7.950
 6882POPC   C4A33378   5.913  33.019   7.650
 6882POPC   C1B33379   6.040  33.129   8.550
 6882POPC   C2B33380   6.092  33.162   8.250
 6882POPC   C3B33381   6.128  33.160   7.950
 6882POPC   C4B33382   6.111  33.154   7.650
 6883POPC   NC333383  11.264  25.251   9.450
 6883POPC   PO433384  11.314  25.315   9.150
 6883POPC   GL133385  11.313  25.300   8.850
 6883POPC   GL233386  11.441  25.347   8.850
 6883POPC   C1A33387  11.323  25.280   8.550
 6883POPC   D2A33388  11.320  25.313   8.250
 6883POPC   C3A33389  11.323  25.234   7.950
 6883POPC   C4A33390  11.303  25.281   7.650
 6883POPC   C1B33391  11.467  25.370   8.550
 6883POPC   C2B33392  11.551  25.363   8.250
 6883POPC   C3B33393  11.463  25.461   7.950
 6883POPC   C4B33394  11.486  25.454   7.650
 6884POPC   NC333395  32.283  42.311   9.450
 6884POPC   PO433396  32.243  42.327   9.150
 6884POPC   GL133397  32.297  42.288   8.850
 6884POPC   GL233398  32.292  42.184   8.850
 6884POPC   C1A33399  32.212  42.320   8.550
 6884POPC   D2A33400  32.224  42.290   8.250
 6884POPC   C3A33401  32.224  42.365   7.950
 6884POPC   C4A33402  32.266  42.348   7.650
 6884POPC   C1B33403  32.213  42.065   8.550
 6884POPC   C2B33404  32.239  42.051   8.250
 6884POPC   C3B33405  32.244  42.045   7.950
 6884POPC   C4B33406  32.225  42.056   7.650
 6885POPC   NC333407  24.454  19.827   9.450
 6885POPC   PO433408  24.472  19.878   9.150
 6885POPC   GL133409  24.443  19.795   8.850
 6885POPC   GL233410  24.566  19.908   8.850
 6885POPC   C1A33411  24.465  19.841   8.550
 6885POPC   D2A33412  24.499  19.843   8.250
 6885POPC   C3A33413  24.458  19.860   7.950
 6885POPC   C4A33414  24.481  19.808   7.650
 6885POPC   C1B33415  24.746  19.864   8.550
 6885POPC   C2B33416  24.700  19.937   8.250
 6885POPC   C3B33417  24.730  19.938   7.950
 6885POPC   C4B33418  24.707  19.866   7.650
 6886POPC   NC333419  26.027  15.989   9.450
 6886POPC   PO433420  26.068  15.936   9.150
 6886POPC   GL133421  26.002  15.973   8.850
 6886POPC   GL233422  25.934  15.844   8.850
 6886POPC   C1A33423  26.086  15.942   8.550
 6886POPC   D2A33424  26.089  15.921   8.250
 6886POPC   C3A33425  26.084  15.923   7.950
 6886POPC   C4A33426  26.059  15.927   7.650
 6886POPC   C1B33427  25.972  15.686   8.550
 6886POPC   C2B33428  25.944  15.748   8.250
 6886POPC   C3B33429  25.897  15.698   7.950
 6886POPC   C4B33430  25.946  15.732   7.650
 6887POPC   NC333431  21.357  39.238   9.450
 6887POPC   PO433432  21.386  39.244   9.150
 6887POPC   GL133433  21.404  39.270   8.850
 6887POPC   GL233434  21.264  39.143   8.850
 6887POPC   C1A33435  21.355  39.265   8.550
 6887POPC   D2A33436  21.413  39.201   8.250
 6887POPC   C3A33437  21.336  39.190   7.950
 6887POPC   C4A33438  21.404  39.204   7.650
 6887POPC   C1B33439  21.257  39.096   8.550
 6887POPC   C2B33440  21.227  39.053   8.250
 6887POPC   C3B33441  21.232  39.001   7.950
 6887POPC   C4B33442  21.197  39.083   7.650
 6888POPC   NC333443  43.925  19.093   9.450
 6888POPC   PO433444  43.879  19.043   9.150
 6888POPC   GL133445  43.918  19.064   8.850
 6888POPC   GL233446  43.907  19.131   8.850
 6888POPC   C1A33447  43.899  19.020   8.550
 6888POPC   D2A33448  43.837  19.075   8.250
 6888POPC   C3A33449  43.879  19.104   7.950
 6888POPC   C4A33450  43.850  19.072   7.650
 6888POPC   C1B33451  43.790  19.328   8.550
 6888POPC   C2B33452  43.793  19.261   8.250
 6888POPC   C3B33453  43.815  19.295   7.950
 6888POPC   C4B33454  43.826  19.283   7.650
 6889POPC   NC333455  36.890  27.555   9.450
 6889POPC   PO433456  36.939  27.614   9.150
 6889POPC   GL133457  36.868  27.559   8.850
 6889POPC   GL233458  37.001  27.611   8.850
 6889POPC   C1A33459  36.912  27.615   8.550
 6889POPC   D2A33460  36.953  27.619   8.250
 6889POPC   C3A33461  36.948  27.632   7.950
 6889POPC   C4A33462  36.937  27.574   7.650
 6889POPC   C1B33463  37.139  27.566   8.550
 6889POPC   C2B33464  37.152  27.559   8.250
 6889POPC   C3B33465  37.117  27.609   7.950
 6889POPC   C4B33466  37.125  27.613   7.650
 6890POPC   NC333467  17.493  11.279   9.450
 6890POPC   PO433468  17.519  11.314   9.150
 6890POPC   GL133469  17.530  11.305   8.850
 6890POPC   GL233470  17.605  11.372   8.850
 6890POPC   C1A33471  17.517  11.266   8.550
 6890POPC   D2A33472  17.484  11.292   8.250
 6890POPC   C3A33473  17.505  11.305   7.950
 6890POPC   C4A33474  17.552  11.326   7.650
 6890POPC   C1B33475  17.587  11.533   8.550
 6890POPC   C2B33476  17.614  11.483   8.250
 6890POPC   C3B33477  17.620  11.557   7.950
 6890POPC   C4B33478  17.570  11.515   7.650
 6891POPC   NC333479   7.421  43.092   9.450
 6891POPC   PO433480   7.407  43.153   9.150
 6891POPC   GL133481   7.463  43.096   8.850
 6891POPC   GL233482   7.341  43.045   8.850
 6891POPC   C1A33483   7.447  43.068   8.550
 6891POPC   D2A33484   7.382  43.083   8.250
 6891POPC   C3A33485   7.471  43.152   7.950
 6891POPC   C4A33486   7.449  43.125   7.650
 6891POPC   C1B33487   7.178  42.944   8.550
 6891POPC   C2B33488   7.252  42.962   8.250
 6891POPC   C3B33489   7.158  42.953   7.950
 6891POPC   C4B33490   7.166  42.953   7.650
 6892POPC   NC333491  16.703   4.340   9.450
 6892POPC   PO433492  16.724   4.359   9.150
 6892POPC   GL133493  16.696   4.336   8.850
 6892POPC   GL233494  16.775   4.228   8.850
 6892POPC   C1A33495  16.697   4.326   8.550
 6892POPC   D2A33496  16.752   4.308   8.250
 6892POPC   C3A33497  16.683   4.357   7.950
 6892POPC   C4A33498  16.682   4.309   7.650
 6892POPC   C1B33499  16.708   4.117   8.550
 6892POPC   C2B33500  16.774   4.113   8.250
 6892POPC   C3B33501  16.775   4.022   7.950
 6892POPC   C4B33502  16.781   4.067   7.650
 6893POPC   NC333503  10.511  41.568   9.450
 6893POPC   PO433504  10.571  41.548   9.150
 6893POPC   GL133505  10.548  41.551   8.850
 6893POPC   GL233506  10.429  41.634   8.850
 6893POPC   C1A33507  10.483  41.606   8.550
 6893POPC   D2A33508  10.527  41.548   8.250
 6893POPC   C3A33509  10.519  41.546   7.950
 6893POPC   C4A33510  10.476  41.517   7.650
 6893POPC   C1B33511  10.308  41.695   8.550
 6893POPC   C2B33512  10.254  41.628   8.250
 6893POPC   C3B33513  10.285  41.614   7.950
 6893POPC   C4B33514  10.313  41.610   7.650
 6894POPC   NC333515   3.503  39.199   9.450
 6894POPC   PO433516   3.527  39.209   9.150
 6894POPC   GL133517   3.517  39.187   8.850
 6894POPC   GL233518   3.682  39.265   8.850
 6894POPC   C1A33519   3.499  39.197   8.550
 6894POPC   D2A33520   3.503  39.186   8.250
 6894POPC   C3A33521   3.502  39.266   7.950
 6894POPC   C4A33522   3.499  39.212   7.650
 6894POPC   C1B33523   3.745  39.285   8.550
 6894POPC   C2B33524   3.751  39.303   8.250
 6894POPC   C3B33525   3.776  39.271   7.950
 6894POPC   C4B33526   3.803  39.254   7.650
 6895POPC   NC333527  41.606  35.332   9.450
 6895POPC   PO433528  41.528  35.399   9.150
 6895POPC   GL133529  41.586  35.345   8.850
 6895POPC   GL233530  41.654  35.257   8.850
 6895POPC   C1A33531  41.593  35.397   8.550
 6895POPC   D2A33532  41.592  35.358   8.250
 6895POPC   C3A33533  41.564  35.363   7.950
 6895POPC   C4A33534  41.605  35.391   7.650
 6895POPC   C1B33535  41.735  35.167   8.550
 6895POPC   C2B33536  41.751  35.128   8.250
 6895POPC   C3B33537  41.682  35.172   7.950
 6895POPC   C4B33538  41.685  35.142   7.650
 6896POPC   NC333539  20.613  26.834   9.450
 6896POPC   PO433540  20.619  26.846   9.150
 6896POPC   GL133541  20.621  26.855   8.850
 6896POPC   GL233542  20.621  26.960   8.850
 6896POPC   C1A33543  20.584  26.834   8.550
 6896POPC   D2A33544  20.575  26.865   8.250
 6896POPC   C3A33545  20.581  26.848   7.950
 6896POPC   C4A33546  20.571  26.864   7.650
 6896POPC   C1B33547  20.710  27.094   8.550
 6896POPC   C2B33548  20.705  27.050   8.250
 6896POPC   C3B33549  20.659  27.054   7.950
 6896POPC   C4B33550  20.699  27.012   7.650
 6897POPC   NC333551  33.778  28.387   9.450
 6897POPC   PO433552  33.809  28.402   9.150
 6897POPC   GL133553  33.786  28.320   8.850
 6897POPC   GL233554  33.721  28.295   8.850
 6897POPC   C1A33555  33.803  28.398   8.550
 6897POPC   D2A33556  33.808  28.330   8.250
 6897POPC   C3A33557  33.811  28.409   7.950
 6897POPC   C4A33558  33.773  28.381   7.650
 6897POPC   C1B33559  33.562  28.250   8.550
 6897POPC   C2B33560  33.589  28.256   8.250
 6897POPC   C3B33561  33.590  28.231   7.950
 6897POPC   C4B33562  33.604  28.258   7.650
 6898POPC   NC333563  13.596  22.965   9.450
 6898POPC   PO433564  13.578  22.980   9.150
 6898POPC   GL133565  13.670  22.946   8.850
 6898POPC   GL233566  13.682  22.839   8.850
 6898POPC   C1A33567  13.646  22.891   8.550
 6898POPC   D2A33568  13.594  22.938   8.250
 6898POPC   C3A33569  13.671  22.905   7.950
 6898POPC   C4A33570  13.602  22.888   7.650
 6898POPC   C1B33571  13.684  22.707   8.550
 6898POPC   C2B33572  13.609  22.677   8.250
 6898POPC   C3B33573  13.606  22.727   7.950
 6898POPC   C4B33574  13.595  22.650   7.650
 6899POPC   NC333575  14.412  27.603   9.450
 6899POPC   PO433576  14.443  27.604   9.150
 6899POPC   GL133577  14.425  27.604   8.850
 6899POPC   GL233578  14.280  27.563   8.850
 6899POPC   C1A33579  14.436  27.568   8.550
 6899POPC   D2A33580  14.397  27.621   8.250
 6899POPC   C3A33581  14.441  27.624   7.950
 6899POPC   C4A33582  14.438  27.574   7.650
 6899POPC   C1B33583  14.158  27.445   8.550
 6899POPC   C2B33584  14.244  27.435   8.250
 6899POPC   C3B33585  14.186  27.401   7.950
 6899POPC   C4B33586  14.175  27.442   7.650
 6900POPC   NC333587   6.692  43.905   9.450
 6900POPC   PO433588   6.682  43.920   9.150
 6900POPC   GL133589   6.659  43.885   8.850
 6900POPC   GL233590   6.542  44.003   8.850
 6900POPC   C1A33591   6.602  43.862   8.550
 6900POPC   D2A33592   6.677  43.874   8.250
 6900POPC   C3A33593   6.606  43.890   7.950
 6900POPC   C4A33594   6.611  43.906   7.650
 6900POPC   C1B33595   6.456  44.078   8.550
 6900POPC   C2B33596   6.418  44.035   8.250
 6900POPC   C3B33597   6.443  44.062   7.950
 6900POPC   C4B33598   6.485  44.075   7.650
 6901POPC   NC333599  25.256  28.324   9.450
 6901POPC   PO433600  25.293  28.371   9.150
 6901POPC   GL133601  25.314  28.411   8.850
 6901POPC   GL233602  25.419  28.351   8.850
 6901POPC   C1A33603  25.287  28.362   8.550
 6901POPC   D2A33604  25.225  28.392   8.250
 6901POPC   C3A33605  25.292  28.358   7.950
 6901POPC   C4A33606  25.226  28.345   7.650
 6901POPC   C1B33607  25.505  28.436   8.550
 6901POPC   C2B33608  25.471  28.412   8.250
 6901POPC   C3B33609  25.516  28.443   7.950
 6901POPC   C4B33610  25.470  28.398   7.650
 6902POPC   NC333611  36.121  44.664   9.450
 6902POPC   PO433612  36.081  44.675   9.150
 6902POPC   GL133613  36.160  44.636   8.850
 6902POPC   GL233614  36.109  44.776   8.850
 6902POPC   C1A33615  36.133  44.676   8.550
 6902POPC   D2A33616  36.094  44.628   8.250
 6902POPC   C3A33617  36.144  44.632   7.950
 6902POPC   C4A33618  36.089  44.613   7.650
 6902POPC   C1B33619  36.069  44.917   8.550
 6902POPC   C2B33620  36.065  44.884   8.250
 6902POPC   C3B33621  36.035  44.871   7.950
 6902POPC   C4B33622  36.118  44.927   7.650
 6903POPC   NC333623  17.499  18.318   9.450
 6903POPC   PO433624  17.519  18.303   9.150
 6903POPC   GL133625  17.461  18.319   8.850
 6903POPC   GL233626  17.392  18.337   8.850
 6903POPC   C1A33627  17.526  18.268   8.550
 6903POPC   D2A33628  17.497  18.302   8.250
 6903POPC   C3A33629  17.500  18.249   7.950
 6903POPC   C4A33630  17.462  18.244   7.650
 6903POPC   C1B33631  17.307  18.478   8.550
 6903POPC   C2B33632  17.334  18.398   8.250
 6903POPC   C3B33633  17.354  18.445   7.950
 6903POPC   C4B33634  17.270  18.419   7.650
 6904POPC   NC333635   8.936   1.205   9.450
 6904POPC   PO433636   8.931   1.171   9.150
 6904POPC   GL133637   8.954   1.210   8.850
 6904POPC   GL233638   8.817   1.249   8.850
 6904POPC   C1A33639   8.969   1.230   8.550
 6904POPC   D2A33640   8.933   1.214   8.250
 6904POPC   C3A33641   8.929   1.223   7.950
 6904POPC   C4A33642   8.943   1.257   7.650
 6904POPC   C1B33643   8.730   1.256   8.550
 6904POPC   C2B33644   8.702   1.218   8.250
 6904POPC   C3B33645   8.711   1.227   7.950
 6904POPC   C4B33646   8.727   1.285   7.650
 6905POPC   NC333647  34.614  35.380   9.450
 6905POPC   PO433648  34.555  35.381   9.150
 6905POPC   GL133649  34.553  35.396   8.850
 6905POPC   GL233650  34.673  35.440   8.850
 6905POPC   C1A33651  34.569  35.384   8.550
 6905POPC   D2A33652  34.617  35.331   8.250
 6905POPC   C3A33653  34.560  35.339   7.950
 6905POPC   C4A33654  34.582  35.396   7.650
 6905POPC   C1B33655  34.792  35.515   8.550
 6905POPC   C2B33656  34.723  35.485   8.250
 6905POPC   C3B33657  34.744  35.551   7.950
 6905POPC   C4B33658  34.793  35.522   7.650
 6906POPC   NC333659  34.573  18.296   9.450
 6906POPC   PO433660  34.569  18.329   9.150
 6906POPC   GL133661  34.584  18.254   8.850
 6906POPC   GL233662  34.558  18.372   8.850
 6906POPC   C1A33663  34.584  18.331   8.550
 6906POPC   D2A33664  34.575  18.285   8.250
 6906POPC   C3A33665  34.562  18.313   7.950
 6906POPC   C4A33666  34.579  18.305   7.650
 6906POPC   C1B33667  34.639  18.531   8.550
 6906POPC   C2B33668  34.662  18.492   8.250
 6906POPC   C3B33669  34.597  18.491   7.950
 6906POPC   C4B33670  34.611  18.539   7.650
 6907POPC   NC333671   4.279  16.708   9.450
 6907POPC   PO433672   4.349  16.684   9.150
 6907POPC   GL133673   4.293  16.776   8.850
 6907POPC   GL233674   4.271  16.849   8.850
 6907POPC   C1A33675   4.279  16.715   8.550
 6907POPC   D2A33676   4.276  16.701   8.250
 6907POPC   C3A33677   4.338  16.683   7.950
 6907POPC   C4A33678   4.288  16.687   7.650
 6907POPC   C1B33679   4.120  16.966   8.550
 6907POPC   C2B33680   4.143  16.924   8.250
 6907POPC   C3B33681   4.178  16.967   7.950
 6907POPC   C4B33682   4.150  16.962   7.650
 6908POPC   NC333683   5.059  40.826   9.450
 6908POPC   PO433684   5.112  40.791   9.150
 6908POPC   GL133685   5.071  40.762   8.850
 6908POPC   GL233686   5.068  40.954   8.850
 6908POPC   C1A33687   5.131  40.751   8.550
 6908POPC   D2A33688   5.072  40.827   8.250
 6908POPC   C3A33689   5.051  40.827   7.950
 6908POPC   C4A33690   5.063  40.770   7.650
 6908POPC   C1B33691   5.109  41.047   8.550
 6908POPC   C2B33692   5.069  41.018   8.250
 6908POPC   C3B33693   5.078  41.023   7.950
 6908POPC   C4B33694   5.043  41.014   7.650
 6909POPC   NC333695   9.019  19.091   9.450
 6909POPC   PO433696   9.016  19.054   9.150
 6909POPC   GL133697   9.011  19.076   8.850
 6909POPC   GL233698   8.995  18.901   8.850
 6909POPC   C1A33699   9.005  19.050   8.550
 6909POPC   D2A33700   9.017  19.060   8.250
 6909POPC   C3A33701   9.010  19.066   7.950
 6909POPC   C4A33702   9.014  19.025   7.650
 6909POPC   C1B33703   8.978  18.778   8.550
 6909POPC   C2B33704   8.958  18.767   8.250
 6909POPC   C3B33705   8.977  18.793   7.950
 6909POPC   C4B33706   8.981  18.824   7.650
 6910POPC   NC333707  34.595  12.046   9.450
 6910POPC   PO433708  34.619  12.088   9.150
 6910POPC   GL133709  34.583  12.101   8.850
 6910POPC   GL233710  34.503  12.093   8.850
 6910POPC   C1A33711  34.538  12.028   8.550
 6910POPC   D2A33712  34.621  12.070   8.250
 6910POPC   C3A33713  34.617  12.055   7.950
 6910POPC   C4A33714  34.602  12.053   7.650
 6910POPC   C1B33715  34.358  12.178   8.550
 6910POPC   C2B33716  34.321  12.171   8.250
 6910POPC   C3B33717  34.322  12.213   7.950
 6910POPC   C4B33718  34.342  12.165   7.650
 6911POPC   NC333719  40.751  14.434   9.450
 6911POPC   PO433720  40.829  14.365   9.150
 6911POPC   GL133721  40.766  14.371   8.850
 6911POPC   GL233722  40.692  14.480   8.850
 6911POPC   C1A33723  40.784  14.439   8.550
 6911POPC   D2A33724  40.737  14.430   8.250
 6911POPC   C3A33725  40.775  14.361   7.950
 6911POPC   C4A33726  40.784  14.378   7.650
 6911POPC   C1B33727  40.691  14.603   8.550
 6911POPC   C2B33728  40.725  14.620   8.250
 6911POPC   C3B33729  40.668  14.631   7.950
 6911POPC   C4B33730  40.646  14.607   7.650
 6912POPC   NC333731  14.362   5.112   9.450
 6912POPC   PO433732  14.428   5.113   9.150
 6912POPC   GL133733  14.422   5.045   8.850
 6912POPC   GL233734  14.498   5.074   8.850
 6912POPC   C1A33735  14.453   5.128   8.550
 6912POPC   D2A33736  14.386   5.090   8.250
 6912POPC   C3A33737  14.401   5.045   7.950
 6912POPC   C4A33738  14.439   5.108   7.650
 6912POPC   C1B33739  14.640   5.088   8.550
 6912POPC   C2B33740  14.629   5.119   8.250
 6912POPC   C3B33741  14.669   5.145   7.950
 6912POPC   C4B33742  14.682   5.174   7.650
 6913POPC   NC333743  28.343  22.151   9.450
 6913POPC   PO433744  28.406  22.144   9.150
 6913POPC   GL133745  28.354  22.195   8.850
 6913POPC   GL233746  28.203  22.149   8.850
 6913POPC   C1A33747  28.386  22.113   8.550
 6913POPC   D2A33748  28.348  22.180   8.250
 6913POPC   C3A33749  28.390  22.151   7.950
 6913POPC   C4A33750  28.360  22.198   7.650
 6913POPC   C1B33751  28.094  22.198   8.550
 6913POPC   C2B33752  28.124  22.192   8.250
 6913POPC   C3B33753  28.084  22.250   7.950
 6913POPC   C4B33754  28.126  22.180   7.650
 6914POPC   NC333755   9.769  28.360   9.450
 6914POPC   PO433756   9.711  28.407   9.150
 6914POPC   GL133757   9.771  28.348   8.850
 6914POPC   GL233758   9.755  28.282   8.850
 6914POPC   C1A33759   9.711  28.416   8.550
 6914POPC   D2A33760   9.768  28.404   8.250
 6914POPC   C3A33761   9.790  28.401   7.950
 6914POPC   C4A33762   9.781  28.355   7.650
 6914POPC   C1B33763   9.842  28.117   8.550
 6914POPC   C2B33764   9.860  28.148   8.250
 6914POPC   C3B33765   9.832  28.141   7.950
 6914POPC   C4B33766   9.812  28.156   7.650
 6915POPC   NC333767  22.919   9.753   9.450
 6915POPC   PO433768  22.973   9.769   9.150
 6915POPC   GL133769  22.929   9.754   8.850
 6915POPC   GL233770  23.051   9.773   8.850
 6915POPC   C1A33771  22.892   9.745   8.550
 6915POPC   D2A33772  22.902   9.783   8.250
 6915POPC   C3A33773  22.979   9.795   7.950
 6915POPC   C4A33774  22.958   9.763   7.650
 6915POPC   C1B33775  23.119   9.854   8.550
 6915POPC   C2B33776  23.163   9.824   8.250
 6915POPC   C3B33777  23.146   9.902   7.950
 6915POPC   C4B33778  23.189   9.844   7.650
 6916POPC   NC333779   9.741  22.143   9.450
 6916POPC   PO433780   9.734  22.211   9.150
 6916POPC   GL133781   9.751  22.151   8.850
 6916POPC   GL233782   9.891  22.140   8.850
 6916POPC   C1A33783   9.792  22.202   8.550
 6916POPC   D2A33784   9.774  22.176   8.250
 6916POPC   C3A33785   9.708  22.122   7.950
 6916POPC   C4A33786   9.730  22.146   7.650
 6916POPC   C1B33787  10.009  22.239   8.550
 6916POPC   C2B33788   9.989  22.197   8.250
 6916POPC   C3B33789   9.981  22.208   7.950
 6916POPC   C4B33790  10.040  22.257   7.650
 6917POPC   NC333791  28.399  43.100   9.450
 6917POPC   PO433792  28.373  43.147   9.150
 6917POPC   GL133793  28.354  43.064   8.850
 6917POPC   GL233794  28.328  42.971   8.850
 6917POPC   C1A33795  28.344  43.068   8.550
 6917POPC   D2A33796  28.384  43.090   8.250
 6917POPC   C3A33797  28.357  43.077   7.950
 6917POPC   C4A33798  28.402  43.129   7.650
 6917POPC   C1B33799  28.296  42.828   8.550
 6917POPC   C2B33800  28.372  42.867   8.250
 6917POPC   C3B33801  28.362  42.840   7.950
 6917POPC   C4B33802  28.370  42.905   7.650
 6918POPC   NC333803  44.656  43.911   9.450
 6918POPC   PO433804  44.641  43.879   9.150
 6918POPC   GL133805  44.616  43.855   8.850
 6918POPC   GL233806  44.629  43.947   8.850
 6918POPC   C1A33807  44.667  43.918   8.550
 6918POPC   D2A33808  44.616  43.893   8.250
 6918POPC   C3A33809  44.688  43.856   7.950
 6918POPC   C4A33810  44.710  43.879   7.650
 6918POPC   C1B33811  44.567  44.098   8.550
 6918POPC   C2B33812  44.523  44.085   8.250
 6918POPC   C3B33813  44.553  44.070   7.950
 6918POPC   C4B33814  44.481  44.099   7.650
 6919POPC   NC333815  19.094  27.549   9.450
 6919POPC   PO433816  19.028  27.567   9.150
 6919POPC   GL133817  19.015  27.590   8.850
 6919POPC   GL233818  19.010  27.647   8.850
 6919POPC   C1A33819  19.031  27.598   8.550
 6919POPC   D2A33820  19.024  27.596   8.250
 6919POPC   C3A33821  19.029  27.548   7.950
 6919POPC   C4A33822  19.039  27.612   7.650
 6919POPC   C1B33823  18.818  27.719   8.550
 6919POPC   C2B33824  18.862  27.790   8.250
 6919POPC   C3B33825  18.872  27.770   7.950
 6919POPC   C4B33826  18.907  27.791   7.650
 6920POPC   NC333827   7.433   1.244   9.450
 6920POPC   PO433828   7.407   1.208   9.150
 6920POPC   GL133829   7.465   1.249   8.850
 6920POPC   GL233830   7.374   1.318   8.850
 6920POPC   C1A33831   7.379   1.234   8.550
 6920POPC   D2A33832   7.373   1.196   8.250
 6920POPC   C3A33833   7.436   1.220   7.950
 6920POPC   C4A33834   7.428   1.240   7.650
 6920POPC   C1B33835   7.249   1.358   8.550
 6920POPC   C2B33836   7.271   1.335   8.250
 6920POPC   C3B33837   7.243   1.363   7.950
 6920POPC   C4B33838   7.257   1.346   7.650
 6921POPC   NC333839  27.561   7.391   9.450
 6921POPC   PO433840  27.571   7.466   9.150
 6921POPC   GL133841  27.547   7.469   8.850
 6921POPC   GL233842  27.623   7.263   8.850
 6921POPC   C1A33843  27.566   7.381   8.550
 6921POPC   D2A33844  27.588   7.390   8.250
 6921POPC   C3A33845  27.563   7.443   7.950
 6921POPC   C4A33846  27.629   7.425   7.650
 6921POPC   C1B33847  27.726   7.166   8.550
 6921POPC   C2B33848  27.729   7.204   8.250
 6921POPC   C3B33849  27.714   7.165   7.950
 6921POPC   C4B33850  27.724   7.145   7.650
 6922POPC   NC333851  20.570  42.368   9.450
 6922POPC   PO433852  20.610  42.372   9.150
 6922POPC   GL133853  20.611  42.307   8.850
 6922POPC   GL233854  20.551  42.480   8.850
 6922POPC   C1A33855  20.572  42.378   8.550
 6922POPC   D2A33856  20.612  42.325   8.250
 6922POPC   C3A33857  20.611  42.347   7.950
 6922POPC   C4A33858  20.615  42.288   7.650
 6922POPC   C1B33859  20.472  42.572   8.550
 6922POPC   C2B33860  20.420  42.555   8.250
 6922POPC   C3B33861  20.416  42.489   7.950
 6922POPC   C4B33862  20.419  42.480   7.650
 6923POPC   NC333863  29.158  32.207   9.450
 6923POPC   PO433864  29.133  32.243   9.150
 6923POPC   GL133865  29.100  32.232   8.850
 6923POPC   GL233866  29.303  32.297   8.850
 6923POPC   C1A33867  29.154  32.232   8.550
 6923POPC   D2A33868  29.183  32.265   8.250
 6923POPC   C3A33869  29.148  32.221   7.950
 6923POPC   C4A33870  29.159  32.218   7.650
 6923POPC   C1B33871  29.377  32.374   8.550
 6923POPC   C2B33872  29.372  32.355   8.250
 6923POPC   C3B33873  29.372  32.310   7.950
 6923POPC   C4B33874  29.328  32.340   7.650
 6924POPC   NC333875  14.374  13.664   9.450
 6924POPC   PO433876  14.384  13.604   9.150
 6924POPC   GL133877  14.405  13.651   8.850
 6924POPC   GL233878  14.437  13.460   8.850
 6924POPC   C1A33879  14.433  13.641   8.550
 6924POPC   D2A33880  14.408  13.617   8.250
 6924POPC   C3A33881  14.446  13.630   7.950
 6924POPC   C4A33882  14.423  13.631   7.650
 6924POPC   C1B33883  14.489  13.348   8.550
 6924POPC   C2B33884  14.407  13.397   8.250
 6924POPC   C3B33885  14.462  13.408   7.950
 6924POPC   C4B33886  14.449  13.411   7.650
 6925POPC   NC333887   7.393  29.895   9.450
 6925POPC   PO433888   7.420  29.876   9.150
 6925POPC   GL133889   7.405  29.947   8.850
 6925POPC   GL233890   7.291  30.002   8.850
 6925POPC   C1A33891   7.406  29.871   8.550
 6925POPC   D2A33892   7.452  29.910   8.250
 6925POPC   C3A33893   7.377  29.952   7.950
 6925POPC   C4A33894   7.469  29.953   7.650
 6925POPC   C1B33895   7.269  30.065   8.550
 6925POPC   C2B33896   7.247  30.066   8.250
 6925POPC   C3B33897   7.205  30.109   7.950
 6925POPC   C4B33898   7.275  30.117   7.650
 6926POPC   NC333899  34.549   3.576   9.450
 6926POPC   PO433900  34.605   3.539   9.150
 6926POPC   GL133901  34.598   3.585   8.850
 6926POPC   GL233902  34.497   3.468   8.850
 6926POPC   C1A33903  34.560   3.584   8.550
 6926POPC   D2A33904  34.595   3.498   8.250
 6926POPC   C3A33905  34.586   3.582   7.950
 6926POPC   C4A33906  34.549   3.553   7.650
 6926POPC   C1B33907  34.380   3.431   8.550
 6926POPC   C2B33908  34.292   3.431   8.250
 6926POPC   C3B33909  34.364   3.445   7.950
 6926POPC   C4B33910  34.372   3.446   7.650
 6927POPC   NC333911  29.886   2.801   9.450
 6927POPC   PO433912  29.927   2.797   9.150
 6927POPC   GL133913  29.945   2.733   8.850
 6927POPC   GL233914  29.953   2.668   8.850
 6927POPC   C1A33915  29.899   2.771   8.550
 6927POPC   D2A33916  29.969   2.785   8.250
 6927POPC   C3A33917  29.958   2.726   7.950
 6927POPC   C4A33918  29.926   2.741   7.650
 6927POPC   C1B33919  30.078   2.587   8.550
 6927POPC   C2B33920  30.047   2.541   8.250
 6927POPC   C3B33921  30.105   2.610   7.950
 6927POPC   C4B33922  30.053   2.531   7.650
 6928POPC   NC333923  43.913  39.998   9.450
 6928POPC   PO433924  43.854  40.035   9.150
 6928POPC   GL133925  43.881  40.042   8.850
 6928POPC   GL233926  43.792  40.077   8.850
 6928POPC   C1A33927  43.849  40.007   8.550
 6928POPC   D2A33928  43.910  40.009   8.250
 6928POPC   C3A33929  43.935  39.979   7.950
 6928POPC   C4A33930  43.879  39.970   7.650
 6928POPC   C1B33931  43.655  40.091   8.550
 6928POPC   C2B33932  43.601  40.068   8.250
 6928POPC   C3B33933  43.676  40.104   7.950
 6928POPC   C4B33934  43.667  40.039   7.650
 6929POPC   NC333935  13.652  33.050   9.450
 6929POPC   PO433936  13.632  33.054   9.150
 6929POPC   GL133937  13.593  32.998   8.850
 6929POPC   GL233938  13.648  32.899   8.850
 6929POPC   C1A33939  13.673  33.023   8.550
 6929POPC   D2A33940  13.668  33.073   8.250
 6929POPC   C3A33941  13.669  32.981   7.950
 6929POPC   C4A33942  13.656  33.057   7.650
 6929POPC   C1B33943  13.679  32.760   8.550
 6929POPC   C2B33944  13.605  32.808   8.250
 6929POPC   C3B33945  13.605  32.765   7.950
 6929POPC   C4B33946  13.602  32.817   7.650
 6930POPC   NC333947   9.018  34.533   9.450
 6930POPC   PO433948   8.999  34.550   9.150
 6930POPC   GL133949   8.951  34.548   8.850
 6930POPC   GL233950   9.114  34.534   8.850
 6930POPC   C1A33951   9.004  34.537   8.550
 6930POPC   D2A33952   8.933  34.542   8.250
 6930POPC   C3A33953   8.996  34.594   7.950
 6930POPC   C4A33954   8.924  34.569   7.650
 6930POPC   C1B33955   9.246  34.591   8.550
 6930POPC   C2B33956   9.197  34.543   8.250
 6930POPC   C3B33957   9.213  34.605   7.950
 6930POPC   C4B33958   9.193  34.559   7.650
 6931POPC   NC333959   8.156   3.584   9.450
 6931POPC   PO433960   8.200   3.510   9.150
 6931POPC   GL133961   8.220   3.548   8.850
 6931POPC   GL233962   8.201   3.449   8.850
 6931POPC   C1A33963   8.246   3.529   8.550
 6931POPC   D2A33964   8.228   3.573   8.250
 6931POPC   C3A33965   8.208   3.561   7.950
 6931POPC   C4A33966   8.205   3.579   7.650
 6931POPC   C1B33967   8.122   3.278   8.550
 6931POPC   C2B33968   8.157   3.315   8.250
 6931POPC   C3B33969   8.180   3.318   7.950
 6931POPC   C4B33970   8.173   3.272   7.650
 6932POPC   NC333971  33.751  39.235   9.450
 6932POPC   PO433972  33.809  39.259   9.150
 6932POPC   GL133973  33.785  39.214   8.850
 6932POPC   GL233974  33.685  39.153   8.850
 6932POPC   C1A33975  33.846  39.270   8.550
 6932POPC   D2A33976  33.820  39.273   8.250
 6932POPC   C3A33977  33.826  39.226   7.950
 6932POPC   C4A33978  33.756  39.260   7.650
 6932POPC   C1B33979  33.566  39.041   8.550
 6932POPC   C2B33980  33.592  39.115   8.250
 6932POPC   C3B33981  33.577  39.082   7.950
 6932POPC   C4B33982  33.639  39.088   7.650
 6933POPC   NC333983  38.441  29.909   9.450
 6933POPC   PO433984  38.444  29.903   9.150
 6933POPC   GL133985  38.443  29.947   8.850
 6933POPC   GL233986  38.310  29.990   8.850
 6933POPC   C1A33987  38.488  29.958   8.550
 6933POPC   D2A33988  38.452  29.918   8.250
 6933POPC   C3A33989  38.451  29.945   7.950
 6933POPC   C4A33990  38.467  29.964   7.650
 6933POPC   C1B33991  38.267  30.063   8.550
 6933POPC   C2B33992  38.257  30.041   8.250
 6933POPC   C3B33993  38.194  30.087   7.950
 6933POPC   C4B33994  38.212  30.015   7.650
 6934POPC   NC333995  30.671  30.686   9.450
 6934POPC   PO433996  30.709  30.670   9.150
 6934POPC   GL133997  30.713  30.726   8.850
 6934POPC   GL233998  30.611  30.771   8.850
 6934POPC   C1A33999  30.666  30.725   8.550
 6934POPC   D2A34000  30.705  30.733   8.250
 6934POPC   C3A34001  30.681  30.671   7.950
 6934POPC   C4A34002  30.689  30.697   7.650
 6934POPC   C1B34003  30.480  30.763   8.550
 6934POPC   C2B34004  30.474  30.736   8.250
 6934POPC   C3B34005  30.492  30.796   7.950
 6934POPC   C4B34006  30.496  30.712   7.650
 6935POPC   NC334007  43.090   7.374   9.450
 6935POPC   PO434008  43.153   7.435   9.150
 6935POPC   GL134009  43.073   7.407   8.850
 6935POPC   GL234010  42.970   7.420   8.850
 6935POPC   C1A34011  43.159   7.414   8.550
 6935POPC   D2A34012  43.079   7.467   8.250
 6935POPC   C3A34013  43.098   7.462   7.950
 6935POPC   C4A34014  43.095   7.441   7.650
 6935POPC   C1B34015  42.831   7.390   8.550
 6935POPC   C2B34016  42.815   7.376   8.250
 6935POPC   C3B34017  42.818   7.445   7.950
 6935POPC   C4B34018  42.874   7.434   7.650
 6936POPC   NC334019  11.337   1.980   9.450
 6936POPC   PO434020  11.254   2.030   9.150
 6936POPC   GL134021  11.278   2.000   8.850
 6936POPC   GL234022  11.191   1.940   8.850
 6936POPC   C1A34023  11.281   1.957   8.550
 6936POPC   D2A34024  11.279   1.949   8.250
 6936POPC   C3A34025  11.268   1.974   7.950
 6936POPC   C4A34026  11.259   2.008   7.650
 6936POPC   C1B34027  11.068   1.867   8.550
 6936POPC   C2B34028  11.086   1.864   8.250
 6936POPC   C3B34029  11.102   1.913   7.950
 6936POPC   C4B34030  11.111   1.920   7.650
 6937POPC   NC334031   0.459   7.371   9.450
 6937POPC   PO434032   0.430   7.461   9.150
 6937POPC   GL134033   0.407   7.416   8.850
 6937POPC   GL234034   0.397   7.513   8.850
 6937POPC   C1A34035   0.475   7.464   8.550
 6937POPC   D2A34036   0.486   7.376   8.250
 6937POPC   C3A34037   0.423   7.437   7.950
 6937POPC   C4A34038   0.413   7.410   7.650
 6937POPC   C1B34039   0.243   7.615   8.550
 6937POPC   C2B34040   0.309   7.577   8.250
 6937POPC   C3B34041   0.316   7.600   7.950
 6937POPC   C4B34042   0.280   7.616   7.650
 6938POPC   NC334043  36.172   5.098   9.450
 6938POPC   PO434044  36.116   5.126   9.150
 6938POPC   GL134045  36.105   5.106   8.850
 6938POPC   GL234046  36.083   5.248   8.850
 6938POPC   C1A34047  36.121   5.097   8.550
 6938POPC   D2A34048  36.095   5.084   8.250
 6938POPC   C3A34049  36.158   5.125   7.950
 6938POPC   C4A34050  36.148   5.124   7.650
 6938POPC   C1B34051  36.132   5.322   8.550
 6938POPC   C2B34052  36.091   5.367   8.250
 6938POPC   C3B34053  36.133   5.305   7.950
 6938POPC   C4B34054  36.080   5.317   7.650
 6939POPC   NC334055  26.034  29.132   9.450
 6939POPC   PO434056  26.022  29.134   9.150
 6939POPC   GL134057  26.086  29.151   8.850
 6939POPC   GL234058  25.946  29.197   8.850
 6939POPC   C1A34059  26.068  29.122   8.550
 6939POPC   D2A34060  26.042  29.159   8.250
 6939POPC   C3A34061  26.008  29.106   7.950
 6939POPC   C4A34062  26.019  29.170   7.650
 6939POPC   C1B34063  25.793  29.289   8.550
 6939POPC   C2B34064  25.869  29.291   8.250
 6939POPC   C3B34065  25.778  29.228   7.950
 6939POPC   C4B34066  25.797  29.269   7.650
 6940POPC   NC334067  41.594  42.344   9.450
 6940POPC   PO434068  41.524  42.354   9.150
 6940POPC   GL134069  41.546  42.363   8.850
 6940POPC   GL234070  41.470  42.186   8.850
 6940POPC   C1A34071  41.584  42.339   8.550
 6940POPC   D2A34072  41.529  42.371   8.250
 6940POPC   C3A34073  41.585  42.295   7.950
 6940POPC   C4A34074  41.571  42.295   7.650
 6940POPC   C1B34075  41.453  42.110   8.550
 6940POPC   C2B34076  41.490  42.102   8.250
 6940POPC   C3B34077  41.475  42.085   7.950
 6940POPC   C4B34078  41.456  42.109   7.650
 6941POPC   NC334079  29.112  33.772   9.450
 6941POPC   PO434080  29.150  33.777   9.150
 6941POPC   GL134081  29.102  33.771   8.850
 6941POPC   GL234082  29.274  33.859   8.850
 6941POPC   C1A34083  29.141  33.785   8.550
 6941POPC   D2A34084  29.124  33.836   8.250
 6941POPC   C3A34085  29.166  33.835   7.950
 6941POPC   C4A34086  29.118  33.828   7.650
 6941POPC   C1B34087  29.373  33.864   8.550
 6941POPC   C2B34088  29.407  33.824   8.250
 6941POPC   C3B34089  29.413  33.820   7.950
 6941POPC   C4B34090  29.377  33.842   7.650
 6942POPC   NC334091  15.940   7.399   9.450
 6942POPC   PO434092  15.987   7.442   9.150
 6942POPC   GL134093  16.005   7.458   8.850
 6942POPC   GL234094  15.805   7.413   8.850
 6942POPC   C1A34095  15.936   7.456   8.550
 6942POPC   D2A34096  15.935   7.382   8.250
 6942POPC   C3A34097  15.987   7.456   7.950
 6942POPC   C4A34098  15.935   7.408   7.650
 6942POPC   C1B34099  15.704   7.474   8.550
 6942POPC   C2B34100  15.740   7.409   8.250
 6942POPC   C3B34101  15.673   7.404   7.950
 6942POPC   C4B34102  15.666   7.431   7.650
 6943POPC   NC334103  33.050   8.184   9.450
 6943POPC   PO434104  33.051   8.162   9.150
 6943POPC   GL134105  33.022   8.230   8.850
 6943POPC   GL234106  32.979   8.122   8.850
 6943POPC   C1A34107  32.992   8.230   8.550
 6943POPC   D2A34108  33.049   8.245   8.250
 6943POPC   C3A34109  32.986   8.199   7.950
 6943POPC   C4A34110  33.048   8.233   7.650
 6943POPC   C1B34111  32.800   7.991   8.550
 6943POPC   C2B34112  32.832   8.047   8.250
 6943POPC   C3B34113  32.876   7.976   7.950
 6943POPC   C4B34114  32.808   8.007   7.650
 6944POPC   NC334115  42.314   5.075   9.450
 6944POPC   PO434116  42.372   5.096   9.150
 6944POPC   GL134117  42.288   5.076   8.850
 6944POPC   GL234118  42.236   5.199   8.850
 6944POPC   C1A34119  42.363   5.056   8.550
 6944POPC   D2A34120  42.340   5.132   8.250
 6944POPC   C3A34121  42.343   5.125   7.950
 6944POPC   C4A34122  42.370   5.093   7.650
 6944POPC   C1B34123  42.138   5.244   8.550
 6944POPC   C2B34124  42.131   5.272   8.250
 6944POPC   C3B34125  42.193   5.259   7.950
 6944POPC   C4B34126  42.216   5.299   7.650
 6945POPC   NC334127  33.798   5.085   9.450
 6945POPC   PO434128  33.841   5.055   9.150
 6945POPC   GL134129  33.751   5.060   8.850
 6945POPC   GL234130  33.673   4.975   8.850
 6945POPC   C1A34131  33.772   5.132   8.550
 6945POPC   D2A34132  33.814   5.142   8.250
 6945POPC   C3A34133  33.769   5.139   7.950
 6945POPC   C4A34134  33.820   5.119   7.650
 6945POPC   C1B34135  33.610   4.917   8.550
 6945POPC   C2B34136  33.605   4.881   8.250
 6945POPC   C3B34137  33.601   4.869   7.950
 6945POPC   C4B34138  33.653   4.879   7.650
 6946POPC   NC334139  43.132  44.678   9.450
 6946POPC   PO434140  43.099  44.701   9.150
 6946POPC   GL134141  43.091  44.661   8.850
 6946POPC   GL234142  43.009  44.770   8.850
 6946POPC   C1A34143  43.152  44.640   8.550
 6946POPC   D2A34144  43.117  44.680   8.250
 6946POPC   C3A34145  43.064  44.652   7.950
 6946POPC   C4A34146  43.108  44.620   7.650
 6946POPC   C1B34147  43.021  44.915   8.550
 6946POPC   C2B34148  42.959  44.838   8.250
 6946POPC   C3B34149  42.999  44.905   7.950
 6946POPC   C4B34150  42.981  44.839   7.650
 6947POPC   NC334151  26.769  19.102   9.450
 6947POPC   PO434152  26.810  19.047   9.150
 6947POPC   GL134153  26.812  19.037   8.850
 6947POPC   GL234154  26.773  19.167   8.850
 6947POPC   C1A34155  26.804  19.044   8.550
 6947POPC   D2A34156  26.849  19.046   8.250
 6947POPC   C3A34157  26.773  19.038   7.950
 6947POPC   C4A34158  26.818  19.048   7.650
 6947POPC   C1B34159  26.651  19.236   8.550
 6947POPC   C2B34160  26.643  19.246   8.250
 6947POPC   C3B34161  26.702  19.310   7.950
 6947POPC   C4B34162  26.713  19.276   7.650
 6948POPC   NC334163  33.784  16.712   9.450
 6948POPC   PO434164  33.762  16.760   9.150
 6948POPC   GL134165  33.767  16.726   8.850
 6948POPC   GL234166  33.819  16.646   8.850
 6948POPC   C1A34167  33.776  16.723   8.550
 6948POPC   D2A34168  33.792  16.742   8.250
 6948POPC   C3A34169  33.818  16.738   7.950
 6948POPC   C4A34170  33.833  16.699   7.650
 6948POPC   C1B34171  33.909  16.477   8.550
 6948POPC   C2B34172  33.858  16.484   8.250
 6948POPC   C3B34173  33.834  16.465   7.950
 6948POPC   C4B34174  33.918  16.498   7.650
 6949POPC   NC334175  26.855  11.294   9.450
 6949POPC   PO434176  26.809  11.324   9.150
 6949POPC   GL134177  26.787  11.347   8.850
 6949POPC   GL234178  26.879  11.167   8.850
 6949POPC   C1A34179  26.786  11.291   8.550
 6949POPC   D2A34180  26.817  11.327   8.250
 6949POPC   C3A34181  26.775  11.315   7.950
 6949POPC   C4A34182  26.825  11.305   7.650
 6949POPC   C1B34183  26.907  11.056   8.550
 6949POPC   C2B34184  26.874  11.027   8.250
 6949POPC   C3B34185  26.868  11.035   7.950
 6949POPC   C4B34186  26.845  11.063   7.650
 6950POPC   NC334187  12.088   7.408   9.450
 6950POPC   PO434188  12.061   7.455   9.150
 6950POPC   GL134189  12.082   7.415   8.850
 6950POPC   GL234190  12.119   7.277   8.850
 6950POPC   C1A34191  12.026   7.470   8.550
 6950POPC   D2A34192  12.082   7.442   8.250
 6950POPC   C3A34193  12.093   7.409   7.950
 6950POPC   C4A34194  12.113   7.459   7.650
 6950POPC   C1B34195  12.230   7.249   8.550
 6950POPC   C2B34196  12.239   7.181   8.250
 6950POPC   C3B34197  12.233   7.214   7.950
 6950POPC   C4B34198  12.199   7.264   7.650
 6951POPC   NC334199  38.441  30.723   9.450
 6951POPC   PO434200  38.427  30.668   9.150
 6951POPC   GL134201  38.462  30.685   8.850
 6951POPC   GL234202  38.504  30.596   8.850
 6951POPC   C1A34203  38.467  30.700   8.550
 6951POPC   D2A34204  38.412  30.680   8.250
 6951POPC   C3A34205  38.407  30.739   7.950
 6951POPC   C4A34206  38.483  30.725   7.650
 6951POPC   C1B34207  38.653  30.454   8.550
 6951POPC   C2B34208  38.615  30.485   8.250
 6951POPC   C3B34209  38.577  30.483   7.950
 6951POPC   C4B34210  38.606  30.466   7.650
 6952POPC   NC334211  22.914  15.130   9.450
 6952POPC   PO434212  22.955  15.186   9.150
 6952POPC   GL134213  22.948  15.138   8.850
 6952POPC   GL234214  22.843  15.174   8.850
 6952POPC   C1A34215  22.923  15.223   8.550
 6952POPC   D2A34216  22.904  15.195   8.250
 6952POPC   C3A34217  22.962  15.177   7.950
 6952POPC   C4A34218  22.895  15.145   7.650
 6952POPC   C1B34219  22.721  15.183   8.550
 6952POPC   C2B34220  22.659  15.196   8.250
 6952POPC   C3B34221  22.720  15.267   7.950
 6952POPC   C4B34222  22.664  15.199   7.650
 6953POPC   NC334223   5.825  38.437   9.450
 6953POPC   PO434224   5.844  38.493   9.150
 6953POPC   GL134225   5.835  38.415   8.850
 6953POPC   GL234226   5.920  38.347   8.850
 6953POPC   C1A34227   5.894  38.490   8.550
 6953POPC   D2A34228   5.842  38.483   8.250
 6953POPC   C3A34229   5.819  38.477   7.950
 6953POPC   C4A34230   5.837  38.504   7.650
 6953POPC   C1B34231   6.055  38.284   8.550
 6953POPC   C2B34232   6.071  38.255   8.250
 6953POPC   C3B34233   6.079  38.311   7.950
 6953POPC   C4B34234   6.079  38.275   7.650
 6954POPC   NC334235   6.674  14.376   9.450
 6954POPC   PO434236   6.603  14.391   9.150
 6954POPC   GL134237   6.679  14.408   8.850
 6954POPC   GL234238   6.564  14.309   8.850
 6954POPC   C1A34239   6.599  14.450   8.550
 6954POPC   D2A34240   6.665  14.382   8.250
 6954POPC   C3A34241   6.595  14.367   7.950
 6954POPC   C4A34242   6.693  14.405   7.650
 6954POPC   C1B34243   6.434  14.316   8.550
 6954POPC   C2B34244   6.412  14.326   8.250
 6954POPC   C3B34245   6.448  14.263   7.950
 6954POPC   C4B34246   6.453  14.280   7.650
 6955POPC   NC334247  29.095   4.311   9.450
 6955POPC   PO434248  29.140   4.346   9.150
 6955POPC   GL134249  29.173   4.269   8.850
 6955POPC   GL234250  29.139   4.475   8.850
 6955POPC   C1A34251  29.178   4.358   8.550
 6955POPC   D2A34252  29.097   4.365   8.250
 6955POPC   C3A34253  29.186   4.267   7.950
 6955POPC   C4A34254  29.115   4.302   7.650
 6955POPC   C1B34255  29.268   4.565   8.550
 6955POPC   C2B34256  29.236   4.549   8.250
 6955POPC   C3B34257  29.239   4.576   7.950
 6955POPC   C4B34258  29.191   4.538   7.650
 6956POPC   NC334259   5.859  42.317   9.450
 6956POPC   PO434260   5.911  42.353   9.150
 6956POPC   GL134261   5.879  42.301   8.850
 6956POPC   GL234262   5.929  42.367   8.850
 6956POPC   C1A34263   5.855  42.317   8.550
 6956POPC   D2A34264   5.843  42.333   8.250
 6956POPC   C3A34265   5.848  42.331   7.950
 6956POPC   C4A34266   5.901  42.317   7.650
 6956POPC   C1B34267   6.029  42.469   8.550
 6956POPC   C2B34268   6.104  42.475   8.250
 6956POPC   C3B34269   6.048  42.457   7.950
 6956POPC   C4B34270   6.056  42.468   7.650
 6957POPC   NC334271  34.618  19.797   9.450
 6957POPC   PO434272  34.528  19.863   9.150
 6957POPC   GL134273  34.530  19.846   8.850
 6957POPC   GL234274  34.586  19.752   8.850
 6957POPC   C1A34275  34.534  19.834   8.550
 6957POPC   D2A34276  34.579  19.809   8.250
 6957POPC   C3A34277  34.559  19.815   7.950
 6957POPC   C4A34278  34.597  19.875   7.650
 6957POPC   C1B34279  34.633  19.590   8.550
 6957POPC   C2B34280  34.552  19.577   8.250
 6957POPC   C3B34281  34.555  19.593   7.950
 6957POPC   C4B34282  34.577  19.549   7.650
 6958POPC   NC334283  40.009  44.635   9.450
 6958POPC   PO434284  39.957  44.690   9.150
 6958POPC   GL134285  40.014  44.669   8.850
 6958POPC   GL234286  39.900  44.747   8.850
 6958POPC   C1A34287  40.030  44.675   8.550
 6958POPC   D2A34288  39.974  44.663   8.250
 6958POPC   C3A34289  39.969  44.621   7.950
 6958POPC   C4A34290  40.010  44.644   7.650
 6958POPC   C1B34291  39.813  44.834   8.550
 6958POPC   C2B34292  39.834  44.789   8.250
 6958POPC   C3B34293  39.813  44.828   7.950
 6958POPC   C4B34294  39.861  44.856   7.650
 6959POPC   NC334295  26.814  21.394   9.450
 6959POPC   PO434296  26.833  21.337   9.150
 6959POPC   GL134297  26.814  21.434   8.850
 6959POPC   GL234298  26.715  21.305   8.850
 6959POPC   C1A34299  26.786  21.345   8.550
 6959POPC   D2A34300  26.837  21.413   8.250
 6959POPC   C3A34301  26.854  21.353   7.950
 6959POPC   C4A34302  26.838  21.355   7.650
 6959POPC   C1B34303  26.743  21.145   8.550
 6959POPC   C2B34304  26.714  21.205   8.250
 6959POPC   C3B34305  26.652  21.177   7.950
 6959POPC   C4B34306  26.738  21.200   7.650
 6960POPC   NC334307  22.920  36.924   9.450
 6960POPC   PO434308  22.969  36.865   9.150
 6960POPC   GL134309  22.911  36.885   8.850
 6960POPC   GL234310  22.932  37.015   8.850
 6960POPC   C1A34311  22.909  36.924   8.550
 6960POPC   D2A34312  22.922  36.868   8.250
 6960POPC   C3A34313  22.971  36.944   7.950
 6960POPC   C4A34314  22.906  36.870   7.650
 6960POPC   C1B34315  22.850  37.173   8.550
 6960POPC   C2B34316  22.793  37.102   8.250
 6960POPC   C3B34317  22.822  37.083   7.950
 6960POPC   C4B34318  22.791  37.180   7.650
 6961POPC   NC334319  42.291  23.704   9.450
 6961POPC   PO434320  42.363  23.688   9.150
 6961POPC   GL134321  42.294  23.664   8.850
 6961POPC   GL234322  42.327  23.556   8.850
 6961POPC   C1A34323  42.333  23.757   8.550
 6961POPC   D2A34324  42.290  23.731   8.250
 6961POPC   C3A34325  42.363  23.723   7.950
 6961POPC   C4A34326  42.333  23.706   7.650
 6961POPC   C1B34327  42.350  23.415   8.550
 6961POPC   C2B34328  42.371  23.468   8.250
 6961POPC   C3B34329  42.313  23.460   7.950
 6961POPC   C4B34330  42.376  23.469   7.650
 6962POPC   NC334331   1.971  43.160   9.450
 6962POPC   PO434332   1.982  43.109   9.150
 6962POPC   GL134333   1.975  43.134   8.850
 6962POPC   GL234334   2.088  43.121   8.850
 6962POPC   C1A34335   2.036  43.077   8.550
 6962POPC   D2A34336   2.018  43.153   8.250
 6962POPC   C3A34337   1.964  43.127   7.950
 6962POPC   C4A34338   2.011  43.070   7.650
 6962POPC   C1B34339   2.184  43.130   8.550
 6962POPC   C2B34340   2.261  43.174   8.250
 6962POPC   C3B34341   2.214  43.163   7.950
 6962POPC   C4B34342   2.192  43.164   7.650
 6963POPC   NC334343  27.572  26.856   9.450
 6963POPC   PO434344  27.600  26.821   9.150
 6963POPC   GL134345  27.643  26.819   8.850
 6963POPC   GL234346  27.714  26.818   8.850
 6963POPC   C1A34347  27.554  26.848   8.550
 6963POPC   D2A34348  27.555  26.785   8.250
 6963POPC   C3A34349  27.628  26.857   7.950
 6963POPC   C4A34350  27.597  26.822   7.650
 6963POPC   C1B34351  27.792  26.814   8.550
 6963POPC   C2B34352  27.805  26.896   8.250
 6963POPC   C3B34353  27.870  26.905   7.950
 6963POPC   C4B34354  27.791  26.814   7.650
 6964POPC   NC334355  22.906  33.047   9.450
 6964POPC   PO434356  22.935  33.013   9.150
 6964POPC   GL134357  22.922  33.010   8.850
 6964POPC   GL234358  22.965  33.128   8.850
 6964POPC   C1A34359  22.927  32.987   8.550
 6964POPC   D2A34360  22.960  33.021   8.250
 6964POPC   C3A34361  22.907  33.007   7.950
 6964POPC   C4A34362  22.940  32.986   7.650
 6964POPC   C1B34363  23.021  33.307   8.550
 6964POPC   C2B34364  22.963  33.307   8.250
 6964POPC   C3B34365  22.966  33.267   7.950
 6964POPC   C4B34366  22.960  33.314   7.650
 6965POPC   NC334367  31.506  11.278   9.450
 6965POPC   PO434368  31.473  11.291   9.150
 6965POPC   GL134369  31.439  11.257   8.850
 6965POPC   GL234370  31.389  11.259   8.850
 6965POPC   C1A34371  31.473  11.300   8.550
 6965POPC   D2A34372  31.478  11.304   8.250
 6965POPC   C3A34373  31.489  11.316   7.950
 6965POPC   C4A34374  31.496  11.258   7.650
 6965POPC   C1B34375  31.258  11.091   8.550
 6965POPC   C2B34376  31.271  11.088   8.250
 6965POPC   C3B34377  31.322  11.077   7.950
 6965POPC   C4B34378  31.274  11.145   7.650
 6966POPC   NC334379  34.560   5.076   9.450
 6966POPC   PO434380  34.594   5.064   9.150
 6966POPC   GL134381  34.608   5.086   8.850
 6966POPC   GL234382  34.440   4.988   8.850
 6966POPC   C1A34383  34.551   5.138   8.550
 6966POPC   D2A34384  34.561   5.071   8.250
 6966POPC   C3A34385  34.623   5.136   7.950
 6966POPC   C4A34386  34.589   5.099   7.650
 6966POPC   C1B34387  34.319   4.996   8.550
 6966POPC   C2B34388  34.386   4.978   8.250
 6966POPC   C3B34389  34.396   4.944   7.950
 6966POPC   C4B34390  34.406   4.918   7.650
 6967POPC   NC334391  12.831  33.768   9.450
 6967POPC   PO434392  12.819  33.776   9.150
 6967POPC   GL134393  12.880  33.847   8.850
 6967POPC   GL234394  13.026  33.820   8.850
 6967POPC   C1A34395  12.841  33.788   8.550
 6967POPC   D2A34396  12.820  33.762   8.250
 6967POPC   C3A34397  12.870  33.849   7.950
 6967POPC   C4A34398  12.878  33.812   7.650
 6967POPC   C1B34399  13.105  33.825   8.550
 6967POPC   C2B34400  13.089  33.835   8.250
 6967POPC   C3B34401  13.057  33.822   7.950
 6967POPC   C4B34402  13.067  33.827   7.650
 6968POPC   NC334403  11.272   8.196   9.450
 6968POPC   PO434404  11.299   8.198   9.150
 6968POPC   GL134405  11.281   8.212   8.850
 6968POPC   GL234406  11.290   8.115   8.850
 6968POPC   C1A34407  11.330   8.241   8.550
 6968POPC   D2A34408  11.266   8.162   8.250
 6968POPC   C3A34409  11.342   8.230   7.950
 6968POPC   C4A34410  11.330   8.245   7.650
 6968POPC   C1B34411  11.312   7.915   8.550
 6968POPC   C2B34412  11.280   7.987   8.250
 6968POPC   C3B34413  11.281   7.938   7.950
 6968POPC   C4B34414  11.344   7.942   7.650
 6969POPC   NC334415  20.599  41.596   9.450
 6969POPC   PO434416  20.599  41.571   9.150
 6969POPC   GL134417  20.573  41.580   8.850
 6969POPC   GL234418  20.596  41.415   8.850
 6969POPC   C1A34419  20.631  41.559   8.550
 6969POPC   D2A34420  20.576  41.526   8.250
 6969POPC   C3A34421  20.606  41.530   7.950
 6969POPC   C4A34422  20.625  41.569   7.650
 6969POPC   C1B34423  20.683  41.359   8.550
 6969POPC   C2B34424  20.687  41.322   8.250
 6969POPC   C3B34425  20.616  41.337   7.950
 6969POPC   C4B34426  20.650  41.338   7.650
 6970POPC   NC334427  28.338  37.706   9.450
 6970POPC   PO434428  28.415  37.638   9.150
 6970POPC   GL134429  28.363  37.703   8.850
 6970POPC   GL234430  28.317  37.820   8.850
 6970POPC   C1A34431  28.325  37.710   8.550
 6970POPC   D2A34432  28.396  37.637   8.250
 6970POPC   C3A34433  28.329  37.651   7.950
 6970POPC   C4A34434  28.403  37.721   7.650
 6970POPC   C1B34435  28.240  37.877   8.550
 6970POPC   C2B34436  28.220  37.873   8.250
 6970POPC   C3B34437  28.195  37.929   7.950
 6970POPC   C4B34438  28.187  37.892   7.650
 6971POPC   NC334439   4.351  36.152   9.450
 6971POPC   PO434440   4.280  36.097   9.150
 6971POPC   GL134441   4.294  36.126   8.850
 6971POPC   GL234442   4.256  36.174   8.850
 6971POPC   C1A34443   4.274  36.167   8.550
 6971POPC   D2A34444   4.295  36.147   8.250
 6971POPC   C3A34445   4.277  36.118   7.950
 6971POPC   C4A34446   4.338  36.144   7.650
 6971POPC   C1B34447   4.162  36.331   8.550
 6971POPC   C2B34448   4.103  36.339   8.250
 6971POPC   C3B34449   4.165  36.321   7.950
 6971POPC   C4B34450   4.127  36.341   7.650
 6972POPC   NC334451  15.159  29.890   9.450
 6972POPC   PO434452  15.206  29.943   9.150
 6972POPC   GL134453  15.145  29.927   8.850
 6972POPC   GL234454  15.254  29.827   8.850
 6972POPC   C1A34455  15.148  29.934   8.550
 6972POPC   D2A34456  15.214  29.923   8.250
 6972POPC   C3A34457  15.216  29.927   7.950
 6972POPC   C4A34458  15.143  29.957   7.650
 6972POPC   C1B34459  15.287  29.669   8.550
 6972POPC   C2B34460  15.262  29.715   8.250
 6972POPC   C3B34461  15.253  29.654   7.950
 6972POPC   C4B34462  15.236  29.730   7.650
 6973POPC   NC334463  11.312  41.542   9.450
 6973POPC   PO434464  11.257  41.594   9.150
 6973POPC   GL134465  11.276  41.552   8.850
 6973POPC   GL234466  11.203  41.576   8.850
 6973POPC   C1A34467  11.301  41.531   8.550
 6973POPC   D2A34468  11.330  41.554   8.250
 6973POPC   C3A34469  11.279  41.559   7.950
 6973POPC   C4A34470  11.333  41.600   7.650
 6973POPC   C1B34471  11.081  41.479   8.550
 6973POPC   C2B34472  11.005  41.481   8.250
 6973POPC   C3B34473  11.050  41.466   7.950
 6973POPC   C4B34474  11.067  41.477   7.650
 6974POPC   NC334475  43.112  39.236   9.450
 6974POPC   PO434476  43.102  39.206   9.150
 6974POPC   GL134477  43.130  39.243   8.850
 6974POPC   GL234478  43.020  39.321   8.850
 6974POPC   C1A34479  43.094  39.249   8.550
 6974POPC   D2A34480  43.149  39.268   8.250
 6974POPC   C3A34481  43.103  39.245   7.950
 6974POPC   C4A34482  43.074  39.199   7.650
 6974POPC   C1B34483  42.899  39.373   8.550
 6974POPC   C2B34484  42.863  39.387   8.250
 6974POPC   C3B34485  42.888  39.354   7.950
 6974POPC   C4B34486  42.895  39.309   7.650
 6975POPC   NC334487  14.370  20.569   9.450
 6975POPC   PO434488  14.385  20.632   9.150
 6975POPC   GL134489  14.433  20.634   8.850
 6975POPC   GL234490  14.247  20.539   8.850
 6975POPC   C1A34491  14.356  20.588   8.550
 6975POPC   D2A34492  14.399  20.566   8.250
 6975POPC   C3A34493  14.439  20.610   7.950
 6975POPC   C4A34494  14.438  20.572   7.650
 6975POPC   C1B34495  14.139  20.463   8.550
 6975POPC   C2B34496  14.155  20.441   8.250
 6975POPC   C3B34497  14.172  20.456   7.950
 6975POPC   C4B34498  14.188  20.497   7.650
 6976POPC   NC334499  15.139   0.421   9.450
 6976POPC   PO434500  15.225   0.462   9.150
 6976POPC   GL134501  15.143   0.452   8.850
 6976POPC   GL234502  15.111   0.531   8.850
 6976POPC   C1A34503  15.197   0.461   8.550
 6976POPC   D2A34504  15.218   0.421   8.250
 6976POPC   C3A34505  15.144   0.402   7.950
 6976POPC   C4A34506  15.141   0.425   7.650
 6976POPC   C1B34507  15.066   0.643   8.550
 6976POPC   C2B34508  15.070   0.605   8.250
 6976POPC   C3B34509  14.990   0.617   7.950
 6976POPC   C4B34510  15.052   0.641   7.650
 6977POPC   NC334511   8.995  36.920   9.450
 6977POPC   PO434512   9.006  36.937   9.150
 6977POPC   GL134513   9.014  36.900   8.850
 6977POPC   GL234514   9.114  36.986   8.850
 6977POPC   C1A34515   8.927  36.912   8.550
 6977POPC   D2A34516   8.951  36.886   8.250
 6977POPC   C3A34517   8.983  36.904   7.950
 6977POPC   C4A34518   8.925  36.880   7.650
 6977POPC   C1B34519   9.233  36.966   8.550
 6977POPC   C2B34520   9.206  36.982   8.250
 6977POPC   C3B34521   9.222  36.981   7.950
 6977POPC   C4B34522   9.228  36.940   7.650
 6978POPC   NC334523  42.376  43.926   9.450
 6978POPC   PO434524  42.326  43.858   9.150
 6978POPC   GL134525  42.353  43.863   8.850
 6978POPC   GL234526  42.349  43.807   8.850
 6978POPC   C1A34527  42.335  43.837   8.550
 6978POPC   D2A34528  42.371  43.871   8.250
 6978POPC   C3A34529  42.342  43.894   7.950
 6978POPC   C4A34530  42.332  43.853   7.650
 6978POPC   C1B34531  42.422  43.671   8.550
 6978POPC   C2B34532  42.425  43.612   8.250
 6978POPC   C3B34533  42.436  43.677   7.950
 6978POPC   C4B34534  42.460  43.656   7.650
 6979POPC   NC334535  33.015  26.842   9.450
 6979POPC   PO434536  33.035  26.833   9.150
 6979POPC   GL134537  32.986  26.772   8.850
 6979POPC   GL234538  32.920  26.918   8.850
 6979POPC   C1A34539  32.998  26.867   8.550
 6979POPC   D2A34540  32.983  26.793   8.250
 6979POPC   C3A34541  33.007  26.796   7.950
 6979POPC   C4A34542  33.049  26.809   7.650
 6979POPC   C1B34543  32.883  26.989   8.550
 6979POPC   C2B34544  32.926  27.030   8.250
 6979POPC   C3B34545  32.866  26.990   7.950
 6979POPC   C4B34546  32.907  27.017   7.650
 6980POPC   NC334547   0.458  19.826   9.450
 6980POPC   PO434548   0.486  19.789   9.150
 6980POPC   GL134549   0.461  19.845   8.850
 6980POPC   GL234550   0.478  19.944   8.850
 6980POPC   C1A34551   0.399  19.807   8.550
 6980POPC   D2A34552   0.450  19.861   8.250
 6980POPC   C3A34553   0.438  19.863   7.950
 6980POPC   C4A34554   0.463  19.842   7.650
 6980POPC   C1B34555   0.542  20.041   8.550
 6980POPC   C2B34556   0.543  20.112   8.250
 6980POPC   C3B34557   0.520  20.068   7.950
 6980POPC   C4B34558   0.482  20.077   7.650
 6981POPC   NC334559  36.092  19.794   9.450
 6981POPC   PO434560  36.162  19.845   9.150
 6981POPC   GL134561  36.098  19.821   8.850
 6981POPC   GL234562  36.126  19.716   8.850
 6981POPC   C1A34563  36.131  19.798   8.550
 6981POPC   D2A34564  36.146  19.882   8.250
 6981POPC   C3A34565  36.107  19.787   7.950
 6981POPC   C4A34566  36.095  19.802   7.650
 6981POPC   C1B34567  36.049  19.610   8.550
 6981POPC   C2B34568  36.136  19.544   8.250
 6981POPC   C3B34569  36.140  19.569   7.950
 6981POPC   C4B34570  36.125  19.559   7.650
 6982POPC   NC334571  26.049   7.381   9.450
 6982POPC   PO434572  26.073   7.374   9.150
 6982POPC   GL134573  26.086   7.428   8.850
 6982POPC   GL234574  25.979   7.539   8.850
 6982POPC   C1A34575  26.057   7.439   8.550
 6982POPC   D2A34576  26.077   7.431   8.250
 6982POPC   C3A34577  26.072   7.379   7.950
 6982POPC   C4A34578  26.071   7.460   7.650
 6982POPC   C1B34579  25.983   7.669   8.550
 6982POPC   C2B34580  25.923   7.617   8.250
 6982POPC   C3B34581  25.957   7.651   7.950
 6982POPC   C4B34582  25.920   7.614   7.650
 6983POPC   NC334583  27.548  40.054   9.450
 6983POPC   PO434584  27.627  40.014   9.150
 6983POPC   GL134585  27.584  39.960   8.850
 6983POPC   GL234586  27.517  40.172   8.850
 6983POPC   C1A34587  27.567  39.978   8.550
 6983POPC   D2A34588  27.595  40.051   8.250
 6983POPC   C3A34589  27.572  39.988   7.950
 6983POPC   C4A34590  27.628  40.040   7.650
 6983POPC   C1B34591  27.579  40.247   8.550
 6983POPC   C2B34592  27.551  40.249   8.250
 6983POPC   C3B34593  27.539  40.234   7.950
 6983POPC   C4B34594  27.550  40.221   7.650
 6984POPC   NC334595  27.582   6.694   9.450
 6984POPC   PO434596  27.553   6.693   9.150
 6984POPC   GL134597  27.607   6.608   8.850
 6984POPC   GL234598  27.685   6.616   8.850
 6984POPC   C1A34599  27.586   6.629   8.550
 6984POPC   D2A34600  27.556   6.664   8.250
 6984POPC   C3A34601  27.637   6.609   7.950
 6984POPC   C4A34602  27.551   6.654   7.650
 6984POPC   C1B34603  27.838   6.491   8.550
 6984POPC   C2B34604  27.814   6.566   8.250
 6984POPC   C3B34605  27.821   6.495   7.950
 6984POPC   C4B34606  27.854   6.524   7.650
 6985POPC   NC334607  31.441  21.392   9.450
 6985POPC   PO434608  31.436  21.378   9.150
 6985POPC   GL134609  31.494  21.430   8.850
 6985POPC   GL234610  31.371  21.364   8.850
 6985POPC   C1A34611  31.434  21.391   8.550
 6985POPC   D2A34612  31.503  21.432   8.250
 6985POPC   C3A34613  31.499  21.424   7.950
 6985POPC   C4A34614  31.470  21.376   7.650
 6985POPC   C1B34615  31.253  21.380   8.550
 6985POPC   C2B34616  31.247  21.415   8.250
 6985POPC   C3B34617  31.228  21.429   7.950
 6985POPC   C4B34618  31.237  21.436   7.650
 6986POPC   NC334619  19.801  23.701   9.450
 6986POPC   PO434620  19.849  23.679   9.150
 6986POPC   GL134621  19.849  23.731   8.850
 6986POPC   GL234622  19.675  23.817   8.850
 6986POPC   C1A34623  19.842  23.762   8.550
 6986POPC   D2A34624  19.795  23.665   8.250
 6986POPC   C3A34625  19.839  23.745   7.950
 6986POPC   C4A34626  19.803  23.710   7.650
 6986POPC   C1B34627  19.610  23.856   8.550
 6986POPC   C2B34628  19.641  23.855   8.250
 6986POPC   C3B34629  19.633  23.801   7.950
 6986POPC   C4B34630  19.614  23.863   7.650
 6987POPC   NC334631  27.612  36.872   9.450
 6987POPC   PO434632  27.563  36.864   9.150
 6987POPC   GL134633  27.608  36.873   8.850
 6987POPC   GL234634  27.506  36.830   8.850
 6987POPC   C1A34635  27.574  36.898   8.550
 6987POPC   D2A34636  27.584  36.884   8.250
 6987POPC   C3A34637  27.637  36.909   7.950
 6987POPC   C4A34638  27.611  36.864   7.650
 6987POPC   C1B34639  27.438  36.723   8.550
 6987POPC   C2B34640  27.474  36.642   8.250
 6987POPC   C3B34641  27.463  36.691   7.950
 6987POPC   C4B34642  27.459  36.684   7.650
 6988POPC   NC334643  26.081  30.701   9.450
 6988POPC   PO434644  26.083  30.686   9.150
 6988POPC   GL134645  26.071  30.681   8.850
 6988POPC   GL234646  25.916  30.636   8.850
 6988POPC   C1A34647  26.067  30.662   8.550
 6988POPC   D2A34648  25.996  30.729   8.250
 6988POPC   C3A34649  26.042  30.730   7.950
 6988POPC   C4A34650  26.053  30.666   7.650
 6988POPC   C1B34651  25.910  30.540   8.550
 6988POPC   C2B34652  25.861  30.521   8.250
 6988POPC   C3B34653  25.926  30.501   7.950
 6988POPC   C4B34654  25.844  30.489   7.650
 6989POPC   NC334655  12.897  15.917   9.450
 6989POPC   PO434656  12.881  15.983   9.150
 6989POPC   GL134657  12.845  15.911   8.850
 6989POPC   GL234658  12.968  16.039   8.850
 6989POPC   C1A34659  12.884  16.003   8.550
 6989POPC   D2A34660  12.892  16.005   8.250
 6989POPC   C3A34661  12.842  15.952   7.950
 6989POPC   C4A34662  12.805  15.920   7.650
 6989POPC   C1B34663  13.115  16.094   8.550
 6989POPC   C2B34664  13.126  16.090   8.250
 6989POPC   C3B34665  13.036  16.032   7.950
 6989POPC   C4B34666  13.110  16.074   7.650
 6990POPC   NC334667   2.001   6.643   9.450
 6990POPC   PO434668   2.039   6.672   9.150
 6990POPC   GL134669   1.999   6.597   8.850
 6990POPC   GL234670   2.051   6.559   8.850
 6990POPC   C1A34671   1.943   6.663   8.550
 6990POPC   D2A34672   1.953   6.679   8.250
 6990POPC   C3A34673   1.965   6.599   7.950
 6990POPC   C4A34674   1.943   6.660   7.650
 6990POPC   C1B34675   2.143   6.544   8.550
 6990POPC   C2B34676   2.236   6.535   8.250
 6990POPC   C3B34677   2.237   6.547   7.950
 6990POPC   C4B34678   2.151   6.545   7.650
 6991POPC   NC334679  31.425  31.458   9.450
 6991POPC   PO434680  31.509  31.500   9.150
 6991POPC   GL134681  31.478  31.476   8.850
 6991POPC   GL234682  31.618  31.398   8.850
 6991POPC   C1A34683  31.513  31.493   8.550
 6991POPC   D2A34684  31.441  31.479   8.250
 6991POPC   C3A34685  31.442  31.499   7.950
 6991POPC   C4A34686  31.466  31.485   7.650
 6991POPC   C1B34687  31.697  31.378   8.550
 6991POPC   C2B34688  31.648  31.352   8.250
 6991POPC   C3B34689  31.654  31.375   7.950
 6991POPC   C4B34690  31.722  31.384   7.650
 6992POPC   NC334691  12.079  29.192   9.450
 6992POPC   PO434692  12.050  29.149   9.150
 6992POPC   GL134693  12.092  29.096   8.850
 6992POPC   GL234694  11.983  29.223   8.850
 6992POPC   C1A34695  12.117  29.177   8.550
 6992POPC   D2A34696  12.029  29.131   8.250
 6992POPC   C3A34697  12.118  29.097   7.950
 6992POPC   C4A34698  12.068  29.106   7.650
 6992POPC   C1B34699  11.934  29.318   8.550
 6992POPC   C2B34700  11.930  29.345   8.250
 6992POPC   C3B34701  11.882  29.279   7.950
 6992POPC   C4B34702  11.853  29.317   7.650
 6993POPC   NC334703  29.912  44.647   9.450
 6993POPC   PO434704  29.968  44.617   9.150
 6993POPC   GL134705  29.894  44.644   8.850
 6993POPC   GL234706  30.010  44.722   8.850
 6993POPC   C1A34707  29.945  44.678   8.550
 6993POPC   D2A34708  29.877  44.612   8.250
 6993POPC   C3A34709  29.970  44.617   7.950
 6993POPC   C4A34710  29.945  44.651   7.650
 6993POPC   C1B34711  30.068  44.872   8.550
 6993POPC   C2B34712  30.030  44.847   8.250
 6993POPC   C3B34713  30.044  44.899   7.950
 6993POPC   C4B34714  30.051  44.850   7.650
 6994POPC   NC334715  25.289  32.224   9.450
 6994POPC   PO434716  25.251  32.236   9.150
 6994POPC   GL134717  25.224  32.285   8.850
 6994POPC   GL234718  25.093  32.253   8.850
 6994POPC   C1A34719  25.245  32.274   8.550
 6994POPC   D2A34720  25.274  32.279   8.250
 6994POPC   C3A34721  25.272  32.288   7.950
 6994POPC   C4A34722  25.298  32.211   7.650
 6994POPC   C1B34723  25.006  32.226   8.550
 6994POPC   C2B34724  25.062  32.196   8.250
 6994POPC   C3B34725  25.055  32.185   7.950
 6994POPC   C4B34726  25.015  32.213   7.650
 6995POPC   NC334727  43.915  43.138   9.450
 6995POPC   PO434728  43.878  43.069   9.150
 6995POPC   GL134729  43.862  43.109   8.850
 6995POPC   GL234730  43.901  42.969   8.850
 6995POPC   C1A34731  43.865  43.131   8.550
 6995POPC   D2A34732  43.843  43.121   8.250
 6995POPC   C3A34733  43.905  43.087   7.950
 6995POPC   C4A34734  43.923  43.070   7.650
 6995POPC   C1B34735  43.982  42.861   8.550
 6995POPC   C2B34736  43.957  42.922   8.250
 6995POPC   C3B34737  43.970  42.932   7.950
 6995POPC   C4B34738  43.992  42.845   7.650
 6996POPC   NC334739   9.732  36.094   9.450
 6996POPC   PO434740   9.733  36.100   9.150
 6996POPC   GL134741   9.789  36.143   8.850
 6996POPC   GL234742   9.821  35.972   8.850
 6996POPC   C1A34743   9.741  36.139   8.550
 6996POPC   D2A34744   9.728  36.078   8.250
 6996POPC   C3A34745   9.718  36.162   7.950
 6996POPC   C4A34746   9.738  36.079   7.650
 6996POPC   C1B34747   9.850  35.914   8.550
 6996POPC   C2B34748   9.824  35.884   8.250
 6996POPC   C3B34749   9.895  35.882   7.950
 6996POPC   C4B34750   9.889  35.917   7.650
 6997POPC   NC334751   2.739   9.015   9.450
 6997POPC   PO434752   2.783   8.972   9.150
 6997POPC   GL134753   2.753   8.962   8.850
 6997POPC   GL234754   2.643   9.122   8.850
 6997POPC   C1A34755   2.763   9.015   8.550
 6997POPC   D2A34756   2.747   8.934   8.250
 6997POPC   C3A34757   2.716   8.963   7.950
 6997POPC   C4A34758   2.716   8.925   7.650
 6997POPC   C1B34759   2.632   9.214   8.550
 6997POPC   C2B34760   2.580   9.184   8.250
 6997POPC   C3B34761   2.639   9.144   7.950
 6997POPC   C4B34762   2.603   9.216   7.650
 6998POPC   NC334763  28.341  25.993   9.450
 6998POPC   PO434764  28.322  26.036   9.150
 6998POPC   GL134765  28.402  26.008   8.850
 6998POPC   GL234766  28.270  26.059   8.850
 6998POPC   C1A34767  28.379  26.033   8.550
 6998POPC   D2A34768  28.329  26.027   8.250
 6998POPC   C3A34769  28.326  26.031   7.950
 6998POPC   C4A34770  28.414  26.050   7.650
 6998POPC   C1B34771  28.107  26.019   8.550
 6998POPC   C2B34772  28.073  26.043   8.250
 6998POPC   C3B34773  28.099  26.024   7.950
 6998POPC   C4B34774  28.109  26.107   7.650
 6999POPC   NC334775  10.527  22.121   9.450
 6999POPC   PO434776  10.548  22.137   9.150
 6999POPC   GL134777  10.514  22.143   8.850
 6999POPC   GL234778  10.584  22.030   8.850
 6999POPC   C1A34779  10.498  22.177   8.550
 6999POPC   D2A34780  10.514  22.205   8.250
 6999POPC   C3A34781  10.489  22.170   7.950
 6999POPC   C4A34782  10.557  22.161   7.650
 6999POPC   C1B34783  10.557  21.893   8.550
 6999POPC   C2B34784  10.594  21.962   8.250
 6999POPC   C3B34785  10.531  21.923   7.950
 6999POPC   C4B34786  10.575  21.917   7.650
 7000POPC   NC334787   8.157  18.259   9.450
 7000POPC   PO434788   8.154  18.316   9.150
 7000POPC   GL134789   8.172  18.306   8.850
 7000POPC   GL234790   8.065  18.224   8.850
 7000POPC   C1A34791   8.224  18.236   8.550
 7000POPC   D2A34792   8.235  18.320   8.250
 7000POPC   C3A34793   8.158  18.299   7.950
 7000POPC   C4A34794   8.208  18.242   7.650
 7000POPC   C1B34795   7.957  18.304   8.550
 7000POPC   C2B34796   7.916  18.281   8.250
 7000POPC   C3B34797   7.936  18.221   7.950
 7000POPC   C4B34798   7.939  18.302   7.650
 7001POPC   NC334799  16.682  27.588   9.450
 7001POPC   PO434800  16.762  27.546   9.150
 7001POPC   GL134801  16.742  27.638   8.850
 7001POPC   GL234802  16.665  27.762   8.850
 7001POPC   C1A34803  16.735  27.562   8.550
 7001POPC   D2A34804  16.738  27.587   8.250
 7001POPC   C3A34805  16.756  27.609   7.950
 7001POPC   C4A34806  16.692  27.612   7.650
 7001POPC   C1B34807  16.650  27.798   8.550
 7001POPC   C2B34808  16.741  27.854   8.250
 7001POPC   C3B34809  16.732  27.841   7.950
 7001POPC   C4B34810  16.697  27.818   7.650
 7002POPC   NC334811  29.948   5.139   9.450
 7002POPC   PO434812  29.872   5.045   9.150
 7002POPC   GL134813  29.885   5.086   8.850
 7002POPC   GL234814  29.855   5.216   8.850
 7002POPC   C1A34815  29.967   5.116   8.550
 7002POPC   D2A34816  29.914   5.090   8.250
 7002POPC   C3A34817  29.880   5.060   7.950
 7002POPC   C4A34818  29.921   5.139   7.650
 7002POPC   C1B34819  29.901   5.352   8.550
 7002POPC   C2B34820  29.879   5.341   8.250
 7002POPC   C3B34821  29.824   5.362   7.950
 7002POPC   C4B34822  29.862   5.320   7.650
 7003POPC   NC334823  28.347   5.129   9.450
 7003POPC   PO434824  28.337   5.122   9.150
 7003POPC   GL134825  28.336   5.118   8.850
 7003POPC   GL234826  28.250   5.065   8.850
 7003POPC   C1A34827  28.351   5.128   8.550
 7003POPC   D2A34828  28.370   5.086   8.250
 7003POPC   C3A34829  28.404   5.076   7.950
 7003POPC   C4A34830  28.390   5.101   7.650
 7003POPC   C1B34831  28.106   5.001   8.550
 7003POPC   C2B34832  28.153   5.001   8.250
 7003POPC   C3B34833  28.101   4.957   7.950
 7003POPC   C4B34834  28.131   4.966   7.650
 7004POPC   NC334835  37.720  26.796   9.450
 7004POPC   PO434836  37.721  26.774   9.150
 7004POPC   GL134837  37.657  26.810   8.850
 7004POPC   GL234838  37.821  26.781   8.850
 7004POPC   C1A34839  37.711  26.786   8.550
 7004POPC   D2A34840  37.713  26.834   8.250
 7004POPC   C3A34841  37.682  26.834   7.950
 7004POPC   C4A34842  37.662  26.815   7.650
 7004POPC   C1B34843  37.915  26.861   8.550
 7004POPC   C2B34844  37.921  26.835   8.250
 7004POPC   C3B34845  37.887  26.797   7.950
 7004POPC   C4B34846  37.922  26.845   7.650
 7005POPC   NC334847  40.772  31.498   9.450
 7005POPC   PO434848  40.813  31.456   9.150
 7005POPC   GL134849  40.832  31.473   8.850
 7005POPC   GL234850  40.863  31.561   8.850
 7005POPC   C1A34851  40.780  31.429   8.550
 7005POPC   D2A34852  40.778  31.457   8.250
 7005POPC   C3A34853  40.742  31.472   7.950
 7005POPC   C4A34854  40.768  31.422   7.650
 7005POPC   C1B34855  41.013  31.676   8.550
 7005POPC   C2B34856  40.983  31.667   8.250
 7005POPC   C3B34857  40.957  31.678   7.950
 7005POPC   C4B34858  40.959  31.629   7.650
 7006POPC   NC334859  25.296   8.218   9.450
 7006POPC   PO434860  25.233   8.156   9.150
 7006POPC   GL134861  25.258   8.173   8.850
 7006POPC   GL234862  25.389   8.246   8.850
 7006POPC   C1A34863  25.278   8.150   8.550
 7006POPC   D2A34864  25.289   8.230   8.250
 7006POPC   C3A34865  25.242   8.157   7.950
 7006POPC   C4A34866  25.307   8.175   7.650
 7006POPC   C1B34867  25.508   8.199   8.550
 7006POPC   C2B34868  25.462   8.218   8.250
 7006POPC   C3B34869  25.501   8.217   7.950
 7006POPC   C4B34870  25.550   8.221   7.650
 7007POPC   NC334871  15.936  29.955   9.450
 7007POPC   PO434872  16.001  29.956   9.150
 7007POPC   GL134873  15.907  29.923   8.850
 7007POPC   GL234874  16.105  29.844   8.850
 7007POPC   C1A34875  15.923  29.889   8.550
 7007POPC   D2A34876  15.918  29.906   8.250
 7007POPC   C3A34877  15.909  29.929   7.950
 7007POPC   C4A34878  15.955  29.882   7.650
 7007POPC   C1B34879  16.157  29.808   8.550
 7007POPC   C2B34880  16.164  29.793   8.250
 7007POPC   C3B34881  16.169  29.807   7.950
 7007POPC   C4B34882  16.164  29.749   7.650
 7008POPC   NC334883   2.737   0.421   9.450
 7008POPC   PO434884   2.806   0.418   9.150
 7008POPC   GL134885   2.739   0.415   8.850
 7008POPC   GL234886   2.885   0.443   8.850
 7008POPC   C1A34887   2.785   0.442   8.550
 7008POPC   D2A34888   2.762   0.465   8.250
 7008POPC   C3A34889   2.764   0.407   7.950
 7008POPC   C4A34890   2.777   0.420   7.650
 7008POPC   C1B34891   2.975   0.539   8.550
 7008POPC   C2B34892   3.045   0.480   8.250
 7008POPC   C3B34893   2.962   0.471   7.950
 7008POPC   C4B34894   3.036   0.561   7.650
 7009POPC   NC334895  23.727   3.505   9.450
 7009POPC   PO434896  23.754   3.504   9.150
 7009POPC   GL134897  23.750   3.512   8.850
 7009POPC   GL234898  23.838   3.639   8.850
 7009POPC   C1A34899  23.704   3.552   8.550
 7009POPC   D2A34900  23.669   3.586   8.250
 7009POPC   C3A34901  23.704   3.510   7.950
 7009POPC   C4A34902  23.732   3.528   7.650
 7009POPC   C1B34903  23.907   3.689   8.550
 7009POPC   C2B34904  23.877   3.665   8.250
 7009POPC   C3B34905  23.914   3.678   7.950
 7009POPC   C4B34906  23.942   3.699   7.650
 7010POPC   NC334907  28.394   6.621   9.450
 7010POPC   PO434908  28.322   6.654   9.150
 7010POPC   GL134909  28.362   6.600   8.850
 7010POPC   GL234910  28.491   6.689   8.850
 7010POPC   C1A34911  28.413   6.661   8.550
 7010POPC   D2A34912  28.393   6.648   8.250
 7010POPC   C3A34913  28.387   6.690   7.950
 7010POPC   C4A34914  28.409   6.630   7.650
 7010POPC   C1B34915  28.658   6.639   8.550
 7010POPC   C2B34916  28.625   6.656   8.250
 7010POPC   C3B34917  28.653   6.672   7.950
 7010POPC   C4B34918  28.584   6.724   7.650
 7011POPC   NC334919   0.455   5.823   9.450
 7011POPC   PO434920   0.412   5.853   9.150
 7011POPC   GL134921   0.402   5.864   8.850
 7011POPC   GL234922   0.397   5.931   8.850
 7011POPC   C1A34923   0.425   5.873   8.550
 7011POPC   D2A34924   0.442   5.875   8.250
 7011POPC   C3A34925   0.463   5.822   7.950
 7011POPC   C4A34926   0.443   5.842   7.650
 7011POPC   C1B34927   0.283   6.114   8.550
 7011POPC   C2B34928   0.350   6.138   8.250
 7011POPC   C3B34929   0.314   6.063   7.950
 7011POPC   C4B34930   0.330   6.139   7.650
 7012POPC   NC334931  32.220  12.092   9.450
 7012POPC   PO434932  32.235  12.087   9.150
 7012POPC   GL134933  32.278  12.088   8.850
 7012POPC   GL234934  32.333  11.926   8.850
 7012POPC   C1A34935  32.250  12.030   8.550
 7012POPC   D2A34936  32.293  12.059   8.250
 7012POPC   C3A34937  32.240  12.047   7.950
 7012POPC   C4A34938  32.227  12.125   7.650
 7012POPC   C1B34939  32.353  11.863   8.550
 7012POPC   C2B34940  32.337  11.831   8.250
 7012POPC   C3B34941  32.314  11.870   7.950
 7012POPC   C4B34942  32.276  11.848   7.650
 7013POPC   NC334943  39.239  26.042   9.450
 7013POPC   PO434944  39.235  26.038   9.150
 7013POPC   GL134945  39.215  26.032   8.850
 7013POPC   GL234946  39.388  25.943   8.850
 7013POPC   C1A34947  39.251  26.035   8.550
 7013POPC   D2A34948  39.249  26.065   8.250
 7013POPC   C3A34949  39.260  26.033   7.950
 7013POPC   C4A34950  39.220  25.992   7.650
 7013POPC   C1B34951  39.424  25.958   8.550
 7013POPC   C2B34952  39.464  25.944   8.250
 7013POPC   C3B34953  39.450  25.928   7.950
 7013POPC   C4B34954  39.421  25.894   7.650
 7014POPC   NC334955  37.683  12.036   9.450
 7014POPC   PO434956  37.679  12.081   9.150
 7014POPC   GL134957  37.640  12.055   8.850
 7014POPC   GL234958  37.794  12.159   8.850
 7014POPC   C1A34959  37.630  12.054   8.550
 7014POPC   D2A34960  37.694  12.099   8.250
 7014POPC   C3A34961  37.695  12.083   7.950
 7014POPC   C4A34962  37.685  12.097   7.650
 7014POPC   C1B34963  37.799  12.277   8.550
 7014POPC   C2B34964  37.806  12.315   8.250
 7014POPC   C3B34965  37.813  12.232   7.950
 7014POPC   C4B34966  37.829  12.257   7.650
 7015POPC   NC334967   5.889  40.040   9.450
 7015POPC   PO434968   5.897  39.967   9.150
 7015POPC   GL134969   5.862  40.050   8.850
 7015POPC   GL234970   5.753  39.925   8.850
 7015POPC   C1A34971   5.876  40.006   8.550
 7015POPC   D2A34972   5.866  40.022   8.250
 7015POPC   C3A34973   5.825  40.011   7.950
 7015POPC   C4A34974   5.830  40.013   7.650
 7015POPC   C1B34975   5.721  39.836   8.550
 7015POPC   C2B34976   5.641  39.884   8.250
 7015POPC   C3B34977   5.642  39.847   7.950
 7015POPC   C4B34978   5.684  39.874   7.650
 7016POPC   NC334979  33.753  12.891   9.450
 7016POPC   PO434980  33.809  12.862   9.150
 7016POPC   GL134981  33.796  12.878   8.850
 7016POPC   GL234982  33.684  12.924   8.850
 7016POPC   C1A34983  33.761  12.805   8.550
 7016POPC   D2A34984  33.801  12.844   8.250
 7016POPC   C3A34985  33.830  12.858   7.950
 7016POPC   C4A34986  33.751  12.898   7.650
 7016POPC   C1B34987  33.604  13.063   8.550
 7016POPC   C2B34988  33.608  13.002   8.250
 7016POPC   C3B34989  33.562  13.059   7.950
 7016POPC   C4B34990  33.615  13.030   7.650
 7017POPC   NC334991   9.756   8.999   9.450
 7017POPC   PO434992   9.720   8.941   9.150
 7017POPC   GL134993   9.774   9.017   8.850
 7017POPC   GL234994   9.664   8.909   8.850
 7017POPC   C1A34995   9.723   9.015   8.550
 7017POPC   D2A34996   9.778   8.985   8.250
 7017POPC   C3A34997   9.776   8.982   7.950
 7017POPC   C4A34998   9.725   8.933   7.650
 7017POPC   C1B34999   9.562   8.785   8.550
 7017POPC   C2B35000   9.505   8.854   8.250
 7017POPC   C3B35001   9.557   8.822   7.950
 7017POPC   C4B35002   9.540   8.833   7.650
 7018POPC   NC335003   9.749  39.209   9.450
 7018POPC   PO435004   9.709  39.262   9.150
 7018POPC   GL135005   9.763  39.184   8.850
 7018POPC   GL235006   9.819  39.320   8.850
 7018POPC   C1A35007   9.796  39.247   8.550
 7018POPC   D2A35008   9.745  39.276   8.250
 7018POPC   C3A35009   9.795  39.268   7.950
 7018POPC   C4A35010   9.707  39.241   7.650
 7018POPC   C1B35011   9.947  39.404   8.550
 7018POPC   C2B35012   9.961  39.423   8.250
 7018POPC   C3B35013   9.983  39.423   7.950
 7018POPC   C4B35014   9.921  39.382   7.650
 7019POPC   NC335015   6.628  31.503   9.450
 7019POPC   PO435016   6.664  31.433   9.150
 7019POPC   GL135017   6.599  31.509   8.850
 7019POPC   GL235018   6.529  31.387   8.850
 7019POPC   C1A35019   6.637  31.429   8.550
 7019POPC   D2A35020   6.614  31.439   8.250
 7019POPC   C3A35021   6.629  31.470   7.950
 7019POPC   C4A35022   6.635  31.506   7.650
 7019POPC   C1B35023   6.491  31.318   8.550
 7019POPC   C2B35024   6.436  31.245   8.250
 7019POPC   C3B35025   6.479  31.309   7.950
 7019POPC   C4B35026   6.482  31.326   7.650
 7020POPC   NC335027  18.317  14.378   9.450
 7020POPC   PO435028  18.319  14.384   9.150
 7020POPC   GL135029  18.332  14.377   8.850
 7020POPC   GL235030  18.316  14.350   8.850
 7020POPC   C1A35031  18.253  14.450   8.550
 7020POPC   D2A35032  18.251  14.434   8.250
 7020POPC   C3A35033  18.299  14.451   7.950
 7020POPC   C4A35034  18.240  14.447   7.650
 7020POPC   C1B35035  18.479  14.247   8.550
 7020POPC   C2B35036  18.418  14.217   8.250
 7020POPC   C3B35037  18.457  14.226   7.950
 7020POPC   C4B35038  18.413  14.175   7.650
 7021POPC   NC335039  15.208  31.455   9.450
 7021POPC   PO435040  15.184  31.425   9.150
 7021POPC   GL135041  15.229  31.461   8.850
 7021POPC   GL235042  15.197  31.595   8.850
 7021POPC   C1A35043  15.149  31.477   8.550
 7021POPC   D2A35044  15.208  31.493   8.250
 7021POPC   C3A35045  15.147  31.485   7.950
 7021POPC   C4A35046  15.147  31.509   7.650
 7021POPC   C1B35047  15.258  31.681   8.550
 7021POPC   C2B35048  15.270  31.727   8.250
 7021POPC   C3B35049  15.351  31.737   7.950
 7021POPC   C4B35050  15.334  31.723   7.650
 7022POPC   NC335051   1.966  20.652   9.450
 7022POPC   PO435052   1.969  20.625   9.150
 7022POPC   GL135053   1.998  20.576   8.850
 7022POPC   GL235054   2.062  20.519   8.850
 7022POPC   C1A35055   2.013  20.647   8.550
 7022POPC   D2A35056   1.947  20.643   8.250
 7022POPC   C3A35057   1.984  20.655   7.950
 7022POPC   C4A35058   1.945  20.594   7.650
 7022POPC   C1B35059   2.161  20.379   8.550
 7022POPC   C2B35060   2.179  20.434   8.250
 7022POPC   C3B35061   2.183  20.474   7.950
 7022POPC   C4B35062   2.210  20.475   7.650
 7023POPC   NC335063  38.439   6.649   9.450
 7023POPC   PO435064  38.500   6.678   9.150
 7023POPC   GL135065  38.502   6.655   8.850
 7023POPC   GL235066  38.347   6.624   8.850
 7023POPC   C1A35067  38.434   6.630   8.550
 7023POPC   D2A35068  38.478   6.674   8.250
 7023POPC   C3A35069  38.459   6.660   7.950
 7023POPC   C4A35070  38.443   6.674   7.650
 7023POPC   C1B35071  38.229   6.517   8.550
 7023POPC   C2B35072  38.191   6.550   8.250
 7023POPC   C3B35073  38.226   6.546   7.950
 7023POPC   C4B35074  38.195   6.522   7.650
 7024POPC   NC335075  23.695   8.954   9.450
 7024POPC   PO435076  23.671   8.942   9.150
 7024POPC   GL135077  23.734   8.998   8.850
 7024POPC   GL235078  23.842   8.921   8.850
 7024POPC   C1A35079  23.677   8.964   8.550
 7024POPC   D2A35080  23.721   8.995   8.250
 7024POPC   C3A35081  23.755   8.963   7.950
 7024POPC   C4A35082  23.695   8.999   7.650
 7024POPC   C1B35083  23.905   8.818   8.550
 7024POPC   C2B35084  23.876   8.841   8.250
 7024POPC   C3B35085  23.867   8.833   7.950
 7024POPC   C4B35086  23.917   8.797   7.650
 7025POPC   NC335087   7.384  10.565   9.450
 7025POPC   PO435088   7.411  10.520   9.150
 7025POPC   GL135089   7.459  10.524   8.850
 7025POPC   GL235090   7.418  10.678   8.850
 7025POPC   C1A35091   7.411  10.568   8.550
 7025POPC   D2A35092   7.410  10.515   8.250
 7025POPC   C3A35093   7.408  10.554   7.950
 7025POPC   C4A35094   7.398  10.566   7.650
 7025POPC   C1B35095   7.368  10.714   8.550
 7025POPC   C2B35096   7.331  10.718   8.250
 7025POPC   C3B35097   7.297  10.753   7.950
 7025POPC   C4B35098   7.348  10.738   7.650
 7026POPC   NC335099   0.478  22.893   9.450
 7026POPC   PO435100   0.396  22.965   9.150
 7026POPC   GL135101   0.425  22.979   8.850
 7026POPC   GL235102   0.376  23.014   8.850
 7026POPC   C1A35103   0.397  22.922   8.550
 7026POPC   D2A35104   0.419  22.959   8.250
 7026POPC   C3A35105   0.446  22.905   7.950
 7026POPC   C4A35106   0.415  22.988   7.650
 7026POPC   C1B35107   0.221  23.076   8.550
 7026POPC   C2B35108   0.254  23.111   8.250
 7026POPC   C3B35109   0.179  23.079   7.950
 7026POPC   C4B35110   0.184  23.080   7.650
 7027POPC   NC335111  38.438  36.872   9.450
 7027POPC   PO435112  38.463  36.888   9.150
 7027POPC   GL135113  38.420  36.950   8.850
 7027POPC   GL235114  38.578  36.883   8.850
 7027POPC   C1A35115  38.477  36.860   8.550
 7027POPC   D2A35116  38.452  36.866   8.250
 7027POPC   C3A35117  38.456  36.950   7.950
 7027POPC   C4A35118  38.457  36.854   7.650
 7027POPC   C1B35119  38.697  36.975   8.550
 7027POPC   C2B35120  38.752  36.899   8.250
 7027POPC   C3B35121  38.740  36.923   7.950
 7027POPC   C4B35122  38.726  36.909   7.650
 7028POPC   NC335123  22.155  22.889   9.450
 7028POPC   PO435124  22.149  22.955   9.150
 7028POPC   GL135125  22.132  22.896   8.850
 7028POPC   GL235126  22.090  22.908   8.850
 7028POPC   C1A35127  22.182  22.927   8.550
 7028POPC   D2A35128  22.116  22.930   8.250
 7028POPC   C3A35129  22.161  22.952   7.950
 7028POPC   C4A35130  22.112  22.891   7.650
 7028POPC   C1B35131  21.955  22.832   8.550
 7028POPC   C2B35132  21.960  22.864   8.250
 7028POPC   C3B35133  21.977  22.823   7.950
 7028POPC   C4B35134  21.933  22.854   7.650
 7029POPC   NC335135   9.760  40.013   9.450
 7029POPC   PO435136   9.774  40.044   9.150
 7029POPC   GL135137   9.790  40.024   8.850
 7029POPC   GL235138   9.864  40.054   8.850
 7029POPC   C1A35139   9.718  39.964   8.550
 7029POPC   D2A35140   9.721  39.997   8.250
 7029POPC   C3A35141   9.765  39.995   7.950
 7029POPC   C4A35142   9.755  39.963   7.650
 7029POPC   C1B35143   9.936  40.107   8.550
 7029POPC   C2B35144   9.938  40.185   8.250
 7029POPC   C3B35145   9.904  40.179   7.950
 7029POPC   C4B35146   9.974  40.139   7.650
 7030POPC   NC335147   5.118  35.394   9.450
 7030POPC   PO435148   5.124  35.309   9.150
 7030POPC   GL135149   5.103  35.385   8.850
 7030POPC   GL235150   4.984  35.493   8.850
 7030POPC   C1A35151   5.098  35.324   8.550
 7030POPC   D2A35152   5.045  35.395   8.250
 7030POPC   C3A35153   5.064  35.366   7.950
 7030POPC   C4A35154   5.139  35.329   7.650
 7030POPC   C1B35155   4.960  35.517   8.550
 7030POPC   C2B35156   4.937  35.542   8.250
 7030POPC   C3B35157   4.907  35.546   7.950
 7030POPC   C4B35158   4.948  35.522   7.650
 7031POPC   NC335159  43.114  22.128   9.450
 7031POPC   PO435160  43.159  22.113   9.150
 7031POPC   GL135161  43.107  22.113   8.850
 7031POPC   GL235162  43.014  22.013   8.850
 7031POPC   C1A35163  43.114  22.147   8.550
 7031POPC   D2A35164  43.105  22.207   8.250
 7031POPC   C3A35165  43.097  22.127   7.950
 7031POPC   C4A35166  43.084  22.139   7.650
 7031POPC   C1B35167  42.946  21.921   8.550
 7031POPC   C2B35168  42.968  21.949   8.250
 7031POPC   C3B35169  42.999  21.921   7.950
 7031POPC   C4B35170  42.971  21.915   7.650
 7032POPC   NC335171  33.845  35.331   9.450
 7032POPC   PO435172  33.760  35.331   9.150
 7032POPC   GL135173  33.847  35.348   8.850
 7032POPC   GL235174  33.758  35.471   8.850
 7032POPC   C1A35175  33.768  35.372   8.550
 7032POPC   D2A35176  33.834  35.321   8.250
 7032POPC   C3A35177  33.834  35.377   7.950
 7032POPC   C4A35178  33.804  35.314   7.650
 7032POPC   C1B35179  33.700  35.556   8.550
 7032POPC   C2B35180  33.725  35.583   8.250
 7032POPC   C3B35181  33.724  35.539   7.950
 7032POPC   C4B35182  33.710  35.609   7.650
 7033POPC   NC335183  38.475  41.595   9.450
 7033POPC   PO435184  38.413  41.565   9.150
 7033POPC   GL135185  38.449  41.585   8.850
 7033POPC   GL235186  38.482  41.450   8.850
 7033POPC   C1A35187  38.448  41.578   8.550
 7033POPC   D2A35188  38.483  41.560   8.250
 7033POPC   C3A35189  38.481  41.529   7.950
 7033POPC   C4A35190  38.420  41.595   7.650
 7033POPC   C1B35191  38.488  41.355   8.550
 7033POPC   C2B35192  38.439  41.308   8.250
 7033POPC   C3B35193  38.403  41.354   7.950
 7033POPC   C4B35194  38.445  41.350   7.650
 7034POPC   NC335195   5.896  43.889   9.450
 7034POPC   PO435196   5.858  43.865   9.150
 7034POPC   GL135197   5.836  43.894   8.850
 7034POPC   GL235198   5.792  43.804   8.850
 7034POPC   C1A35199   5.873  43.911   8.550
 7034POPC   D2A35200   5.869  43.903   8.250
 7034POPC   C3A35201   5.906  43.880   7.950
 7034POPC   C4A35202   5.863  43.840   7.650
 7034POPC   C1B35203   5.775  43.686   8.550
 7034POPC   C2B35204   5.783  43.696   8.250
 7034POPC   C3B35205   5.714  43.652   7.950
 7034POPC   C4B35206   5.787  43.703   7.650
 7035POPC   NC335207  35.316  10.541   9.450
 7035POPC   PO435208  35.401  10.529   9.150
 7035POPC   GL135209  35.349  10.540   8.850
 7035POPC   GL235210  35.283  10.423   8.850
 7035POPC   C1A35211  35.392  10.510   8.550
 7035POPC   D2A35212  35.302  10.547   8.250
 7035POPC   C3A35213  35.320  10.477   7.950
 7035POPC   C4A35214  35.364  10.524   7.650
 7035POPC   C1B35215  35.151  10.379   8.550
 7035POPC   C2B35216  35.160  10.337   8.250
 7035POPC   C3B35217  35.142  10.368   7.950
 7035POPC   C4B35218  35.190  10.404   7.650
 7036POPC   NC335219  34.554  34.615   9.450
 7036POPC   PO435220  34.581  34.556   9.150
 7036POPC   GL135221  34.611  34.601   8.850
 7036POPC   GL235222  34.563  34.494   8.850
 7036POPC   C1A35223  34.602  34.545   8.550
 7036POPC   D2A35224  34.601  34.621   8.250
 7036POPC   C3A35225  34.533  34.577   7.950
 7036POPC   C4A35226  34.577  34.598   7.650
 7036POPC   C1B35227  34.516  34.364   8.550
 7036POPC   C2B35228  34.533  34.367   8.250
 7036POPC   C3B35229  34.542  34.354   7.950
 7036POPC   C4B35230  34.527  34.306   7.650
 7037POPC   NC335231  20.634  30.669   9.450
 7037POPC   PO435232  20.610  30.714   9.150
 7037POPC   GL135233  20.587  30.722   8.850
 7037POPC   GL235234  20.672  30.640   8.850
 7037POPC   C1A35235  20.562  30.647   8.550
 7037POPC   D2A35236  20.561  30.688   8.250
 7037POPC   C3A35237  20.628  30.701   7.950
 7037POPC   C4A35238  20.643  30.663   7.650
 7037POPC   C1B35239  20.738  30.508   8.550
 7037POPC   C2B35240  20.751  30.555   8.250
 7037POPC   C3B35241  20.733  30.468   7.950
 7037POPC   C4B35242  20.782  30.493   7.650
 7038POPC   NC335243  38.460  33.014   9.450
 7038POPC   PO435244  38.424  33.034   9.150
 7038POPC   GL135245  38.457  32.986   8.850
 7038POPC   GL235246  38.470  33.126   8.850
 7038POPC   C1A35247  38.482  33.040   8.550
 7038POPC   D2A35248  38.446  33.017   8.250
 7038POPC   C3A35249  38.488  32.978   7.950
 7038POPC   C4A35250  38.497  33.065   7.650
 7038POPC   C1B35251  38.392  33.293   8.550
 7038POPC   C2B35252  38.472  33.303   8.250
 7038POPC   C3B35253  38.419  33.265   7.950
 7038POPC   C4B35254  38.458  33.285   7.650
 7039POPC   NC335255  17.556  10.524   9.450
 7039POPC   PO435256  17.532  10.522   9.150
 7039POPC   GL135257  17.538  10.539   8.850
 7039POPC   GL235258  17.602  10.412   8.850
 7039POPC   C1A35259  17.493  10.545   8.550
 7039POPC   D2A35260  17.485  10.480   8.250
 7039POPC   C3A35261  17.508  10.509   7.950
 7039POPC   C4A35262  17.499  10.551   7.650
 7039POPC   C1B35263  17.550  10.257   8.550
 7039POPC   C2B35264  17.586  10.248   8.250
 7039POPC   C3B35265  17.568  10.321   7.950
 7039POPC   C4B35266  17.599  10.291   7.650
 7040POPC   NC335267  17.544  33.814   9.450
 7040POPC   PO435268  17.546  33.771   9.150
 7040POPC   GL135269  17.536  33.779   8.850
 7040POPC   GL235270  17.627  33.901   8.850
 7040POPC   C1A35271  17.517  33.830   8.550
 7040POPC   D2A35272  17.537  33.777   8.250
 7040POPC   C3A35273  17.515  33.802   7.950
 7040POPC   C4A35274  17.471  33.756   7.650
 7040POPC   C1B35275  17.641  34.048   8.550
 7040POPC   C2B35276  17.612  34.032   8.250
 7040POPC   C3B35277  17.654  33.989   7.950
 7040POPC   C4B35278  17.682  33.988   7.650
 7041POPC   NC335279  14.402  18.326   9.450
 7041POPC   PO435280  14.390  18.270   9.150
 7041POPC   GL135281  14.445  18.305   8.850
 7041POPC   GL235282  14.411  18.410   8.850
 7041POPC   C1A35283  14.444  18.307   8.550
 7041POPC   D2A35284  14.429  18.249   8.250
 7041POPC   C3A35285  14.378  18.274   7.950
 7041POPC   C4A35286  14.386  18.263   7.650
 7041POPC   C1B35287  14.441  18.499   8.550
 7041POPC   C2B35288  14.448  18.505   8.250
 7041POPC   C3B35289  14.498  18.545   7.950
 7041POPC   C4B35290  14.495  18.506   7.650
 7042POPC   NC335291  11.297  21.427   9.450
 7042POPC   PO435292  11.342  21.393   9.150
 7042POPC   GL135293  11.349  21.405   8.850
 7042POPC   GL235294  11.400  21.326   8.850
 7042POPC   C1A35295  11.338  21.399   8.550
 7042POPC   D2A35296  11.293  21.431   8.250
 7042POPC   C3A35297  11.261  21.420   7.950
 7042POPC   C4A35298  11.250  21.343   7.650
 7042POPC   C1B35299  11.518  21.255   8.550
 7042POPC   C2B35300  11.481  21.198   8.250
 7042POPC   C3B35301  11.511  21.250   7.950
 7042POPC   C4B35302  11.452  21.240   7.650
 7043POPC   NC335303  23.697  19.840   9.450
 7043POPC   PO435304  23.670  19.862   9.150
 7043POPC   GL135305  23.694  19.836   8.850
 7043POPC   GL235306  23.678  19.938   8.850
 7043POPC   C1A35307  23.761  19.815   8.550
 7043POPC   D2A35308  23.732  19.863   8.250
 7043POPC   C3A35309  23.737  19.841   7.950
 7043POPC   C4A35310  23.704  19.792   7.650
 7043POPC   C1B35311  23.707  20.069   8.550
 7043POPC   C2B35312  23.703  20.109   8.250
 7043POPC   C3B35313  23.735  20.129   7.950
 7043POPC   C4B35314  23.709  20.072   7.650
 7044POPC   NC335315  22.982  43.079   9.450
 7044POPC   PO435316  22.892  43.080   9.150
 7044POPC   GL135317  22.889  43.071   8.850
 7044POPC   GL235318  22.835  43.177   8.850
 7044POPC   C1A35319  22.938  43.128   8.550
 7044POPC   D2A35320  22.907  43.077   8.250
 7044POPC   C3A35321  22.929  43.082   7.950
 7044POPC   C4A35322  22.920  43.073   7.650
 7044POPC   C1B35323  22.664  43.192   8.550
 7044POPC   C2B35324  22.728  43.197   8.250
 7044POPC   C3B35325  22.721  43.235   7.950
 7044POPC   C4B35326  22.740  43.249   7.650
 7045POPC   NC335327  24.510   9.795   9.450
 7045POPC   PO435328  24.493   9.719   9.150
 7045POPC   GL135329  24.525   9.743   8.850
 7045POPC   GL235330  24.621   9.782   8.850
 7045POPC   C1A35331  24.481   9.699   8.550
 7045POPC   D2A35332  24.449   9.710   8.250
 7045POPC   C3A35333  24.482   9.786   7.950
 7045POPC   C4A35334  24.441   9.757   7.650
 7045POPC   C1B35335  24.752   9.884   8.550
 7045POPC   C2B35336  24.683   9.884   8.250
 7045POPC   C3B35337  24.726   9.900   7.950
 7045POPC   C4B35338  24.678   9.909   7.650
 7046POPC   NC335339  36.860   1.963   9.450
 7046POPC   PO435340  36.869   1.981   9.150
 7046POPC   GL135341  36.881   2.021   8.850
 7046POPC   GL235342  36.832   2.041   8.850
 7046POPC   C1A35343  36.872   2.029   8.550
 7046POPC   D2A35344  36.944   1.995   8.250
 7046POPC   C3A35345  36.870   2.027   7.950
 7046POPC   C4A35346  36.876   1.997   7.650
 7046POPC   C1B35347  36.712   2.156   8.550
 7046POPC   C2B35348  36.700   2.138   8.250
 7046POPC   C3B35349  36.726   2.150   7.950
 7046POPC   C4B35350  36.699   2.104   7.650
 7047POPC   NC335351  37.635  27.602   9.450
 7047POPC   PO435352  37.633  27.599   9.150
 7047POPC   GL135353  37.659  27.582   8.850
 7047POPC   GL235354  37.815  27.528   8.850
 7047POPC   C1A35355  37.681  27.551   8.550
 7047POPC   D2A35356  37.684  27.591   8.250
 7047POPC   C3A35357  37.660  27.598   7.950
 7047POPC   C4A35358  37.725  27.554   7.650
 7047POPC   C1B35359  37.892  27.514   8.550
 7047POPC   C2B35360  37.966  27.555   8.250
 7047POPC   C3B35361  37.887  27.528   7.950
 7047POPC   C4B35362  37.932  27.547   7.650
 7048POPC   NC335363  43.871   9.768   9.450
 7048POPC   PO435364  43.850   9.706   9.150
 7048POPC   GL135365  43.920   9.713   8.850
 7048POPC   GL235366  43.865   9.599   8.850
 7048POPC   C1A35367  43.836   9.719   8.550
 7048POPC   D2A35368  43.838   9.760   8.250
 7048POPC   C3A35369  43.931   9.718   7.950
 7048POPC   C4A35370  43.908   9.788   7.650
 7048POPC   C1B35371  43.906   9.480   8.550
 7048POPC   C2B35372  43.905   9.544   8.250
 7048POPC   C3B35373  43.902   9.495   7.950
 7048POPC   C4B35374  43.881   9.522   7.650
 7049POPC   NC335375   5.893  43.092   9.450
 7049POPC   PO435376   5.897  43.109   9.150
 7049POPC   GL135377   5.836  43.073   8.850
 7049POPC   GL235378   5.819  43.008   8.850
 7049POPC   C1A35379   5.825  43.115   8.550
 7049POPC   D2A35380   5.832  43.093   8.250
 7049POPC   C3A35381   5.830  43.106   7.950
 7049POPC   C4A35382   5.845  43.079   7.650
 7049POPC   C1B35383   5.635  42.935   8.550
 7049POPC   C2B35384   5.707  42.953   8.250
 7049POPC   C3B35385   5.681  42.992   7.950
 7049POPC   C4B35386   5.706  42.937   7.650
 7050POPC   NC335387  32.288  26.793   9.450
 7050POPC   PO435388  32.224  26.808   9.150
 7050POPC   GL135389  32.279  26.830   8.850
 7050POPC   GL235390  32.212  26.894   8.850
 7050POPC   C1A35391  32.226  26.804   8.550
 7050POPC   D2A35392  32.275  26.859   8.250
 7050POPC   C3A35393  32.263  26.844   7.950
 7050POPC   C4A35394  32.282  26.782   7.650
 7050POPC   C1B35395  32.206  27.046   8.550
 7050POPC   C2B35396  32.163  27.082   8.250
 7050POPC   C3B35397  32.179  27.055   7.950
 7050POPC   C4B35398  32.166  27.097   7.650
 7051POPC   NC335399   8.156  27.625   9.450
 7051POPC   PO435400   8.234  27.625   9.150
 7051POPC   GL135401   8.239  27.635   8.850
 7051POPC   GL235402   8.168  27.535   8.850
 7051POPC   C1A35403   8.230  27.602   8.550
 7051POPC   D2A35404   8.211  27.559   8.250
 7051POPC   C3A35405   8.226  27.582   7.950
 7051POPC   C4A35406   8.199  27.567   7.650
 7051POPC   C1B35407   8.061  27.367   8.550
 7051POPC   C2B35408   8.071  27.338   8.250
 7051POPC   C3B35409   8.027  27.395   7.950
 7051POPC   C4B35410   8.112  27.426   7.650
 7052POPC   NC335411  37.701  22.950   9.450
 7052POPC   PO435412  37.693  22.898   9.150
 7052POPC   GL135413  37.651  22.923   8.850
 7052POPC   GL235414  37.791  23.012   8.850
 7052POPC   C1A35415  37.727  22.921   8.550
 7052POPC   D2A35416  37.719  22.952   8.250
 7052POPC   C3A35417  37.695  22.904   7.950
 7052POPC   C4A35418  37.633  22.900   7.650
 7052POPC   C1B35419  37.904  23.058   8.550
 7052POPC   C2B35420  37.892  23.044   8.250
 7052POPC   C3B35421  37.899  22.989   7.950
 7052POPC   C4B35422  37.894  23.006   7.650
 7053POPC   NC335423  33.015  17.534   9.450
 7053POPC   PO435424  33.031  17.536   9.150
 7053POPC   GL135425  33.066  17.529   8.850
 7053POPC   GL235426  32.855  17.548   8.850
 7053POPC   C1A35427  33.025  17.529   8.550
 7053POPC   D2A35428  33.069  17.475   8.250
 7053POPC   C3A35429  32.990  17.460   7.950
 7053POPC   C4A35430  33.017  17.545   7.650
 7053POPC   C1B35431  32.797  17.516   8.550
 7053POPC   C2B35432  32.744  17.557   8.250
 7053POPC   C3B35433  32.751  17.513   7.950
 7053POPC   C4B35434  32.778  17.571   7.650
 7054POPC   NC335435  34.587   0.480   9.450
 7054POPC   PO435436  34.564   0.417   9.150
 7054POPC   GL135437  34.571   0.439   8.850
 7054POPC   GL235438  34.622   0.312   8.850
 7054POPC   C1A35439  34.545   0.434   8.550
 7054POPC   D2A35440  34.580   0.416   8.250
 7054POPC   C3A35441  34.591   0.452   7.950
 7054POPC   C4A35442  34.535   0.405   7.650
 7054POPC   C1B35443  34.647   0.212   8.550
 7054POPC   C2B35444  34.730   0.184   8.250
 7054POPC   C3B35445  34.711   0.221   7.950
 7054POPC   C4B35446  34.637   0.248   7.650
 7055POPC   NC335447  15.229   2.733   9.450
 7055POPC   PO435448  15.213   2.717   9.150
 7055POPC   GL135449  15.203   2.752   8.850
 7055POPC   GL235450  15.077   2.748   8.850
 7055POPC   C1A35451  15.168   2.751   8.550
 7055POPC   D2A35452  15.199   2.742   8.250
 7055POPC   C3A35453  15.198   2.804   7.950
 7055POPC   C4A35454  15.170   2.810   7.650
 7055POPC   C1B35455  14.946   2.763   8.550
 7055POPC   C2B35456  14.886   2.797   8.250
 7055POPC   C3B35457  14.951   2.744   7.950
 7055POPC   C4B35458  14.940   2.757   7.650
 7056POPC   NC335459  12.837  25.281   9.450
 7056POPC   PO435460  12.902  25.224   9.150
 7056POPC   GL135461  12.830  25.251   8.850
 7056POPC   GL235462  12.891  25.384   8.850
 7056POPC   C1A35463  12.876  25.313   8.550
 7056POPC   D2A35464  12.871  25.250   8.250
 7056POPC   C3A35465  12.874  25.254   7.950
 7056POPC   C4A35466  12.826  25.255   7.650
 7056POPC   C1B35467  12.848  25.473   8.550
 7056POPC   C2B35468  12.904  25.486   8.250
 7056POPC   C3B35469  12.888  25.521   7.950
 7056POPC   C4B35470  12.893  25.482   7.650
 7057POPC   NC335471  11.301   6.653   9.450
 7057POPC   PO435472  11.345   6.678   9.150
 7057POPC   GL135473  11.261   6.617   8.850
 7057POPC   GL235474  11.334   6.569   8.850
 7057POPC   C1A35475  11.321   6.693   8.550
 7057POPC   D2A35476  11.318   6.684   8.250
 7057POPC   C3A35477  11.283   6.602   7.950
 7057POPC   C4A35478  11.287   6.656   7.650
 7057POPC   C1B35479  11.409   6.452   8.550
 7057POPC   C2B35480  11.357   6.417   8.250
 7057POPC   C3B35481  11.413   6.457   7.950
 7057POPC   C4B35482  11.432   6.389   7.650
 7058POPC   NC335483  15.917  22.987   9.450
 7058POPC   PO435484  15.916  22.978   9.150
 7058POPC   GL135485  15.974  22.951   8.850
 7058POPC   GL235486  16.082  22.875   8.850
 7058POPC   C1A35487  15.953  22.897   8.550
 7058POPC   D2A35488  15.925  22.986   8.250
 7058POPC   C3A35489  15.974  22.965   7.950
 7058POPC   C4A35490  16.003  22.982   7.650
 7058POPC   C1B35491  16.120  22.826   8.550
 7058POPC   C2B35492  16.126  22.816   8.250
 7058POPC   C3B35493  16.118  22.829   7.950
 7058POPC   C4B35494  16.202  22.755   7.650
 7059POPC   NC335495  40.015  27.628   9.450
 7059POPC   PO435496  39.984  27.572   9.150
 7059POPC   GL135497  40.043  27.619   8.850
 7059POPC   GL235498  40.087  27.719   8.850
 7059POPC   C1A35499  40.032  27.573   8.550
 7059POPC   D2A35500  39.998  27.557   8.250
 7059POPC   C3A35501  39.971  27.583   7.950
 7059POPC   C4A35502  40.026  27.589   7.650
 7059POPC   C1B35503  40.187  27.806   8.550
 7059POPC   C2B35504  40.196  27.827   8.250
 7059POPC   C3B35505  40.201  27.793   7.950
 7059POPC   C4B35506  40.160  27.775   7.650
 7060POPC   NC335507  29.939  23.666   9.450
 7060POPC   PO435508  29.957  23.759   9.150
 7060POPC   GL135509  29.958  23.695   8.850
 7060POPC   GL235510  30.052  23.695   8.850
 7060POPC   C1A35511  29.916  23.738   8.550
 7060POPC   D2A35512  29.925  23.747   8.250
 7060POPC   C3A35513  29.872  23.686   7.950
 7060POPC   C4A35514  29.889  23.754   7.650
 7060POPC   C1B35515  30.145  23.741   8.550
 7060POPC   C2B35516  30.202  23.716   8.250
 7060POPC   C3B35517  30.172  23.736   7.950
 7060POPC   C4B35518  30.123  23.748   7.650
 7061POPC   NC335519   5.077  23.764   9.450
 7061POPC   PO435520   5.068  23.721   9.150
 7061POPC   GL135521   5.084  23.759   8.850
 7061POPC   GL235522   5.260  23.679   8.850
 7061POPC   C1A35523   5.138  23.712   8.550
 7061POPC   D2A35524   5.141  23.676   8.250
 7061POPC   C3A35525   5.122  23.714   7.950
 7061POPC   C4A35526   5.096  23.667   7.650
 7061POPC   C1B35527   5.382  23.675   8.550
 7061POPC   C2B35528   5.376  23.700   8.250
 7061POPC   C3B35529   5.388  23.650   7.950
 7061POPC   C4B35530   5.300  23.685   7.650
 7062POPC   NC335531  17.557  17.459   9.450
 7062POPC   PO435532  17.507  17.533   9.150
 7062POPC   GL135533  17.485  17.494   8.850
 7062POPC   GL235534  17.627  17.507   8.850
 7062POPC   C1A35535  17.535  17.544   8.550
 7062POPC   D2A35536  17.488  17.522   8.250
 7062POPC   C3A35537  17.540  17.527   7.950
 7062POPC   C4A35538  17.527  17.551   7.650
 7062POPC   C1B35539  17.789  17.509   8.550
 7062POPC   C2B35540  17.767  17.508   8.250
 7062POPC   C3B35541  17.740  17.546   7.950
 7062POPC   C4B35542  17.724  17.525   7.650
 7063POPC   NC335543  21.395  34.625   9.450
 7063POPC   PO435544  21.345  34.586   9.150
 7063POPC   GL135545  21.349  34.554   8.850
 7063POPC   GL235546  21.235  34.653   8.850
 7063POPC   C1A35547  21.390  34.565   8.550
 7063POPC   D2A35548  21.344  34.527   8.250
 7063POPC   C3A35549  21.429  34.546   7.950
 7063POPC   C4A35550  21.385  34.605   7.650
 7063POPC   C1B35551  21.128  34.699   8.550
 7063POPC   C2B35552  21.181  34.635   8.250
 7063POPC   C3B35553  21.109  34.648   7.950
 7063POPC   C4B35554  21.148  34.680   7.650
 7064POPC   NC335555  23.691  23.701   9.450
 7064POPC   PO435556  23.691  23.764   9.150
 7064POPC   GL135557  23.684  23.685   8.850
 7064POPC   GL235558  23.790  23.736   8.850
 7064POPC   C1A35559  23.732  23.749   8.550
 7064POPC   D2A35560  23.705  23.735   8.250
 7064POPC   C3A35561  23.680  23.757   7.950
 7064POPC   C4A35562  23.678  23.724   7.650
 7064POPC   C1B35563  23.927  23.724   8.550
 7064POPC   C2B35564  23.960  23.704   8.250
 7064POPC   C3B35565  23.926  23.678   7.950
 7064POPC   C4B35566  23.937  23.699   7.650
 7065POPC   NC335567  14.439  36.879   9.450
 7065POPC   PO435568  14.423  36.869   9.150
 7065POPC   GL135569  14.424  36.923   8.850
 7065POPC   GL235570  14.309  36.875   8.850
 7065POPC   C1A35571  14.394  36.920   8.550
 7065POPC   D2A35572  14.363  36.863   8.250
 7065POPC   C3A35573  14.407  36.945   7.950
 7065POPC   C4A35574  14.413  36.938   7.650
 7065POPC   C1B35575  14.157  36.823   8.550
 7065POPC   C2B35576  14.135  36.851   8.250
 7065POPC   C3B35577  14.199  36.851   7.950
 7065POPC   C4B35578  14.173  36.823   7.650
 7066POPC   NC335579  43.087  35.344   9.450
 7066POPC   PO435580  43.139  35.378   9.150
 7066POPC   GL135581  43.154  35.353   8.850
 7066POPC   GL235582  43.033  35.398   8.850
 7066POPC   C1A35583  43.152  35.372   8.550
 7066POPC   D2A35584  43.121  35.347   8.250
 7066POPC   C3A35585  43.131  35.316   7.950
 7066POPC   C4A35586  43.122  35.311   7.650
 7066POPC   C1B35587  42.860  35.381   8.550
 7066POPC   C2B35588  42.890  35.429   8.250
 7066POPC   C3B35589  42.859  35.412   7.950
 7066POPC   C4B35590  42.904  35.376   7.650
 7067POPC   NC335591  41.597  40.828   9.450
 7067POPC   PO435592  41.545  40.818   9.150
 7067POPC   GL135593  41.591  40.829   8.850
 7067POPC   GL235594  41.522  40.624   8.850
 7067POPC   C1A35595  41.553  40.782   8.550
 7067POPC   D2A35596  41.593  40.826   8.250
 7067POPC   C3A35597  41.600  40.817   7.950
 7067POPC   C4A35598  41.560  40.816   7.650
 7067POPC   C1B35599  41.426  40.505   8.550
 7067POPC   C2B35600  41.475  40.567   8.250
 7067POPC   C3B35601  41.496  40.574   7.950
 7067POPC   C4B35602  41.452  40.520   7.650
 7068POPC   NC335603  39.965  29.165   9.450
 7068POPC   PO435604  39.976  29.150   9.150
 7068POPC   GL135605  39.987  29.183   8.850
 7068POPC   GL235606  39.928  29.230   8.850
 7068POPC   C1A35607  39.973  29.131   8.550
 7068POPC   D2A35608  40.028  29.161   8.250
 7068POPC   C3A35609  40.012  29.180   7.950
 7068POPC   C4A35610  40.017  29.133   7.650
 7068POPC   C1B35611  39.825  29.255   8.550
 7068POPC   C2B35612  39.798  29.315   8.250
 7068POPC   C3B35613  39.825  29.256   7.950
 7068POPC   C4B35614  39.774  29.252   7.650
 7069POPC   NC335615   8.997  40.827   9.450
 7069POPC   PO435616   9.000  40.755   9.150
 7069POPC   GL135617   8.930  40.783   8.850
 7069POPC   GL235618   9.040  40.854   8.850
 7069POPC   C1A35619   8.987  40.751   8.550
 7069POPC   D2A35620   8.984  40.797   8.250
 7069POPC   C3A35621   8.996  40.758   7.950
 7069POPC   C4A35622   8.949  40.768   7.650
 7069POPC   C1B35623   9.187  40.908   8.550
 7069POPC   C2B35624   9.210  40.909   8.250
 7069POPC   C3B35625   9.215  40.972   7.950
 7069POPC   C4B35626   9.204  40.894   7.650
 7070POPC   NC335627  26.058  36.114   9.450
 7070POPC   PO435628  26.027  36.109   9.150
 7070POPC   GL135629  26.064  36.104   8.850
 7070POPC   GL235630  26.163  36.081   8.850
 7070POPC   C1A35631  26.041  36.173   8.550
 7070POPC   D2A35632  26.028  36.098   8.250
 7070POPC   C3A35633  26.061  36.078   7.950
 7070POPC   C4A35634  25.993  36.130   7.650
 7070POPC   C1B35635  26.310  36.057   8.550
 7070POPC   C2B35636  26.300  36.061   8.250
 7070POPC   C3B35637  26.267  36.082   7.950
 7070POPC   C4B35638  26.337  36.148   7.650
 7071POPC   NC335639  34.575  43.852   9.450
 7071POPC   PO435640  34.551  43.925   9.150
 7071POPC   GL135641  34.592  43.884   8.850
 7071POPC   GL235642  34.641  43.972   8.850
 7071POPC   C1A35643  34.560  43.857   8.550
 7071POPC   D2A35644  34.530  43.922   8.250
 7071POPC   C3A35645  34.551  43.923   7.950
 7071POPC   C4A35646  34.568  43.867   7.650
 7071POPC   C1B35647  34.806  44.020   8.550
 7071POPC   C2B35648  34.811  44.099   8.250
 7071POPC   C3B35649  34.793  44.027   7.950
 7071POPC   C4B35650  34.800  44.023   7.650
 7072POPC   NC335651  12.074   0.482   9.450
 7072POPC   PO435652  12.056   0.450   9.150
 7072POPC   GL135653  12.031   0.411   8.850
 7072POPC   GL235654  12.177   0.387   8.850
 7072POPC   C1A35655  12.027   0.408   8.550
 7072POPC   D2A35656  12.043   0.465   8.250
 7072POPC   C3A35657  12.047   0.469   7.950
 7072POPC   C4A35658  12.086   0.447   7.650
 7072POPC   C1B35659  12.304   0.342   8.550
 7072POPC   C2B35660  12.327   0.409   8.250
 7072POPC   C3B35661  12.342   0.413   7.950
 7072POPC   C4B35662  12.266   0.380   7.650
 7073POPC   NC335663  24.486  21.420   9.450
 7073POPC   PO435664  24.518  21.430   9.150
 7073POPC   GL135665  24.465  21.375   8.850
 7073POPC   GL235666  24.577  21.474   8.850
 7073POPC   C1A35667  24.461  21.418   8.550
 7073POPC   D2A35668  24.479  21.405   8.250
 7073POPC   C3A35669  24.451  21.373   7.950
 7073POPC   C4A35670  24.504  21.413   7.650
 7073POPC   C1B35671  24.632  21.538   8.550
 7073POPC   C2B35672  24.662  21.511   8.250
 7073POPC   C3B35673  24.640  21.513   7.950
 7073POPC   C4B35674  24.657  21.553   7.650
 7074POPC   NC335675  26.824  27.554   9.450
 7074POPC   PO435676  26.824  27.585   9.150
 7074POPC   GL135677  26.821  27.631   8.850
 7074POPC   GL235678  26.901  27.748   8.850
 7074POPC   C1A35679  26.788  27.603   8.550
 7074POPC   D2A35680  26.835  27.637   8.250
 7074POPC   C3A35681  26.781  27.613   7.950
 7074POPC   C4A35682  26.838  27.613   7.650
 7074POPC   C1B35683  26.927  27.840   8.550
 7074POPC   C2B35684  26.987  27.852   8.250
 7074POPC   C3B35685  26.956  27.773   7.950
 7074POPC   C4B35686  26.963  27.763   7.650
 7075POPC   NC335687  23.702  12.857   9.450
 7075POPC   PO435688  23.753  12.806   9.150
 7075POPC   GL135689  23.700  12.875   8.850
 7075POPC   GL235690  23.690  12.931   8.850
 7075POPC   C1A35691  23.675  12.861   8.550
 7075POPC   D2A35692  23.673  12.843   8.250
 7075POPC   C3A35693  23.665  12.855   7.950
 7075POPC   C4A35694  23.703  12.829   7.650
 7075POPC   C1B35695  23.688  13.135   8.550
 7075POPC   C2B35696  23.705  13.080   8.250
 7075POPC   C3B35697  23.629  13.134   7.950
 7075POPC   C4B35698  23.656  13.122   7.650
 7076POPC   NC335699  15.935   5.900   9.450
 7076POPC   PO435700  16.000   5.860   9.150
 7076POPC   GL135701  15.958   5.909   8.850
 7076POPC   GL235702  15.939   5.969   8.850
 7076POPC   C1A35703  15.953   5.878   8.550
 7076POPC   D2A35704  15.911   5.879   8.250
 7076POPC   C3A35705  15.956   5.846   7.950
 7076POPC   C4A35706  15.941   5.845   7.650
 7076POPC   C1B35707  15.906   6.146   8.550
 7076POPC   C2B35708  15.944   6.131   8.250
 7076POPC   C3B35709  15.909   6.102   7.950
 7076POPC   C4B35710  15.944   6.165   7.650
 7077POPC   NC335711  37.644  12.881   9.450
 7077POPC   PO435712  37.685  12.825   9.150
 7077POPC   GL135713  37.633  12.848   8.850
 7077POPC   GL235714  37.568  12.833   8.850
 7077POPC   C1A35715  37.697  12.848   8.550
 7077POPC   D2A35716  37.672  12.898   8.250
 7077POPC   C3A35717  37.654  12.882   7.950
 7077POPC   C4A35718  37.715  12.859   7.650
 7077POPC   C1B35719  37.467  12.861   8.550
 7077POPC   C2B35720  37.407  12.901   8.250
 7077POPC   C3B35721  37.448  12.855   7.950
 7077POPC   C4B35722  37.431  12.932   7.650
 7078POPC   NC335723  27.607   2.779   9.450
 7078POPC   PO435724  27.614   2.727   9.150
 7078POPC   GL135725  27.589   2.807   8.850
 7078POPC   GL235726  27.441   2.831   8.850
 7078POPC   C1A35727  27.550   2.755   8.550
 7078POPC   D2A35728  27.584   2.723   8.250
 7078POPC   C3A35729  27.559   2.748   7.950
 7078POPC   C4A35730  27.612   2.815   7.650
 7078POPC   C1B35731  27.390   2.890   8.550
 7078POPC   C2B35732  27.401   2.913   8.250
 7078POPC   C3B35733  27.365   2.842   7.950
 7078POPC   C4B35734  27.355   2.841   7.650
 7079POPC   NC335735   1.988  23.727   9.450
 7079POPC   PO435736   2.033  23.671   9.150
 7079POPC   GL135737   1.984  23.722   8.850
 7079POPC   GL235738   1.909  23.689   8.850
 7079POPC   C1A35739   1.952  23.703   8.550
 7079POPC   D2A35740   1.996  23.745   8.250
 7079POPC   C3A35741   2.007  23.715   7.950
 7079POPC   C4A35742   1.948  23.731   7.650
 7079POPC   C1B35743   1.692  23.737   8.550
 7079POPC   C2B35744   1.780  23.709   8.250
 7079POPC   C3B35745   1.717  23.743   7.950
 7079POPC   C4B35746   1.700  23.760   7.650
 7080POPC   NC335747  15.159  28.341   9.450
 7080POPC   PO435748  15.187  28.346   9.150
 7080POPC   GL135749  15.130  28.386   8.850
 7080POPC   GL235750  15.290  28.418   8.850
 7080POPC   C1A35751  15.227  28.320   8.550
 7080POPC   D2A35752  15.202  28.346   8.250
 7080POPC   C3A35753  15.214  28.349   7.950
 7080POPC   C4A35754  15.181  28.379   7.650
 7080POPC   C1B35755  15.362  28.576   8.550
 7080POPC   C2B35756  15.381  28.555   8.250
 7080POPC   C3B35757  15.311  28.585   7.950
 7080POPC   C4B35758  15.373  28.534   7.650
 7081POPC   NC335759  10.557  26.865   9.450
 7081POPC   PO435760  10.495  26.781   9.150
 7081POPC   GL135761  10.501  26.856   8.850
 7081POPC   GL235762  10.652  26.849   8.850
 7081POPC   C1A35763  10.565  26.847   8.550
 7081POPC   D2A35764  10.555  26.855   8.250
 7081POPC   C3A35765  10.532  26.794   7.950
 7081POPC   C4A35766  10.558  26.848   7.650
 7081POPC   C1B35767  10.739  26.981   8.550
 7081POPC   C2B35768  10.700  26.938   8.250
 7081POPC   C3B35769  10.750  26.976   7.950
 7081POPC   C4B35770  10.672  26.989   7.650
 7082POPC   NC335771  43.929   5.863   9.450
 7082POPC   PO435772  43.894   5.913   9.150
 7082POPC   GL135773  43.859   5.836   8.850
 7082POPC   GL235774  43.986   5.987   8.850
 7082POPC   C1A35775  43.838   5.841   8.550
 7082POPC   D2A35776  43.925   5.839   8.250
 7082POPC   C3A35777  43.865   5.908   7.950
 7082POPC   C4A35778  43.876   5.892   7.650
 7082POPC   C1B35779  44.088   6.058   8.550
 7082POPC   C2B35780  44.048   6.023   8.250
 7082POPC   C3B35781  44.048   6.084   7.950
 7082POPC   C4B35782  44.102   6.069   7.650
 7083POPC   NC335783  16.773  15.916   9.450
 7083POPC   PO435784  16.747  15.925   9.150
 7083POPC   GL135785  16.768  15.938   8.850
 7083POPC   GL235786  16.853  15.913   8.850
 7083POPC   C1A35787  16.732  15.957   8.550
 7083POPC   D2A35788  16.700  15.959   8.250
 7083POPC   C3A35789  16.712  15.920   7.950
 7083POPC   C4A35790  16.716  15.968   7.650
 7083POPC   C1B35791  16.980  15.943   8.550
 7083POPC   C2B35792  17.007  15.898   8.250
 7083POPC   C3B35793  16.995  15.911   7.950
 7083POPC   C4B35794  16.978  15.942   7.650
 7084POPC   NC335795  11.261   8.995   9.450
 7084POPC   PO435796  11.297   8.928   9.150
 7084POPC   GL135797  11.340   8.952   8.850
 7084POPC   GL235798  11.129   8.937   8.850
 7084POPC   C1A35799  11.339   8.966   8.550
 7084POPC   D2A35800  11.324   8.983   8.250
 7084POPC   C3A35801  11.281   9.020   7.950
 7084POPC   C4A35802  11.257   8.948   7.650
 7084POPC   C1B35803  11.063   8.979   8.550
 7084POPC   C2B35804  11.059   8.963   8.250
 7084POPC   C3B35805  11.013   8.952   7.950
 7084POPC   C4B35806  11.062   8.944   7.650
 7085POPC   NC335807  34.602  20.575   9.450
 7085POPC   PO435808  34.573  20.653   9.150
 7085POPC   GL135809  34.621  20.582   8.850
 7085POPC   GL235810  34.626  20.498   8.850
 7085POPC   C1A35811  34.569  20.599   8.550
 7085POPC   D2A35812  34.545  20.606   8.250
 7085POPC   C3A35813  34.536  20.610   7.950
 7085POPC   C4A35814  34.540  20.621   7.650
 7085POPC   C1B35815  34.649  20.342   8.550
 7085POPC   C2B35816  34.584  20.389   8.250
 7085POPC   C3B35817  34.643  20.321   7.950
 7085POPC   C4B35818  34.614  20.360   7.650
 7086POPC   NC335819  15.957  26.034   9.450
 7086POPC   PO435820  15.990  26.071   9.150
 7086POPC   GL135821  16.004  26.076   8.850
 7086POPC   GL235822  15.835  26.145   8.850
 7086POPC   C1A35823  15.984  26.064   8.550
 7086POPC   D2A35824  15.986  26.025   8.250
 7086POPC   C3A35825  15.957  25.995   7.950
 7086POPC   C4A35826  15.957  26.052   7.650
 7086POPC   C1B35827  15.839  26.203   8.550
 7086POPC   C2B35828  15.852  26.192   8.250
 7086POPC   C3B35829  15.772  26.271   7.950
 7086POPC   C4B35830  15.845  26.211   7.650
 7087POPC   NC335831  39.217  36.899   9.450
 7087POPC   PO435832  39.271  36.953   9.150
 7087POPC   GL135833  39.181  36.912   8.850
 7087POPC   GL235834  39.274  36.813   8.850
 7087POPC   C1A35835  39.213  36.857   8.550
 7087POPC   D2A35836  39.247  36.924   8.250
 7087POPC   C3A35837  39.259  36.863   7.950
 7087POPC   C4A35838  39.279  36.885   7.650
 7087POPC   C1B35839  39.285  36.677   8.550
 7087POPC   C2B35840  39.281  36.670   8.250
 7087POPC   C3B35841  39.349  36.689   7.950
 7087POPC   C4B35842  39.272  36.716   7.650
 7088POPC   NC335843   8.157  26.798   9.450
 7088POPC   PO435844   8.164  26.811   9.150
 7088POPC   GL135845   8.220  26.781   8.850
 7088POPC   GL235846   8.275  26.718   8.850
 7088POPC   C1A35847   8.221  26.790   8.550
 7088POPC   D2A35848   8.162  26.777   8.250
 7088POPC   C3A35849   8.153  26.826   7.950
 7088POPC   C4A35850   8.217  26.801   7.650
 7088POPC   C1B35851   8.392  26.665   8.550
 7088POPC   C2B35852   8.443  26.743   8.250
 7088POPC   C3B35853   8.431  26.709   7.950
 7088POPC   C4B35854   8.391  26.701   7.650
 7089POPC   NC335855   4.283  10.567   9.450
 7089POPC   PO435856   4.271  10.496   9.150
 7089POPC   GL135857   4.334  10.543   8.850
 7089POPC   GL235858   4.381  10.433   8.850
 7089POPC   C1A35859   4.321  10.502   8.550
 7089POPC   D2A35860   4.291  10.531   8.250
 7089POPC   C3A35861   4.276  10.492   7.950
 7089POPC   C4A35862   4.353  10.478   7.650
 7089POPC   C1B35863   4.393  10.299   8.550
 7089POPC   C2B35864   4.438  10.322   8.250
 7089POPC   C3B35865   4.397  10.272   7.950
 7089POPC   C4B35866   4.408  10.241   7.650
 7090POPC   NC335867   6.686  42.304   9.450
 7090POPC   PO435868   6.646  42.292   9.150
 7090POPC   GL135869   6.653  42.328   8.850
 7090POPC   GL235870   6.631  42.238   8.850
 7090POPC   C1A35871   6.601  42.336   8.550
 7090POPC   D2A35872   6.616  42.288   8.250
 7090POPC   C3A35873   6.690  42.377   7.950
 7090POPC   C4A35874   6.606  42.346   7.650
 7090POPC   C1B35875   6.674  42.126   8.550
 7090POPC   C2B35876   6.661  42.039   8.250
 7090POPC   C3B35877   6.657  42.101   7.950
 7090POPC   C4B35878   6.617  42.049   7.650
 7091POPC   NC335879  29.147  34.611   9.450
 7091POPC   PO435880  29.192  34.567   9.150
 7091POPC   GL135881  29.121  34.572   8.850
 7091POPC   GL235882  29.049  34.492   8.850
 7091POPC   C1A35883  29.133  34.602   8.550
 7091POPC   D2A35884  29.153  34.597   8.250
 7091POPC   C3A35885  29.191  34.598   7.950
 7091POPC   C4A35886  29.135  34.608   7.650
 7091POPC   C1B35887  29.032  34.374   8.550
 7091POPC   C2B35888  29.037  34.336   8.250
 7091POPC   C3B35889  28.998  34.319   7.950
 7091POPC   C4B35890  29.053  34.311   7.650
 7092POPC   NC335891   3.589  42.328   9.450
 7092POPC   PO435892   3.523  42.361   9.150
 7092POPC   GL135893   3.585  42.351   8.850
 7092POPC   GL235894   3.464  42.260   8.850
 7092POPC   C1A35895   3.502  42.335   8.550
 7092POPC   D2A35896   3.548  42.381   8.250
 7092POPC   C3A35897   3.564  42.371   7.950
 7092POPC   C4A35898   3.511  42.311   7.650
 7092POPC   C1B35899   3.384  42.098   8.550
 7092POPC   C2B35900   3.367  42.079   8.250
 7092POPC   C3B35901   3.443  42.092   7.950
 7092POPC   C4B35902   3.406  42.121   7.650
 7093POPC   NC335903  43.897  43.857   9.450
 7093POPC   PO435904  43.884  43.861   9.150
 7093POPC   GL135905  43.934  43.901   8.850
 7093POPC   GL235906  44.009  43.820   8.850
 7093POPC   C1A35907  43.911  43.882   8.550
 7093POPC   D2A35908  43.846  43.863   8.250
 7093POPC   C3A35909  43.852  43.861   7.950
 7093POPC   C4A35910  43.850  43.897   7.650
 7093POPC   C1B35911  44.110  43.742   8.550
 7093POPC   C2B35912  44.054  43.751   8.250
 7093POPC   C3B35913  44.087  43.684   7.950
 7093POPC   C4B35914  44.123  43.772   7.650
 7094POPC   NC335915   3.578  32.209   9.450
 7094POPC   PO435916   3.585  32.239   9.150
 7094POPC   GL135917   3.539  32.207   8.850
 7094POPC   GL235918   3.594  32.372   8.850
 7094POPC   C1A35919   3.497  32.251   8.550
 7094POPC   D2A35920   3.531  32.202   8.250
 7094POPC   C3A35921   3.578  32.267   7.950
 7094POPC   C4A35922   3.502  32.250   7.650
 7094POPC   C1B35923   3.721  32.426   8.550
 7094POPC   C2B35924   3.727  32.407   8.250
 7094POPC   C3B35925   3.688  32.447   7.950
 7094POPC   C4B35926   3.655  32.404   7.650
 7095POPC   NC335927   6.655  19.840   9.450
 7095POPC   PO435928   6.614  19.856   9.150
 7095POPC   GL135929   6.670  19.883   8.850
 7095POPC   GL235930   6.543  19.677   8.850
 7095POPC   C1A35931   6.624  19.819   8.550
 7095POPC   D2A35932   6.640  19.863   8.250
 7095POPC   C3A35933   6.615  19.849   7.950
 7095POPC   C4A35934   6.683  19.786   7.650
 7095POPC   C1B35935   6.480  19.582   8.550
 7095POPC   C2B35936   6.524  19.639   8.250
 7095POPC   C3B35937   6.519  19.583   7.950
 7095POPC   C4B35938   6.504  19.603   7.650
 7096POPC   NC335939  40.045  23.698   9.450
 7096POPC   PO435940  40.009  23.684   9.150
 7096POPC   GL135941  39.977  23.709   8.850
 7096POPC   GL235942  40.129  23.719   8.850
 7096POPC   C1A35943  39.961  23.741   8.550
 7096POPC   D2A35944  40.018  23.732   8.250
 7096POPC   C3A35945  40.056  23.763   7.950
 7096POPC   C4A35946  40.019  23.720   7.650
 7096POPC   C1B35947  40.254  23.677   8.550
 7096POPC   C2B35948  40.262  23.675   8.250
 7096POPC   C3B35949  40.228  23.696   7.950
 7096POPC   C4B35950  40.225  23.754   7.650
 7097POPC   NC335951  29.133  26.843   9.450
 7097POPC   PO435952  29.096  26.836   9.150
 7097POPC   GL135953  29.101  26.775   8.850
 7097POPC   GL235954  29.040  26.703   8.850
 7097POPC   C1A35955  29.139  26.816   8.550
 7097POPC   D2A35956  29.192  26.801   8.250
 7097POPC   C3A35957  29.154  26.813   7.950
 7097POPC   C4A35958  29.162  26.770   7.650
 7097POPC   C1B35959  28.933  26.605   8.550
 7097POPC   C2B35960  29.006  26.618   8.250
 7097POPC   C3B35961  29.026  26.614   7.950
 7097POPC   C4B35962  28.970  26.596   7.650
 7098POPC   NC335963  25.299  24.465   9.450
 7098POPC   PO435964  25.292  24.467   9.150
 7098POPC   GL135965  25.252  24.492   8.850
 7098POPC   GL235966  25.168  24.596   8.850
 7098POPC   C1A35967  25.230  24.512   8.550
 7098POPC   D2A35968  25.307  24.474   8.250
 7098POPC   C3A35969  25.307  24.532   7.950
 7098POPC   C4A35970  25.259  24.483   7.650
 7098POPC   C1B35971  25.110  24.702   8.550
 7098POPC   C2B35972  25.139  24.641   8.250
 7098POPC   C3B35973  25.098  24.727   7.950
 7098POPC   C4B35974  25.096  24.637   7.650
 7099POPC   NC335975  19.081  12.868   9.450
 7099POPC   PO435976  19.099  12.899   9.150
 7099POPC   GL135977  19.086  12.808   8.850
 7099POPC   GL235978  18.923  12.790   8.850
 7099POPC   C1A35979  19.069  12.811   8.550
 7099POPC   D2A35980  19.028  12.805   8.250
 7099POPC   C3A35981  19.043  12.842   7.950
 7099POPC   C4A35982  19.071  12.872   7.650
 7099POPC   C1B35983  18.827  12.706   8.550
 7099POPC   C2B35984  18.809  12.775   8.250
 7099POPC   C3B35985  18.814  12.760   7.950
 7099POPC   C4B35986  18.856  12.706   7.650
 7100POPC   NC335987   2.789  10.516   9.450
 7100POPC   PO435988   2.815  10.558   9.150
 7100POPC   GL135989   2.728  10.535   8.850
 7100POPC   GL235990   2.892  10.438   8.850
 7100POPC   C1A35991   2.748  10.490   8.550
 7100POPC   D2A35992   2.730  10.480   8.250
 7100POPC   C3A35993   2.771  10.542   7.950
 7100POPC   C4A35994   2.751  10.515   7.650
 7100POPC   C1B35995   3.021  10.388   8.550
 7100POPC   C2B35996   2.958  10.446   8.250
 7100POPC   C3B35997   2.991  10.388   7.950
 7100POPC   C4B35998   3.013  10.386   7.650
 7101POPC   NC335999  22.128  29.117   9.450
 7101POPC   PO436000  22.163  29.109   9.150
 7101POPC   GL136001  22.132  29.140   8.850
 7101POPC   GL236002  22.172  29.249   8.850
 7101POPC   C1A36003  22.190  29.141   8.550
 7101POPC   D2A36004  22.122  29.173   8.250
 7101POPC   C3A36005  22.209  29.183   7.950
 7101POPC   C4A36006  22.183  29.194   7.650
 7101POPC   C1B36007  22.150  29.428   8.550
 7101POPC   C2B36008  22.130  29.417   8.250
 7101POPC   C3B36009  22.165  29.358   7.950
 7101POPC   C4B36010  22.069  29.388   7.650
 7102POPC   NC336011  43.151   9.728   9.450
 7102POPC   PO436012  43.061   9.754   9.150
 7102POPC   GL136013  43.149   9.701   8.850
 7102POPC   GL236014  43.249   9.731   8.850
 7102POPC   C1A36015  43.108   9.794   8.550
 7102POPC   D2A36016  43.102   9.726   8.250
 7102POPC   C3A36017  43.147   9.707   7.950
 7102POPC   C4A36018  43.135   9.743   7.650
 7102POPC   C1B36019  43.399   9.775   8.550
 7102POPC   C2B36020  43.359   9.697   8.250
 7102POPC   C3B36021  43.396   9.704   7.950
 7102POPC   C4B36022  43.408   9.775   7.650
 7103POPC   NC336023  44.642  25.998   9.450
 7103POPC   PO436024  44.625  26.078   9.150
 7103POPC   GL136025  44.673  26.027   8.850
 7103POPC   GL236026  44.649  25.895   8.850
 7103POPC   C1A36027  44.688  26.037   8.550
 7103POPC   D2A36028  44.639  26.072   8.250
 7103POPC   C3A36029  44.683  26.019   7.950
 7103POPC   C4A36030  44.678  26.069   7.650
 7103POPC   C1B36031  44.591  25.787   8.550
 7103POPC   C2B36032  44.639  25.819   8.250
 7103POPC   C3B36033  44.595  25.758   7.950
 7103POPC   C4B36034  44.645  25.751   7.650
 7104POPC   NC336035  39.279  24.521   9.450
 7104POPC   PO436036  39.236  24.448   9.150
 7104POPC   GL136037  39.225  24.466   8.850
 7104POPC   GL236038  39.153  24.472   8.850
 7104POPC   C1A36039  39.272  24.539   8.550
 7104POPC   D2A36040  39.206  24.484   8.250
 7104POPC   C3A36041  39.235  24.483   7.950
 7104POPC   C4A36042  39.268  24.471   7.650
 7104POPC   C1B36043  39.013  24.504   8.550
 7104POPC   C2B36044  39.030  24.465   8.250
 7104POPC   C3B36045  38.986  24.562   7.950
 7104POPC   C4B36046  39.003  24.560   7.650
 7105POPC   NC336047  12.831  22.134   9.450
 7105POPC   PO436048  12.866  22.148   9.150
 7105POPC   GL136049  12.857  22.200   8.850
 7105POPC   GL236050  12.721  22.169   8.850
 7105POPC   C1A36051  12.840  22.119   8.550
 7105POPC   D2A36052  12.851  22.191   8.250
 7105POPC   C3A36053  12.819  22.114   7.950
 7105POPC   C4A36054  12.874  22.143   7.650
 7105POPC   C1B36055  12.601  22.144   8.550
 7105POPC   C2B36056  12.596  22.119   8.250
 7105POPC   C3B36057  12.611  22.177   7.950
 7105POPC   C4B36058  12.585  22.132   7.650
 7106POPC   NC336059  21.405   3.498   9.450
 7106POPC   PO436060  21.353   3.535   9.150
 7106POPC   GL136061  21.365   3.589   8.850
 7106POPC   GL236062  21.412   3.463   8.850
 7106POPC   C1A36063  21.412   3.560   8.550
 7106POPC   D2A36064  21.420   3.530   8.250
 7106POPC   C3A36065  21.404   3.522   7.950
 7106POPC   C4A36066  21.355   3.536   7.650
 7106POPC   C1B36067  21.543   3.343   8.550
 7106POPC   C2B36068  21.479   3.299   8.250
 7106POPC   C3B36069  21.497   3.334   7.950
 7106POPC   C4B36070  21.513   3.295   7.650
 7107POPC   NC336071  11.263  40.000   9.450
 7107POPC   PO436072  11.287  39.978   9.150
 7107POPC   GL136073  11.348  40.048   8.850
 7107POPC   GL236074  11.387  40.039   8.850
 7107POPC   C1A36075  11.336  39.979   8.550
 7107POPC   D2A36076  11.304  40.032   8.250
 7107POPC   C3A36077  11.292  39.997   7.950
 7107POPC   C4A36078  11.334  40.005   7.650
 7107POPC   C1B36079  11.539  40.168   8.550
 7107POPC   C2B36080  11.469  40.169   8.250
 7107POPC   C3B36081  11.482  40.161   7.950
 7107POPC   C4B36082  11.537  40.147   7.650
 7108POPC   NC336083  29.892  37.724   9.450
 7108POPC   PO436084  29.910  37.710   9.150
 7108POPC   GL136085  29.911  37.645   8.850
 7108POPC   GL236086  29.774  37.723   8.850
 7108POPC   C1A36087  29.913  37.702   8.550
 7108POPC   D2A36088  29.881  37.657   8.250
 7108POPC   C3A36089  29.922  37.644   7.950
 7108POPC   C4A36090  29.925  37.725   7.650
 7108POPC   C1B36091  29.722  37.770   8.550
 7108POPC   C2B36092  29.634  37.730   8.250
 7108POPC   C3B36093  29.663  37.779   7.950
 7108POPC   C4B36094  29.721  37.785   7.650
 7109POPC   NC336095   4.332  33.752   9.450
 7109POPC   PO436096   4.357  33.804   9.150
 7109POPC   GL136097   4.268  33.796   8.850
 7109POPC   GL236098   4.248  33.863   8.850
 7109POPC   C1A36099   4.302  33.824   8.550
 7109POPC   D2A36100   4.306  33.822   8.250
 7109POPC   C3A36101   4.268  33.794   7.950
 7109POPC   C4A36102   4.351  33.847   7.650
 7109POPC   C1B36103   4.179  34.019   8.550
 7109POPC   C2B36104   4.170  33.974   8.250
 7109POPC   C3B36105   4.172  33.935   7.950
 7109POPC   C4B36106   4.194  33.987   7.650
 7110POPC   NC336107  37.721  31.507   9.450
 7110POPC   PO436108  37.635  31.522   9.150
 7110POPC   GL136109  37.634  31.503   8.850
 7110POPC   GL236110  37.655  31.375   8.850
 7110POPC   C1A36111  37.708  31.458   8.550
 7110POPC   D2A36112  37.725  31.498   8.250
 7110POPC   C3A36113  37.696  31.463   7.950
 7110POPC   C4A36114  37.718  31.507   7.650
 7110POPC   C1B36115  37.579  31.233   8.550
 7110POPC   C2B36116  37.584  31.219   8.250
 7110POPC   C3B36117  37.539  31.255   7.950
 7110POPC   C4B36118  37.584  31.233   7.650
 7111POPC   NC336119  35.311  14.444   9.450
 7111POPC   PO436120  35.341  14.416   9.150
 7111POPC   GL136121  35.313  14.357   8.850
 7111POPC   GL236122  35.443  14.346   8.850
 7111POPC   C1A36123  35.357  14.416   8.550
 7111POPC   D2A36124  35.393  14.372   8.250
 7111POPC   C3A36125  35.322  14.428   7.950
 7111POPC   C4A36126  35.370  14.385   7.650
 7111POPC   C1B36127  35.514  14.256   8.550
 7111POPC   C2B36128  35.508  14.219   8.250
 7111POPC   C3B36129  35.528  14.247   7.950
 7111POPC   C4B36130  35.544  14.246   7.650
 7112POPC   NC336131  33.849  38.449   9.450
 7112POPC   PO436132  33.770  38.457   9.150
 7112POPC   GL136133  33.800  38.421   8.850
 7112POPC   GL236134  33.898  38.408   8.850
 7112POPC   C1A36135  33.790  38.434   8.550
 7112POPC   D2A36136  33.796  38.498   8.250
 7112POPC   C3A36137  33.847  38.447   7.950
 7112POPC   C4A36138  33.822  38.476   7.650
 7112POPC   C1B36139  34.027  38.380   8.550
 7112POPC   C2B36140  34.026  38.421   8.250
 7112POPC   C3B36141  34.009  38.400   7.950
 7112POPC   C4B36142  34.021  38.417   7.650
 7113POPC   NC336143  40.799  40.000   9.450
 7113POPC   PO436144  40.796  40.011   9.150
 7113POPC   GL136145  40.797  39.982   8.850
 7113POPC   GL236146  40.795  40.144   8.850
 7113POPC   C1A36147  40.754  40.039   8.550
 7113POPC   D2A36148  40.768  39.979   8.250
 7113POPC   C3A36149  40.798  39.964   7.950
 7113POPC   C4A36150  40.813  39.964   7.650
 7113POPC   C1B36151  40.868  40.185   8.550
 7113POPC   C2B36152  40.859  40.272   8.250
 7113POPC   C3B36153  40.898  40.259   7.950
 7113POPC   C4B36154  40.851  40.218   7.650
 7114POPC   NC336155  26.067  12.040   9.450
 7114POPC   PO436156  26.036  12.102   9.150
 7114POPC   GL136157  26.039  12.113   8.850
 7114POPC   GL236158  26.133  12.061   8.850
 7114POPC   C1A36159  26.051  12.114   8.550
 7114POPC   D2A36160  26.037  12.109   8.250
 7114POPC   C3A36161  26.034  12.101   7.950
 7114POPC   C4A36162  26.071  12.031   7.650
 7114POPC   C1B36163  26.294  12.114   8.550
 7114POPC   C2B36164  26.260  12.152   8.250
 7114POPC   C3B36165  26.242  12.183   7.950
 7114POPC   C4B36166  26.270  12.097   7.650
 7115POPC   NC336167  10.477  44.663   9.450
 7115POPC   PO436168  10.574  44.671   9.150
 7115POPC   GL136169  10.483  44.698   8.850
 7115POPC   GL236170  10.507  44.747   8.850
 7115POPC   C1A36171  10.513  44.700   8.550
 7115POPC   D2A36172  10.558  44.703   8.250
 7115POPC   C3A36173  10.528  44.642   7.950
 7115POPC   C4A36174  10.480  44.703   7.650
 7115POPC   C1B36175  10.523  44.920   8.550
 7115POPC   C2B36176  10.578  44.922   8.250
 7115POPC   C3B36177  10.544  44.922   7.950
 7115POPC   C4B36178  10.596  44.953   7.650
 7116POPC   NC336179  33.842  22.209   9.450
 7116POPC   PO436180  33.770  22.205   9.150
 7116POPC   GL136181  33.754  22.195   8.850
 7116POPC   GL236182  33.820  21.998   8.850
 7116POPC   C1A36183  33.768  22.114   8.550
 7116POPC   D2A36184  33.756  22.122   8.250
 7116POPC   C3A36185  33.808  22.200   7.950
 7116POPC   C4A36186  33.847  22.167   7.650
 7116POPC   C1B36187  33.718  21.912   8.550
 7116POPC   C2B36188  33.744  21.957   8.250
 7116POPC   C3B36189  33.761  21.955   7.950
 7116POPC   C4B36190  33.726  21.886   7.650
 7117POPC   NC336191   6.692   3.558   9.450
 7117POPC   PO436192   6.679   3.497   9.150
 7117POPC   GL136193   6.607   3.519   8.850
 7117POPC   GL236194   6.810   3.534   8.850
 7117POPC   C1A36195   6.656   3.589   8.550
 7117POPC   D2A36196   6.672   3.590   8.250
 7117POPC   C3A36197   6.657   3.503   7.950
 7117POPC   C4A36198   6.655   3.522   7.650
 7117POPC   C1B36199   6.882   3.616   8.550
 7117POPC   C2B36200   6.919   3.551   8.250
 7117POPC   C3B36201   6.936   3.609   7.950
 7117POPC   C4B36202   6.889   3.634   7.650
 7118POPC   NC336203   5.058  43.073   9.450
 7118POPC   PO436204   5.109  43.076   9.150
 7118POPC   GL136205   5.046  43.146   8.850
 7118POPC   GL236206   4.971  43.110   8.850
 7118POPC   C1A36207   5.047  43.119   8.550
 7118POPC   D2A36208   5.109  43.083   8.250
 7118POPC   C3A36209   5.053  43.093   7.950
 7118POPC   C4A36210   5.075  43.130   7.650
 7118POPC   C1B36211   4.879  43.085   8.550
 7118POPC   C2B36212   4.892  43.068   8.250
 7118POPC   C3B36213   4.804  43.024   7.950
 7118POPC   C4B36214   4.799  43.085   7.650
 7119POPC   NC336215  34.613  22.123   9.450
 7119POPC   PO436216  34.564  22.207   9.150
 7119POPC   GL136217  34.603  22.153   8.850
 7119POPC   GL236218  34.707  22.119   8.850
 7119POPC   C1A36219  34.555  22.175   8.550
 7119POPC   D2A36220  34.541  22.158   8.250
 7119POPC   C3A36221  34.528  22.162   7.950
 7119POPC   C4A36222  34.550  22.123   7.650
 7119POPC   C1B36223  34.861  22.193   8.550
 7119POPC   C2B36224  34.836  22.149   8.250
 7119POPC   C3B36225  34.807  22.126   7.950
 7119POPC   C4B36226  34.812  22.119   7.650
 7120POPC   NC336227  17.489  31.446   9.450
 7120POPC   PO436228  17.482  31.487   9.150
 7120POPC   GL136229  17.548  31.424   8.850
 7120POPC   GL236230  17.403  31.555   8.850
 7120POPC   C1A36231  17.459  31.430   8.550
 7120POPC   D2A36232  17.533  31.492   8.250
 7120POPC   C3A36233  17.547  31.491   7.950
 7120POPC   C4A36234  17.523  31.440   7.650
 7120POPC   C1B36235  17.326  31.553   8.550
 7120POPC   C2B36236  17.322  31.600   8.250
 7120POPC   C3B36237  17.318  31.620   7.950
 7120POPC   C4B36238  17.256  31.600   7.650
 7121POPC   NC336239  26.045  26.070   9.450
 7121POPC   PO436240  26.066  26.031   9.150
 7121POPC   GL136241  26.012  26.017   8.850
 7121POPC   GL236242  26.054  25.874   8.850
 7121POPC   C1A36243  26.077  26.027   8.550
 7121POPC   D2A36244  26.033  26.072   8.250
 7121POPC   C3A36245  26.004  26.000   7.950
 7121POPC   C4A36246  26.036  26.020   7.650
 7121POPC   C1B36247  26.066  25.785   8.550
 7121POPC   C2B36248  26.057  25.842   8.250
 7121POPC   C3B36249  26.119  25.780   7.950
 7121POPC   C4B36250  26.068  25.821   7.650
 7122POPC   NC336251  43.135  26.034   9.450
 7122POPC   PO436252  43.114  26.066   9.150
 7122POPC   GL136253  43.156  26.013   8.850
 7122POPC   GL236254  42.978  25.927   8.850
 7122POPC   C1A36255  43.120  26.028   8.550
 7122POPC   D2A36256  43.129  26.055   8.250
 7122POPC   C3A36257  43.111  26.082   7.950
 7122POPC   C4A36258  43.075  26.072   7.650
 7122POPC   C1B36259  42.874  25.873   8.550
 7122POPC   C2B36260  42.861  25.923   8.250
 7122POPC   C3B36261  42.909  25.896   7.950
 7122POPC   C4B36262  42.894  25.878   7.650
 7123POPC   NC336263  34.574  17.498   9.450
 7123POPC   PO436264  34.528  17.486   9.150
 7123POPC   GL136265  34.542  17.508   8.850
 7123POPC   GL236266  34.468  17.550   8.850
 7123POPC   C1A36267  34.563  17.535   8.550
 7123POPC   D2A36268  34.564  17.499   8.250
 7123POPC   C3A36269  34.621  17.499   7.950
 7123POPC   C4A36270  34.603  17.549   7.650
 7123POPC   C1B36271  34.363  17.655   8.550
 7123POPC   C2B36272  34.388  17.728   8.250
 7123POPC   C3B36273  34.377  17.686   7.950
 7123POPC   C4B36274  34.381  17.711   7.650
 7124POPC   NC336275  28.331  31.512   9.450
 7124POPC   PO436276  28.411  31.512   9.150
 7124POPC   GL136277  28.412  31.442   8.850
 7124POPC   GL236278  28.312  31.428   8.850
 7124POPC   C1A36279  28.411  31.518   8.550
 7124POPC   D2A36280  28.362  31.512   8.250
 7124POPC   C3A36281  28.376  31.513   7.950
 7124POPC   C4A36282  28.379  31.432   7.650
 7124POPC   C1B36283  28.235  31.239   8.550
 7124POPC   C2B36284  28.192  31.245   8.250
 7124POPC   C3B36285  28.155  31.259   7.950
 7124POPC   C4B36286  28.237  31.258   7.650
 7125POPC   NC336287  29.184  41.540   9.450
 7125POPC   PO436288  29.124  41.548   9.150
 7125POPC   GL136289  29.164  41.574   8.850
 7125POPC   GL236290  29.178  41.700   8.850
 7125POPC   C1A36291  29.170  41.604   8.550
 7125POPC   D2A36292  29.106  41.515   8.250
 7125POPC   C3A36293  29.176  41.534   7.950
 7125POPC   C4A36294  29.112  41.515   7.650
 7125POPC   C1B36295  29.243  41.789   8.550
 7125POPC   C2B36296  29.184  41.749   8.250
 7125POPC   C3B36297  29.193  41.831   7.950
 7125POPC   C4B36298  29.210  41.842   7.650
 7126POPC   NC336299  32.200  19.810   9.450
 7126POPC   PO436300  32.202  19.872   9.150
 7126POPC   GL136301  32.295  19.829   8.850
 7126POPC   GL236302  32.189  19.999   8.850
 7126POPC   C1A36303  32.239  19.820   8.550
 7126POPC   D2A36304  32.274  19.875   8.250
 7126POPC   C3A36305  32.255  19.853   7.950
 7126POPC   C4A36306  32.260  19.814   7.650
 7126POPC   C1B36307  32.232  20.079   8.550
 7126POPC   C2B36308  32.268  20.078   8.250
 7126POPC   C3B36309  32.244  20.068   7.950
 7126POPC   C4B36310  32.197  20.075   7.650
 7127POPC   NC336311  23.714  15.139   9.450
 7127POPC   PO436312  23.757  15.145   9.150
 7127POPC   GL136313  23.725  15.155   8.850
 7127POPC   GL236314  23.746  15.097   8.850
 7127POPC   C1A36315  23.686  15.191   8.550
 7127POPC   D2A36316  23.719  15.170   8.250
 7127POPC   C3A36317  23.758  15.192   7.950
 7127POPC   C4A36318  23.702  15.192   7.650
 7127POPC   C1B36319  23.857  14.950   8.550
 7127POPC   C2B36320  23.830  14.972   8.250
 7127POPC   C3B36321  23.917  15.010   7.950
 7127POPC   C4B36322  23.908  14.999   7.650
 7128POPC   NC336323   8.991  29.168   9.450
 7128POPC   PO436324   9.001  29.123   9.150
 7128POPC   GL136325   8.947  29.097   8.850
 7128POPC   GL236326   8.886  29.038   8.850
 7128POPC   C1A36327   8.947  29.165   8.550
 7128POPC   D2A36328   9.019  29.182   8.250
 7128POPC   C3A36329   8.924  29.164   7.950
 7128POPC   C4A36330   8.930  29.129   7.650
 7128POPC   C1B36331   8.860  28.864   8.550
 7128POPC   C2B36332   8.920  28.880   8.250
 7128POPC   C3B36333   8.865  28.921   7.950
 7128POPC   C4B36334   8.925  28.861   7.650
 7129POPC   NC336335  32.999  24.524   9.450
 7129POPC   PO436336  32.975  24.539   9.150
 7129POPC   GL136337  32.987  24.492   8.850
 7129POPC   GL236338  32.953  24.618   8.850
 7129POPC   C1A36339  32.995  24.533   8.550
 7129POPC   D2A36340  33.040  24.507   8.250
 7129POPC   C3A36341  33.025  24.485   7.950
 7129POPC   C4A36342  33.066  24.488   7.650
 7129POPC   C1B36343  32.904  24.723   8.550
 7129POPC   C2B36344  32.948  24.724   8.250
 7129POPC   C3B36345  32.909  24.739   7.950
 7129POPC   C4B36346  32.899  24.675   7.650
 7130POPC   NC336347  11.303  42.352   9.450
 7130POPC   PO436348  11.331  42.323   9.150
 7130POPC   GL136349  11.264  42.337   8.850
 7130POPC   GL236350  11.372  42.434   8.850
 7130POPC   C1A36351  11.253  42.318   8.550
 7130POPC   D2A36352  11.330  42.321   8.250
 7130POPC   C3A36353  11.321  42.378   7.950
 7130POPC   C4A36354  11.297  42.379   7.650
 7130POPC   C1B36355  11.521  42.439   8.550
 7130POPC   C2B36356  11.535  42.433   8.250
 7130POPC   C3B36357  11.544  42.421   7.950
 7130POPC   C4B36358  11.469  42.470   7.650
 7131POPC   NC336359  15.217  12.105   9.450
 7131POPC   PO436360  15.196  12.066   9.150
 7131POPC   GL136361  15.150  12.109   8.850
 7131POPC   GL236362  15.102  12.028   8.850
 7131POPC   C1A36363  15.185  12.059   8.550
 7131POPC   D2A36364  15.200  12.111   8.250
 7131POPC   C3A36365  15.208  12.120   7.950
 7131POPC   C4A36366  15.223  12.109   7.650
 7131POPC   C1B36367  15.041  11.922   8.550
 7131POPC   C2B36368  15.011  11.843   8.250
 7131POPC   C3B36369  15.010  11.927   7.950
 7131POPC   C4B36370  15.024  11.905   7.650
 7132POPC   NC336371   3.586  37.690   9.450
 7132POPC   PO436372   3.554  37.725   9.150
 7132POPC   GL136373   3.569  37.652   8.850
 7132POPC   GL236374   3.685  37.616   8.850
 7132POPC   C1A36375   3.557  37.727   8.550
 7132POPC   D2A36376   3.493  37.713   8.250
 7132POPC   C3A36377   3.586  37.710   7.950
 7132POPC   C4A36378   3.561  37.670   7.650
 7132POPC   C1B36379   3.743  37.566   8.550
 7132POPC   C2B36380   3.798  37.531   8.250
 7132POPC   C3B36381   3.738  37.548   7.950
 7132POPC   C4B36382   3.753  37.595   7.650
 7133POPC   NC336383   0.460  17.468   9.450
 7133POPC   PO436384   0.444  17.467   9.150
 7133POPC   GL136385   0.445  17.494   8.850
 7133POPC   GL236386   0.385  17.420   8.850
 7133POPC   C1A36387   0.395  17.469   8.550
 7133POPC   D2A36388   0.477  17.509   8.250
 7133POPC   C3A36389   0.402  17.492   7.950
 7133POPC   C4A36390   0.407  17.484   7.650
 7133POPC   C1B36391   0.263  17.306   8.550
 7133POPC   C2B36392   0.239  17.335   8.250
 7133POPC   C3B36393   0.283  17.328   7.950
 7133POPC   C4B36394   0.270  17.342   7.650
 7134POPC   NC336395  30.661  40.781   9.450
 7134POPC   PO436396  30.739  40.795   9.150
 7134POPC   GL136397  30.649  40.776   8.850
 7134POPC   GL236398  30.653  40.935   8.850
 7134POPC   C1A36399  30.736  40.814   8.550
 7134POPC   D2A36400  30.707  40.797   8.250
 7134POPC   C3A36401  30.675  40.773   7.950
 7134POPC   C4A36402  30.713  40.788   7.650
 7134POPC   C1B36403  30.626  41.032   8.550
 7134POPC   C2B36404  30.560  40.987   8.250
 7134POPC   C3B36405  30.545  41.036   7.950
 7134POPC   C4B36406  30.543  40.976   7.650
 7135POPC   NC336407  38.496  13.630   9.450
 7135POPC   PO436408  38.470  13.665   9.150
 7135POPC   GL136409  38.481  13.582   8.850
 7135POPC   GL236410  38.470  13.728   8.850
 7135POPC   C1A36411  38.424  13.620   8.550
 7135POPC   D2A36412  38.460  13.609   8.250
 7135POPC   C3A36413  38.476  13.654   7.950
 7135POPC   C4A36414  38.427  13.606   7.650
 7135POPC   C1B36415  38.519  13.880   8.550
 7135POPC   C2B36416  38.503  13.827   8.250
 7135POPC   C3B36417  38.502  13.861   7.950
 7135POPC   C4B36418  38.564  13.847   7.650
 7136POPC   NC336419  27.573   9.733   9.450
 7136POPC   PO436420  27.601   9.745   9.150
 7136POPC   GL136421  27.568   9.749   8.850
 7136POPC   GL236422  27.764   9.809   8.850
 7136POPC   C1A36423  27.543   9.724   8.550
 7136POPC   D2A36424  27.599   9.757   8.250
 7136POPC   C3A36425  27.632   9.768   7.950
 7136POPC   C4A36426  27.617   9.754   7.650
 7136POPC   C1B36427  27.819   9.760   8.550
 7136POPC   C2B36428  27.842   9.835   8.250
 7136POPC   C3B36429  27.884   9.829   7.950
 7136POPC   C4B36430  27.872   9.810   7.650
 7137POPC   NC336431  13.650  26.056   9.450
 7137POPC   PO436432  13.673  25.999   9.150
 7137POPC   GL136433  13.631  26.047   8.850
 7137POPC   GL236434  13.478  25.998   8.850
 7137POPC   C1A36435  13.596  26.076   8.550
 7137POPC   D2A36436  13.633  26.025   8.250
 7137POPC   C3A36437  13.674  26.051   7.950
 7137POPC   C4A36438  13.631  26.020   7.650
 7137POPC   C1B36439  13.418  25.941   8.550
 7137POPC   C2B36440  13.457  25.878   8.250
 7137POPC   C3B36441  13.438  25.938   7.950
 7137POPC   C4B36442  13.437  25.894   7.650
 7138POPC   NC336443  19.856  32.985   9.450
 7138POPC   PO436444  19.820  33.060   9.150
 7138POPC   GL136445  19.821  32.975   8.850
 7138POPC   GL236446  19.922  32.918   8.850
 7138POPC   C1A36447  19.821  33.019   8.550
 7138POPC   D2A36448  19.812  32.984   8.250
 7138POPC   C3A36449  19.883  33.051   7.950
 7138POPC   C4A36450  19.874  33.011   7.650
 7138POPC   C1B36451  20.035  32.848   8.550
 7138POPC   C2B36452  20.030  32.810   8.250
 7138POPC   C3B36453  20.050  32.816   7.950
 7138POPC   C4B36454  20.032  32.885   7.650
 7139POPC   NC336455  27.599  34.567   9.450
 7139POPC   PO436456  27.611  34.584   9.150
 7139POPC   GL136457  27.576  34.611   8.850
 7139POPC   GL236458  27.604  34.492   8.850
 7139POPC   C1A36459  27.639  34.541   8.550
 7139POPC   D2A36460  27.598  34.599   8.250
 7139POPC   C3A36461  27.573  34.564   7.950
 7139POPC   C4A36462  27.553  34.623   7.650
 7139POPC   C1B36463  27.675  34.309   8.550
 7139POPC   C2B36464  27.731  34.319   8.250
 7139POPC   C3B36465  27.703  34.314   7.950
 7139POPC   C4B36466  27.657  34.319   7.650
 7140POPC   NC336467   5.070   0.456   9.450
 7140POPC   PO436468   5.077   0.464   9.150
 7140POPC   GL136469   5.136   0.389   8.850
 7140POPC   GL236470   5.172   0.360   8.850
 7140POPC   C1A36471   5.140   0.417   8.550
 7140POPC   D2A36472   5.143   0.464   8.250
 7140POPC   C3A36473   5.130   0.424   7.950
 7140POPC   C4A36474   5.102   0.408   7.650
 7140POPC   C1B36475   5.186   0.221   8.550
 7140POPC   C2B36476   5.245   0.171   8.250
 7140POPC   C3B36477   5.181   0.171   7.950
 7140POPC   C4B36478   5.243   0.163   7.650
 7141POPC   NC336479   7.372  40.770   9.450
 7141POPC   PO436480   7.450  40.816   9.150
 7141POPC   GL136481   7.416  40.793   8.850
 7141POPC   GL236482   7.498  40.799   8.850
 7141POPC   C1A36483   7.439  40.736   8.550
 7141POPC   D2A36484   7.460  40.761   8.250
 7141POPC   C3A36485   7.458  40.764   7.950
 7141POPC   C4A36486   7.461  40.736   7.650
 7141POPC   C1B36487   7.706  40.814   8.550
 7141POPC   C2B36488   7.645  40.837   8.250
 7141POPC   C3B36489   7.669  40.832   7.950
 7141POPC   C4B36490   7.689  40.886   7.650
 7142POPC   NC336491   7.450  30.743   9.450
 7142POPC   PO436492   7.409  30.729   9.150
 7142POPC   GL136493   7.399  30.700   8.850
 7142POPC   GL236494   7.569  30.697   8.850
 7142POPC   C1A36495   7.437  30.727   8.550
 7142POPC   D2A36496   7.433  30.665   8.250
 7142POPC   C3A36497   7.400  30.707   7.950
 7142POPC   C4A36498   7.420  30.649   7.650
 7142POPC   C1B36499   7.663  30.634   8.550
 7142POPC   C2B36500   7.697  30.637   8.250
 7142POPC   C3B36501   7.622  30.642   7.950
 7142POPC   C4B36502   7.707  30.648   7.650
 7143POPC   NC336503  16.688  22.143   9.450
 7143POPC   PO436504  16.765  22.141   9.150
 7143POPC   GL136505  16.710  22.159   8.850
 7143POPC   GL236506  16.647  22.176   8.850
 7143POPC   C1A36507  16.711  22.150   8.550
 7143POPC   D2A36508  16.731  22.120   8.250
 7143POPC   C3A36509  16.732  22.130   7.950
 7143POPC   C4A36510  16.696  22.193   7.650
 7143POPC   C1B36511  16.438  22.152   8.550
 7143POPC   C2B36512  16.494  22.209   8.250
 7143POPC   C3B36513  16.513  22.146   7.950
 7143POPC   C4B36514  16.524  22.177   7.650
 7144POPC   NC336515  11.308   4.333   9.450
 7144POPC   PO436516  11.295   4.316   9.150
 7144POPC   GL136517  11.307   4.326   8.850
 7144POPC   GL236518  11.360   4.225   8.850
 7144POPC   C1A36519  11.251   4.350   8.550
 7144POPC   D2A36520  11.282   4.332   8.250
 7144POPC   C3A36521  11.333   4.316   7.950
 7144POPC   C4A36522  11.314   4.319   7.650
 7144POPC   C1B36523  11.394   4.091   8.550
 7144POPC   C2B36524  11.408   4.094   8.250
 7144POPC   C3B36525  11.423   4.040   7.950
 7144POPC   C4B36526  11.426   4.112   7.650
 7145POPC   NC336527   4.356  22.157   9.450
 7145POPC   PO436528   4.337  22.126   9.150
 7145POPC   GL136529   4.340  22.121   8.850
 7145POPC   GL236530   4.434  22.192   8.850
 7145POPC   C1A36531   4.363  22.129   8.550
 7145POPC   D2A36532   4.366  22.131   8.250
 7145POPC   C3A36533   4.345  22.195   7.950
 7145POPC   C4A36534   4.340  22.150   7.650
 7145POPC   C1B36535   4.592  22.191   8.550
 7145POPC   C2B36536   4.594  22.128   8.250
 7145POPC   C3B36537   4.534  22.182   7.950
 7145POPC   C4B36538   4.596  22.139   7.650
 7146POPC   NC336539   8.240  33.781   9.450
 7146POPC   PO436540   8.183  33.759   9.150
 7146POPC   GL136541   8.232  33.758   8.850
 7146POPC   GL236542   8.252  33.906   8.850
 7146POPC   C1A36543   8.147  33.826   8.550
 7146POPC   D2A36544   8.232  33.756   8.250
 7146POPC   C3A36545   8.161  33.783   7.950
 7146POPC   C4A36546   8.239  33.771   7.650
 7146POPC   C1B36547   8.282  34.048   8.550
 7146POPC   C2B36548   8.372  34.002   8.250
 7146POPC   C3B36549   8.302  34.044   7.950
 7146POPC   C4B36550   8.324  34.008   7.650
 7147POPC   NC336551  35.377  36.106   9.450
 7147POPC   PO436552  35.358  36.172   9.150
 7147POPC   GL136553  35.326  36.120   8.850
 7147POPC   GL236554  35.439  36.154   8.850
 7147POPC   C1A36555  35.400  36.117   8.550
 7147POPC   D2A36556  35.378  36.105   8.250
 7147POPC   C3A36557  35.368  36.109   7.950
 7147POPC   C4A36558  35.385  36.155   7.650
 7147POPC   C1B36559  35.630  36.208   8.550
 7147POPC   C2B36560  35.552  36.140   8.250
 7147POPC   C3B36561  35.631  36.145   7.950
 7147POPC   C4B36562  35.598  36.215   7.650
 7148POPC   NC336563  42.292  20.586   9.450
 7148POPC   PO436564  42.354  20.619   9.150
 7148POPC   GL136565  42.322  20.606   8.850
 7148POPC   GL236566  42.272  20.546   8.850
 7148POPC   C1A36567  42.297  20.614   8.550
 7148POPC   D2A36568  42.312  20.598   8.250
 7148POPC   C3A36569  42.330  20.617   7.950
 7148POPC   C4A36570  42.298  20.567   7.650
 7148POPC   C1B36571  42.134  20.476   8.550
 7148POPC   C2B36572  42.106  20.485   8.250
 7148POPC   C3B36573  42.149  20.430   7.950
 7148POPC   C4B36574  42.090  20.512   7.650
 7149POPC   NC336575  14.374  32.211   9.450
 7149POPC   PO436576  14.431  32.262   9.150
 7149POPC   GL136577  14.424  32.282   8.850
 7149POPC   GL236578  14.354  32.338   8.850
 7149POPC   C1A36579  14.433  32.243   8.550
 7149POPC   D2A36580  14.437  32.245   8.250
 7149POPC   C3A36581  14.424  32.276   7.950
 7149POPC   C4A36582  14.410  32.236   7.650
 7149POPC   C1B36583  14.270  32.478   8.550
 7149POPC   C2B36584  14.342  32.514   8.250
 7149POPC   C3B36585  14.308  32.486   7.950
 7149POPC   C4B36586  14.356  32.525   7.650
 7150POPC   NC336587   2.778  29.924   9.450
 7150POPC   PO436588   2.800  29.942   9.150
 7150POPC   GL136589   2.798  29.891   8.850
 7150POPC   GL236590   2.745  30.081   8.850
 7150POPC   C1A36591   2.774  29.965   8.550
 7150POPC   D2A36592   2.783  29.928   8.250
 7150POPC   C3A36593   2.778  29.945   7.950
 7150POPC   C4A36594   2.789  29.915   7.650
 7150POPC   C1B36595   2.839  30.218   8.550
 7150POPC   C2B36596   2.839  30.150   8.250
 7150POPC   C3B36597   2.826  30.173   7.950
 7150POPC   C4B36598   2.837  30.156   7.650
 7151POPC   NC336599  26.799  24.514   9.450
 7151POPC   PO436600  26.853  24.449   9.150
 7151POPC   GL136601  26.816  24.523   8.850
 7151POPC   GL236602  26.798  24.382   8.850
 7151POPC   C1A36603  26.829  24.525   8.550
 7151POPC   D2A36604  26.798  24.524   8.250
 7151POPC   C3A36605  26.803  24.529   7.950
 7151POPC   C4A36606  26.860  24.459   7.650
 7151POPC   C1B36607  26.741  24.315   8.550
 7151POPC   C2B36608  26.700  24.319   8.250
 7151POPC   C3B36609  26.713  24.235   7.950
 7151POPC   C4B36610  26.647  24.243   7.650
 7152POPC   NC336611   3.536  14.390   9.450
 7152POPC   PO436612   3.570  14.378   9.150
 7152POPC   GL136613   3.570  14.362   8.850
 7152POPC   GL236614   3.655  14.322   8.850
 7152POPC   C1A36615   3.502  14.360   8.550
 7152POPC   D2A36616   3.557  14.403   8.250
 7152POPC   C3A36617   3.562  14.413   7.950
 7152POPC   C4A36618   3.536  14.413   7.650
 7152POPC   C1B36619   3.717  14.216   8.550
 7152POPC   C2B36620   3.744  14.220   8.250
 7152POPC   C3B36621   3.723  14.238   7.950
 7152POPC   C4B36622   3.746  14.212   7.650
 7153POPC   NC336623   5.055  12.833   9.450
 7153POPC   PO436624   5.143  12.879   9.150
 7153POPC   GL136625   5.093  12.864   8.850
 7153POPC   GL236626   5.180  12.901   8.850
 7153POPC   C1A36627   5.134  12.878   8.550
 7153POPC   D2A36628   5.066  12.877   8.250
 7153POPC   C3A36629   5.045  12.834   7.950
 7153POPC   C4A36630   5.112  12.841   7.650
 7153POPC   C1B36631   5.320  12.937   8.550
 7153POPC   C2B36632   5.323  12.953   8.250
 7153POPC   C3B36633   5.359  12.905   7.950
 7153POPC   C4B36634   5.310  12.916   7.650
 7154POPC   NC336635  34.564  16.707   9.450
 7154POPC   PO436636  34.528  16.746   9.150
 7154POPC   GL136637  34.613  16.708   8.850
 7154POPC   GL236638  34.693  16.778   8.850
 7154POPC   C1A36639  34.572  16.703   8.550
 7154POPC   D2A36640  34.582  16.730   8.250
 7154POPC   C3A36641  34.618  16.750   7.950
 7154POPC   C4A36642  34.555  16.694   7.650
 7154POPC   C1B36643  34.718  16.945   8.550
 7154POPC   C2B36644  34.777  16.966   8.250
 7154POPC   C3B36645  34.767  16.912   7.950
 7154POPC   C4B36646  34.740  16.956   7.650
 7155POPC   NC336647  26.062   3.547   9.450
 7155POPC   PO436648  26.079   3.496   9.150
 7155POPC   GL136649  26.065   3.496   8.850
 7155POPC   GL236650  25.897   3.439   8.850
 7155POPC   C1A36651  26.062   3.571   8.550
 7155POPC   D2A36652  26.007   3.507   8.250
 7155POPC   C3A36653  26.046   3.557   7.950
 7155POPC   C4A36654  25.993   3.492   7.650
 7155POPC   C1B36655  25.839   3.398   8.550
 7155POPC   C2B36656  25.828   3.392   8.250
 7155POPC   C3B36657  25.858   3.434   7.950
 7155POPC   C4B36658  25.793   3.459   7.650
 7156POPC   NC336659  19.797  27.631   9.450
 7156POPC   PO436660  19.851  27.579   9.150
 7156POPC   GL136661  19.842  27.597   8.850
 7156POPC   GL236662  19.864  27.453   8.850
 7156POPC   C1A36663  19.793  27.623   8.550
 7156POPC   D2A36664  19.811  27.579   8.250
 7156POPC   C3A36665  19.846  27.629   7.950
 7156POPC   C4A36666  19.857  27.634   7.650
 7156POPC   C1B36667  19.943  27.338   8.550
 7156POPC   C2B36668  19.875  27.341   8.250
 7156POPC   C3B36669  19.963  27.339   7.950
 7156POPC   C4B36670  19.889  27.385   7.650
 7157POPC   NC336671  23.702  13.656   9.450
 7157POPC   PO436672  23.731  13.644   9.150
 7157POPC   GL136673  23.687  13.673   8.850
 7157POPC   GL236674  23.550  13.645   8.850
 7157POPC   C1A36675  23.671  13.671   8.550
 7157POPC   D2A36676  23.681  13.589   8.250
 7157POPC   C3A36677  23.739  13.667   7.950
 7157POPC   C4A36678  23.705  13.626   7.650
 7157POPC   C1B36679  23.447  13.753   8.550
 7157POPC   C2B36680  23.512  13.685   8.250
 7157POPC   C3B36681  23.441  13.735   7.950
 7157POPC   C4B36682  23.517  13.721   7.650
 7158POPC   NC336683   3.590  25.269   9.450
 7158POPC   PO436684   3.535  25.305   9.150
 7158POPC   GL136685   3.551  25.237   8.850
 7158POPC   GL236686   3.609  25.304   8.850
 7158POPC   C1A36687   3.515  25.240   8.550
 7158POPC   D2A36688   3.524  25.251   8.250
 7158POPC   C3A36689   3.567  25.299   7.950
 7158POPC   C4A36690   3.505  25.254   7.650
 7158POPC   C1B36691   3.784  25.425   8.550
 7158POPC   C2B36692   3.735  25.445   8.250
 7158POPC   C3B36693   3.742  25.396   7.950
 7158POPC   C4B36694   3.725  25.453   7.650
 7159POPC   NC336695  33.040   1.951   9.450
 7159POPC   PO436696  32.981   1.943   9.150
 7159POPC   GL136697  33.007   2.035   8.850
 7159POPC   GL236698  32.940   2.027   8.850
 7159POPC   C1A36699  32.984   1.963   8.550
 7159POPC   D2A36700  33.037   1.950   8.250
 7159POPC   C3A36701  33.046   2.021   7.950
 7159POPC   C4A36702  33.009   1.962   7.650
 7159POPC   C1B36703  32.842   2.191   8.550
 7159POPC   C2B36704  32.806   2.116   8.250
 7159POPC   C3B36705  32.815   2.145   7.950
 7159POPC   C4B36706  32.869   2.137   7.650
 7160POPC   NC336707  37.712  32.205   9.450
 7160POPC   PO436708  37.648  32.226   9.150
 7160POPC   GL136709  37.725  32.238   8.850
 7160POPC   GL236710  37.616  32.351   8.850
 7160POPC   C1A36711  37.669  32.284   8.550
 7160POPC   D2A36712  37.695  32.269   8.250
 7160POPC   C3A36713  37.728  32.233   7.950
 7160POPC   C4A36714  37.646  32.229   7.650
 7160POPC   C1B36715  37.536  32.449   8.550
 7160POPC   C2B36716  37.471  32.393   8.250
 7160POPC   C3B36717  37.497  32.380   7.950
 7160POPC   C4B36718  37.477  32.413   7.650
 7161POPC   NC336719  30.672  22.199   9.450
 7161POPC   PO436720  30.718  22.169   9.150
 7161POPC   GL136721  30.728  22.168   8.850
 7161POPC   GL236722  30.607  22.187   8.850
 7161POPC   C1A36723  30.705  22.152   8.550
 7161POPC   D2A36724  30.680  22.201   8.250
 7161POPC   C3A36725  30.726  22.206   7.950
 7161POPC   C4A36726  30.689  22.208   7.650
 7161POPC   C1B36727  30.466  22.082   8.550
 7161POPC   C2B36728  30.408  22.067   8.250
 7161POPC   C3B36729  30.483  22.162   7.950
 7161POPC   C4B36730  30.499  22.130   7.650
 7162POPC   NC336731  24.530  40.823   9.450
 7162POPC   PO436732  24.537  40.783   9.150
 7162POPC   GL136733  24.484  40.763   8.850
 7162POPC   GL236734  24.574  40.767   8.850
 7162POPC   C1A36735  24.500  40.798   8.550
 7162POPC   D2A36736  24.450  40.755   8.250
 7162POPC   C3A36737  24.512  40.782   7.950
 7162POPC   C4A36738  24.446  40.783   7.650
 7162POPC   C1B36739  24.715  40.681   8.550
 7162POPC   C2B36740  24.739  40.760   8.250
 7162POPC   C3B36741  24.760  40.764   7.950
 7162POPC   C4B36742  24.755  40.701   7.650
 7163POPC   NC336743  26.772  41.535   9.450
 7163POPC   PO436744  26.837  41.547   9.150
 7163POPC   GL136745  26.797  41.578   8.850
 7163POPC   GL236746  26.723  41.543   8.850
 7163POPC   C1A36747  26.843  41.572   8.550
 7163POPC   D2A36748  26.812  41.580   8.250
 7163POPC   C3A36749  26.785  41.602   7.950
 7163POPC   C4A36750  26.821  41.536   7.650
 7163POPC   C1B36751  26.602  41.537   8.550
 7163POPC   C2B36752  26.574  41.499   8.250
 7163POPC   C3B36753  26.557  41.513   7.950
 7163POPC   C4B36754  26.535  41.559   7.650
 7164POPC   NC336755  32.215  36.910   9.450
 7164POPC   PO436756  32.217  36.885   9.150
 7164POPC   GL136757  32.204  36.899   8.850
 7164POPC   GL236758  32.238  37.033   8.850
 7164POPC   C1A36759  32.267  36.875   8.550
 7164POPC   D2A36760  32.290  36.854   8.250
 7164POPC   C3A36761  32.246  36.869   7.950
 7164POPC   C4A36762  32.280  36.926   7.650
 7164POPC   C1B36763  32.321  37.150   8.550
 7164POPC   C2B36764  32.275  37.134   8.250
 7164POPC   C3B36765  32.257  37.184   7.950
 7164POPC   C4B36766  32.319  37.132   7.650
 7165POPC   NC336767  40.739  22.200   9.450
 7165POPC   PO436768  40.747  22.153   9.150
 7165POPC   GL136769  40.763  22.116   8.850
 7165POPC   GL236770  40.693  22.322   8.850
 7165POPC   C1A36771  40.783  22.144   8.550
 7165POPC   D2A36772  40.771  22.168   8.250
 7165POPC   C3A36773  40.775  22.178   7.950
 7165POPC   C4A36774  40.770  22.144   7.650
 7165POPC   C1B36775  40.683  22.444   8.550
 7165POPC   C2B36776  40.688  22.384   8.250
 7165POPC   C3B36777  40.673  22.360   7.950
 7165POPC   C4B36778  40.724  22.364   7.650
 7166POPC   NC336779   2.721  29.117   9.450
 7166POPC   PO436780   2.725  29.160   9.150
 7166POPC   GL136781   2.766  29.160   8.850
 7166POPC   GL236782   2.861  29.063   8.850
 7166POPC   C1A36783   2.792  29.106   8.550
 7166POPC   D2A36784   2.762  29.146   8.250
 7166POPC   C3A36785   2.748  29.126   7.950
 7166POPC   C4A36786   2.721  29.134   7.650
 7166POPC   C1B36787   2.991  29.023   8.550
 7166POPC   C2B36788   2.997  29.015   8.250
 7166POPC   C3B36789   2.941  29.032   7.950
 7166POPC   C4B36790   3.010  29.037   7.650
 7167POPC   NC336791  33.846   7.448   9.450
 7167POPC   PO436792  33.816   7.423   9.150
 7167POPC   GL136793  33.822   7.456   8.850
 7167POPC   GL236794  33.873   7.343   8.850
 7167POPC   C1A36795  33.761   7.468   8.550
 7167POPC   D2A36796  33.817   7.392   8.250
 7167POPC   C3A36797  33.799   7.445   7.950
 7167POPC   C4A36798  33.816   7.431   7.650
 7167POPC   C1B36799  33.992   7.378   8.550
 7167POPC   C2B36800  34.013   7.373   8.250
 7167POPC   C3B36801  34.020   7.367   7.950
 7167POPC   C4B36802  34.010   7.402   7.650
 7168POPC   NC336803   4.314   7.464   9.450
 7168POPC   PO436804   4.320   7.465   9.150
 7168POPC   GL136805   4.320   7.404   8.850
 7168POPC   GL236806   4.399   7.425   8.850
 7168POPC   C1A36807   4.357   7.376   8.550
 7168POPC   D2A36808   4.304   7.421   8.250
 7168POPC   C3A36809   4.315   7.391   7.950
 7168POPC   C4A36810   4.344   7.428   7.650
 7168POPC   C1B36811   4.572   7.529   8.550
 7168POPC   C2B36812   4.514   7.545   8.250
 7168POPC   C3B36813   4.549   7.514   7.950
 7168POPC   C4B36814   4.565   7.494   7.650
 7169POPC   NC336815   7.393  24.534   9.450
 7169POPC   PO436816   7.435  24.448   9.150
 7169POPC   GL136817   7.443  24.470   8.850
 7169POPC   GL236818   7.324  24.367   8.850
 7169POPC   C1A36819   7.429  24.447   8.550
 7169POPC   D2A36820   7.395  24.522   8.250
 7169POPC   C3A36821   7.450  24.536   7.950
 7169POPC   C4A36822   7.371  24.467   7.650
 7169POPC   C1B36823   7.211  24.272   8.550
 7169POPC   C2B36824   7.221  24.277   8.250
 7169POPC   C3B36825   7.295  24.274   7.950
 7169POPC   C4B36826   7.245  24.258   7.650
 7170POPC   NC336827  25.310   1.218   9.450
 7170POPC   PO436828  25.221   1.174   9.150
 7170POPC   GL136829  25.247   1.252   8.850
 7170POPC   GL236830  25.183   1.306   8.850
 7170POPC   C1A36831  25.292   1.246   8.550
 7170POPC   D2A36832  25.268   1.192   8.250
 7170POPC   C3A36833  25.311   1.183   7.950
 7170POPC   C4A36834  25.228   1.183   7.650
 7170POPC   C1B36835  25.059   1.342   8.550
 7170POPC   C2B36836  25.037   1.389   8.250
 7170POPC   C3B36837  25.105   1.388   7.950
 7170POPC   C4B36838  25.063   1.320   7.650
 7171POPC   NC336839   4.323   1.167   9.450
 7171POPC   PO436840   4.328   1.240   9.150
 7171POPC   GL136841   4.281   1.245   8.850
 7171POPC   GL236842   4.391   1.341   8.850
 7171POPC   C1A36843   4.319   1.193   8.550
 7171POPC   D2A36844   4.309   1.165   8.250
 7171POPC   C3A36845   4.322   1.204   7.950
 7171POPC   C4A36846   4.318   1.183   7.650
 7171POPC   C1B36847   4.456   1.437   8.550
 7171POPC   C2B36848   4.404   1.462   8.250
 7171POPC   C3B36849   4.412   1.446   7.950
 7171POPC   C4B36850   4.428   1.424   7.650
 7172POPC   NC336851   8.989  31.508   9.450
 7172POPC   PO436852   8.966  31.472   9.150
 7172POPC   GL136853   8.979  31.489   8.850
 7172POPC   GL236854   9.103  31.487   8.850
 7172POPC   C1A36855   8.984  31.474   8.550
 7172POPC   D2A36856   9.012  31.438   8.250
 7172POPC   C3A36857   8.947  31.504   7.950
 7172POPC   C4A36858   8.943  31.513   7.650
 7172POPC   C1B36859   9.181  31.527   8.550
 7172POPC   C2B36860   9.222  31.596   8.250
 7172POPC   C3B36861   9.203  31.529   7.950
 7172POPC   C4B36862   9.179  31.533   7.650
 7173POPC   NC336863   3.585  31.520   9.450
 7173POPC   PO436864   3.566  31.433   9.150
 7173POPC   GL136865   3.551  31.435   8.850
 7173POPC   GL236866   3.516  31.575   8.850
 7173POPC   C1A36867   3.519  31.503   8.550
 7173POPC   D2A36868   3.493  31.508   8.250
 7173POPC   C3A36869   3.509  31.491   7.950
 7173POPC   C4A36870   3.517  31.506   7.650
 7173POPC   C1B36871   3.444  31.696   8.550
 7173POPC   C2B36872   3.376  31.677   8.250
 7173POPC   C3B36873   3.402  31.713   7.950
 7173POPC   C4B36874   3.438  31.665   7.650
 7174POPC   NC336875  27.570   1.233   9.450
 7174POPC   PO436876  27.624   1.233   9.150
 7174POPC   GL136877  27.588   1.190   8.850
 7174POPC   GL236878  27.689   1.210   8.850
 7174POPC   C1A36879  27.574   1.189   8.550
 7174POPC   D2A36880  27.632   1.240   8.250
 7174POPC   C3A36881  27.555   1.166   7.950
 7174POPC   C4A36882  27.565   1.260   7.650
 7174POPC   C1B36883  27.875   1.128   8.550
 7174POPC   C2B36884  27.845   1.146   8.250
 7174POPC   C3B36885  27.880   1.172   7.950
 7174POPC   C4B36886  27.841   1.181   7.650
 7175POPC   NC336887  30.722   1.241   9.450
 7175POPC   PO436888  30.678   1.222   9.150
 7175POPC   GL136889  30.731   1.168   8.850
 7175POPC   GL236890  30.791   1.215   8.850
 7175POPC   C1A36891  30.696   1.210   8.550
 7175POPC   D2A36892  30.652   1.238   8.250
 7175POPC   C3A36893  30.727   1.176   7.950
 7175POPC   C4A36894  30.735   1.240   7.650
 7175POPC   C1B36895  30.913   1.333   8.550
 7175POPC   C2B36896  30.970   1.295   8.250
 7175POPC   C3B36897  30.881   1.316   7.950
 7175POPC   C4B36898  30.884   1.272   7.650
 7176POPC   NC336899  14.359  30.680   9.450
 7176POPC   PO436900  14.434  30.724   9.150
 7176POPC   GL136901  14.421  30.658   8.850
 7176POPC   GL236902  14.255  30.696   8.850
 7176POPC   C1A36903  14.368  30.686   8.550
 7176POPC   D2A36904  14.367  30.673   8.250
 7176POPC   C3A36905  14.399  30.737   7.950
 7176POPC   C4A36906  14.434  30.746   7.650
 7176POPC   C1B36907  14.107  30.708   8.550
 7176POPC   C2B36908  14.173  30.728   8.250
 7176POPC   C3B36909  14.132  30.683   7.950
 7176POPC   C4B36910  14.186  30.729   7.650
 7177POPC   NC336911   1.963   9.743   9.450
 7177POPC   PO436912   1.973   9.698   9.150
 7177POPC   GL136913   2.002   9.722   8.850
 7177POPC   GL236914   1.882   9.834   8.850
 7177POPC   C1A36915   2.035   9.713   8.550
 7177POPC   D2A36916   2.007   9.738   8.250
 7177POPC   C3A36917   1.963   9.751   7.950
 7177POPC   C4A36918   2.012   9.770   7.650
 7177POPC   C1B36919   1.788   9.898   8.550
 7177POPC   C2B36920   1.815   9.842   8.250
 7177POPC   C3B36921   1.785   9.871   7.950
 7177POPC   C4B36922   1.783   9.816   7.650
 7178POPC   NC336923  31.451  39.271   9.450
 7178POPC   PO436924  31.496  39.192   9.150
 7178POPC   GL136925  31.434  39.251   8.850
 7178POPC   GL236926  31.361  39.201   8.850
 7178POPC   C1A36927  31.429  39.214   8.550
 7178POPC   D2A36928  31.426  39.253   8.250
 7178POPC   C3A36929  31.511  39.185   7.950
 7178POPC   C4A36930  31.495  39.185   7.650
 7178POPC   C1B36931  31.297  39.122   8.550
 7178POPC   C2B36932  31.279  39.146   8.250
 7178POPC   C3B36933  31.301  39.152   7.950
 7178POPC   C4B36934  31.302  39.105   7.650
 7179POPC   NC336935  34.566  29.170   9.450
 7179POPC   PO436936  34.589  29.135   9.150
 7179POPC   GL136937  34.615  29.178   8.850
 7179POPC   GL236938  34.590  29.234   8.850
 7179POPC   C1A36939  34.530  29.157   8.550
 7179POPC   D2A36940  34.560  29.142   8.250
 7179POPC   C3A36941  34.557  29.134   7.950
 7179POPC   C4A36942  34.606  29.121   7.650
 7179POPC   C1B36943  34.500  29.355   8.550
 7179POPC   C2B36944  34.481  29.417   8.250
 7179POPC   C3B36945  34.464  29.387   7.950
 7179POPC   C4B36946  34.468  29.414   7.650
 7180POPC   NC336947   8.197  25.242   9.450
 7180POPC   PO436948   8.218  25.252   9.150
 7180POPC   GL136949   8.205  25.305   8.850
 7180POPC   GL236950   8.233  25.372   8.850
 7180POPC   C1A36951   8.214  25.237   8.550
 7180POPC   D2A36952   8.152  25.255   8.250
 7180POPC   C3A36953   8.246  25.222   7.950
 7180POPC   C4A36954   8.148  25.233   7.650
 7180POPC   C1B36955   8.306  25.491   8.550
 7180POPC   C2B36956   8.334  25.512   8.250
 7180POPC   C3B36957   8.313  25.430   7.950
 7180POPC   C4B36958   8.385  25.473   7.650
 7181POPC   NC336959   2.751  28.361   9.450
 7181POPC   PO436960   2.789  28.416   9.150
 7181POPC   GL136961   2.746  28.352   8.850
 7181POPC   GL236962   2.837  28.266   8.850
 7181POPC   C1A36963   2.769  28.328   8.550
 7181POPC   D2A36964   2.717  28.351   8.250
 7181POPC   C3A36965   2.719  28.386   7.950
 7181POPC   C4A36966   2.739  28.350   7.650
 7181POPC   C1B36967   2.962  28.209   8.550
 7181POPC   C2B36968   2.961  28.193   8.250
 7181POPC   C3B36969   2.991  28.215   7.950
 7181POPC   C4B36970   2.948  28.239   7.650
 7182POPC   NC336971  36.096  12.109   9.450
 7182POPC   PO436972  36.170  12.092   9.150
 7182POPC   GL136973  36.133  12.123   8.850
 7182POPC   GL236974  36.133  11.992   8.850
 7182POPC   C1A36975  36.138  12.080   8.550
 7182POPC   D2A36976  36.122  12.036   8.250
 7182POPC   C3A36977  36.081  12.062   7.950
 7182POPC   C4A36978  36.104  12.028   7.650
 7182POPC   C1B36979  36.230  11.825   8.550
 7182POPC   C2B36980  36.253  11.847   8.250
 7182POPC   C3B36981  36.180  11.876   7.950
 7182POPC   C4B36982  36.206  11.869   7.650
 7183POPC   NC336983  10.564   1.181   9.450
 7183POPC   PO436984  10.527   1.231   9.150
 7183POPC   GL136985  10.510   1.237   8.850
 7183POPC   GL236986  10.443   1.199   8.850
 7183POPC   C1A36987  10.567   1.260   8.550
 7183POPC   D2A36988  10.482   1.195   8.250
 7183POPC   C3A36989  10.544   1.206   7.950
 7183POPC   C4A36990  10.484   1.197   7.650
 7183POPC   C1B36991  10.287   1.234   8.550
 7183POPC   C2B36992  10.250   1.176   8.250
 7183POPC   C3B36993  10.236   1.217   7.950
 7183POPC   C4B36994  10.228   1.257   7.650
 7184POPC   NC336995  19.881   1.971   9.450
 7184POPC   PO436996  19.796   2.014   9.150
 7184POPC   GL136997  19.793   1.974   8.850
 7184POPC   GL236998  19.917   1.976   8.850
 7184POPC   C1A36999  19.807   1.947   8.550
 7184POPC   D2A37000  19.786   1.958   8.250
 7184POPC   C3A37001  19.819   1.971   7.950
 7184POPC   C4A37002  19.873   2.037   7.650
 7184POPC   C1B37003  20.046   1.988   8.550
 7184POPC   C2B37004  20.063   1.992   8.250
 7184POPC   C3B37005  20.048   2.063   7.950
 7184POPC   C4B37006  20.069   2.025   7.650
 7185POPC   NC337007  41.548  40.048   9.450
 7185POPC   PO437008  41.530  40.053   9.150
 7185POPC   GL137009  41.552  40.038   8.850
 7185POPC   GL237010  41.724  40.034   8.850
 7185POPC   C1A37011  41.557  39.970   8.550
 7185POPC   D2A37012  41.517  39.994   8.250
 7185POPC   C3A37013  41.571  39.973   7.950
 7185POPC   C4A37014  41.528  40.002   7.650
 7185POPC   C1B37015  41.760  40.012   8.550
 7185POPC   C2B37016  41.799  40.038   8.250
 7185POPC   C3B37017  41.850  40.006   7.950
 7185POPC   C4B37018  41.823  39.980   7.650
 7186POPC   NC337019  14.407  24.492   9.450
 7186POPC   PO437020  14.451  24.522   9.150
 7186POPC   GL137021  14.442  24.441   8.850
 7186POPC   GL237022  14.346  24.564   8.850
 7186POPC   C1A37023  14.387  24.453   8.550
 7186POPC   D2A37024  14.356  24.454   8.250
 7186POPC   C3A37025  14.447  24.517   7.950
 7186POPC   C4A37026  14.398  24.499   7.650
 7186POPC   C1B37027  14.261  24.683   8.550
 7186POPC   C2B37028  14.260  24.713   8.250
 7186POPC   C3B37029  14.230  24.621   7.950
 7186POPC   C4B37030  14.223  24.709   7.650
 7187POPC   NC337031   7.388  25.313   9.450
 7187POPC   PO437032   7.382  25.275   9.150
 7187POPC   GL137033   7.386  25.304   8.850
 7187POPC   GL237034   7.380  25.374   8.850
 7187POPC   C1A37035   7.407  25.250   8.550
 7187POPC   D2A37036   7.426  25.267   8.250
 7187POPC   C3A37037   7.419  25.259   7.950
 7187POPC   C4A37038   7.465  25.291   7.650
 7187POPC   C1B37039   7.305  25.458   8.550
 7187POPC   C2B37040   7.242  25.472   8.250
 7187POPC   C3B37041   7.320  25.500   7.950
 7187POPC   C4B37042   7.241  25.455   7.650
 7188POPC   NC337043  23.763  10.478   9.450
 7188POPC   PO437044  23.710  10.552   9.150
 7188POPC   GL137045  23.733  10.536   8.850
 7188POPC   GL237046  23.755  10.636   8.850
 7188POPC   C1A37047  23.760  10.533   8.550
 7188POPC   D2A37048  23.691  10.561   8.250
 7188POPC   C3A37049  23.744  10.490   7.950
 7188POPC   C4A37050  23.727  10.493   7.650
 7188POPC   C1B37051  23.801  10.763   8.550
 7188POPC   C2B37052  23.861  10.741   8.250
 7188POPC   C3B37053  23.864  10.761   7.950
 7188POPC   C4B37054  23.826  10.771   7.650
 7189POPC   NC337055  36.907   7.396   9.450
 7189POPC   PO437056  36.922   7.453   9.150
 7189POPC   GL137057  36.924   7.468   8.850
 7189POPC   GL237058  36.883   7.339   8.850
 7189POPC   C1A37059  36.919   7.382   8.550
 7189POPC   D2A37060  36.885   7.405   8.250
 7189POPC   C3A37061  36.916   7.399   7.950
 7189POPC   C4A37062  36.939   7.381   7.650
 7189POPC   C1B37063  36.821   7.179   8.550
 7189POPC   C2B37064  36.882   7.217   8.250
 7189POPC   C3B37065  36.825   7.220   7.950
 7189POPC   C4B37066  36.841   7.171   7.650
 7190POPC   NC337067  36.929   1.175   9.450
 7190POPC   PO437068  36.891   1.235   9.150
 7190POPC   GL137069  36.855   1.168   8.850
 7190POPC   GL237070  37.057   1.139   8.850
 7190POPC   C1A37071  36.891   1.244   8.550
 7190POPC   D2A37072  36.857   1.200   8.250
 7190POPC   C3A37073  36.888   1.238   7.950
 7190POPC   C4A37074  36.854   1.196   7.650
 7190POPC   C1B37075  37.109   1.103   8.550
 7190POPC   C2B37076  37.163   1.092   8.250
 7190POPC   C3B37077  37.106   1.056   7.950
 7190POPC   C4B37078  37.073   1.138   7.650
 7191POPC   NC337079   2.005  22.212   9.450
 7191POPC   PO437080   2.013  22.185   9.150
 7191POPC   GL137081   2.005  22.131   8.850
 7191POPC   GL237082   2.048  22.254   8.850
 7191POPC   C1A37083   1.989  22.198   8.550
 7191POPC   D2A37084   2.008  22.179   8.250
 7191POPC   C3A37085   1.984  22.122   7.950
 7191POPC   C4A37086   2.035  22.184   7.650
 7191POPC   C1B37087   2.072  22.380   8.550
 7191POPC   C2B37088   2.061  22.363   8.250
 7191POPC   C3B37089   2.104  22.409   7.950
 7191POPC   C4B37090   2.066  22.379   7.650
 7192POPC   NC337091   4.268   0.396   9.450
 7192POPC   PO437092   4.293   0.413   9.150
 7192POPC   GL137093   4.312   0.418   8.850
 7192POPC   GL237094   4.205   0.441   8.850
 7192POPC   C1A37095   4.316   0.391   8.550
 7192POPC   D2A37096   4.365   0.474   8.250
 7192POPC   C3A37097   4.306   0.457   7.950
 7192POPC   C4A37098   4.343   0.402   7.650
 7192POPC   C1B37099   4.118   0.538   8.550
 7192POPC   C2B37100   4.071   0.501   8.250
 7192POPC   C3B37101   4.075   0.513   7.950
 7192POPC   C4B37102   4.071   0.536   7.650
 7193POPC   NC337103  30.708   7.450   9.450
 7193POPC   PO437104  30.711   7.433   9.150
 7193POPC   GL137105  30.672   7.401   8.850
 7193POPC   GL237106  30.845   7.437   8.850
 7193POPC   C1A37107  30.655   7.425   8.550
 7193POPC   D2A37108  30.694   7.459   8.250
 7193POPC   C3A37109  30.649   7.441   7.950
 7193POPC   C4A37110  30.653   7.391   7.650
 7193POPC   C1B37111  30.901   7.543   8.550
 7193POPC   C2B37112  30.897   7.574   8.250
 7193POPC   C3B37113  30.961   7.511   7.950
 7193POPC   C4B37114  30.905   7.493   7.650
 7194POPC   NC337115  32.254  32.975   9.450
 7194POPC   PO437116  32.226  32.982   9.150
 7194POPC   GL137117  32.271  32.999   8.850
 7194POPC   GL237118  32.224  33.137   8.850
 7194POPC   C1A37119  32.211  33.046   8.550
 7194POPC   D2A37120  32.237  33.029   8.250
 7194POPC   C3A37121  32.281  32.984   7.950
 7194POPC   C4A37122  32.260  33.021   7.650
 7194POPC   C1B37123  32.151  33.275   8.550
 7194POPC   C2B37124  32.101  33.185   8.250
 7194POPC   C3B37125  32.093  33.258   7.950
 7194POPC   C4B37126  32.100  33.273   7.650
 7195POPC   NC337127   1.210   9.766   9.450
 7195POPC   PO437128   1.182   9.700   9.150
 7195POPC   GL137129   1.226   9.787   8.850
 7195POPC   GL237130   1.116   9.818   8.850
 7195POPC   C1A37131   1.225   9.760   8.550
 7195POPC   D2A37132   1.217   9.717   8.250
 7195POPC   C3A37133   1.262   9.796   7.950
 7195POPC   C4A37134   1.212   9.737   7.650
 7195POPC   C1B37135   0.999   9.848   8.550
 7195POPC   C2B37136   1.028   9.894   8.250
 7195POPC   C3B37137   1.042   9.898   7.950
 7195POPC   C4B37138   0.975   9.886   7.650
 7196POPC   NC337139  29.169   1.230   9.450
 7196POPC   PO437140  29.184   1.174   9.150
 7196POPC   GL137141  29.114   1.217   8.850
 7196POPC   GL237142  29.007   1.217   8.850
 7196POPC   C1A37143  29.098   1.198   8.550
 7196POPC   D2A37144  29.143   1.180   8.250
 7196POPC   C3A37145  29.168   1.175   7.950
 7196POPC   C4A37146  29.130   1.197   7.650
 7196POPC   C1B37147  28.884   1.299   8.550
 7196POPC   C2B37148  28.923   1.274   8.250
 7196POPC   C3B37149  28.955   1.326   7.950
 7196POPC   C4B37150  28.875   1.273   7.650
 7197POPC   NC337151  27.631  21.339   9.450
 7197POPC   PO437152  27.598  21.379   9.150
 7197POPC   GL137153  27.628  21.365   8.850
 7197POPC   GL237154  27.592  21.526   8.850
 7197POPC   C1A37155  27.544  21.415   8.550
 7197POPC   D2A37156  27.585  21.380   8.250
 7197POPC   C3A37157  27.589  21.417   7.950
 7197POPC   C4A37158  27.567  21.427   7.650
 7197POPC   C1B37159  27.609  21.584   8.550
 7197POPC   C2B37160  27.684  21.611   8.250
 7197POPC   C3B37161  27.650  21.641   7.950
 7197POPC   C4B37162  27.634  21.647   7.650
 7198POPC   NC337163  10.545  33.786   9.450
 7198POPC   PO437164  10.557  33.775   9.150
 7198POPC   GL137165  10.504  33.754   8.850
 7198POPC   GL237166  10.412  33.779   8.850
 7198POPC   C1A37167  10.485  33.752   8.550
 7198POPC   D2A37168  10.530  33.769   8.250
 7198POPC   C3A37169  10.524  33.813   7.950
 7198POPC   C4A37170  10.477  33.847   7.650
 7198POPC   C1B37171  10.318  33.842   8.550
 7198POPC   C2B37172  10.286  33.789   8.250
 7198POPC   C3B37173  10.237  33.783   7.950
 7198POPC   C4B37174  10.244  33.855   7.650
 7199POPC   NC337175  25.993  33.759   9.450
 7199POPC   PO437176  26.011  33.842   9.150
 7199POPC   GL137177  26.034  33.807   8.850
 7199POPC   GL237178  26.151  33.778   8.850
 7199POPC   C1A37179  26.084  33.835   8.550
 7199POPC   D2A37180  26.024  33.795   8.250
 7199POPC   C3A37181  26.080  33.849   7.950
 7199POPC   C4A37182  26.006  33.802   7.650
 7199POPC   C1B37183  26.244  33.680   8.550
 7199POPC   C2B37184  26.269  33.663   8.250
 7199POPC   C3B37185  26.219  33.702   7.950
 7199POPC   C4B37186  26.239  33.631   7.650
 7200POPC   NC337187  17.527  12.830   9.450
 7200POPC   PO437188  17.491  12.819   9.150
 7200POPC   GL137189  17.471  12.809   8.850
 7200POPC   GL237190  17.338  12.852   8.850
 7200POPC   C1A37191  17.465  12.870   8.550
 7200POPC   D2A37192  17.476  12.858   8.250
 7200POPC   C3A37193  17.490  12.868   7.950
 7200POPC   C4A37194  17.535  12.835   7.650
 7200POPC   C1B37195  17.249  12.829   8.550
 7200POPC   C2B37196  17.304  12.796   8.250
 7200POPC   C3B37197  17.292  12.817   7.950
 7200POPC   C4B37198  17.214  12.779   7.650
 7201POPC   NC337199  20.608  33.062   9.450
 7201POPC   PO437200  20.617  32.990   9.150
 7201POPC   GL137201  20.637  33.053   8.850
 7201POPC   GL237202  20.544  32.864   8.850
 7201POPC   C1A37203  20.589  33.068   8.550
 7201POPC   D2A37204  20.568  33.004   8.250
 7201POPC   C3A37205  20.578  32.988   7.950
 7201POPC   C4A37206  20.623  33.011   7.650
 7201POPC   C1B37207  20.532  32.832   8.550
 7201POPC   C2B37208  20.566  32.830   8.250
 7201POPC   C3B37209  20.561  32.735   7.950
 7201POPC   C4B37210  20.517  32.764   7.650
 7202POPC   NC337211  33.049  12.832   9.450
 7202POPC   PO437212  33.029  12.813   9.150
 7202POPC   GL137213  33.033  12.896   8.850
 7202POPC   GL237214  32.956  12.774   8.850
 7202POPC   C1A37215  32.995  12.817   8.550
 7202POPC   D2A37216  33.067  12.825   8.250
 7202POPC   C3A37217  33.053  12.812   7.950
 7202POPC   C4A37218  32.998  12.855   7.650
 7202POPC   C1B37219  32.815  12.680   8.550
 7202POPC   C2B37220  32.850  12.648   8.250
 7202POPC   C3B37221  32.787  12.720   7.950
 7202POPC   C4B37222  32.877  12.641   7.650
 7203POPC   NC337223   7.437   8.926   9.450
 7203POPC   PO437224   7.410   8.990   9.150
 7203POPC   GL137225   7.445   8.969   8.850
 7203POPC   GL237226   7.397   8.820   8.850
 7203POPC   C1A37227   7.419   8.989   8.550
 7203POPC   D2A37228   7.468   9.006   8.250
 7203POPC   C3A37229   7.387   8.967   7.950
 7203POPC   C4A37230   7.413   9.012   7.650
 7203POPC   C1B37231   7.301   8.758   8.550
 7203POPC   C2B37232   7.359   8.735   8.250
 7203POPC   C3B37233   7.346   8.702   7.950
 7203POPC   C4B37234   7.318   8.735   7.650
 7204POPC   NC337235  37.649  21.408   9.450
 7204POPC   PO437236  37.695  21.377   9.150
 7204POPC   GL137237  37.634  21.391   8.850
 7204POPC   GL237238  37.622  21.274   8.850
 7204POPC   C1A37239  37.723  21.393   8.550
 7204POPC   D2A37240  37.649  21.411   8.250
 7204POPC   C3A37241  37.661  21.417   7.950
 7204POPC   C4A37242  37.635  21.412   7.650
 7204POPC   C1B37243  37.647  21.128   8.550
 7204POPC   C2B37244  37.561  21.132   8.250
 7204POPC   C3B37245  37.649  21.149   7.950
 7204POPC   C4B37246  37.636  21.125   7.650
 7205POPC   NC337247   3.519  21.343   9.450
 7205POPC   PO437248   3.507  21.408   9.150
 7205POPC   GL137249   3.539  21.403   8.850
 7205POPC   GL237250   3.464  21.503   8.850
 7205POPC   C1A37251   3.535  21.433   8.550
 7205POPC   D2A37252   3.549  21.412   8.250
 7205POPC   C3A37253   3.556  21.358   7.950
 7205POPC   C4A37254   3.537  21.348   7.650
 7205POPC   C1B37255   3.356  21.573   8.550
 7205POPC   C2B37256   3.322  21.589   8.250
 7205POPC   C3B37257   3.332  21.595   7.950
 7205POPC   C4B37258   3.386  21.577   7.650
 7206POPC   NC337259  19.013   8.976   9.450
 7206POPC   PO437260  19.091   8.950   9.150
 7206POPC   GL137261  19.074   9.018   8.850
 7206POPC   GL237262  18.984   8.829   8.850
 7206POPC   C1A37263  19.019   8.936   8.550
 7206POPC   D2A37264  19.012   8.950   8.250
 7206POPC   C3A37265  19.020   8.971   7.950
 7206POPC   C4A37266  19.046   8.980   7.650
 7206POPC   C1B37267  19.027   8.686   8.550
 7206POPC   C2B37268  19.019   8.729   8.250
 7206POPC   C3B37269  19.023   8.771   7.950
 7206POPC   C4B37270  18.965   8.749   7.650
 7207POPC   NC337271  24.505   6.624   9.450
 7207POPC   PO437272  24.448   6.694   9.150
 7207POPC   GL137273  24.450   6.628   8.850
 7207POPC   GL237274  24.439   6.719   8.850
 7207POPC   C1A37275  24.470   6.654   8.550
 7207POPC   D2A37276  24.522   6.655   8.250
 7207POPC   C3A37277  24.478   6.607   7.950
 7207POPC   C4A37278  24.476   6.630   7.650
 7207POPC   C1B37279  24.321   6.861   8.550
 7207POPC   C2B37280  24.359   6.783   8.250
 7207POPC   C3B37281  24.261   6.821   7.950
 7207POPC   C4B37282  24.311   6.772   7.650
 7208POPC   NC337283  40.804   9.781   9.450
 7208POPC   PO437284  40.755   9.770   9.150
 7208POPC   GL137285  40.764   9.752   8.850
 7208POPC   GL237286  40.732   9.653   8.850
 7208POPC   C1A37287  40.788   9.783   8.550
 7208POPC   D2A37288  40.804   9.716   8.250
 7208POPC   C3A37289  40.827   9.782   7.950
 7208POPC   C4A37290  40.810   9.787   7.650
 7208POPC   C1B37291  40.578   9.564   8.550
 7208POPC   C2B37292  40.582   9.570   8.250
 7208POPC   C3B37293  40.605   9.552   7.950
 7208POPC   C4B37294  40.554   9.549   7.650
 7209POPC   NC337295   5.829  32.255   9.450
 7209POPC   PO437296   5.866  32.241   9.150
 7209POPC   GL137297   5.902  32.205   8.850
 7209POPC   GL237298   5.816  32.357   8.850
 7209POPC   C1A37299   5.844  32.258   8.550
 7209POPC   D2A37300   5.874  32.230   8.250
 7209POPC   C3A37301   5.893  32.264   7.950
 7209POPC   C4A37302   5.856  32.249   7.650
 7209POPC   C1B37303   5.808  32.512   8.550
 7209POPC   C2B37304   5.877  32.481   8.250
 7209POPC   C3B37305   5.804  32.446   7.950
 7209POPC   C4B37306   5.867  32.507   7.650
 7210POPC   NC337307  13.581  43.075   9.450
 7210POPC   PO437308  13.637  43.144   9.150
 7210POPC   GL137309  13.599  43.143   8.850
 7210POPC   GL237310  13.472  43.165   8.850
 7210POPC   C1A37311  13.657  43.128   8.550
 7210POPC   D2A37312  13.625  43.101   8.250
 7210POPC   C3A37313  13.667  43.086   7.950
 7210POPC   C4A37314  13.620  43.111   7.650
 7210POPC   C1B37315  13.372  43.259   8.550
 7210POPC   C2B37316  13.359  43.182   8.250
 7210POPC   C3B37317  13.366  43.216   7.950
 7210POPC   C4B37318  13.443  43.240   7.650
 7211POPC   NC337319   3.567   8.243   9.450
 7211POPC   PO437320   3.513   8.147   9.150
 7211POPC   GL137321   3.519   8.220   8.850
 7211POPC   GL237322   3.420   8.221   8.850
 7211POPC   C1A37323   3.500   8.206   8.550
 7211POPC   D2A37324   3.585   8.219   8.250
 7211POPC   C3A37325   3.514   8.192   7.950
 7211POPC   C4A37326   3.575   8.216   7.650
 7211POPC   C1B37327   3.311   8.301   8.550
 7211POPC   C2B37328   3.284   8.352   8.250
 7211POPC   C3B37329   3.286   8.360   7.950
 7211POPC   C4B37330   3.370   8.299   7.650
 7212POPC   NC337331  26.811  39.981   9.450
 7212POPC   PO437332  26.788  40.035   9.150
 7212POPC   GL137333  26.848  39.971   8.850
 7212POPC   GL237334  26.715  39.968   8.850
 7212POPC   C1A37335  26.845  39.992   8.550
 7212POPC   D2A37336  26.807  39.973   8.250
 7212POPC   C3A37337  26.800  40.044   7.950
 7212POPC   C4A37338  26.825  39.985   7.650
 7212POPC   C1B37339  26.603  39.909   8.550
 7212POPC   C2B37340  26.568  39.847   8.250
 7212POPC   C3B37341  26.627  39.854   7.950
 7212POPC   C4B37342  26.659  39.828   7.650
 7213POPC   NC337343  31.486  20.656   9.450
 7213POPC   PO437344  31.429  20.620   9.150
 7213POPC   GL137345  31.425  20.599   8.850
 7213POPC   GL237346  31.533  20.729   8.850
 7213POPC   C1A37347  31.519  20.563   8.550
 7213POPC   D2A37348  31.498  20.650   8.250
 7213POPC   C3A37349  31.475  20.655   7.950
 7213POPC   C4A37350  31.446  20.635   7.650
 7213POPC   C1B37351  31.573  20.891   8.550
 7213POPC   C2B37352  31.601  20.826   8.250
 7213POPC   C3B37353  31.513  20.804   7.950
 7213POPC   C4B37354  31.581  20.882   7.650
 7214POPC   NC337355  17.514  25.240   9.450
 7214POPC   PO437356  17.540  25.290   9.150
 7214POPC   GL137357  17.546  25.216   8.850
 7214POPC   GL237358  17.384  25.334   8.850
 7214POPC   C1A37359  17.493  25.265   8.550
 7214POPC   D2A37360  17.528  25.277   8.250
 7214POPC   C3A37361  17.510  25.296   7.950
 7214POPC   C4A37362  17.502  25.273   7.650
 7214POPC   C1B37363  17.273  25.294   8.550
 7214POPC   C2B37364  17.226  25.338   8.250
 7214POPC   C3B37365  17.219  25.360   7.950
 7214POPC   C4B37366  17.279  25.320   7.650
 7215POPC   NC337367   1.975  33.017   9.450
 7215POPC   PO437368   2.035  32.978   9.150
 7215POPC   GL137369   2.005  32.981   8.850
 7215POPC   GL237370   2.072  32.970   8.850
 7215POPC   C1A37371   2.006  32.994   8.550
 7215POPC   D2A37372   1.940  33.000   8.250
 7215POPC   C3A37373   2.024  33.058   7.950
 7215POPC   C4A37374   1.956  33.026   7.650
 7215POPC   C1B37375   2.276  32.939   8.550
 7215POPC   C2B37376   2.239  32.929   8.250
 7215POPC   C3B37377   2.260  32.957   7.950
 7215POPC   C4B37378   2.252  32.918   7.650
 7216POPC   NC337379  32.274  20.626   9.450
 7216POPC   PO437380  32.269  20.627   9.150
 7216POPC   GL137381  32.246  20.595   8.850
 7216POPC   GL237382  32.287  20.771   8.850
 7216POPC   C1A37383  32.252  20.570   8.550
 7216POPC   D2A37384  32.264  20.597   8.250
 7216POPC   C3A37385  32.293  20.607   7.950
 7216POPC   C4A37386  32.208  20.635   7.650
 7216POPC   C1B37387  32.263  20.818   8.550
 7216POPC   C2B37388  32.198  20.844   8.250
 7216POPC   C3B37389  32.248  20.886   7.950
 7216POPC   C4B37390  32.199  20.835   7.650
 7217POPC   NC337391  18.237  31.430   9.450
 7217POPC   PO437392  18.312  31.485   9.150
 7217POPC   GL137393  18.236  31.493   8.850
 7217POPC   GL237394  18.153  31.462   8.850
 7217POPC   C1A37395  18.244  31.446   8.550
 7217POPC   D2A37396  18.245  31.445   8.250
 7217POPC   C3A37397  18.303  31.481   7.950
 7217POPC   C4A37398  18.329  31.516   7.650
 7217POPC   C1B37399  18.087  31.363   8.550
 7217POPC   C2B37400  18.059  31.371   8.250
 7217POPC   C3B37401  18.046  31.370   7.950
 7217POPC   C4B37402  18.030  31.433   7.650
 7218POPC   NC337403  25.236  36.944   9.450
 7218POPC   PO437404  25.277  36.862   9.150
 7218POPC   GL137405  25.295  36.913   8.850
 7218POPC   GL237406  25.422  36.890   8.850
 7218POPC   C1A37407  25.313  36.872   8.550
 7218POPC   D2A37408  25.276  36.875   8.250
 7218POPC   C3A37409  25.251  36.946   7.950
 7218POPC   C4A37410  25.257  36.875   7.650
 7218POPC   C1B37411  25.530  36.756   8.550
 7218POPC   C2B37412  25.474  36.802   8.250
 7218POPC   C3B37413  25.511  36.793   7.950
 7218POPC   C4B37414  25.499  36.772   7.650
 7219POPC   NC337415  33.014  43.067   9.450
 7219POPC   PO437416  32.985  43.124   9.150
 7219POPC   GL137417  33.011  43.127   8.850
 7219POPC   GL237418  33.129  43.000   8.850
 7219POPC   C1A37419  33.043  43.090   8.550
 7219POPC   D2A37420  32.993  43.127   8.250
 7219POPC   C3A37421  33.041  43.074   7.950
 7219POPC   C4A37422  32.981  43.113   7.650
 7219POPC   C1B37423  33.261  42.939   8.550
 7219POPC   C2B37424  33.256  42.973   8.250
 7219POPC   C3B37425  33.245  42.950   7.950
 7219POPC   C4B37426  33.221  42.976   7.650
 7220POPC   NC337427  15.916  25.247   9.450
 7220POPC   PO437428  15.986  25.255   9.150
 7220POPC   GL137429  15.921  25.243   8.850
 7220POPC   GL237430  15.912  25.351   8.850
 7220POPC   C1A37431  15.993  25.258   8.550
 7220POPC   D2A37432  15.907  25.220   8.250
 7220POPC   C3A37433  15.980  25.279   7.950
 7220POPC   C4A37434  16.002  25.302   7.650
 7220POPC   C1B37435  15.989  25.525   8.550
 7220POPC   C2B37436  15.940  25.529   8.250
 7220POPC   C3B37437  15.964  25.513   7.950
 7220POPC   C4B37438  16.007  25.487   7.650
 7221POPC   NC337439  23.720  32.230   9.450
 7221POPC   PO437440  23.674  32.276   9.150
 7221POPC   GL137441  23.667  32.269   8.850
 7221POPC   GL237442  23.835  32.325   8.850
 7221POPC   C1A37443  23.722  32.236   8.550
 7221POPC   D2A37444  23.735  32.293   8.250
 7221POPC   C3A37445  23.757  32.294   7.950
 7221POPC   C4A37446  23.684  32.208   7.650
 7221POPC   C1B37447  23.879  32.456   8.550
 7221POPC   C2B37448  23.876  32.451   8.250
 7221POPC   C3B37449  23.908  32.496   7.950
 7221POPC   C4B37450  23.866  32.494   7.650
 7222POPC   NC337451  42.382  36.112   9.450
 7222POPC   PO437452  42.325  36.095   9.150
 7222POPC   GL137453  42.322  36.112   8.850
 7222POPC   GL237454  42.250  36.090   8.850
 7222POPC   C1A37455  42.356  36.113   8.550
 7222POPC   D2A37456  42.344  36.131   8.250
 7222POPC   C3A37457  42.300  36.153   7.950
 7222POPC   C4A37458  42.379  36.118   7.650
 7222POPC   C1B37459  42.116  35.964   8.550
 7222POPC   C2B37460  42.180  36.023   8.250
 7222POPC   C3B37461  42.100  35.932   7.950
 7222POPC   C4B37462  42.111  36.022   7.650
 7223POPC   NC337463   2.792  11.338   9.450
 7223POPC   PO437464   2.722  11.323   9.150
 7223POPC   GL137465   2.734  11.308   8.850
 7223POPC   GL237466   2.715  11.453   8.850
 7223POPC   C1A37467   2.814  11.310   8.550
 7223POPC   D2A37468   2.789  11.313   8.250
 7223POPC   C3A37469   2.802  11.286   7.950
 7223POPC   C4A37470   2.742  11.305   7.650
 7223POPC   C1B37471   2.707  11.568   8.550
 7223POPC   C2B37472   2.633  11.535   8.250
 7223POPC   C3B37473   2.668  11.555   7.950
 7223POPC   C4B37474   2.703  11.563   7.650
 7224POPC   NC337475  22.908   2.000   9.450
 7224POPC   PO437476  22.889   1.973   9.150
 7224POPC   GL137477  22.901   1.995   8.850
 7224POPC   GL237478  22.945   2.150   8.850
 7224POPC   C1A37479  22.959   1.959   8.550
 7224POPC   D2A37480  22.889   2.028   8.250
 7224POPC   C3A37481  22.945   1.984   7.950
 7224POPC   C4A37482  22.950   2.027   7.650
 7224POPC   C1B37483  22.848   2.228   8.550
 7224POPC   C2B37484  22.876   2.183   8.250
 7224POPC   C3B37485  22.845   2.198   7.950
 7224POPC   C4B37486  22.901   2.235   7.650
 7225POPC   NC337487   1.982  25.235   9.450
 7225POPC   PO437488   2.002  25.285   9.150
 7225POPC   GL137489   1.943  25.230   8.850
 7225POPC   GL237490   1.896  25.138   8.850
 7225POPC   C1A37491   1.985  25.285   8.550
 7225POPC   D2A37492   2.030  25.312   8.250
 7225POPC   C3A37493   1.990  25.272   7.950
 7225POPC   C4A37494   1.969  25.223   7.650
 7225POPC   C1B37495   1.825  25.066   8.550
 7225POPC   C2B37496   1.849  25.131   8.250
 7225POPC   C3B37497   1.804  25.054   7.950
 7225POPC   C4B37498   1.819  25.117   7.650
 7226POPC   NC337499  29.165  19.884   9.450
 7226POPC   PO437500  29.170  19.833   9.150
 7226POPC   GL137501  29.176  19.786   8.850
 7226POPC   GL237502  29.066  19.813   8.850
 7226POPC   C1A37503  29.116  19.848   8.550
 7226POPC   D2A37504  29.169  19.788   8.250
 7226POPC   C3A37505  29.114  19.806   7.950
 7226POPC   C4A37506  29.180  19.873   7.650
 7226POPC   C1B37507  28.881  19.777   8.550
 7226POPC   C2B37508  28.907  19.733   8.250
 7226POPC   C3B37509  28.897  19.715   7.950
 7226POPC   C4B37510  28.870  19.787   7.650
 7227POPC   NC337511  37.693  15.132   9.450
 7227POPC   PO437512  37.727  15.213   9.150
 7227POPC   GL137513  37.719  15.210   8.850
 7227POPC   GL237514  37.694  15.276   8.850
 7227POPC   C1A37515  37.684  15.196   8.550
 7227POPC   D2A37516  37.656  15.186   8.250
 7227POPC   C3A37517  37.712  15.155   7.950
 7227POPC   C4A37518  37.631  15.162   7.650
 7227POPC   C1B37519  37.789  15.451   8.550
 7227POPC   C2B37520  37.782  15.456   8.250
 7227POPC   C3B37521  37.758  15.421   7.950
 7227POPC   C4B37522  37.755  15.446   7.650
 7228POPC   NC337523   8.189   8.174   9.450
 7228POPC   PO437524   8.204   8.214   9.150
 7228POPC   GL137525   8.245   8.228   8.850
 7228POPC   GL237526   8.086   8.062   8.850
 7228POPC   C1A37527   8.241   8.199   8.550
 7228POPC   D2A37528   8.239   8.242   8.250
 7228POPC   C3A37529   8.188   8.202   7.950
 7228POPC   C4A37530   8.189   8.218   7.650
 7228POPC   C1B37531   7.986   8.047   8.550
 7228POPC   C2B37532   8.001   8.021   8.250
 7228POPC   C3B37533   8.050   8.013   7.950
 7228POPC   C4B37534   8.045   7.985   7.650
 7229POPC   NC337535  26.071  21.417   9.450
 7229POPC   PO437536  26.023  21.411   9.150
 7229POPC   GL137537  26.062  21.391   8.850
 7229POPC   GL237538  26.095  21.275   8.850
 7229POPC   C1A37539  26.008  21.403   8.550
 7229POPC   D2A37540  26.051  21.339   8.250
 7229POPC   C3A37541  26.010  21.356   7.950
 7229POPC   C4A37542  26.065  21.370   7.650
 7229POPC   C1B37543  26.167  21.140   8.550
 7229POPC   C2B37544  26.158  21.136   8.250
 7229POPC   C3B37545  26.128  21.144   7.950
 7229POPC   C4B37546  26.133  21.120   7.650
 7230POPC   NC337547  35.304   5.068   9.450
 7230POPC   PO437548  35.355   5.065   9.150
 7230POPC   GL137549  35.400   5.120   8.850
 7230POPC   GL237550  35.230   5.055   8.850
 7230POPC   C1A37551  35.362   5.060   8.550
 7230POPC   D2A37552  35.308   5.132   8.250
 7230POPC   C3A37553  35.397   5.060   7.950
 7230POPC   C4A37554  35.390   5.074   7.650
 7230POPC   C1B37555  35.092   4.987   8.550
 7230POPC   C2B37556  35.128   4.951   8.250
 7230POPC   C3B37557  35.150   5.009   7.950
 7230POPC   C4B37558  35.110   4.968   7.650
 7231POPC   NC337559  29.116  12.040   9.450
 7231POPC   PO437560  29.177  12.045   9.150
 7231POPC   GL137561  29.175  12.087   8.850
 7231POPC   GL237562  29.059  12.170   8.850
 7231POPC   C1A37563  29.095  12.076   8.550
 7231POPC   D2A37564  29.154  12.050   8.250
 7231POPC   C3A37565  29.103  12.045   7.950
 7231POPC   C4A37566  29.105  12.100   7.650
 7231POPC   C1B37567  28.902  12.163   8.550
 7231POPC   C2B37568  28.909  12.201   8.250
 7231POPC   C3B37569  28.907  12.146   7.950
 7231POPC   C4B37570  28.936  12.164   7.650
 7232POPC   NC337571  27.559   5.080   9.450
 7232POPC   PO437572  27.640   5.081   9.150
 7232POPC   GL137573  27.593   5.087   8.850
 7232POPC   GL237574  27.585   5.232   8.850
 7232POPC   C1A37575  27.550   5.085   8.550
 7232POPC   D2A37576  27.623   5.137   8.250
 7232POPC   C3A37577  27.582   5.100   7.950
 7232POPC   C4A37578  27.560   5.099   7.650
 7232POPC   C1B37579  27.431   5.349   8.550
 7232POPC   C2B37580  27.431   5.339   8.250
 7232POPC   C3B37581  27.475   5.269   7.950
 7232POPC   C4B37582  27.471   5.332   7.650
 7233POPC   NC337583  22.907  39.208   9.450
 7233POPC   PO437584  22.933  39.209   9.150
 7233POPC   GL137585  22.926  39.210   8.850
 7233POPC   GL237586  22.984  39.098   8.850
 7233POPC   C1A37587  22.963  39.229   8.550
 7233POPC   D2A37588  22.927  39.191   8.250
 7233POPC   C3A37589  22.896  39.213   7.950
 7233POPC   C4A37590  22.901  39.266   7.650
 7233POPC   C1B37591  22.972  39.023   8.550
 7233POPC   C2B37592  22.920  38.961   8.250
 7233POPC   C3B37593  22.956  38.959   7.950
 7233POPC   C4B37594  22.888  39.013   7.650
 7234POPC   NC337595   6.604  38.445   9.450
 7234POPC   PO437596   6.636  38.443   9.150
 7234POPC   GL137597   6.680  38.459   8.850
 7234POPC   GL237598   6.717  38.540   8.850
 7234POPC   C1A37599   6.642  38.474   8.550
 7234POPC   D2A37600   6.623  38.485   8.250
 7234POPC   C3A37601   6.623  38.484   7.950
 7234POPC   C4A37602   6.603  38.475   7.650
 7234POPC   C1B37603   6.886  38.510   8.550
 7234POPC   C2B37604   6.892  38.564   8.250
 7234POPC   C3B37605   6.907  38.576   7.950
 7234POPC   C4B37606   6.851  38.584   7.650
 7235POPC   NC337607   5.855  12.884   9.450
 7235POPC   PO437608   5.827  12.854   9.150
 7235POPC   GL137609   5.879  12.876   8.850
 7235POPC   GL237610   5.734  12.885   8.850
 7235POPC   C1A37611   5.886  12.879   8.550
 7235POPC   D2A37612   5.868  12.850   8.250
 7235POPC   C3A37613   5.861  12.891   7.950
 7235POPC   C4A37614   5.873  12.826   7.650
 7235POPC   C1B37615   5.619  12.911   8.550
 7235POPC   C2B37616   5.681  12.957   8.250
 7235POPC   C3B37617   5.625  12.949   7.950
 7235POPC   C4B37618   5.635  12.977   7.650
 7236POPC   NC337619  15.175  19.880   9.450
 7236POPC   PO437620  15.179  19.878   9.150
 7236POPC   GL137621  15.172  19.874   8.850
 7236POPC   GL237622  15.099  19.755   8.850
 7236POPC   C1A37623  15.210  19.852   8.550
 7236POPC   D2A37624  15.146  19.873   8.250
 7236POPC   C3A37625  15.182  19.785   7.950
 7236POPC   C4A37626  15.203  19.879   7.650
 7236POPC   C1B37627  15.068  19.603   8.550
 7236POPC   C2B37628  14.976  19.638   8.250
 7236POPC   C3B37629  15.012  19.626   7.950
 7236POPC   C4B37630  15.025  19.611   7.650
 7237POPC   NC337631  23.687  36.136   9.450
 7237POPC   PO437632  23.762  36.119   9.150
 7237POPC   GL137633  23.748  36.086   8.850
 7237POPC   GL237634  23.630  36.260   8.850
 7237POPC   C1A37635  23.735  36.161   8.550
 7237POPC   D2A37636  23.739  36.172   8.250
 7237POPC   C3A37637  23.717  36.114   7.950
 7237POPC   C4A37638  23.740  36.130   7.650
 7237POPC   C1B37639  23.577  36.346   8.550
 7237POPC   C2B37640  23.652  36.398   8.250
 7237POPC   C3B37641  23.607  36.395   7.950
 7237POPC   C4B37642  23.633  36.353   7.650
 7238POPC   NC337643  40.028  43.884   9.450
 7238POPC   PO437644  40.007  43.909   9.150
 7238POPC   GL137645  40.037  43.909   8.850
 7238POPC   GL237646  40.105  43.848   8.850
 7238POPC   C1A37647  39.981  43.918   8.550
 7238POPC   D2A37648  39.957  43.876   8.250
 7238POPC   C3A37649  39.977  43.913   7.950
 7238POPC   C4A37650  39.964  43.883   7.650
 7238POPC   C1B37651  40.235  43.822   8.550
 7238POPC   C2B37652  40.292  43.906   8.250
 7238POPC   C3B37653  40.215  43.832   7.950
 7238POPC   C4B37654  40.289  43.863   7.650
 7239POPC   NC337655  19.082  32.290   9.450
 7239POPC   PO437656  19.092  32.293   9.150
 7239POPC   GL137657  19.028  32.297   8.850
 7239POPC   GL237658  19.101  32.158   8.850
 7239POPC   C1A37659  19.049  32.272   8.550
 7239POPC   D2A37660  19.025  32.217   8.250
 7239POPC   C3A37661  19.085  32.233   7.950
 7239POPC   C4A37662  19.047  32.278   7.650
 7239POPC   C1B37663  19.098  32.016   8.550
 7239POPC   C2B37664  19.061  31.960   8.250
 7239POPC   C3B37665  19.095  32.003   7.950
 7239POPC   C4B37666  19.135  32.046   7.650
 7240POPC   NC337667  36.922  21.431   9.450
 7240POPC   PO437668  36.930  21.421   9.150
 7240POPC   GL137669  36.925  21.402   8.850
 7240POPC   GL237670  36.968  21.294   8.850
 7240POPC   C1A37671  36.927  21.411   8.550
 7240POPC   D2A37672  36.872  21.369   8.250
 7240POPC   C3A37673  36.946  21.350   7.950
 7240POPC   C4A37674  36.865  21.347   7.650
 7240POPC   C1B37675  36.894  21.104   8.550
 7240POPC   C2B37676  36.899  21.148   8.250
 7240POPC   C3B37677  36.898  21.175   7.950
 7240POPC   C4B37678  36.888  21.153   7.650
 7241POPC   NC337679  16.692  32.989   9.450
 7241POPC   PO437680  16.689  33.052   9.150
 7241POPC   GL137681  16.715  33.031   8.850
 7241POPC   GL237682  16.805  33.099   8.850
 7241POPC   C1A37683  16.757  33.052   8.550
 7241POPC   D2A37684  16.767  33.068   8.250
 7241POPC   C3A37685  16.689  32.977   7.950
 7241POPC   C4A37686  16.728  33.029   7.650
 7241POPC   C1B37687  16.943  33.135   8.550
 7241POPC   C2B37688  16.938  33.143   8.250
 7241POPC   C3B37689  16.926  33.069   7.950
 7241POPC   C4B37690  16.977  33.129   7.650
 7242POPC   NC337691  26.010  10.544   9.450
 7242POPC   PO437692  26.011  10.550   9.150
 7242POPC   GL137693  26.049  10.518   8.850
 7242POPC   GL237694  25.904  10.506   8.850
 7242POPC   C1A37695  26.049  10.521   8.550
 7242POPC   D2A37696  26.072  10.547   8.250
 7242POPC   C3A37697  25.993  10.517   7.950
 7242POPC   C4A37698  26.062  10.569   7.650
 7242POPC   C1B37699  25.827  10.434   8.550
 7242POPC   C2B37700  25.797  10.422   8.250
 7242POPC   C3B37701  25.855  10.366   7.950
 7242POPC   C4B37702  25.825  10.409   7.650
 7243POPC   NC337703  20.633  32.290   9.450
 7243POPC   PO437704  20.605  32.212   9.150
 7243POPC   GL137705  20.583  32.288   8.850
 7243POPC   GL237706  20.570  32.098   8.850
 7243POPC   C1A37707  20.625  32.264   8.550
 7243POPC   D2A37708  20.589  32.274   8.250
 7243POPC   C3A37709  20.562  32.282   7.950
 7243POPC   C4A37710  20.604  32.242   7.650
 7243POPC   C1B37711  20.572  32.017   8.550
 7243POPC   C2B37712  20.506  32.017   8.250
 7243POPC   C3B37713  20.591  32.035   7.950
 7243POPC   C4B37714  20.578  31.959   7.650
 7244POPC   NC337715  36.165  22.181   9.450
 7244POPC   PO437716  36.129  22.120   9.150
 7244POPC   GL137717  36.107  22.129   8.850
 7244POPC   GL237718  36.020  22.255   8.850
 7244POPC   C1A37719  36.118  22.138   8.550
 7244POPC   D2A37720  36.141  22.114   8.250
 7244POPC   C3A37721  36.098  22.164   7.950
 7244POPC   C4A37722  36.158  22.202   7.650
 7244POPC   C1B37723  35.866  22.258   8.550
 7244POPC   C2B37724  35.854  22.226   8.250
 7244POPC   C3B37725  35.864  22.222   7.950
 7244POPC   C4B37726  35.914  22.255   7.650
 7245POPC   NC337727  16.733  26.039   9.450
 7245POPC   PO437728  16.761  26.012   9.150
 7245POPC   GL137729  16.687  26.088   8.850
 7245POPC   GL237730  16.692  25.885   8.850
 7245POPC   C1A37731  16.771  26.010   8.550
 7245POPC   D2A37732  16.754  26.005   8.250
 7245POPC   C3A37733  16.720  26.045   7.950
 7245POPC   C4A37734  16.735  26.072   7.650
 7245POPC   C1B37735  16.595  25.827   8.550
 7245POPC   C2B37736  16.670  25.804   8.250
 7245POPC   C3B37737  16.686  25.857   7.950
 7245POPC   C4B37738  16.647  25.786   7.650
 7246POPC   NC337739   0.394  42.298   9.450
 7246POPC   PO437740   0.455  42.313   9.150
 7246POPC   GL137741   0.430  42.368   8.850
 7246POPC   GL237742   0.608  42.329   8.850
 7246POPC   C1A37743   0.423  42.303   8.550
 7246POPC   D2A37744   0.460  42.328   8.250
 7246POPC   C3A37745   0.401  42.357   7.950
 7246POPC   C4A37746   0.460  42.336   7.650
 7246POPC   C1B37747   0.667  42.305   8.550
 7246POPC   C2B37748   0.693  42.301   8.250
 7246POPC   C3B37749   0.707  42.333   7.950
 7246POPC   C4B37750   0.688  42.352   7.650
 7247POPC   NC337751  11.350  26.830   9.450
 7247POPC   PO437752  11.329  26.863   9.150
 7247POPC   GL137753  11.255  26.860   8.850
 7247POPC   GL237754  11.346  26.718   8.850
 7247POPC   C1A37755  11.276  26.816   8.550
 7247POPC   D2A37756  11.350  26.798   8.250
 7247POPC   C3A37757  11.281  26.853   7.950
 7247POPC   C4A37758  11.300  26.845   7.650
 7247POPC   C1B37759  11.431  26.649   8.550
 7247POPC   C2B37760  11.460  26.628   8.250
 7247POPC   C3B37761  11.409  26.627   7.950
 7247POPC   C4B37762  11.407  26.624   7.650
 7248POPC   NC337763   2.016  27.595   9.450
 7248POPC   PO437764   1.957  27.568   9.150
 7248POPC   GL137765   2.030  27.629   8.850
 7248POPC   GL237766   2.070  27.583   8.850
 7248POPC   C1A37767   2.033  27.610   8.550
 7248POPC   D2A37768   2.014  27.638   8.250
 7248POPC   C3A37769   2.019  27.596   7.950
 7248POPC   C4A37770   1.982  27.557   7.650
 7248POPC   C1B37771   2.237  27.586   8.550
 7248POPC   C2B37772   2.210  27.612   8.250
 7248POPC   C3B37773   2.233  27.567   7.950
 7248POPC   C4B37774   2.289  27.624   7.650
 7249POPC   NC337775  17.472  21.336   9.450
 7249POPC   PO437776  17.495  21.369   9.150
 7249POPC   GL137777  17.526  21.372   8.850
 7249POPC   GL237778  17.532  21.279   8.850
 7249POPC   C1A37779  17.522  21.431   8.550
 7249POPC   D2A37780  17.477  21.360   8.250
 7249POPC   C3A37781  17.510  21.421   7.950
 7249POPC   C4A37782  17.526  21.404   7.650
 7249POPC   C1B37783  17.522  21.108   8.550
 7249POPC   C2B37784  17.553  21.141   8.250
 7249POPC   C3B37785  17.504  21.175   7.950
 7249POPC   C4B37786  17.551  21.187   7.650
 7250POPC   NC337787  15.917  18.243   9.450
 7250POPC   PO437788  15.943  18.311   9.150
 7250POPC   GL137789  15.973  18.262   8.850
 7250POPC   GL237790  16.029  18.377   8.850
 7250POPC   C1A37791  15.933  18.330   8.550
 7250POPC   D2A37792  15.913  18.265   8.250
 7250POPC   C3A37793  15.953  18.274   7.950
 7250POPC   C4A37794  15.952  18.237   7.650
 7250POPC   C1B37795  15.992  18.533   8.550
 7250POPC   C2B37796  16.006  18.555   8.250
 7250POPC   C3B37797  16.054  18.543   7.950
 7250POPC   C4B37798  16.008  18.488   7.650
 7251POPC   NC337799   5.893   4.303   9.450
 7251POPC   PO437800   5.847   4.328   9.150
 7251POPC   GL137801   5.850   4.312   8.850
 7251POPC   GL237802   5.830   4.424   8.850
 7251POPC   C1A37803   5.820   4.291   8.550
 7251POPC   D2A37804   5.826   4.301   8.250
 7251POPC   C3A37805   5.897   4.304   7.950
 7251POPC   C4A37806   5.840   4.349   7.650
 7251POPC   C1B37807   5.753   4.550   8.550
 7251POPC   C2B37808   5.735   4.511   8.250
 7251POPC   C3B37809   5.800   4.501   7.950
 7251POPC   C4B37810   5.724   4.498   7.650
 7252POPC   NC337811  23.732   6.687   9.450
 7252POPC   PO437812  23.720   6.686   9.150
 7252POPC   GL137813  23.727   6.688   8.850
 7252POPC   GL237814  23.791   6.753   8.850
 7252POPC   C1A37815  23.747   6.625   8.550
 7252POPC   D2A37816  23.718   6.677   8.250
 7252POPC   C3A37817  23.709   6.680   7.950
 7252POPC   C4A37818  23.679   6.631   7.650
 7252POPC   C1B37819  23.971   6.767   8.550
 7252POPC   C2B37820  23.888   6.753   8.250
 7252POPC   C3B37821  23.920   6.802   7.950
 7252POPC   C4B37822  23.922   6.810   7.650
 7253POPC   NC337823  26.848  34.568   9.450
 7253POPC   PO437824  26.785  34.529   9.150
 7253POPC   GL137825  26.785  34.604   8.850
 7253POPC   GL237826  26.944  34.554   8.850
 7253POPC   C1A37827  26.844  34.558   8.550
 7253POPC   D2A37828  26.851  34.624   8.250
 7253POPC   C3A37829  26.809  34.581   7.950
 7253POPC   C4A37830  26.809  34.607   7.650
 7253POPC   C1B37831  27.047  34.559   8.550
 7253POPC   C2B37832  27.089  34.554   8.250
 7253POPC   C3B37833  27.103  34.539   7.950
 7253POPC   C4B37834  27.060  34.507   7.650
 7254POPC   NC337835   8.245  38.438   9.450
 7254POPC   PO437836   8.149  38.458   9.150
 7254POPC   GL137837   8.246  38.442   8.850
 7254POPC   GL237838   8.254  38.317   8.850
 7254POPC   C1A37839   8.208  38.423   8.550
 7254POPC   D2A37840   8.212  38.411   8.250
 7254POPC   C3A37841   8.231  38.454   7.950
 7254POPC   C4A37842   8.228  38.479   7.650
 7254POPC   C1B37843   8.316  38.233   8.550
 7254POPC   C2B37844   8.316  38.213   8.250
 7254POPC   C3B37845   8.332  38.271   7.950
 7254POPC   C4B37846   8.271  38.271   7.650
 7255POPC   NC337847  14.436  10.505   9.450
 7255POPC   PO437848  14.367  10.488   9.150
 7255POPC   GL137849  14.398  10.549   8.850
 7255POPC   GL237850  14.311  10.419   8.850
 7255POPC   C1A37851  14.391  10.563   8.550
 7255POPC   D2A37852  14.400  10.487   8.250
 7255POPC   C3A37853  14.354  10.532   7.950
 7255POPC   C4A37854  14.386  10.495   7.650
 7255POPC   C1B37855  14.273  10.322   8.550
 7255POPC   C2B37856  14.220  10.282   8.250
 7255POPC   C3B37857  14.225  10.310   7.950
 7255POPC   C4B37858  14.241  10.298   7.650
 7256POPC   NC337859   7.388  11.255   9.450
 7256POPC   PO437860   7.374  11.314   9.150
 7256POPC   GL137861   7.437  11.253   8.850
 7256POPC   GL237862   7.270  11.331   8.850
 7256POPC   C1A37863   7.453  11.313   8.550
 7256POPC   D2A37864   7.458  11.329   8.250
 7256POPC   C3A37865   7.414  11.288   7.950
 7256POPC   C4A37866   7.428  11.295   7.650
 7256POPC   C1B37867   7.163  11.463   8.550
 7256POPC   C2B37868   7.162  11.415   8.250
 7256POPC   C3B37869   7.232  11.396   7.950
 7256POPC   C4B37870   7.175  11.461   7.650
 7257POPC   NC337871   4.273  19.056   9.450
 7257POPC   PO437872   4.359  19.056   9.150
 7257POPC   GL137873   4.275  19.054   8.850
 7257POPC   GL237874   4.400  18.940   8.850
 7257POPC   C1A37875   4.346  19.019   8.550
 7257POPC   D2A37876   4.361  19.083   8.250
 7257POPC   C3A37877   4.348  19.022   7.950
 7257POPC   C4A37878   4.357  19.046   7.650
 7257POPC   C1B37879   4.476  18.886   8.550
 7257POPC   C2B37880   4.540  18.945   8.250
 7257POPC   C3B37881   4.479  18.930   7.950
 7257POPC   C4B37882   4.478  18.863   7.650
 7258POPC   NC337883  12.109  39.201   9.450
 7258POPC   PO437884  12.067  39.237   9.150
 7258POPC   GL137885  12.033  39.249   8.850
 7258POPC   GL237886  12.160  39.165   8.850
 7258POPC   C1A37887  12.089  39.229   8.550
 7258POPC   D2A37888  12.056  39.258   8.250
 7258POPC   C3A37889  12.046  39.258   7.950
 7258POPC   C4A37890  12.057  39.224   7.650
 7258POPC   C1B37891  12.234  39.022   8.550
 7258POPC   C2B37892  12.247  39.017   8.250
 7258POPC   C3B37893  12.281  39.042   7.950
 7258POPC   C4B37894  12.270  39.049   7.650
 7259POPC   NC337895  27.606  15.206   9.450
 7259POPC   PO437896  27.552  15.158   9.150
 7259POPC   GL137897  27.594  15.136   8.850
 7259POPC   GL237898  27.502  15.321   8.850
 7259POPC   C1A37899  27.606  15.133   8.550
 7259POPC   D2A37900  27.562  15.181   8.250
 7259POPC   C3A37901  27.631  15.147   7.950
 7259POPC   C4A37902  27.592  15.209   7.650
 7259POPC   C1B37903  27.481  15.420   8.550
 7259POPC   C2B37904  27.468  15.384   8.250
 7259POPC   C3B37905  27.425  15.338   7.950
 7259POPC   C4B37906  27.429  15.397   7.650
 7260POPC   NC337907  11.264  43.065   9.450
 7260POPC   PO437908  11.306  43.160   9.150
 7260POPC   GL137909  11.333  43.084   8.850
 7260POPC   GL237910  11.354  42.966   8.850
 7260POPC   C1A37911  11.297  43.129   8.550
 7260POPC   D2A37912  11.312  43.094   8.250
 7260POPC   C3A37913  11.298  43.159   7.950
 7260POPC   C4A37914  11.322  43.105   7.650
 7260POPC   C1B37915  11.339  42.824   8.550
 7260POPC   C2B37916  11.307  42.829   8.250
 7260POPC   C3B37917  11.315  42.828   7.950
 7260POPC   C4B37918  11.335  42.864   7.650
 7261POPC   NC337919  28.360  41.540   9.450
 7261POPC   PO437920  28.404  41.608   9.150
 7261POPC   GL137921  28.390  41.578   8.850
 7261POPC   GL237922  28.344  41.650   8.850
 7261POPC   C1A37923  28.360  41.551   8.550
 7261POPC   D2A37924  28.387  41.572   8.250
 7261POPC   C3A37925  28.394  41.558   7.950
 7261POPC   C4A37926  28.390  41.537   7.650
 7261POPC   C1B37927  28.205  41.798   8.550
 7261POPC   C2B37928  28.235  41.784   8.250
 7261POPC   C3B37929  28.250  41.805   7.950
 7261POPC   C4B37930  28.220  41.763   7.650
 7262POPC   NC337931  14.387  15.946   9.450
 7262POPC   PO437932  14.390  15.966   9.150
 7262POPC   GL137933  14.360  15.996   8.850
 7262POPC   GL237934  14.348  16.104   8.850
 7262POPC   C1A37935  14.437  15.978   8.550
 7262POPC   D2A37936  14.374  15.914   8.250
 7262POPC   C3A37937  14.419  15.998   7.950
 7262POPC   C4A37938  14.384  15.996   7.650
 7262POPC   C1B37939  14.345  16.152   8.550
 7262POPC   C2B37940  14.284  16.146   8.250
 7262POPC   C3B37941  14.311  16.178   7.950
 7262POPC   C4B37942  14.360  16.160   7.650
 7263POPC   NC337943  16.753  28.368   9.450
 7263POPC   PO437944  16.737  28.386   9.150
 7263POPC   GL137945  16.763  28.365   8.850
 7263POPC   GL237946  16.661  28.470   8.850
 7263POPC   C1A37947  16.741  28.320   8.550
 7263POPC   D2A37948  16.709  28.326   8.250
 7263POPC   C3A37949  16.712  28.343   7.950
 7263POPC   C4A37950  16.726  28.378   7.650
 7263POPC   C1B37951  16.521  28.561   8.550
 7263POPC   C2B37952  16.562  28.528   8.250
 7263POPC   C3B37953  16.535  28.566   7.950
 7263POPC   C4B37954  16.590  28.546   7.650
 7264POPC   NC337955  12.060  31.522   9.450
 7264POPC   PO437956  12.063  31.426   9.150
 7264POPC   GL137957  12.110  31.467   8.850
 7264POPC   GL237958  12.192  31.391   8.850
 7264POPC   C1A37959  12.112  31.451   8.550
 7264POPC   D2A37960  12.071  31.423   8.250
 7264POPC   C3A37961  12.029  31.502   7.950
 7264POPC   C4A37962  12.086  31.502   7.650
 7264POPC   C1B37963  12.236  31.285   8.550
 7264POPC   C2B37964  12.212  31.264   8.250
 7264POPC   C3B37965  12.271  31.292   7.950
 7264POPC   C4B37966  12.207  31.264   7.650
 7265POPC   NC337967   9.740  29.187   9.450
 7265POPC   PO437968   9.708  29.179   9.150
 7265POPC   GL137969   9.764  29.114   8.850
 7265POPC   GL237970   9.813  29.209   8.850
 7265POPC   C1A37971   9.769  29.175   8.550
 7265POPC   D2A37972   9.707  29.165   8.250
 7265POPC   C3A37973   9.769  29.123   7.950
 7265POPC   C4A37974   9.781  29.113   7.650
 7265POPC   C1B37975   9.936  29.383   8.550
 7265POPC   C2B37976   9.893  29.380   8.250
 7265POPC   C3B37977   9.897  29.336   7.950
 7265POPC   C4B37978   9.871  29.333   7.650
 7266POPC   NC337979  34.618  36.948   9.450
 7266POPC   PO437980  34.531  36.871   9.150
 7266POPC   GL137981  34.578  36.923   8.850
 7266POPC   GL237982  34.435  36.932   8.850
 7266POPC   C1A37983  34.603  36.924   8.550
 7266POPC   D2A37984  34.545  36.925   8.250
 7266POPC   C3A37985  34.610  36.887   7.950
 7266POPC   C4A37986  34.586  36.898   7.650
 7266POPC   C1B37987  34.304  36.960   8.550
 7266POPC   C2B37988  34.331  36.921   8.250
 7266POPC   C3B37989  34.352  36.940   7.950
 7266POPC   C4B37990  34.369  36.924   7.650
 7267POPC   NC337991  26.816  25.279   9.450
 7267POPC   PO437992  26.791  25.260   9.150
 7267POPC   GL137993  26.824  25.287   8.850
 7267POPC   GL237994  26.880  25.329   8.850
 7267POPC   C1A37995  26.792  25.251   8.550
 7267POPC   D2A37996  26.853  25.252   8.250
 7267POPC   C3A37997  26.844  25.220   7.950
 7267POPC   C4A37998  26.794  25.231   7.650
 7267POPC   C1B37999  26.916  25.486   8.550
 7267POPC   C2B38000  26.960  25.534   8.250
 7267POPC   C3B38001  26.909  25.536   7.950
 7267POPC   C4B38002  26.908  25.521   7.650
 7268POPC   NC338003  31.443  10.489   9.450
 7268POPC   PO438004  31.423  10.486   9.150
 7268POPC   GL138005  31.468  10.484   8.850
 7268POPC   GL238006  31.328  10.481   8.850
 7268POPC   C1A38007  31.482  10.560   8.550
 7268POPC   D2A38008  31.426  10.568   8.250
 7268POPC   C3A38009  31.487  10.489   7.950
 7268POPC   C4A38010  31.476  10.565   7.650
 7268POPC   C1B38011  31.304  10.379   8.550
 7268POPC   C2B38012  31.226  10.340   8.250
 7268POPC   C3B38013  31.293  10.377   7.950
 7268POPC   C4B38014  31.286  10.385   7.650
 7269POPC   NC338015  40.028  42.324   9.450
 7269POPC   PO438016  39.972  42.383   9.150
 7269POPC   GL138017  40.012  42.330   8.850
 7269POPC   GL238018  39.873  42.364   8.850
 7269POPC   C1A38019  39.984  42.323   8.550
 7269POPC   D2A38020  39.985  42.314   8.250
 7269POPC   C3A38021  40.054  42.354   7.950
 7269POPC   C4A38022  40.037  42.339   7.650
 7269POPC   C1B38023  39.768  42.255   8.550
 7269POPC   C2B38024  39.748  42.295   8.250
 7269POPC   C3B38025  39.809  42.257   7.950
 7269POPC   C4B38026  39.780  42.268   7.650
 7270POPC   NC338027   5.100  38.457   9.450
 7270POPC   PO438028   5.125  38.406   9.150
 7270POPC   GL138029   5.053  38.422   8.850
 7270POPC   GL238030   5.008  38.449   8.850
 7270POPC   C1A38031   5.124  38.454   8.550
 7270POPC   D2A38032   5.044  38.453   8.250
 7270POPC   C3A38033   5.117  38.406   7.950
 7270POPC   C4A38034   5.096  38.447   7.650
 7270POPC   C1B38035   4.828  38.470   8.550
 7270POPC   C2B38036   4.878  38.470   8.250
 7270POPC   C3B38037   4.879  38.376   7.950
 7270POPC   C4B38038   4.867  38.474   7.650
 7271POPC   NC338039  39.971  43.116   9.450
 7271POPC   PO438040  39.967  43.067   9.150
 7271POPC   GL138041  40.003  43.080   8.850
 7271POPC   GL238042  40.058  42.976   8.850
 7271POPC   C1A38043  40.010  43.121   8.550
 7271POPC   D2A38044  39.972  43.061   8.250
 7271POPC   C3A38045  40.015  43.114   7.950
 7271POPC   C4A38046  40.014  43.078   7.650
 7271POPC   C1B38047  40.081  42.885   8.550
 7271POPC   C2B38048  40.134  42.873   8.250
 7271POPC   C3B38049  40.072  42.849   7.950
 7271POPC   C4B38050  40.060  42.894   7.650
 7272POPC   NC338051  12.852   0.471   9.450
 7272POPC   PO438052  12.866   0.445   9.150
 7272POPC   GL138053  12.901   0.414   8.850
 7272POPC   GL238054  12.737   0.516   8.850
 7272POPC   C1A38055  12.851   0.484   8.550
 7272POPC   D2A38056  12.807   0.392   8.250
 7272POPC   C3A38057  12.896   0.453   7.950
 7272POPC   C4A38058  12.842   0.488   7.650
 7272POPC   C1B38059  12.604   0.591   8.550
 7272POPC   C2B38060  12.607   0.582   8.250
 7272POPC   C3B38061  12.654   0.615   7.950
 7272POPC   C4B38062  12.687   0.611   7.650
 7273POPC   NC338063   6.595  43.096   9.450
 7273POPC   PO438064   6.611  43.105   9.150
 7273POPC   GL138065   6.689  43.157   8.850
 7273POPC   GL238066   6.546  42.949   8.850
 7273POPC   C1A38067   6.622  43.100   8.550
 7273POPC   D2A38068   6.691  43.094   8.250
 7273POPC   C3A38069   6.603  43.075   7.950
 7273POPC   C4A38070   6.656  43.150   7.650
 7273POPC   C1B38071   6.534  42.848   8.550
 7273POPC   C2B38072   6.486  42.842   8.250
 7273POPC   C3B38073   6.576  42.925   7.950
 7273POPC   C4B38074   6.554  42.891   7.650
 7274POPC   NC338075  33.842   3.501   9.450
 7274POPC   PO438076  33.789   3.525   9.150
 7274POPC   GL138077  33.804   3.542   8.850
 7274POPC   GL238078  33.639   3.607   8.850
 7274POPC   C1A38079  33.771   3.585   8.550
 7274POPC   D2A38080  33.796   3.500   8.250
 7274POPC   C3A38081  33.782   3.495   7.950
 7274POPC   C4A38082  33.800   3.588   7.650
 7274POPC   C1B38083  33.546   3.636   8.550
 7274POPC   C2B38084  33.579   3.585   8.250
 7274POPC   C3B38085  33.548   3.657   7.950
 7274POPC   C4B38086  33.567   3.604   7.650
 7275POPC   NC338087  33.019  18.328   9.450
 7275POPC   PO438088  32.997  18.259   9.150
 7275POPC   GL138089  33.021  18.260   8.850
 7275POPC   GL238090  33.099  18.260   8.850
 7275POPC   C1A38091  32.984  18.295   8.550
 7275POPC   D2A38092  33.059  18.306   8.250
 7275POPC   C3A38093  33.029  18.304   7.950
 7275POPC   C4A38094  33.029  18.249   7.650
 7275POPC   C1B38095  33.271  18.238   8.550
 7275POPC   C2B38096  33.231  18.282   8.250
 7275POPC   C3B38097  33.279  18.319   7.950
 7275POPC   C4B38098  33.268  18.293   7.650
 7276POPC   NC338099  36.918  20.650   9.450
 7276POPC   PO438100  36.901  20.652   9.150
 7276POPC   GL138101  36.887  20.639   8.850
 7276POPC   GL238102  36.830  20.705   8.850
 7276POPC   C1A38103  36.873  20.570   8.550
 7276POPC   D2A38104  36.950  20.617   8.250
 7276POPC   C3A38105  36.869  20.562   7.950
 7276POPC   C4A38106  36.855  20.651   7.650
 7276POPC   C1B38107  36.780  20.800   8.550
 7276POPC   C2B38108  36.771  20.838   8.250
 7276POPC   C3B38109  36.729  20.753   7.950
 7276POPC   C4B38110  36.741  20.748   7.650
 7277POPC   NC338111  25.283   9.000   9.450
 7277POPC   PO438112  25.298   9.003   9.150
 7277POPC   GL138113  25.265   9.002   8.850
 7277POPC   GL238114  25.155   8.837   8.850
 7277POPC   C1A38115  25.251   9.015   8.550
 7277POPC   D2A38116  25.243   9.017   8.250
 7277POPC   C3A38117  25.300   8.998   7.950
 7277POPC   C4A38118  25.249   8.955   7.650
 7277POPC   C1B38119  25.167   8.756   8.550
 7277POPC   C2B38120  25.148   8.730   8.250
 7277POPC   C3B38121  25.103   8.771   7.950
 7277POPC   C4B38122  25.099   8.716   7.650
 7278POPC   NC338123   9.721  16.707   9.450
 7278POPC   PO438124   9.734  16.727   9.150
 7278POPC   GL138125   9.714  16.764   8.850
 7278POPC   GL238126   9.798  16.581   8.850
 7278POPC   C1A38127   9.709  16.704   8.550
 7278POPC   D2A38128   9.720  16.752   8.250
 7278POPC   C3A38129   9.750  16.767   7.950
 7278POPC   C4A38130   9.760  16.729   7.650
 7278POPC   C1B38131   9.890  16.529   8.550
 7278POPC   C2B38132   9.908  16.509   8.250
 7278POPC   C3B38133   9.878  16.506   7.950
 7278POPC   C4B38134   9.811  16.464   7.650
 7279POPC   NC338135  43.865  27.598   9.450
 7279POPC   PO438136  43.902  27.630   9.150
 7279POPC   GL138137  43.847  27.620   8.850
 7279POPC   GL238138  43.817  27.756   8.850
 7279POPC   C1A38139  43.903  27.559   8.550
 7279POPC   D2A38140  43.867  27.634   8.250
 7279POPC   C3A38141  43.904  27.571   7.950
 7279POPC   C4A38142  43.931  27.560   7.650
 7279POPC   C1B38143  43.830  27.869   8.550
 7279POPC   C2B38144  43.763  27.773   8.250
 7279POPC   C3B38145  43.826  27.843   7.950
 7279POPC   C4B38146  43.824  27.776   7.650
 7280POPC   NC338147  21.379  42.370   9.450
 7280POPC   PO438148  21.378  42.334   9.150
 7280POPC   GL138149  21.386  42.296   8.850
 7280POPC   GL238150  21.491  42.224   8.850
 7280POPC   C1A38151  21.418  42.289   8.550
 7280POPC   D2A38152  21.420  42.359   8.250
 7280POPC   C3A38153  21.434  42.291   7.950
 7280POPC   C4A38154  21.366  42.288   7.650
 7280POPC   C1B38155  21.464  42.072   8.550
 7280POPC   C2B38156  21.544  42.095   8.250
 7280POPC   C3B38157  21.471  42.127   7.950
 7280POPC   C4B38158  21.501  42.138   7.650
 7281POPC   NC338159   8.149  19.801   9.450
 7281POPC   PO438160   8.243  19.871   9.150
 7281POPC   GL138161   8.224  19.870   8.850
 7281POPC   GL238162   8.199  19.700   8.850
 7281POPC   C1A38163   8.182  19.793   8.550
 7281POPC   D2A38164   8.235  19.807   8.250
 7281POPC   C3A38165   8.163  19.862   7.950
 7281POPC   C4A38166   8.170  19.821   7.650
 7281POPC   C1B38167   8.137  19.630   8.550
 7281POPC   C2B38168   8.150  19.631   8.250
 7281POPC   C3B38169   8.165  19.558   7.950
 7281POPC   C4B38170   8.188  19.628   7.650
 7282POPC   NC338171  20.624  13.673   9.450
 7282POPC   PO438172  20.628  13.613   9.150
 7282POPC   GL138173  20.641  13.580   8.850
 7282POPC   GL238174  20.500  13.695   8.850
 7282POPC   C1A38175  20.613  13.644   8.550
 7282POPC   D2A38176  20.587  13.593   8.250
 7282POPC   C3A38177  20.633  13.664   7.950
 7282POPC   C4A38178  20.636  13.587   7.650
 7282POPC   C1B38179  20.446  13.829   8.550
 7282POPC   C2B38180  20.378  13.810   8.250
 7282POPC   C3B38181  20.387  13.832   7.950
 7282POPC   C4B38182  20.429  13.757   7.650
 7283POPC   NC338183   6.683  20.617   9.450
 7283POPC   PO438184   6.655  20.586   9.150
 7283POPC   GL138185   6.668  20.651   8.850
 7283POPC   GL238186   6.545  20.640   8.850
 7283POPC   C1A38187   6.690  20.660   8.550
 7283POPC   D2A38188   6.655  20.633   8.250
 7283POPC   C3A38189   6.602  20.593   7.950
 7283POPC   C4A38190   6.661  20.626   7.650
 7283POPC   C1B38191   6.415  20.669   8.550
 7283POPC   C2B38192   6.365  20.628   8.250
 7283POPC   C3B38193   6.439  20.684   7.950
 7283POPC   C4B38194   6.453  20.672   7.650
 7284POPC   NC338195   6.629  33.807   9.450
 7284POPC   PO438196   6.639  33.830   9.150
 7284POPC   GL138197   6.688  33.761   8.850
 7284POPC   GL238198   6.719  33.634   8.850
 7284POPC   C1A38199   6.656  33.759   8.550
 7284POPC   D2A38200   6.631  33.826   8.250
 7284POPC   C3A38201   6.622  33.770   7.950
 7284POPC   C4A38202   6.607  33.775   7.650
 7284POPC   C1B38203   6.668  33.511   8.550
 7284POPC   C2B38204   6.686  33.572   8.250
 7284POPC   C3B38205   6.738  33.578   7.950
 7284POPC   C4B38206   6.672  33.573   7.650
 7285POPC   NC338207  41.554  14.426   9.450
 7285POPC   PO438208  41.598  14.359   9.150
 7285POPC   GL138209  41.513  14.426   8.850
 7285POPC   GL238210  41.591  14.255   8.850
 7285POPC   C1A38211  41.565  14.382   8.550
 7285POPC   D2A38212  41.607  14.363   8.250
 7285POPC   C3A38213  41.566  14.354   7.950
 7285POPC   C4A38214  41.577  14.405   7.650
 7285POPC   C1B38215  41.603  14.130   8.550
 7285POPC   C2B38216  41.589  14.138   8.250
 7285POPC   C3B38217  41.657  14.196   7.950
 7285POPC   C4B38218  41.626  14.185   7.650
 7286POPC   NC338219  27.620  31.516   9.450
 7286POPC   PO438220  27.596  31.493   9.150
 7286POPC   GL138221  27.546  31.437   8.850
 7286POPC   GL238222  27.613  31.565   8.850
 7286POPC   C1A38223  27.576  31.496   8.550
 7286POPC   D2A38224  27.559  31.489   8.250
 7286POPC   C3A38225  27.570  31.442   7.950
 7286POPC   C4A38226  27.570  31.439   7.650
 7286POPC   C1B38227  27.720  31.705   8.550
 7286POPC   C2B38228  27.704  31.716   8.250
 7286POPC   C3B38229  27.698  31.692   7.950
 7286POPC   C4B38230  27.734  31.732   7.650
 7287POPC   NC338231   5.918  23.668   9.450
 7287POPC   PO438232   5.880  23.722   9.150
 7287POPC   GL138233   5.863  23.760   8.850
 7287POPC   GL238234   5.981  23.608   8.850
 7287POPC   C1A38235   5.917  23.733   8.550
 7287POPC   D2A38236   5.883  23.736   8.250
 7287POPC   C3A38237   5.909  23.758   7.950
 7287POPC   C4A38238   5.867  23.732   7.650
 7287POPC   C1B38239   6.024  23.476   8.550
 7287POPC   C2B38240   6.051  23.556   8.250
 7287POPC   C3B38241   5.991  23.483   7.950
 7287POPC   C4B38242   6.020  23.527   7.650
 7288POPC   NC338243  30.655  20.582   9.450
 7288POPC   PO438244  30.739  20.614   9.150
 7288POPC   GL138245  30.698  20.592   8.850
 7288POPC   GL238246  30.582  20.641   8.850
 7288POPC   C1A38247  30.657  20.572   8.550
 7288POPC   D2A38248  30.716  20.609   8.250
 7288POPC   C3A38249  30.656  20.649   7.950
 7288POPC   C4A38250  30.661  20.598   7.650
 7288POPC   C1B38251  30.493  20.619   8.550
 7288POPC   C2B38252  30.470  20.699   8.250
 7288POPC   C3B38253  30.452  20.632   7.950
 7288POPC   C4B38254  30.420  20.670   7.650
 7289POPC   NC338255   1.998  15.141   9.450
 7289POPC   PO438256   2.000  15.132   9.150
 7289POPC   GL138257   2.012  15.171   8.850
 7289POPC   GL238258   2.041  15.295   8.850
 7289POPC   C1A38259   1.993  15.220   8.550
 7289POPC   D2A38260   1.981  15.178   8.250
 7289POPC   C3A38261   2.010  15.168   7.950
 7289POPC   C4A38262   1.988  15.172   7.650
 7289POPC   C1B38263   2.123  15.370   8.550
 7289POPC   C2B38264   2.162  15.315   8.250
 7289POPC   C3B38265   2.158  15.361   7.950
 7289POPC   C4B38266   2.136  15.342   7.650
 7290POPC   NC338267   8.960  41.519   9.450
 7290POPC   PO438268   8.956  41.607   9.150
 7290POPC   GL138269   8.949  41.578   8.850
 7290POPC   GL238270   8.952  41.450   8.850
 7290POPC   C1A38271   8.947  41.586   8.550
 7290POPC   D2A38272   8.923  41.586   8.250
 7290POPC   C3A38273   8.994  41.562   7.950
 7290POPC   C4A38274   9.010  41.583   7.650
 7290POPC   C1B38275   8.936  41.348   8.550
 7290POPC   C2B38276   8.949  41.310   8.250
 7290POPC   C3B38277   8.875  41.343   7.950
 7290POPC   C4B38278   8.908  41.292   7.650
 7291POPC   NC338279   0.434   8.945   9.450
 7291POPC   PO438280   0.390   8.937   9.150
 7291POPC   GL138281   0.400   8.950   8.850
 7291POPC   GL238282   0.477   9.065   8.850
 7291POPC   C1A38283   0.487   8.952   8.550
 7291POPC   D2A38284   0.480   8.984   8.250
 7291POPC   C3A38285   0.421   8.974   7.950
 7291POPC   C4A38286   0.453   8.991   7.650
 7291POPC   C1B38287   0.548   9.184   8.550
 7291POPC   C2B38288   0.597   9.145   8.250
 7291POPC   C3B38289   0.610   9.181   7.950
 7291POPC   C4B38290   0.609   9.136   7.650
 7292POPC   NC338291  42.375  41.527   9.450
 7292POPC   PO438292  42.325  41.581   9.150
 7292POPC   GL138293  42.330  41.521   8.850
 7292POPC   GL238294  42.345  41.645   8.850
 7292POPC   C1A38295  42.383  41.579   8.550
 7292POPC   D2A38296  42.332  41.543   8.250
 7292POPC   C3A38297  42.327  41.542   7.950
 7292POPC   C4A38298  42.289  41.533   7.650
 7292POPC   C1B38299  42.401  41.807   8.550
 7292POPC   C2B38300  42.353  41.858   8.250
 7292POPC   C3B38301  42.376  41.781   7.950
 7292POPC   C4B38302  42.386  41.798   7.650
 7293POPC   NC338303  36.084  15.140   9.450
 7293POPC   PO438304  36.162  15.218   9.150
 7293POPC   GL138305  36.122  15.173   8.850
 7293POPC   GL238306  36.059  15.038   8.850
 7293POPC   C1A38307  36.124  15.202   8.550
 7293POPC   D2A38308  36.177  15.215   8.250
 7293POPC   C3A38309  36.151  15.202   7.950
 7293POPC   C4A38310  36.103  15.215   7.650
 7293POPC   C1B38311  35.942  14.982   8.550
 7293POPC   C2B38312  35.969  14.977   8.250
 7293POPC   C3B38313  35.933  15.023   7.950
 7293POPC   C4B38314  36.015  15.013   7.650
 7294POPC   NC338315  32.245  10.524   9.450
 7294POPC   PO438316  32.247  10.559   9.150
 7294POPC   GL138317  32.270  10.519   8.850
 7294POPC   GL238318  32.141  10.518   8.850
 7294POPC   C1A38319  32.205  10.523   8.550
 7294POPC   D2A38320  32.244  10.490   8.250
 7294POPC   C3A38321  32.252  10.553   7.950
 7294POPC   C4A38322  32.262  10.485   7.650
 7294POPC   C1B38323  31.970  10.469   8.550
 7294POPC   C2B38324  31.985  10.415   8.250
 7294POPC   C3B38325  31.963  10.490   7.950
 7294POPC   C4B38326  31.970  10.443   7.650
 7295POPC   NC338327  15.180   7.383   9.450
 7295POPC   PO438328  15.139   7.394   9.150
 7295POPC   GL138329  15.163   7.470   8.850
 7295POPC   GL238330  15.274   7.425   8.850
 7295POPC   C1A38331  15.141   7.395   8.550
 7295POPC   D2A38332  15.182   7.378   8.250
 7295POPC   C3A38333  15.166   7.401   7.950
 7295POPC   C4A38334  15.149   7.393   7.650
 7295POPC   C1B38335  15.363   7.542   8.550
 7295POPC   C2B38336  15.382   7.520   8.250
 7295POPC   C3B38337  15.414   7.520   7.950
 7295POPC   C4B38338  15.414   7.549   7.650
 7296POPC   NC338339   8.942  27.599   9.450
 7296POPC   PO438340   8.942  27.608   9.150
 7296POPC   GL138341   8.945  27.620   8.850
 7296POPC   GL238342   9.068  27.575   8.850
 7296POPC   C1A38343   8.993  27.555   8.550
 7296POPC   D2A38344   9.014  27.624   8.250
 7296POPC   C3A38345   8.969  27.634   7.950
 7296POPC   C4A38346   8.942  27.593   7.650
 7296POPC   C1B38347   9.146  27.436   8.550
 7296POPC   C2B38348   9.191  27.451   8.250
 7296POPC   C3B38349   9.206  27.479   7.950
 7296POPC   C4B38350   9.156  27.510   7.650
 7297POPC   NC338351  33.838  24.450   9.450
 7297POPC   PO438352  33.814  24.465   9.150
 7297POPC   GL138353  33.768  24.461   8.850
 7297POPC   GL238354  33.754  24.329   8.850
 7297POPC   C1A38355  33.758  24.535   8.550
 7297POPC   D2A38356  33.800  24.464   8.250
 7297POPC   C3A38357  33.835  24.502   7.950
 7297POPC   C4A38358  33.846  24.487   7.650
 7297POPC   C1B38359  33.744  24.247   8.550
 7297POPC   C2B38360  33.770  24.228   8.250
 7297POPC   C3B38361  33.735  24.274   7.950
 7297POPC   C4B38362  33.782  24.199   7.650
 7298POPC   NC338363   1.961  41.574   9.450
 7298POPC   PO438364   2.024  41.525   9.150
 7298POPC   GL138365   2.022  41.585   8.850
 7298POPC   GL238366   2.134  41.607   8.850
 7298POPC   C1A38367   1.951  41.539   8.550
 7298POPC   D2A38368   1.972  41.554   8.250
 7298POPC   C3A38369   2.008  41.591   7.950
 7298POPC   C4A38370   1.992  41.572   7.650
 7298POPC   C1B38371   2.236  41.607   8.550
 7298POPC   C2B38372   2.236  41.606   8.250
 7298POPC   C3B38373   2.209  41.584   7.950
 7298POPC   C4B38374   2.282  41.548   7.650
 7299POPC   NC338375  26.825  38.502   9.450
 7299POPC   PO438376  26.798  38.435   9.150
 7299POPC   GL138377  26.865  38.423   8.850
 7299POPC   GL238378  26.926  38.418   8.850
 7299POPC   C1A38379  26.849  38.495   8.550
 7299POPC   D2A38380  26.770  38.433   8.250
 7299POPC   C3A38381  26.804  38.504   7.950
 7299POPC   C4A38382  26.852  38.431   7.650
 7299POPC   C1B38383  27.098  38.378   8.550
 7299POPC   C2B38384  27.058  38.376   8.250
 7299POPC   C3B38385  27.062  38.386   7.950
 7299POPC   C4B38386  27.084  38.409   7.650
 7300POPC   NC338387   3.544  29.888   9.450
 7300POPC   PO438388   3.580  29.873   9.150
 7300POPC   GL138389   3.575  29.942   8.850
 7300POPC   GL238390   3.411  29.967   8.850
 7300POPC   C1A38391   3.559  29.877   8.550
 7300POPC   D2A38392   3.542  29.967   8.250
 7300POPC   C3A38393   3.533  29.968   7.950
 7300POPC   C4A38394   3.536  29.924   7.650
 7300POPC   C1B38395   3.276  30.037   8.550
 7300POPC   C2B38396   3.253  29.953   8.250
 7300POPC   C3B38397   3.274  29.964   7.950
 7300POPC   C4B38398   3.318  29.979   7.650
 7301POPC   NC338399  29.147  20.591   9.450
 7301POPC   PO438400  29.185  20.612   9.150
 7301POPC   GL138401  29.158  20.623   8.850
 7301POPC   GL238402  29.250  20.562   8.850
 7301POPC   C1A38403  29.123  20.600   8.550
 7301POPC   D2A38404  29.120  20.562   8.250
 7301POPC   C3A38405  29.187  20.625   7.950
 7301POPC   C4A38406  29.124  20.562   7.650
 7301POPC   C1B38407  29.408  20.553   8.550
 7301POPC   C2B38408  29.344  20.485   8.250
 7301POPC   C3B38409  29.378  20.482   7.950
 7301POPC   C4B38410  29.415  20.534   7.650
 7302POPC   NC338411   8.993  26.841   9.450
 7302POPC   PO438412   9.000  26.829   9.150
 7302POPC   GL138413   8.957  26.841   8.850
 7302POPC   GL238414   8.849  26.739   8.850
 7302POPC   C1A38415   8.951  26.841   8.550
 7302POPC   D2A38416   8.948  26.791   8.250
 7302POPC   C3A38417   8.959  26.853   7.950
 7302POPC   C4A38418   8.977  26.845   7.650
 7302POPC   C1B38419   8.788  26.649   8.550
 7302POPC   C2B38420   8.712  26.706   8.250
 7302POPC   C3B38421   8.759  26.716   7.950
 7302POPC   C4B38422   8.771  26.706   7.650
 7303POPC   NC338423  39.202  31.463   9.450
 7303POPC   PO438424  39.251  31.495   9.150
 7303POPC   GL138425  39.190  31.467   8.850
 7303POPC   GL238426  39.199  31.550   8.850
 7303POPC   C1A38427  39.214  31.496   8.550
 7303POPC   D2A38428  39.266  31.489   8.250
 7303POPC   C3A38429  39.270  31.521   7.950
 7303POPC   C4A38430  39.190  31.491   7.650
 7303POPC   C1B38431  39.169  31.723   8.550
 7303POPC   C2B38432  39.174  31.737   8.250
 7303POPC   C3B38433  39.133  31.670   7.950
 7303POPC   C4B38434  39.129  31.727   7.650
 7304POPC   NC338435   6.622  13.650   9.450
 7304POPC   PO438436   6.624  13.582   9.150
 7304POPC   GL138437   6.649  13.592   8.850
 7304POPC   GL238438   6.491  13.695   8.850
 7304POPC   C1A38439   6.672  13.661   8.550
 7304POPC   D2A38440   6.638  13.643   8.250
 7304POPC   C3A38441   6.653  13.632   7.950
 7304POPC   C4A38442   6.680  13.610   7.650
 7304POPC   C1B38443   6.400  13.695   8.550
 7304POPC   C2B38444   6.401  13.764   8.250
 7304POPC   C3B38445   6.391  13.770   7.950
 7304POPC   C4B38446   6.450  13.688   7.650
 7305POPC   NC338447   6.667  19.080   9.450
 7305POPC   PO438448   6.675  19.065   9.150
 7305POPC   GL138449   6.660  19.038   8.850
 7305POPC   GL238450   6.733  19.157   8.850
 7305POPC   C1A38451   6.624  19.098   8.550
 7305POPC   D2A38452   6.674  19.013   8.250
 7305POPC   C3A38453   6.609  19.049   7.950
 7305POPC   C4A38454   6.660  19.012   7.650
 7305POPC   C1B38455   6.824  19.219   8.550
 7305POPC   C2B38456   6.830  19.254   8.250
 7305POPC   C3B38457   6.735  19.251   7.950
 7305POPC   C4B38458   6.753  19.296   7.650
 7306POPC   NC338459  30.738  10.509   9.450
 7306POPC   PO438460  30.740  10.529   9.150
 7306POPC   GL138461  30.686  10.573   8.850
 7306POPC   GL238462  30.824  10.579   8.850
 7306POPC   C1A38463  30.664  10.570   8.550
 7306POPC   D2A38464  30.655  10.558   8.250
 7306POPC   C3A38465  30.715  10.496   7.950
 7306POPC   C4A38466  30.674  10.482   7.650
 7306POPC   C1B38467  30.915  10.541   8.550
 7306POPC   C2B38468  30.954  10.503   8.250
 7306POPC   C3B38469  30.965  10.537   7.950
 7306POPC   C4B38470  30.939  10.508   7.650
 7307POPC   NC338471  10.475  37.707   9.450
 7307POPC   PO438472  10.506  37.685   9.150
 7307POPC   GL138473  10.533  37.646   8.850
 7307POPC   GL238474  10.580  37.853   8.850
 7307POPC   C1A38475  10.481  37.672   8.550
 7307POPC   D2A38476  10.555  37.709   8.250
 7307POPC   C3A38477  10.567  37.702   7.950
 7307POPC   C4A38478  10.499  37.687   7.650
 7307POPC   C1B38479  10.522  37.937   8.550
 7307POPC   C2B38480  10.598  37.891   8.250
 7307POPC   C3B38481  10.599  37.971   7.950
 7307POPC   C4B38482  10.584  37.930   7.650
 7308POPC   NC338483  21.347  38.422   9.450
 7308POPC   PO438484  21.420  38.409   9.150
 7308POPC   GL138485  21.342  38.456   8.850
 7308POPC   GL238486  21.241  38.497   8.850
 7308POPC   C1A38487  21.430  38.497   8.550
 7308POPC   D2A38488  21.360  38.460   8.250
 7308POPC   C3A38489  21.357  38.415   7.950
 7308POPC   C4A38490  21.428  38.441   7.650
 7308POPC   C1B38491  21.144  38.510   8.550
 7308POPC   C2B38492  21.183  38.473   8.250
 7308POPC   C3B38493  21.148  38.538   7.950
 7308POPC   C4B38494  21.171  38.488   7.650
 7309POPC   NC338495  15.152   8.940   9.450
 7309POPC   PO438496  15.156   8.924   9.150
 7309POPC   GL138497  15.160   8.945   8.850
 7309POPC   GL238498  15.037   9.066   8.850
 7309POPC   C1A38499  15.179   8.979   8.550
 7309POPC   D2A38500  15.206   8.982   8.250
 7309POPC   C3A38501  15.157   8.961   7.950
 7309POPC   C4A38502  15.170   8.943   7.650
 7309POPC   C1B38503  14.913   9.067   8.550
 7309POPC   C2B38504  14.921   9.094   8.250
 7309POPC   C3B38505  14.976   9.044   7.950
 7309POPC   C4B38506  14.950   9.095   7.650
 7310POPC   NC338507  18.264  41.571   9.450
 7310POPC   PO438508  18.280  41.553   9.150
 7310POPC   GL138509  18.270  41.548   8.850
 7310POPC   GL238510  18.211  41.696   8.850
 7310POPC   C1A38511  18.312  41.592   8.550
 7310POPC   D2A38512  18.235  41.582   8.250
 7310POPC   C3A38513  18.312  41.520   7.950
 7310POPC   C4A38514  18.309  41.521   7.650
 7310POPC   C1B38515  18.163  41.797   8.550
 7310POPC   C2B38516  18.233  41.812   8.250
 7310POPC   C3B38517  18.178  41.783   7.950
 7310POPC   C4B38518  18.183  41.826   7.650
 7311POPC   NC338519  22.182  38.445   9.450
 7311POPC   PO438520  22.199  38.416   9.150
 7311POPC   GL138521  22.174  38.470   8.850
 7311POPC   GL238522  22.042  38.508   8.850
 7311POPC   C1A38523  22.204  38.451   8.550
 7311POPC   D2A38524  22.180  38.461   8.250
 7311POPC   C3A38525  22.135  38.420   7.950
 7311POPC   C4A38526  22.205  38.456   7.650
 7311POPC   C1B38527  21.936  38.624   8.550
 7311POPC   C2B38528  21.951  38.538   8.250
 7311POPC   C3B38529  21.933  38.571   7.950
 7311POPC   C4B38530  21.910  38.617   7.650
 7312POPC   NC338531   8.187   9.706   9.450
 7312POPC   PO438532   8.169   9.727   9.150
 7312POPC   GL138533   8.211   9.738   8.850
 7312POPC   GL238534   8.050   9.766   8.850
 7312POPC   C1A38535   8.207   9.758   8.550
 7312POPC   D2A38536   8.184   9.701   8.250
 7312POPC   C3A38537   8.225   9.791   7.950
 7312POPC   C4A38538   8.200   9.783   7.650
 7312POPC   C1B38539   7.947   9.767   8.550
 7312POPC   C2B38540   7.938   9.783   8.250
 7312POPC   C3B38541   7.944   9.698   7.950
 7312POPC   C4B38542   7.965   9.776   7.650
 7313POPC   NC338543  25.251  17.483   9.450
 7313POPC   PO438544  25.307  17.526   9.150
 7313POPC   GL138545  25.311  17.475   8.850
 7313POPC   GL238546  25.137  17.511   8.850
 7313POPC   C1A38547  25.265  17.460   8.550
 7313POPC   D2A38548  25.255  17.478   8.250
 7313POPC   C3A38549  25.231  17.518   7.950
 7313POPC   C4A38550  25.280  17.509   7.650
 7313POPC   C1B38551  24.980  17.549   8.550
 7313POPC   C2B38552  25.025  17.553   8.250
 7313POPC   C3B38553  25.034  17.558   7.950
 7313POPC   C4B38554  25.048  17.580   7.650
 7314POPC   NC338555   2.792  43.896   9.450
 7314POPC   PO438556   2.738  43.885   9.150
 7314POPC   GL138557   2.716  43.908   8.850
 7314POPC   GL238558   2.719  43.811   8.850
 7314POPC   C1A38559   2.783  43.903   8.550
 7314POPC   D2A38560   2.792  43.919   8.250
 7314POPC   C3A38561   2.730  43.870   7.950
 7314POPC   C4A38562   2.747  43.843   7.650
 7314POPC   C1B38563   2.605  43.687   8.550
 7314POPC   C2B38564   2.668  43.716   8.250
 7314POPC   C3B38565   2.666  43.685   7.950
 7314POPC   C4B38566   2.627  43.690   7.650
 7315POPC   NC338567  26.767  39.202   9.450
 7315POPC   PO438568  26.806  39.225   9.150
 7315POPC   GL138569  26.787  39.194   8.850
 7315POPC   GL238570  26.852  39.377   8.850
 7315POPC   C1A38571  26.794  39.271   8.550
 7315POPC   D2A38572  26.773  39.252   8.250
 7315POPC   C3A38573  26.797  39.236   7.950
 7315POPC   C4A38574  26.827  39.272   7.650
 7315POPC   C1B38575  26.877  39.450   8.550
 7315POPC   C2B38576  26.908  39.478   8.250
 7315POPC   C3B38577  26.841  39.465   7.950
 7315POPC   C4B38578  26.824  39.453   7.650
 7316POPC   NC338579   3.506  26.782   9.450
 7316POPC   PO438580   3.503  26.846   9.150
 7316POPC   GL138581   3.535  26.808   8.850
 7316POPC   GL238582   3.439  26.885   8.850
 7316POPC   C1A38583   3.516  26.839   8.550
 7316POPC   D2A38584   3.527  26.777   8.250
 7316POPC   C3A38585   3.527  26.809   7.950
 7316POPC   C4A38586   3.564  26.768   7.650
 7316POPC   C1B38587   3.344  26.932   8.550
 7316POPC   C2B38588   3.349  26.982   8.250
 7316POPC   C3B38589   3.365  26.965   7.950
 7316POPC   C4B38590   3.329  26.983   7.650
 7317POPC   NC338591  36.949  23.674   9.450
 7317POPC   PO438592  36.887  23.718   9.150
 7317POPC   GL138593  36.854  23.701   8.850
 7317POPC   GL238594  36.944  23.647   8.850
 7317POPC   C1A38595  36.876  23.679   8.550
 7317POPC   D2A38596  36.951  23.671   8.250
 7317POPC   C3A38597  36.949  23.745   7.950
 7317POPC   C4A38598  36.886  23.762   7.650
 7317POPC   C1B38599  37.041  23.524   8.550
 7317POPC   C2B38600  37.060  23.529   8.250
 7317POPC   C3B38601  37.019  23.547   7.950
 7317POPC   C4B38602  37.079  23.553   7.650
 7318POPC   NC338603  44.658  15.209   9.450
 7318POPC   PO438604  44.646  15.161   9.150
 7318POPC   GL138605  44.701  15.222   8.850
 7318POPC   GL238606  44.775  15.224   8.850
 7318POPC   C1A38607  44.672  15.227   8.550
 7318POPC   D2A38608  44.688  15.199   8.250
 7318POPC   C3A38609  44.665  15.163   7.950
 7318POPC   C4A38610  44.652  15.156   7.650
 7318POPC   C1B38611  44.921  15.310   8.550
 7318POPC   C2B38612  44.914  15.343   8.250
 7318POPC   C3B38613  44.930  15.327   7.950
 7318POPC   C4B38614  44.862  15.267   7.650
 7319POPC   NC338615  12.883  32.975   9.450
 7319POPC   PO438616  12.857  33.048   9.150
 7319POPC   GL138617  12.869  32.990   8.850
 7319POPC   GL238618  12.846  32.949   8.850
 7319POPC   C1A38619  12.889  33.034   8.550
 7319POPC   D2A38620  12.854  33.043   8.250
 7319POPC   C3A38621  12.882  33.045   7.950
 7319POPC   C4A38622  12.853  33.056   7.650
 7319POPC   C1B38623  12.931  32.819   8.550
 7319POPC   C2B38624  12.877  32.793   8.250
 7319POPC   C3B38625  12.915  32.819   7.950
 7319POPC   C4B38626  12.902  32.817   7.650
 7320POPC   NC338627  12.887  20.602   9.450
 7320POPC   PO438628  12.882  20.645   9.150
 7320POPC   GL138629  12.829  20.600   8.850
 7320POPC   GL238630  12.865  20.440   8.850
 7320POPC   C1A38631  12.829  20.576   8.550
 7320POPC   D2A38632  12.849  20.571   8.250
 7320POPC   C3A38633  12.872  20.637   7.950
 7320POPC   C4A38634  12.852  20.568   7.650
 7320POPC   C1B38635  12.915  20.343   8.550
 7320POPC   C2B38636  12.885  20.339   8.250
 7320POPC   C3B38637  12.919  20.373   7.950
 7320POPC   C4B38638  12.861  20.390   7.650
 7321POPC   NC338639   9.016  38.434   9.450
 7321POPC   PO438640   8.941  38.445   9.150
 7321POPC   GL138641   9.013  38.503   8.850
 7321POPC   GL238642   9.108  38.449   8.850
 7321POPC   C1A38643   8.972  38.442   8.550
 7321POPC   D2A38644   8.928  38.469   8.250
 7321POPC   C3A38645   8.991  38.486   7.950
 7321POPC   C4A38646   8.938  38.498   7.650
 7321POPC   C1B38647   9.204  38.386   8.550
 7321POPC   C2B38648   9.208  38.365   8.250
 7321POPC   C3B38649   9.199  38.360   7.950
 7321POPC   C4B38650   9.225  38.374   7.650
 7322POPC   NC338651  19.810  22.146   9.450
 7322POPC   PO438652  19.858  22.181   9.150
 7322POPC   GL138653  19.840  22.182   8.850
 7322POPC   GL238654  19.833  22.056   8.850
 7322POPC   C1A38655  19.852  22.131   8.550
 7322POPC   D2A38656  19.844  22.199   8.250
 7322POPC   C3A38657  19.826  22.203   7.950
 7322POPC   C4A38658  19.798  22.173   7.650
 7322POPC   C1B38659  19.851  21.941   8.550
 7322POPC   C2B38660  19.875  21.920   8.250
 7322POPC   C3B38661  19.861  21.933   7.950
 7322POPC   C4B38662  19.858  21.898   7.650
 7323POPC   NC338663  13.620  24.447   9.450
 7323POPC   PO438664  13.580  24.482   9.150
 7323POPC   GL138665  13.633  24.507   8.850
 7323POPC   GL238666  13.647  24.652   8.850
 7323POPC   C1A38667  13.652  24.454   8.550
 7323POPC   D2A38668  13.596  24.536   8.250
 7323POPC   C3A38669  13.621  24.539   7.950
 7323POPC   C4A38670  13.611  24.537   7.650
 7323POPC   C1B38671  13.631  24.775   8.550
 7323POPC   C2B38672  13.607  24.713   8.250
 7323POPC   C3B38673  13.573  24.755   7.950
 7323POPC   C4B38674  13.582  24.761   7.650
 7324POPC   NC338675  29.189  31.512   9.450
 7324POPC   PO438676  29.111  31.519   9.150
 7324POPC   GL138677  29.173  31.495   8.850
 7324POPC   GL238678  29.186  31.377   8.850
 7324POPC   C1A38679  29.165  31.498   8.550
 7324POPC   D2A38680  29.154  31.495   8.250
 7324POPC   C3A38681  29.137  31.521   7.950
 7324POPC   C4A38682  29.177  31.476   7.650
 7324POPC   C1B38683  29.131  31.222   8.550
 7324POPC   C2B38684  29.174  31.212   8.250
 7324POPC   C3B38685  29.149  31.215   7.950
 7324POPC   C4B38686  29.161  31.209   7.650
 7325POPC   NC338687   9.707  34.562   9.450
 7325POPC   PO438688   9.731  34.585   9.150
 7325POPC   GL138689   9.775  34.607   8.850
 7325POPC   GL238690   9.829  34.441   8.850
 7325POPC   C1A38691   9.717  34.577   8.550
 7325POPC   D2A38692   9.733  34.585   8.250
 7325POPC   C3A38693   9.789  34.575   7.950
 7325POPC   C4A38694   9.717  34.530   7.650
 7325POPC   C1B38695   9.919  34.347   8.550
 7325POPC   C2B38696   9.862  34.417   8.250
 7325POPC   C3B38697   9.938  34.393   7.950
 7325POPC   C4B38698   9.917  34.419   7.650
 7326POPC   NC338699  36.859  43.119   9.450
 7326POPC   PO438700  36.951  43.079   9.150
 7326POPC   GL138701  36.892  43.112   8.850
 7326POPC   GL238702  37.033  43.130   8.850
 7326POPC   C1A38703  36.952  43.068   8.550
 7326POPC   D2A38704  36.933  43.151   8.250
 7326POPC   C3A38705  36.950  43.116   7.950
 7326POPC   C4A38706  36.932  43.075   7.650
 7326POPC   C1B38707  37.113  43.181   8.550
 7326POPC   C2B38708  37.144  43.174   8.250
 7326POPC   C3B38709  37.187  43.190   7.950
 7326POPC   C4B38710  37.153  43.182   7.650
 7327POPC   NC338711  14.423   2.026   9.450
 7327POPC   PO438712  14.380   1.942   9.150
 7327POPC   GL138713  14.383   2.008   8.850
 7327POPC   GL238714  14.307   2.007   8.850
 7327POPC   C1A38715  14.360   1.981   8.550
 7327POPC   D2A38716  14.418   1.950   8.250
 7327POPC   C3A38717  14.355   1.987   7.950
 7327POPC   C4A38718  14.375   1.970   7.650
 7327POPC   C1B38719  14.144   2.007   8.550
 7327POPC   C2B38720  14.179   1.920   8.250
 7327POPC   C3B38721  14.204   1.999   7.950
 7327POPC   C4B38722  14.204   1.942   7.650
 7328POPC   NC338723   8.176  39.985   9.450
 7328POPC   PO438724   8.241  40.004   9.150
 7328POPC   GL138725   8.203  40.012   8.850
 7328POPC   GL238726   8.307  39.906   8.850
 7328POPC   C1A38727   8.232  40.012   8.550
 7328POPC   D2A38728   8.201  40.015   8.250
 7328POPC   C3A38729   8.234  39.982   7.950
 7328POPC   C4A38730   8.239  39.991   7.650
 7328POPC   C1B38731   8.349  39.831   8.550
 7328POPC   C2B38732   8.365  39.769   8.250
 7328POPC   C3B38733   8.296  39.751   7.950
 7328POPC   C4B38734   8.358  39.772   7.650
 7329POPC   NC338735  27.575  12.826   9.450
 7329POPC   PO438736  27.580  12.855   9.150
 7329POPC   GL138737  27.578  12.819   8.850
 7329POPC   GL238738  27.554  12.779   8.850
 7329POPC   C1A38739  27.610  12.838   8.550
 7329POPC   D2A38740  27.556  12.837   8.250
 7329POPC   C3A38741  27.555  12.845   7.950
 7329POPC   C4A38742  27.611  12.824   7.650
 7329POPC   C1B38743  27.532  12.588   8.550
 7329POPC   C2B38744  27.506  12.649   8.250
 7329POPC   C3B38745  27.521  12.647   7.950
 7329POPC   C4B38746  27.526  12.628   7.650
 7330POPC   NC338747   8.208  15.982   9.450
 7330POPC   PO438748   8.206  15.920   9.150
 7330POPC   GL138749   8.194  15.907   8.850
 7330POPC   GL238750   8.339  15.918   8.850
 7330POPC   C1A38751   8.152  15.986   8.550
 7330POPC   D2A38752   8.159  15.974   8.250
 7330POPC   C3A38753   8.235  15.944   7.950
 7330POPC   C4A38754   8.204  15.916   7.650
 7330POPC   C1B38755   8.411  15.870   8.550
 7330POPC   C2B38756   8.391  15.894   8.250
 7330POPC   C3B38757   8.390  15.869   7.950
 7330POPC   C4B38758   8.408  15.863   7.650
 7331POPC   NC338759  23.753   9.764   9.450
 7331POPC   PO438760  23.748   9.743   9.150
 7331POPC   GL138761  23.695   9.792   8.850
 7331POPC   GL238762  23.587   9.664   8.850
 7331POPC   C1A38763  23.705   9.722   8.550
 7331POPC   D2A38764  23.733   9.774   8.250
 7331POPC   C3A38765  23.693   9.745   7.950
 7331POPC   C4A38766  23.705   9.702   7.650
 7331POPC   C1B38767  23.500   9.597   8.550
 7331POPC   C2B38768  23.533   9.578   8.250
 7331POPC   C3B38769  23.512   9.605   7.950
 7331POPC   C4B38770  23.543   9.581   7.650
 7332POPC   NC338771   6.687  32.292   9.450
 7332POPC   PO438772   6.610  32.282   9.150
 7332POPC   GL138773   6.635  32.201   8.850
 7332POPC   GL238774   6.771  32.208   8.850
 7332POPC   C1A38775   6.624  32.241   8.550
 7332POPC   D2A38776   6.683  32.210   8.250
 7332POPC   C3A38777   6.659  32.250   7.950
 7332POPC   C4A38778   6.692  32.235   7.650
 7332POPC   C1B38779   6.841  32.052   8.550
 7332POPC   C2B38780   6.838  32.144   8.250
 7332POPC   C3B38781   6.848  32.096   7.950
 7332POPC   C4B38782   6.844  32.126   7.650
 7333POPC   NC338783  36.102  27.557   9.450
 7333POPC   PO438784  36.123  27.579   9.150
 7333POPC   GL138785  36.112  27.549   8.850
 7333POPC   GL238786  36.278  27.526   8.850
 7333POPC   C1A38787  36.115  27.561   8.550
 7333POPC   D2A38788  36.087  27.544   8.250
 7333POPC   C3A38789  36.168  27.594   7.950
 7333POPC   C4A38790  36.119  27.553   7.650
 7333POPC   C1B38791  36.337  27.427   8.550
 7333POPC   C2B38792  36.342  27.436   8.250
 7333POPC   C3B38793  36.384  27.424   7.950
 7333POPC   C4B38794  36.349  27.449   7.650
 7334POPC   NC338795  24.481  30.675   9.450
 7334POPC   PO438796  24.532  30.739   9.150
 7334POPC   GL138797  24.448  30.675   8.850
 7334POPC   GL238798  24.479  30.826   8.850
 7334POPC   C1A38799  24.467  30.683   8.550
 7334POPC   D2A38800  24.523  30.698   8.250
 7334POPC   C3A38801  24.477  30.679   7.950
 7334POPC   C4A38802  24.470  30.648   7.650
 7334POPC   C1B38803  24.410  30.870   8.550
 7334POPC   C2B38804  24.368  30.871   8.250
 7334POPC   C3B38805  24.331  30.874   7.950
 7334POPC   C4B38806  24.424  30.879   7.650
 7335POPC   NC338807  12.105  33.773   9.450
 7335POPC   PO438808  12.050  33.814   9.150
 7335POPC   GL138809  12.081  33.832   8.850
 7335POPC   GL238810  12.021  33.685   8.850
 7335POPC   C1A38811  12.049  33.768   8.550
 7335POPC   D2A38812  12.105  33.808   8.250
 7335POPC   C3A38813  12.055  33.816   7.950
 7335POPC   C4A38814  12.091  33.807   7.650
 7335POPC   C1B38815  11.968  33.530   8.550
 7335POPC   C2B38816  12.012  33.544   8.250
 7335POPC   C3B38817  12.008  33.527   7.950
 7335POPC   C4B38818  12.030  33.562   7.650
 7336POPC   NC338819  33.757  19.091   9.450
 7336POPC   PO438820  33.837  19.039   9.150
 7336POPC   GL138821  33.771  19.067   8.850
 7336POPC   GL238822  33.895  19.192   8.850
 7336POPC   C1A38823  33.797  19.048   8.550
 7336POPC   D2A38824  33.763  19.021   8.250
 7336POPC   C3A38825  33.802  19.068   7.950
 7336POPC   C4A38826  33.755  19.038   7.650
 7336POPC   C1B38827  33.952  19.186   8.550
 7336POPC   C2B38828  33.982  19.191   8.250
 7336POPC   C3B38829  33.944  19.252   7.950
 7336POPC   C4B38830  34.000  19.192   7.650
 7337POPC   NC338831   5.916  39.191   9.450
 7337POPC   PO438832   5.843  39.262   9.150
 7337POPC   GL138833   5.829  39.222   8.850
 7337POPC   GL238834   5.841  39.107   8.850
 7337POPC   C1A38835   5.912  39.213   8.550
 7337POPC   D2A38836   5.819  39.193   8.250
 7337POPC   C3A38837   5.843  39.276   7.950
 7337POPC   C4A38838   5.876  39.272   7.650
 7337POPC   C1B38839   5.795  38.966   8.550
 7337POPC   C2B38840   5.742  39.049   8.250
 7337POPC   C3B38841   5.781  39.054   7.950
 7337POPC   C4B38842   5.778  39.011   7.650
 7338POPC   NC338843  43.089   1.250   9.450
 7338POPC   PO438844  43.125   1.177   9.150
 7338POPC   GL138845  43.127   1.199   8.850
 7338POPC   GL238846  43.141   1.376   8.850
 7338POPC   C1A38847  43.106   1.195   8.550
 7338POPC   D2A38848  43.093   1.171   8.250
 7338POPC   C3A38849  43.087   1.231   7.950
 7338POPC   C4A38850  43.142   1.219   7.650
 7338POPC   C1B38851  43.127   1.414   8.550
 7338POPC   C2B38852  43.184   1.463   8.250
 7338POPC   C3B38853  43.187   1.492   7.950
 7338POPC   C4B38854  43.188   1.412   7.650
 7339POPC   NC338855  21.370  22.181   9.450
 7339POPC   PO438856  21.338  22.204   9.150
 7339POPC   GL138857  21.350  22.205   8.850
 7339POPC   GL238858  21.508  22.200   8.850
 7339POPC   C1A38859  21.379  22.195   8.550
 7339POPC   D2A38860  21.404  22.172   8.250
 7339POPC   C3A38861  21.392  22.183   7.950
 7339POPC   C4A38862  21.395  22.185   7.650
 7339POPC   C1B38863  21.671  22.189   8.550
 7339POPC   C2B38864  21.606  22.185   8.250
 7339POPC   C3B38865  21.646  22.191   7.950
 7339POPC   C4B38866  21.676  22.158   7.650
 7340POPC   NC338867  40.019  22.198   9.450
 7340POPC   PO438868  39.996  22.209   9.150
 7340POPC   GL138869  40.043  22.151   8.850
 7340POPC   GL238870  39.984  21.997   8.850
 7340POPC   C1A38871  39.967  22.133   8.550
 7340POPC   D2A38872  40.029  22.143   8.250
 7340POPC   C3A38873  40.053  22.181   7.950
 7340POPC   C4A38874  39.961  22.176   7.650
 7340POPC   C1B38875  39.933  21.906   8.550
 7340POPC   C2B38876  39.932  21.904   8.250
 7340POPC   C3B38877  39.875  21.946   7.950
 7340POPC   C4B38878  39.967  21.901   7.650
 7341POPC   NC338879  43.932   2.796   9.450
 7341POPC   PO438880  43.876   2.722   9.150
 7341POPC   GL138881  43.931   2.742   8.850
 7341POPC   GL238882  43.799   2.701   8.850
 7341POPC   C1A38883  43.878   2.722   8.550
 7341POPC   D2A38884  43.895   2.774   8.250
 7341POPC   C3A38885  43.925   2.764   7.950
 7341POPC   C4A38886  43.891   2.742   7.650
 7341POPC   C1B38887  43.806   2.493   8.550
 7341POPC   C2B38888  43.736   2.558   8.250
 7341POPC   C3B38889  43.797   2.506   7.950
 7341POPC   C4B38890  43.819   2.551   7.650
 7342POPC   NC338891  16.757  17.551   9.450
 7342POPC   PO438892  16.776  17.495   9.150
 7342POPC   GL138893  16.705  17.477   8.850
 7342POPC   GL238894  16.732  17.351   8.850
 7342POPC   C1A38895  16.685  17.557   8.550
 7342POPC   D2A38896  16.692  17.554   8.250
 7342POPC   C3A38897  16.775  17.472   7.950
 7342POPC   C4A38898  16.738  17.465   7.650
 7342POPC   C1B38899  16.724  17.283   8.550
 7342POPC   C2B38900  16.671  17.232   8.250
 7342POPC   C3B38901  16.715  17.262   7.950
 7342POPC   C4B38902  16.713  17.296   7.650
 7343POPC   NC338903  39.214   8.950   9.450
 7343POPC   PO438904  39.273   8.957   9.150
 7343POPC   GL138905  39.243   8.946   8.850
 7343POPC   GL238906  39.292   8.878   8.850
 7343POPC   C1A38907  39.217   9.015   8.550
 7343POPC   D2A38908  39.193   8.941   8.250
 7343POPC   C3A38909  39.185   8.927   7.950
 7343POPC   C4A38910  39.233   8.948   7.650
 7343POPC   C1B38911  39.402   8.775   8.550
 7343POPC   C2B38912  39.376   8.739   8.250
 7343POPC   C3B38913  39.387   8.747   7.950
 7343POPC   C4B38914  39.323   8.775   7.650
 7344POPC   NC338915  12.061  27.564   9.450
 7344POPC   PO438916  12.028  27.617   9.150
 7344POPC   GL138917  12.073  27.559   8.850
 7344POPC   GL238918  12.235  27.520   8.850
 7344POPC   C1A38919  12.029  27.547   8.550
 7344POPC   D2A38920  12.107  27.589   8.250
 7344POPC   C3A38921  12.123  27.571   7.950
 7344POPC   C4A38922  12.045  27.558   7.650
 7344POPC   C1B38923  12.274  27.468   8.550
 7344POPC   C2B38924  12.328  27.544   8.250
 7344POPC   C3B38925  12.322  27.476   7.950
 7344POPC   C4B38926  12.330  27.512   7.650
 7345POPC   NC338927   7.430  23.702   9.450
 7345POPC   PO438928   7.406  23.727   9.150
 7345POPC   GL138929   7.404  23.726   8.850
 7345POPC   GL238930   7.458  23.798   8.850
 7345POPC   C1A38931   7.402  23.668   8.550
 7345POPC   D2A38932   7.435  23.691   8.250
 7345POPC   C3A38933   7.409  23.762   7.950
 7345POPC   C4A38934   7.471  23.720   7.650
 7345POPC   C1B38935   7.402  23.923   8.550
 7345POPC   C2B38936   7.420  23.930   8.250
 7345POPC   C3B38937   7.396  23.976   7.950
 7345POPC   C4B38938   7.428  23.960   7.650
 7346POPC   NC338939  37.648  18.324   9.450
 7346POPC   PO438940  37.648  18.324   9.150
 7346POPC   GL138941  37.714  18.245   8.850
 7346POPC   GL238942  37.517  18.275   8.850
 7346POPC   C1A38943  37.681  18.319   8.550
 7346POPC   D2A38944  37.720  18.318   8.250
 7346POPC   C3A38945  37.644  18.284   7.950
 7346POPC   C4A38946  37.717  18.332   7.650
 7346POPC   C1B38947  37.429  18.145   8.550
 7346POPC   C2B38948  37.431  18.157   8.250
 7346POPC   C3B38949  37.464  18.177   7.950
 7346POPC   C4B38950  37.497  18.201   7.650
 7347POPC   NC338951  33.750  41.564   9.450
 7347POPC   PO438952  33.752  41.571   9.150
 7347POPC   GL138953  33.837  41.537   8.850
 7347POPC   GL238954  33.720  41.649   8.850
 7347POPC   C1A38955  33.850  41.513   8.550
 7347POPC   D2A38956  33.796  41.590   8.250
 7347POPC   C3A38957  33.765  41.570   7.950
 7347POPC   C4A38958  33.846  41.560   7.650
 7347POPC   C1B38959  33.607  41.701   8.550
 7347POPC   C2B38960  33.613  41.753   8.250
 7347POPC   C3B38961  33.674  41.745   7.950
 7347POPC   C4B38962  33.578  41.761   7.650
 7348POPC   NC338963  43.131  12.125   9.450
 7348POPC   PO438964  43.132  12.060   9.150
 7348POPC   GL138965  43.086  12.100   8.850
 7348POPC   GL238966  42.978  12.071   8.850
 7348POPC   C1A38967  43.122  12.054   8.550
 7348POPC   D2A38968  43.130  12.047   8.250
 7348POPC   C3A38969  43.122  12.026   7.950
 7348POPC   C4A38970  43.077  12.067   7.650
 7348POPC   C1B38971  42.830  12.066   8.550
 7348POPC   C2B38972  42.865  12.050   8.250
 7348POPC   C3B38973  42.879  12.080   7.950
 7348POPC   C4B38974  42.891  12.011   7.650
 7349POPC   NC338975   9.792  26.805   9.450
 7349POPC   PO438976   9.773  26.793   9.150
 7349POPC   GL138977   9.759  26.854   8.850
 7349POPC   GL238978   9.763  26.655   8.850
 7349POPC   C1A38979   9.759  26.795   8.550
 7349POPC   D2A38980   9.763  26.842   8.250
 7349POPC   C3A38981   9.712  26.832   7.950
 7349POPC   C4A38982   9.706  26.770   7.650
 7349POPC   C1B38983   9.841  26.570   8.550
 7349POPC   C2B38984   9.838  26.589   8.250
 7349POPC   C3B38985   9.820  26.555   7.950
 7349POPC   C4B38986   9.817  26.536   7.650
 7350POPC   NC338987   4.363   9.784   9.450
 7350POPC   PO438988   4.285   9.769   9.150
 7350POPC   GL138989   4.306   9.784   8.850
 7350POPC   GL238990   4.491   9.749   8.850
 7350POPC   C1A38991   4.328   9.729   8.550
 7350POPC   D2A38992   4.349   9.703   8.250
 7350POPC   C3A38993   4.357   9.768   7.950
 7350POPC   C4A38994   4.336   9.750   7.650
 7350POPC   C1B38995   4.599   9.708   8.550
 7350POPC   C2B38996   4.574   9.753   8.250
 7350POPC   C3B38997   4.596   9.721   7.950
 7350POPC   C4B38998   4.546   9.770   7.650
 7351POPC   NC338999  29.138   7.394   9.450
 7351POPC   PO439000  29.159   7.393   9.150
 7351POPC   GL139001  29.146   7.388   8.850
 7351POPC   GL239002  29.167   7.518   8.850
 7351POPC   C1A39003  29.171   7.377   8.550
 7351POPC   D2A39004  29.126   7.412   8.250
 7351POPC   C3A39005  29.117   7.469   7.950
 7351POPC   C4A39006  29.164   7.467   7.650
 7351POPC   C1B39007  29.188   7.621   8.550
 7351POPC   C2B39008  29.197   7.686   8.250
 7351POPC   C3B39009  29.207   7.644   7.950
 7351POPC   C4B39010  29.148   7.651   7.650
 7352POPC   NC339011   1.967  13.648   9.450
 7352POPC   PO439012   2.021  13.629   9.150
 7352POPC   GL139013   1.941  13.581   8.850
 7352POPC   GL239014   1.947  13.480   8.850
 7352POPC   C1A39015   1.958  13.596   8.550
 7352POPC   D2A39016   2.017  13.650   8.250
 7352POPC   C3A39017   1.982  13.646   7.950
 7352POPC   C4A39018   2.009  13.619   7.650
 7352POPC   C1B39019   1.880  13.436   8.550
 7352POPC   C2B39020   1.935  13.409   8.250
 7352POPC   C3B39021   1.889  13.367   7.950
 7352POPC   C4B39022   1.908  13.430   7.650
 7353POPC   NC339023  19.041  44.640   9.450
 7353POPC   PO439024  19.052  44.624   9.150
 7353POPC   GL139025  19.067  44.676   8.850
 7353POPC   GL239026  18.936  44.622   8.850
 7353POPC   C1A39027  19.085  44.642   8.550
 7353POPC   D2A39028  19.064  44.656   8.250
 7353POPC   C3A39029  19.022  44.705   7.950
 7353POPC   C4A39030  19.091  44.680   7.650
 7353POPC   C1B39031  18.855  44.695   8.550
 7353POPC   C2B39032  18.841  44.640   8.250
 7353POPC   C3B39033  18.814  44.695   7.950
 7353POPC   C4B39034  18.777  44.625   7.650
 7354POPC   NC339035   0.453  26.074   9.450
 7354POPC   PO439036   0.402  26.024   9.150
 7354POPC   GL139037   0.391  26.014   8.850
 7354POPC   GL239038   0.492  26.171   8.850
 7354POPC   C1A39039   0.396  26.039   8.550
 7354POPC   D2A39040   0.434  25.999   8.250
 7354POPC   C3A39041   0.442  26.074   7.950
 7354POPC   C4A39042   0.395  26.032   7.650
 7354POPC   C1B39043   0.555  26.313   8.550
 7354POPC   C2B39044   0.502  26.253   8.250
 7354POPC   C3B39045   0.563  26.235   7.950
 7354POPC   C4B39046   0.508  26.296   7.650
 7355POPC   NC339047  28.360  43.918   9.450
 7355POPC   PO439048  28.406  43.933   9.150
 7355POPC   GL139049  28.320  43.900   8.850
 7355POPC   GL239050  28.444  43.834   8.850
 7355POPC   C1A39051  28.358  43.872   8.550
 7355POPC   D2A39052  28.319  43.888   8.250
 7355POPC   C3A39053  28.367  43.849   7.950
 7355POPC   C4A39054  28.410  43.901   7.650
 7355POPC   C1B39055  28.536  43.664   8.550
 7355POPC   C2B39056  28.478  43.704   8.250
 7355POPC   C3B39057  28.520  43.710   7.950
 7355POPC   C4B39058  28.559  43.730   7.650
 7356POPC   NC339059   2.761  43.138   9.450
 7356POPC   PO439060   2.725  43.132   9.150
 7356POPC   GL139061   2.758  43.122   8.850
 7356POPC   GL239062   2.877  43.222   8.850
 7356POPC   C1A39063   2.760  43.149   8.550
 7356POPC   D2A39064   2.746  43.070   8.250
 7356POPC   C3A39065   2.759  43.108   7.950
 7356POPC   C4A39066   2.741  43.082   7.650
 7356POPC   C1B39067   2.979  43.325   8.550
 7356POPC   C2B39068   2.912  43.304   8.250
 7356POPC   C3B39069   2.976  43.322   7.950
 7356POPC   C4B39070   2.956  43.246   7.650
 7357POPC   NC339071   1.982  43.926   9.450
 7357POPC   PO439072   2.019  43.845   9.150
 7357POPC   GL139073   1.940  43.882   8.850
 7357POPC   GL239074   2.046  43.759   8.850
 7357POPC   C1A39075   1.940  43.848   8.550
 7357POPC   D2A39076   2.019  43.903   8.250
 7357POPC   C3A39077   1.997  43.909   7.950
 7357POPC   C4A39078   2.015  43.858   7.650
 7357POPC   C1B39079   2.120  43.616   8.550
 7357POPC   C2B39080   2.088  43.695   8.250
 7357POPC   C3B39081   2.039  43.675   7.950
 7357POPC   C4B39082   2.124  43.679   7.650
 7358POPC   NC339083  40.821  33.046   9.450
 7358POPC   PO439084  40.756  33.024   9.150
 7358POPC   GL139085  40.806  33.027   8.850
 7358POPC   GL239086  40.654  33.119   8.850
 7358POPC   C1A39087  40.746  33.072   8.550
 7358POPC   D2A39088  40.829  32.996   8.250
 7358POPC   C3A39089  40.812  33.038   7.950
 7358POPC   C4A39090  40.765  32.991   7.650
 7358POPC   C1B39091  40.574  33.216   8.550
 7358POPC   C2B39092  40.584  33.220   8.250
 7358POPC   C3B39093  40.654  33.178   7.950
 7358POPC   C4B39094  40.627  33.242   7.650
 7359POPC   NC339095  22.188  41.567   9.450
 7359POPC   PO439096  22.210  41.515   9.150
 7359POPC   GL139097  22.193  41.596   8.850
 7359POPC   GL239098  22.138  41.649   8.850
 7359POPC   C1A39099  22.198  41.574   8.550
 7359POPC   D2A39100  22.169  41.586   8.250
 7359POPC   C3A39101  22.144  41.513   7.950
 7359POPC   C4A39102  22.143  41.591   7.650
 7359POPC   C1B39103  22.117  41.803   8.550
 7359POPC   C2B39104  22.061  41.769   8.250
 7359POPC   C3B39105  22.053  41.778   7.950
 7359POPC   C4B39106  22.051  41.800   7.650
 7360POPC   NC339107  16.685  34.580   9.450
 7360POPC   PO439108  16.774  34.594   9.150
 7360POPC   GL139109  16.724  34.578   8.850
 7360POPC   GL239110  16.871  34.636   8.850
 7360POPC   C1A39111  16.704  34.618   8.550
 7360POPC   D2A39112  16.759  34.588   8.250
 7360POPC   C3A39113  16.753  34.589   7.950
 7360POPC   C4A39114  16.766  34.619   7.650
 7360POPC   C1B39115  16.941  34.747   8.550
 7360POPC   C2B39116  16.941  34.707   8.250
 7360POPC   C3B39117  16.942  34.726   7.950
 7360POPC   C4B39118  16.963  34.705   7.650
 7361POPC   NC339119  39.987  30.743   9.450
 7361POPC   PO439120  39.966  30.655   9.150
 7361POPC   GL139121  39.978  30.651   8.850
 7361POPC   GL239122  39.958  30.773   8.850
 7361POPC   C1A39123  40.007  30.706   8.550
 7361POPC   D2A39124  40.041  30.740   8.250
 7361POPC   C3A39125  40.031  30.686   7.950
 7361POPC   C4A39126  39.958  30.688   7.650
 7361POPC   C1B39127  40.035  30.992   8.550
 7361POPC   C2B39128  39.981  30.972   8.250
 7361POPC   C3B39129  39.957  30.910   7.950
 7361POPC   C4B39130  39.997  30.930   7.650
 7362POPC   NC339131   5.906  33.843   9.450
 7362POPC   PO439132   5.901  33.836   9.150
 7362POPC   GL139133   5.844  33.841   8.850
 7362POPC   GL239134   5.887  33.932   8.850
 7362POPC   C1A39135   5.839  33.789   8.550
 7362POPC   D2A39136   5.874  33.829   8.250
 7362POPC   C3A39137   5.906  33.806   7.950
 7362POPC   C4A39138   5.885  33.779   7.650
 7362POPC   C1B39139   5.856  34.064   8.550
 7362POPC   C2B39140   5.846  34.062   8.250
 7362POPC   C3B39141   5.894  34.053   7.950
 7362POPC   C4B39142   5.901  34.096   7.650
 7363POPC   NC339143  29.964   7.385   9.450
 7363POPC   PO439144  29.926   7.466   9.150
 7363POPC   GL139145  29.919   7.444   8.850
 7363POPC   GL239146  29.908   7.254   8.850
 7363POPC   C1A39147  29.956   7.435   8.550
 7363POPC   D2A39148  29.922   7.424   8.250
 7363POPC   C3A39149  29.925   7.420   7.950
 7363POPC   C4A39150  29.927   7.404   7.650
 7363POPC   C1B39151  29.833   7.184   8.550
 7363POPC   C2B39152  29.854   7.151   8.250
 7363POPC   C3B39153  29.817   7.156   7.950
 7363POPC   C4B39154  29.824   7.223   7.650
 7364POPC   NC339155  12.105  29.957   9.450
 7364POPC   PO439156  12.027  29.947   9.150
 7364POPC   GL139157  12.080  29.951   8.850
 7364POPC   GL239158  11.913  29.915   8.850
 7364POPC   C1A39159  12.085  29.885   8.550
 7364POPC   D2A39160  12.080  29.937   8.250
 7364POPC   C3A39161  12.113  29.959   7.950
 7364POPC   C4A39162  12.119  29.901   7.650
 7364POPC   C1B39163  11.834  29.901   8.550
 7364POPC   C2B39164  11.792  29.859   8.250
 7364POPC   C3B39165  11.826  29.847   7.950
 7364POPC   C4B39166  11.872  29.889   7.650
 7365POPC   NC339167  32.236   5.917   9.450
 7365POPC   PO439168  32.215   5.892   9.150
 7365POPC   GL139169  32.201   5.890   8.850
 7365POPC   GL239170  32.170   5.981   8.850
 7365POPC   C1A39171  32.256   5.904   8.550
 7365POPC   D2A39172  32.268   5.914   8.250
 7365POPC   C3A39173  32.221   5.878   7.950
 7365POPC   C4A39174  32.230   5.827   7.650
 7365POPC   C1B39175  32.139   6.074   8.550
 7365POPC   C2B39176  32.157   6.117   8.250
 7365POPC   C3B39177  32.176   6.070   7.950
 7365POPC   C4B39178  32.134   6.063   7.650
 7366POPC   NC339179   5.916  28.399   9.450
 7366POPC   PO439180   5.833  28.396   9.150
 7366POPC   GL139181   5.912  28.333   8.850
 7366POPC   GL239182   5.877  28.209   8.850
 7366POPC   C1A39183   5.876  28.394   8.550
 7366POPC   D2A39184   5.866  28.383   8.250
 7366POPC   C3A39185   5.916  28.395   7.950
 7366POPC   C4A39186   5.904  28.352   7.650
 7366POPC   C1B39187   5.863  28.124   8.550
 7366POPC   C2B39188   5.893  28.137   8.250
 7366POPC   C3B39189   5.910  28.162   7.950
 7366POPC   C4B39190   5.951  28.091   7.650
 7367POPC   NC339191  31.475   8.947   9.450
 7367POPC   PO439192  31.471   8.946   9.150
 7367POPC   GL139193  31.423   8.930   8.850
 7367POPC   GL239194  31.410   9.044   8.850
 7367POPC   C1A39195  31.463   9.004   8.550
 7367POPC   D2A39196  31.456   8.989   8.250
 7367POPC   C3A39197  31.452   9.019   7.950
 7367POPC   C4A39198  31.492   8.937   7.650
 7367POPC   C1B39199  31.308   9.191   8.550
 7367POPC   C2B39200  31.286   9.171   8.250
 7367POPC   C3B39201  31.351   9.203   7.950
 7367POPC   C4B39202  31.333   9.208   7.650
 7368POPC   NC339203  29.153   9.794   9.450
 7368POPC   PO439204  29.184   9.775   9.150
 7368POPC   GL139205  29.113   9.778   8.850
 7368POPC   GL239206  29.175   9.885   8.850
 7368POPC   C1A39207  29.166   9.773   8.550
 7368POPC   D2A39208  29.146   9.759   8.250
 7368POPC   C3A39209  29.117   9.762   7.950
 7368POPC   C4A39210  29.141   9.707   7.650
 7368POPC   C1B39211  29.310   9.903   8.550
 7368POPC   C2B39212  29.267   9.927   8.250
 7368POPC   C3B39213  29.252   9.949   7.950
 7368POPC   C4B39214  29.333   9.915   7.650
 7369POPC   NC339215   2.766   6.678   9.450
 7369POPC   PO439216   2.731   6.675   9.150
 7369POPC   GL139217   2.769   6.603   8.850
 7369POPC   GL239218   2.691   6.535   8.850
 7369POPC   C1A39219   2.721   6.663   8.550
 7369POPC   D2A39220   2.724   6.624   8.250
 7369POPC   C3A39221   2.760   6.658   7.950
 7369POPC   C4A39222   2.739   6.636   7.650
 7369POPC   C1B39223   2.582   6.436   8.550
 7369POPC   C2B39224   2.611   6.469   8.250
 7369POPC   C3B39225   2.619   6.474   7.950
 7369POPC   C4B39226   2.562   6.426   7.650
 7370POPC   NC339227  19.868  10.528   9.450
 7370POPC   PO439228  19.795  10.499   9.150
 7370POPC   GL139229  19.789  10.571   8.850
 7370POPC   GL239230  19.941  10.610   8.850
 7370POPC   C1A39231  19.823  10.523   8.550
 7370POPC   D2A39232  19.871  10.491   8.250
 7370POPC   C3A39233  19.830  10.526   7.950
 7370POPC   C4A39234  19.883  10.570   7.650
 7370POPC   C1B39235  20.031  10.652   8.550
 7370POPC   C2B39236  20.068  10.656   8.250
 7370POPC   C3B39237  20.068  10.678   7.950
 7370POPC   C4B39238  20.035  10.690   7.650
 7371POPC   NC339239   4.297  41.516   9.450
 7371POPC   PO439240   4.358  41.582   9.150
 7371POPC   GL139241   4.281  41.569   8.850
 7371POPC   GL239242   4.419  41.585   8.850
 7371POPC   C1A39243   4.358  41.563   8.550
 7371POPC   D2A39244   4.292  41.514   8.250
 7371POPC   C3A39245   4.304  41.579   7.950
 7371POPC   C4A39246   4.323  41.539   7.650
 7371POPC   C1B39247   4.582  41.585   8.550
 7371POPC   C2B39248   4.575  41.603   8.250
 7371POPC   C3B39249   4.590  41.583   7.950
 7371POPC   C4B39250   4.607  41.574   7.650
 7372POPC   NC339251  13.675  19.812   9.450
 7372POPC   PO439252  13.615  19.844   9.150
 7372POPC   GL139253  13.650  19.818   8.850
 7372POPC   GL239254  13.541  19.773   8.850
 7372POPC   C1A39255  13.640  19.844   8.550
 7372POPC   D2A39256  13.634  19.824   8.250
 7372POPC   C3A39257  13.639  19.866   7.950
 7372POPC   C4A39258  13.677  19.839   7.650
 7372POPC   C1B39259  13.391  19.721   8.550
 7372POPC   C2B39260  13.373  19.765   8.250
 7372POPC   C3B39261  13.357  19.734   7.950
 7372POPC   C4B39262  13.439  19.754   7.650
 7373POPC   NC339263   6.622  15.948   9.450
 7373POPC   PO439264   6.619  15.973   9.150
 7373POPC   GL139265   6.666  15.956   8.850
 7373POPC   GL239266   6.749  15.850   8.850
 7373POPC   C1A39267   6.649  15.919   8.550
 7373POPC   D2A39268   6.687  15.909   8.250
 7373POPC   C3A39269   6.681  15.999   7.950
 7373POPC   C4A39270   6.638  15.920   7.650
 7373POPC   C1B39271   6.845  15.761   8.550
 7373POPC   C2B39272   6.828  15.811   8.250
 7373POPC   C3B39273   6.848  15.825   7.950
 7373POPC   C4B39274   6.859  15.795   7.650
 7374POPC   NC339275  36.156  32.995   9.450
 7374POPC   PO439276  36.134  33.029   9.150
 7374POPC   GL139277  36.110  33.044   8.850
 7374POPC   GL239278  36.217  33.086   8.850
 7374POPC   C1A39279  36.172  33.052   8.550
 7374POPC   D2A39280  36.101  33.030   8.250
 7374POPC   C3A39281  36.158  32.976   7.950
 7374POPC   C4A39282  36.087  33.061   7.650
 7374POPC   C1B39283  36.376  33.150   8.550
 7374POPC   C2B39284  36.296  33.133   8.250
 7374POPC   C3B39285  36.325  33.161   7.950
 7374POPC   C4B39286  36.369  33.147   7.650
 7375POPC   NC339287  11.295   3.538   9.450
 7375POPC   PO439288  11.344   3.564   9.150
 7375POPC   GL139289  11.256   3.543   8.850
 7375POPC   GL239290  11.353   3.628   8.850
 7375POPC   C1A39291  11.287   3.589   8.550
 7375POPC   D2A39292  11.255   3.554   8.250
 7375POPC   C3A39293  11.283   3.575   7.950
 7375POPC   C4A39294  11.263   3.561   7.650
 7375POPC   C1B39295  11.475   3.643   8.550
 7375POPC   C2B39296  11.515   3.638   8.250
 7375POPC   C3B39297  11.514   3.719   7.950
 7375POPC   C4B39298  11.530   3.649   7.650
 7376POPC   NC339299  29.958  36.864   5.550
 7376POPC   PO439300  29.952  36.948   5.850
 7376POPC   GL139301  29.893  36.867   6.150
 7376POPC   GL239302  30.033  36.815   6.150
 7376POPC   C1A39303  29.880  36.896   6.450
 7376POPC   D2A39304  29.896  36.907   6.750
 7376POPC   C3A39305  29.904  36.931   7.050
 7376POPC   C4A39306  29.922  36.895   7.350
 7376POPC   C1B39307  30.036  36.731   6.450
 7376POPC   C2B39308  30.097  36.712   6.750
 7376POPC   C3B39309  30.056  36.727   7.050
 7376POPC   C4B39310  30.052  36.730   7.350
 7377POPC   NC339311  34.541  18.245   5.550
 7377POPC   PO439312  34.575  18.320   5.850
 7377POPC   GL139313  34.604  18.298   6.150
 7377POPC   GL239314  34.424  18.347   6.150
 7377POPC   C1A39315  34.540  18.322   6.450
 7377POPC   D2A39316  34.589  18.280   6.750
 7377POPC   C3A39317  34.584  18.250   7.050
 7377POPC   C4A39318  34.552  18.274   7.350
 7377POPC   C1B39319  34.297  18.386   6.450
 7377POPC   C2B39320  34.354  18.307   6.750
 7377POPC   C3B39321  34.329  18.322   7.050
 7377POPC   C4B39322  34.357  18.396   7.350
 7378POPC   NC339323   1.980  27.617   5.550
 7378POPC   PO439324   1.995  27.575   5.850
 7378POPC   GL139325   2.009  27.635   6.150
 7378POPC   GL239326   2.125  27.470   6.150
 7378POPC   C1A39327   2.033  27.576   6.450
 7378POPC   D2A39328   2.012  27.579   6.750
 7378POPC   C3A39329   2.006  27.563   7.050
 7378POPC   C4A39330   2.007  27.546   7.350
 7378POPC   C1B39331   2.112  27.446   6.450
 7378POPC   C2B39332   2.137  27.427   6.750
 7378POPC   C3B39333   2.147  27.451   7.050
 7378POPC   C4B39334   2.148  27.451   7.350
 7379POPC   NC339335   5.076   2.772   5.550
 7379POPC   PO439336   5.104   2.716   5.850
 7379POPC   GL139337   5.061   2.807   6.150
 7379POPC   GL239338   5.154   2.684   6.150
 7379POPC   C1A39339   5.115   2.741   6.450
 7379POPC   D2A39340   5.142   2.724   6.750
 7379POPC   C3A39341   5.126   2.722   7.050
 7379POPC   C4A39342   5.050   2.814   7.350
 7379POPC   C1B39343   5.319   2.589   6.450
 7379POPC   C2B39344   5.282   2.574   6.750
 7379POPC   C3B39345   5.276   2.651   7.050
 7379POPC   C4B39346   5.269   2.595   7.350
 7380POPC   NC339347  12.895   8.960   5.550
 7380POPC   PO439348  12.847   8.948   5.850
 7380POPC   GL139349  12.887   8.951   6.150
 7380POPC   GL239350  12.846   8.858   6.150
 7380POPC   C1A39351  12.900   9.011   6.450
 7380POPC   D2A39352  12.887   8.941   6.750
 7380POPC   C3A39353  12.874   8.988   7.050
 7380POPC   C4A39354  12.824   8.995   7.350
 7380POPC   C1B39355  12.809   8.726   6.450
 7380POPC   C2B39356  12.828   8.710   6.750
 7380POPC   C3B39357  12.855   8.743   7.050
 7380POPC   C4B39358  12.787   8.754   7.350
 7381POPC   NC339359  11.344  24.456   5.550
 7381POPC   PO439360  11.271  24.531   5.850
 7381POPC   GL139361  11.252  24.493   6.150
 7381POPC   GL239362  11.357  24.655   6.150
 7381POPC   C1A39363  11.259  24.538   6.450
 7381POPC   D2A39364  11.339  24.528   6.750
 7381POPC   C3A39365  11.344  24.539   7.050
 7381POPC   C4A39366  11.317  24.534   7.350
 7381POPC   C1B39367  11.313  24.763   6.450
 7381POPC   C2B39368  11.353  24.768   6.750
 7381POPC   C3B39369  11.372  24.747   7.050
 7381POPC   C4B39370  11.325  24.763   7.350
 7382POPC   NC339371  21.373  24.479   5.550
 7382POPC   PO439372  21.360  24.461   5.850
 7382POPC   GL139373  21.433  24.512   6.150
 7382POPC   GL239374  21.392  24.630   6.150
 7382POPC   C1A39375  21.430  24.520   6.450
 7382POPC   D2A39376  21.366  24.440   6.750
 7382POPC   C3A39377  21.356  24.509   7.050
 7382POPC   C4A39378  21.384  24.481   7.350
 7382POPC   C1B39379  21.340  24.771   6.450
 7382POPC   C2B39380  21.309  24.740   6.750
 7382POPC   C3B39381  21.354  24.733   7.050
 7382POPC   C4B39382  21.357  24.692   7.350
 7383POPC   NC339383   8.190  16.746   5.550
 7383POPC   PO439384   8.202  16.690   5.850
 7383POPC   GL139385   8.240  16.767   6.150
 7383POPC   GL239386   8.202  16.834   6.150
 7383POPC   C1A39387   8.162  16.744   6.450
 7383POPC   D2A39388   8.239  16.738   6.750
 7383POPC   C3A39389   8.221  16.728   7.050
 7383POPC   C4A39390   8.164  16.719   7.350
 7383POPC   C1B39391   8.305  16.968   6.450
 7383POPC   C2B39392   8.281  16.970   6.750
 7383POPC   C3B39393   8.238  16.977   7.050
 7383POPC   C4B39394   8.259  17.005   7.350
 7384POPC   NC339395  19.089   0.406   5.550
 7384POPC   PO439396  19.087   0.450   5.850
 7384POPC   GL139397  19.010   0.456   6.150
 7384POPC   GL239398  19.100   0.339   6.150
 7384POPC   C1A39399  19.107   0.448   6.450
 7384POPC   D2A39400  19.031   0.477   6.750
 7384POPC   C3A39401  19.039   0.452   7.050
 7384POPC   C4A39402  19.077   0.442   7.350
 7384POPC   C1B39403  19.135   0.224   6.450
 7384POPC   C2B39404  19.163   0.165   6.750
 7384POPC   C3B39405  19.146   0.194   7.050
 7384POPC   C4B39406  19.091   0.227   7.350
 7385POPC   NC339407  21.354  15.221   5.550
 7385POPC   PO439408  21.427  15.145   5.850
 7385POPC   GL139409  21.351  15.177   6.150
 7385POPC   GL239410  21.342  15.285   6.150
 7385POPC   C1A39411  21.338  15.185   6.450
 7385POPC   D2A39412  21.363  15.181   6.750
 7385POPC   C3A39413  21.381  15.130   7.050
 7385POPC   C4A39414  21.361  15.225   7.350
 7385POPC   C1B39415  21.395  15.429   6.450
 7385POPC   C2B39416  21.386  15.475   6.750
 7385POPC   C3B39417  21.420  15.397   7.050
 7385POPC   C4B39418  21.405  15.404   7.350
 7386POPC   NC339419  21.358   9.008   5.550
 7386POPC   PO439420  21.414   9.001   5.850
 7386POPC   GL139421  21.418   8.937   6.150
 7386POPC   GL239422  21.372   8.807   6.150
 7386POPC   C1A39423  21.358   8.924   6.450
 7386POPC   D2A39424  21.431   8.961   6.750
 7386POPC   C3A39425  21.340   8.946   7.050
 7386POPC   C4A39426  21.383   8.993   7.350
 7386POPC   C1B39427  21.394   8.739   6.450
 7386POPC   C2B39428  21.349   8.685   6.750
 7386POPC   C3B39429  21.358   8.735   7.050
 7386POPC   C4B39430  21.348   8.720   7.350
 7387POPC   NC339431   6.599  31.508   5.550
 7387POPC   PO439432   6.611  31.449   5.850
 7387POPC   GL139433   6.678  31.505   6.150
 7387POPC   GL239434   6.738  31.601   6.150
 7387POPC   C1A39435   6.677  31.452   6.450
 7387POPC   D2A39436   6.688  31.487   6.750
 7387POPC   C3A39437   6.623  31.498   7.050
 7387POPC   C4A39438   6.605  31.509   7.350
 7387POPC   C1B39439   6.752  31.732   6.450
 7387POPC   C2B39440   6.747  31.656   6.750
 7387POPC   C3B39441   6.753  31.673   7.050
 7387POPC   C4B39442   6.810  31.665   7.350
 7388POPC   NC339443   7.425  20.643   5.550
 7388POPC   PO439444   7.459  20.600   5.850
 7388POPC   GL139445   7.404  20.580   6.150
 7388POPC   GL239446   7.502  20.481   6.150
 7388POPC   C1A39447   7.417  20.579   6.450
 7388POPC   D2A39448   7.431  20.651   6.750
 7388POPC   C3A39449   7.407  20.572   7.050
 7388POPC   C4A39450   7.438  20.625   7.350
 7388POPC   C1B39451   7.529  20.395   6.450
 7388POPC   C2B39452   7.454  20.384   6.750
 7388POPC   C3B39453   7.511  20.371   7.050
 7388POPC   C4B39454   7.447  20.365   7.350
 7389POPC   NC339455   2.800  29.149   5.550
 7389POPC   PO439456   2.723  29.148   5.850
 7389POPC   GL139457   2.772  29.150   6.150
 7389POPC   GL239458   2.707  29.035   6.150
 7389POPC   C1A39459   2.743  29.145   6.450
 7389POPC   D2A39460   2.763  29.131   6.750
 7389POPC   C3A39461   2.775  29.163   7.050
 7389POPC   C4A39462   2.725  29.102   7.350
 7389POPC   C1B39463   2.558  28.991   6.450
 7389POPC   C2B39464   2.531  29.031   6.750
 7389POPC   C3B39465   2.535  29.026   7.050
 7389POPC   C4B39466   2.577  28.951   7.350
 7390POPC   NC339467  32.297   4.293   5.550
 7390POPC   PO439468  32.297   4.280   5.850
 7390POPC   GL139469  32.264   4.324   6.150
 7390POPC   GL239470  32.119   4.407   6.150
 7390POPC   C1A39471  32.224   4.276   6.450
 7390POPC   D2A39472  32.243   4.290   6.750
 7390POPC   C3A39473  32.297   4.342   7.050
 7390POPC   C4A39474  32.271   4.291   7.350
 7390POPC   C1B39475  32.075   4.439   6.450
 7390POPC   C2B39476  32.040   4.456   6.750
 7390POPC   C3B39477  31.990   4.416   7.050
 7390POPC   C4B39478  32.022   4.436   7.350
 7391POPC   NC339479  22.167  26.850   5.550
 7391POPC   PO439480  22.168  26.843   5.850
 7391POPC   GL139481  22.186  26.807   6.150
 7391POPC   GL239482  22.215  26.741   6.150
 7391POPC   C1A39483  22.158  26.833   6.450
 7391POPC   D2A39484  22.175  26.798   6.750
 7391POPC   C3A39485  22.180  26.847   7.050
 7391POPC   C4A39486  22.178  26.828   7.350
 7391POPC   C1B39487  22.332  26.667   6.450
 7391POPC   C2B39488  22.339  26.649   6.750
 7391POPC   C3B39489  22.294  26.633   7.050
 7391POPC   C4B39490  22.377  26.670   7.350
 7392POPC   NC339491  18.256   0.481   5.550
 7392POPC   PO439492  18.267   0.422   5.850
 7392POPC   GL139493  18.283   0.432   6.150
 7392POPC   GL239494  18.142   0.415   6.150
 7392POPC   C1A39495  18.301   0.463   6.450
 7392POPC   D2A39496  18.302   0.449   6.750
 7392POPC   C3A39497  18.265   0.397   7.050
 7392POPC   C4A39498  18.300   0.454   7.350
 7392POPC   C1B39499  18.051   0.398   6.450
 7392POPC   C2B39500  18.024   0.355   6.750
 7392POPC   C3B39501  18.087   0.335   7.050
 7392POPC   C4B39502  18.057   0.353   7.350
 7393POPC   NC339503  21.391  34.553   5.550
 7393POPC   PO439504  21.355  34.618   5.850
 7393POPC   GL139505  21.418  34.621   6.150
 7393POPC   GL239506  21.409  34.731   6.150
 7393POPC   C1A39507  21.338  34.594   6.450
 7393POPC   D2A39508  21.367  34.554   6.750
 7393POPC   C3A39509  21.411  34.535   7.050
 7393POPC   C4A39510  21.389  34.589   7.350
 7393POPC   C1B39511  21.489  34.865   6.450
 7393POPC   C2B39512  21.444  34.794   6.750
 7393POPC   C3B39513  21.467  34.863   7.050
 7393POPC   C4B39514  21.399  34.827   7.350
 7394POPC   NC339515   8.232   8.218   5.550
 7394POPC   PO439516   8.216   8.183   5.850
 7394POPC   GL139517   8.232   8.177   6.150
 7394POPC   GL239518   8.132   8.229   6.150
 7394POPC   C1A39519   8.246   8.148   6.450
 7394POPC   D2A39520   8.168   8.207   6.750
 7394POPC   C3A39521   8.200   8.229   7.050
 7394POPC   C4A39522   8.185   8.207   7.350
 7394POPC   C1B39523   8.002   8.343   6.450
 7394POPC   C2B39524   7.986   8.369   6.750
 7394POPC   C3B39525   7.955   8.331   7.050
 7394POPC   C4B39526   8.006   8.325   7.350
 7395POPC   NC339527  39.266  23.671   5.550
 7395POPC   PO439528  39.215  23.726   5.850
 7395POPC   GL139529  39.202  23.698   6.150
 7395POPC   GL239530  39.379  23.597   6.150
 7395POPC   C1A39531  39.199  23.762   6.450
 7395POPC   D2A39532  39.183  23.712   6.750
 7395POPC   C3A39533  39.250  23.692   7.050
 7395POPC   C4A39534  39.196  23.735   7.350
 7395POPC   C1B39535  39.383  23.557   6.450
 7395POPC   C2B39536  39.446  23.532   6.750
 7395POPC   C3B39537  39.444  23.569   7.050
 7395POPC   C4B39538  39.448  23.546   7.350
 7396POPC   NC339539  32.298  27.609   5.550
 7396POPC   PO439540  32.287  27.594   5.850
 7396POPC   GL139541  32.269  27.619   6.150
 7396POPC   GL239542  32.232  27.460   6.150
 7396POPC   C1A39543  32.230  27.590   6.450
 7396POPC   D2A39544  32.233  27.639   6.750
 7396POPC   C3A39545  32.220  27.578   7.050
 7396POPC   C4A39546  32.275  27.593   7.350
 7396POPC   C1B39547  32.269  27.297   6.450
 7396POPC   C2B39548  32.250  27.303   6.750
 7396POPC   C3B39549  32.273  27.368   7.050
 7396POPC   C4B39550  32.230  27.305   7.350
 7397POPC   NC339551  35.354  31.460   5.550
 7397POPC   PO439552  35.359  31.505   5.850
 7397POPC   GL139553  35.327  31.454   6.150
 7397POPC   GL239554  35.447  31.436   6.150
 7397POPC   C1A39555  35.354  31.473   6.450
 7397POPC   D2A39556  35.357  31.452   6.750
 7397POPC   C3A39557  35.354  31.504   7.050
 7397POPC   C4A39558  35.330  31.519   7.350
 7397POPC   C1B39559  35.600  31.383   6.450
 7397POPC   C2B39560  35.557  31.381   6.750
 7397POPC   C3B39561  35.576  31.407   7.050
 7397POPC   C4B39562  35.605  31.408   7.350
 7398POPC   NC339563  12.848  21.352   5.550
 7398POPC   PO439564  12.860  21.393   5.850
 7398POPC   GL139565  12.850  21.435   6.150
 7398POPC   GL239566  12.700  21.383   6.150
 7398POPC   C1A39567  12.852  21.392   6.450
 7398POPC   D2A39568  12.830  21.353   6.750
 7398POPC   C3A39569  12.828  21.345   7.050
 7398POPC   C4A39570  12.879  21.426   7.350
 7398POPC   C1B39571  12.625  21.352   6.450
 7398POPC   C2B39572  12.584  21.269   6.750
 7398POPC   C3B39573  12.589  21.331   7.050
 7398POPC   C4B39574  12.605  21.356   7.350
 7399POPC   NC339575  18.247  23.669   5.550
 7399POPC   PO439576  18.293  23.693   5.850
 7399POPC   GL139577  18.263  23.712   6.150
 7399POPC   GL239578  18.301  23.604   6.150
 7399POPC   C1A39579  18.316  23.694   6.450
 7399POPC   D2A39580  18.241  23.763   6.750
 7399POPC   C3A39581  18.288  23.714   7.050
 7399POPC   C4A39582  18.237  23.672   7.350
 7399POPC   C1B39583  18.404  23.506   6.450
 7399POPC   C2B39584  18.425  23.527   6.750
 7399POPC   C3B39585  18.376  23.443   7.050
 7399POPC   C4B39586  18.352  23.471   7.350
 7400POPC   NC339587  41.584  32.215   5.550
 7400POPC   PO439588  41.571  32.283   5.850
 7400POPC   GL139589  41.540  32.247   6.150
 7400POPC   GL239590  41.642  32.178   6.150
 7400POPC   C1A39591  41.516  32.252   6.450
 7400POPC   D2A39592  41.530  32.271   6.750
 7400POPC   C3A39593  41.598  32.281   7.050
 7400POPC   C4A39594  41.529  32.272   7.350
 7400POPC   C1B39595  41.711  32.106   6.450
 7400POPC   C2B39596  41.753  32.063   6.750
 7400POPC   C3B39597  41.725  32.118   7.050
 7400POPC   C4B39598  41.737  32.094   7.350
 7401POPC   NC339599  42.304  32.992   5.550
 7401POPC   PO439600  42.348  33.005   5.850
 7401POPC   GL139601  42.295  32.983   6.150
 7401POPC   GL239602  42.477  33.036   6.150
 7401POPC   C1A39603  42.305  33.065   6.450
 7401POPC   D2A39604  42.331  33.052   6.750
 7401POPC   C3A39605  42.353  33.021   7.050
 7401POPC   C4A39606  42.295  33.067   7.350
 7401POPC   C1B39607  42.608  32.976   6.450
 7401POPC   C2B39608  42.593  32.968   6.750
 7401POPC   C3B39609  42.540  33.007   7.050
 7401POPC   C4B39610  42.588  32.979   7.350
 7402POPC   NC339611   0.481  24.502   5.550
 7402POPC   PO439612   0.399  24.450   5.850
 7402POPC   GL139613   0.431  24.508   6.150
 7402POPC   GL239614   0.400  24.656   6.150
 7402POPC   C1A39615   0.405  24.504   6.450
 7402POPC   D2A39616   0.412  24.517   6.750
 7402POPC   C3A39617   0.403  24.442   7.050
 7402POPC   C4A39618   0.485  24.460   7.350
 7402POPC   C1B39619   0.366  24.750   6.450
 7402POPC   C2B39620   0.398  24.720   6.750
 7402POPC   C3B39621   0.391  24.766   7.050
 7402POPC   C4B39622   0.378  24.784   7.350
 7403POPC   NC339623  10.490  16.754   5.550
 7403POPC   PO439624  10.500  16.758   5.850
 7403POPC   GL139625  10.547  16.686   6.150
 7403POPC   GL239626  10.671  16.669   6.150
 7403POPC   C1A39627  10.478  16.726   6.450
 7403POPC   D2A39628  10.569  16.736   6.750
 7403POPC   C3A39629  10.564  16.746   7.050
 7403POPC   C4A39630  10.549  16.756   7.350
 7403POPC   C1B39631  10.748  16.633   6.450
 7403POPC   C2B39632  10.790  16.675   6.750
 7403POPC   C3B39633  10.779  16.700   7.050
 7403POPC   C4B39634  10.779  16.618   7.350
 7404POPC   NC339635  21.395  31.441   5.550
 7404POPC   PO439636  21.428  31.487   5.850
 7404POPC   GL139637  21.419  31.426   6.150
 7404POPC   GL239638  21.409  31.598   6.150
 7404POPC   C1A39639  21.412  31.519   6.450
 7404POPC   D2A39640  21.370  31.496   6.750
 7404POPC   C3A39641  21.400  31.455   7.050
 7404POPC   C4A39642  21.409  31.499   7.350
 7404POPC   C1B39643  21.470  31.738   6.450
 7404POPC   C2B39644  21.426  31.699   6.750
 7404POPC   C3B39645  21.481  31.720   7.050
 7404POPC   C4B39646  21.506  31.723   7.350
 7405POPC   NC339647   7.456  34.617   5.550
 7405POPC   PO439648   7.406  34.549   5.850
 7405POPC   GL139649   7.402  34.581   6.150
 7405POPC   GL239650   7.410  34.430   6.150
 7405POPC   C1A39651   7.464  34.528   6.450
 7405POPC   D2A39652   7.410  34.553   6.750
 7405POPC   C3A39653   7.422  34.528   7.050
 7405POPC   C4A39654   7.403  34.554   7.350
 7405POPC   C1B39655   7.454  34.319   6.450
 7405POPC   C2B39656   7.475  34.314   6.750
 7405POPC   C3B39657   7.469  34.321   7.050
 7405POPC   C4B39658   7.400  34.372   7.350
 7406POPC   NC339659  22.136   0.404   5.550
 7406POPC   PO439660  22.167   0.400   5.850
 7406POPC   GL139661  22.198   0.391   6.150
 7406POPC   GL239662  22.329   0.451   6.150
 7406POPC   C1A39663  22.114   0.398   6.450
 7406POPC   D2A39664  22.157   0.401   6.750
 7406POPC   C3A39665  22.144   0.406   7.050
 7406POPC   C4A39666  22.126   0.401   7.350
 7406POPC   C1B39667  22.379   0.467   6.450
 7406POPC   C2B39668  22.429   0.436   6.750
 7406POPC   C3B39669  22.366   0.490   7.050
 7406POPC   C4B39670  22.450   0.486   7.350
 7407POPC   NC339671  39.217  43.082   5.550
 7407POPC   PO439672  39.219  43.118   5.850
 7407POPC   GL139673  39.197  43.068   6.150
 7407POPC   GL239674  39.359  43.072   6.150
 7407POPC   C1A39675  39.210  43.107   6.450
 7407POPC   D2A39676  39.248  43.113   6.750
 7407POPC   C3A39677  39.251  43.068   7.050
 7407POPC   C4A39678  39.193  43.112   7.350
 7407POPC   C1B39679  39.412  42.989   6.450
 7407POPC   C2B39680  39.457  42.999   6.750
 7407POPC   C3B39681  39.470  42.931   7.050
 7407POPC   C4B39682  39.453  42.963   7.350
 7408POPC   NC339683  33.800  30.666   5.550
 7408POPC   PO439684  33.789  30.732   5.850
 7408POPC   GL139685  33.843  30.716   6.150
 7408POPC   GL239686  33.896  30.604   6.150
 7408POPC   C1A39687  33.772  30.701   6.450
 7408POPC   D2A39688  33.835  30.741   6.750
 7408POPC   C3A39689  33.824  30.724   7.050
 7408POPC   C4A39690  33.784  30.666   7.350
 7408POPC   C1B39691  34.038  30.585   6.450
 7408POPC   C2B39692  34.005  30.634   6.750
 7408POPC   C3B39693  34.021  30.590   7.050
 7408POPC   C4B39694  34.017  30.641   7.350
 7409POPC   NC339695  15.162  38.415   5.550
 7409POPC   PO439696  15.202  38.457   5.850
 7409POPC   GL139697  15.142  38.500   6.150
 7409POPC   GL239698  15.101  38.528   6.150
 7409POPC   C1A39699  15.142  38.492   6.450
 7409POPC   D2A39700  15.155  38.440   6.750
 7409POPC   C3A39701  15.139  38.460   7.050
 7409POPC   C4A39702  15.173  38.443   7.350
 7409POPC   C1B39703  15.078  38.646   6.450
 7409POPC   C2B39704  15.069  38.654   6.750
 7409POPC   C3B39705  15.117  38.652   7.050
 7409POPC   C4B39706  15.092  38.703   7.350
 7410POPC   NC339707  32.292  19.824   5.550
 7410POPC   PO439708  32.253  19.834   5.850
 7410POPC   GL139709  32.288  19.863   6.150
 7410POPC   GL239710  32.361  19.727   6.150
 7410POPC   C1A39711  32.276  19.878   6.450
 7410POPC   D2A39712  32.218  19.881   6.750
 7410POPC   C3A39713  32.221  19.790   7.050
 7410POPC   C4A39714  32.210  19.851   7.350
 7410POPC   C1B39715  32.479  19.708   6.450
 7410POPC   C2B39716  32.505  19.723   6.750
 7410POPC   C3B39717  32.413  19.716   7.050
 7410POPC   C4B39718  32.446  19.716   7.350
 7411POPC   NC339719   4.292  19.017   5.550
 7411POPC   PO439720   4.271  19.103   5.850
 7411POPC   GL139721   4.343  19.054   6.150
 7411POPC   GL239722   4.455  19.159   6.150
 7411POPC   C1A39723   4.278  19.011   6.450
 7411POPC   D2A39724   4.330  19.056   6.750
 7411POPC   C3A39725   4.268  19.033   7.050
 7411POPC   C4A39726   4.300  19.066   7.350
 7411POPC   C1B39727   4.538  19.154   6.450
 7411POPC   C2B39728   4.542  19.135   6.750
 7411POPC   C3B39729   4.562  19.190   7.050
 7411POPC   C4B39730   4.519  19.190   7.350
 7412POPC   NC339731  38.453  12.064   5.550
 7412POPC   PO439732  38.499  12.040   5.850
 7412POPC   GL139733  38.448  12.037   6.150
 7412POPC   GL239734  38.490  12.215   6.150
 7412POPC   C1A39735  38.436  12.103   6.450
 7412POPC   D2A39736  38.452  12.095   6.750
 7412POPC   C3A39737  38.426  12.097   7.050
 7412POPC   C4A39738  38.503  12.050   7.350
 7412POPC   C1B39739  38.525  12.314   6.450
 7412POPC   C2B39740  38.498  12.359   6.750
 7412POPC   C3B39741  38.471  12.372   7.050
 7412POPC   C4B39742  38.444  12.346   7.350
 7413POPC   NC339743  36.160  29.114   5.550
 7413POPC   PO439744  36.095  29.154   5.850
 7413POPC   GL139745  36.154  29.120   6.150
 7413POPC   GL239746  36.145  29.053   6.150
 7413POPC   C1A39747  36.147  29.108   6.450
 7413POPC   D2A39748  36.143  29.108   6.750
 7413POPC   C3A39749  36.174  29.110   7.050
 7413POPC   C4A39750  36.079  29.144   7.350
 7413POPC   C1B39751  36.104  28.935   6.450
 7413POPC   C2B39752  36.031  28.870   6.750
 7413POPC   C3B39753  36.097  28.853   7.050
 7413POPC   C4B39754  36.104  28.949   7.350
 7414POPC   NC339755  22.188  34.599   5.550
 7414POPC   PO439756  22.180  34.607   5.850
 7414POPC   GL139757  22.165  34.562   6.150
 7414POPC   GL239758  22.225  34.497   6.150
 7414POPC   C1A39759  22.165  34.592   6.450
 7414POPC   D2A39760  22.171  34.540   6.750
 7414POPC   C3A39761  22.159  34.590   7.050
 7414POPC   C4A39762  22.163  34.594   7.350
 7414POPC   C1B39763  22.354  34.446   6.450
 7414POPC   C2B39764  22.377  34.468   6.750
 7414POPC   C3B39765  22.338  34.418   7.050
 7414POPC   C4B39766  22.343  34.383   7.350
 7415POPC   NC339767  24.505  22.115   5.550
 7415POPC   PO439768  24.480  22.184   5.850
 7415POPC   GL139769  24.519  22.198   6.150
 7415POPC   GL239770  24.551  22.231   6.150
 7415POPC   C1A39771  24.454  22.146   6.450
 7415POPC   D2A39772  24.443  22.136   6.750
 7415POPC   C3A39773  24.464  22.175   7.050
 7415POPC   C4A39774  24.462  22.194   7.350
 7415POPC   C1B39775  24.679  22.340   6.450
 7415POPC   C2B39776  24.690  22.328   6.750
 7415POPC   C3B39777  24.654  22.361   7.050
 7415POPC   C4B39778  24.632  22.385   7.350
 7416POPC   NC339779  36.936  40.043   5.550
 7416POPC   PO439780  36.919  39.973   5.850
 7416POPC   GL139781  36.935  40.040   6.150
 7416POPC   GL239782  36.791  39.931   6.150
 7416POPC   C1A39783  36.937  40.017   6.450
 7416POPC   D2A39784  36.916  40.023   6.750
 7416POPC   C3A39785  36.856  39.980   7.050
 7416POPC   C4A39786  36.907  39.991   7.350
 7416POPC   C1B39787  36.736  39.855   6.450
 7416POPC   C2B39788  36.747  39.883   6.750
 7416POPC   C3B39789  36.740  39.873   7.050
 7416POPC   C4B39790  36.742  39.848   7.350
 7417POPC   NC339791  36.922   8.213   5.550
 7417POPC   PO439792  36.901   8.162   5.850
 7417POPC   GL139793  36.867   8.243   6.150
 7417POPC   GL239794  36.779   8.200   6.150
 7417POPC   C1A39795  36.925   8.169   6.450
 7417POPC   D2A39796  36.904   8.184   6.750
 7417POPC   C3A39797  36.950   8.201   7.050
 7417POPC   C4A39798  36.948   8.157   7.350
 7417POPC   C1B39799  36.687   8.229   6.450
 7417POPC   C2B39800  36.704   8.300   6.750
 7417POPC   C3B39801  36.666   8.303   7.050
 7417POPC   C4B39802  36.691   8.292   7.350
 7418POPC   NC339803  39.257   9.741   5.550
 7418POPC   PO439804  39.221   9.736   5.850
 7418POPC   GL139805  39.197   9.763   6.150
 7418POPC   GL239806  39.141   9.761   6.150
 7418POPC   C1A39807  39.265   9.715   6.450
 7418POPC   D2A39808  39.242   9.701   6.750
 7418POPC   C3A39809  39.239   9.700   7.050
 7418POPC   C4A39810  39.222   9.710   7.350
 7418POPC   C1B39811  39.046   9.815   6.450
 7418POPC   C2B39812  39.022   9.891   6.750
 7418POPC   C3B39813  39.021   9.841   7.050
 7418POPC   C4B39814  38.967   9.818   7.350
 7419POPC   NC339815  21.421  33.786   5.550
 7419POPC   PO439816  21.373  33.825   5.850
 7419POPC   GL139817  21.430  33.766   6.150
 7419POPC   GL239818  21.349  33.630   6.150
 7419POPC   C1A39819  21.419  33.816   6.450
 7419POPC   D2A39820  21.368  33.754   6.750
 7419POPC   C3A39821  21.413  33.794   7.050
 7419POPC   C4A39822  21.374  33.787   7.350
 7419POPC   C1B39823  21.334  33.545   6.450
 7419POPC   C2B39824  21.361  33.522   6.750
 7419POPC   C3B39825  21.356  33.595   7.050
 7419POPC   C4B39826  21.360  33.549   7.350
 7420POPC   NC339827  44.635  26.857   5.550
 7420POPC   PO439828  44.694  26.792   5.850
 7420POPC   GL139829  44.646  26.809   6.150
 7420POPC   GL239830  44.584  26.806   6.150
 7420POPC   C1A39831  44.634  26.858   6.450
 7420POPC   D2A39832  44.684  26.828   6.750
 7420POPC   C3A39833  44.663  26.789   7.050
 7420POPC   C4A39834  44.613  26.839   7.350
 7420POPC   C1B39835  44.392  26.767   6.450
 7420POPC   C2B39836  44.407  26.806   6.750
 7420POPC   C3B39837  44.443  26.832   7.050
 7420POPC   C4B39838  44.457  26.822   7.350
 7421POPC   NC339839  15.220  32.264   5.550
 7421POPC   PO439840  15.187  32.228   5.850
 7421POPC   GL139841  15.148  32.237   6.150
 7421POPC   GL239842  15.231  32.163   6.150
 7421POPC   C1A39843  15.190  32.275   6.450
 7421POPC   D2A39844  15.173  32.259   6.750
 7421POPC   C3A39845  15.151  32.237   7.050
 7421POPC   C4A39846  15.192  32.245   7.350
 7421POPC   C1B39847  15.218  32.015   6.450
 7421POPC   C2B39848  15.229  32.058   6.750
 7421POPC   C3B39849  15.311  32.061   7.050
 7421POPC   C4B39850  15.267  31.974   7.350
 7422POPC   NC339851  22.932   5.120   5.550
 7422POPC   PO439852  22.955   5.083   5.850
 7422POPC   GL139853  22.947   5.073   6.150
 7422POPC   GL239854  23.067   5.197   6.150
 7422POPC   C1A39855  22.931   5.057   6.450
 7422POPC   D2A39856  22.930   5.062   6.750
 7422POPC   C3A39857  22.936   5.078   7.050
 7422POPC   C4A39858  22.948   5.126   7.350
 7422POPC   C1B39859  23.149   5.248   6.450
 7422POPC   C2B39860  23.164   5.178   6.750
 7422POPC   C3B39861  23.175   5.221   7.050
 7422POPC   C4B39862  23.124   5.247   7.350
 7423POPC   NC339863  41.529  37.716   5.550
 7423POPC   PO439864  41.510  37.706   5.850
 7423POPC   GL139865  41.580  37.710   6.150
 7423POPC   GL239866  41.707  37.620   6.150
 7423POPC   C1A39867  41.567  37.650   6.450
 7423POPC   D2A39868  41.584  37.695   6.750
 7423POPC   C3A39869  41.548  37.688   7.050
 7423POPC   C4A39870  41.518  37.720   7.350
 7423POPC   C1B39871  41.796  37.550   6.450
 7423POPC   C2B39872  41.759  37.577   6.750
 7423POPC   C3B39873  41.769  37.632   7.050
 7423POPC   C4B39874  41.754  37.596   7.350
 7424POPC   NC339875  33.788  27.593   5.550
 7424POPC   PO439876  33.779  27.593   5.850
 7424POPC   GL139877  33.766  27.563   6.150
 7424POPC   GL239878  33.914  27.597   6.150
 7424POPC   C1A39879  33.808  27.584   6.450
 7424POPC   D2A39880  33.845  27.567   6.750
 7424POPC   C3A39881  33.821  27.547   7.050
 7424POPC   C4A39882  33.780  27.559   7.350
 7424POPC   C1B39883  34.070  27.575   6.450
 7424POPC   C2B39884  34.084  27.582   6.750
 7424POPC   C3B39885  34.034  27.572   7.050
 7424POPC   C4B39886  34.037  27.531   7.350
 7425POPC   NC339887  36.891  24.506   5.550
 7425POPC   PO439888  36.947  24.455   5.850
 7425POPC   GL139889  36.854  24.503   6.150
 7425POPC   GL239890  37.007  24.444   6.150
 7425POPC   C1A39891  36.907  24.539   6.450
 7425POPC   D2A39892  36.913  24.453   6.750
 7425POPC   C3A39893  36.948  24.515   7.050
 7425POPC   C4A39894  36.870  24.494   7.350
 7425POPC   C1B39895  37.035  24.341   6.450
 7425POPC   C2B39896  37.041  24.277   6.750
 7425POPC   C3B39897  37.031  24.326   7.050
 7425POPC   C4B39898  37.075  24.324   7.350
 7426POPC   NC339899   5.127   7.468   5.550
 7426POPC   PO439900   5.094   7.437   5.850
 7426POPC   GL139901   5.109   7.438   6.150
 7426POPC   GL239902   5.147   7.515   6.150
 7426POPC   C1A39903   5.135   7.455   6.450
 7426POPC   D2A39904   5.049   7.388   6.750
 7426POPC   C3A39905   5.048   7.452   7.050
 7426POPC   C4A39906   5.101   7.391   7.350
 7426POPC   C1B39907   5.115   7.626   6.450
 7426POPC   C2B39908   5.097   7.672   6.750
 7426POPC   C3B39909   5.141   7.699   7.050
 7426POPC   C4B39910   5.137   7.628   7.350
 7427POPC   NC339911  33.059  38.499   5.550
 7427POPC   PO439912  32.995  38.418   5.850
 7427POPC   GL139913  33.027  38.485   6.150
 7427POPC   GL239914  32.950  38.518   6.150
 7427POPC   C1A39915  33.012  38.464   6.450
 7427POPC   D2A39916  32.995  38.461   6.750
 7427POPC   C3A39917  32.983  38.478   7.050
 7427POPC   C4A39918  32.974  38.461   7.350
 7427POPC   C1B39919  32.858  38.585   6.450
 7427POPC   C2B39920  32.824  38.610   6.750
 7427POPC   C3B39921  32.824  38.604   7.050
 7427POPC   C4B39922  32.854  38.543   7.350
 7428POPC   NC339923  29.145  11.309   5.550
 7428POPC   PO439924  29.157  11.307   5.850
 7428POPC   GL139925  29.146  11.317   6.150
 7428POPC   GL239926  29.127  11.408   6.150
 7428POPC   C1A39927  29.182  11.274   6.450
 7428POPC   D2A39928  29.149  11.341   6.750
 7428POPC   C3A39929  29.166  11.340   7.050
 7428POPC   C4A39930  29.108  11.324   7.350
 7428POPC   C1B39931  29.133  11.568   6.450
 7428POPC   C2B39932  29.188  11.570   6.750
 7428POPC   C3B39933  29.136  11.588   7.050
 7428POPC   C4B39934  29.197  11.549   7.350
 7429POPC   NC339935  27.575  11.261   5.550
 7429POPC   PO439936  27.597  11.291   5.850
 7429POPC   GL139937  27.569  11.318   6.150
 7429POPC   GL239938  27.672  11.199   6.150
 7429POPC   C1A39939  27.643  11.252   6.450
 7429POPC   D2A39940  27.620  11.317   6.750
 7429POPC   C3A39941  27.572  11.343   7.050
 7429POPC   C4A39942  27.621  11.322   7.350
 7429POPC   C1B39943  27.800  11.157   6.450
 7429POPC   C2B39944  27.771  11.120   6.750
 7429POPC   C3B39945  27.835  11.183   7.050
 7429POPC   C4B39946  27.817  11.169   7.350
 7430POPC   NC339947  43.837  39.975   5.550
 7430POPC   PO439948  43.857  40.046   5.850
 7430POPC   GL139949  43.916  40.050   6.150
 7430POPC   GL239950  43.862  40.142   6.150
 7430POPC   C1A39951  43.906  39.999   6.450
 7430POPC   D2A39952  43.880  39.978   6.750
 7430POPC   C3A39953  43.933  40.037   7.050
 7430POPC   C4A39954  43.839  40.001   7.350
 7430POPC   C1B39955  43.943  40.266   6.450
 7430POPC   C2B39956  43.869  40.263   6.750
 7430POPC   C3B39957  43.913  40.246   7.050
 7430POPC   C4B39958  43.888  40.293   7.350
 7431POPC   NC339959  23.694   1.982   5.550
 7431POPC   PO439960  23.759   1.964   5.850
 7431POPC   GL139961  23.716   1.943   6.150
 7431POPC   GL239962  23.828   1.933   6.150
 7431POPC   C1A39963  23.684   1.947   6.450
 7431POPC   D2A39964  23.708   2.026   6.750
 7431POPC   C3A39965  23.699   2.000   7.050
 7431POPC   C4A39966  23.736   2.037   7.350
 7431POPC   C1B39967  23.892   1.768   6.450
 7431POPC   C2B39968  23.871   1.784   6.750
 7431POPC   C3B39969  23.943   1.768   7.050
 7431POPC   C4B39970  23.854   1.812   7.350
 7432POPC   NC339971  35.343  13.629   5.550
 7432POPC   PO439972  35.314  13.676   5.850
 7432POPC   GL139973  35.384  13.635   6.150
 7432POPC   GL239974  35.294  13.527   6.150
 7432POPC   C1A39975  35.304  13.580   6.450
 7432POPC   D2A39976  35.387  13.580   6.750
 7432POPC   C3A39977  35.384  13.625   7.050
 7432POPC   C4A39978  35.339  13.623   7.350
 7432POPC   C1B39979  35.208  13.389   6.450
 7432POPC   C2B39980  35.281  13.436   6.750
 7432POPC   C3B39981  35.239  13.410   7.050
 7432POPC   C4B39982  35.277  13.364   7.350
 7433POPC   NC339983  12.076   4.347   5.550
 7433POPC   PO439984  12.105   4.272   5.850
 7433POPC   GL139985  12.096   4.356   6.150
 7433POPC   GL239986  12.051   4.418   6.150
 7433POPC   C1A39987  12.030   4.366   6.450
 7433POPC   D2A39988  12.056   4.301   6.750
 7433POPC   C3A39989  12.085   4.329   7.050
 7433POPC   C4A39990  12.071   4.314   7.350
 7433POPC   C1B39991  12.100   4.543   6.450
 7433POPC   C2B39992  12.056   4.602   6.750
 7433POPC   C3B39993  12.094   4.527   7.050
 7433POPC   C4B39994  12.044   4.613   7.350
 7434POPC   NC339995  29.127  22.928   5.550
 7434POPC   PO439996  29.161  22.952   5.850
 7434POPC   GL139997  29.147  22.902   6.150
 7434POPC   GL239998  29.097  23.065   6.150
 7434POPC   C1A39999  29.116  22.962   6.450
 7434POPC   D2A40000  29.123  22.890   6.750
 7434POPC   C3A40001  29.186  22.981   7.050
 7434POPC   C4A40002  29.174  22.949   7.350
 7434POPC   C1B40003  28.938  23.172   6.450
 7434POPC   C2B40004  28.974  23.164   6.750
 7434POPC   C3B40005  28.983  23.108   7.050
 7434POPC   C4B40006  28.985  23.149   7.350
 7435POPC   NC340007   6.618  28.325   5.550
 7435POPC   PO440008   6.686  28.404   5.850
 7435POPC   GL140009   6.680  28.349   6.150
 7435POPC   GL240010   6.528  28.465   6.150
 7435POPC   C1A40011   6.620  28.355   6.450
 7435POPC   D2A40012   6.615  28.359   6.750
 7435POPC   C3A40013   6.682  28.392   7.050
 7435POPC   C4A40014   6.622  28.397   7.350
 7435POPC   C1B40015   6.528  28.603   6.450
 7435POPC   C2B40016   6.467  28.549   6.750
 7435POPC   C3B40017   6.462  28.543   7.050
 7435POPC   C4B40018   6.466  28.596   7.350
 7436POPC   NC340019  42.288   1.169   5.550
 7436POPC   PO440020  42.332   1.170   5.850
 7436POPC   GL140021  42.361   1.233   6.150
 7436POPC   GL240022  42.281   1.142   6.150
 7436POPC   C1A40023  42.330   1.240   6.450
 7436POPC   D2A40024  42.302   1.197   6.750
 7436POPC   C3A40025  42.294   1.190   7.050
 7436POPC   C4A40026  42.306   1.255   7.350
 7436POPC   C1B40027  42.142   1.101   6.450
 7436POPC   C2B40028  42.160   1.101   6.750
 7436POPC   C3B40029  42.116   1.085   7.050
 7436POPC   C4B40030  42.112   1.028   7.350
 7437POPC   NC340031   6.687  43.904   5.550
 7437POPC   PO440032   6.672  43.853   5.850
 7437POPC   GL140033   6.608  43.916   6.150
 7437POPC   GL240034   6.811  43.861   6.150
 7437POPC   C1A40035   6.597  43.885   6.450
 7437POPC   D2A40036   6.677  43.880   6.750
 7437POPC   C3A40037   6.601  43.890   7.050
 7437POPC   C4A40038   6.612  43.839   7.350
 7437POPC   C1B40039   6.937  43.914   6.450
 7437POPC   C2B40040   6.869  43.858   6.750
 7437POPC   C3B40041   6.914  43.900   7.050
 7437POPC   C4B40042   6.855  43.857   7.350
 7438POPC   NC340043   9.740   7.456   5.550
 7438POPC   PO440044   9.793   7.377   5.850
 7438POPC   GL140045   9.795   7.454   6.150
 7438POPC   GL240046   9.883   7.432   6.150
 7438POPC   C1A40047   9.737   7.373   6.450
 7438POPC   D2A40048   9.764   7.372   6.750
 7438POPC   C3A40049   9.733   7.442   7.050
 7438POPC   C4A40050   9.736   7.433   7.350
 7438POPC   C1B40051   9.956   7.545   6.450
 7438POPC   C2B40052  10.028   7.557   6.750
 7438POPC   C3B40053  10.020   7.522   7.050
 7438POPC   C4B40054   9.937   7.561   7.350
 7439POPC   NC340055   6.673   5.850   5.550
 7439POPC   PO440056   6.631   5.839   5.850
 7439POPC   GL140057   6.665   5.862   6.150
 7439POPC   GL240058   6.701   5.771   6.150
 7439POPC   C1A40059   6.640   5.831   6.450
 7439POPC   D2A40060   6.641   5.910   6.750
 7439POPC   C3A40061   6.624   5.845   7.050
 7439POPC   C4A40062   6.615   5.832   7.350
 7439POPC   C1B40063   6.632   5.590   6.450
 7439POPC   C2B40064   6.668   5.664   6.750
 7439POPC   C3B40065   6.669   5.657   7.050
 7439POPC   C4B40066   6.667   5.579   7.350
 7440POPC   NC340067   1.958  29.130   5.550
 7440POPC   PO440068   1.960  29.184   5.850
 7440POPC   GL140069   2.017  29.165   6.150
 7440POPC   GL240070   2.153  29.133   6.150
 7440POPC   C1A40071   1.942  29.128   6.450
 7440POPC   D2A40072   2.023  29.138   6.750
 7440POPC   C3A40073   1.959  29.145   7.050
 7440POPC   C4A40074   2.011  29.100   7.350
 7440POPC   C1B40075   2.203  29.087   6.450
 7440POPC   C2B40076   2.204  29.105   6.750
 7440POPC   C3B40077   2.190  29.071   7.050
 7440POPC   C4B40078   2.227  29.065   7.350
 7441POPC   NC340079  30.681  42.330   5.550
 7441POPC   PO440080  30.734  42.301   5.850
 7441POPC   GL140081  30.696  42.306   6.150
 7441POPC   GL240082  30.846  42.363   6.150
 7441POPC   C1A40083  30.689  42.333   6.450
 7441POPC   D2A40084  30.672  42.368   6.750
 7441POPC   C3A40085  30.656  42.324   7.050
 7441POPC   C4A40086  30.742  42.304   7.350
 7441POPC   C1B40087  30.939  42.436   6.450
 7441POPC   C2B40088  30.968  42.467   6.750
 7441POPC   C3B40089  30.938  42.431   7.050
 7441POPC   C4B40090  30.935  42.460   7.350
 7442POPC   NC340091   1.952  24.449   5.550
 7442POPC   PO440092   1.958  24.490   5.850
 7442POPC   GL140093   1.997  24.532   6.150
 7442POPC   GL240094   1.969  24.622   6.150
 7442POPC   C1A40095   1.955  24.452   6.450
 7442POPC   D2A40096   1.998  24.474   6.750
 7442POPC   C3A40097   2.019  24.448   7.050
 7442POPC   C4A40098   2.031  24.496   7.350
 7442POPC   C1B40099   2.053  24.727   6.450
 7442POPC   C2B40100   1.979  24.697   6.750
 7442POPC   C3B40101   2.030  24.697   7.050
 7442POPC   C4B40102   2.050  24.770   7.350
 7443POPC   NC340103  13.597  14.447   5.550
 7443POPC   PO440104  13.599  14.386   5.850
 7443POPC   GL140105  13.659  14.360   6.150
 7443POPC   GL240106  13.665  14.485   6.150
 7443POPC   C1A40107  13.631  14.426   6.450
 7443POPC   D2A40108  13.619  14.429   6.750
 7443POPC   C3A40109  13.581  14.363   7.050
 7443POPC   C4A40110  13.646  14.453   7.350
 7443POPC   C1B40111  13.663  14.623   6.450
 7443POPC   C2B40112  13.700  14.631   6.750
 7443POPC   C3B40113  13.716  14.681   7.050
 7443POPC   C4B40114  13.647  14.607   7.350
 7444POPC   NC340115   9.780  26.016   5.550
 7444POPC   PO440116   9.793  26.007   5.850
 7444POPC   GL140117   9.713  25.999   6.150
 7444POPC   GL240118   9.754  25.962   6.150
 7444POPC   C1A40119   9.704  26.005   6.450
 7444POPC   D2A40120   9.741  26.034   6.750
 7444POPC   C3A40121   9.737  26.088   7.050
 7444POPC   C4A40122   9.761  25.998   7.350
 7444POPC   C1B40123   9.638  25.778   6.450
 7444POPC   C2B40124   9.654  25.780   6.750
 7444POPC   C3B40125   9.722  25.819   7.050
 7444POPC   C4B40126   9.646  25.758   7.350
 7445POPC   NC340127   6.679   2.034   5.550
 7445POPC   PO440128   6.665   2.026   5.850
 7445POPC   GL140129   6.677   1.962   6.150
 7445POPC   GL240130   6.648   2.075   6.150
 7445POPC   C1A40131   6.665   1.977   6.450
 7445POPC   D2A40132   6.690   2.015   6.750
 7445POPC   C3A40133   6.652   1.988   7.050
 7445POPC   C4A40134   6.693   1.951   7.350
 7445POPC   C1B40135   6.575   2.254   6.450
 7445POPC   C2B40136   6.521   2.207   6.750
 7445POPC   C3B40137   6.545   2.186   7.050
 7445POPC   C4B40138   6.574   2.217   7.350
 7446POPC   NC340139  10.561  35.314   5.550
 7446POPC   PO440140  10.515  35.338   5.850
 7446POPC   GL140141  10.503  35.384   6.150
 7446POPC   GL240142  10.444  35.372   6.150
 7446POPC   C1A40143  10.509  35.359   6.450
 7446POPC   D2A40144  10.507  35.372   6.750
 7446POPC   C3A40145  10.557  35.320   7.050
 7446POPC   C4A40146  10.536  35.372   7.350
 7446POPC   C1B40147  10.328  35.401   6.450
 7446POPC   C2B40148  10.310  35.477   6.750
 7446POPC   C3B40149  10.286  35.390   7.050
 7446POPC   C4B40150  10.246  35.440   7.350
 7447POPC   NC340151  27.629  37.689   5.550
 7447POPC   PO440152  27.635  37.699   5.850
 7447POPC   GL140153  27.566  37.639   6.150
 7447POPC   GL240154  27.655  37.758   6.150
 7447POPC   C1A40155  27.624  37.657   6.450
 7447POPC   D2A40156  27.589  37.670   6.750
 7447POPC   C3A40157  27.577  37.638   7.050
 7447POPC   C4A40158  27.578  37.702   7.350
 7447POPC   C1B40159  27.697  37.851   6.450
 7447POPC   C2B40160  27.708  37.896   6.750
 7447POPC   C3B40161  27.696  37.865   7.050
 7447POPC   C4B40162  27.757  37.871   7.350
 7448POPC   NC340163  19.039  24.489   5.550
 7448POPC   PO440164  19.070  24.465   5.850
 7448POPC   GL140165  19.081  24.531   6.150
 7448POPC   GL240166  19.137  24.539   6.150
 7448POPC   C1A40167  19.099  24.492   6.450
 7448POPC   D2A40168  19.084  24.454   6.750
 7448POPC   C3A40169  19.092  24.502   7.050
 7448POPC   C4A40170  19.042  24.491   7.350
 7448POPC   C1B40171  19.304  24.600   6.450
 7448POPC   C2B40172  19.272  24.592   6.750
 7448POPC   C3B40173  19.252  24.637   7.050
 7448POPC   C4B40174  19.290  24.646   7.350
 7449POPC   NC340175  43.094  24.475   5.550
 7449POPC   PO440176  43.159  24.538   5.850
 7449POPC   GL140177  43.110  24.522   6.150
 7449POPC   GL240178  42.980  24.405   6.150
 7449POPC   C1A40179  43.128  24.446   6.450
 7449POPC   D2A40180  43.082  24.529   6.750
 7449POPC   C3A40181  43.127  24.503   7.050
 7449POPC   C4A40182  43.117  24.539   7.350
 7449POPC   C1B40183  42.895  24.356   6.450
 7449POPC   C2B40184  42.865  24.347   6.750
 7449POPC   C3B40185  42.862  24.385   7.050
 7449POPC   C4B40186  42.866  24.402   7.350
 7450POPC   NC340187   3.545  19.832   5.550
 7450POPC   PO440188   3.577  19.857   5.850
 7450POPC   GL140189   3.584  19.856   6.150
 7450POPC   GL240190   3.565  19.919   6.150
 7450POPC   C1A40191   3.580  19.880   6.450
 7450POPC   D2A40192   3.521  19.788   6.750
 7450POPC   C3A40193   3.518  19.830   7.050
 7450POPC   C4A40194   3.531  19.789   7.350
 7450POPC   C1B40195   3.548  20.128   6.450
 7450POPC   C2B40196   3.569  20.048   6.750
 7450POPC   C3B40197   3.545  20.044   7.050
 7450POPC   C4B40198   3.599  20.130   7.350
 7451POPC   NC340199   3.585  24.526   5.550
 7451POPC   PO440200   3.519  24.469   5.850
 7451POPC   GL140201   3.506  24.477   6.150
 7451POPC   GL240202   3.591  24.612   6.150
 7451POPC   C1A40203   3.536  24.450   6.450
 7451POPC   D2A40204   3.556  24.486   6.750
 7451POPC   C3A40205   3.558  24.528   7.050
 7451POPC   C4A40206   3.520  24.452   7.350
 7451POPC   C1B40207   3.730  24.618   6.450
 7451POPC   C2B40208   3.764  24.660   6.750
 7451POPC   C3B40209   3.740  24.640   7.050
 7451POPC   C4B40210   3.670  24.710   7.350
 7452POPC   NC340211  41.523  28.383   5.550
 7452POPC   PO440212  41.522  28.363   5.850
 7452POPC   GL140213  41.551  28.325   6.150
 7452POPC   GL240214  41.640  28.395   6.150
 7452POPC   C1A40215  41.575  28.347   6.450
 7452POPC   D2A40216  41.539  28.418   6.750
 7452POPC   C3A40217  41.542  28.384   7.050
 7452POPC   C4A40218  41.527  28.415   7.350
 7452POPC   C1B40219  41.777  28.386   6.450
 7452POPC   C2B40220  41.843  28.415   6.750
 7452POPC   C3B40221  41.775  28.408   7.050
 7452POPC   C4B40222  41.825  28.357   7.350
 7453POPC   NC340223   6.659  23.702   5.550
 7453POPC   PO440224   6.638  23.739   5.850
 7453POPC   GL140225   6.669  23.719   6.150
 7453POPC   GL240226   6.717  23.607   6.150
 7453POPC   C1A40227   6.595  23.754   6.450
 7453POPC   D2A40228   6.626  23.689   6.750
 7453POPC   C3A40229   6.668  23.736   7.050
 7453POPC   C4A40230   6.634  23.755   7.350
 7453POPC   C1B40231   6.859  23.514   6.450
 7453POPC   C2B40232   6.787  23.497   6.750
 7453POPC   C3B40233   6.776  23.489   7.050
 7453POPC   C4B40234   6.840  23.491   7.350
 7454POPC   NC340235  12.811  39.224   5.550
 7454POPC   PO440236  12.844  39.259   5.850
 7454POPC   GL140237  12.868  39.238   6.150
 7454POPC   GL240238  12.977  39.160   6.150
 7454POPC   C1A40239  12.891  39.253   6.450
 7454POPC   D2A40240  12.873  39.280   6.750
 7454POPC   C3A40241  12.865  39.262   7.050
 7454POPC   C4A40242  12.847  39.251   7.350
 7454POPC   C1B40243  13.062  39.177   6.450
 7454POPC   C2B40244  13.116  39.174   6.750
 7454POPC   C3B40245  13.124  39.165   7.050
 7454POPC   C4B40246  13.050  39.126   7.350
 7455POPC   NC340247  12.891  38.425   5.550
 7455POPC   PO440248  12.871  38.413   5.850
 7455POPC   GL140249  12.869  38.448   6.150
 7455POPC   GL240250  12.854  38.380   6.150
 7455POPC   C1A40251  12.845  38.484   6.450
 7455POPC   D2A40252  12.812  38.409   6.750
 7455POPC   C3A40253  12.857  38.417   7.050
 7455POPC   C4A40254  12.863  38.438   7.350
 7455POPC   C1B40255  12.789  38.201   6.450
 7455POPC   C2B40256  12.745  38.226   6.750
 7455POPC   C3B40257  12.725  38.182   7.050
 7455POPC   C4B40258  12.730  38.171   7.350
 7456POPC   NC340259  29.129  43.155   5.550
 7456POPC   PO440260  29.126  43.130   5.850
 7456POPC   GL140261  29.184  43.119   6.150
 7456POPC   GL240262  29.067  42.985   6.150
 7456POPC   C1A40263  29.186  43.091   6.450
 7456POPC   D2A40264  29.169  43.113   6.750
 7456POPC   C3A40265  29.125  43.139   7.050
 7456POPC   C4A40266  29.170  43.142   7.350
 7456POPC   C1B40267  28.988  42.931   6.450
 7456POPC   C2B40268  29.008  42.856   6.750
 7456POPC   C3B40269  28.974  42.866   7.050
 7456POPC   C4B40270  29.034  42.927   7.350
 7457POPC   NC340271  33.010  41.567   5.550
 7457POPC   PO440272  33.039  41.521   5.850
 7457POPC   GL140273  33.013  41.533   6.150
 7457POPC   GL240274  33.176  41.595   6.150
 7457POPC   C1A40275  33.064  41.550   6.450
 7457POPC   D2A40276  33.032  41.543   6.750
 7457POPC   C3A40277  33.049  41.566   7.050
 7457POPC   C4A40278  33.032  41.593   7.350
 7457POPC   C1B40279  33.194  41.661   6.450
 7457POPC   C2B40280  33.227  41.683   6.750
 7457POPC   C3B40281  33.273  41.654   7.050
 7457POPC   C4B40282  33.190  41.692   7.350
 7458POPC   NC340283  37.654  27.618   5.550
 7458POPC   PO440284  37.630  27.616   5.850
 7458POPC   GL140285  37.727  27.594   6.150
 7458POPC   GL240286  37.565  27.503   6.150
 7458POPC   C1A40287  37.654  27.609   6.450
 7458POPC   D2A40288  37.658  27.567   6.750
 7458POPC   C3A40289  37.710  27.624   7.050
 7458POPC   C4A40290  37.698  27.633   7.350
 7458POPC   C1B40291  37.478  27.435   6.450
 7458POPC   C2B40292  37.473  27.460   6.750
 7458POPC   C3B40293  37.528  27.433   7.050
 7458POPC   C4B40294  37.486  27.430   7.350
 7459POPC   NC340295  43.062  27.637   5.550
 7459POPC   PO440296  43.116  27.556   5.850
 7459POPC   GL140297  43.094  27.586   6.150
 7459POPC   GL240298  43.154  27.686   6.150
 7459POPC   C1A40299  43.106  27.570   6.450
 7459POPC   D2A40300  43.128  27.577   6.750
 7459POPC   C3A40301  43.073  27.556   7.050
 7459POPC   C4A40302  43.078  27.566   7.350
 7459POPC   C1B40303  43.272  27.755   6.450
 7459POPC   C2B40304  43.290  27.717   6.750
 7459POPC   C3B40305  43.345  27.790   7.050
 7459POPC   C4B40306  43.289  27.764   7.350
 7460POPC   NC340307   7.431  36.878   5.550
 7460POPC   PO440308   7.430  36.952   5.850
 7460POPC   GL140309   7.376  36.895   6.150
 7460POPC   GL240310   7.422  37.062   6.150
 7460POPC   C1A40311   7.417  36.887   6.450
 7460POPC   D2A40312   7.379  36.946   6.750
 7460POPC   C3A40313   7.433  36.925   7.050
 7460POPC   C4A40314   7.451  36.868   7.350
 7460POPC   C1B40315   7.472  37.159   6.450
 7460POPC   C2B40316   7.469  37.138   6.750
 7460POPC   C3B40317   7.440  37.132   7.050
 7460POPC   C4B40318   7.496  37.157   7.350
 7461POPC   NC340319  43.925  23.762   5.550
 7461POPC   PO440320  43.881  23.693   5.850
 7461POPC   GL140321  43.869  23.748   6.150
 7461POPC   GL240322  43.976  23.689   6.150
 7461POPC   C1A40323  43.843  23.728   6.450
 7461POPC   D2A40324  43.837  23.760   6.750
 7461POPC   C3A40325  43.894  23.709   7.050
 7461POPC   C4A40326  43.922  23.756   7.350
 7461POPC   C1B40327  44.144  23.775   6.450
 7461POPC   C2B40328  44.140  23.698   6.750
 7461POPC   C3B40329  44.108  23.746   7.050
 7461POPC   C4B40330  44.108  23.721   7.350
 7462POPC   NC340331  25.270  26.831   5.550
 7462POPC   PO440332  25.296  26.791   5.850
 7462POPC   GL140333  25.262  26.788   6.150
 7462POPC   GL240334  25.256  26.720   6.150
 7462POPC   C1A40335  25.247  26.858   6.450
 7462POPC   D2A40336  25.223  26.833   6.750
 7462POPC   C3A40337  25.260  26.845   7.050
 7462POPC   C4A40338  25.239  26.841   7.350
 7462POPC   C1B40339  25.206  26.537   6.450
 7462POPC   C2B40340  25.233  26.570   6.750
 7462POPC   C3B40341  25.262  26.604   7.050
 7462POPC   C4B40342  25.210  26.557   7.350
 7463POPC   NC340343  22.196  29.947   5.550
 7463POPC   PO440344  22.160  29.947   5.850
 7463POPC   GL140345  22.149  29.895   6.150
 7463POPC   GL240346  22.024  29.920   6.150
 7463POPC   C1A40347  22.211  29.914   6.450
 7463POPC   D2A40348  22.184  29.882   6.750
 7463POPC   C3A40349  22.112  29.921   7.050
 7463POPC   C4A40350  22.162  29.883   7.350
 7463POPC   C1B40351  21.890  29.827   6.450
 7463POPC   C2B40352  21.894  29.867   6.750
 7463POPC   C3B40353  21.920  29.832   7.050
 7463POPC   C4B40354  21.876  29.831   7.350
 7464POPC   NC340355  10.544  29.105   5.550
 7464POPC   PO440356  10.543  29.117   5.850
 7464POPC   GL140357  10.538  29.131   6.150
 7464POPC   GL240358  10.582  29.257   6.150
 7464POPC   C1A40359  10.493  29.157   6.450
 7464POPC   D2A40360  10.548  29.121   6.750
 7464POPC   C3A40361  10.565  29.120   7.050
 7464POPC   C4A40362  10.521  29.123   7.350
 7464POPC   C1B40363  10.696  29.358   6.450
 7464POPC   C2B40364  10.724  29.381   6.750
 7464POPC   C3B40365  10.686  29.372   7.050
 7464POPC   C4B40366  10.699  29.365   7.350
 7465POPC   NC340367  23.737  26.038   5.550
 7465POPC   PO440368  23.701  26.075   5.850
 7465POPC   GL140369  23.670  26.075   6.150
 7465POPC   GL240370  23.630  25.987   6.150
 7465POPC   C1A40371  23.676  26.038   6.450
 7465POPC   D2A40372  23.703  26.060   6.750
 7465POPC   C3A40373  23.728  26.051   7.050
 7465POPC   C4A40374  23.761  26.028   7.350
 7465POPC   C1B40375  23.543  25.893   6.450
 7465POPC   C2B40376  23.571  25.838   6.750
 7465POPC   C3B40377  23.574  25.846   7.050
 7465POPC   C4B40378  23.569  25.828   7.350
 7466POPC   NC340379  22.922  29.955   5.550
 7466POPC   PO440380  22.967  29.901   5.850
 7466POPC   GL140381  22.976  29.875   6.150
 7466POPC   GL240382  22.965  29.758   6.150
 7466POPC   C1A40383  22.951  29.918   6.450
 7466POPC   D2A40384  22.987  29.881   6.750
 7466POPC   C3A40385  22.889  29.885   7.050
 7466POPC   C4A40386  22.918  29.945   7.350
 7466POPC   C1B40387  22.935  29.652   6.450
 7466POPC   C2B40388  22.934  29.639   6.750
 7466POPC   C3B40389  22.914  29.638   7.050
 7466POPC   C4B40390  22.901  29.636   7.350
 7467POPC   NC340391   0.398   7.442   5.550
 7467POPC   PO440392   0.442   7.389   5.850
 7467POPC   GL140393   0.412   7.436   6.150
 7467POPC   GL240394   0.478   7.539   6.150
 7467POPC   C1A40395   0.460   7.407   6.450
 7467POPC   D2A40396   0.461   7.398   6.750
 7467POPC   C3A40397   0.435   7.439   7.050
 7467POPC   C4A40398   0.477   7.456   7.350
 7467POPC   C1B40399   0.548   7.625   6.450
 7467POPC   C2B40400   0.573   7.622   6.750
 7467POPC   C3B40401   0.557   7.627   7.050
 7467POPC   C4B40402   0.524   7.672   7.350
 7468POPC   NC340403  22.971   1.243   5.550
 7468POPC   PO440404  22.937   1.235   5.850
 7468POPC   GL140405  22.925   1.223   6.150
 7468POPC   GL240406  23.090   1.245   6.150
 7468POPC   C1A40407  22.890   1.230   6.450
 7468POPC   D2A40408  22.970   1.240   6.750
 7468POPC   C3A40409  22.940   1.261   7.050
 7468POPC   C4A40410  22.941   1.249   7.350
 7468POPC   C1B40411  23.157   1.262   6.450
 7468POPC   C2B40412  23.155   1.267   6.750
 7468POPC   C3B40413  23.210   1.273   7.050
 7468POPC   C4B40414  23.164   1.234   7.350
 7469POPC   NC340415  35.348  12.051   5.550
 7469POPC   PO440416  35.397  12.044   5.850
 7469POPC   GL140417  35.357  12.047   6.150
 7469POPC   GL240418  35.405  12.139   6.150
 7469POPC   C1A40419  35.356  12.062   6.450
 7469POPC   D2A40420  35.379  12.093   6.750
 7469POPC   C3A40421  35.315  12.089   7.050
 7469POPC   C4A40422  35.338  12.055   7.350
 7469POPC   C1B40423  35.448  12.309   6.450
 7469POPC   C2B40424  35.435  12.295   6.750
 7469POPC   C3B40425  35.502  12.316   7.050
 7469POPC   C4B40426  35.445  12.296   7.350
 7470POPC   NC340427  20.603  36.157   5.550
 7470POPC   PO440428  20.571  36.113   5.850
 7470POPC   GL140429  20.651  36.128   6.150
 7470POPC   GL240430  20.690  36.198   6.150
 7470POPC   C1A40431  20.643  36.089   6.450
 7470POPC   D2A40432  20.572  36.173   6.750
 7470POPC   C3A40433  20.637  36.140   7.050
 7470POPC   C4A40434  20.635  36.108   7.350
 7470POPC   C1B40435  20.736  36.371   6.450
 7470POPC   C2B40436  20.764  36.358   6.750
 7470POPC   C3B40437  20.717  36.335   7.050
 7470POPC   C4B40438  20.704  36.378   7.350
 7471POPC   NC340439  27.573  22.143   5.550
 7471POPC   PO440440  27.605  22.120   5.850
 7471POPC   GL140441  27.611  22.116   6.150
 7471POPC   GL240442  27.475  22.108   6.150
 7471POPC   C1A40443  27.640  22.208   6.450
 7471POPC   D2A40444  27.629  22.200   6.750
 7471POPC   C3A40445  27.553  22.171   7.050
 7471POPC   C4A40446  27.579  22.112   7.350
 7471POPC   C1B40447  27.383  22.138   6.450
 7471POPC   C2B40448  27.374  22.060   6.750
 7471POPC   C3B40449  27.333  22.133   7.050
 7471POPC   C4B40450  27.310  22.068   7.350
 7472POPC   NC340451  24.488  26.059   5.550
 7472POPC   PO440452  24.498  25.995   5.850
 7472POPC   GL140453  24.460  26.077   6.150
 7472POPC   GL240454  24.584  26.088   6.150
 7472POPC   C1A40455  24.507  26.019   6.450
 7472POPC   D2A40456  24.532  26.086   6.750
 7472POPC   C3A40457  24.466  26.033   7.050
 7472POPC   C4A40458  24.464  25.993   7.350
 7472POPC   C1B40459  24.703  26.152   6.450
 7472POPC   C2B40460  24.716  26.129   6.750
 7472POPC   C3B40461  24.684  26.177   7.050
 7472POPC   C4B40462  24.735  26.205   7.350
 7473POPC   NC340463  28.419  19.106   5.550
 7473POPC   PO440464  28.390  19.035   5.850
 7473POPC   GL140465  28.415  19.095   6.150
 7473POPC   GL240466  28.379  19.157   6.150
 7473POPC   C1A40467  28.405  19.035   6.450
 7473POPC   D2A40468  28.384  19.017   6.750
 7473POPC   C3A40469  28.333  19.087   7.050
 7473POPC   C4A40470  28.353  19.045   7.350
 7473POPC   C1B40471  28.493  19.328   6.450
 7473POPC   C2B40472  28.469  19.290   6.750
 7473POPC   C3B40473  28.441  19.339   7.050
 7473POPC   C4B40474  28.448  19.248   7.350
 7474POPC   NC340475  25.275  10.523   5.550
 7474POPC   PO440476  25.245  10.530   5.850
 7474POPC   GL140477  25.235  10.523   6.150
 7474POPC   GL240478  25.286  10.689   6.150
 7474POPC   C1A40479  25.250  10.514   6.450
 7474POPC   D2A40480  25.236  10.496   6.750
 7474POPC   C3A40481  25.294  10.495   7.050
 7474POPC   C4A40482  25.224  10.565   7.350
 7474POPC   C1B40483  25.360  10.765   6.450
 7474POPC   C2B40484  25.317  10.781   6.750
 7474POPC   C3B40485  25.359  10.759   7.050
 7474POPC   C4B40486  25.290  10.817   7.350
 7475POPC   NC340487  22.948  20.598   5.550
 7475POPC   PO440488  22.956  20.588   5.850
 7475POPC   GL140489  22.899  20.564   6.150
 7475POPC   GL240490  23.049  20.675   6.150
 7475POPC   C1A40491  22.890  20.640   6.450
 7475POPC   D2A40492  22.951  20.588   6.750
 7475POPC   C3A40493  22.976  20.614   7.050
 7475POPC   C4A40494  22.972  20.646   7.350
 7475POPC   C1B40495  23.125  20.729   6.450
 7475POPC   C2B40496  23.200  20.696   6.750
 7475POPC   C3B40497  23.190  20.745   7.050
 7475POPC   C4B40498  23.115  20.758   7.350
 7476POPC   NC340499  34.563   1.241   5.550
 7476POPC   PO440500  34.554   1.257   5.850
 7476POPC   GL140501  34.614   1.184   6.150
 7476POPC   GL240502  34.602   1.107   6.150
 7476POPC   C1A40503  34.563   1.257   6.450
 7476POPC   D2A40504  34.553   1.181   6.750
 7476POPC   C3A40505  34.554   1.196   7.050
 7476POPC   C4A40506  34.573   1.220   7.350
 7476POPC   C1B40507  34.582   1.013   6.450
 7476POPC   C2B40508  34.581   0.988   6.750
 7476POPC   C3B40509  34.612   0.920   7.050
 7476POPC   C4B40510  34.534   0.999   7.350
 7477POPC   NC340511  26.772  34.568   5.550
 7477POPC   PO440512  26.855  34.583   5.850
 7477POPC   GL140513  26.827  34.613   6.150
 7477POPC   GL240514  26.718  34.589   6.150
 7477POPC   C1A40515  26.820  34.615   6.450
 7477POPC   D2A40516  26.774  34.596   6.750
 7477POPC   C3A40517  26.849  34.549   7.050
 7477POPC   C4A40518  26.849  34.604   7.350
 7477POPC   C1B40519  26.544  34.597   6.450
 7477POPC   C2B40520  26.532  34.548   6.750
 7477POPC   C3B40521  26.558  34.560   7.050
 7477POPC   C4B40522  26.576  34.596   7.350
 7478POPC   NC340523  22.918  10.479   5.550
 7478POPC   PO440524  22.940  10.479   5.850
 7478POPC   GL140525  22.972  10.550   6.150
 7478POPC   GL240526  22.810  10.558   6.150
 7478POPC   C1A40527  22.921  10.549   6.450
 7478POPC   D2A40528  22.959  10.528   6.750
 7478POPC   C3A40529  22.966  10.499   7.050
 7478POPC   C4A40530  22.927  10.490   7.350
 7478POPC   C1B40531  22.708  10.629   6.450
 7478POPC   C2B40532  22.748  10.642   6.750
 7478POPC   C3B40533  22.713  10.661   7.050
 7478POPC   C4B40534  22.682  10.624   7.350
 7479POPC   NC340535  37.669  24.449   5.550
 7479POPC   PO440536  37.688  24.464   5.850
 7479POPC   GL140537  37.687  24.492   6.150
 7479POPC   GL240538  37.621  24.422   6.150
 7479POPC   C1A40539  37.707  24.487   6.450
 7479POPC   D2A40540  37.636  24.441   6.750
 7479POPC   C3A40541  37.660  24.445   7.050
 7479POPC   C4A40542  37.711  24.513   7.350
 7479POPC   C1B40543  37.571  24.282   6.450
 7479POPC   C2B40544  37.611  24.297   6.750
 7479POPC   C3B40545  37.540  24.257   7.050
 7479POPC   C4B40546  37.527  24.296   7.350
 7480POPC   NC340547   1.258  23.708   5.550
 7480POPC   PO440548   1.239  23.687   5.850
 7480POPC   GL140549   1.176  23.762   6.150
 7480POPC   GL240550   1.191  23.808   6.150
 7480POPC   C1A40551   1.248  23.728   6.450
 7480POPC   D2A40552   1.243  23.762   6.750
 7480POPC   C3A40553   1.240  23.739   7.050
 7480POPC   C4A40554   1.192  23.692   7.350
 7480POPC   C1B40555   1.208  23.975   6.450
 7480POPC   C2B40556   1.224  23.934   6.750
 7480POPC   C3B40557   1.233  23.996   7.050
 7480POPC   C4B40558   1.220  23.926   7.350
 7481POPC   NC340559  33.039  23.715   5.550
 7481POPC   PO440560  33.040  23.687   5.850
 7481POPC   GL140561  33.051  23.705   6.150
 7481POPC   GL240562  32.906  23.602   6.150
 7481POPC   C1A40563  32.992  23.719   6.450
 7481POPC   D2A40564  33.065  23.762   6.750
 7481POPC   C3A40565  33.013  23.754   7.050
 7481POPC   C4A40566  33.000  23.697   7.350
 7481POPC   C1B40567  32.815  23.577   6.450
 7481POPC   C2B40568  32.774  23.536   6.750
 7481POPC   C3B40569  32.786  23.550   7.050
 7481POPC   C4B40570  32.795  23.599   7.350
 7482POPC   NC340571  33.818  24.482   5.550
 7482POPC   PO440572  33.816  24.489   5.850
 7482POPC   GL140573  33.799  24.492   6.150
 7482POPC   GL240574  33.747  24.607   6.150
 7482POPC   C1A40575  33.821  24.468   6.450
 7482POPC   D2A40576  33.849  24.440   6.750
 7482POPC   C3A40577  33.767  24.486   7.050
 7482POPC   C4A40578  33.831  24.490   7.350
 7482POPC   C1B40579  33.572  24.612   6.450
 7482POPC   C2B40580  33.585  24.589   6.750
 7482POPC   C3B40581  33.560  24.664   7.050
 7482POPC   C4B40582  33.594  24.619   7.350
 7483POPC   NC340583  29.964  32.978   5.550
 7483POPC   PO440584  29.932  33.043   5.850
 7483POPC   GL140585  29.953  33.051   6.150
 7483POPC   GL240586  29.854  32.880   6.150
 7483POPC   C1A40587  29.945  32.997   6.450
 7483POPC   D2A40588  29.953  33.049   6.750
 7483POPC   C3A40589  29.906  33.059   7.050
 7483POPC   C4A40590  29.883  33.031   7.350
 7483POPC   C1B40591  29.820  32.812   6.450
 7483POPC   C2B40592  29.858  32.747   6.750
 7483POPC   C3B40593  29.858  32.796   7.050
 7483POPC   C4B40594  29.826  32.807   7.350
 7484POPC   NC340595   5.090   8.988   5.550
 7484POPC   PO440596   5.111   9.010   5.850
 7484POPC   GL140597   5.131   8.945   6.150
 7484POPC   GL240598   5.210   9.055   6.150
 7484POPC   C1A40599   5.106   8.964   6.450
 7484POPC   D2A40600   5.049   8.995   6.750
 7484POPC   C3A40601   5.082   9.007   7.050
 7484POPC   C4A40602   5.133   8.925   7.350
 7484POPC   C1B40603   5.294   9.172   6.450
 7484POPC   C2B40604   5.303   9.147   6.750
 7484POPC   C3B40605   5.224   9.155   7.050
 7484POPC   C4B40606   5.222   9.117   7.350
 7485POPC   NC340607  24.518  10.526   5.550
 7485POPC   PO440608  24.533  10.565   5.850
 7485POPC   GL140609  24.454  10.555   6.150
 7485POPC   GL240610  24.363  10.646   6.150
 7485POPC   C1A40611  24.445  10.482   6.450
 7485POPC   D2A40612  24.516  10.531   6.750
 7485POPC   C3A40613  24.455  10.482   7.050
 7485POPC   C4A40614  24.479  10.496   7.350
 7485POPC   C1B40615  24.339  10.674   6.450
 7485POPC   C2B40616  24.254  10.631   6.750
 7485POPC   C3B40617  24.245  10.691   7.050
 7485POPC   C4B40618  24.262  10.660   7.350
 7486POPC   NC340619  26.830   6.658   5.550
 7486POPC   PO440620  26.864   6.611   5.850
 7486POPC   GL140621  26.847   6.638   6.150
 7486POPC   GL240622  26.768   6.674   6.150
 7486POPC   C1A40623  26.816   6.692   6.450
 7486POPC   D2A40624  26.800   6.695   6.750
 7486POPC   C3A40625  26.838   6.667   7.050
 7486POPC   C4A40626  26.816   6.619   7.350
 7486POPC   C1B40627  26.576   6.842   6.450
 7486POPC   C2B40628  26.621   6.764   6.750
 7486POPC   C3B40629  26.616   6.819   7.050
 7486POPC   C4B40630  26.601   6.774   7.350
 7487POPC   NC340631  14.391   9.754   5.550
 7487POPC   PO440632  14.408   9.760   5.850
 7487POPC   GL140633  14.402   9.751   6.150
 7487POPC   GL240634  14.238   9.823   6.150
 7487POPC   C1A40635  14.452   9.748   6.450
 7487POPC   D2A40636  14.435   9.726   6.750
 7487POPC   C3A40637  14.388   9.752   7.050
 7487POPC   C4A40638  14.446   9.783   7.350
 7487POPC   C1B40639  14.140   9.859   6.450
 7487POPC   C2B40640  14.122   9.820   6.750
 7487POPC   C3B40641  14.148   9.771   7.050
 7487POPC   C4B40642  14.185   9.817   7.350
 7488POPC   NC340643  31.459  29.970   5.550
 7488POPC   PO440644  31.480  29.886   5.850
 7488POPC   GL140645  31.478  29.968   6.150
 7488POPC   GL240646  31.469  30.041   6.150
 7488POPC   C1A40647  31.476  29.877   6.450
 7488POPC   D2A40648  31.453  29.888   6.750
 7488POPC   C3A40649  31.487  29.881   7.050
 7488POPC   C4A40650  31.491  29.955   7.350
 7488POPC   C1B40651  31.523  30.181   6.450
 7488POPC   C2B40652  31.554  30.215   6.750
 7488POPC   C3B40653  31.495  30.209   7.050
 7488POPC   C4B40654  31.529  30.129   7.350
 7489POPC   NC340655   6.612  22.180   5.550
 7489POPC   PO440656   6.680  22.163   5.850
 7489POPC   GL140657   6.670  22.167   6.150
 7489POPC   GL240658   6.787  22.154   6.150
 7489POPC   C1A40659   6.661  22.129   6.450
 7489POPC   D2A40660   6.677  22.176   6.750
 7489POPC   C3A40661   6.684  22.121   7.050
 7489POPC   C4A40662   6.686  22.168   7.350
 7489POPC   C1B40663   6.844  22.183   6.450
 7489POPC   C2B40664   6.943  22.230   6.750
 7489POPC   C3B40665   6.875  22.188   7.050
 7489POPC   C4B40666   6.852  22.153   7.350
 7490POPC   NC340667  33.049  37.681   5.550
 7490POPC   PO440668  32.990  37.645   5.850
 7490POPC   GL140669  33.048  37.638   6.150
 7490POPC   GL240670  32.935  37.760   6.150
 7490POPC   C1A40671  33.024  37.644   6.450
 7490POPC   D2A40672  33.019  37.653   6.750
 7490POPC   C3A40673  33.034  37.722   7.050
 7490POPC   C4A40674  32.995  37.686   7.350
 7490POPC   C1B40675  32.892  37.906   6.450
 7490POPC   C2B40676  32.938  37.899   6.750
 7490POPC   C3B40677  32.895  37.953   7.050
 7490POPC   C4B40678  32.972  37.901   7.350
 7491POPC   NC340679   5.829   1.965   5.550
 7491POPC   PO440680   5.821   1.972   5.850
 7491POPC   GL140681   5.901   2.039   6.150
 7491POPC   GL240682   5.778   1.920   6.150
 7491POPC   C1A40683   5.852   1.957   6.450
 7491POPC   D2A40684   5.839   1.964   6.750
 7491POPC   C3A40685   5.881   1.954   7.050
 7491POPC   C4A40686   5.901   1.968   7.350
 7491POPC   C1B40687   5.755   1.792   6.450
 7491POPC   C2B40688   5.743   1.798   6.750
 7491POPC   C3B40689   5.753   1.769   7.050
 7491POPC   C4B40690   5.780   1.730   7.350
 7492POPC   NC340691  11.348  20.647   5.550
 7492POPC   PO440692  11.314  20.627   5.850
 7492POPC   GL140693  11.312  20.595   6.150
 7492POPC   GL240694  11.371  20.508   6.150
 7492POPC   C1A40695  11.296  20.623   6.450
 7492POPC   D2A40696  11.343  20.660   6.750
 7492POPC   C3A40697  11.323  20.572   7.050
 7492POPC   C4A40698  11.329  20.621   7.350
 7492POPC   C1B40699  11.405  20.374   6.450
 7492POPC   C2B40700  11.334  20.407   6.750
 7492POPC   C3B40701  11.379  20.408   7.050
 7492POPC   C4B40702  11.360  20.337   7.350
 7493POPC   NC340703  14.428  27.626   5.550
 7493POPC   PO440704  14.427  27.607   5.850
 7493POPC   GL140705  14.358  27.627   6.150
 7493POPC   GL240706  14.474  27.665   6.150
 7493POPC   C1A40707  14.432  27.600   6.450
 7493POPC   D2A40708  14.444  27.565   6.750
 7493POPC   C3A40709  14.408  27.642   7.050
 7493POPC   C4A40710  14.396  27.637   7.350
 7493POPC   C1B40711  14.529  27.844   6.450
 7493POPC   C2B40712  14.561  27.785   6.750
 7493POPC   C3B40713  14.592  27.796   7.050
 7493POPC   C4B40714  14.517  27.819   7.350
 7494POPC   NC340715   3.574   0.431   5.550
 7494POPC   PO440716   3.503   0.413   5.850
 7494POPC   GL140717   3.516   0.464   6.150
 7494POPC   GL240718   3.503   0.563   6.150
 7494POPC   C1A40719   3.494   0.479   6.450
 7494POPC   D2A40720   3.506   0.471   6.750
 7494POPC   C3A40721   3.543   0.419   7.050
 7494POPC   C4A40722   3.527   0.429   7.350
 7494POPC   C1B40723   3.510   0.642   6.450
 7494POPC   C2B40724   3.519   0.703   6.750
 7494POPC   C3B40725   3.537   0.650   7.050
 7494POPC   C4B40726   3.573   0.659   7.350
 7495POPC   NC340727   2.724  29.873   5.550
 7495POPC   PO440728   2.721  29.960   5.850
 7495POPC   GL140729   2.762  29.949   6.150
 7495POPC   GL240730   2.631  30.000   6.150
 7495POPC   C1A40731   2.781  29.913   6.450
 7495POPC   D2A40732   2.805  29.905   6.750
 7495POPC   C3A40733   2.761  29.892   7.050
 7495POPC   C4A40734   2.748  29.921   7.350
 7495POPC   C1B40735   2.515  30.015   6.450
 7495POPC   C2B40736   2.537  30.095   6.750
 7495POPC   C3B40737   2.552  30.019   7.050
 7495POPC   C4B40738   2.569  30.083   7.350
 7496POPC   NC340739   0.438  21.434   5.550
 7496POPC   PO440740   0.398  21.369   5.850
 7496POPC   GL140741   0.388  21.415   6.150
 7496POPC   GL240742   0.449  21.304   6.150
 7496POPC   C1A40743   0.460  21.380   6.450
 7496POPC   D2A40744   0.461  21.375   6.750
 7496POPC   C3A40745   0.482  21.401   7.050
 7496POPC   C4A40746   0.451  21.413   7.350
 7496POPC   C1B40747   0.463  21.165   6.450
 7496POPC   C2B40748   0.492  21.107   6.750
 7496POPC   C3B40749   0.460  21.120   7.050
 7496POPC   C4B40750   0.470  21.169   7.350
 7497POPC   NC340751  37.664  14.389   5.550
 7497POPC   PO440752  37.658  14.403   5.850
 7497POPC   GL140753  37.642  14.416   6.150
 7497POPC   GL240754  37.545  14.488   6.150
 7497POPC   C1A40755  37.701  14.388   6.450
 7497POPC   D2A40756  37.656  14.451   6.750
 7497POPC   C3A40757  37.662  14.386   7.050
 7497POPC   C4A40758  37.705  14.374   7.350
 7497POPC   C1B40759  37.473  14.528   6.450
 7497POPC   C2B40760  37.458  14.527   6.750
 7497POPC   C3B40761  37.495  14.505   7.050
 7497POPC   C4B40762  37.459  14.567   7.350
 7498POPC   NC340763  29.126   0.452   5.550
 7498POPC   PO440764  29.140   0.466   5.850
 7498POPC   GL140765  29.184   0.445   6.150
 7498POPC   GL240766  29.250   0.347   6.150
 7498POPC   C1A40767  29.099   0.404   6.450
 7498POPC   D2A40768  29.139   0.424   6.750
 7498POPC   C3A40769  29.163   0.457   7.050
 7498POPC   C4A40770  29.166   0.464   7.350
 7498POPC   C1B40771  29.330   0.329   6.450
 7498POPC   C2B40772  29.407   0.373   6.750
 7498POPC   C3B40773  29.325   0.356   7.050
 7498POPC   C4B40774  29.369   0.301   7.350
 7499POPC   NC340775   3.492  39.250   5.550
 7499POPC   PO440776   3.497  39.279   5.850
 7499POPC   GL140777   3.557  39.280   6.150
 7499POPC   GL240778   3.500  39.145   6.150
 7499POPC   C1A40779   3.508  39.268   6.450
 7499POPC   D2A40780   3.571  39.265   6.750
 7499POPC   C3A40781   3.516  39.275   7.050
 7499POPC   C4A40782   3.536  39.249   7.350
 7499POPC   C1B40783   3.490  38.960   6.450
 7499POPC   C2B40784   3.534  38.946   6.750
 7499POPC   C3B40785   3.446  38.941   7.050
 7499POPC   C4B40786   3.452  39.003   7.350
 7500POPC   NC340787   1.219  25.284   5.550
 7500POPC   PO440788   1.181  25.217   5.850
 7500POPC   GL140789   1.260  25.301   6.150
 7500POPC   GL240790   1.351  25.192   6.150
 7500POPC   C1A40791   1.192  25.262   6.450
 7500POPC   D2A40792   1.168  25.285   6.750
 7500POPC   C3A40793   1.176  25.297   7.050
 7500POPC   C4A40794   1.257  25.296   7.350
 7500POPC   C1B40795   1.368  25.104   6.450
 7500POPC   C2B40796   1.351  25.137   6.750
 7500POPC   C3B40797   1.382  25.072   7.050
 7500POPC   C4B40798   1.403  25.095   7.350
 7501POPC   NC340799  14.377   7.372   5.550
 7501POPC   PO440800  14.381   7.448   5.850
 7501POPC   GL140801  14.359   7.389   6.150
 7501POPC   GL240802  14.537   7.371   6.150
 7501POPC   C1A40803  14.445   7.409   6.450
 7501POPC   D2A40804  14.419   7.453   6.750
 7501POPC   C3A40805  14.398   7.407   7.050
 7501POPC   C4A40806  14.388   7.426   7.350
 7501POPC   C1B40807  14.526   7.239   6.450
 7501POPC   C2B40808  14.593   7.230   6.750
 7501POPC   C3B40809  14.544   7.251   7.050
 7501POPC   C4B40810  14.614   7.271   7.350
 7502POPC   NC340811  28.370  30.700   5.550
 7502POPC   PO440812  28.383  30.736   5.850
 7502POPC   GL140813  28.385  30.680   6.150
 7502POPC   GL240814  28.410  30.613   6.150
 7502POPC   C1A40815  28.343  30.730   6.450
 7502POPC   D2A40816  28.363  30.718   6.750
 7502POPC   C3A40817  28.381  30.688   7.050
 7502POPC   C4A40818  28.417  30.655   7.350
 7502POPC   C1B40819  28.530  30.470   6.450
 7502POPC   C2B40820  28.495  30.521   6.750
 7502POPC   C3B40821  28.519  30.465   7.050
 7502POPC   C4B40822  28.490  30.531   7.350
 7503POPC   NC340823  21.424  10.478   5.550
 7503POPC   PO440824  21.358  10.558   5.850
 7503POPC   GL140825  21.400  10.509   6.150
 7503POPC   GL240826  21.303  10.448   6.150
 7503POPC   C1A40827  21.391  10.506   6.450
 7503POPC   D2A40828  21.394  10.501   6.750
 7503POPC   C3A40829  21.436  10.504   7.050
 7503POPC   C4A40830  21.375  10.485   7.350
 7503POPC   C1B40831  21.255  10.301   6.450
 7503POPC   C2B40832  21.256  10.336   6.750
 7503POPC   C3B40833  21.284  10.308   7.050
 7503POPC   C4B40834  21.249  10.351   7.350
 7504POPC   NC340835  11.257  42.373   5.550
 7504POPC   PO440836  11.326  42.375   5.850
 7504POPC   GL140837  11.290  42.381   6.150
 7504POPC   GL240838  11.207  42.247   6.150
 7504POPC   C1A40839  11.252  42.330   6.450
 7504POPC   D2A40840  11.286  42.376   6.750
 7504POPC   C3A40841  11.267  42.338   7.050
 7504POPC   C4A40842  11.329  42.334   7.350
 7504POPC   C1B40843  11.224  42.093   6.450
 7504POPC   C2B40844  11.199  42.083   6.750
 7504POPC   C3B40845  11.209  42.126   7.050
 7504POPC   C4B40846  11.231  42.082   7.350
 7505POPC   NC340847  13.584  27.561   5.550
 7505POPC   PO440848  13.676  27.566   5.850
 7505POPC   GL140849  13.659  27.600   6.150
 7505POPC   GL240850  13.652  27.711   6.150
 7505POPC   C1A40851  13.664  27.634   6.450
 7505POPC   D2A40852  13.581  27.616   6.750
 7505POPC   C3A40853  13.621  27.578   7.050
 7505POPC   C4A40854  13.666  27.585   7.350
 7505POPC   C1B40855  13.717  27.780   6.450
 7505POPC   C2B40856  13.770  27.820   6.750
 7505POPC   C3B40857  13.759  27.833   7.050
 7505POPC   C4B40858  13.714  27.774   7.350
 7506POPC   NC340859  10.562  22.211   5.550
 7506POPC   PO440860  10.545  22.130   5.850
 7506POPC   GL140861  10.491  22.115   6.150
 7506POPC   GL240862  10.358  22.139   6.150
 7506POPC   C1A40863  10.554  22.162   6.450
 7506POPC   D2A40864  10.506  22.210   6.750
 7506POPC   C3A40865  10.493  22.149   7.050
 7506POPC   C4A40866  10.474  22.175   7.350
 7506POPC   C1B40867  10.306  22.171   6.450
 7506POPC   C2B40868  10.280  22.233   6.750
 7506POPC   C3B40869  10.307  22.174   7.050
 7506POPC   C4B40870  10.231  22.160   7.350
 7507POPC   NC340871  35.373  12.816   5.550
 7507POPC   PO440872  35.394  12.847   5.850
 7507POPC   GL140873  35.312  12.872   6.150
 7507POPC   GL240874  35.516  12.865   6.150
 7507POPC   C1A40875  35.399  12.901   6.450
 7507POPC   D2A40876  35.381  12.814   6.750
 7507POPC   C3A40877  35.343  12.900   7.050
 7507POPC   C4A40878  35.350  12.852   7.350
 7507POPC   C1B40879  35.557  12.969   6.450
 7507POPC   C2B40880  35.573  12.959   6.750
 7507POPC   C3B40881  35.601  12.897   7.050
 7507POPC   C4B40882  35.592  12.952   7.350
 7508POPC   NC340883  19.028  41.590   5.550
 7508POPC   PO440884  19.018  41.542   5.850
 7508POPC   GL140885  19.040  41.518   6.150
 7508POPC   GL240886  18.973  41.442   6.150
 7508POPC   C1A40887  19.021  41.605   6.450
 7508POPC   D2A40888  19.032  41.541   6.750
 7508POPC   C3A40889  19.041  41.531   7.050
 7508POPC   C4A40890  19.046  41.585   7.350
 7508POPC   C1B40891  18.882  41.410   6.450
 7508POPC   C2B40892  18.892  41.453   6.750
 7508POPC   C3B40893  18.844  41.383   7.050
 7508POPC   C4B40894  18.862  41.451   7.350
 7509POPC   NC340895   4.289  14.451   5.550
 7509POPC   PO440896   4.322  14.434   5.850
 7509POPC   GL140897   4.318  14.443   6.150
 7509POPC   GL240898   4.205  14.375   6.150
 7509POPC   C1A40899   4.292  14.422   6.450
 7509POPC   D2A40900   4.297  14.365   6.750
 7509POPC   C3A40901   4.345  14.395   7.050
 7509POPC   C4A40902   4.360  14.444   7.350
 7509POPC   C1B40903   4.105  14.356   6.450
 7509POPC   C2B40904   4.109  14.410   6.750
 7509POPC   C3B40905   4.036  14.383   7.050
 7509POPC   C4B40906   4.076  14.335   7.350
 7510POPC   NC340907   5.142  35.329   5.550
 7510POPC   PO440908   5.050  35.359   5.850
 7510POPC   GL140909   5.098  35.373   6.150
 7510POPC   GL240910   5.015  35.395   6.150
 7510POPC   C1A40911   5.124  35.331   6.450
 7510POPC   D2A40912   5.108  35.359   6.750
 7510POPC   C3A40913   5.056  35.343   7.050
 7510POPC   C4A40914   5.069  35.333   7.350
 7510POPC   C1B40915   4.838  35.366   6.450
 7510POPC   C2B40916   4.804  35.348   6.750
 7510POPC   C3B40917   4.824  35.369   7.050
 7510POPC   C4B40918   4.832  35.336   7.350
 7511POPC   NC340919   7.446   2.802   5.550
 7511POPC   PO440920   7.434   2.730   5.850
 7511POPC   GL140921   7.404   2.768   6.150
 7511POPC   GL240922   7.474   2.629   6.150
 7511POPC   C1A40923   7.393   2.747   6.450
 7511POPC   D2A40924   7.373   2.784   6.750
 7511POPC   C3A40925   7.393   2.755   7.050
 7511POPC   C4A40926   7.460   2.751   7.350
 7511POPC   C1B40927   7.437   2.516   6.450
 7511POPC   C2B40928   7.522   2.538   6.750
 7511POPC   C3B40929   7.494   2.557   7.050
 7511POPC   C4B40930   7.485   2.479   7.350
 7512POPC   NC340931   8.230  17.496   5.550
 7512POPC   PO440932   8.204  17.495   5.850
 7512POPC   GL140933   8.147  17.467   6.150
 7512POPC   GL240934   8.297  17.425   6.150
 7512POPC   C1A40935   8.237  17.486   6.450
 7512POPC   D2A40936   8.216  17.508   6.750
 7512POPC   C3A40937   8.224  17.549   7.050
 7512POPC   C4A40938   8.175  17.471   7.350
 7512POPC   C1B40939   8.404  17.345   6.450
 7512POPC   C2B40940   8.332  17.317   6.750
 7512POPC   C3B40941   8.354  17.310   7.050
 7512POPC   C4B40942   8.366  17.318   7.350
 7513POPC   NC340943  19.809   3.504   5.550
 7513POPC   PO440944  19.862   3.560   5.850
 7513POPC   GL140945  19.801   3.517   6.150
 7513POPC   GL240946  19.762   3.407   6.150
 7513POPC   C1A40947  19.825   3.532   6.450
 7513POPC   D2A40948  19.838   3.509   6.750
 7513POPC   C3A40949  19.851   3.520   7.050
 7513POPC   C4A40950  19.852   3.578   7.350
 7513POPC   C1B40951  19.818   3.301   6.450
 7513POPC   C2B40952  19.781   3.313   6.750
 7513POPC   C3B40953  19.811   3.342   7.050
 7513POPC   C4B40954  19.813   3.324   7.350
 7514POPC   NC340955  12.841  36.145   5.550
 7514POPC   PO440956  12.846  36.125   5.850
 7514POPC   GL140957  12.806  36.127   6.150
 7514POPC   GL240958  12.873  36.267   6.150
 7514POPC   C1A40959  12.897  36.096   6.450
 7514POPC   D2A40960  12.821  36.116   6.750
 7514POPC   C3A40961  12.819  36.168   7.050
 7514POPC   C4A40962  12.896  36.114   7.350
 7514POPC   C1B40963  12.790  36.339   6.450
 7514POPC   C2B40964  12.857  36.366   6.750
 7514POPC   C3B40965  12.817  36.426   7.050
 7514POPC   C4B40966  12.868  36.400   7.350
 7515POPC   NC340967  17.524  43.079   5.550
 7515POPC   PO440968  17.520  43.096   5.850
 7515POPC   GL140969  17.496  43.129   6.150
 7515POPC   GL240970  17.609  43.009   6.150
 7515POPC   C1A40971  17.526  43.075   6.450
 7515POPC   D2A40972  17.491  43.079   6.750
 7515POPC   C3A40973  17.544  43.109   7.050
 7515POPC   C4A40974  17.526  43.069   7.350
 7515POPC   C1B40975  17.640  42.951   6.450
 7515POPC   C2B40976  17.639  42.930   6.750
 7515POPC   C3B40977  17.648  42.896   7.050
 7515POPC   C4B40978  17.668  42.889   7.350
 7516POPC   NC340979  11.272  16.706   5.550
 7516POPC   PO440980  11.293  16.733   5.850
 7516POPC   GL140981  11.267  16.752   6.150
 7516POPC   GL240982  11.402  16.799   6.150
 7516POPC   C1A40983  11.280  16.745   6.450
 7516POPC   D2A40984  11.277  16.768   6.750
 7516POPC   C3A40985  11.313  16.732   7.050
 7516POPC   C4A40986  11.310  16.690   7.350
 7516POPC   C1B40987  11.455  16.866   6.450
 7516POPC   C2B40988  11.534  16.885   6.750
 7516POPC   C3B40989  11.540  16.897   7.050
 7516POPC   C4B40990  11.460  16.879   7.350
 7517POPC   NC340991  25.294   1.990   5.550
 7517POPC   PO440992  25.302   2.020   5.850
 7517POPC   GL140993  25.235   1.990   6.150
 7517POPC   GL240994  25.232   1.880   6.150
 7517POPC   C1A40995  25.269   1.988   6.450
 7517POPC   D2A40996  25.305   2.034   6.750
 7517POPC   C3A40997  25.233   2.026   7.050
 7517POPC   C4A40998  25.269   1.982   7.350
 7517POPC   C1B40999  25.153   1.794   6.450
 7517POPC   C2B41000  25.142   1.827   6.750
 7517POPC   C3B41001  25.148   1.770   7.050
 7517POPC   C4B41002  25.117   1.737   7.350
 7518POPC   NC341003   5.064  30.731   5.550
 7518POPC   PO441004   5.064  30.734   5.850
 7518POPC   GL141005   5.057  30.740   6.150
 7518POPC   GL241006   5.145  30.526   6.150
 7518POPC   C1A41007   5.118  30.682   6.450
 7518POPC   D2A41008   5.143  30.688   6.750
 7518POPC   C3A41009   5.089  30.673   7.050
 7518POPC   C4A41010   5.099  30.705   7.350
 7518POPC   C1B41011   5.063  30.475   6.450
 7518POPC   C2B41012   5.125  30.398   6.750
 7518POPC   C3B41013   5.145  30.458   7.050
 7518POPC   C4B41014   5.128  30.463   7.350
 7519POPC   NC341015  21.427  36.101   5.550
 7519POPC   PO441016  21.363  36.155   5.850
 7519POPC   GL141017  21.389  36.098   6.150
 7519POPC   GL241018  21.458  36.076   6.150
 7519POPC   C1A41019  21.418  36.164   6.450
 7519POPC   D2A41020  21.341  36.118   6.750
 7519POPC   C3A41021  21.429  36.167   7.050
 7519POPC   C4A41022  21.384  36.081   7.350
 7519POPC   C1B41023  21.669  36.014   6.450
 7519POPC   C2B41024  21.642  36.006   6.750
 7519POPC   C3B41025  21.638  36.068   7.050
 7519POPC   C4B41026  21.587  35.998   7.350
 7520POPC   NC341027  11.255  37.676   5.550
 7520POPC   PO441028  11.257  37.663   5.850
 7520POPC   GL141029  11.343  37.657   6.150
 7520POPC   GL241030  11.434  37.666   6.150
 7520POPC   C1A41031  11.284  37.662   6.450
 7520POPC   D2A41032  11.286  37.683   6.750
 7520POPC   C3A41033  11.288  37.722   7.050
 7520POPC   C4A41034  11.293  37.637   7.350
 7520POPC   C1B41035  11.566  37.587   6.450
 7520POPC   C2B41036  11.529  37.618   6.750
 7520POPC   C3B41037  11.567  37.615   7.050
 7520POPC   C4B41038  11.493  37.531   7.350
 7521POPC   NC341039  40.776  28.394   5.550
 7521POPC   PO441040  40.743  28.375   5.850
 7521POPC   GL141041  40.808  28.324   6.150
 7521POPC   GL241042  40.914  28.440   6.150
 7521POPC   C1A41043  40.815  28.381   6.450
 7521POPC   D2A41044  40.735  28.412   6.750
 7521POPC   C3A41045  40.793  28.321   7.050
 7521POPC   C4A41046  40.767  28.372   7.350
 7521POPC   C1B41047  41.028  28.504   6.450
 7521POPC   C2B41048  40.979  28.506   6.750
 7521POPC   C3B41049  40.982  28.499   7.050
 7521POPC   C4B41050  41.001  28.485   7.350
 7522POPC   NC341051  31.434  36.152   5.550
 7522POPC   PO441052  31.429  36.094   5.850
 7522POPC   GL141053  31.513  36.115   6.150
 7522POPC   GL241054  31.369  36.151   6.150
 7522POPC   C1A41055  31.437  36.111   6.450
 7522POPC   D2A41056  31.505  36.096   6.750
 7522POPC   C3A41057  31.478  36.094   7.050
 7522POPC   C4A41058  31.451  36.165   7.350
 7522POPC   C1B41059  31.283  36.248   6.450
 7522POPC   C2B41060  31.249  36.246   6.750
 7522POPC   C3B41061  31.193  36.246   7.050
 7522POPC   C4B41062  31.212  36.184   7.350
 7523POPC   NC341063  19.029  25.297   5.550
 7523POPC   PO441064  19.076  25.292   5.850
 7523POPC   GL141065  19.101  25.279   6.150
 7523POPC   GL241066  19.155  25.305   6.150
 7523POPC   C1A41067  19.014  25.273   6.450
 7523POPC   D2A41068  19.086  25.220   6.750
 7523POPC   C3A41069  19.090  25.308   7.050
 7523POPC   C4A41070  19.058  25.262   7.350
 7523POPC   C1B41071  19.347  25.274   6.450
 7523POPC   C2B41072  19.298  25.254   6.750
 7523POPC   C3B41073  19.267  25.292   7.050
 7523POPC   C4B41074  19.257  25.305   7.350
 7524POPC   NC341075  16.733  34.540   5.550
 7524POPC   PO441076  16.707  34.598   5.850
 7524POPC   GL141077  16.749  34.600   6.150
 7524POPC   GL241078  16.788  34.677   6.150
 7524POPC   C1A41079  16.728  34.572   6.450
 7524POPC   D2A41080  16.773  34.606   6.750
 7524POPC   C3A41081  16.702  34.558   7.050
 7524POPC   C4A41082  16.775  34.574   7.350
 7524POPC   C1B41083  16.896  34.756   6.450
 7524POPC   C2B41084  16.924  34.687   6.750
 7524POPC   C3B41085  16.919  34.764   7.050
 7524POPC   C4B41086  16.952  34.727   7.350
 7525POPC   NC341087   0.464  19.077   5.550
 7525POPC   PO441088   0.425  19.089   5.850
 7525POPC   GL141089   0.401  19.038   6.150
 7525POPC   GL241090   0.379  19.163   6.150
 7525POPC   C1A41091   0.412  19.011   6.450
 7525POPC   D2A41092   0.465  19.069   6.750
 7525POPC   C3A41093   0.424  19.040   7.050
 7525POPC   C4A41094   0.421  19.034   7.350
 7525POPC   C1B41095   0.254  19.245   6.450
 7525POPC   C2B41096   0.277  19.281   6.750
 7525POPC   C3B41097   0.310  19.257   7.050
 7525POPC   C4B41098   0.241  19.256   7.350
 7526POPC   NC341099   8.971  38.470   5.550
 7526POPC   PO441100   8.977  38.430   5.850
 7526POPC   GL141101   8.976  38.429   6.150
 7526POPC   GL241102   8.957  38.548   6.150
 7526POPC   C1A41103   8.996  38.487   6.450
 7526POPC   D2A41104   8.984  38.408   6.750
 7526POPC   C3A41105   8.929  38.500   7.050
 7526POPC   C4A41106   8.988  38.428   7.350
 7526POPC   C1B41107   8.993  38.724   6.450
 7526POPC   C2B41108   8.953  38.726   6.750
 7526POPC   C3B41109   8.982  38.689   7.050
 7526POPC   C4B41110   8.967  38.742   7.350
 7527POPC   NC341111  16.753   6.649   5.550
 7527POPC   PO441112  16.701   6.660   5.850
 7527POPC   GL141113  16.682   6.643   6.150
 7527POPC   GL241114  16.666   6.764   6.150
 7527POPC   C1A41115  16.701   6.600   6.450
 7527POPC   D2A41116  16.719   6.633   6.750
 7527POPC   C3A41117  16.777   6.683   7.050
 7527POPC   C4A41118  16.756   6.622   7.350
 7527POPC   C1B41119  16.629   6.880   6.450
 7527POPC   C2B41120  16.586   6.902   6.750
 7527POPC   C3B41121  16.560   6.905   7.050
 7527POPC   C4B41122  16.554   6.821   7.350
 7528POPC   NC341123  36.091  18.305   5.550
 7528POPC   PO441124  36.088  18.233   5.850
 7528POPC   GL141125  36.121  18.245   6.150
 7528POPC   GL241126  36.295  18.323   6.150
 7528POPC   C1A41127  36.146  18.278   6.450
 7528POPC   D2A41128  36.140  18.255   6.750
 7528POPC   C3A41129  36.141  18.277   7.050
 7528POPC   C4A41130  36.088  18.296   7.350
 7528POPC   C1B41131  36.423  18.284   6.450
 7528POPC   C2B41132  36.363  18.287   6.750
 7528POPC   C3B41133  36.328  18.242   7.050
 7528POPC   C4B41134  36.365  18.243   7.350
 7529POPC   NC341135  38.417  36.871   5.550
 7529POPC   PO441136  38.448  36.891   5.850
 7529POPC   GL141137  38.430  36.908   6.150
 7529POPC   GL241138  38.431  36.770   6.150
 7529POPC   C1A41139  38.458  36.861   6.450
 7529POPC   D2A41140  38.429  36.934   6.750
 7529POPC   C3A41141  38.493  36.855   7.050
 7529POPC   C4A41142  38.430  36.873   7.350
 7529POPC   C1B41143  38.318  36.669   6.450
 7529POPC   C2B41144  38.345  36.666   6.750
 7529POPC   C3B41145  38.381  36.698   7.050
 7529POPC   C4B41146  38.391  36.696   7.350
 7530POPC   NC341147  29.885  41.535   5.550
 7530POPC   PO441148  29.880  41.607   5.850
 7530POPC   GL141149  29.959  41.526   6.150
 7530POPC   GL241150  29.969  41.460   6.150
 7530POPC   C1A41151  29.874  41.555   6.450
 7530POPC   D2A41152  29.889  41.546   6.750
 7530POPC   C3A41153  29.941  41.524   7.050
 7530POPC   C4A41154  29.927  41.595   7.350
 7530POPC   C1B41155  29.948  41.272   6.450
 7530POPC   C2B41156  29.945  41.325   6.750
 7530POPC   C3B41157  29.944  41.272   7.050
 7530POPC   C4B41158  29.953  41.274   7.350
 7531POPC   NC341159   0.401   5.907   5.550
 7531POPC   PO441160   0.474   5.893   5.850
 7531POPC   GL141161   0.485   5.904   6.150
 7531POPC   GL241162   0.317   5.937   6.150
 7531POPC   C1A41163   0.389   5.840   6.450
 7531POPC   D2A41164   0.411   5.893   6.750
 7531POPC   C3A41165   0.396   5.832   7.050
 7531POPC   C4A41166   0.464   5.856   7.350
 7531POPC   C1B41167   0.156   5.927   6.450
 7531POPC   C2B41168   0.204   5.909   6.750
 7531POPC   C3B41169   0.149   5.933   7.050
 7531POPC   C4B41170   0.241   5.958   7.350
 7532POPC   NC341171  40.828  34.557   5.550
 7532POPC   PO441172  40.807  34.618   5.850
 7532POPC   GL141173  40.756  34.618   6.150
 7532POPC   GL241174  40.887  34.601   6.150
 7532POPC   C1A41175  40.788  34.606   6.450
 7532POPC   D2A41176  40.802  34.619   6.750
 7532POPC   C3A41177  40.777  34.569   7.050
 7532POPC   C4A41178  40.735  34.600   7.350
 7532POPC   C1B41179  41.006  34.662   6.450
 7532POPC   C2B41180  40.987  34.683   6.750
 7532POPC   C3B41181  41.010  34.667   7.050
 7532POPC   C4B41182  41.041  34.670   7.350
 7533POPC   NC341183  27.628   0.425   5.550
 7533POPC   PO441184  27.583   0.467   5.850
 7533POPC   GL141185  27.574   0.412   6.150
 7533POPC   GL241186  27.455   0.464   6.150
 7533POPC   C1A41187  27.569   0.401   6.450
 7533POPC   D2A41188  27.603   0.439   6.750
 7533POPC   C3A41189  27.546   0.429   7.050
 7533POPC   C4A41190  27.587   0.407   7.350
 7533POPC   C1B41191  27.355   0.556   6.450
 7533POPC   C2B41192  27.375   0.536   6.750
 7533POPC   C3B41193  27.370   0.484   7.050
 7533POPC   C4B41194  27.310   0.466   7.350
 7534POPC   NC341195  10.505  33.765   5.550
 7534POPC   PO441196  10.487  33.759   5.850
 7534POPC   GL141197  10.563  33.778   6.150
 7534POPC   GL241198  10.416  33.779   6.150
 7534POPC   C1A41199  10.489  33.811   6.450
 7534POPC   D2A41200  10.498  33.769   6.750
 7534POPC   C3A41201  10.487  33.793   7.050
 7534POPC   C4A41202  10.503  33.792   7.350
 7534POPC   C1B41203  10.243  33.728   6.450
 7534POPC   C2B41204  10.246  33.755   6.750
 7534POPC   C3B41205  10.237  33.768   7.050
 7534POPC   C4B41206  10.307  33.791   7.350
 7535POPC   NC341207  29.168   9.732   5.550
 7535POPC   PO441208  29.161   9.708   5.850
 7535POPC   GL141209  29.127   9.790   6.150
 7535POPC   GL241210  29.159   9.898   6.150
 7535POPC   C1A41211  29.190   9.755   6.450
 7535POPC   D2A41212  29.127   9.760   6.750
 7535POPC   C3A41213  29.133   9.712   7.050
 7535POPC   C4A41214  29.138   9.702   7.350
 7535POPC   C1B41215  29.236   9.975   6.450
 7535POPC   C2B41216  29.305   9.940   6.750
 7535POPC   C3B41217  29.224   9.968   7.050
 7535POPC   C4B41218  29.236   9.930   7.350
 7536POPC   NC341219  12.844   5.114   5.550
 7536POPC   PO441220  12.824   5.120   5.850
 7536POPC   GL141221  12.804   5.054   6.150
 7536POPC   GL241222  12.765   4.990   6.150
 7536POPC   C1A41223  12.884   5.055   6.450
 7536POPC   D2A41224  12.820   5.094   6.750
 7536POPC   C3A41225  12.809   5.045   7.050
 7536POPC   C4A41226  12.879   5.125   7.350
 7536POPC   C1B41227  12.681   4.959   6.450
 7536POPC   C2B41228  12.682   4.945   6.750
 7536POPC   C3B41229  12.661   4.911   7.050
 7536POPC   C4B41230  12.690   4.985   7.350
 7537POPC   NC341231  25.315   6.635   5.550
 7537POPC   PO441232  25.298   6.662   5.850
 7537POPC   GL141233  25.248   6.608   6.150
 7537POPC   GL241234  25.180   6.763   6.150
 7537POPC   C1A41235  25.290   6.659   6.450
 7537POPC   D2A41236  25.272   6.690   6.750
 7537POPC   C3A41237  25.275   6.636   7.050
 7537POPC   C4A41238  25.267   6.650   7.350
 7537POPC   C1B41239  25.236   6.858   6.450
 7537POPC   C2B41240  25.169   6.871   6.750
 7537POPC   C3B41241  25.238   6.879   7.050
 7537POPC   C4B41242  25.202   6.924   7.350
 7538POPC   NC341243   6.609  15.971   5.550
 7538POPC   PO441244   6.668  15.965   5.850
 7538POPC   GL141245   6.637  15.924   6.150
 7538POPC   GL241246   6.598  15.784   6.150
 7538POPC   C1A41247   6.689  15.975   6.450
 7538POPC   D2A41248   6.692  15.919   6.750
 7538POPC   C3A41249   6.628  15.931   7.050
 7538POPC   C4A41250   6.657  15.935   7.350
 7538POPC   C1B41251   6.551  15.690   6.450
 7538POPC   C2B41252   6.632  15.676   6.750
 7538POPC   C3B41253   6.581  15.734   7.050
 7538POPC   C4B41254   6.568  15.679   7.350
 7539POPC   NC341255  43.068   5.109   5.550
 7539POPC   PO441256  43.126   5.115   5.850
 7539POPC   GL141257  43.101   5.120   6.150
 7539POPC   GL241258  43.013   5.178   6.150
 7539POPC   C1A41259  43.137   5.069   6.450
 7539POPC   D2A41260  43.157   5.059   6.750
 7539POPC   C3A41261  43.075   5.085   7.050
 7539POPC   C4A41262  43.137   5.135   7.350
 7539POPC   C1B41263  42.900   5.218   6.450
 7539POPC   C2B41264  42.947   5.268   6.750
 7539POPC   C3B41265  42.884   5.239   7.050
 7539POPC   C4B41266  42.933   5.220   7.350
 7540POPC   NC341267   7.409  15.186   5.550
 7540POPC   PO441268   7.417  15.139   5.850
 7540POPC   GL141269   7.443  15.219   6.150
 7540POPC   GL241270   7.288  15.278   6.150
 7540POPC   C1A41271   7.430  15.195   6.450
 7540POPC   D2A41272   7.468  15.141   6.750
 7540POPC   C3A41273   7.413  15.223   7.050
 7540POPC   C4A41274   7.435  15.190   7.350
 7540POPC   C1B41275   7.207  15.319   6.450
 7540POPC   C2B41276   7.204  15.278   6.750
 7540POPC   C3B41277   7.231  15.350   7.050
 7540POPC   C4B41278   7.165  15.323   7.350
 7541POPC   NC341279  11.295  40.738   5.550
 7541POPC   PO441280  11.304  40.788   5.850
 7541POPC   GL141281  11.265  40.762   6.150
 7541POPC   GL241282  11.434  40.719   6.150
 7541POPC   C1A41283  11.284  40.799   6.450
 7541POPC   D2A41284  11.322  40.779   6.750
 7541POPC   C3A41285  11.332  40.822   7.050
 7541POPC   C4A41286  11.259  40.741   7.350
 7541POPC   C1B41287  11.449  40.556   6.450
 7541POPC   C2B41288  11.468  40.579   6.750
 7541POPC   C3B41289  11.442  40.620   7.050
 7541POPC   C4B41290  11.462  40.648   7.350
 7542POPC   NC341291  28.331  11.306   5.550
 7542POPC   PO441292  28.320  11.326   5.850
 7542POPC   GL141293  28.398  11.330   6.150
 7542POPC   GL241294  28.339  11.237   6.150
 7542POPC   C1A41295  28.363  11.297   6.450
 7542POPC   D2A41296  28.364  11.330   6.750
 7542POPC   C3A41297  28.350  11.271   7.050
 7542POPC   C4A41298  28.333  11.315   7.350
 7542POPC   C1B41299  28.187  11.125   6.450
 7542POPC   C2B41300  28.224  11.121   6.750
 7542POPC   C3B41301  28.263  11.101   7.050
 7542POPC   C4B41302  28.244  11.121   7.350
 7543POPC   NC341303  22.193  31.498   5.550
 7543POPC   PO441304  22.151  31.479   5.850
 7543POPC   GL141305  22.192  31.504   6.150
 7543POPC   GL241306  22.327  31.492   6.150
 7543POPC   C1A41307  22.113  31.502   6.450
 7543POPC   D2A41308  22.159  31.449   6.750
 7543POPC   C3A41309  22.129  31.507   7.050
 7543POPC   C4A41310  22.194  31.467   7.350
 7543POPC   C1B41311  22.378  31.413   6.450
 7543POPC   C2B41312  22.457  31.405   6.750
 7543POPC   C3B41313  22.450  31.399   7.050
 7543POPC   C4B41314  22.409  31.452   7.350
 7544POPC   NC341315  15.227  23.714   5.550
 7544POPC   PO441316  15.204  23.711   5.850
 7544POPC   GL141317  15.160  23.751   6.150
 7544POPC   GL241318  15.120  23.624   6.150
 7544POPC   C1A41319  15.184  23.743   6.450
 7544POPC   D2A41320  15.197  23.711   6.750
 7544POPC   C3A41321  15.187  23.729   7.050
 7544POPC   C4A41322  15.178  23.711   7.350
 7544POPC   C1B41323  14.982  23.566   6.450
 7544POPC   C2B41324  15.004  23.568   6.750
 7544POPC   C3B41325  15.004  23.550   7.050
 7544POPC   C4B41326  15.061  23.501   7.350
 7545POPC   NC341327  39.964  28.329   5.550
 7545POPC   PO441328  39.993  28.409   5.850
 7545POPC   GL141329  40.045  28.382   6.150
 7545POPC   GL241330  40.024  28.215   6.150
 7545POPC   C1A41331  39.975  28.349   6.450
 7545POPC   D2A41332  39.963  28.334   6.750
 7545POPC   C3A41333  40.026  28.414   7.050
 7545POPC   C4A41334  39.988  28.393   7.350
 7545POPC   C1B41335  40.047  28.120   6.450
 7545POPC   C2B41336  39.980  28.096   6.750
 7545POPC   C3B41337  39.985  28.163   7.050
 7545POPC   C4B41338  40.054  28.112   7.350
 7546POPC   NC341339  43.087  30.665   5.550
 7546POPC   PO441340  43.102  30.680   5.850
 7546POPC   GL141341  43.120  30.718   6.150
 7546POPC   GL241342  43.123  30.597   6.150
 7546POPC   C1A41343  43.081  30.722   6.450
 7546POPC   D2A41344  43.128  30.683   6.750
 7546POPC   C3A41345  43.093  30.737   7.050
 7546POPC   C4A41346  43.086  30.745   7.350
 7546POPC   C1B41347  43.092  30.417   6.450
 7546POPC   C2B41348  43.066  30.433   6.750
 7546POPC   C3B41349  43.056  30.479   7.050
 7546POPC   C4B41350  43.024  30.492   7.350
 7547POPC   NC341351  21.393   2.019   5.550
 7547POPC   PO441352  21.348   1.980   5.850
 7547POPC   GL141353  21.344   1.974   6.150
 7547POPC   GL241354  21.444   1.888   6.150
 7547POPC   C1A41355  21.369   2.014   6.450
 7547POPC   D2A41356  21.404   1.967   6.750
 7547POPC   C3A41357  21.423   1.976   7.050
 7547POPC   C4A41358  21.410   2.028   7.350
 7547POPC   C1B41359  21.544   1.763   6.450
 7547POPC   C2B41360  21.500   1.791   6.750
 7547POPC   C3B41361  21.533   1.805   7.050
 7547POPC   C4B41362  21.445   1.771   7.350
 7548POPC   NC341363  43.122  40.749   5.550
 7548POPC   PO441364  43.125  40.784   5.850
 7548POPC   GL141365  43.080  40.772   6.150
 7548POPC   GL241366  42.973  40.753   6.150
 7548POPC   C1A41367  43.099  40.736   6.450
 7548POPC   D2A41368  43.063  40.826   6.750
 7548POPC   C3A41369  43.095  40.767   7.050
 7548POPC   C4A41370  43.146  40.754   7.350
 7548POPC   C1B41371  42.894  40.712   6.450
 7548POPC   C2B41372  42.911  40.763   6.750
 7548POPC   C3B41373  42.844  40.749   7.050
 7548POPC   C4B41374  42.902  40.709   7.350
 7549POPC   NC341375  24.484  26.862   5.550
 7549POPC   PO441376  24.449  26.831   5.850
 7549POPC   GL141377  24.502  26.782   6.150
 7549POPC   GL241378  24.438  26.909   6.150
 7549POPC   C1A41379  24.459  26.844   6.450
 7549POPC   D2A41380  24.479  26.776   6.750
 7549POPC   C3A41381  24.536  26.781   7.050
 7549POPC   C4A41382  24.468  26.860   7.350
 7549POPC   C1B41383  24.380  27.009   6.450
 7549POPC   C2B41384  24.413  27.048   6.750
 7549POPC   C3B41385  24.360  27.060   7.050
 7549POPC   C4B41386  24.445  27.083   7.350
 7550POPC   NC341387  38.456  21.428   5.550
 7550POPC   PO441388  38.415  21.432   5.850
 7550POPC   GL141389  38.473  21.383   6.150
 7550POPC   GL241390  38.309  21.266   6.150
 7550POPC   C1A41391  38.451  21.341   6.450
 7550POPC   D2A41392  38.473  21.430   6.750
 7550POPC   C3A41393  38.446  21.366   7.050
 7550POPC   C4A41394  38.502  21.388   7.350
 7550POPC   C1B41395  38.222  21.264   6.450
 7550POPC   C2B41396  38.237  21.259   6.750
 7550POPC   C3B41397  38.224  21.278   7.050
 7550POPC   C4B41398  38.237  21.259   7.350
 7551POPC   NC341399  32.277  11.337   5.550
 7551POPC   PO441400  32.260  11.345   5.850
 7551POPC   GL141401  32.298  11.260   6.150
 7551POPC   GL241402  32.346  11.208   6.150
 7551POPC   C1A41403  32.277  11.327   6.450
 7551POPC   D2A41404  32.286  11.333   6.750
 7551POPC   C3A41405  32.233  11.311   7.050
 7551POPC   C4A41406  32.250  11.314   7.350
 7551POPC   C1B41407  32.424  11.083   6.450
 7551POPC   C2B41408  32.360  11.098   6.750
 7551POPC   C3B41409  32.385  11.117   7.050
 7551POPC   C4B41410  32.409  11.128   7.350
 7552POPC   NC341411  29.163  37.651   5.550
 7552POPC   PO441412  29.137  37.720   5.850
 7552POPC   GL141413  29.124  37.712   6.150
 7552POPC   GL241414  29.031  37.727   6.150
 7552POPC   C1A41415  29.187  37.646   6.450
 7552POPC   D2A41416  29.141  37.706   6.750
 7552POPC   C3A41417  29.181  37.673   7.050
 7552POPC   C4A41418  29.190  37.692   7.350
 7552POPC   C1B41419  28.937  37.837   6.450
 7552POPC   C2B41420  28.937  37.880   6.750
 7552POPC   C3B41421  28.942  37.820   7.050
 7552POPC   C4B41422  28.928  37.862   7.350
 7553POPC   NC341423  19.870  36.131   5.550
 7553POPC   PO441424  19.814  36.103   5.850
 7553POPC   GL141425  19.875  36.160   6.150
 7553POPC   GL241426  19.988  36.089   6.150
 7553POPC   C1A41427  19.811  36.152   6.450
 7553POPC   D2A41428  19.789  36.104   6.750
 7553POPC   C3A41429  19.804  36.118   7.050
 7553POPC   C4A41430  19.829  36.107   7.350
 7553POPC   C1B41431  20.117  36.119   6.450
 7553POPC   C2B41432  20.074  36.130   6.750
 7553POPC   C3B41433  20.061  36.112   7.050
 7553POPC   C4B41434  20.074  36.129   7.350
 7554POPC   NC341435  38.479  23.726   5.550
 7554POPC   PO441436  38.448  23.672   5.850
 7554POPC   GL141437  38.431  23.720   6.150
 7554POPC   GL241438  38.575  23.836   6.150
 7554POPC   C1A41439  38.498  23.727   6.450
 7554POPC   D2A41440  38.431  23.667   6.750
 7554POPC   C3A41441  38.499  23.737   7.050
 7554POPC   C4A41442  38.492  23.727   7.350
 7554POPC   C1B41443  38.583  23.927   6.450
 7554POPC   C2B41444  38.621  23.878   6.750
 7554POPC   C3B41445  38.594  23.890   7.050
 7554POPC   C4B41446  38.643  23.942   7.350
 7555POPC   NC341447   2.741  13.667   5.550
 7555POPC   PO441448   2.811  13.608   5.850
 7555POPC   GL141449   2.722  13.646   6.150
 7555POPC   GL241450   2.804  13.694   6.150
 7555POPC   C1A41451   2.741  13.643   6.450
 7555POPC   D2A41452   2.785  13.645   6.750
 7555POPC   C3A41453   2.719  13.648   7.050
 7555POPC   C4A41454   2.808  13.610   7.350
 7555POPC   C1B41455   2.928  13.786   6.450
 7555POPC   C2B41456   2.934  13.802   6.750
 7555POPC   C3B41457   2.937  13.865   7.050
 7555POPC   C4B41458   2.900  13.815   7.350
 7556POPC   NC341459  33.826  41.538   5.550
 7556POPC   PO441460  33.759  41.571   5.850
 7556POPC   GL141461  33.766  41.525   6.150
 7556POPC   GL241462  33.756  41.694   6.150
 7556POPC   C1A41463  33.827  41.574   6.450
 7556POPC   D2A41464  33.775  41.557   6.750
 7556POPC   C3A41465  33.767  41.549   7.050
 7556POPC   C4A41466  33.769  41.594   7.350
 7556POPC   C1B41467  33.638  41.761   6.450
 7556POPC   C2B41468  33.727  41.749   6.750
 7556POPC   C3B41469  33.712  41.789   7.050
 7556POPC   C4B41470  33.680  41.768   7.350
 7557POPC   NC341471  25.284   1.247   5.550
 7557POPC   PO441472  25.231   1.175   5.850
 7557POPC   GL141473  25.230   1.194   6.150
 7557POPC   GL241474  25.306   1.307   6.150
 7557POPC   C1A41475  25.247   1.186   6.450
 7557POPC   D2A41476  25.296   1.188   6.750
 7557POPC   C3A41477  25.267   1.200   7.050
 7557POPC   C4A41478  25.272   1.222   7.350
 7557POPC   C1B41479  25.361   1.446   6.450
 7557POPC   C2B41480  25.320   1.417   6.750
 7557POPC   C3B41481  25.310   1.486   7.050
 7557POPC   C4B41482  25.312   1.442   7.350
 7558POPC   NC341483   8.977  39.215   5.550
 7558POPC   PO441484   9.018  39.251   5.850
 7558POPC   GL141485   9.002  39.225   6.150
 7558POPC   GL241486   8.810  39.246   6.150
 7558POPC   C1A41487   8.985  39.276   6.450
 7558POPC   D2A41488   8.942  39.196   6.750
 7558POPC   C3A41489   8.965  39.205   7.050
 7558POPC   C4A41490   8.993  39.261   7.350
 7558POPC   C1B41491   8.737  39.210   6.450
 7558POPC   C2B41492   8.774  39.155   6.750
 7558POPC   C3B41493   8.695  39.179   7.050
 7558POPC   C4B41494   8.758  39.166   7.350
 7559POPC   NC341495  22.200  40.016   5.550
 7559POPC   PO441496  22.185  39.997   5.850
 7559POPC   GL141497  22.131  39.983   6.150
 7559POPC   GL241498  22.313  40.021   6.150
 7559POPC   C1A41499  22.128  40.044   6.450
 7559POPC   D2A41500  22.206  39.972   6.750
 7559POPC   C3A41501  22.193  40.004   7.050
 7559POPC   C4A41502  22.186  40.039   7.350
 7559POPC   C1B41503  22.381  40.085   6.450
 7559POPC   C2B41504  22.394  40.056   6.750
 7559POPC   C3B41505  22.454  40.087   7.050
 7559POPC   C4B41506  22.412  40.084   7.350
 7560POPC   NC341507   6.684  33.822   5.550
 7560POPC   PO441508   6.609  33.846   5.850
 7560POPC   GL141509   6.656  33.760   6.150
 7560POPC   GL241510   6.606  33.627   6.150
 7560POPC   C1A41511   6.603  33.840   6.450
 7560POPC   D2A41512   6.674  33.837   6.750
 7560POPC   C3A41513   6.619  33.772   7.050
 7560POPC   C4A41514   6.663  33.793   7.350
 7560POPC   C1B41515   6.583  33.554   6.450
 7560POPC   C2B41516   6.597  33.503   6.750
 7560POPC   C3B41517   6.569  33.575   7.050
 7560POPC   C4B41518   6.629  33.515   7.350
 7561POPC   NC341519  37.660   6.654   5.550
 7561POPC   PO441520  37.639   6.668   5.850
 7561POPC   GL141521  37.659   6.676   6.150
 7561POPC   GL241522  37.569   6.531   6.150
 7561POPC   C1A41523  37.655   6.683   6.450
 7561POPC   D2A41524  37.725   6.618   6.750
 7561POPC   C3A41525  37.724   6.664   7.050
 7561POPC   C4A41526  37.665   6.669   7.350
 7561POPC   C1B41527  37.552   6.425   6.450
 7561POPC   C2B41528  37.478   6.410   6.750
 7561POPC   C3B41529  37.536   6.504   7.050
 7561POPC   C4B41530  37.510   6.414   7.350
 7562POPC   NC341531  15.980  43.911   5.550
 7562POPC   PO441532  16.002  43.856   5.850
 7562POPC   GL141533  15.960  43.863   6.150
 7562POPC   GL241534  16.083  43.844   6.150
 7562POPC   C1A41535  15.966  43.934   6.450
 7562POPC   D2A41536  15.931  43.901   6.750
 7562POPC   C3A41537  15.941  43.935   7.050
 7562POPC   C4A41538  15.967  43.909   7.350
 7562POPC   C1B41539  16.126  43.716   6.450
 7562POPC   C2B41540  16.193  43.761   6.750
 7562POPC   C3B41541  16.199  43.741   7.050
 7562POPC   C4B41542  16.167  43.775   7.350
 7563POPC   NC341543  29.874  29.916   5.550
 7563POPC   PO441544  29.877  29.949   5.850
 7563POPC   GL141545  29.953  29.874   6.150
 7563POPC   GL241546  29.759  29.986   6.150
 7563POPC   C1A41547  29.901  29.878   6.450
 7563POPC   D2A41548  29.957  29.959   6.750
 7563POPC   C3A41549  29.935  29.948   7.050
 7563POPC   C4A41550  29.957  29.951   7.350
 7563POPC   C1B41551  29.715  30.025   6.450
 7563POPC   C2B41552  29.636  29.996   6.750
 7563POPC   C3B41553  29.707  29.952   7.050
 7563POPC   C4B41554  29.633  30.032   7.350
 7564POPC   NC341555  12.075   5.837   5.550
 7564POPC   PO441556  12.125   5.897   5.850
 7564POPC   GL141557  12.096   5.900   6.150
 7564POPC   GL241558  12.115   6.004   6.150
 7564POPC   C1A41559  12.028   5.888   6.450
 7564POPC   D2A41560  12.047   5.842   6.750
 7564POPC   C3A41561  12.038   5.824   7.050
 7564POPC   C4A41562  12.094   5.836   7.350
 7564POPC   C1B41563  12.181   6.085   6.450
 7564POPC   C2B41564  12.222   6.045   6.750
 7564POPC   C3B41565  12.198   6.056   7.050
 7564POPC   C4B41566  12.205   6.064   7.350
 7565POPC   NC341567  30.709  27.631   5.550
 7565POPC   PO441568  30.702  27.574   5.850
 7565POPC   GL141569  30.676  27.599   6.150
 7565POPC   GL241570  30.870  27.587   6.150
 7565POPC   C1A41571  30.691  27.562   6.450
 7565POPC   D2A41572  30.689  27.618   6.750
 7565POPC   C3A41573  30.688  27.641   7.050
 7565POPC   C4A41574  30.731  27.561   7.350
 7565POPC   C1B41575  30.932  27.525   6.450
 7565POPC   C2B41576  30.915  27.536   6.750
 7565POPC   C3B41577  30.947  27.516   7.050
 7565POPC   C4B41578  30.968  27.552   7.350
 7566POPC   NC341579  12.840  11.264   5.550
 7566POPC   PO441580  12.806  11.344   5.850
 7566POPC   GL141581  12.894  11.337   6.150
 7566POPC   GL241582  13.003  11.296   6.150
 7566POPC   C1A41583  12.843  11.313   6.450
 7566POPC   D2A41584  12.900  11.319   6.750
 7566POPC   C3A41585  12.849  11.250   7.050
 7566POPC   C4A41586  12.858  11.279   7.350
 7566POPC   C1B41587  13.091  11.288   6.450
 7566POPC   C2B41588  13.093  11.213   6.750
 7566POPC   C3B41589  13.063  11.279   7.050
 7566POPC   C4B41590  13.050  11.263   7.350
 7567POPC   NC341591  22.132  33.032   5.550
 7567POPC   PO441592  22.173  32.997   5.850
 7567POPC   GL141593  22.135  32.987   6.150
 7567POPC   GL241594  22.121  32.889   6.150
 7567POPC   C1A41595  22.169  32.977   6.450
 7567POPC   D2A41596  22.170  33.067   6.750
 7567POPC   C3A41597  22.203  32.980   7.050
 7567POPC   C4A41598  22.194  33.054   7.350
 7567POPC   C1B41599  21.957  32.801   6.450
 7567POPC   C2B41600  21.947  32.847   6.750
 7567POPC   C3B41601  21.992  32.892   7.050
 7567POPC   C4B41602  21.962  32.808   7.350
 7568POPC   NC341603  15.222  33.775   5.550
 7568POPC   PO441604  15.175  33.843   5.850
 7568POPC   GL141605  15.157  33.836   6.150
 7568POPC   GL241606  15.286  33.744   6.150
 7568POPC   C1A41607  15.211  33.795   6.450
 7568POPC   D2A41608  15.136  33.836   6.750
 7568POPC   C3A41609  15.197  33.787   7.050
 7568POPC   C4A41610  15.162  33.832   7.350
 7568POPC   C1B41611  15.423  33.612   6.450
 7568POPC   C2B41612  15.410  33.693   6.750
 7568POPC   C3B41613  15.414  33.708   7.050
 7568POPC   C4B41614  15.402  33.659   7.350
 7569POPC   NC341615   5.823   1.194   5.550
 7569POPC   PO441616   5.847   1.237   5.850
 7569POPC   GL141617   5.892   1.225   6.150
 7569POPC   GL241618   5.707   1.221   6.150
 7569POPC   C1A41619   5.877   1.260   6.450
 7569POPC   D2A41620   5.919   1.259   6.750
 7569POPC   C3A41621   5.826   1.253   7.050
 7569POPC   C4A41622   5.862   1.218   7.350
 7569POPC   C1B41623   5.630   1.200   6.450
 7569POPC   C2B41624   5.616   1.242   6.750
 7569POPC   C3B41625   5.580   1.246   7.050
 7569POPC   C4B41626   5.649   1.163   7.350
 7570POPC   NC341627  43.852  15.130   5.550
 7570POPC   PO441628  43.932  15.158   5.850
 7570POPC   GL141629  43.866  15.144   6.150
 7570POPC   GL241630  44.023  15.247   6.150
 7570POPC   C1A41631  43.891  15.142   6.450
 7570POPC   D2A41632  43.855  15.207   6.750
 7570POPC   C3A41633  43.874  15.137   7.050
 7570POPC   C4A41634  43.905  15.160   7.350
 7570POPC   C1B41635  44.060  15.365   6.450
 7570POPC   C2B41636  44.025  15.312   6.750
 7570POPC   C3B41637  44.028  15.328   7.050
 7570POPC   C4B41638  44.035  15.337   7.350
 7571POPC   NC341639  39.270  37.701   5.550
 7571POPC   PO441640  39.250  37.717   5.850
 7571POPC   GL141641  39.218  37.684   6.150
 7571POPC   GL241642  39.333  37.779   6.150
 7571POPC   C1A41643  39.213  37.645   6.450
 7571POPC   D2A41644  39.275  37.666   6.750
 7571POPC   C3A41645  39.183  37.695   7.050
 7571POPC   C4A41646  39.261  37.641   7.350
 7571POPC   C1B41647  39.350  37.877   6.450
 7571POPC   C2B41648  39.306  37.944   6.750
 7571POPC   C3B41649  39.372  37.851   7.050
 7571POPC   C4B41650  39.381  37.923   7.350
 7572POPC   NC341651  44.691  12.074   5.550
 7572POPC   PO441652  44.676  12.103   5.850
 7572POPC   GL141653  44.676  12.050   6.150
 7572POPC   GL241654  44.588  12.224   6.150
 7572POPC   C1A41655  44.652  12.100   6.450
 7572POPC   D2A41656  44.647  12.104   6.750
 7572POPC   C3A41657  44.676  12.060   7.050
 7572POPC   C4A41658  44.663  12.124   7.350
 7572POPC   C1B41659  44.490  12.239   6.450
 7572POPC   C2B41660  44.573  12.250   6.750
 7572POPC   C3B41661  44.539  12.274   7.050
 7572POPC   C4B41662  44.493  12.319   7.350
 7573POPC   NC341663   8.171  32.210   5.550
 7573POPC   PO441664   8.205  32.208   5.850
 7573POPC   GL141665   8.225  32.201   6.150
 7573POPC   GL241666   8.291  32.313   6.150
 7573POPC   C1A41667   8.149  32.228   6.450
 7573POPC   D2A41668   8.178  32.211   6.750
 7573POPC   C3A41669   8.149  32.207   7.050
 7573POPC   C4A41670   8.164  32.208   7.350
 7573POPC   C1B41671   8.318  32.475   6.450
 7573POPC   C2B41672   8.332  32.411   6.750
 7573POPC   C3B41673   8.350  32.423   7.050
 7573POPC   C4B41674   8.396  32.441   7.350
 7574POPC   NC341675  37.684  39.183   5.550
 7574POPC   PO441676  37.647  39.238   5.850
 7574POPC   GL141677  37.648  39.212   6.150
 7574POPC   GL241678  37.622  39.357   6.150
 7574POPC   C1A41679  37.667  39.189   6.450
 7574POPC   D2A41680  37.634  39.229   6.750
 7574POPC   C3A41681  37.647  39.279   7.050
 7574POPC   C4A41682  37.715  39.279   7.350
 7574POPC   C1B41683  37.634  39.487   6.450
 7574POPC   C2B41684  37.633  39.517   6.750
 7574POPC   C3B41685  37.561  39.443   7.050
 7574POPC   C4B41686  37.564  39.518   7.350
 7575POPC   NC341687  15.149   7.428   5.550
 7575POPC   PO441688  15.227   7.466   5.850
 7575POPC   GL141689  15.136   7.394   6.150
 7575POPC   GL241690  15.216   7.282   6.150
 7575POPC   C1A41691  15.229   7.375   6.450
 7575POPC   D2A41692  15.148   7.468   6.750
 7575POPC   C3A41693  15.141   7.411   7.050
 7575POPC   C4A41694  15.182   7.399   7.350
 7575POPC   C1B41695  15.216   7.170   6.450
 7575POPC   C2B41696  15.299   7.141   6.750
 7575POPC   C3B41697  15.233   7.159   7.050
 7575POPC   C4B41698  15.242   7.170   7.350
 7576POPC   NC341699  20.597  42.319   5.550
 7576POPC   PO441700  20.571  42.321   5.850
 7576POPC   GL141701  20.653  42.317   6.150
 7576POPC   GL241702  20.581  42.422   6.150
 7576POPC   C1A41703  20.568  42.370   6.450
 7576POPC   D2A41704  20.564  42.354   6.750
 7576POPC   C3A41705  20.606  42.334   7.050
 7576POPC   C4A41706  20.616  42.318   7.350
 7576POPC   C1B41707  20.652  42.623   6.450
 7576POPC   C2B41708  20.625  42.631   6.750
 7576POPC   C3B41709  20.670  42.566   7.050
 7576POPC   C4B41710  20.615  42.595   7.350
 7577POPC   NC341711  43.903  26.048   5.550
 7577POPC   PO441712  43.894  26.022   5.850
 7577POPC   GL141713  43.933  26.088   6.150
 7577POPC   GL241714  43.920  25.897   6.150
 7577POPC   C1A41715  43.922  26.056   6.450
 7577POPC   D2A41716  43.930  26.011   6.750
 7577POPC   C3A41717  43.908  26.039   7.050
 7577POPC   C4A41718  43.903  26.009   7.350
 7577POPC   C1B41719  43.850  25.770   6.450
 7577POPC   C2B41720  43.886  25.802   6.750
 7577POPC   C3B41721  43.910  25.800   7.050
 7577POPC   C4B41722  43.923  25.806   7.350
 7578POPC   NC341723  28.357  25.300   5.550
 7578POPC   PO441724  28.321  25.227   5.850
 7578POPC   GL141725  28.403  25.257   6.150
 7578POPC   GL241726  28.226  25.182   6.150
 7578POPC   C1A41727  28.350  25.295   6.450
 7578POPC   D2A41728  28.337  25.302   6.750
 7578POPC   C3A41729  28.416  25.267   7.050
 7578POPC   C4A41730  28.351  25.305   7.350
 7578POPC   C1B41731  28.176  25.108   6.450
 7578POPC   C2B41732  28.162  25.137   6.750
 7578POPC   C3B41733  28.141  25.107   7.050
 7578POPC   C4B41734  28.151  25.100   7.350
 7579POPC   NC341735  36.164   1.171   5.550
 7579POPC   PO441736  36.150   1.179   5.850
 7579POPC   GL141737  36.137   1.232   6.150
 7579POPC   GL241738  36.273   1.267   6.150
 7579POPC   C1A41739  36.120   1.169   6.450
 7579POPC   D2A41740  36.172   1.246   6.750
 7579POPC   C3A41741  36.086   1.243   7.050
 7579POPC   C4A41742  36.081   1.257   7.350
 7579POPC   C1B41743  36.322   1.305   6.450
 7579POPC   C2B41744  36.322   1.280   6.750
 7579POPC   C3B41745  36.351   1.271   7.050
 7579POPC   C4B41746  36.392   1.312   7.350
 7580POPC   NC341747  32.988  42.319   5.550
 7580POPC   PO441748  33.048  42.383   5.850
 7580POPC   GL141749  33.051  42.333   6.150
 7580POPC   GL241750  32.888  42.351   6.150
 7580POPC   C1A41751  32.979  42.324   6.450
 7580POPC   D2A41752  33.047  42.345   6.750
 7580POPC   C3A41753  33.009  42.383   7.050
 7580POPC   C4A41754  32.976  42.330   7.350
 7580POPC   C1B41755  32.779  42.324   6.450
 7580POPC   C2B41756  32.760  42.378   6.750
 7580POPC   C3B41757  32.756  42.310   7.050
 7580POPC   C4B41758  32.796  42.312   7.350
 7581POPC   NC341759  43.896  38.439   5.550
 7581POPC   PO441760  43.880  38.482   5.850
 7581POPC   GL141761  43.855  38.422   6.150
 7581POPC   GL241762  43.761  38.481   6.150
 7581POPC   C1A41763  43.840  38.493   6.450
 7581POPC   D2A41764  43.932  38.460   6.750
 7581POPC   C3A41765  43.858  38.411   7.050
 7581POPC   C4A41766  43.907  38.501   7.350
 7581POPC   C1B41767  43.628  38.565   6.450
 7581POPC   C2B41768  43.645  38.572   6.750
 7581POPC   C3B41769  43.624  38.563   7.050
 7581POPC   C4B41770  43.651  38.569   7.350
 7582POPC   NC341771  24.489  12.056   5.550
 7582POPC   PO441772  24.530  12.035   5.850
 7582POPC   GL141773  24.515  12.122   6.150
 7582POPC   GL241774  24.522  11.978   6.150
 7582POPC   C1A41775  24.493  12.123   6.450
 7582POPC   D2A41776  24.526  12.085   6.750
 7582POPC   C3A41777  24.505  12.036   7.050
 7582POPC   C4A41778  24.451  12.079   7.350
 7582POPC   C1B41779  24.589  11.900   6.450
 7582POPC   C2B41780  24.637  11.868   6.750
 7582POPC   C3B41781  24.665  11.845   7.050
 7582POPC   C4B41782  24.599  11.832   7.350
 7583POPC   NC341783  34.602  32.992   5.550
 7583POPC   PO441784  34.618  33.051   5.850
 7583POPC   GL141785  34.539  33.033   6.150
 7583POPC   GL241786  34.573  32.905   6.150
 7583POPC   C1A41787  34.602  33.007   6.450
 7583POPC   D2A41788  34.538  32.978   6.750
 7583POPC   C3A41789  34.528  33.022   7.050
 7583POPC   C4A41790  34.574  33.030   7.350
 7583POPC   C1B41791  34.541  32.794   6.450
 7583POPC   C2B41792  34.583  32.788   6.750
 7583POPC   C3B41793  34.587  32.758   7.050
 7583POPC   C4B41794  34.569  32.814   7.350
 7584POPC   NC341795  26.804  29.928   5.550
 7584POPC   PO441796  26.843  29.890   5.850
 7584POPC   GL141797  26.798  29.885   6.150
 7584POPC   GL241798  26.866  29.872   6.150
 7584POPC   C1A41799  26.772  29.922   6.450
 7584POPC   D2A41800  26.802  29.955   6.750
 7584POPC   C3A41801  26.828  29.885   7.050
 7584POPC   C4A41802  26.800  29.874   7.350
 7584POPC   C1B41803  26.978  29.713   6.450
 7584POPC   C2B41804  27.024  29.721   6.750
 7584POPC   C3B41805  26.955  29.716   7.050
 7584POPC   C4B41806  26.966  29.741   7.350
 7585POPC   NC341807  25.996  19.030   5.550
 7585POPC   PO441808  25.997  19.105   5.850
 7585POPC   GL141809  26.001  19.010   6.150
 7585POPC   GL241810  26.087  18.959   6.150
 7585POPC   C1A41811  26.054  19.028   6.450
 7585POPC   D2A41812  26.033  19.044   6.750
 7585POPC   C3A41813  26.038  19.093   7.050
 7585POPC   C4A41814  26.024  19.068   7.350
 7585POPC   C1B41815  26.207  18.846   6.450
 7585POPC   C2B41816  26.152  18.836   6.750
 7585POPC   C3B41817  26.169  18.869   7.050
 7585POPC   C4B41818  26.217  18.823   7.350
 7586POPC   NC341819  13.582  37.715   5.550
 7586POPC   PO441820  13.624  37.691   5.850
 7586POPC   GL141821  13.644  37.708   6.150
 7586POPC   GL241822  13.565  37.785   6.150
 7586POPC   C1A41823  13.604  37.643   6.450
 7586POPC   D2A41824  13.609  37.645   6.750
 7586POPC   C3A41825  13.661  37.698   7.050
 7586POPC   C4A41826  13.657  37.655   7.350
 7586POPC   C1B41827  13.492  37.941   6.450
 7586POPC   C2B41828  13.500  37.871   6.750
 7586POPC   C3B41829  13.547  37.877   7.050
 7586POPC   C4B41830  13.514  37.939   7.350
 7587POPC   NC341831   8.961  29.138   5.550
 7587POPC   PO441832   9.022  29.100   5.850
 7587POPC   GL141833   8.939  29.148   6.150
 7587POPC   GL241834   8.835  29.119   6.150
 7587POPC   C1A41835   8.951  29.129   6.450
 7587POPC   D2A41836   8.977  29.157   6.750
 7587POPC   C3A41837   8.977  29.175   7.050
 7587POPC   C4A41838   9.016  29.190   7.350
 7587POPC   C1B41839   8.693  29.132   6.450
 7587POPC   C2B41840   8.743  29.170   6.750
 7587POPC   C3B41841   8.750  29.155   7.050
 7587POPC   C4B41842   8.758  29.173   7.350
 7588POPC   NC341843  16.701  23.709   5.550
 7588POPC   PO441844  16.697  23.700   5.850
 7588POPC   GL141845  16.722  23.672   6.150
 7588POPC   GL241846  16.863  23.620   6.150
 7588POPC   C1A41847  16.693  23.707   6.450
 7588POPC   D2A41848  16.707  23.758   6.750
 7588POPC   C3A41849  16.740  23.697   7.050
 7588POPC   C4A41850  16.700  23.764   7.350
 7588POPC   C1B41851  16.958  23.527   6.450
 7588POPC   C2B41852  16.893  23.581   6.750
 7588POPC   C3B41853  16.907  23.602   7.050
 7588POPC   C4B41854  16.959  23.523   7.350
 7589POPC   NC341855  12.889  33.036   5.550
 7589POPC   PO441856  12.822  33.073   5.850
 7589POPC   GL141857  12.864  33.072   6.150
 7589POPC   GL241858  12.698  33.035   6.150
 7589POPC   C1A41859  12.898  32.981   6.450
 7589POPC   D2A41860  12.838  33.016   6.750
 7589POPC   C3A41861  12.818  33.056   7.050
 7589POPC   C4A41862  12.865  33.068   7.350
 7589POPC   C1B41863  12.606  32.966   6.450
 7589POPC   C2B41864  12.585  32.919   6.750
 7589POPC   C3B41865  12.586  32.972   7.050
 7589POPC   C4B41866  12.570  32.935   7.350
 7590POPC   NC341867  29.143   2.016   5.550
 7590POPC   PO441868  29.152   1.946   5.850
 7590POPC   GL141869  29.177   1.946   6.150
 7590POPC   GL241870  29.084   1.827   6.150
 7590POPC   C1A41871  29.121   2.020   6.450
 7590POPC   D2A41872  29.139   1.973   6.750
 7590POPC   C3A41873  29.105   2.001   7.050
 7590POPC   C4A41874  29.145   1.975   7.350
 7590POPC   C1B41875  29.078   1.757   6.450
 7590POPC   C2B41876  29.042   1.789   6.750
 7590POPC   C3B41877  29.046   1.729   7.050
 7590POPC   C4B41878  29.029   1.731   7.350
 7591POPC   NC341879  19.075  29.959   5.550
 7591POPC   PO441880  19.063  29.944   5.850
 7591POPC   GL141881  19.089  29.945   6.150
 7591POPC   GL241882  18.992  29.980   6.150
 7591POPC   C1A41883  19.044  29.949   6.450
 7591POPC   D2A41884  19.072  29.881   6.750
 7591POPC   C3A41885  19.104  29.922   7.050
 7591POPC   C4A41886  19.068  29.965   7.350
 7591POPC   C1B41887  18.901  30.096   6.450
 7591POPC   C2B41888  18.942  30.119   6.750
 7591POPC   C3B41889  18.907  30.172   7.050
 7591POPC   C4B41890  18.930  30.164   7.350
 7592POPC   NC341891  20.574  27.618   5.550
 7592POPC   PO441892  20.589  27.552   5.850
 7592POPC   GL141893  20.607  27.597   6.150
 7592POPC   GL241894  20.559  27.693   6.150
 7592POPC   C1A41895  20.568  27.563   6.450
 7592POPC   D2A41896  20.621  27.557   6.750
 7592POPC   C3A41897  20.653  27.571   7.050
 7592POPC   C4A41898  20.582  27.589   7.350
 7592POPC   C1B41899  20.423  27.803   6.450
 7592POPC   C2B41900  20.377  27.726   6.750
 7592POPC   C3B41901  20.443  27.728   7.050
 7592POPC   C4B41902  20.411  27.801   7.350
 7593POPC   NC341903  42.375  40.042   5.550
 7593POPC   PO441904  42.285  40.021   5.850
 7593POPC   GL141905  42.304  40.051   6.150
 7593POPC   GL241906  42.268  40.131   6.150
 7593POPC   C1A41907  42.306  40.007   6.450
 7593POPC   D2A41908  42.325  40.054   6.750
 7593POPC   C3A41909  42.377  40.041   7.050
 7593POPC   C4A41910  42.325  40.052   7.350
 7593POPC   C1B41911  42.282  40.271   6.450
 7593POPC   C2B41912  42.196  40.203   6.750
 7593POPC   C3B41913  42.284  40.270   7.050
 7593POPC   C4B41914  42.230  40.205   7.350
 7594POPC   NC341915  33.809  16.716   5.550
 7594POPC   PO441916  33.810  16.743   5.850
 7594POPC   GL141917  33.838  16.701   6.150
 7594POPC   GL241918  33.959  16.818   6.150
 7594POPC   C1A41919  33.820  16.733   6.450
 7594POPC   D2A41920  33.772  16.686   6.750
 7594POPC   C3A41921  33.785  16.761   7.050
 7594POPC   C4A41922  33.765  16.713   7.350
 7594POPC   C1B41923  34.013  16.775   6.450
 7594POPC   C2B41924  34.078  16.784   6.750
 7594POPC   C3B41925  34.071  16.818   7.050
 7594POPC   C4B41926  34.048  16.871   7.350
 7595POPC   NC341927  29.971   1.188   5.550
 7595POPC   PO441928  29.961   1.217   5.850
 7595POPC   GL141929  29.920   1.232   6.150
 7595POPC   GL241930  29.872   1.141   6.150
 7595POPC   C1A41931  29.965   1.201   6.450
 7595POPC   D2A41932  29.961   1.261   6.750
 7595POPC   C3A41933  29.926   1.221   7.050
 7595POPC   C4A41934  29.925   1.198   7.350
 7595POPC   C1B41935  29.777   1.007   6.450
 7595POPC   C2B41936  29.843   0.974   6.750
 7595POPC   C3B41937  29.845   1.023   7.050
 7595POPC   C4B41938  29.761   1.010   7.350
 7596POPC   NC341939  26.799  39.223   5.550
 7596POPC   PO441940  26.793  39.232   5.850
 7596POPC   GL141941  26.773  39.225   6.150
 7596POPC   GL241942  26.690  39.265   6.150
 7596POPC   C1A41943  26.787  39.217   6.450
 7596POPC   D2A41944  26.822  39.274   6.750
 7596POPC   C3A41945  26.770  39.186   7.050
 7596POPC   C4A41946  26.799  39.205   7.350
 7596POPC   C1B41947  26.618  39.330   6.450
 7596POPC   C2B41948  26.644  39.404   6.750
 7596POPC   C3B41949  26.564  39.377   7.050
 7596POPC   C4B41950  26.623  39.364   7.350
 7597POPC   NC341951  11.290  25.264   5.550
 7597POPC   PO441952  11.347  25.283   5.850
 7597POPC   GL141953  11.294  25.289   6.150
 7597POPC   GL241954  11.149  25.296   6.150
 7597POPC   C1A41955  11.275  25.273   6.450
 7597POPC   D2A41956  11.315  25.262   6.750
 7597POPC   C3A41957  11.331  25.231   7.050
 7597POPC   C4A41958  11.317  25.267   7.350
 7597POPC   C1B41959  11.068  25.347   6.450
 7597POPC   C2B41960  11.101  25.317   6.750
 7597POPC   C3B41961  11.086  25.326   7.050
 7597POPC   C4B41962  11.060  25.361   7.350
 7598POPC   NC341963   5.820  16.776   5.550
 7598POPC   PO441964   5.907  16.757   5.850
 7598POPC   GL141965   5.884  16.739   6.150
 7598POPC   GL241966   5.956  16.670   6.150
 7598POPC   C1A41967   5.894  16.743   6.450
 7598POPC   D2A41968   5.835  16.769   6.750
 7598POPC   C3A41969   5.869  16.765   7.050
 7598POPC   C4A41970   5.861  16.716   7.350
 7598POPC   C1B41971   6.106  16.587   6.450
 7598POPC   C2B41972   6.042  16.530   6.750
 7598POPC   C3B41973   6.103  16.533   7.050
 7598POPC   C4B41974   6.053  16.567   7.350
 7599POPC   NC341975  31.484  27.548   5.550
 7599POPC   PO441976  31.466  27.573   5.850
 7599POPC   GL141977  31.469  27.555   6.150
 7599POPC   GL241978  31.355  27.598   6.150
 7599POPC   C1A41979  31.460  27.603   6.450
 7599POPC   D2A41980  31.459  27.600   6.750
 7599POPC   C3A41981  31.492  27.549   7.050
 7599POPC   C4A41982  31.501  27.557   7.350
 7599POPC   C1B41983  31.266  27.588   6.450
 7599POPC   C2B41984  31.250  27.529   6.750
 7599POPC   C3B41985  31.254  27.543   7.050
 7599POPC   C4B41986  31.270  27.567   7.350
 7600POPC   NC341987  22.940   6.630   5.550
 7600POPC   PO441988  22.965   6.685   5.850
 7600POPC   GL141989  22.980   6.625   6.150
 7600POPC   GL241990  22.786   6.626   6.150
 7600POPC   C1A41991  22.974   6.610   6.450
 7600POPC   D2A41992  22.979   6.606   6.750
 7600POPC   C3A41993  22.966   6.677   7.050
 7600POPC   C4A41994  22.985   6.598   7.350
 7600POPC   C1B41995  22.722   6.627   6.450
 7600POPC   C2B41996  22.650   6.564   6.750
 7600POPC   C3B41997  22.701   6.641   7.050
 7600POPC   C4B41998  22.665   6.615   7.350
 7601POPC   NC341999  33.039  27.549   5.550
 7601POPC   PO442000  33.022  27.560   5.850
 7601POPC   GL142001  33.032  27.605   6.150
 7601POPC   GL242002  33.126  27.716   6.150
 7601POPC   C1A42003  33.028  27.596   6.450
 7601POPC   D2A42004  32.976  27.598   6.750
 7601POPC   C3A42005  33.051  27.554   7.050
 7601POPC   C4A42006  33.026  27.631   7.350
 7601POPC   C1B42007  33.150  27.796   6.450
 7601POPC   C2B42008  33.177  27.844   6.750
 7601POPC   C3B42009  33.115  27.807   7.050
 7601POPC   C4B42010  33.158  27.822   7.350
 7602POPC   NC342011  29.957  30.700   5.550
 7602POPC   PO442012  29.885  30.680   5.850
 7602POPC   GL142013  29.877  30.719   6.150
 7602POPC   GL242014  29.942  30.814   6.150
 7602POPC   C1A42015  29.875  30.743   6.450
 7602POPC   D2A42016  29.917  30.713   6.750
 7602POPC   C3A42017  29.947  30.654   7.050
 7602POPC   C4A42018  29.955  30.666   7.350
 7602POPC   C1B42019  29.884  30.980   6.450
 7602POPC   C2B42020  29.968  30.976   6.750
 7602POPC   C3B42021  29.969  30.917   7.050
 7602POPC   C4B42022  29.941  30.941   7.350
 7603POPC   NC342023  42.348  36.127   5.550
 7603POPC   PO442024  42.314  36.125   5.850
 7603POPC   GL142025  42.355  36.086   6.150
 7603POPC   GL242026  42.327  36.293   6.150
 7603POPC   C1A42027  42.375  36.120   6.450
 7603POPC   D2A42028  42.311  36.152   6.750
 7603POPC   C3A42029  42.341  36.162   7.050
 7603POPC   C4A42030  42.288  36.120   7.350
 7603POPC   C1B42031  42.324  36.373   6.450
 7603POPC   C2B42032  42.317  36.328   6.750
 7603POPC   C3B42033  42.384  36.401   7.050
 7603POPC   C4B42034  42.396  36.390   7.350
 7604POPC   NC342035   6.664  37.678   5.550
 7604POPC   PO442036   6.633  37.649   5.850
 7604POPC   GL142037   6.679  37.662   6.150
 7604POPC   GL242038   6.773  37.792   6.150
 7604POPC   C1A42039   6.647  37.694   6.450
 7604POPC   D2A42040   6.613  37.644   6.750
 7604POPC   C3A42041   6.685  37.712   7.050
 7604POPC   C4A42042   6.692  37.638   7.350
 7604POPC   C1B42043   6.812  37.864   6.450
 7604POPC   C2B42044   6.823  37.808   6.750
 7604POPC   C3B42045   6.834  37.874   7.050
 7604POPC   C4B42046   6.811  37.811   7.350
 7605POPC   NC342047  20.581  12.886   5.550
 7605POPC   PO442048  20.620  12.835   5.850
 7605POPC   GL142049  20.566  12.862   6.150
 7605POPC   GL242050  20.670  12.775   6.150
 7605POPC   C1A42051  20.566  12.884   6.450
 7605POPC   D2A42052  20.605  12.831   6.750
 7605POPC   C3A42053  20.641  12.901   7.050
 7605POPC   C4A42054  20.605  12.852   7.350
 7605POPC   C1B42055  20.684  12.638   6.450
 7605POPC   C2B42056  20.690  12.631   6.750
 7605POPC   C3B42057  20.728  12.607   7.050
 7605POPC   C4B42058  20.711  12.632   7.350
 7606POPC   NC342059  19.010  44.693   5.550
 7606POPC   PO442060  19.051  44.673   5.850
 7606POPC   GL142061  19.094  44.624   6.150
 7606POPC   GL242062  18.937  44.649   6.150
 7606POPC   C1A42063  19.084  44.704   6.450
 7606POPC   D2A42064  19.074  44.619   6.750
 7606POPC   C3A42065  19.026  44.666   7.050
 7606POPC   C4A42066  19.104  44.616   7.350
 7606POPC   C1B42067  18.786  44.568   6.450
 7606POPC   C2B42068  18.775  44.536   6.750
 7606POPC   C3B42069  18.833  44.578   7.050
 7606POPC   C4B42070  18.828  44.628   7.350
 7607POPC   NC342071  36.878  35.370   5.550
 7607POPC   PO442072  36.921  35.390   5.850
 7607POPC   GL142073  36.877  35.370   6.150
 7607POPC   GL242074  36.797  35.499   6.150
 7607POPC   C1A42075  36.952  35.394   6.450
 7607POPC   D2A42076  36.856  35.386   6.750
 7607POPC   C3A42077  36.883  35.398   7.050
 7607POPC   C4A42078  36.891  35.356   7.350
 7607POPC   C1B42079  36.774  35.529   6.450
 7607POPC   C2B42080  36.778  35.609   6.750
 7607POPC   C3B42081  36.733  35.574   7.050
 7607POPC   C4B42082  36.776  35.541   7.350
 7608POPC   NC342083  44.705  15.179   5.550
 7608POPC   PO442084  44.649  15.144   5.850
 7608POPC   GL142085  44.705  15.141   6.150
 7608POPC   GL242086  44.587  15.249   6.150
 7608POPC   C1A42087  44.643  15.172   6.450
 7608POPC   D2A42088  44.640  15.199   6.750
 7608POPC   C3A42089  44.679  15.183   7.050
 7608POPC   C4A42090  44.633  15.206   7.350
 7608POPC   C1B42091  44.491  15.401   6.450
 7608POPC   C2B42092  44.507  15.413   6.750
 7608POPC   C3B42093  44.461  15.389   7.050
 7608POPC   C4B42094  44.494  15.323   7.350
 7609POPC   NC342095  28.392  32.206   5.550
 7609POPC   PO442096  28.415  32.261   5.850
 7609POPC   GL142097  28.338  32.211   6.150
 7609POPC   GL242098  28.470  32.246   6.150
 7609POPC   C1A42099  28.408  32.210   6.450
 7609POPC   D2A42100  28.375  32.259   6.750
 7609POPC   C3A42101  28.378  32.252   7.050
 7609POPC   C4A42102  28.319  32.287   7.350
 7609POPC   C1B42103  28.635  32.131   6.450
 7609POPC   C2B42104  28.601  32.110   6.750
 7609POPC   C3B42105  28.556  32.111   7.050
 7609POPC   C4B42106  28.570  32.142   7.350
 7610POPC   NC342107  27.563   5.840   5.550
 7610POPC   PO442108  27.584   5.839   5.850
 7610POPC   GL142109  27.550   5.911   6.150
 7610POPC   GL242110  27.501   6.009   6.150
 7610POPC   C1A42111  27.635   5.873   6.450
 7610POPC   D2A42112  27.615   5.897   6.750
 7610POPC   C3A42113  27.579   5.919   7.050
 7610POPC   C4A42114  27.555   5.833   7.350
 7610POPC   C1B42115  27.478   6.117   6.450
 7610POPC   C2B42116  27.441   6.058   6.750
 7610POPC   C3B42117  27.479   6.060   7.050
 7610POPC   C4B42118  27.412   6.094   7.350
 7611POPC   NC342119  12.873  37.656   5.550
 7611POPC   PO442120  12.806  37.701   5.850
 7611POPC   GL142121  12.817  37.714   6.150
 7611POPC   GL242122  12.952  37.760   6.150
 7611POPC   C1A42123  12.868  37.687   6.450
 7611POPC   D2A42124  12.893  37.681   6.750
 7611POPC   C3A42125  12.842  37.685   7.050
 7611POPC   C4A42126  12.899  37.686   7.350
 7611POPC   C1B42127  13.020  37.861   6.450
 7611POPC   C2B42128  13.006  37.932   6.750
 7611POPC   C3B42129  13.010  37.901   7.050
 7611POPC   C4B42130  12.988  37.918   7.350
 7612POPC   NC342131  11.319  43.935   5.550
 7612POPC   PO442132  11.311  43.857   5.850
 7612POPC   GL142133  11.316  43.843   6.150
 7612POPC   GL242134  11.392  43.834   6.150
 7612POPC   C1A42135  11.341  43.918   6.450
 7612POPC   D2A42136  11.290  43.877   6.750
 7612POPC   C3A42137  11.300  43.917   7.050
 7612POPC   C4A42138  11.261  43.853   7.350
 7612POPC   C1B42139  11.492  43.672   6.450
 7612POPC   C2B42140  11.501  43.729   6.750
 7612POPC   C3B42141  11.460  43.766   7.050
 7612POPC   C4B42142  11.500  43.746   7.350
 7613POPC   NC342143  22.147   9.711   5.550
 7613POPC   PO442144  22.181   9.789   5.850
 7613POPC   GL142145  22.125   9.737   6.150
 7613POPC   GL242146  22.111   9.868   6.150
 7613POPC   C1A42147  22.200   9.778   6.450
 7613POPC   D2A42148  22.205   9.770   6.750
 7613POPC   C3A42149  22.129   9.726   7.050
 7613POPC   C4A42150  22.144   9.726   7.350
 7613POPC   C1B42151  21.979   9.880   6.450
 7613POPC   C2B42152  22.014   9.883   6.750
 7613POPC   C3B42153  21.991   9.935   7.050
 7613POPC   C4B42154  21.976   9.955   7.350
 7614POPC   NC342155  22.199  19.867   5.550
 7614POPC   PO442156  22.135  19.830   5.850
 7614POPC   GL142157  22.147  19.873   6.150
 7614POPC   GL242158  22.076  19.733   6.150
 7614POPC   C1A42159  22.148  19.862   6.450
 7614POPC   D2A42160  22.122  19.861   6.750
 7614POPC   C3A42161  22.195  19.881   7.050
 7614POPC   C4A42162  22.201  19.796   7.350
 7614POPC   C1B42163  22.009  19.660   6.450
 7614POPC   C2B42164  22.015  19.610   6.750
 7614POPC   C3B42165  21.969  19.625   7.050
 7614POPC   C4B42166  22.010  19.654   7.350
 7615POPC   NC342167  36.931  22.124   5.550
 7615POPC   PO442168  36.928  22.131   5.850
 7615POPC   GL142169  36.936  22.128   6.150
 7615POPC   GL242170  36.837  22.076   6.150
 7615POPC   C1A42171  36.874  22.205   6.450
 7615POPC   D2A42172  36.900  22.198   6.750
 7615POPC   C3A42173  36.923  22.173   7.050
 7615POPC   C4A42174  36.870  22.112   7.350
 7615POPC   C1B42175  36.817  21.916   6.450
 7615POPC   C2B42176  36.771  21.922   6.750
 7615POPC   C3B42177  36.816  21.987   7.050
 7615POPC   C4B42178  36.724  21.950   7.350
 7616POPC   NC342179  13.610  21.410   5.550
 7616POPC   PO442180  13.649  21.407   5.850
 7616POPC   GL142181  13.617  21.377   6.150
 7616POPC   GL242182  13.536  21.385   6.150
 7616POPC   C1A42183  13.596  21.390   6.450
 7616POPC   D2A42184  13.620  21.420   6.750
 7616POPC   C3A42185  13.672  21.386   7.050
 7616POPC   C4A42186  13.618  21.380   7.350
 7616POPC   C1B42187  13.365  21.385   6.450
 7616POPC   C2B42188  13.377  21.314   6.750
 7616POPC   C3B42189  13.394  21.329   7.050
 7616POPC   C4B42190  13.383  21.319   7.350
 7617POPC   NC342191  40.022  11.327   5.550
 7617POPC   PO442192  40.046  11.315   5.850
 7617POPC   GL142193  40.016  11.306   6.150
 7617POPC   GL242194  40.170  11.251   6.150
 7617POPC   C1A42195  39.994  11.263   6.450
 7617POPC   D2A42196  40.008  11.329   6.750
 7617POPC   C3A42197  39.965  11.260   7.050
 7617POPC   C4A42198  39.964  11.315   7.350
 7617POPC   C1B42199  40.211  11.196   6.450
 7617POPC   C2B42200  40.237  11.199   6.750
 7617POPC   C3B42201  40.246  11.257   7.050
 7617POPC   C4B42202  40.224  11.261   7.350
 7618POPC   NC342203   2.743  42.372   5.550
 7618POPC   PO442204   2.749  42.383   5.850
 7618POPC   GL142205   2.743  42.305   6.150
 7618POPC   GL242206   2.930  42.315   6.150
 7618POPC   C1A42207   2.796  42.340   6.450
 7618POPC   D2A42208   2.756  42.317   6.750
 7618POPC   C3A42209   2.794  42.302   7.050
 7618POPC   C4A42210   2.793  42.383   7.350
 7618POPC   C1B42211   2.970  42.263   6.450
 7618POPC   C2B42212   3.050  42.261   6.750
 7618POPC   C3B42213   2.970  42.288   7.050
 7618POPC   C4B42214   3.037  42.304   7.350
 7619POPC   NC342215  27.575  38.491   5.550
 7619POPC   PO442216  27.570  38.476   5.850
 7619POPC   GL142217  27.581  38.440   6.150
 7619POPC   GL242218  27.588  38.566   6.150
 7619POPC   C1A42219  27.552  38.446   6.450
 7619POPC   D2A42220  27.562  38.422   6.750
 7619POPC   C3A42221  27.595  38.473   7.050
 7619POPC   C4A42222  27.604  38.461   7.350
 7619POPC   C1B42223  27.693  38.704   6.450
 7619POPC   C2B42224  27.647  38.737   6.750
 7619POPC   C3B42225  27.632  38.695   7.050
 7619POPC   C4B42226  27.684  38.647   7.350
 7620POPC   NC342227  14.363   8.202   5.550
 7620POPC   PO442228  14.430   8.177   5.850
 7620POPC   GL142229  14.426   8.223   6.150
 7620POPC   GL242230  14.448   8.316   6.150
 7620POPC   C1A42231  14.429   8.165   6.450
 7620POPC   D2A42232  14.403   8.165   6.750
 7620POPC   C3A42233  14.359   8.171   7.050
 7620POPC   C4A42234  14.371   8.184   7.350
 7620POPC   C1B42235  14.513   8.429   6.450
 7620POPC   C2B42236  14.496   8.456   6.750
 7620POPC   C3B42237  14.540   8.400   7.050
 7620POPC   C4B42238  14.459   8.380   7.350
 7621POPC   NC342239  26.824  22.940   5.550
 7621POPC   PO442240  26.815  22.948   5.850
 7621POPC   GL142241  26.798  22.946   6.150
 7621POPC   GL242242  26.912  22.994   6.150
 7621POPC   C1A42243  26.851  22.947   6.450
 7621POPC   D2A42244  26.811  22.974   6.750
 7621POPC   C3A42245  26.768  22.975   7.050
 7621POPC   C4A42246  26.785  22.976   7.350
 7621POPC   C1B42247  27.026  23.110   6.450
 7621POPC   C2B42248  27.033  23.069   6.750
 7621POPC   C3B42249  27.073  23.035   7.050
 7621POPC   C4B42250  27.017  23.057   7.350
 7622POPC   NC342251  43.845  20.629   5.550
 7622POPC   PO442252  43.858  20.573   5.850
 7622POPC   GL142253  43.847  20.601   6.150
 7622POPC   GL242254  43.855  20.666   6.150
 7622POPC   C1A42255  43.889  20.645   6.450
 7622POPC   D2A42256  43.918  20.584   6.750
 7622POPC   C3A42257  43.888  20.594   7.050
 7622POPC   C4A42258  43.908  20.651   7.350
 7622POPC   C1B42259  43.751  20.838   6.450
 7622POPC   C2B42260  43.719  20.801   6.750
 7622POPC   C3B42261  43.758  20.766   7.050
 7622POPC   C4B42262  43.747  20.797   7.350
 7623POPC   NC342263  13.630  13.672   5.550
 7623POPC   PO442264  13.652  13.652   5.850
 7623POPC   GL142265  13.621  13.652   6.150
 7623POPC   GL242266  13.667  13.481   6.150
 7623POPC   C1A42267  13.663  13.630   6.450
 7623POPC   D2A42268  13.641  13.645   6.750
 7623POPC   C3A42269  13.651  13.641   7.050
 7623POPC   C4A42270  13.662  13.601   7.350
 7623POPC   C1B42271  13.640  13.394   6.450
 7623POPC   C2B42272  13.627  13.404   6.750
 7623POPC   C3B42273  13.642  13.405   7.050
 7623POPC   C4B42274  13.661  13.383   7.350
 7624POPC   NC342275   8.931  36.108   5.550
 7624POPC   PO442276   8.971  36.138   5.850
 7624POPC   GL142277   8.973  36.150   6.150
 7624POPC   GL242278   8.814  36.124   6.150
 7624POPC   C1A42279   8.963  36.114   6.450
 7624POPC   D2A42280   8.972  36.153   6.750
 7624POPC   C3A42281   8.942  36.177   7.050
 7624POPC   C4A42282   8.973  36.110   7.350
 7624POPC   C1B42283   8.727  36.126   6.450
 7624POPC   C2B42284   8.745  36.130   6.750
 7624POPC   C3B42285   8.746  36.151   7.050
 7624POPC   C4B42286   8.771  36.134   7.350
 7625POPC   NC342287   1.947  20.639   5.550
 7625POPC   PO442288   1.945  20.567   5.850
 7625POPC   GL142289   1.979  20.604   6.150
 7625POPC   GL242290   1.897  20.662   6.150
 7625POPC   C1A42291   1.997  20.634   6.450
 7625POPC   D2A42292   2.019  20.608   6.750
 7625POPC   C3A42293   1.944  20.619   7.050
 7625POPC   C4A42294   2.015  20.598   7.350
 7625POPC   C1B42295   1.744  20.669   6.450
 7625POPC   C2B42296   1.794  20.749   6.750
 7625POPC   C3B42297   1.758  20.690   7.050
 7625POPC   C4B42298   1.747  20.690   7.350
 7626POPC   NC342299   5.097  18.297   5.550
 7626POPC   PO442300   5.095  18.300   5.850
 7626POPC   GL142301   5.073  18.270   6.150
 7626POPC   GL242302   5.017  18.410   6.150
 7626POPC   C1A42303   5.069  18.290   6.450
 7626POPC   D2A42304   5.084  18.320   6.750
 7626POPC   C3A42305   5.057  18.325   7.050
 7626POPC   C4A42306   5.106  18.253   7.350
 7626POPC   C1B42307   4.883  18.483   6.450
 7626POPC   C2B42308   4.862  18.479   6.750
 7626POPC   C3B42309   4.943  18.474   7.050
 7626POPC   C4B42310   4.891  18.405   7.350
 7627POPC   NC342311   9.010  26.863   5.550
 7627POPC   PO442312   8.924  26.769   5.850
 7627POPC   GL142313   8.956  26.823   6.150
 7627POPC   GL242314   9.097  26.919   6.150
 7627POPC   C1A42315   8.984  26.793   6.450
 7627POPC   D2A42316   8.939  26.865   6.750
 7627POPC   C3A42317   9.003  26.859   7.050
 7627POPC   C4A42318   8.923  26.770   7.350
 7627POPC   C1B42319   9.121  26.999   6.450
 7627POPC   C2B42320   9.181  26.959   6.750
 7627POPC   C3B42321   9.138  26.976   7.050
 7627POPC   C4B42322   9.179  26.996   7.350
 7628POPC   NC342323  33.835  36.934   5.550
 7628POPC   PO442324  33.803  36.916   5.850
 7628POPC   GL142325  33.840  36.857   6.150
 7628POPC   GL242326  33.793  36.814   6.150
 7628POPC   C1A42327  33.776  36.887   6.450
 7628POPC   D2A42328  33.797  36.935   6.750
 7628POPC   C3A42329  33.787  36.948   7.050
 7628POPC   C4A42330  33.763  36.927   7.350
 7628POPC   C1B42331  33.757  36.639   6.450
 7628POPC   C2B42332  33.753  36.612   6.750
 7628POPC   C3B42333  33.787  36.646   7.050
 7628POPC   C4B42334  33.728  36.627   7.350
 7629POPC   NC342335  23.693  34.542   5.550
 7629POPC   PO442336  23.694  34.540   5.850
 7629POPC   GL142337  23.748  34.556   6.150
 7629POPC   GL242338  23.634  34.606   6.150
 7629POPC   C1A42339  23.735  34.526   6.450
 7629POPC   D2A42340  23.725  34.526   6.750
 7629POPC   C3A42341  23.705  34.562   7.050
 7629POPC   C4A42342  23.749  34.558   7.350
 7629POPC   C1B42343  23.475  34.706   6.450
 7629POPC   C2B42344  23.517  34.728   6.750
 7629POPC   C3B42345  23.516  34.702   7.050
 7629POPC   C4B42346  23.486  34.689   7.350
 7630POPC   NC342347   3.515  40.032   5.550
 7630POPC   PO442348   3.510  39.997   5.850
 7630POPC   GL142349   3.496  40.048   6.150
 7630POPC   GL242350   3.683  40.027   6.150
 7630POPC   C1A42351   3.557  39.981   6.450
 7630POPC   D2A42352   3.497  40.009   6.750
 7630POPC   C3A42353   3.507  40.018   7.050
 7630POPC   C4A42354   3.570  40.028   7.350
 7630POPC   C1B42355   3.791  39.994   6.450
 7630POPC   C2B42356   3.805  40.038   6.750
 7630POPC   C3B42357   3.756  39.975   7.050
 7630POPC   C4B42358   3.758  40.043   7.350
 7631POPC   NC342359  14.376  33.020   5.550
 7631POPC   PO442360  14.383  33.072   5.850
 7631POPC   GL142361  14.419  33.039   6.150
 7631POPC   GL242362  14.487  32.958   6.150
 7631POPC   C1A42363  14.409  33.065   6.450
 7631POPC   D2A42364  14.421  32.981   6.750
 7631POPC   C3A42365  14.361  33.003   7.050
 7631POPC   C4A42366  14.407  33.008   7.350
 7631POPC   C1B42367  14.573  32.895   6.450
 7631POPC   C2B42368  14.634  32.895   6.750
 7631POPC   C3B42369  14.639  32.822   7.050
 7631POPC   C4B42370  14.615  32.903   7.350
 7632POPC   NC342371   5.092   6.670   5.550
 7632POPC   PO442372   5.076   6.623   5.850
 7632POPC   GL142373   5.071   6.608   6.150
 7632POPC   GL242374   5.040   6.596   6.150
 7632POPC   C1A42375   5.094   6.636   6.450
 7632POPC   D2A42376   5.085   6.614   6.750
 7632POPC   C3A42377   5.071   6.638   7.050
 7632POPC   C4A42378   5.114   6.600   7.350
 7632POPC   C1B42379   4.919   6.497   6.450
 7632POPC   C2B42380   4.854   6.492   6.750
 7632POPC   C3B42381   4.934   6.467   7.050
 7632POPC   C4B42382   4.939   6.474   7.350
 7633POPC   NC342383  28.384  39.987   5.550
 7633POPC   PO442384  28.327  40.001   5.850
 7633POPC   GL142385  28.347  40.043   6.150
 7633POPC   GL242386  28.244  40.140   6.150
 7633POPC   C1A42387  28.326  40.005   6.450
 7633POPC   D2A42388  28.343  40.008   6.750
 7633POPC   C3A42389  28.331  39.962   7.050
 7633POPC   C4A42390  28.391  40.045   7.350
 7633POPC   C1B42391  28.171  40.151   6.450
 7633POPC   C2B42392  28.198  40.245   6.750
 7633POPC   C3B42393  28.202  40.229   7.050
 7633POPC   C4B42394  28.182  40.240   7.350
 7634POPC   NC342395   0.444  40.044   5.550
 7634POPC   PO442396   0.469  40.025   5.850
 7634POPC   GL142397   0.423  40.014   6.150
 7634POPC   GL242398   0.443  40.093   6.150
 7634POPC   C1A42399   0.482  40.005   6.450
 7634POPC   D2A42400   0.465  40.027   6.750
 7634POPC   C3A42401   0.480  40.055   7.050
 7634POPC   C4A42402   0.421  40.039   7.350
 7634POPC   C1B42403   0.441  40.275   6.450
 7634POPC   C2B42404   0.442  40.284   6.750
 7634POPC   C3B42405   0.429  40.243   7.050
 7634POPC   C4B42406   0.508  40.231   7.350
 7635POPC   NC342407   4.341  39.240   5.550
 7635POPC   PO442408   4.307  39.253   5.850
 7635POPC   GL142409   4.327  39.236   6.150
 7635POPC   GL242410   4.408  39.199   6.150
 7635POPC   C1A42411   4.358  39.208   6.450
 7635POPC   D2A42412   4.279  39.198   6.750
 7635POPC   C3A42413   4.316  39.229   7.050
 7635POPC   C4A42414   4.334  39.241   7.350
 7635POPC   C1B42415   4.545  39.188   6.450
 7635POPC   C2B42416   4.529  39.236   6.750
 7635POPC   C3B42417   4.525  39.202   7.050
 7635POPC   C4B42418   4.576  39.174   7.350
 7636POPC   NC342419  34.604  21.364   5.550
 7636POPC   PO442420  34.620  21.349   5.850
 7636POPC   GL142421  34.582  21.434   6.150
 7636POPC   GL242422  34.541  21.513   6.150
 7636POPC   C1A42423  34.531  21.339   6.450
 7636POPC   D2A42424  34.616  21.423   6.750
 7636POPC   C3A42425  34.535  21.399   7.050
 7636POPC   C4A42426  34.620  21.411   7.350
 7636POPC   C1B42427  34.479  21.602   6.450
 7636POPC   C2B42428  34.447  21.623   6.750
 7636POPC   C3B42429  34.448  21.642   7.050
 7636POPC   C4B42430  34.474  21.596   7.350
 7637POPC   NC342431  14.442  39.273   5.550
 7637POPC   PO442432  14.406  39.189   5.850
 7637POPC   GL142433  14.396  39.241   6.150
 7637POPC   GL242434  14.464  39.110   6.150
 7637POPC   C1A42435  14.356  39.235   6.450
 7637POPC   D2A42436  14.361  39.256   6.750
 7637POPC   C3A42437  14.372  39.200   7.050
 7637POPC   C4A42438  14.359  39.280   7.350
 7637POPC   C1B42439  14.644  39.091   6.450
 7637POPC   C2B42440  14.600  39.063   6.750
 7637POPC   C3B42441  14.624  39.111   7.050
 7637POPC   C4B42442  14.569  39.065   7.350
 7638POPC   NC342443  44.709  11.302   5.550
 7638POPC   PO442444  44.687  11.293   5.850
 7638POPC   GL142445  44.617  11.297   6.150
 7638POPC   GL242446  44.743  11.208   6.150
 7638POPC   C1A42447  44.638  11.337   6.450
 7638POPC   D2A42448  44.689  11.329   6.750
 7638POPC   C3A42449  44.687  11.326   7.050
 7638POPC   C4A42450  44.681  11.288   7.350
 7638POPC   C1B42451  44.859  11.114   6.450
 7638POPC   C2B42452  44.861  11.150   6.750
 7638POPC   C3B42453  44.788  11.136   7.050
 7638POPC   C4B42454  44.827  11.109   7.350
 7639POPC   NC342455   3.516  26.070   5.550
 7639POPC   PO442456   3.524  26.014   5.850
 7639POPC   GL142457   3.500  26.056   6.150
 7639POPC   GL242458   3.518  25.966   6.150
 7639POPC   C1A42459   3.508  26.090   6.450
 7639POPC   D2A42460   3.536  25.997   6.750
 7639POPC   C3A42461   3.522  26.018   7.050
 7639POPC   C4A42462   3.559  26.038   7.350
 7639POPC   C1B42463   3.538  25.794   6.450
 7639POPC   C2B42464   3.526  25.804   6.750
 7639POPC   C3B42465   3.531  25.823   7.050
 7639POPC   C4B42466   3.616  25.803   7.350
 7640POPC   NC342467   4.341  29.158   5.550
 7640POPC   PO442468   4.342  29.160   5.850
 7640POPC   GL142469   4.351  29.142   6.150
 7640POPC   GL242470   4.170  29.091   6.150
 7640POPC   C1A42471   4.296  29.133   6.450
 7640POPC   D2A42472   4.305  29.149   6.750
 7640POPC   C3A42473   4.308  29.169   7.050
 7640POPC   C4A42474   4.325  29.101   7.350
 7640POPC   C1B42475   4.074  29.072   6.450
 7640POPC   C2B42476   4.117  29.061   6.750
 7640POPC   C3B42477   4.093  29.103   7.050
 7640POPC   C4B42478   4.070  29.104   7.350
 7641POPC   NC342479  39.249  28.335   5.550
 7641POPC   PO442480  39.194  28.395   5.850
 7641POPC   GL142481  39.272  28.350   6.150
 7641POPC   GL242482  39.387  28.295   6.150
 7641POPC   C1A42483  39.191  28.335   6.450
 7641POPC   D2A42484  39.266  28.370   6.750
 7641POPC   C3A42485  39.190  28.403   7.050
 7641POPC   C4A42486  39.193  28.327   7.350
 7641POPC   C1B42487  39.467  28.339   6.450
 7641POPC   C2B42488  39.481  28.253   6.750
 7641POPC   C3B42489  39.519  28.327   7.050
 7641POPC   C4B42490  39.481  28.296   7.350
 7642POPC   NC342491   6.631  41.552   5.550
 7642POPC   PO442492   6.658  41.567   5.850
 7642POPC   GL142493   6.629  41.577   6.150
 7642POPC   GL242494   6.689  41.394   6.150
 7642POPC   C1A42495   6.681  41.567   6.450
 7642POPC   D2A42496   6.605  41.513   6.750
 7642POPC   C3A42497   6.624  41.530   7.050
 7642POPC   C4A42498   6.615  41.516   7.350
 7642POPC   C1B42499   6.691  41.266   6.450
 7642POPC   C2B42500   6.634  41.348   6.750
 7642POPC   C3B42501   6.695  41.296   7.050
 7642POPC   C4B42502   6.642  41.286   7.350
 7643POPC   NC342503  27.596  35.351   5.550
 7643POPC   PO442504  27.606  35.347   5.850
 7643POPC   GL142505  27.552  35.304   6.150
 7643POPC   GL242506  27.718  35.241   6.150
 7643POPC   C1A42507  27.639  35.334   6.450
 7643POPC   D2A42508  27.615  35.364   6.750
 7643POPC   C3A42509  27.548  35.350   7.050
 7643POPC   C4A42510  27.548  35.359   7.350
 7643POPC   C1B42511  27.831  35.227   6.450
 7643POPC   C2B42512  27.767  35.209   6.750
 7643POPC   C3B42513  27.799  35.176   7.050
 7643POPC   C4B42514  27.841  35.252   7.350
 7644POPC   NC342515  19.043  12.112   5.550
 7644POPC   PO442516  19.039  12.083   5.850
 7644POPC   GL142517  19.072  12.068   6.150
 7644POPC   GL242518  18.999  12.175   6.150
 7644POPC   C1A42519  19.017  12.110   6.450
 7644POPC   D2A42520  19.022  12.028   6.750
 7644POPC   C3A42521  19.056  12.090   7.050
 7644POPC   C4A42522  19.033  12.078   7.350
 7644POPC   C1B42523  19.011  12.326   6.450
 7644POPC   C2B42524  18.930  12.331   6.750
 7644POPC   C3B42525  18.940  12.262   7.050
 7644POPC   C4B42526  18.944  12.344   7.350
 7645POPC   NC342527   2.757  30.678   5.550
 7645POPC   PO442528   2.781  30.689   5.850
 7645POPC   GL142529   2.795  30.683   6.150
 7645POPC   GL242530   2.829  30.631   6.150
 7645POPC   C1A42531   2.719  30.735   6.450
 7645POPC   D2A42532   2.808  30.660   6.750
 7645POPC   C3A42533   2.716  30.718   7.050
 7645POPC   C4A42534   2.807  30.691   7.350
 7645POPC   C1B42535   2.932  30.536   6.450
 7645POPC   C2B42536   2.925  30.526   6.750
 7645POPC   C3B42537   2.981  30.564   7.050
 7645POPC   C4B42538   2.937  30.540   7.350
 7646POPC   NC342539  31.469  41.588   5.550
 7646POPC   PO442540  31.449  41.603   5.850
 7646POPC   GL142541  31.446  41.590   6.150
 7646POPC   GL242542  31.371  41.681   6.150
 7646POPC   C1A42543  31.460  41.578   6.450
 7646POPC   D2A42544  31.511  41.511   6.750
 7646POPC   C3A42545  31.481  41.588   7.050
 7646POPC   C4A42546  31.479  41.531   7.350
 7646POPC   C1B42547  31.341  41.721   6.450
 7646POPC   C2B42548  31.322  41.738   6.750
 7646POPC   C3B42549  31.288  41.783   7.050
 7646POPC   C4B42550  31.350  41.781   7.350
 7647POPC   NC342551  36.114  33.060   5.550
 7647POPC   PO442552  36.122  33.013   5.850
 7647POPC   GL142553  36.092  33.054   6.150
 7647POPC   GL242554  36.137  32.928   6.150
 7647POPC   C1A42555  36.092  33.050   6.450
 7647POPC   D2A42556  36.112  33.067   6.750
 7647POPC   C3A42557  36.175  33.047   7.050
 7647POPC   C4A42558  36.156  33.019   7.350
 7647POPC   C1B42559  36.165  32.829   6.450
 7647POPC   C2B42560  36.147  32.773   6.750
 7647POPC   C3B42561  36.212  32.812   7.050
 7647POPC   C4B42562  36.161  32.735   7.350
 7648POPC   NC342563  33.013  13.578   5.550
 7648POPC   PO442564  33.007  13.601   5.850
 7648POPC   GL142565  33.009  13.628   6.150
 7648POPC   GL242566  33.050  13.552   6.150
 7648POPC   C1A42567  33.002  13.637   6.450
 7648POPC   D2A42568  32.983  13.604   6.750
 7648POPC   C3A42569  33.037  13.611   7.050
 7648POPC   C4A42570  32.999  13.643   7.350
 7648POPC   C1B42571  33.017  13.373   6.450
 7648POPC   C2B42572  33.061  13.368   6.750
 7648POPC   C3B42573  33.022  13.349   7.050
 7648POPC   C4B42574  32.998  13.416   7.350
 7649POPC   NC342575  39.246  26.803   5.550
 7649POPC   PO442576  39.257  26.816   5.850
 7649POPC   GL142577  39.234  26.836   6.150
 7649POPC   GL242578  39.250  26.696   6.150
 7649POPC   C1A42579  39.210  26.806   6.450
 7649POPC   D2A42580  39.232  26.831   6.750
 7649POPC   C3A42581  39.223  26.847   7.050
 7649POPC   C4A42582  39.280  26.855   7.350
 7649POPC   C1B42583  39.316  26.561   6.450
 7649POPC   C2B42584  39.258  26.613   6.750
 7649POPC   C3B42585  39.307  26.576   7.050
 7649POPC   C4B42586  39.338  26.601   7.350
 7650POPC   NC342587  37.668  32.261   5.550
 7650POPC   PO442588  37.660  32.226   5.850
 7650POPC   GL142589  37.727  32.273   6.150
 7650POPC   GL242590  37.679  32.387   6.150
 7650POPC   C1A42591  37.688  32.270   6.450
 7650POPC   D2A42592  37.638  32.285   6.750
 7650POPC   C3A42593  37.644  32.234   7.050
 7650POPC   C4A42594  37.718  32.284   7.350
 7650POPC   C1B42595  37.719  32.452   6.450
 7650POPC   C2B42596  37.648  32.494   6.750
 7650POPC   C3B42597  37.659  32.480   7.050
 7650POPC   C4B42598  37.650  32.475   7.350
 7651POPC   NC342599   8.924  40.759   5.550
 7651POPC   PO442600   9.011  40.755   5.850
 7651POPC   GL142601   8.933  40.751   6.150
 7651POPC   GL242602   9.058  40.919   6.150
 7651POPC   C1A42603   9.018  40.812   6.450
 7651POPC   D2A42604   9.020  40.777   6.750
 7651POPC   C3A42605   8.970  40.764   7.050
 7651POPC   C4A42606   8.960  40.752   7.350
 7651POPC   C1B42607   9.112  40.981   6.450
 7651POPC   C2B42608   9.102  40.963   6.750
 7651POPC   C3B42609   9.068  40.952   7.050
 7651POPC   C4B42610   9.095  40.982   7.350
 7652POPC   NC342611  23.738  22.906   5.550
 7652POPC   PO442612  23.746  22.942   5.850
 7652POPC   GL142613  23.736  22.891   6.150
 7652POPC   GL242614  23.826  23.002   6.150
 7652POPC   C1A42615  23.729  22.940   6.450
 7652POPC   D2A42616  23.691  22.914   6.750
 7652POPC   C3A42617  23.718  22.941   7.050
 7652POPC   C4A42618  23.738  22.911   7.350
 7652POPC   C1B42619  23.798  23.180   6.450
 7652POPC   C2B42620  23.856  23.105   6.750
 7652POPC   C3B42621  23.856  23.140   7.050
 7652POPC   C4B42622  23.825  23.195   7.350
 7653POPC   NC342623  12.105  24.512   5.550
 7653POPC   PO442624  12.082  24.443   5.850
 7653POPC   GL142625  12.085  24.444   6.150
 7653POPC   GL242626  12.155  24.330   6.150
 7653POPC   C1A42627  12.099  24.487   6.450
 7653POPC   D2A42628  12.065  24.444   6.750
 7653POPC   C3A42629  12.091  24.493   7.050
 7653POPC   C4A42630  12.115  24.479   7.350
 7653POPC   C1B42631  12.155  24.214   6.450
 7653POPC   C2B42632  12.180  24.294   6.750
 7653POPC   C3B42633  12.179  24.218   7.050
 7653POPC   C4B42634  12.124  24.236   7.350
 7654POPC   NC342635  11.284  35.354   5.550
 7654POPC   PO442636  11.282  35.349   5.850
 7654POPC   GL142637  11.252  35.384   6.150
 7654POPC   GL242638  11.226  35.363   6.150
 7654POPC   C1A42639  11.323  35.364   6.450
 7654POPC   D2A42640  11.276  35.303   6.750
 7654POPC   C3A42641  11.327  35.394   7.050
 7654POPC   C4A42642  11.253  35.393   7.350
 7654POPC   C1B42643  11.099  35.420   6.450
 7654POPC   C2B42644  11.060  35.473   6.750
 7654POPC   C3B42645  11.060  35.470   7.050
 7654POPC   C4B42646  11.090  35.492   7.350
 7655POPC   NC342647   5.885  26.781   5.550
 7655POPC   PO442648   5.873  26.800   5.850
 7655POPC   GL142649   5.910  26.771   6.150
 7655POPC   GL242650   5.768  26.682   6.150
 7655POPC   C1A42651   5.885  26.848   6.450
 7655POPC   D2A42652   5.825  26.849   6.750
 7655POPC   C3A42653   5.876  26.858   7.050
 7655POPC   C4A42654   5.885  26.860   7.350
 7655POPC   C1B42655   5.726  26.558   6.450
 7655POPC   C2B42656   5.733  26.650   6.750
 7655POPC   C3B42657   5.745  26.620   7.050
 7655POPC   C4B42658   5.783  26.653   7.350
 7656POPC   NC342659   4.284  22.889   5.550
 7656POPC   PO442660   4.319  22.957   5.850
 7656POPC   GL142661   4.312  22.889   6.150
 7656POPC   GL242662   4.207  22.930   6.150
 7656POPC   C1A42663   4.333  22.926   6.450
 7656POPC   D2A42664   4.309  22.930   6.750
 7656POPC   C3A42665   4.303  22.926   7.050
 7656POPC   C4A42666   4.327  22.953   7.350
 7656POPC   C1B42667   4.099  22.788   6.450
 7656POPC   C2B42668   4.118  22.800   6.750
 7656POPC   C3B42669   4.098  22.877   7.050
 7656POPC   C4B42670   4.102  22.829   7.350
 7657POPC   NC342671  33.835  43.919   5.550
 7657POPC   PO442672  33.785  43.924   5.850
 7657POPC   GL142673  33.801  43.851   6.150
 7657POPC   GL242674  33.802  43.790   6.150
 7657POPC   C1A42675  33.850  43.898   6.450
 7657POPC   D2A42676  33.772  43.905   6.750
 7657POPC   C3A42677  33.807  43.868   7.050
 7657POPC   C4A42678  33.761  43.904   7.350
 7657POPC   C1B42679  33.826  43.632   6.450
 7657POPC   C2B42680  33.782  43.658   6.750
 7657POPC   C3B42681  33.811  43.642   7.050
 7657POPC   C4B42682  33.828  43.655   7.350
 7658POPC   NC342683  41.511  13.603   5.550
 7658POPC   PO442684  41.538  13.662   5.850
 7658POPC   GL142685  41.586  13.583   6.150
 7658POPC   GL242686  41.633  13.469   6.150
 7658POPC   C1A42687  41.544  13.647   6.450
 7658POPC   D2A42688  41.530  13.599   6.750
 7658POPC   C3A42689  41.581  13.648   7.050
 7658POPC   C4A42690  41.569  13.657   7.350
 7658POPC   C1B42691  41.684  13.434   6.450
 7658POPC   C2B42692  41.677  13.418   6.750
 7658POPC   C3B42693  41.616  13.347   7.050
 7658POPC   C4B42694  41.656  13.406   7.350
 7659POPC   NC342695  40.764  27.560   5.550
 7659POPC   PO442696  40.742  27.614   5.850
 7659POPC   GL142697  40.773  27.584   6.150
 7659POPC   GL242698  40.918  27.549   6.150
 7659POPC   C1A42699  40.809  27.549   6.450
 7659POPC   D2A42700  40.742  27.581   6.750
 7659POPC   C3A42701  40.759  27.588   7.050
 7659POPC   C4A42702  40.743  27.575   7.350
 7659POPC   C1B42703  41.016  27.474   6.450
 7659POPC   C2B42704  40.997  27.421   6.750
 7659POPC   C3B42705  40.939  27.378   7.050
 7659POPC   C4B42706  40.932  27.444   7.350
 7660POPC   NC342707  29.174  26.858   5.550
 7660POPC   PO442708  29.168  26.822   5.850
 7660POPC   GL142709  29.186  26.792   6.150
 7660POPC   GL242710  29.266  26.840   6.150
 7660POPC   C1A42711  29.158  26.770   6.450
 7660POPC   D2A42712  29.154  26.786   6.750
 7660POPC   C3A42713  29.134  26.834   7.050
 7660POPC   C4A42714  29.195  26.832   7.350
 7660POPC   C1B42715  29.418  26.927   6.450
 7660POPC   C2B42716  29.349  26.879   6.750
 7660POPC   C3B42717  29.375  26.932   7.050
 7660POPC   C4B42718  29.371  26.880   7.350
 7661POPC   NC342719  30.665  33.759   5.550
 7661POPC   PO442720  30.680  33.790   5.850
 7661POPC   GL142721  30.667  33.769   6.150
 7661POPC   GL242722  30.668  33.709   6.150
 7661POPC   C1A42723  30.666  33.758   6.450
 7661POPC   D2A42724  30.648  33.820   6.750
 7661POPC   C3A42725  30.670  33.840   7.050
 7661POPC   C4A42726  30.727  33.802   7.350
 7661POPC   C1B42727  30.594  33.603   6.450
 7661POPC   C2B42728  30.589  33.557   6.750
 7661POPC   C3B42729  30.609  33.564   7.050
 7661POPC   C4B42730  30.556  33.567   7.350
 7662POPC   NC342731  29.883  36.132   5.550
 7662POPC   PO442732  29.922  36.161   5.850
 7662POPC   GL142733  29.950  36.102   6.150
 7662POPC   GL242734  29.854  36.285   6.150
 7662POPC   C1A42735  29.905  36.164   6.450
 7662POPC   D2A42736  29.921  36.101   6.750
 7662POPC   C3A42737  29.909  36.158   7.050
 7662POPC   C4A42738  29.907  36.165   7.350
 7662POPC   C1B42739  29.851  36.321   6.450
 7662POPC   C2B42740  29.789  36.392   6.750
 7662POPC   C3B42741  29.867  36.360   7.050
 7662POPC   C4B42742  29.811  36.332   7.350
 7663POPC   NC342743  17.523   9.004   5.550
 7663POPC   PO442744  17.503   8.955   5.850
 7663POPC   GL142745  17.468   9.006   6.150
 7663POPC   GL242746  17.488   8.815   6.150
 7663POPC   C1A42747  17.488   8.947   6.450
 7663POPC   D2A42748  17.513   8.965   6.750
 7663POPC   C3A42749  17.489   8.959   7.050
 7663POPC   C4A42750  17.465   8.965   7.350
 7663POPC   C1B42751  17.430   8.713   6.450
 7663POPC   C2B42752  17.350   8.713   6.750
 7663POPC   C3B42753  17.366   8.746   7.050
 7663POPC   C4B42754  17.406   8.778   7.350
 7664POPC   NC342755  13.622  22.198   5.550
 7664POPC   PO442756  13.615  22.121   5.850
 7664POPC   GL142757  13.650  22.156   6.150
 7664POPC   GL242758  13.650  22.077   6.150
 7664POPC   C1A42759  13.641  22.169   6.450
 7664POPC   D2A42760  13.651  22.123   6.750
 7664POPC   C3A42761  13.605  22.118   7.050
 7664POPC   C4A42762  13.617  22.187   7.350
 7664POPC   C1B42763  13.634  21.952   6.450
 7664POPC   C2B42764  13.683  21.929   6.750
 7664POPC   C3B42765  13.623  21.894   7.050
 7664POPC   C4B42766  13.684  21.944   7.350
 7665POPC   NC342767  16.748  13.620   5.550
 7665POPC   PO442768  16.713  13.664   5.850
 7665POPC   GL142769  16.773  13.637   6.150
 7665POPC   GL242770  16.876  13.555   6.150
 7665POPC   C1A42771  16.749  13.637   6.450
 7665POPC   D2A42772  16.756  13.580   6.750
 7665POPC   C3A42773  16.756  13.662   7.050
 7665POPC   C4A42774  16.691  13.640   7.350
 7665POPC   C1B42775  16.968  13.480   6.450
 7665POPC   C2B42776  16.950  13.534   6.750
 7665POPC   C3B42777  16.960  13.471   7.050
 7665POPC   C4B42778  16.970  13.559   7.350
 7666POPC   NC342779  29.135  12.033   5.550
 7666POPC   PO442780  29.187  12.063   5.850
 7666POPC   GL142781  29.119  12.075   6.150
 7666POPC   GL242782  29.101  11.938   6.150
 7666POPC   C1A42783  29.128  12.044   6.450
 7666POPC   D2A42784  29.126  12.104   6.750
 7666POPC   C3A42785  29.169  12.037   7.050
 7666POPC   C4A42786  29.137  12.087   7.350
 7666POPC   C1B42787  28.988  11.863   6.450
 7666POPC   C2B42788  29.018  11.906   6.750
 7666POPC   C3B42789  29.016  11.897   7.050
 7666POPC   C4B42790  28.937  11.879   7.350
 7667POPC   NC342791   5.825  21.365   5.550
 7667POPC   PO442792   5.876  21.367   5.850
 7667POPC   GL142793   5.883  21.403   6.150
 7667POPC   GL242794   5.792  21.412   6.150
 7667POPC   C1A42795   5.867  21.346   6.450
 7667POPC   D2A42796   5.887  21.363   6.750
 7667POPC   C3A42797   5.875  21.420   7.050
 7667POPC   C4A42798   5.839  21.353   7.350
 7667POPC   C1B42799   5.636  21.352   6.450
 7667POPC   C2B42800   5.623  21.419   6.750
 7667POPC   C3B42801   5.664  21.363   7.050
 7667POPC   C4B42802   5.572  21.330   7.350
 7668POPC   NC342803  23.756  39.195   5.550
 7668POPC   PO442804  23.727  39.182   5.850
 7668POPC   GL142805  23.728  39.241   6.150
 7668POPC   GL242806  23.590  39.277   6.150
 7668POPC   C1A42807  23.762  39.257   6.450
 7668POPC   D2A42808  23.698  39.232   6.750
 7668POPC   C3A42809  23.691  39.273   7.050
 7668POPC   C4A42810  23.700  39.197   7.350
 7668POPC   C1B42811  23.580  39.467   6.450
 7668POPC   C2B42812  23.578  39.413   6.750
 7668POPC   C3B42813  23.573  39.470   7.050
 7668POPC   C4B42814  23.563  39.440   7.350
 7669POPC   NC342815  29.182  25.250   5.550
 7669POPC   PO442816  29.101  25.260   5.850
 7669POPC   GL142817  29.191  25.315   6.150
 7669POPC   GL242818  29.186  25.139   6.150
 7669POPC   C1A42819  29.176  25.240   6.450
 7669POPC   D2A42820  29.159  25.255   6.750
 7669POPC   C3A42821  29.150  25.229   7.050
 7669POPC   C4A42822  29.170  25.219   7.350
 7669POPC   C1B42823  29.155  24.992   6.450
 7669POPC   C2B42824  29.140  25.031   6.750
 7669POPC   C3B42825  29.230  25.063   7.050
 7669POPC   C4B42826  29.170  25.017   7.350
 7670POPC   NC342827   8.201  33.000   5.550
 7670POPC   PO442828   8.162  33.053   5.850
 7670POPC   GL142829   8.196  33.059   6.150
 7670POPC   GL242830   8.029  33.043   6.150
 7670POPC   C1A42831   8.201  33.041   6.450
 7670POPC   D2A42832   8.246  33.000   6.750
 7670POPC   C3A42833   8.246  33.002   7.050
 7670POPC   C4A42834   8.204  33.050   7.350
 7670POPC   C1B42835   7.937  33.093   6.450
 7670POPC   C2B42836   7.967  33.097   6.750
 7670POPC   C3B42837   7.967  33.100   7.050
 7670POPC   C4B42838   7.952  33.029   7.350
 7671POPC   NC342839  19.849  13.597   5.550
 7671POPC   PO442840  19.880  13.657   5.850
 7671POPC   GL142841  19.860  13.592   6.150
 7671POPC   GL242842  19.824  13.710   6.150
 7671POPC   C1A42843  19.833  13.661   6.450
 7671POPC   D2A42844  19.805  13.637   6.750
 7671POPC   C3A42845  19.834  13.645   7.050
 7671POPC   C4A42846  19.840  13.665   7.350
 7671POPC   C1B42847  19.805  13.897   6.450
 7671POPC   C2B42848  19.803  13.920   6.750
 7671POPC   C3B42849  19.767  13.834   7.050
 7671POPC   C4B42850  19.765  13.828   7.350
 7672POPC   NC342851  30.652  19.796   5.550
 7672POPC   PO442852  30.677  19.832   5.850
 7672POPC   GL142853  30.681  19.848   6.150
 7672POPC   GL242854  30.712  19.967   6.150
 7672POPC   C1A42855  30.726  19.875   6.450
 7672POPC   D2A42856  30.708  19.840   6.750
 7672POPC   C3A42857  30.660  19.867   7.050
 7672POPC   C4A42858  30.682  19.807   7.350
 7672POPC   C1B42859  30.747  20.049   6.450
 7672POPC   C2B42860  30.783  20.120   6.750
 7672POPC   C3B42861  30.818  20.052   7.050
 7672POPC   C4B42862  30.807  20.050   7.350
 7673POPC   NC342863  24.442   9.751   5.550
 7673POPC   PO442864  24.536   9.764   5.850
 7673POPC   GL142865  24.453   9.709   6.150
 7673POPC   GL242866  24.472   9.903   6.150
 7673POPC   C1A42867  24.511   9.741   6.450
 7673POPC   D2A42868  24.492   9.720   6.750
 7673POPC   C3A42869  24.522   9.758   7.050
 7673POPC   C4A42870  24.506   9.797   7.350
 7673POPC   C1B42871  24.434   9.950   6.450
 7673POPC   C2B42872  24.430   9.992   6.750
 7673POPC   C3B42873  24.444   9.980   7.050
 7673POPC   C4B42874  24.456   9.951   7.350
 7674POPC   NC342875  34.622  16.701   5.550
 7674POPC   PO442876  34.576  16.711   5.850
 7674POPC   GL142877  34.577  16.773   6.150
 7674POPC   GL242878  34.530  16.647   6.150
 7674POPC   C1A42879  34.535  16.739   6.450
 7674POPC   D2A42880  34.545  16.698   6.750
 7674POPC   C3A42881  34.587  16.704   7.050
 7674POPC   C4A42882  34.564  16.778   7.350
 7674POPC   C1B42883  34.420  16.506   6.450
 7674POPC   C2B42884  34.430  16.565   6.750
 7674POPC   C3B42885  34.471  16.516   7.050
 7674POPC   C4B42886  34.412  16.504   7.350
 7675POPC   NC342887  33.771  40.015   5.550
 7675POPC   PO442888  33.789  40.022   5.850
 7675POPC   GL142889  33.783  39.967   6.150
 7675POPC   GL242890  33.876  40.079   6.150
 7675POPC   C1A42891  33.780  39.971   6.450
 7675POPC   D2A42892  33.757  39.988   6.750
 7675POPC   C3A42893  33.778  40.051   7.050
 7675POPC   C4A42894  33.837  40.020   7.350
 7675POPC   C1B42895  33.853  40.289   6.450
 7675POPC   C2B42896  33.834  40.281   6.750
 7675POPC   C3B42897  33.899  40.237   7.050
 7675POPC   C4B42898  33.879  40.204   7.350
 7676POPC   NC342899  40.777  22.160   5.550
 7676POPC   PO442900  40.741  22.197   5.850
 7676POPC   GL142901  40.793  22.211   6.150
 7676POPC   GL242902  40.684  22.231   6.150
 7676POPC   C1A42903  40.740  22.169   6.450
 7676POPC   D2A42904  40.772  22.160   6.750
 7676POPC   C3A42905  40.772  22.114   7.050
 7676POPC   C4A42906  40.748  22.129   7.350
 7676POPC   C1B42907  40.645  22.407   6.450
 7676POPC   C2B42908  40.685  22.370   6.750
 7676POPC   C3B42909  40.676  22.398   7.050
 7676POPC   C4B42910  40.653  22.341   7.350
 7677POPC   NC342911  29.881  10.557   5.550
 7677POPC   PO442912  29.871  10.553   5.850
 7677POPC   GL142913  29.952  10.559   6.150
 7677POPC   GL242914  29.950  10.674   6.150
 7677POPC   C1A42915  29.901  10.566   6.450
 7677POPC   D2A42916  29.959  10.506   6.750
 7677POPC   C3A42917  29.928  10.505   7.050
 7677POPC   C4A42918  29.885  10.568   7.350
 7677POPC   C1B42919  29.881  10.813   6.450
 7677POPC   C2B42920  29.956  10.817   6.750
 7677POPC   C3B42921  29.916  10.804   7.050
 7677POPC   C4B42922  29.880  10.770   7.350
 7678POPC   NC342923   6.599   3.496   5.550
 7678POPC   PO442924   6.598   3.497   5.850
 7678POPC   GL142925   6.688   3.504   6.150
 7678POPC   GL242926   6.571   3.567   6.150
 7678POPC   C1A42927   6.616   3.506   6.450
 7678POPC   D2A42928   6.624   3.578   6.750
 7678POPC   C3A42929   6.656   3.559   7.050
 7678POPC   C4A42930   6.655   3.558   7.350
 7678POPC   C1B42931   6.396   3.704   6.450
 7678POPC   C2B42932   6.401   3.663   6.750
 7678POPC   C3B42933   6.414   3.648   7.050
 7678POPC   C4B42934   6.466   3.637   7.350
 7679POPC   NC342935  41.531  36.098   5.550
 7679POPC   PO442936  41.594  36.086   5.850
 7679POPC   GL142937  41.517  36.104   6.150
 7679POPC   GL242938  41.637  36.261   6.150
 7679POPC   C1A42939  41.509  36.113   6.450
 7679POPC   D2A42940  41.604  36.083   6.750
 7679POPC   C3A42941  41.597  36.165   7.050
 7679POPC   C4A42942  41.545  36.156   7.350
 7679POPC   C1B42943  41.672  36.317   6.450
 7679POPC   C2B42944  41.676  36.366   6.750
 7679POPC   C3B42945  41.736  36.365   7.050
 7679POPC   C4B42946  41.706  36.304   7.350
 7680POPC   NC342947   5.045  42.309   5.550
 7680POPC   PO442948   5.138  42.346   5.850
 7680POPC   GL142949   5.067  42.328   6.150
 7680POPC   GL242950   4.999  42.403   6.150
 7680POPC   C1A42951   5.128  42.287   6.450
 7680POPC   D2A42952   5.105  42.341   6.750
 7680POPC   C3A42953   5.137  42.337   7.050
 7680POPC   C4A42954   5.113  42.360   7.350
 7680POPC   C1B42955   4.891  42.532   6.450
 7680POPC   C2B42956   4.931  42.507   6.750
 7680POPC   C3B42957   4.906  42.488   7.050
 7680POPC   C4B42958   4.913  42.474   7.350
 7681POPC   NC342959  12.899   3.568   5.550
 7681POPC   PO442960  12.896   3.585   5.850
 7681POPC   GL142961  12.901   3.574   6.150
 7681POPC   GL242962  12.728   3.624   6.150
 7681POPC   C1A42963  12.828   3.507   6.450
 7681POPC   D2A42964  12.889   3.586   6.750
 7681POPC   C3A42965  12.876   3.552   7.050
 7681POPC   C4A42966  12.825   3.554   7.350
 7681POPC   C1B42967  12.678   3.681   6.450
 7681POPC   C2B42968  12.666   3.652   6.750
 7681POPC   C3B42969  12.605   3.717   7.050
 7681POPC   C4B42970  12.610   3.708   7.350
 7682POPC   NC342971   7.436  33.073   5.550
 7682POPC   PO442972   7.418  33.025   5.850
 7682POPC   GL142973   7.376  32.987   6.150
 7682POPC   GL242974   7.464  32.919   6.150
 7682POPC   C1A42975   7.469  33.005   6.450
 7682POPC   D2A42976   7.421  33.031   6.750
 7682POPC   C3A42977   7.462  33.063   7.050
 7682POPC   C4A42978   7.466  33.054   7.350
 7682POPC   C1B42979   7.600  32.783   6.450
 7682POPC   C2B42980   7.586  32.816   6.750
 7682POPC   C3B42981   7.551  32.844   7.050
 7682POPC   C4B42982   7.595  32.784   7.350
 7683POPC   NC342983  26.086   4.295   5.550
 7683POPC   PO442984  26.020   4.357   5.850
 7683POPC   GL142985  26.005   4.365   6.150
 7683POPC   GL242986  25.989   4.181   6.150
 7683POPC   C1A42987  26.005   4.268   6.450
 7683POPC   D2A42988  26.028   4.352   6.750
 7683POPC   C3A42989  26.058   4.303   7.050
 7683POPC   C4A42990  26.031   4.351   7.350
 7683POPC   C1B42991  25.908   4.142   6.450
 7683POPC   C2B42992  25.868   4.160   6.750
 7683POPC   C3B42993  25.906   4.085   7.050
 7683POPC   C4B42994  25.898   4.136   7.350
 7684POPC   NC342995   1.968   5.097   5.550
 7684POPC   PO442996   2.009   5.053   5.850
 7684POPC   GL142997   2.001   5.089   6.150
 7684POPC   GL242998   2.009   4.941   6.150
 7684POPC   C1A42999   1.970   5.137   6.450
 7684POPC   D2A43000   2.017   5.086   6.750
 7684POPC   C3A43001   1.947   5.057   7.050
 7684POPC   C4A43002   1.971   5.134   7.350
 7684POPC   C1B43003   1.956   4.838   6.450
 7684POPC   C2B43004   1.908   4.856   6.750
 7684POPC   C3B43005   1.925   4.828   7.050
 7684POPC   C4B43006   1.905   4.809   7.350
 7685POPC   NC343007  12.124  10.521   5.550
 7685POPC   PO443008  12.107  10.545   5.850
 7685POPC   GL143009  12.122  10.538   6.150
 7685POPC   GL243010  12.148  10.625   6.150
 7685POPC   C1A43011  12.099  10.550   6.450
 7685POPC   D2A43012  12.037  10.573   6.750
 7685POPC   C3A43013  12.044  10.535   7.050
 7685POPC   C4A43014  12.085  10.570   7.350
 7685POPC   C1B43015  12.324  10.623   6.450
 7685POPC   C2B43016  12.352  10.621   6.750
 7685POPC   C3B43017  12.260  10.628   7.050
 7685POPC   C4B43018  12.344  10.649   7.350
 7686POPC   NC343019  17.495  44.642   5.550
 7686POPC   PO443020  17.473  44.702   5.850
 7686POPC   GL143021  17.479  44.696   6.150
 7686POPC   GL243022  17.429  44.599   6.150
 7686POPC   C1A43023  17.542  44.682   6.450
 7686POPC   D2A43024  17.474  44.621   6.750
 7686POPC   C3A43025  17.528  44.616   7.050
 7686POPC   C4A43026  17.468  44.702   7.350
 7686POPC   C1B43027  17.293  44.529   6.450
 7686POPC   C2B43028  17.241  44.598   6.750
 7686POPC   C3B43029  17.248  44.562   7.050
 7686POPC   C4B43030  17.240  44.560   7.350
 7687POPC   NC343031  16.706  43.071   5.550
 7687POPC   PO443032  16.691  43.132   5.850
 7687POPC   GL143033  16.721  43.109   6.150
 7687POPC   GL243034  16.812  43.028   6.150
 7687POPC   C1A43035  16.746  43.085   6.450
 7687POPC   D2A43036  16.744  43.129   6.750
 7687POPC   C3A43037  16.762  43.089   7.050
 7687POPC   C4A43038  16.738  43.142   7.350
 7687POPC   C1B43039  16.931  43.008   6.450
 7687POPC   C2B43040  16.993  43.052   6.750
 7687POPC   C3B43041  17.005  43.023   7.050
 7687POPC   C4B43042  17.012  43.064   7.350
 7688POPC   NC343043  27.546  19.802   5.550
 7688POPC   PO443044  27.574  19.851   5.850
 7688POPC   GL143045  27.597  19.856   6.150
 7688POPC   GL243046  27.465  19.809   6.150
 7688POPC   C1A43047  27.640  19.884   6.450
 7688POPC   D2A43048  27.601  19.808   6.750
 7688POPC   C3A43049  27.603  19.861   7.050
 7688POPC   C4A43050  27.607  19.786   7.350
 7688POPC   C1B43051  27.327  19.781   6.450
 7688POPC   C2B43052  27.326  19.812   6.750
 7688POPC   C3B43053  27.385  19.839   7.050
 7688POPC   C4B43054  27.363  19.771   7.350
 7689POPC   NC343055  16.001   4.297   5.550
 7689POPC   PO443056  15.994   4.323   5.850
 7689POPC   GL143057  15.968   4.340   6.150
 7689POPC   GL243058  15.912   4.439   6.150
 7689POPC   C1A43059  15.917   4.310   6.450
 7689POPC   D2A43060  16.000   4.346   6.750
 7689POPC   C3A43061  15.966   4.366   7.050
 7689POPC   C4A43062  15.959   4.276   7.350
 7689POPC   C1B43063  15.829   4.496   6.450
 7689POPC   C2B43064  15.876   4.499   6.750
 7689POPC   C3B43065  15.842   4.518   7.050
 7689POPC   C4B43066  15.805   4.561   7.350
 7690POPC   NC343067  21.390  25.224   5.550
 7690POPC   PO443068  21.404  25.292   5.850
 7690POPC   GL143069  21.407  25.270   6.150
 7690POPC   GL243070  21.474  25.194   6.150
 7690POPC   C1A43071  21.362  25.259   6.450
 7690POPC   D2A43072  21.412  25.299   6.750
 7690POPC   C3A43073  21.393  25.278   7.050
 7690POPC   C4A43074  21.362  25.267   7.350
 7690POPC   C1B43075  21.548  25.160   6.450
 7690POPC   C2B43076  21.618  25.096   6.750
 7690POPC   C3B43077  21.557  25.112   7.050
 7690POPC   C4B43078  21.545  25.085   7.350
 7691POPC   NC343079   7.404  28.328   5.550
 7691POPC   PO443080   7.380  28.397   5.850
 7691POPC   GL143081   7.403  28.386   6.150
 7691POPC   GL243082   7.456  28.468   6.150
 7691POPC   C1A43083   7.464  28.391   6.450
 7691POPC   D2A43084   7.405  28.417   6.750
 7691POPC   C3A43085   7.389  28.401   7.050
 7691POPC   C4A43086   7.457  28.415   7.350
 7691POPC   C1B43087   7.558  28.595   6.450
 7691POPC   C2B43088   7.595  28.579   6.750
 7691POPC   C3B43089   7.525  28.582   7.050
 7691POPC   C4B43090   7.532  28.534   7.350
 7692POPC   NC343091   5.046  22.121   5.550
 7692POPC   PO443092   5.109  22.177   5.850
 7692POPC   GL143093   5.053  22.177   6.150
 7692POPC   GL243094   4.973  22.213   6.150
 7692POPC   C1A43095   5.115  22.124   6.450
 7692POPC   D2A43096   5.087  22.207   6.750
 7692POPC   C3A43097   5.051  22.113   7.050
 7692POPC   C4A43098   5.121  22.131   7.350
 7692POPC   C1B43099   4.854  22.192   6.450
 7692POPC   C2B43100   4.835  22.219   6.750
 7692POPC   C3B43101   4.826  22.247   7.050
 7692POPC   C4B43102   4.808  22.249   7.350
 7693POPC   NC343103   7.403   6.640   5.550
 7693POPC   PO443104   7.426   6.599   5.850
 7693POPC   GL143105   7.396   6.631   6.150
 7693POPC   GL243106   7.256   6.716   6.150
 7693POPC   C1A43107   7.376   6.684   6.450
 7693POPC   D2A43108   7.416   6.599   6.750
 7693POPC   C3A43109   7.429   6.627   7.050
 7693POPC   C4A43110   7.425   6.684   7.350
 7693POPC   C1B43111   7.130   6.703   6.450
 7693POPC   C2B43112   7.169   6.655   6.750
 7693POPC   C3B43113   7.168   6.666   7.050
 7693POPC   C4B43114   7.185   6.704   7.350
 7694POPC   NC343115  37.727  18.329   5.550
 7694POPC   PO443116  37.701  18.303   5.850
 7694POPC   GL143117  37.646  18.322   6.150
 7694POPC   GL243118  37.766  18.388   6.150
 7694POPC   C1A43119  37.702  18.255   6.450
 7694POPC   D2A43120  37.693  18.294   6.750
 7694POPC   C3A43121  37.670  18.234   7.050
 7694POPC   C4A43122  37.637  18.326   7.350
 7694POPC   C1B43123  37.936  18.418   6.450
 7694POPC   C2B43124  37.926  18.375   6.750
 7694POPC   C3B43125  37.850  18.395   7.050
 7694POPC   C4B43126  37.947  18.362   7.350
 7695POPC   NC343127  28.348  19.845   5.550
 7695POPC   PO443128  28.364  19.834   5.850
 7695POPC   GL143129  28.346  19.818   6.150
 7695POPC   GL243130  28.329  19.742   6.150
 7695POPC   C1A43131  28.330  19.855   6.450
 7695POPC   D2A43132  28.334  19.851   6.750
 7695POPC   C3A43133  28.353  19.860   7.050
 7695POPC   C4A43134  28.384  19.831   7.350
 7695POPC   C1B43135  28.289  19.585   6.450
 7695POPC   C2B43136  28.237  19.598   6.750
 7695POPC   C3B43137  28.244  19.561   7.050
 7695POPC   C4B43138  28.222  19.570   7.350
 7696POPC   NC343139   9.001   5.888   5.550
 7696POPC   PO443140   8.951   5.829   5.850
 7696POPC   GL143141   8.995   5.821   6.150
 7696POPC   GL243142   8.964   6.030   6.150
 7696POPC   C1A43143   8.999   5.907   6.450
 7696POPC   D2A43144   8.950   5.819   6.750
 7696POPC   C3A43145   9.007   5.897   7.050
 7696POPC   C4A43146   9.014   5.870   7.350
 7696POPC   C1B43147   8.945   6.136   6.450
 7696POPC   C2B43148   8.949   6.128   6.750
 7696POPC   C3B43149   8.970   6.090   7.050
 7696POPC   C4B43150   8.970   6.085   7.350
 7697POPC   NC343151   3.576   2.729   5.550
 7697POPC   PO443152   3.575   2.739   5.850
 7697POPC   GL143153   3.540   2.811   6.150
 7697POPC   GL243154   3.420   2.871   6.150
 7697POPC   C1A43155   3.500   2.792   6.450
 7697POPC   D2A43156   3.538   2.781   6.750
 7697POPC   C3A43157   3.560   2.720   7.050
 7697POPC   C4A43158   3.577   2.735   7.350
 7697POPC   C1B43159   3.317   2.895   6.450
 7697POPC   C2B43160   3.377   2.912   6.750
 7697POPC   C3B43161   3.391   2.967   7.050
 7697POPC   C4B43162   3.329   2.899   7.350
 7698POPC   NC343163   6.691  40.017   5.550
 7698POPC   PO443164   6.662  40.000   5.850
 7698POPC   GL143165   6.653  39.992   6.150
 7698POPC   GL243166   6.644  40.135   6.150
 7698POPC   C1A43167   6.641  40.003   6.450
 7698POPC   D2A43168   6.632  40.038   6.750
 7698POPC   C3A43169   6.620  40.000   7.050
 7698POPC   C4A43170   6.639  40.043   7.350
 7698POPC   C1B43171   6.525  40.219   6.450
 7698POPC   C2B43172   6.576  40.238   6.750
 7698POPC   C3B43173   6.519  40.227   7.050
 7698POPC   C4B43174   6.581  40.203   7.350
 7699POPC   NC343175  33.034   5.834   5.550
 7699POPC   PO443176  33.063   5.838   5.850
 7699POPC   GL143177  33.034   5.859   6.150
 7699POPC   GL243178  33.166   5.795   6.150
 7699POPC   C1A43179  33.073   5.895   6.450
 7699POPC   D2A43180  32.985   5.821   6.750
 7699POPC   C3A43181  33.025   5.834   7.050
 7699POPC   C4A43182  32.975   5.841   7.350
 7699POPC   C1B43183  33.228   5.799   6.450
 7699POPC   C2B43184  33.283   5.738   6.750
 7699POPC   C3B43185  33.233   5.812   7.050
 7699POPC   C4B43186  33.253   5.729   7.350
 7700POPC   NC343187  13.647  28.347   5.550
 7700POPC   PO443188  13.601  28.393   5.850
 7700POPC   GL143189  13.579  28.402   6.150
 7700POPC   GL243190  13.621  28.500   6.150
 7700POPC   C1A43191  13.633  28.360   6.450
 7700POPC   D2A43192  13.630  28.372   6.750
 7700POPC   C3A43193  13.635  28.340   7.050
 7700POPC   C4A43194  13.604  28.325   7.350
 7700POPC   C1B43195  13.701  28.665   6.450
 7700POPC   C2B43196  13.610  28.604   6.750
 7700POPC   C3B43197  13.643  28.591   7.050
 7700POPC   C4B43198  13.666  28.621   7.350
 7701POPC   NC343199  38.441  29.190   5.550
 7701POPC   PO443200  38.438  29.116   5.850
 7701POPC   GL143201  38.425  29.113   6.150
 7701POPC   GL243202  38.469  29.043   6.150
 7701POPC   C1A43203  38.485  29.187   6.450
 7701POPC   D2A43204  38.408  29.134   6.750
 7701POPC   C3A43205  38.489  29.171   7.050
 7701POPC   C4A43206  38.429  29.173   7.350
 7701POPC   C1B43207  38.444  28.870   6.450
 7701POPC   C2B43208  38.399  28.892   6.750
 7701POPC   C3B43209  38.421  28.920   7.050
 7701POPC   C4B43210  38.447  28.908   7.350
 7702POPC   NC343211   9.740  29.114   5.550
 7702POPC   PO443212   9.781  29.190   5.850
 7702POPC   GL143213   9.715  29.132   6.150
 7702POPC   GL243214   9.853  29.034   6.150
 7702POPC   C1A43215   9.739  29.098   6.450
 7702POPC   D2A43216   9.704  29.155   6.750
 7702POPC   C3A43217   9.722  29.104   7.050
 7702POPC   C4A43218   9.704  29.132   7.350
 7702POPC   C1B43219   9.930  28.990   6.450
 7702POPC   C2B43220   9.997  28.962   6.750
 7702POPC   C3B43221   9.965  28.971   7.050
 7702POPC   C4B43222   9.947  29.014   7.350
 7703POPC   NC343223  32.275  33.796   5.550
 7703POPC   PO443224  32.230  33.755   5.850
 7703POPC   GL143225  32.221  33.806   6.150
 7703POPC   GL243226  32.155  33.764   6.150
 7703POPC   C1A43227  32.200  33.846   6.450
 7703POPC   D2A43228  32.229  33.841   6.750
 7703POPC   C3A43229  32.234  33.838   7.050
 7703POPC   C4A43230  32.298  33.761   7.350
 7703POPC   C1B43231  32.037  33.808   6.450
 7703POPC   C2B43232  31.958  33.832   6.750
 7703POPC   C3B43233  31.976  33.776   7.050
 7703POPC   C4B43234  31.993  33.741   7.350
 7704POPC   NC343235   5.057  15.933   5.550
 7704POPC   PO443236   5.082  15.909   5.850
 7704POPC   GL143237   5.110  15.913   6.150
 7704POPC   GL243238   5.099  15.822   6.150
 7704POPC   C1A43239   5.048  15.980   6.450
 7704POPC   D2A43240   5.138  16.000   6.750
 7704POPC   C3A43241   5.083  15.923   7.050
 7704POPC   C4A43242   5.050  15.974   7.350
 7704POPC   C1B43243   5.104  15.692   6.450
 7704POPC   C2B43244   5.083  15.692   6.750
 7704POPC   C3B43245   5.094  15.728   7.050
 7704POPC   C4B43246   5.116  15.691   7.350
 7705POPC   NC343247   9.766  41.589   5.550
 7705POPC   PO443248   9.742  41.527   5.850
 7705POPC   GL143249   9.728  41.537   6.150
 7705POPC   GL243250   9.651  41.632   6.150
 7705POPC   C1A43251   9.735  41.547   6.450
 7705POPC   D2A43252   9.777  41.555   6.750
 7705POPC   C3A43253   9.754  41.556   7.050
 7705POPC   C4A43254   9.727  41.580   7.350
 7705POPC   C1B43255   9.545  41.654   6.450
 7705POPC   C2B43256   9.483  41.651   6.750
 7705POPC   C3B43257   9.478  41.564   7.050
 7705POPC   C4B43258   9.525  41.583   7.350
 7706POPC   NC343259   5.892   8.955   5.550
 7706POPC   PO443260   5.886   8.993   5.850
 7706POPC   GL143261   5.909   8.974   6.150
 7706POPC   GL243262   5.831   8.840   6.150
 7706POPC   C1A43263   5.828   8.997   6.450
 7706POPC   D2A43264   5.835   9.022   6.750
 7706POPC   C3A43265   5.883   8.936   7.050
 7706POPC   C4A43266   5.889   9.020   7.350
 7706POPC   C1B43267   5.735   8.821   6.450
 7706POPC   C2B43268   5.748   8.807   6.750
 7706POPC   C3B43269   5.704   8.755   7.050
 7706POPC   C4B43270   5.743   8.740   7.350
 7707POPC   NC343271  14.415  40.793   5.550
 7707POPC   PO443272  14.391  40.781   5.850
 7707POPC   GL143273  14.429  40.784   6.150
 7707POPC   GL243274  14.295  40.770   6.150
 7707POPC   C1A43275  14.357  40.784   6.450
 7707POPC   D2A43276  14.450  40.776   6.750
 7707POPC   C3A43277  14.402  40.794   7.050
 7707POPC   C4A43278  14.423  40.807   7.350
 7707POPC   C1B43279  14.218  40.625   6.450
 7707POPC   C2B43280  14.161  40.678   6.750
 7707POPC   C3B43281  14.208  40.649   7.050
 7707POPC   C4B43282  14.173  40.613   7.350
 7708POPC   NC343283   7.386   3.526   5.550
 7708POPC   PO443284   7.451   3.576   5.850
 7708POPC   GL143285   7.394   3.501   6.150
 7708POPC   GL243286   7.489   3.663   6.150
 7708POPC   C1A43287   7.441   3.514   6.450
 7708POPC   D2A43288   7.380   3.523   6.750
 7708POPC   C3A43289   7.372   3.551   7.050
 7708POPC   C4A43290   7.426   3.518   7.350
 7708POPC   C1B43291   7.588   3.697   6.450
 7708POPC   C2B43292   7.586   3.651   6.750
 7708POPC   C3B43293   7.649   3.714   7.050
 7708POPC   C4B43294   7.626   3.704   7.350
 7709POPC   NC343295  14.399  23.672   5.550
 7709POPC   PO443296  14.444  23.759   5.850
 7709POPC   GL143297  14.453  23.744   6.150
 7709POPC   GL243298  14.440  23.810   6.150
 7709POPC   C1A43299  14.378  23.705   6.450
 7709POPC   D2A43300  14.409  23.750   6.750
 7709POPC   C3A43301  14.355  23.691   7.050
 7709POPC   C4A43302  14.452  23.716   7.350
 7709POPC   C1B43303  14.460  23.923   6.450
 7709POPC   C2B43304  14.490  23.978   6.750
 7709POPC   C3B43305  14.494  23.927   7.050
 7709POPC   C4B43306  14.480  23.930   7.350
 7710POPC   NC343307   1.220  41.584   5.550
 7710POPC   PO443308   1.218  41.560   5.850
 7710POPC   GL143309   1.221  41.516   6.150
 7710POPC   GL243310   1.134  41.588   6.150
 7710POPC   C1A43311   1.205  41.602   6.450
 7710POPC   D2A43312   1.166  41.605   6.750
 7710POPC   C3A43313   1.171  41.518   7.050
 7710POPC   C4A43314   1.183  41.516   7.350
 7710POPC   C1B43315   0.939  41.551   6.450
 7710POPC   C2B43316   0.935  41.548   6.750
 7710POPC   C3B43317   0.979  41.564   7.050
 7710POPC   C4B43318   0.991  41.512   7.350
 7711POPC   NC343319  16.706  26.863   5.550
 7711POPC   PO443320  16.746  26.805   5.850
 7711POPC   GL143321  16.706  26.855   6.150
 7711POPC   GL243322  16.804  26.919   6.150
 7711POPC   C1A43323  16.723  26.840   6.450
 7711POPC   D2A43324  16.715  26.841   6.750
 7711POPC   C3A43325  16.717  26.778   7.050
 7711POPC   C4A43326  16.685  26.834   7.350
 7711POPC   C1B43327  16.880  27.038   6.450
 7711POPC   C2B43328  16.922  26.967   6.750
 7711POPC   C3B43329  16.883  27.050   7.050
 7711POPC   C4B43330  16.876  27.013   7.350
 7712POPC   NC343331  21.339  12.892   5.550
 7712POPC   PO443332  21.404  12.841   5.850
 7712POPC   GL143333  21.400  12.826   6.150
 7712POPC   GL243334  21.445  12.809   6.150
 7712POPC   C1A43335  21.390  12.840   6.450
 7712POPC   D2A43336  21.347  12.851   6.750
 7712POPC   C3A43337  21.393  12.820   7.050
 7712POPC   C4A43338  21.345  12.861   7.350
 7712POPC   C1B43339  21.536  12.660   6.450
 7712POPC   C2B43340  21.539  12.743   6.750
 7712POPC   C3B43341  21.589  12.673   7.050
 7712POPC   C4B43342  21.624  12.685   7.350
 7713POPC   NC343343  18.277  22.137   5.550
 7713POPC   PO443344  18.308  22.171   5.850
 7713POPC   GL143345  18.235  22.208   6.150
 7713POPC   GL243346  18.218  22.016   6.150
 7713POPC   C1A43347  18.260  22.210   6.450
 7713POPC   D2A43348  18.276  22.183   6.750
 7713POPC   C3A43349  18.239  22.171   7.050
 7713POPC   C4A43350  18.332  22.205   7.350
 7713POPC   C1B43351  18.100  21.973   6.450
 7713POPC   C2B43352  18.173  21.910   6.750
 7713POPC   C3B43353  18.147  21.956   7.050
 7713POPC   C4B43354  18.168  21.931   7.350
 7714POPC   NC343355  43.842  18.325   5.550
 7714POPC   PO443356  43.875  18.312   5.850
 7714POPC   GL143357  43.915  18.249   6.150
 7714POPC   GL243358  43.822  18.322   6.150
 7714POPC   C1A43359  43.859  18.261   6.450
 7714POPC   D2A43360  43.839  18.252   6.750
 7714POPC   C3A43361  43.916  18.284   7.050
 7714POPC   C4A43362  43.928  18.320   7.350
 7714POPC   C1B43363  43.690  18.478   6.450
 7714POPC   C2B43364  43.745  18.410   6.750
 7714POPC   C3B43365  43.737  18.435   7.050
 7714POPC   C4B43366  43.719  18.472   7.350
 7715POPC   NC343367  27.599  25.287   5.550
 7715POPC   PO443368  27.619  25.291   5.850
 7715POPC   GL143369  27.590  25.295   6.150
 7715POPC   GL243370  27.525  25.334   6.150
 7715POPC   C1A43371  27.635  25.272   6.450
 7715POPC   D2A43372  27.552  25.252   6.750
 7715POPC   C3A43373  27.636  25.260   7.050
 7715POPC   C4A43374  27.591  25.252   7.350
 7715POPC   C1B43375  27.326  25.396   6.450
 7715POPC   C2B43376  27.411  25.427   6.750
 7715POPC   C3B43377  27.403  25.399   7.050
 7715POPC   C4B43378  27.362  25.347   7.350
 7716POPC   NC343379  34.588   8.924   5.550
 7716POPC   PO443380  34.552   9.012   5.850
 7716POPC   GL143381  34.616   9.003   6.150
 7716POPC   GL243382  34.553   9.083   6.150
 7716POPC   C1A43383  34.550   9.009   6.450
 7716POPC   D2A43384  34.620   8.939   6.750
 7716POPC   C3A43385  34.545   9.009   7.050
 7716POPC   C4A43386  34.583   9.016   7.350
 7716POPC   C1B43387  34.533   9.265   6.450
 7716POPC   C2B43388  34.560   9.259   6.750
 7716POPC   C3B43389  34.591   9.173   7.050
 7716POPC   C4B43390  34.533   9.265   7.350
 7717POPC   NC343391  28.361  35.312   5.550
 7717POPC   PO443392  28.322  35.303   5.850
 7717POPC   GL143393  28.344  35.368   6.150
 7717POPC   GL243394  28.449  35.233   6.150
 7717POPC   C1A43395  28.411  35.320   6.450
 7717POPC   D2A43396  28.382  35.352   6.750
 7717POPC   C3A43397  28.363  35.307   7.050
 7717POPC   C4A43398  28.401  35.308   7.350
 7717POPC   C1B43399  28.494  35.098   6.450
 7717POPC   C2B43400  28.487  35.130   6.750
 7717POPC   C3B43401  28.474  35.109   7.050
 7717POPC   C4B43402  28.470  35.071   7.350
 7718POPC   NC343403  37.666  33.812   5.550
 7718POPC   PO443404  37.681  33.846   5.850
 7718POPC   GL143405  37.716  33.819   6.150
 7718POPC   GL243406  37.806  33.824   6.150
 7718POPC   C1A43407  37.681  33.768   6.450
 7718POPC   D2A43408  37.669  33.846   6.750
 7718POPC   C3A43409  37.658  33.827   7.050
 7718POPC   C4A43410  37.675  33.764   7.350
 7718POPC   C1B43411  37.927  33.939   6.450
 7718POPC   C2B43412  37.860  33.866   6.750
 7718POPC   C3B43413  37.858  33.858   7.050
 7718POPC   C4B43414  37.867  33.883   7.350
 7719POPC   NC343415   1.213  26.778   5.550
 7719POPC   PO443416   1.181  26.774   5.850
 7719POPC   GL143417   1.200  26.804   6.150
 7719POPC   GL243418   1.188  26.693   6.150
 7719POPC   C1A43419   1.219  26.842   6.450
 7719POPC   D2A43420   1.209  26.820   6.750
 7719POPC   C3A43421   1.230  26.830   7.050
 7719POPC   C4A43422   1.172  26.774   7.350
 7719POPC   C1B43423   1.065  26.652   6.450
 7719POPC   C2B43424   1.102  26.575   6.750
 7719POPC   C3B43425   1.048  26.598   7.050
 7719POPC   C4B43426   1.048  26.569   7.350
 7720POPC   NC343427  12.845   4.299   5.550
 7720POPC   PO443428  12.862   4.356   5.850
 7720POPC   GL143429  12.853   4.317   6.150
 7720POPC   GL243430  12.686   4.337   6.150
 7720POPC   C1A43431  12.870   4.306   6.450
 7720POPC   D2A43432  12.811   4.359   6.750
 7720POPC   C3A43433  12.814   4.286   7.050
 7720POPC   C4A43434  12.832   4.289   7.350
 7720POPC   C1B43435  12.588   4.353   6.450
 7720POPC   C2B43436  12.608   4.374   6.750
 7720POPC   C3B43437  12.586   4.314   7.050
 7720POPC   C4B43438  12.600   4.308   7.350
 7721POPC   NC343439  24.485  29.926   5.550
 7721POPC   PO443440  24.535  29.919   5.850
 7721POPC   GL143441  24.524  29.965   6.150
 7721POPC   GL243442  24.577  29.818   6.150
 7721POPC   C1A43443  24.538  29.949   6.450
 7721POPC   D2A43444  24.460  29.917   6.750
 7721POPC   C3A43445  24.532  29.912   7.050
 7721POPC   C4A43446  24.493  29.966   7.350
 7721POPC   C1B43447  24.715  29.757   6.450
 7721POPC   C2B43448  24.734  29.852   6.750
 7721POPC   C3B43449  24.737  29.808   7.050
 7721POPC   C4B43450  24.756  29.782   7.350
 7722POPC   NC343451  21.403  11.268   5.550
 7722POPC   PO443452  21.412  11.301   5.850
 7722POPC   GL143453  21.398  11.280   6.150
 7722POPC   GL243454  21.391  11.403   6.150
 7722POPC   C1A43455  21.344  11.345   6.450
 7722POPC   D2A43456  21.391  11.277   6.750
 7722POPC   C3A43457  21.434  11.306   7.050
 7722POPC   C4A43458  21.400  11.292   7.350
 7722POPC   C1B43459  21.324  11.568   6.450
 7722POPC   C2B43460  21.376  11.579   6.750
 7722POPC   C3B43461  21.359  11.519   7.050
 7722POPC   C4B43462  21.352  11.509   7.350
 7723POPC   NC343463   7.410  33.846   5.550
 7723POPC   PO443464   7.448  33.788   5.850
 7723POPC   GL143465   7.395  33.818   6.150
 7723POPC   GL243466   7.498  33.697   6.150
 7723POPC   C1A43467   7.449  33.771   6.450
 7723POPC   D2A43468   7.447  33.841   6.750
 7723POPC   C3A43469   7.422  33.823   7.050
 7723POPC   C4A43470   7.403  33.837   7.350
 7723POPC   C1B43471   7.616  33.613   6.450
 7723POPC   C2B43472   7.620  33.693   6.750
 7723POPC   C3B43473   7.629  33.677   7.050
 7723POPC   C4B43474   7.599  33.680   7.350
 7724POPC   NC343475  40.010  42.330   5.550
 7724POPC   PO443476  40.056  42.384   5.850
 7724POPC   GL143477  40.038  42.303   6.150
 7724POPC   GL243478  40.085  42.407   6.150
 7724POPC   C1A43479  39.984  42.286   6.450
 7724POPC   D2A43480  40.001  42.340   6.750
 7724POPC   C3A43481  39.994  42.348   7.050
 7724POPC   C4A43482  40.044  42.310   7.350
 7724POPC   C1B43483  40.077  42.580   6.450
 7724POPC   C2B43484  40.128  42.558   6.750
 7724POPC   C3B43485  40.067  42.523   7.050
 7724POPC   C4B43486  40.126  42.568   7.350
 7725POPC   NC343487  14.417  29.119   5.550
 7725POPC   PO443488  14.427  29.187   5.850
 7725POPC   GL143489  14.407  29.184   6.150
 7725POPC   GL243490  14.305  29.121   6.150
 7725POPC   C1A43491  14.397  29.143   6.450
 7725POPC   D2A43492  14.369  29.167   6.750
 7725POPC   C3A43493  14.368  29.100   7.050
 7725POPC   C4A43494  14.383  29.125   7.350
 7725POPC   C1B43495  14.160  29.122   6.450
 7725POPC   C2B43496  14.110  29.148   6.750
 7725POPC   C3B43497  14.153  29.184   7.050
 7725POPC   C4B43498  14.147  29.161   7.350
 7726POPC   NC343499   3.494  15.161   5.550
 7726POPC   PO443500   3.588  15.211   5.850
 7726POPC   GL143501   3.514  15.185   6.150
 7726POPC   GL243502   3.612  15.059   6.150
 7726POPC   C1A43503   3.534  15.189   6.450
 7726POPC   D2A43504   3.555  15.181   6.750
 7726POPC   C3A43505   3.528  15.196   7.050
 7726POPC   C4A43506   3.539  15.179   7.350
 7726POPC   C1B43507   3.682  15.028   6.450
 7726POPC   C2B43508   3.718  14.955   6.750
 7726POPC   C3B43509   3.693  14.953   7.050
 7726POPC   C4B43510   3.714  15.021   7.350
 7727POPC   NC343511  31.504   7.410   5.550
 7727POPC   PO443512  31.432   7.405   5.850
 7727POPC   GL143513  31.496   7.371   6.150
 7727POPC   GL243514  31.329   7.478   6.150
 7727POPC   C1A43515  31.478   7.454   6.450
 7727POPC   D2A43516  31.517   7.379   6.750
 7727POPC   C3A43517  31.501   7.400   7.050
 7727POPC   C4A43518  31.514   7.445   7.350
 7727POPC   C1B43519  31.289   7.574   6.450
 7727POPC   C2B43520  31.251   7.582   6.750
 7727POPC   C3B43521  31.212   7.581   7.050
 7727POPC   C4B43522  31.201   7.511   7.350
 7728POPC   NC343523   8.175   5.819   5.550
 7728POPC   PO443524   8.161   5.864   5.850
 7728POPC   GL143525   8.173   5.868   6.150
 7728POPC   GL243526   8.196   5.947   6.150
 7728POPC   C1A43527   8.235   5.847   6.450
 7728POPC   D2A43528   8.213   5.884   6.750
 7728POPC   C3A43529   8.239   5.894   7.050
 7728POPC   C4A43530   8.198   5.865   7.350
 7728POPC   C1B43531   8.138   6.112   6.450
 7728POPC   C2B43532   8.163   6.136   6.750
 7728POPC   C3B43533   8.129   6.120   7.050
 7728POPC   C4B43534   8.201   6.098   7.350
 7729POPC   NC343535  15.952  35.308   5.550
 7729POPC   PO443536  15.911  35.393   5.850
 7729POPC   GL143537  15.965  35.389   6.150
 7729POPC   GL243538  15.815  35.277   6.150
 7729POPC   C1A43539  15.999  35.378   6.450
 7729POPC   D2A43540  15.973  35.401   6.750
 7729POPC   C3A43541  15.921  35.390   7.050
 7729POPC   C4A43542  15.947  35.388   7.350
 7729POPC   C1B43543  15.802  35.194   6.450
 7729POPC   C2B43544  15.766  35.192   6.750
 7729POPC   C3B43545  15.801  35.194   7.050
 7729POPC   C4B43546  15.809  35.169   7.350
 7730POPC   NC343547  13.619   6.693   5.550
 7730POPC   PO443548  13.672   6.611   5.850
 7730POPC   GL143549  13.653   6.661   6.150
 7730POPC   GL243550  13.727   6.538   6.150
 7730POPC   C1A43551  13.660   6.610   6.450
 7730POPC   D2A43552  13.592   6.663   6.750
 7730POPC   C3A43553  13.615   6.616   7.050
 7730POPC   C4A43554  13.625   6.660   7.350
 7730POPC   C1B43555  13.817   6.401   6.450
 7730POPC   C2B43556  13.771   6.409   6.750
 7730POPC   C3B43557  13.756   6.422   7.050
 7730POPC   C4B43558  13.815   6.457   7.350
 7731POPC   NC343559  39.984  12.045   5.550
 7731POPC   PO443560  39.982  12.079   5.850
 7731POPC   GL143561  39.981  12.087   6.150
 7731POPC   GL243562  40.085  12.201   6.150
 7731POPC   C1A43563  39.962  12.126   6.450
 7731POPC   D2A43564  39.979  12.028   6.750
 7731POPC   C3A43565  39.958  12.032   7.050
 7731POPC   C4A43566  39.962  12.090   7.350
 7731POPC   C1B43567  40.139  12.355   6.450
 7731POPC   C2B43568  40.082  12.278   6.750
 7731POPC   C3B43569  40.098  12.289   7.050
 7731POPC   C4B43570  40.067  12.340   7.350
 7732POPC   NC343571   1.174  40.777   5.550
 7732POPC   PO443572   1.236  40.817   5.850
 7732POPC   GL143573   1.223  40.800   6.150
 7732POPC   GL243574   1.172  40.689   6.150
 7732POPC   C1A43575   1.212  40.806   6.450
 7732POPC   D2A43576   1.223  40.831   6.750
 7732POPC   C3A43577   1.193  40.762   7.050
 7732POPC   C4A43578   1.236  40.756   7.350
 7732POPC   C1B43579   1.100  40.537   6.450
 7732POPC   C2B43580   1.032  40.591   6.750
 7732POPC   C3B43581   1.040  40.605   7.050
 7732POPC   C4B43582   1.058  40.573   7.350
 7733POPC   NC343583  12.809  14.415   5.550
 7733POPC   PO443584  12.888  14.410   5.850
 7733POPC   GL143585  12.819  14.367   6.150
 7733POPC   GL243586  12.825  14.538   6.150
 7733POPC   C1A43587  12.880  14.402   6.450
 7733POPC   D2A43588  12.890  14.426   6.750
 7733POPC   C3A43589  12.847  14.444   7.050
 7733POPC   C4A43590  12.901  14.366   7.350
 7733POPC   C1B43591  12.811  14.634   6.450
 7733POPC   C2B43592  12.768  14.645   6.750
 7733POPC   C3B43593  12.749  14.671   7.050
 7733POPC   C4B43594  12.820  14.628   7.350
 7734POPC   NC343595  43.103   8.237   5.550
 7734POPC   PO443596  43.113   8.186   5.850
 7734POPC   GL143597  43.074   8.199   6.150
 7734POPC   GL243598  43.017   8.216   6.150
 7734POPC   C1A43599  43.103   8.174   6.450
 7734POPC   D2A43600  43.091   8.171   6.750
 7734POPC   C3A43601  43.151   8.190   7.050
 7734POPC   C4A43602  43.110   8.196   7.350
 7734POPC   C1B43603  42.890   8.145   6.450
 7734POPC   C2B43604  42.895   8.214   6.750
 7734POPC   C3B43605  42.910   8.137   7.050
 7734POPC   C4B43606  42.888   8.122   7.350
 7735POPC   NC343607  14.384  38.448   5.550
 7735POPC   PO443608  14.382  38.493   5.850
 7735POPC   GL143609  14.369  38.436   6.150
 7735POPC   GL243610  14.464  38.405   6.150
 7735POPC   C1A43611  14.420  38.468   6.450
 7735POPC   D2A43612  14.375  38.445   6.750
 7735POPC   C3A43613  14.404  38.499   7.050
 7735POPC   C4A43614  14.368  38.418   7.350
 7735POPC   C1B43615  14.620  38.318   6.450
 7735POPC   C2B43616  14.636  38.366   6.750
 7735POPC   C3B43617  14.624  38.339   7.050
 7735POPC   C4B43618  14.618  38.349   7.350
 7736POPC   NC343619   8.235  40.779   5.550
 7736POPC   PO443620   8.153  40.736   5.850
 7736POPC   GL143621   8.154  40.802   6.150
 7736POPC   GL243622   8.077  40.657   6.150
 7736POPC   C1A43623   8.166  40.747   6.450
 7736POPC   D2A43624   8.199  40.758   6.750
 7736POPC   C3A43625   8.204  40.773   7.050
 7736POPC   C4A43626   8.222  40.744   7.350
 7736POPC   C1B43627   8.059  40.590   6.450
 7736POPC   C2B43628   7.999  40.584   6.750
 7736POPC   C3B43629   8.019  40.638   7.050
 7736POPC   C4B43630   7.968  40.612   7.350
 7737POPC   NC343631  28.343  29.961   5.550
 7737POPC   PO443632  28.331  29.879   5.850
 7737POPC   GL143633  28.382  29.963   6.150
 7737POPC   GL243634  28.432  29.989   6.150
 7737POPC   C1A43635  28.337  29.894   6.450
 7737POPC   D2A43636  28.388  29.921   6.750
 7737POPC   C3A43637  28.347  29.953   7.050
 7737POPC   C4A43638  28.393  29.900   7.350
 7737POPC   C1B43639  28.518  30.109   6.450
 7737POPC   C2B43640  28.503  30.090   6.750
 7737POPC   C3B43641  28.504  30.105   7.050
 7737POPC   C4B43642  28.469  30.081   7.350
 7738POPC   NC343643  34.601   0.429   5.550
 7738POPC   PO443644  34.576   0.426   5.850
 7738POPC   GL143645  34.528   0.413   6.150
 7738POPC   GL243646  34.600   0.496   6.150
 7738POPC   C1A43647  34.543   0.450   6.450
 7738POPC   D2A43648  34.551   0.426   6.750
 7738POPC   C3A43649  34.565   0.445   7.050
 7738POPC   C4A43650  34.564   0.462   7.350
 7738POPC   C1B43651  34.761   0.653   6.450
 7738POPC   C2B43652  34.756   0.609   6.750
 7738POPC   C3B43653  34.762   0.626   7.050
 7738POPC   C4B43654  34.705   0.675   7.350
 7739POPC   NC343655  24.489   5.903   5.550
 7739POPC   PO443656  24.472   5.844   5.850
 7739POPC   GL143657  24.472   5.837   6.150
 7739POPC   GL243658  24.559   6.024   6.150
 7739POPC   C1A43659  24.514   5.865   6.450
 7739POPC   D2A43660  24.533   5.850   6.750
 7739POPC   C3A43661  24.476   5.833   7.050
 7739POPC   C4A43662  24.520   5.879   7.350
 7739POPC   C1B43663  24.550   6.065   6.450
 7739POPC   C2B43664  24.610   6.084   6.750
 7739POPC   C3B43665  24.574   6.049   7.050
 7739POPC   C4B43666  24.636   6.102   7.350
 7740POPC   NC343667  26.828   5.829   5.550
 7740POPC   PO443668  26.799   5.837   5.850
 7740POPC   GL143669  26.773   5.843   6.150
 7740POPC   GL243670  26.877   5.964   6.150
 7740POPC   C1A43671  26.797   5.867   6.450
 7740POPC   D2A43672  26.785   5.900   6.750
 7740POPC   C3A43673  26.770   5.837   7.050
 7740POPC   C4A43674  26.852   5.851   7.350
 7740POPC   C1B43675  26.973   6.111   6.450
 7740POPC   C2B43676  26.947   6.094   6.750
 7740POPC   C3B43677  26.953   6.087   7.050
 7740POPC   C4B43678  27.007   6.092   7.350
 7741POPC   NC343679  29.134  19.049   5.550
 7741POPC   PO443680  29.108  19.033   5.850
 7741POPC   GL143681  29.164  19.038   6.150
 7741POPC   GL243682  29.244  18.962   6.150
 7741POPC   C1A43683  29.109  19.079   6.450
 7741POPC   D2A43684  29.185  19.081   6.750
 7741POPC   C3A43685  29.163  19.036   7.050
 7741POPC   C4A43686  29.143  19.021   7.350
 7741POPC   C1B43687  29.318  18.947   6.450
 7741POPC   C2B43688  29.341  18.955   6.750
 7741POPC   C3B43689  29.317  18.902   7.050
 7741POPC   C4B43690  29.328  18.918   7.350
 7742POPC   NC343691  33.772  37.704   5.550
 7742POPC   PO443692  33.822  37.719   5.850
 7742POPC   GL143693  33.806  37.724   6.150
 7742POPC   GL243694  33.697  37.623   6.150
 7742POPC   C1A43695  33.796  37.723   6.450
 7742POPC   D2A43696  33.822  37.713   6.750
 7742POPC   C3A43697  33.836  37.715   7.050
 7742POPC   C4A43698  33.821  37.696   7.350
 7742POPC   C1B43699  33.511  37.590   6.450
 7742POPC   C2B43700  33.519  37.654   6.750
 7742POPC   C3B43701  33.579  37.609   7.050
 7742POPC   C4B43702  33.508  37.653   7.350
 7743POPC   NC343703  30.712   2.744   5.550
 7743POPC   PO443704  30.663   2.781   5.850
 7743POPC   GL143705  30.689   2.743   6.150
 7743POPC   GL243706  30.548   2.711   6.150
 7743POPC   C1A43707  30.741   2.803   6.450
 7743POPC   D2A43708  30.653   2.799   6.750
 7743POPC   C3A43709  30.711   2.792   7.050
 7743POPC   C4A43710  30.648   2.812   7.350
 7743POPC   C1B43711  30.475   2.711   6.450
 7743POPC   C2B43712  30.412   2.700   6.750
 7743POPC   C3B43713  30.423   2.672   7.050
 7743POPC   C4B43714  30.487   2.684   7.350
 7744POPC   NC343715  34.580  44.659   5.550
 7744POPC   PO443716  34.597  44.627   5.850
 7744POPC   GL143717  34.616  44.638   6.150
 7744POPC   GL243718  34.504  44.805   6.150
 7744POPC   C1A43719  34.600  44.689   6.450
 7744POPC   D2A43720  34.594  44.633   6.750
 7744POPC   C3A43721  34.615  44.653   7.050
 7744POPC   C4A43722  34.567  44.684   7.350
 7744POPC   C1B43723  34.527  44.942   6.450
 7744POPC   C2B43724  34.443  44.903   6.750
 7744POPC   C3B43725  34.500  44.901   7.050
 7744POPC   C4B43726  34.532  44.912   7.350
 7745POPC   NC343727  12.051  23.720   5.550
 7745POPC   PO443728  12.120  23.702   5.850
 7745POPC   GL143729  12.102  23.760   6.150
 7745POPC   GL243730  12.148  23.625   6.150
 7745POPC   C1A43731  12.045  23.751   6.450
 7745POPC   D2A43732  12.113  23.698   6.750
 7745POPC   C3A43733  12.121  23.744   7.050
 7745POPC   C4A43734  12.085  23.758   7.350
 7745POPC   C1B43735  12.220  23.544   6.450
 7745POPC   C2B43736  12.177  23.462   6.750
 7745POPC   C3B43737  12.203  23.495   7.050
 7745POPC   C4B43738  12.176  23.535   7.350
 7746POPC   NC343739  19.105  26.781   5.550
 7746POPC   PO443740  19.029  26.841   5.850
 7746POPC   GL143741  19.093  26.839   6.150
 7746POPC   GL243742  19.018  26.981   6.150
 7746POPC   C1A43743  19.025  26.839   6.450
 7746POPC   D2A43744  19.080  26.802   6.750
 7746POPC   C3A43745  19.029  26.820   7.050
 7746POPC   C4A43746  19.024  26.799   7.350
 7746POPC   C1B43747  19.098  27.092   6.450
 7746POPC   C2B43748  19.090  27.085   6.750
 7746POPC   C3B43749  19.079  27.077   7.050
 7746POPC   C4B43750  19.103  27.047   7.350
 7747POPC   NC343751   8.219  33.791   5.550
 7747POPC   PO443752   8.238  33.816   5.850
 7747POPC   GL143753   8.187  33.818   6.150
 7747POPC   GL243754   8.168  33.678   6.150
 7747POPC   C1A43755   8.193  33.759   6.450
 7747POPC   D2A43756   8.193  33.834   6.750
 7747POPC   C3A43757   8.205  33.780   7.050
 7747POPC   C4A43758   8.191  33.809   7.350
 7747POPC   C1B43759   8.134  33.556   6.450
 7747POPC   C2B43760   8.145  33.526   6.750
 7747POPC   C3B43761   8.155  33.559   7.050
 7747POPC   C4B43762   8.171  33.581   7.350
 7748POPC   NC343763  24.442  14.414   5.550
 7748POPC   PO443764  24.495  14.396   5.850
 7748POPC   GL143765  24.538  14.449   6.150
 7748POPC   GL243766  24.643  14.418   6.150
 7748POPC   C1A43767  24.481  14.380   6.450
 7748POPC   D2A43768  24.533  14.404   6.750
 7748POPC   C3A43769  24.455  14.372   7.050
 7748POPC   C4A43770  24.480  14.360   7.350
 7748POPC   C1B43771  24.700  14.501   6.450
 7748POPC   C2B43772  24.760  14.504   6.750
 7748POPC   C3B43773  24.746  14.524   7.050
 7748POPC   C4B43774  24.703  14.483   7.350
 7749POPC   NC343775  34.563  43.907   5.550
 7749POPC   PO443776  34.605  43.847   5.850
 7749POPC   GL143777  34.530  43.848   6.150
 7749POPC   GL243778  34.629  43.985   6.150
 7749POPC   C1A43779  34.545  43.917   6.450
 7749POPC   D2A43780  34.559  43.849   6.750
 7749POPC   C3A43781  34.536  43.856   7.050
 7749POPC   C4A43782  34.614  43.855   7.350
 7749POPC   C1B43783  34.727  44.112   6.450
 7749POPC   C2B43784  34.677  44.070   6.750
 7749POPC   C3B43785  34.742  44.060   7.050
 7749POPC   C4B43786  34.743  44.137   7.350
 7750POPC   NC343787  43.131   6.595   5.550
 7750POPC   PO443788  43.065   6.673   5.850
 7750POPC   GL143789  43.158   6.606   6.150
 7750POPC   GL243790  43.200   6.715   6.150
 7750POPC   C1A43791  43.099   6.608   6.450
 7750POPC   D2A43792  43.127   6.647   6.750
 7750POPC   C3A43793  43.120   6.610   7.050
 7750POPC   C4A43794  43.073   6.644   7.350
 7750POPC   C1B43795  43.326   6.727   6.450
 7750POPC   C2B43796  43.363   6.698   6.750
 7750POPC   C3B43797  43.355   6.747   7.050
 7750POPC   C4B43798  43.369   6.721   7.350
 7751POPC   NC343799  15.143  26.863   5.550
 7751POPC   PO443800  15.189  26.821   5.850
 7751POPC   GL143801  15.226  26.811   6.150
 7751POPC   GL243802  15.037  26.879   6.150
 7751POPC   C1A43803  15.226  26.822   6.450
 7751POPC   D2A43804  15.138  26.831   6.750
 7751POPC   C3A43805  15.150  26.846   7.050
 7751POPC   C4A43806  15.219  26.779   7.350
 7751POPC   C1B43807  14.971  26.992   6.450
 7751POPC   C2B43808  14.921  26.935   6.750
 7751POPC   C3B43809  14.970  26.907   7.050
 7751POPC   C4B43810  14.951  26.933   7.350
 7752POPC   NC343811  40.752   9.752   5.550
 7752POPC   PO443812  40.771   9.751   5.850
 7752POPC   GL143813  40.768   9.710   6.150
 7752POPC   GL243814  40.875   9.664   6.150
 7752POPC   C1A43815  40.764   9.707   6.450
 7752POPC   D2A43816  40.796   9.731   6.750
 7752POPC   C3A43817  40.798   9.777   7.050
 7752POPC   C4A43818  40.778   9.765   7.350
 7752POPC   C1B43819  40.966   9.575   6.450
 7752POPC   C2B43820  40.997   9.576   6.750
 7752POPC   C3B43821  40.962   9.640   7.050
 7752POPC   C4B43822  40.985   9.627   7.350
 7753POPC   NC343823  33.073  40.023   5.550
 7753POPC   PO443824  33.017  39.996   5.850
 7753POPC   GL143825  33.058  40.033   6.150
 7753POPC   GL243826  33.063  39.929   6.150
 7753POPC   C1A43827  33.035  40.050   6.450
 7753POPC   D2A43828  32.979  39.992   6.750
 7753POPC   C3A43829  33.018  40.017   7.050
 7753POPC   C4A43830  33.022  39.991   7.350
 7753POPC   C1B43831  33.013  39.756   6.450
 7753POPC   C2B43832  33.015  39.722   6.750
 7753POPC   C3B43833  33.006  39.778   7.050
 7753POPC   C4B43834  33.021  39.715   7.350
 7754POPC   NC343835  39.966  34.558   5.550
 7754POPC   PO443836  40.025  34.569   5.850
 7754POPC   GL143837  40.050  34.543   6.150
 7754POPC   GL243838  40.069  34.415   6.150
 7754POPC   C1A43839  40.010  34.596   6.450
 7754POPC   D2A43840  40.027  34.551   6.750
 7754POPC   C3A43841  40.035  34.584   7.050
 7754POPC   C4A43842  39.999  34.622   7.350
 7754POPC   C1B43843  40.107  34.301   6.450
 7754POPC   C2B43844  40.109  34.335   6.750
 7754POPC   C3B43845  40.097  34.339   7.050
 7754POPC   C4B43846  40.064  34.309   7.350
 7755POPC   NC343847  32.262  18.243   5.550
 7755POPC   PO443848  32.238  18.251   5.850
 7755POPC   GL143849  32.259  18.316   6.150
 7755POPC   GL243850  32.311  18.387   6.150
 7755POPC   C1A43851  32.228  18.305   6.450
 7755POPC   D2A43852  32.285  18.331   6.750
 7755POPC   C3A43853  32.238  18.275   7.050
 7755POPC   C4A43854  32.208  18.321   7.350
 7755POPC   C1B43855  32.477  18.407   6.450
 7755POPC   C2B43856  32.483  18.350   6.750
 7755POPC   C3B43857  32.492  18.375   7.050
 7755POPC   C4B43858  32.454  18.441   7.350
 7756POPC   NC343859  39.214   8.202   5.550
 7756POPC   PO443860  39.199   8.183   5.850
 7756POPC   GL143861  39.243   8.176   6.150
 7756POPC   GL243862  39.210   8.057   6.150
 7756POPC   C1A43863  39.260   8.171   6.450
 7756POPC   D2A43864  39.205   8.164   6.750
 7756POPC   C3A43865  39.191   8.219   7.050
 7756POPC   C4A43866  39.268   8.160   7.350
 7756POPC   C1B43867  39.181   7.931   6.450
 7756POPC   C2B43868  39.198   7.910   6.750
 7756POPC   C3B43869  39.186   7.920   7.050
 7756POPC   C4B43870  39.133   7.935   7.350
 7757POPC   NC343871  28.376  12.804   5.550
 7757POPC   PO443872  28.376  12.824   5.850
 7757POPC   GL143873  28.380  12.820   6.150
 7757POPC   GL243874  28.447  12.803   6.150
 7757POPC   C1A43875  28.370  12.814   6.450
 7757POPC   D2A43876  28.328  12.834   6.750
 7757POPC   C3A43877  28.359  12.860   7.050
 7757POPC   C4A43878  28.368  12.894   7.350
 7757POPC   C1B43879  28.484  12.700   6.450
 7757POPC   C2B43880  28.561  12.696   6.750
 7757POPC   C3B43881  28.547  12.701   7.050
 7757POPC   C4B43882  28.544  12.697   7.350
 7758POPC   NC343883   5.859   3.590   5.550
 7758POPC   PO443884   5.897   3.557   5.850
 7758POPC   GL143885   5.891   3.555   6.150
 7758POPC   GL243886   5.797   3.407   6.150
 7758POPC   C1A43887   5.860   3.568   6.450
 7758POPC   D2A43888   5.868   3.551   6.750
 7758POPC   C3A43889   5.908   3.521   7.050
 7758POPC   C4A43890   5.864   3.513   7.350
 7758POPC   C1B43891   5.787   3.269   6.450
 7758POPC   C2B43892   5.729   3.334   6.750
 7758POPC   C3B43893   5.768   3.342   7.050
 7758POPC   C4B43894   5.772   3.325   7.350
 7759POPC   NC343895  35.337  15.223   5.550
 7759POPC   PO443896  35.398  15.198   5.850
 7759POPC   GL143897  35.400  15.218   6.150
 7759POPC   GL243898  35.426  15.244   6.150
 7759POPC   C1A43899  35.376  15.170   6.450
 7759POPC   D2A43900  35.315  15.208   6.750
 7759POPC   C3A43901  35.326  15.193   7.050
 7759POPC   C4A43902  35.383  15.224   7.350
 7759POPC   C1B43903  35.514  15.361   6.450
 7759POPC   C2B43904  35.470  15.436   6.750
 7759POPC   C3B43905  35.485  15.425   7.050
 7759POPC   C4B43906  35.460  15.366   7.350
 7760POPC   NC343907  41.556  12.036   5.550
 7760POPC   PO443908  41.555  12.120   5.850
 7760POPC   GL143909  41.579  12.039   6.150
 7760POPC   GL243910  41.650  11.955   6.150
 7760POPC   C1A43911  41.542  12.066   6.450
 7760POPC   D2A43912  41.600  12.059   6.750
 7760POPC   C3A43913  41.601  12.122   7.050
 7760POPC   C4A43914  41.523  12.036   7.350
 7760POPC   C1B43915  41.709  11.914   6.450
 7760POPC   C2B43916  41.718  11.846   6.750
 7760POPC   C3B43917  41.678  11.917   7.050
 7760POPC   C4B43918  41.696  11.897   7.350
 7761POPC   NC343919  43.864   9.728   5.550
 7761POPC   PO443920  43.882   9.709   5.850
 7761POPC   GL143921  43.867   9.709   6.150
 7761POPC   GL243922  43.914   9.623   6.150
 7761POPC   C1A43923  43.909   9.739   6.450
 7761POPC   D2A43924  43.924   9.704   6.750
 7761POPC   C3A43925  43.858   9.732   7.050
 7761POPC   C4A43926  43.865   9.714   7.350
 7761POPC   C1B43927  43.982   9.527   6.450
 7761POPC   C2B43928  43.959   9.462   6.750
 7761POPC   C3B43929  43.941   9.481   7.050
 7761POPC   C4B43930  43.956   9.515   7.350
 7762POPC   NC343931  32.295   8.939   5.550
 7762POPC   PO443932  32.215   8.941   5.850
 7762POPC   GL143933  32.278   8.929   6.150
 7762POPC   GL243934  32.291   8.871   6.150
 7762POPC   C1A43935  32.216   8.956   6.450
 7762POPC   D2A43936  32.293   9.007   6.750
 7762POPC   C3A43937  32.286   8.961   7.050
 7762POPC   C4A43938  32.291   8.948   7.350
 7762POPC   C1B43939  32.220   8.753   6.450
 7762POPC   C2B43940  32.204   8.766   6.750
 7762POPC   C3B43941  32.225   8.706   7.050
 7762POPC   C4B43942  32.203   8.694   7.350
 7763POPC   NC343943   5.837  29.966   5.550
 7763POPC   PO443944   5.878  29.964   5.850
 7763POPC   GL143945   5.910  29.890   6.150
 7763POPC   GL243946   5.898  30.047   6.150
 7763POPC   C1A43947   5.876  29.969   6.450
 7763POPC   D2A43948   5.870  29.935   6.750
 7763POPC   C3A43949   5.911  29.899   7.050
 7763POPC   C4A43950   5.838  29.928   7.350
 7763POPC   C1B43951   5.917  30.126   6.450
 7763POPC   C2B43952   5.914  30.172   6.750
 7763POPC   C3B43953   5.897  30.206   7.050
 7763POPC   C4B43954   5.932  30.135   7.350
 7764POPC   NC343955  17.494  26.039   5.550
 7764POPC   PO443956  17.490  26.007   5.850
 7764POPC   GL143957  17.540  26.065   6.150
 7764POPC   GL243958  17.618  26.011   6.150
 7764POPC   C1A43959  17.486  26.049   6.450
 7764POPC   D2A43960  17.548  26.047   6.750
 7764POPC   C3A43961  17.555  26.054   7.050
 7764POPC   C4A43962  17.530  26.055   7.350
 7764POPC   C1B43963  17.786  25.950   6.450
 7764POPC   C2B43964  17.742  25.971   6.750
 7764POPC   C3B43965  17.726  25.982   7.050
 7764POPC   C4B43966  17.788  25.968   7.350
 7765POPC   NC343967  27.553  12.075   5.550
 7765POPC   PO443968  27.580  12.082   5.850
 7765POPC   GL143969  27.576  12.123   6.150
 7765POPC   GL243970  27.464  12.081   6.150
 7765POPC   C1A43971  27.570  12.098   6.450
 7765POPC   D2A43972  27.636  12.049   6.750
 7765POPC   C3A43973  27.545  12.028   7.050
 7765POPC   C4A43974  27.616  12.037   7.350
 7765POPC   C1B43975  27.299  12.059   6.450
 7765POPC   C2B43976  27.320  12.041   6.750
 7765POPC   C3B43977  27.302  12.053   7.050
 7765POPC   C4B43978  27.353  12.114   7.350
 7766POPC   NC343979  26.794   8.972   5.550
 7766POPC   PO443980  26.847   8.979   5.850
 7766POPC   GL143981  26.836   8.997   6.150
 7766POPC   GL243982  26.834   8.881   6.150
 7766POPC   C1A43983  26.812   8.990   6.450
 7766POPC   D2A43984  26.795   9.020   6.750
 7766POPC   C3A43985  26.855   8.936   7.050
 7766POPC   C4A43986  26.790   8.949   7.350
 7766POPC   C1B43987  26.876   8.754   6.450
 7766POPC   C2B43988  26.928   8.778   6.750
 7766POPC   C3B43989  26.869   8.785   7.050
 7766POPC   C4B43990  26.942   8.745   7.350
 7767POPC   NC343991  14.405  19.877   5.550
 7767POPC   PO443992  14.443  19.860   5.850
 7767POPC   GL143993  14.392  19.809   6.150
 7767POPC   GL243994  14.243  19.794   6.150
 7767POPC   C1A43995  14.396  19.881   6.450
 7767POPC   D2A43996  14.379  19.822   6.750
 7767POPC   C3A43997  14.377  19.828   7.050
 7767POPC   C4A43998  14.408  19.821   7.350
 7767POPC   C1B43999  14.143  19.814   6.450
 7767POPC   C2B44000  14.201  19.802   6.750
 7767POPC   C3B44001  14.161  19.880   7.050
 7767POPC   C4B44002  14.197  19.861   7.350
 7768POPC   NC344003  30.658  21.370   5.550
 7768POPC   PO444004  30.746  21.385   5.850
 7768POPC   GL144005  30.686  21.427   6.150
 7768POPC   GL244006  30.715  21.273   6.150
 7768POPC   C1A44007  30.692  21.411   6.450
 7768POPC   D2A44008  30.668  21.354   6.750
 7768POPC   C3A44009  30.733  21.404   7.050
 7768POPC   C4A44010  30.651  21.399   7.350
 7768POPC   C1B44011  30.678  21.089   6.450
 7768POPC   C2B44012  30.677  21.094   6.750
 7768POPC   C3B44013  30.774  21.145   7.050
 7768POPC   C4B44014  30.773  21.091   7.350
 7769POPC   NC344015  15.999  40.757   5.550
 7769POPC   PO444016  15.952  40.756   5.850
 7769POPC   GL144017  15.908  40.783   6.150
 7769POPC   GL244018  15.901  40.866   6.150
 7769POPC   C1A44019  15.912  40.796   6.450
 7769POPC   D2A44020  15.937  40.808   6.750
 7769POPC   C3A44021  15.991  40.790   7.050
 7769POPC   C4A44022  15.907  40.760   7.350
 7769POPC   C1B44023  15.773  40.923   6.450
 7769POPC   C2B44024  15.817  40.943   6.750
 7769POPC   C3B44025  15.776  40.950   7.050
 7769POPC   C4B44026  15.761  40.932   7.350
 7770POPC   NC344027   9.792  37.673   5.550
 7770POPC   PO444028   9.724  37.654   5.850
 7770POPC   GL144029   9.754  37.642   6.150
 7770POPC   GL244030   9.817  37.622   6.150
 7770POPC   C1A44031   9.775  37.636   6.450
 7770POPC   D2A44032   9.746  37.653   6.750
 7770POPC   C3A44033   9.725  37.725   7.050
 7770POPC   C4A44034   9.779  37.643   7.350
 7770POPC   C1B44035   9.916  37.504   6.450
 7770POPC   C2B44036   9.938  37.589   6.750
 7770POPC   C3B44037   9.960  37.568   7.050
 7770POPC   C4B44038   9.937  37.532   7.350
 7771POPC   NC344039  12.119  40.823   5.550
 7771POPC   PO444040  12.079  40.780   5.850
 7771POPC   GL144041  12.100  40.740   6.150
 7771POPC   GL244042  12.225  40.751   6.150
 7771POPC   C1A44043  12.042  40.824   6.450
 7771POPC   D2A44044  12.074  40.802   6.750
 7771POPC   C3A44045  12.047  40.762   7.050
 7771POPC   C4A44046  12.049  40.755   7.350
 7771POPC   C1B44047  12.273  40.621   6.450
 7771POPC   C2B44048  12.309  40.696   6.750
 7771POPC   C3B44049  12.256  40.690   7.050
 7771POPC   C4B44050  12.258  40.645   7.350
 7772POPC   NC344051  39.208  26.006   5.550
 7772POPC   PO444052  39.234  26.001   5.850
 7772POPC   GL144053  39.210  26.026   6.150
 7772POPC   GL244054  39.144  26.057   6.150
 7772POPC   C1A44055  39.255  26.010   6.450
 7772POPC   D2A44056  39.270  26.083   6.750
 7772POPC   C3A44057  39.276  26.049   7.050
 7772POPC   C4A44058  39.218  25.998   7.350
 7772POPC   C1B44059  38.992  25.989   6.450
 7772POPC   C2B44060  39.006  26.045   6.750
 7772POPC   C3B44061  38.985  26.023   7.050
 7772POPC   C4B44062  38.934  26.020   7.350
 7773POPC   NC344063   1.212  14.373   5.550
 7773POPC   PO444064   1.188  14.397   5.850
 7773POPC   GL144065   1.238  14.369   6.150
 7773POPC   GL244066   1.199  14.561   6.150
 7773POPC   C1A44067   1.261  14.421   6.450
 7773POPC   D2A44068   1.208  14.413   6.750
 7773POPC   C3A44069   1.202  14.399   7.050
 7773POPC   C4A44070   1.213  14.380   7.350
 7773POPC   C1B44071   1.051  14.589   6.450
 7773POPC   C2B44072   1.063  14.615   6.750
 7773POPC   C3B44073   1.133  14.577   7.050
 7773POPC   C4B44074   1.076  14.674   7.350
 7774POPC   NC344075  19.804  20.578   5.550
 7774POPC   PO444076  19.856  20.628   5.850
 7774POPC   GL144077  19.836  20.660   6.150
 7774POPC   GL244078  19.795  20.518   6.150
 7774POPC   C1A44079  19.846  20.580   6.450
 7774POPC   D2A44080  19.838  20.654   6.750
 7774POPC   C3A44081  19.818  20.633   7.050
 7774POPC   C4A44082  19.853  20.594   7.350
 7774POPC   C1B44083  19.810  20.336   6.450
 7774POPC   C2B44084  19.745  20.406   6.750
 7774POPC   C3B44085  19.798  20.346   7.050
 7774POPC   C4B44086  19.800  20.408   7.350
 7775POPC   NC344087  40.817  29.116   5.550
 7775POPC   PO444088  40.759  29.158   5.850
 7775POPC   GL144089  40.742  29.169   6.150
 7775POPC   GL244090  40.850  29.041   6.150
 7775POPC   C1A44091  40.825  29.140   6.450
 7775POPC   D2A44092  40.818  29.139   6.750
 7775POPC   C3A44093  40.776  29.164   7.050
 7775POPC   C4A44094  40.767  29.168   7.350
 7775POPC   C1B44095  41.009  29.027   6.450
 7775POPC   C2B44096  41.042  29.021   6.750
 7775POPC   C3B44097  41.034  29.025   7.050
 7775POPC   C4B44098  41.040  29.020   7.350
 7776POPC   NC344099  37.668  29.874   5.550
 7776POPC   PO444100  37.649  29.928   5.850
 7776POPC   GL144101  37.694  29.903   6.150
 7776POPC   GL244102  37.531  29.999   6.150
 7776POPC   C1A44103  37.632  29.947   6.450
 7776POPC   D2A44104  37.678  29.907   6.750
 7776POPC   C3A44105  37.708  29.903   7.050
 7776POPC   C4A44106  37.694  29.899   7.350
 7776POPC   C1B44107  37.478  29.998   6.450
 7776POPC   C2B44108  37.462  29.968   6.750
 7776POPC   C3B44109  37.470  29.950   7.050
 7776POPC   C4B44110  37.487  29.991   7.350
 7777POPC   NC344111  11.318  19.021   5.550
 7777POPC   PO444112  11.330  19.107   5.850
 7777POPC   GL144113  11.269  19.026   6.150
 7777POPC   GL244114  11.276  18.886   6.150
 7777POPC   C1A44115  11.295  19.102   6.450
 7777POPC   D2A44116  11.320  19.094   6.750
 7777POPC   C3A44117  11.251  19.085   7.050
 7777POPC   C4A44118  11.293  19.047   7.350
 7777POPC   C1B44119  11.289  18.847   6.450
 7777POPC   C2B44120  11.279  18.784   6.750
 7777POPC   C3B44121  11.319  18.821   7.050
 7777POPC   C4B44122  11.326  18.820   7.350
 7778POPC   NC344123  32.287  22.968   5.550
 7778POPC   PO444124  32.276  22.896   5.850
 7778POPC   GL144125  32.243  22.890   6.150
 7778POPC   GL244126  32.230  22.824   6.150
 7778POPC   C1A44127  32.283  22.978   6.450
 7778POPC   D2A44128  32.271  22.930   6.750
 7778POPC   C3A44129  32.238  22.966   7.050
 7778POPC   C4A44130  32.204  22.925   7.350
 7778POPC   C1B44131  32.217  22.726   6.450
 7778POPC   C2B44132  32.266  22.688   6.750
 7778POPC   C3B44133  32.246  22.657   7.050
 7778POPC   C4B44134  32.246  22.738   7.350
 7779POPC   NC344135  40.737  36.923   5.550
 7779POPC   PO444136  40.769  36.892   5.850
 7779POPC   GL144137  40.785  36.930   6.150
 7779POPC   GL244138  40.755  36.761   6.150
 7779POPC   C1A44139  40.797  36.926   6.450
 7779POPC   D2A44140  40.766  36.871   6.750
 7779POPC   C3A44141  40.742  36.913   7.050
 7779POPC   C4A44142  40.812  36.855   7.350
 7779POPC   C1B44143  40.815  36.620   6.450
 7779POPC   C2B44144  40.838  36.672   6.750
 7779POPC   C3B44145  40.814  36.657   7.050
 7779POPC   C4B44146  40.821  36.615   7.350
 7780POPC   NC344147   8.937  16.684   5.550
 7780POPC   PO444148   8.939  16.750   5.850
 7780POPC   GL144149   8.958  16.761   6.150
 7780POPC   GL244150   9.021  16.580   6.150
 7780POPC   C1A44151   8.977  16.757   6.450
 7780POPC   D2A44152   8.964  16.709   6.750
 7780POPC   C3A44153   8.976  16.761   7.050
 7780POPC   C4A44154   8.938  16.716   7.350
 7780POPC   C1B44155   8.993  16.466   6.450
 7780POPC   C2B44156   9.082  16.510   6.750
 7780POPC   C3B44157   9.017  16.441   7.050
 7780POPC   C4B44158   9.056  16.520   7.350
 7781POPC   NC344159  10.562  30.682   5.550
 7781POPC   PO444160  10.511  30.740   5.850
 7781POPC   GL144161  10.530  30.707   6.150
 7781POPC   GL244162  10.414  30.704   6.150
 7781POPC   C1A44163  10.571  30.728   6.450
 7781POPC   D2A44164  10.543  30.710   6.750
 7781POPC   C3A44165  10.535  30.653   7.050
 7781POPC   C4A44166  10.531  30.678   7.350
 7781POPC   C1B44167  10.337  30.648   6.450
 7781POPC   C2B44168  10.252  30.613   6.750
 7781POPC   C3B44169  10.301  30.564   7.050
 7781POPC   C4B44170  10.240  30.656   7.350
 7782POPC   NC344171  12.847  40.820   5.550
 7782POPC   PO444172  12.863  40.771   5.850
 7782POPC   GL144173  12.817  40.832   6.150
 7782POPC   GL244174  12.832  40.701   6.150
 7782POPC   C1A44175  12.886  40.745   6.450
 7782POPC   D2A44176  12.862  40.738   6.750
 7782POPC   C3A44177  12.869  40.752   7.050
 7782POPC   C4A44178  12.802  40.831   7.350
 7782POPC   C1B44179  12.828  40.555   6.450
 7782POPC   C2B44180  12.798  40.558   6.750
 7782POPC   C3B44181  12.825  40.554   7.050
 7782POPC   C4B44182  12.788  40.524   7.350
 7783POPC   NC344183  40.748  32.993   5.550
 7783POPC   PO444184  40.799  33.065   5.850
 7783POPC   GL144185  40.812  32.976   6.150
 7783POPC   GL244186  40.613  33.032   6.150
 7783POPC   C1A44187  40.762  33.071   6.450
 7783POPC   D2A44188  40.746  33.002   6.750
 7783POPC   C3A44189  40.817  33.052   7.050
 7783POPC   C4A44190  40.774  33.036   7.350
 7783POPC   C1B44191  40.555  32.986   6.450
 7783POPC   C2B44192  40.498  33.027   6.750
 7783POPC   C3B44193  40.525  33.063   7.050
 7783POPC   C4B44194  40.569  33.013   7.350
 7784POPC   NC344195   8.974  18.295   5.550
 7784POPC   PO444196   8.966  18.265   5.850
 7784POPC   GL144197   8.929  18.280   6.150
 7784POPC   GL244198   8.909  18.254   6.150
 7784POPC   C1A44199   8.984  18.294   6.450
 7784POPC   D2A44200   8.984  18.236   6.750
 7784POPC   C3A44201   8.989  18.233   7.050
 7784POPC   C4A44202   8.989  18.289   7.350
 7784POPC   C1B44203   8.778  18.185   6.450
 7784POPC   C2B44204   8.798  18.143   6.750
 7784POPC   C3B44205   8.757  18.124   7.050
 7784POPC   C4B44206   8.795  18.138   7.350
 7785POPC   NC344207  14.406  36.933   5.550
 7785POPC   PO444208  14.419  36.871   5.850
 7785POPC   GL144209  14.409  36.900   6.150
 7785POPC   GL244210  14.527  36.906   6.150
 7785POPC   C1A44211  14.415  36.901   6.450
 7785POPC   D2A44212  14.377  36.873   6.750
 7785POPC   C3A44213  14.446  36.939   7.050
 7785POPC   C4A44214  14.370  36.904   7.350
 7785POPC   C1B44215  14.632  36.936   6.450
 7785POPC   C2B44216  14.633  36.912   6.750
 7785POPC   C3B44217  14.670  36.983   7.050
 7785POPC   C4B44218  14.668  36.950   7.350
 7786POPC   NC344219  18.317  26.804   5.550
 7786POPC   PO444220  18.314  26.846   5.850
 7786POPC   GL144221  18.266  26.808   6.150
 7786POPC   GL244222  18.195  26.940   6.150
 7786POPC   C1A44223  18.297  26.835   6.450
 7786POPC   D2A44224  18.316  26.841   6.750
 7786POPC   C3A44225  18.326  26.796   7.050
 7786POPC   C4A44226  18.252  26.847   7.350
 7786POPC   C1B44227  18.212  27.072   6.450
 7786POPC   C2B44228  18.167  27.053   6.750
 7786POPC   C3B44229  18.146  27.070   7.050
 7786POPC   C4B44230  18.179  27.036   7.350
 7787POPC   NC344231  10.574  28.410   5.550
 7787POPC   PO444232  10.502  28.381   5.850
 7787POPC   GL144233  10.486  28.399   6.150
 7787POPC   GL244234  10.670  28.379   6.150
 7787POPC   C1A44235  10.557  28.383   6.450
 7787POPC   D2A44236  10.505  28.376   6.750
 7787POPC   C3A44237  10.526  28.392   7.050
 7787POPC   C4A44238  10.522  28.320   7.350
 7787POPC   C1B44239  10.742  28.451   6.450
 7787POPC   C2B44240  10.741  28.485   6.750
 7787POPC   C3B44241  10.811  28.453   7.050
 7787POPC   C4B44242  10.722  28.398   7.350
 7788POPC   NC344243  27.566  15.941   5.550
 7788POPC   PO444244  27.546  15.918   5.850
 7788POPC   GL144245  27.615  15.966   6.150
 7788POPC   GL244246  27.599  16.113   6.150
 7788POPC   C1A44247  27.608  15.973   6.450
 7788POPC   D2A44248  27.599  15.911   6.750
 7788POPC   C3A44249  27.563  15.944   7.050
 7788POPC   C4A44250  27.545  15.960   7.350
 7788POPC   C1B44251  27.467  16.220   6.450
 7788POPC   C2B44252  27.555  16.182   6.750
 7788POPC   C3B44253  27.532  16.197   7.050
 7788POPC   C4B44254  27.499  16.147   7.350
 7789POPC   NC344255  16.707   0.448   5.550
 7789POPC   PO444256  16.770   0.416   5.850
 7789POPC   GL144257  16.728   0.462   6.150
 7789POPC   GL244258  16.701   0.309   6.150
 7789POPC   C1A44259  16.697   0.412   6.450
 7789POPC   D2A44260  16.779   0.470   6.750
 7789POPC   C3A44261  16.697   0.415   7.050
 7789POPC   C4A44262  16.729   0.472   7.350
 7789POPC   C1B44263  16.735   0.152   6.450
 7789POPC   C2B44264  16.702   0.222   6.750
 7789POPC   C3B44265  16.705   0.148   7.050
 7789POPC   C4B44266  16.752   0.171   7.350
 7790POPC   NC344267  33.771   7.461   5.550
 7790POPC   PO444268  33.787   7.439   5.850
 7790POPC   GL144269  33.795   7.372   6.150
 7790POPC   GL244270  33.684   7.502   6.150
 7790POPC   C1A44271  33.815   7.394   6.450
 7790POPC   D2A44272  33.773   7.387   6.750
 7790POPC   C3A44273  33.824   7.464   7.050
 7790POPC   C4A44274  33.753   7.408   7.350
 7790POPC   C1B44275  33.662   7.585   6.450
 7790POPC   C2B44276  33.615   7.631   6.750
 7790POPC   C3B44277  33.594   7.626   7.050
 7790POPC   C4B44278  33.577   7.545   7.350
 7791POPC   NC344279  35.376   5.088   5.550
 7791POPC   PO444280  35.314   5.096   5.850
 7791POPC   GL144281  35.320   5.079   6.150
 7791POPC   GL244282  35.201   5.070   6.150
 7791POPC   C1A44283  35.391   5.114   6.450
 7791POPC   D2A44284  35.312   5.117   6.750
 7791POPC   C3A44285  35.402   5.139   7.050
 7791POPC   C4A44286  35.345   5.043   7.350
 7791POPC   C1B44287  35.100   5.097   6.450
 7791POPC   C2B44288  35.070   5.178   6.750
 7791POPC   C3B44289  35.120   5.169   7.050
 7791POPC   C4B44290  35.120   5.168   7.350
 7792POPC   NC344291   4.282  33.048   5.550
 7792POPC   PO444292   4.343  33.012   5.850
 7792POPC   GL144293   4.323  32.984   6.150
 7792POPC   GL244294   4.294  33.101   6.150
 7792POPC   C1A44295   4.298  32.979   6.450
 7792POPC   D2A44296   4.358  32.987   6.750
 7792POPC   C3A44297   4.358  33.020   7.050
 7792POPC   C4A44298   4.323  33.073   7.350
 7792POPC   C1B44299   4.320  33.287   6.450
 7792POPC   C2B44300   4.264  33.240   6.750
 7792POPC   C3B44301   4.326  33.321   7.050
 7792POPC   C4B44302   4.274  33.259   7.350
 7793POPC   NC344303  43.864  40.765   5.550
 7793POPC   PO444304  43.925  40.810   5.850
 7793POPC   GL144305  43.865  40.734   6.150
 7793POPC   GL244306  43.988  40.859   6.150
 7793POPC   C1A44307  43.914  40.742   6.450
 7793POPC   D2A44308  43.867  40.832   6.750
 7793POPC   C3A44309  43.918  40.815   7.050
 7793POPC   C4A44310  43.878  40.742   7.350
 7793POPC   C1B44311  44.071  40.911   6.450
 7793POPC   C2B44312  44.067  40.902   6.750
 7793POPC   C3B44313  44.117  40.937   7.050
 7793POPC   C4B44314  44.064  40.975   7.350
 7794POPC   NC344315  27.560  33.053   5.550
 7794POPC   PO444316  27.587  33.049   5.850
 7794POPC   GL144317  27.620  33.058   6.150
 7794POPC   GL244318  27.589  33.094   6.150
 7794POPC   C1A44319  27.606  33.009   6.450
 7794POPC   D2A44320  27.589  33.042   6.750
 7794POPC   C3A44321  27.563  33.071   7.050
 7794POPC   C4A44322  27.601  33.029   7.350
 7794POPC   C1B44323  27.503  33.232   6.450
 7794POPC   C2B44324  27.498  33.240   6.750
 7794POPC   C3B44325  27.471  33.283   7.050
 7794POPC   C4B44326  27.494  33.230   7.350
 7795POPC   NC344327  19.863  43.124   5.550
 7795POPC   PO444328  19.831  43.140   5.850
 7795POPC   GL144329  19.785  43.116   6.150
 7795POPC   GL244330  19.769  43.194   6.150
 7795POPC   C1A44331  19.881  43.118   6.450
 7795POPC   D2A44332  19.863  43.151   6.750
 7795POPC   C3A44333  19.821  43.155   7.050
 7795POPC   C4A44334  19.881  43.124   7.350
 7795POPC   C1B44335  19.623  43.241   6.450
 7795POPC   C2B44336  19.586  43.238   6.750
 7795POPC   C3B44337  19.640  43.243   7.050
 7795POPC   C4B44338  19.593  43.286   7.350
 7796POPC   NC344339   4.323  19.831   5.550
 7796POPC   PO444340   4.289  19.876   5.850
 7796POPC   GL144341   4.364  19.863   6.150
 7796POPC   GL244342   4.424  19.713   6.150
 7796POPC   C1A44343   4.327  19.872   6.450
 7796POPC   D2A44344   4.346  19.877   6.750
 7796POPC   C3A44345   4.327  19.818   7.050
 7796POPC   C4A44346   4.363  19.830   7.350
 7796POPC   C1B44347   4.479  19.648   6.450
 7796POPC   C2B44348   4.523  19.662   6.750
 7796POPC   C3B44349   4.501  19.678   7.050
 7796POPC   C4B44350   4.478  19.652   7.350
 7797POPC   NC344351  16.770  10.500   5.550
 7797POPC   PO444352  16.726  10.551   5.850
 7797POPC   GL144353  16.739  10.527   6.150
 7797POPC   GL244354  16.633  10.464   6.150
 7797POPC   C1A44355  16.752  10.544   6.450
 7797POPC   D2A44356  16.748  10.507   6.750
 7797POPC   C3A44357  16.728  10.569   7.050
 7797POPC   C4A44358  16.747  10.507   7.350
 7797POPC   C1B44359  16.488  10.353   6.450
 7797POPC   C2B44360  16.468  10.363   6.750
 7797POPC   C3B44361  16.562  10.437   7.050
 7797POPC   C4B44362  16.540  10.416   7.350
 7798POPC   NC344363  25.296  13.636   5.550
 7798POPC   PO444364  25.233  13.638   5.850
 7798POPC   GL144365  25.306  13.665   6.150
 7798POPC   GL244366  25.189  13.682   6.150
 7798POPC   C1A44367  25.242  13.614   6.450
 7798POPC   D2A44368  25.289  13.635   6.750
 7798POPC   C3A44369  25.244  13.579   7.050
 7798POPC   C4A44370  25.234  13.671   7.350
 7798POPC   C1B44371  25.120  13.789   6.450
 7798POPC   C2B44372  25.132  13.806   6.750
 7798POPC   C3B44373  25.096  13.831   7.050
 7798POPC   C4B44374  25.072  13.787   7.350
 7799POPC   NC344375  36.158   9.788   5.550
 7799POPC   PO444376  36.142   9.714   5.850
 7799POPC   GL144377  36.124   9.750   6.150
 7799POPC   GL244378  36.047   9.819   6.150
 7799POPC   C1A44379  36.080   9.739   6.450
 7799POPC   D2A44380  36.141   9.732   6.750
 7799POPC   C3A44381  36.124   9.792   7.050
 7799POPC   C4A44382  36.127   9.721   7.350
 7799POPC   C1B44383  35.948   9.954   6.450
 7799POPC   C2B44384  35.941   9.927   6.750
 7799POPC   C3B44385  35.899   9.904   7.050
 7799POPC   C4B44386  35.895   9.869   7.350
 7800POPC   NC344387   2.792  41.522   5.550
 7800POPC   PO444388   2.726  41.605   5.850
 7800POPC   GL144389   2.813  41.591   6.150
 7800POPC   GL244390   2.848  41.551   6.150
 7800POPC   C1A44391   2.730  41.592   6.450
 7800POPC   D2A44392   2.802  41.584   6.750
 7800POPC   C3A44393   2.806  41.582   7.050
 7800POPC   C4A44394   2.815  41.538   7.350
 7800POPC   C1B44395   3.037  41.499   6.450
 7800POPC   C2B44396   3.020  41.434   6.750
 7800POPC   C3B44397   2.998  41.493   7.050
 7800POPC   C4B44398   3.009  41.452   7.350
 7801POPC   NC344399   2.815  44.653   5.550
 7801POPC   PO444400   2.776  44.665   5.850
 7801POPC   GL144401   2.803  44.639   6.150
 7801POPC   GL244402   2.894  44.632   6.150
 7801POPC   C1A44403   2.751  44.688   6.450
 7801POPC   D2A44404   2.780  44.688   6.750
 7801POPC   C3A44405   2.752  44.639   7.050
 7801POPC   C4A44406   2.756  44.680   7.350
 7801POPC   C1B44407   3.008  44.625   6.450
 7801POPC   C2B44408   3.048  44.625   6.750
 7801POPC   C3B44409   2.974  44.667   7.050
 7801POPC   C4B44410   2.976  44.621   7.350
 7802POPC   NC344411  25.225  22.146   5.550
 7802POPC   PO444412  25.255  22.181   5.850
 7802POPC   GL144413  25.299  22.128   6.150
 7802POPC   GL244414  25.157  22.118   6.150
 7802POPC   C1A44415  25.218  22.121   6.450
 7802POPC   D2A44416  25.258  22.126   6.750
 7802POPC   C3A44417  25.251  22.200   7.050
 7802POPC   C4A44418  25.277  22.114   7.350
 7802POPC   C1B44419  25.068  21.958   6.450
 7802POPC   C2B44420  25.141  21.989   6.750
 7802POPC   C3B44421  25.059  22.007   7.050
 7802POPC   C4B44422  25.053  22.015   7.350
 7803POPC   NC344423  34.578  29.153   5.550
 7803POPC   PO444424  34.594  29.128   5.850
 7803POPC   GL144425  34.566  29.143   6.150
 7803POPC   GL244426  34.651  29.214   6.150
 7803POPC   C1A44427  34.551  29.172   6.450
 7803POPC   D2A44428  34.534  29.124   6.750
 7803POPC   C3A44429  34.563  29.189   7.050
 7803POPC   C4A44430  34.581  29.129   7.350
 7803POPC   C1B44431  34.831  29.257   6.450
 7803POPC   C2B44432  34.767  29.193   6.750
 7803POPC   C3B44433  34.818  29.268   7.050
 7803POPC   C4B44434  34.794  29.211   7.350
 7804POPC   NC344435   4.280  33.792   5.550
 7804POPC   PO444436   4.305  33.797   5.850
 7804POPC   GL144437   4.272  33.840   6.150
 7804POPC   GL244438   4.177  33.723   6.150
 7804POPC   C1A44439   4.304  33.830   6.450
 7804POPC   D2A44440   4.273  33.839   6.750
 7804POPC   C3A44441   4.329  33.821   7.050
 7804POPC   C4A44442   4.301  33.785   7.350
 7804POPC   C1B44443   4.119  33.704   6.450
 7804POPC   C2B44444   4.071  33.720   6.750
 7804POPC   C3B44445   4.048  33.744   7.050
 7804POPC   C4B44446   4.050  33.707   7.350
 7805POPC   NC344447   6.652  11.302   5.550
 7805POPC   PO444448   6.687  11.279   5.850
 7805POPC   GL144449   6.634  11.282   6.150
 7805POPC   GL244450   6.605  11.388   6.150
 7805POPC   C1A44451   6.607  11.318   6.450
 7805POPC   D2A44452   6.640  11.314   6.750
 7805POPC   C3A44453   6.651  11.336   7.050
 7805POPC   C4A44454   6.620  11.329   7.350
 7805POPC   C1B44455   6.598  11.569   6.450
 7805POPC   C2B44456   6.528  11.514   6.750
 7805POPC   C3B44457   6.596  11.511   7.050
 7805POPC   C4B44458   6.621  11.503   7.350
 7806POPC   NC344459  33.011  20.640   5.550
 7806POPC   PO444460  33.073  20.579   5.850
 7806POPC   GL144461  33.046  20.589   6.150
 7806POPC   GL244462  32.998  20.731   6.150
 7806POPC   C1A44463  33.001  20.596   6.450
 7806POPC   D2A44464  33.062  20.582   6.750
 7806POPC   C3A44465  32.997  20.569   7.050
 7806POPC   C4A44466  32.977  20.660   7.350
 7806POPC   C1B44467  32.871  20.866   6.450
 7806POPC   C2B44468  32.863  20.823   6.750
 7806POPC   C3B44469  32.907  20.850   7.050
 7806POPC   C4B44470  32.920  20.826   7.350
 7807POPC   NC344471  40.781  22.920   5.550
 7807POPC   PO444472  40.781  22.954   5.850
 7807POPC   GL144473  40.741  22.929   6.150
 7807POPC   GL244474  40.804  23.085   6.150
 7807POPC   C1A44475  40.741  22.956   6.450
 7807POPC   D2A44476  40.809  22.923   6.750
 7807POPC   C3A44477  40.737  22.938   7.050
 7807POPC   C4A44478  40.772  22.946   7.350
 7807POPC   C1B44479  40.873  23.222   6.450
 7807POPC   C2B44480  40.872  23.186   6.750
 7807POPC   C3B44481  40.902  23.181   7.050
 7807POPC   C4B44482  40.909  23.125   7.350
 7808POPC   NC344483   9.747  30.681   5.550
 7808POPC   PO444484   9.726  30.679   5.850
 7808POPC   GL144485   9.705  30.725   6.150
 7808POPC   GL244486   9.908  30.686   6.150
 7808POPC   C1A44487   9.761  30.658   6.450
 7808POPC   D2A44488   9.767  30.696   6.750
 7808POPC   C3A44489   9.764  30.702   7.050
 7808POPC   C4A44490   9.790  30.653   7.350
 7808POPC   C1B44491   9.952  30.739   6.450
 7808POPC   C2B44492   9.981  30.735   6.750
 7808POPC   C3B44493   9.975  30.729   7.050
 7808POPC   C4B44494  10.002  30.761   7.350
 7809POPC   NC344495  16.703   1.196   5.550
 7809POPC   PO444496  16.694   1.243   5.850
 7809POPC   GL144497  16.693   1.262   6.150
 7809POPC   GL244498  16.618   1.190   6.150
 7809POPC   C1A44499  16.770   1.174   6.450
 7809POPC   D2A44500  16.682   1.181   6.750
 7809POPC   C3A44501  16.719   1.215   7.050
 7809POPC   C4A44502  16.728   1.175   7.350
 7809POPC   C1B44503  16.517   1.069   6.450
 7809POPC   C2B44504  16.532   1.103   6.750
 7809POPC   C3B44505  16.470   1.081   7.050
 7809POPC   C4B44506  16.474   1.062   7.350
 7810POPC   NC344507  31.444  26.863   5.550
 7810POPC   PO444508  31.427  26.809   5.850
 7810POPC   GL144509  31.469  26.809   6.150
 7810POPC   GL244510  31.616  26.769   6.150
 7810POPC   C1A44511  31.440  26.822   6.450
 7810POPC   D2A44512  31.444  26.772   6.750
 7810POPC   C3A44513  31.453  26.846   7.050
 7810POPC   C4A44514  31.426  26.842   7.350
 7810POPC   C1B44515  31.739  26.690   6.450
 7810POPC   C2B44516  31.712  26.694   6.750
 7810POPC   C3B44517  31.692  26.696   7.050
 7810POPC   C4B44518  31.745  26.715   7.350
 7811POPC   NC344519  29.166  26.071   5.550
 7811POPC   PO444520  29.126  26.081   5.850
 7811POPC   GL144521  29.116  26.054   6.150
 7811POPC   GL244522  29.295  25.957   6.150
 7811POPC   C1A44523  29.164  26.006   6.450
 7811POPC   D2A44524  29.172  26.041   6.750
 7811POPC   C3A44525  29.154  26.054   7.050
 7811POPC   C4A44526  29.171  26.027   7.350
 7811POPC   C1B44527  29.334  25.893   6.450
 7811POPC   C2B44528  29.375  25.927   6.750
 7811POPC   C3B44529  29.339  25.936   7.050
 7811POPC   C4B44530  29.309  25.883   7.350
 7812POPC   NC344531  11.350  18.249   5.550
 7812POPC   PO444532  11.348  18.286   5.850
 7812POPC   GL144533  11.283  18.260   6.150
 7812POPC   GL244534  11.390  18.364   6.150
 7812POPC   C1A44535  11.288  18.266   6.450
 7812POPC   D2A44536  11.271  18.236   6.750
 7812POPC   C3A44537  11.327  18.291   7.050
 7812POPC   C4A44538  11.279  18.234   7.350
 7812POPC   C1B44539  11.534  18.415   6.450
 7812POPC   C2B44540  11.511  18.362   6.750
 7812POPC   C3B44541  11.551  18.411   7.050
 7812POPC   C4B44542  11.535  18.379   7.350
 7813POPC   NC344543  11.279  26.851   5.550
 7813POPC   PO444544  11.341  26.815   5.850
 7813POPC   GL144545  11.266  26.781   6.150
 7813POPC   GL244546  11.133  26.887   6.150
 7813POPC   C1A44547  11.322  26.832   6.450
 7813POPC   D2A44548  11.295  26.818   6.750
 7813POPC   C3A44549  11.334  26.792   7.050
 7813POPC   C4A44550  11.319  26.826   7.350
 7813POPC   C1B44551  11.044  26.915   6.450
 7813POPC   C2B44552  11.086  26.860   6.750
 7813POPC   C3B44553  11.092  26.908   7.050
 7813POPC   C4B44554  11.055  26.878   7.350
 7814POPC   NC344555  36.127  33.759   5.550
 7814POPC   PO444556  36.150  33.801   5.850
 7814POPC   GL144557  36.104  33.801   6.150
 7814POPC   GL244558  36.061  33.858   6.150
 7814POPC   C1A44559  36.171  33.838   6.450
 7814POPC   D2A44560  36.121  33.756   6.750
 7814POPC   C3A44561  36.163  33.824   7.050
 7814POPC   C4A44562  36.129  33.811   7.350
 7814POPC   C1B44563  35.960  33.916   6.450
 7814POPC   C2B44564  35.907  33.935   6.750
 7814POPC   C3B44565  35.906  34.001   7.050
 7814POPC   C4B44566  35.953  33.941   7.350
 7815POPC   NC344567  18.328  25.307   5.550
 7815POPC   PO444568  18.257  25.231   5.850
 7815POPC   GL144569  18.283  25.304   6.150
 7815POPC   GL244570  18.399  25.269   6.150
 7815POPC   C1A44571  18.286  25.243   6.450
 7815POPC   D2A44572  18.310  25.265   6.750
 7815POPC   C3A44573  18.331  25.216   7.050
 7815POPC   C4A44574  18.308  25.233   7.350
 7815POPC   C1B44575  18.507  25.361   6.450
 7815POPC   C2B44576  18.485  25.378   6.750
 7815POPC   C3B44577  18.514  25.329   7.050
 7815POPC   C4B44578  18.525  25.403   7.350
 7816POPC   NC344579  28.322   5.819   5.550
 7816POPC   PO444580  28.357   5.827   5.850
 7816POPC   GL144581  28.345   5.864   6.150
 7816POPC   GL244582  28.445   5.903   6.150
 7816POPC   C1A44583  28.369   5.894   6.450
 7816POPC   D2A44584  28.418   5.843   6.750
 7816POPC   C3A44585  28.356   5.832   7.050
 7816POPC   C4A44586  28.384   5.860   7.350
 7816POPC   C1B44587  28.579   6.040   6.450
 7816POPC   C2B44588  28.565   5.967   6.750
 7816POPC   C3B44589  28.580   6.036   7.050
 7816POPC   C4B44590  28.594   5.966   7.350
 7817POPC   NC344591  38.495  10.534   5.550
 7817POPC   PO444592  38.437  10.543   5.850
 7817POPC   GL144593  38.460  10.562   6.150
 7817POPC   GL244594  38.330  10.477   6.150
 7817POPC   C1A44595  38.499  10.482   6.450
 7817POPC   D2A44596  38.417  10.518   6.750
 7817POPC   C3A44597  38.461  10.558   7.050
 7817POPC   C4A44598  38.406  10.504   7.350
 7817POPC   C1B44599  38.234  10.384   6.450
 7817POPC   C2B44600  38.263  10.453   6.750
 7817POPC   C3B44601  38.214  10.396   7.050
 7817POPC   C4B44602  38.235  10.443   7.350
 7818POPC   NC344603  32.234  32.998   5.550
 7818POPC   PO444604  32.228  33.066   5.850
 7818POPC   GL144605  32.242  33.052   6.150
 7818POPC   GL244606  32.148  32.992   6.150
 7818POPC   C1A44607  32.205  33.058   6.450
 7818POPC   D2A44608  32.200  33.038   6.750
 7818POPC   C3A44609  32.278  33.052   7.050
 7818POPC   C4A44610  32.286  33.031   7.350
 7818POPC   C1B44611  32.066  32.846   6.450
 7818POPC   C2B44612  32.066  32.899   6.750
 7818POPC   C3B44613  32.066  32.902   7.050
 7818POPC   C4B44614  32.056  32.899   7.350
 7819POPC   NC344615  11.348  17.457   5.550
 7819POPC   PO444616  11.291  17.463   5.850
 7819POPC   GL144617  11.262  17.529   6.150
 7819POPC   GL244618  11.388  17.617   6.150
 7819POPC   C1A44619  11.288  17.485   6.450
 7819POPC   D2A44620  11.341  17.509   6.750
 7819POPC   C3A44621  11.257  17.526   7.050
 7819POPC   C4A44622  11.312  17.535   7.350
 7819POPC   C1B44623  11.431  17.739   6.450
 7819POPC   C2B44624  11.438  17.723   6.750
 7819POPC   C3B44625  11.459  17.687   7.050
 7819POPC   C4B44626  11.468  17.721   7.350
 7820POPC   NC344627  24.446  19.106   5.550
 7820POPC   PO444628  24.513  19.023   5.850
 7820POPC   GL144629  24.537  19.027   6.150
 7820POPC   GL244630  24.643  19.159   6.150
 7820POPC   C1A44631  24.512  19.028   6.450
 7820POPC   D2A44632  24.452  19.011   6.750
 7820POPC   C3A44633  24.531  19.089   7.050
 7820POPC   C4A44634  24.461  19.077   7.350
 7820POPC   C1B44635  24.740  19.163   6.450
 7820POPC   C2B44636  24.670  19.177   6.750
 7820POPC   C3B44637  24.689  19.153   7.050
 7820POPC   C4B44638  24.719  19.198   7.350
 7821POPC   NC344639  22.210  44.685   5.550
 7821POPC   PO444640  22.119  44.639   5.850
 7821POPC   GL144641  22.201  44.705   6.150
 7821POPC   GL244642  22.116  44.506   6.150
 7821POPC   C1A44643  22.126  44.630   6.450
 7821POPC   D2A44644  22.201  44.661   6.750
 7821POPC   C3A44645  22.133  44.699   7.050
 7821POPC   C4A44646  22.175  44.621   7.350
 7821POPC   C1B44647  22.075  44.409   6.450
 7821POPC   C2B44648  22.046  44.459   6.750
 7821POPC   C3B44649  22.087  44.468   7.050
 7821POPC   C4B44650  22.109  44.451   7.350
 7822POPC   NC344651   4.322   4.312   5.550
 7822POPC   PO444652   4.283   4.366   5.850
 7822POPC   GL144653   4.272   4.352   6.150
 7822POPC   GL244654   4.313   4.393   6.150
 7822POPC   C1A44655   4.353   4.349   6.450
 7822POPC   D2A44656   4.316   4.291   6.750
 7822POPC   C3A44657   4.344   4.352   7.050
 7822POPC   C4A44658   4.288   4.277   7.350
 7822POPC   C1B44659   4.361   4.603   6.450
 7822POPC   C2B44660   4.316   4.548   6.750
 7822POPC   C3B44661   4.309   4.564   7.050
 7822POPC   C4B44662   4.309   4.600   7.350
 7823POPC   NC344663  15.179  14.408   5.550
 7823POPC   PO444664  15.211  14.413   5.850
 7823POPC   GL144665  15.186  14.432   6.150
 7823POPC   GL244666  15.286  14.537   6.150
 7823POPC   C1A44667  15.157  14.430   6.450
 7823POPC   D2A44668  15.135  14.382   6.750
 7823POPC   C3A44669  15.218  14.367   7.050
 7823POPC   C4A44670  15.221  14.409   7.350
 7823POPC   C1B44671  15.369  14.577   6.450
 7823POPC   C2B44672  15.331  14.578   6.750
 7823POPC   C3B44673  15.346  14.633   7.050
 7823POPC   C4B44674  15.309  14.602   7.350
 7824POPC   NC344675  31.442   1.247   5.550
 7824POPC   PO444676  31.492   1.257   5.850
 7824POPC   GL144677  31.458   1.222   6.150
 7824POPC   GL244678  31.559   1.109   6.150
 7824POPC   C1A44679  31.467   1.218   6.450
 7824POPC   D2A44680  31.428   1.214   6.750
 7824POPC   C3A44681  31.440   1.254   7.050
 7824POPC   C4A44682  31.514   1.247   7.350
 7824POPC   C1B44683  31.655   1.093   6.450
 7824POPC   C2B44684  31.685   1.119   6.750
 7824POPC   C3B44685  31.667   1.058   7.050
 7824POPC   C4B44686  31.698   1.071   7.350
 7825POPC   NC344687  31.428  10.484   5.550
 7825POPC   PO444688  31.514  10.498   5.850
 7825POPC   GL144689  31.513  10.497   6.150
 7825POPC   GL244690  31.327  10.419   6.150
 7825POPC   C1A44691  31.507  10.502   6.450
 7825POPC   D2A44692  31.496  10.546   6.750
 7825POPC   C3A44693  31.463  10.512   7.050
 7825POPC   C4A44694  31.433  10.485   7.350
 7825POPC   C1B44695  31.270  10.413   6.450
 7825POPC   C2B44696  31.256  10.439   6.750
 7825POPC   C3B44697  31.237  10.408   7.050
 7825POPC   C4B44698  31.300  10.378   7.350
 7826POPC   NC344699   6.674  12.055   5.550
 7826POPC   PO444700   6.612  12.056   5.850
 7826POPC   GL144701   6.619  12.103   6.150
 7826POPC   GL244702   6.492  12.081   6.150
 7826POPC   C1A44703   6.676  12.081   6.450
 7826POPC   D2A44704   6.671  12.029   6.750
 7826POPC   C3A44705   6.690  12.060   7.050
 7826POPC   C4A44706   6.670  12.031   7.350
 7826POPC   C1B44707   6.411  12.149   6.450
 7826POPC   C2B44708   6.402  12.157   6.750
 7826POPC   C3B44709   6.398  12.121   7.050
 7826POPC   C4B44710   6.373  12.135   7.350
 7827POPC   NC344711  29.099   7.432   5.550
 7827POPC   PO444712  29.173   7.437   5.850
 7827POPC   GL144713  29.106   7.403   6.150
 7827POPC   GL244714  29.028   7.452   6.150
 7827POPC   C1A44715  29.136   7.446   6.450
 7827POPC   D2A44716  29.188   7.387   6.750
 7827POPC   C3A44717  29.184   7.463   7.050
 7827POPC   C4A44718  29.164   7.465   7.350
 7827POPC   C1B44719  28.924   7.523   6.450
 7827POPC   C2B44720  28.977   7.527   6.750
 7827POPC   C3B44721  28.944   7.557   7.050
 7827POPC   C4B44722  28.913   7.557   7.350
 7828POPC   NC344723  35.387  18.254   5.550
 7828POPC   PO444724  35.370  18.331   5.850
 7828POPC   GL144725  35.374  18.315   6.150
 7828POPC   GL244726  35.284  18.427   6.150
 7828POPC   C1A44727  35.387  18.309   6.450
 7828POPC   D2A44728  35.388  18.281   6.750
 7828POPC   C3A44729  35.359  18.238   7.050
 7828POPC   C4A44730  35.398  18.311   7.350
 7828POPC   C1B44731  35.268  18.488   6.450
 7828POPC   C2B44732  35.220  18.494   6.750
 7828POPC   C3B44733  35.202  18.544   7.050
 7828POPC   C4B44734  35.271  18.484   7.350
 7829POPC   NC344735  26.049   6.620   5.550
 7829POPC   PO444736  26.066   6.617   5.850
 7829POPC   GL144737  26.081   6.658   6.150
 7829POPC   GL244738  26.051   6.720   6.150
 7829POPC   C1A44739  26.031   6.641   6.450
 7829POPC   D2A44740  26.025   6.677   6.750
 7829POPC   C3A44741  26.003   6.644   7.050
 7829POPC   C4A44742  26.090   6.681   7.350
 7829POPC   C1B44743  26.203   6.819   6.450
 7829POPC   C2B44744  26.163   6.860   6.750
 7829POPC   C3B44745  26.164   6.838   7.050
 7829POPC   C4B44746  26.152   6.870   7.350
 7830POPC   NC344747  19.879  42.338   5.550
 7830POPC   PO444748  19.863  42.351   5.850
 7830POPC   GL144749  19.832  42.359   6.150
 7830POPC   GL244750  19.750  42.372   6.150
 7830POPC   C1A44751  19.796  42.335   6.450
 7830POPC   D2A44752  19.856  42.313   6.750
 7830POPC   C3A44753  19.822  42.349   7.050
 7830POPC   C4A44754  19.870  42.373   7.350
 7830POPC   C1B44755  19.604  42.424   6.450
 7830POPC   C2B44756  19.623  42.437   6.750
 7830POPC   C3B44757  19.619  42.390   7.050
 7830POPC   C4B44758  19.589  42.431   7.350
 7831POPC   NC344759  38.491  33.837   5.550
 7831POPC   PO444760  38.426  33.769   5.850
 7831POPC   GL144761  38.407  33.754   6.150
 7831POPC   GL244762  38.578  33.858   6.150
 7831POPC   C1A44763  38.485  33.756   6.450
 7831POPC   D2A44764  38.467  33.774   6.750
 7831POPC   C3A44765  38.408  33.761   7.050
 7831POPC   C4A44766  38.487  33.840   7.350
 7831POPC   C1B44767  38.610  33.995   6.450
 7831POPC   C2B44768  38.674  33.958   6.750
 7831POPC   C3B44769  38.660  33.924   7.050
 7831POPC   C4B44770  38.686  33.985   7.350
 7832POPC   NC344771  38.443  22.916   5.550
 7832POPC   PO444772  38.449  22.893   5.850
 7832POPC   GL144773  38.423  22.928   6.150
 7832POPC   GL244774  38.536  22.791   6.150
 7832POPC   C1A44775  38.501  22.979   6.450
 7832POPC   D2A44776  38.496  22.942   6.750
 7832POPC   C3A44777  38.501  22.967   7.050
 7832POPC   C4A44778  38.468  22.921   7.350
 7832POPC   C1B44779  38.601  22.753   6.450
 7832POPC   C2B44780  38.554  22.712   6.750
 7832POPC   C3B44781  38.612  22.693   7.050
 7832POPC   C4B44782  38.550  22.683   7.350
 7833POPC   NC344783   2.769   7.394   5.550
 7833POPC   PO444784   2.738   7.373   5.850
 7833POPC   GL144785   2.737   7.458   6.150
 7833POPC   GL244786   2.833   7.312   6.150
 7833POPC   C1A44787   2.764   7.462   6.450
 7833POPC   D2A44788   2.815   7.411   6.750
 7833POPC   C3A44789   2.722   7.384   7.050
 7833POPC   C4A44790   2.783   7.423   7.350
 7833POPC   C1B44791   2.959   7.237   6.450
 7833POPC   C2B44792   2.897   7.260   6.750
 7833POPC   C3B44793   2.943   7.234   7.050
 7833POPC   C4B44794   2.894   7.249   7.350
 7834POPC   NC344795  27.627  34.535   5.550
 7834POPC   PO444796  27.546  34.541   5.850
 7834POPC   GL144797  27.587  34.545   6.150
 7834POPC   GL244798  27.671  34.734   6.150
 7834POPC   C1A44799  27.637  34.619   6.450
 7834POPC   D2A44800  27.613  34.608   6.750
 7834POPC   C3A44801  27.563  34.534   7.050
 7834POPC   C4A44802  27.635  34.605   7.350
 7834POPC   C1B44803  27.676  34.836   6.450
 7834POPC   C2B44804  27.700  34.864   6.750
 7834POPC   C3B44805  27.699  34.803   7.050
 7834POPC   C4B44806  27.639  34.841   7.350
 7835POPC   NC344807  12.126  37.652   5.550
 7835POPC   PO444808  12.044  37.664   5.850
 7835POPC   GL144809  12.070  37.724   6.150
 7835POPC   GL244810  12.024  37.583   6.150
 7835POPC   C1A44811  12.045  37.645   6.450
 7835POPC   D2A44812  12.038  37.715   6.750
 7835POPC   C3A44813  12.102  37.705   7.050
 7835POPC   C4A44814  12.059  37.649   7.350
 7835POPC   C1B44815  11.969  37.404   6.450
 7835POPC   C2B44816  11.976  37.411   6.750
 7835POPC   C3B44817  11.983  37.393   7.050
 7835POPC   C4B44818  12.032  37.400   7.350
 7836POPC   NC344819  41.515  38.487   5.550
 7836POPC   PO444820  41.531  38.461   5.850
 7836POPC   GL144821  41.604  38.418   6.150
 7836POPC   GL244822  41.501  38.495   6.150
 7836POPC   C1A44823  41.517  38.433   6.450
 7836POPC   D2A44824  41.573  38.459   6.750
 7836POPC   C3A44825  41.532  38.425   7.050
 7836POPC   C4A44826  41.591  38.502   7.350
 7836POPC   C1B44827  41.331  38.658   6.450
 7836POPC   C2B44828  41.408  38.622   6.750
 7836POPC   C3B44829  41.385  38.664   7.050
 7836POPC   C4B44830  41.386  38.609   7.350
 7837POPC   NC344831  35.339  19.082   5.550
 7837POPC   PO444832  35.308  19.060   5.850
 7837POPC   GL144833  35.314  19.039   6.150
 7837POPC   GL244834  35.441  19.157   6.150
 7837POPC   C1A44835  35.392  19.086   6.450
 7837POPC   D2A44836  35.392  19.070   6.750
 7837POPC   C3A44837  35.377  19.057   7.050
 7837POPC   C4A44838  35.345  19.071   7.350
 7837POPC   C1B44839  35.476  19.290   6.450
 7837POPC   C2B44840  35.560  19.203   6.750
 7837POPC   C3B44841  35.520  19.195   7.050
 7837POPC   C4B44842  35.539  19.193   7.350
 7838POPC   NC344843   8.237   5.089   5.550
 7838POPC   PO444844   8.225   5.074   5.850
 7838POPC   GL144845   8.211   5.051   6.150
 7838POPC   GL244846   8.157   4.971   6.150
 7838POPC   C1A44847   8.217   5.110   6.450
 7838POPC   D2A44848   8.190   5.125   6.750
 7838POPC   C3A44849   8.168   5.044   7.050
 7838POPC   C4A44850   8.152   5.089   7.350
 7838POPC   C1B44851   7.995   4.892   6.450
 7838POPC   C2B44852   7.984   4.947   6.750
 7838POPC   C3B44853   7.983   4.934   7.050
 7838POPC   C4B44854   8.015   4.912   7.350
 7839POPC   NC344855  15.201  33.066   5.550
 7839POPC   PO444856  15.149  33.007   5.850
 7839POPC   GL144857  15.206  32.988   6.150
 7839POPC   GL244858  15.047  33.140   6.150
 7839POPC   C1A44859  15.150  33.053   6.450
 7839POPC   D2A44860  15.221  32.990   6.750
 7839POPC   C3A44861  15.138  33.015   7.050
 7839POPC   C4A44862  15.168  33.071   7.350
 7839POPC   C1B44863  14.948  33.169   6.450
 7839POPC   C2B44864  14.971  33.192   6.750
 7839POPC   C3B44865  15.042  33.193   7.050
 7839POPC   C4B44866  15.031  33.201   7.350
 7840POPC   NC344867  12.882  15.991   5.550
 7840POPC   PO444868  12.872  15.949   5.850
 7840POPC   GL144869  12.832  15.910   6.150
 7840POPC   GL244870  12.851  15.810   6.150
 7840POPC   C1A44871  12.895  15.931   6.450
 7840POPC   D2A44872  12.806  15.907   6.750
 7840POPC   C3A44873  12.898  15.926   7.050
 7840POPC   C4A44874  12.857  15.908   7.350
 7840POPC   C1B44875  12.810  15.702   6.450
 7840POPC   C2B44876  12.806  15.697   6.750
 7840POPC   C3B44877  12.869  15.677   7.050
 7840POPC   C4B44878  12.846  15.678   7.350
 7841POPC   NC344879  30.647  32.202   5.550
 7841POPC   PO444880  30.699  32.220   5.850
 7841POPC   GL144881  30.669  32.219   6.150
 7841POPC   GL244882  30.613  32.205   6.150
 7841POPC   C1A44883  30.709  32.244   6.450
 7841POPC   D2A44884  30.709  32.232   6.750
 7841POPC   C3A44885  30.697  32.260   7.050
 7841POPC   C4A44886  30.685  32.223   7.350
 7841POPC   C1B44887  30.445  32.207   6.450
 7841POPC   C2B44888  30.465  32.265   6.750
 7841POPC   C3B44889  30.490  32.227   7.050
 7841POPC   C4B44890  30.495  32.275   7.350
 7842POPC   NC344891  29.177   5.101   5.550
 7842POPC   PO444892  29.161   5.121   5.850
 7842POPC   GL144893  29.180   5.055   6.150
 7842POPC   GL244894  29.045   5.009   6.150
 7842POPC   C1A44895  29.096   5.122   6.450
 7842POPC   D2A44896  29.104   5.050   6.750
 7842POPC   C3A44897  29.142   5.049   7.050
 7842POPC   C4A44898  29.118   5.129   7.350
 7842POPC   C1B44899  29.016   4.837   6.450
 7842POPC   C2B44900  29.005   4.857   6.750
 7842POPC   C3B44901  28.977   4.873   7.050
 7842POPC   C4B44902  29.001   4.849   7.350
 7843POPC   NC344903   1.246   7.407   5.550
 7843POPC   PO444904   1.176   7.416   5.850
 7843POPC   GL144905   1.196   7.402   6.150
 7843POPC   GL244906   1.167   7.499   6.150
 7843POPC   C1A44907   1.220   7.420   6.450
 7843POPC   D2A44908   1.219   7.443   6.750
 7843POPC   C3A44909   1.208   7.386   7.050
 7843POPC   C4A44910   1.224   7.468   7.350
 7843POPC   C1B44911   1.100   7.643   6.450
 7843POPC   C2B44912   1.066   7.597   6.750
 7843POPC   C3B44913   1.060   7.647   7.050
 7843POPC   C4B44914   1.027   7.640   7.350
 7844POPC   NC344915  26.832  29.114   5.550
 7844POPC   PO444916  26.854  29.181   5.850
 7844POPC   GL144917  26.822  29.171   6.150
 7844POPC   GL244918  26.850  28.990   6.150
 7844POPC   C1A44919  26.846  29.140   6.450
 7844POPC   D2A44920  26.797  29.192   6.750
 7844POPC   C3A44921  26.835  29.188   7.050
 7844POPC   C4A44922  26.861  29.158   7.350
 7844POPC   C1B44923  26.976  28.887   6.450
 7844POPC   C2B44924  26.898  28.880   6.750
 7844POPC   C3B44925  26.988  28.962   7.050
 7844POPC   C4B44926  26.893  28.951   7.350
 7845POPC   NC344927  32.287   9.790   5.550
 7845POPC   PO444928  32.203   9.712   5.850
 7845POPC   GL144929  32.204   9.709   6.150
 7845POPC   GL244930  32.175   9.660   6.150
 7845POPC   C1A44931  32.218   9.716   6.450
 7845POPC   D2A44932  32.289   9.748   6.750
 7845POPC   C3A44933  32.259   9.707   7.050
 7845POPC   C4A44934  32.276   9.705   7.350
 7845POPC   C1B44935  32.039   9.632   6.450
 7845POPC   C2B44936  32.016   9.620   6.750
 7845POPC   C3B44937  32.073   9.563   7.050
 7845POPC   C4B44938  32.029   9.568   7.350
 7846POPC   NC344939  34.562  17.512   5.550
 7846POPC   PO444940  34.623  17.517   5.850
 7846POPC   GL144941  34.626  17.550   6.150
 7846POPC   GL244942  34.602  17.653   6.150
 7846POPC   C1A44943  34.617  17.499   6.450
 7846POPC   D2A44944  34.574  17.544   6.750
 7846POPC   C3A44945  34.601  17.480   7.050
 7846POPC   C4A44946  34.609  17.494   7.350
 7846POPC   C1B44947  34.715  17.735   6.450
 7846POPC   C2B44948  34.720  17.700   6.750
 7846POPC   C3B44949  34.728  17.677   7.050
 7846POPC   C4B44950  34.647  17.721   7.350
 7847POPC   NC344951   5.139  33.751   5.550
 7847POPC   PO444952   5.097  33.770   5.850
 7847POPC   GL144953   5.106  33.834   6.150
 7847POPC   GL244954   5.014  33.851   6.150
 7847POPC   C1A44955   5.087  33.763   6.450
 7847POPC   D2A44956   5.088  33.779   6.750
 7847POPC   C3A44957   5.133  33.797   7.050
 7847POPC   C4A44958   5.141  33.817   7.350
 7847POPC   C1B44959   4.972  34.033   6.450
 7847POPC   C2B44960   4.935  33.957   6.750
 7847POPC   C3B44961   4.918  33.946   7.050
 7847POPC   C4B44962   4.976  33.987   7.350
 7848POPC   NC344963  19.860  25.993   5.550
 7848POPC   PO444964  19.835  26.078   5.850
 7848POPC   GL144965  19.854  26.053   6.150
 7848POPC   GL244966  19.823  26.127   6.150
 7848POPC   C1A44967  19.832  26.010   6.450
 7848POPC   D2A44968  19.794  26.034   6.750
 7848POPC   C3A44969  19.809  26.059   7.050
 7848POPC   C4A44970  19.864  26.088   7.350
 7848POPC   C1B44971  19.736  26.302   6.450
 7848POPC   C2B44972  19.741  26.259   6.750
 7848POPC   C3B44973  19.738  26.235   7.050
 7848POPC   C4B44974  19.675  26.272   7.350
 7849POPC   NC344975  29.936  19.086   5.550
 7849POPC   PO444976  29.877  19.020   5.850
 7849POPC   GL144977  29.910  19.082   6.150
 7849POPC   GL244978  29.964  19.004   6.150
 7849POPC   C1A44979  29.879  19.056   6.450
 7849POPC   D2A44980  29.909  19.038   6.750
 7849POPC   C3A44981  29.928  19.073   7.050
 7849POPC   C4A44982  29.940  19.105   7.350
 7849POPC   C1B44983  30.035  18.861   6.450
 7849POPC   C2B44984  30.111  18.857   6.750
 7849POPC   C3B44985  30.037  18.820   7.050
 7849POPC   C4B44986  30.102  18.865   7.350
 7850POPC   NC344987  19.027  26.050   5.550
 7850POPC   PO444988  19.107  26.009   5.850
 7850POPC   GL144989  19.043  26.009   6.150
 7850POPC   GL244990  19.120  26.213   6.150
 7850POPC   C1A44991  19.096  26.029   6.450
 7850POPC   D2A44992  19.016  25.994   6.750
 7850POPC   C3A44993  19.051  26.056   7.050
 7850POPC   C4A44994  19.079  26.034   7.350
 7850POPC   C1B44995  19.087  26.261   6.450
 7850POPC   C2B44996  19.039  26.257   6.750
 7850POPC   C3B44997  19.093  26.286   7.050
 7850POPC   C4B44998  19.131  26.273   7.350
 7851POPC   NC344999  13.638  35.395   5.550
 7851POPC   PO445000  13.626  35.309   5.850
 7851POPC   GL145001  13.677  35.337   6.150
 7851POPC   GL245002  13.508  35.316   6.150
 7851POPC   C1A45003  13.615  35.337   6.450
 7851POPC   D2A45004  13.631  35.318   6.750
 7851POPC   C3A45005  13.652  35.333   7.050
 7851POPC   C4A45006  13.633  35.383   7.350
 7851POPC   C1B45007  13.404  35.285   6.450
 7851POPC   C2B45008  13.366  35.262   6.750
 7851POPC   C3B45009  13.400  35.311   7.050
 7851POPC   C4B45010  13.423  35.263   7.350
 7852POPC   NC345011  27.547  43.113   5.550
 7852POPC   PO445012  27.570  43.148   5.850
 7852POPC   GL145013  27.545  43.122   6.150
 7852POPC   GL245014  27.581  42.956   6.150
 7852POPC   C1A45015  27.595  43.079   6.450
 7852POPC   D2A45016  27.556  43.107   6.750
 7852POPC   C3A45017  27.556  43.111   7.050
 7852POPC   C4A45018  27.546  43.145   7.350
 7852POPC   C1B45019  27.508  42.883   6.450
 7852POPC   C2B45020  27.498  42.899   6.750
 7852POPC   C3B45021  27.491  42.912   7.050
 7852POPC   C4B45022  27.499  42.863   7.350
 7853POPC   NC345023  23.756  23.740   5.550
 7853POPC   PO445024  23.714  23.758   5.850
 7853POPC   GL145025  23.753  23.728   6.150
 7853POPC   GL245026  23.599  23.676   6.150
 7853POPC   C1A45027  23.749  23.718   6.450
 7853POPC   D2A45028  23.702  23.752   6.750
 7853POPC   C3A45029  23.699  23.705   7.050
 7853POPC   C4A45030  23.705  23.679   7.350
 7853POPC   C1B45031  23.491  23.605   6.450
 7853POPC   C2B45032  23.465  23.527   6.750
 7853POPC   C3B45033  23.463  23.523   7.050
 7853POPC   C4B45034  23.505  23.579   7.350
 7854POPC   NC345035  29.914   9.707   5.550
 7854POPC   PO445036  29.965   9.776   5.850
 7854POPC   GL145037  29.969   9.737   6.150
 7854POPC   GL245038  30.032   9.700   6.150
 7854POPC   C1A45039  29.877   9.702   6.450
 7854POPC   D2A45040  29.947   9.758   6.750
 7854POPC   C3A45041  29.943   9.709   7.050
 7854POPC   C4A45042  29.937   9.726   7.350
 7854POPC   C1B45043  30.131   9.733   6.450
 7854POPC   C2B45044  30.192   9.646   6.750
 7854POPC   C3B45045  30.126   9.701   7.050
 7854POPC   C4B45046  30.165   9.710   7.350
 7855POPC   NC345047   6.610  35.386   5.550
 7855POPC   PO445048   6.687  35.349   5.850
 7855POPC   GL145049   6.677  35.361   6.150
 7855POPC   GL245050   6.641  35.222   6.150
 7855POPC   C1A45051   6.629  35.402   6.450
 7855POPC   D2A45052   6.678  35.347   6.750
 7855POPC   C3A45053   6.670  35.366   7.050
 7855POPC   C4A45054   6.637  35.302   7.350
 7855POPC   C1B45055   6.593  35.096   6.450
 7855POPC   C2B45056   6.562  35.077   6.750
 7855POPC   C3B45057   6.559  35.087   7.050
 7855POPC   C4B45058   6.585  35.079   7.350
 7856POPC   NC345059  23.706  31.508   5.550
 7856POPC   PO445060  23.737  31.465   5.850
 7856POPC   GL145061  23.716  31.434   6.150
 7856POPC   GL245062  23.661  31.560   6.150
 7856POPC   C1A45063  23.693  31.487   6.450
 7856POPC   D2A45064  23.762  31.519   6.750
 7856POPC   C3A45065  23.737  31.457   7.050
 7856POPC   C4A45066  23.734  31.508   7.350
 7856POPC   C1B45067  23.617  31.717   6.450
 7856POPC   C2B45068  23.596  31.684   6.750
 7856POPC   C3B45069  23.641  31.720   7.050
 7856POPC   C4B45070  23.576  31.656   7.350
 7857POPC   NC345071   4.352  15.906   5.550
 7857POPC   PO445072   4.291  15.926   5.850
 7857POPC   GL145073   4.287  15.944   6.150
 7857POPC   GL245074   4.272  16.037   6.150
 7857POPC   C1A45075   4.339  15.985   6.450
 7857POPC   D2A45076   4.312  16.001   6.750
 7857POPC   C3A45077   4.275  15.972   7.050
 7857POPC   C4A45078   4.333  15.995   7.350
 7857POPC   C1B45079   4.151  16.198   6.450
 7857POPC   C2B45080   4.174  16.192   6.750
 7857POPC   C3B45081   4.207  16.153   7.050
 7857POPC   C4B45082   4.192  16.218   7.350
 7858POPC   NC345083  12.896   2.734   5.550
 7858POPC   PO445084  12.806   2.802   5.850
 7858POPC   GL145085  12.823   2.761   6.150
 7858POPC   GL245086  12.750   2.901   6.150
 7858POPC   C1A45087  12.864   2.807   6.450
 7858POPC   D2A45088  12.843   2.759   6.750
 7858POPC   C3A45089  12.860   2.746   7.050
 7858POPC   C4A45090  12.852   2.749   7.350
 7858POPC   C1B45091  12.707   2.970   6.450
 7858POPC   C2B45092  12.650   2.921   6.750
 7858POPC   C3B45093  12.717   2.924   7.050
 7858POPC   C4B45094  12.666   2.992   7.350
 7859POPC   NC345095  12.120  30.700   5.550
 7859POPC   PO445096  12.027  30.666   5.850
 7859POPC   GL145097  12.106  30.697   6.150
 7859POPC   GL245098  11.985  30.557   6.150
 7859POPC   C1A45099  12.031  30.709   6.450
 7859POPC   D2A45100  12.051  30.676   6.750
 7859POPC   C3A45101  12.036  30.705   7.050
 7859POPC   C4A45102  12.125  30.739   7.350
 7859POPC   C1B45103  11.980  30.498   6.450
 7859POPC   C2B45104  11.988  30.446   6.750
 7859POPC   C3B45105  11.912  30.449   7.050
 7859POPC   C4B45106  11.969  30.443   7.350
 7860POPC   NC345107  32.985  28.394   5.550
 7860POPC   PO445108  33.037  28.328   5.850
 7860POPC   GL145109  33.033  28.329   6.150
 7860POPC   GL245110  32.958  28.288   6.150
 7860POPC   C1A45111  33.036  28.399   6.450
 7860POPC   D2A45112  32.977  28.363   6.750
 7860POPC   C3A45113  33.045  28.338   7.050
 7860POPC   C4A45114  33.050  28.403   7.350
 7860POPC   C1B45115  32.849  28.126   6.450
 7860POPC   C2B45116  32.914  28.174   6.750
 7860POPC   C3B45117  32.899  28.197   7.050
 7860POPC   C4B45118  32.903  28.178   7.350
 7861POPC   NC345119   7.421   5.120   5.550
 7861POPC   PO445120   7.436   5.106   5.850
 7861POPC   GL145121   7.380   5.122   6.150
 7861POPC   GL245122   7.564   5.067   6.150
 7861POPC   C1A45123   7.426   5.058   6.450
 7861POPC   D2A45124   7.421   5.137   6.750
 7861POPC   C3A45125   7.413   5.085   7.050
 7861POPC   C4A45126   7.438   5.044   7.350
 7861POPC   C1B45127   7.717   5.107   6.450
 7861POPC   C2B45128   7.708   5.079   6.750
 7861POPC   C3B45129   7.659   5.109   7.050
 7861POPC   C4B45130   7.645   5.123   7.350
 7862POPC   NC345131  20.565  35.358   5.550
 7862POPC   PO445132  20.595  35.379   5.850
 7862POPC   GL145133  20.651  35.392   6.150
 7862POPC   GL245134  20.669  35.262   6.150
 7862POPC   C1A45135  20.621  35.363   6.450
 7862POPC   D2A45136  20.600  35.366   6.750
 7862POPC   C3A45137  20.599  35.353   7.050
 7862POPC   C4A45138  20.650  35.387   7.350
 7862POPC   C1B45139  20.777  35.164   6.450
 7862POPC   C2B45140  20.758  35.192   6.750
 7862POPC   C3B45141  20.764  35.183   7.050
 7862POPC   C4B45142  20.761  35.104   7.350
 7863POPC   NC345143  42.308  39.240   5.550
 7863POPC   PO445144  42.342  39.197   5.850
 7863POPC   GL145145  42.312  39.220   6.150
 7863POPC   GL245146  42.282  39.073   6.150
 7863POPC   C1A45147  42.332  39.222   6.450
 7863POPC   D2A45148  42.293  39.184   6.750
 7863POPC   C3A45149  42.358  39.230   7.050
 7863POPC   C4A45150  42.343  39.207   7.350
 7863POPC   C1B45151  42.298  39.020   6.450
 7863POPC   C2B45152  42.325  38.946   6.750
 7863POPC   C3B45153  42.324  38.948   7.050
 7863POPC   C4B45154  42.315  38.995   7.350
 7864POPC   NC345155  21.388  37.642   5.550
 7864POPC   PO445156  21.355  37.636   5.850
 7864POPC   GL145157  21.383  37.715   6.150
 7864POPC   GL245158  21.361  37.623   6.150
 7864POPC   C1A45159  21.397  37.661   6.450
 7864POPC   D2A45160  21.390  37.639   6.750
 7864POPC   C3A45161  21.415  37.717   7.050
 7864POPC   C4A45162  21.365  37.639   7.350
 7864POPC   C1B45163  21.247  37.444   6.450
 7864POPC   C2B45164  21.262  37.431   6.750
 7864POPC   C3B45165  21.296  37.440   7.050
 7864POPC   C4B45166  21.289  37.434   7.350
 7865POPC   NC345167  44.694  42.299   5.550
 7865POPC   PO445168  44.661  42.302   5.850
 7865POPC   GL145169  44.656  42.373   6.150
 7865POPC   GL245170  44.571  42.350   6.150
 7865POPC   C1A45171  44.644  42.349   6.450
 7865POPC   D2A45172  44.664  42.348   6.750
 7865POPC   C3A45173  44.635  42.345   7.050
 7865POPC   C4A45174  44.678  42.324   7.350
 7865POPC   C1B45175  44.370  42.324   6.450
 7865POPC   C2B45176  44.449  42.350   6.750
 7865POPC   C3B45177  44.370  42.346   7.050
 7865POPC   C4B45178  44.458  42.292   7.350
 7866POPC   NC345179  12.124  26.055   5.550
 7866POPC   PO445180  12.028  26.015   5.850
 7866POPC   GL145181  12.039  25.991   6.150
 7866POPC   GL245182  12.055  26.152   6.150
 7866POPC   C1A45183  12.065  26.055   6.450
 7866POPC   D2A45184  12.118  26.029   6.750
 7866POPC   C3A45185  12.123  26.014   7.050
 7866POPC   C4A45186  12.073  26.037   7.350
 7866POPC   C1B45187  11.946  26.283   6.450
 7866POPC   C2B45188  11.989  26.300   6.750
 7866POPC   C3B45189  11.936  26.222   7.050
 7866POPC   C4B45190  11.952  26.224   7.350
 7867POPC   NC345191  43.151   9.718   5.550
 7867POPC   PO445192  43.142   9.777   5.850
 7867POPC   GL145193  43.069   9.756   6.150
 7867POPC   GL245194  43.051   9.841   6.150
 7867POPC   C1A45195  43.071   9.769   6.450
 7867POPC   D2A45196  43.109   9.797   6.750
 7867POPC   C3A45197  43.061   9.721   7.050
 7867POPC   C4A45198  43.088   9.738   7.350
 7867POPC   C1B45199  42.941   9.875   6.450
 7867POPC   C2B45200  42.901   9.968   6.750
 7867POPC   C3B45201  42.915   9.907   7.050
 7867POPC   C4B45202  42.899   9.916   7.350
 7868POPC   NC345203  19.862  32.232   5.550
 7868POPC   PO445204  19.845  32.267   5.850
 7868POPC   GL145205  19.819  32.265   6.150
 7868POPC   GL245206  19.746  32.121   6.150
 7868POPC   C1A45207  19.798  32.228   6.450
 7868POPC   D2A45208  19.873  32.234   6.750
 7868POPC   C3A45209  19.805  32.292   7.050
 7868POPC   C4A45210  19.809  32.220   7.350
 7868POPC   C1B45211  19.682  32.120   6.450
 7868POPC   C2B45212  19.689  32.105   6.750
 7868POPC   C3B45213  19.618  32.048   7.050
 7868POPC   C4B45214  19.662  32.079   7.350
 7869POPC   NC345215  23.734  12.810   5.550
 7869POPC   PO445216  23.740  12.873   5.850
 7869POPC   GL145217  23.762  12.877   6.150
 7869POPC   GL245218  23.696  12.724   6.150
 7869POPC   C1A45219  23.719  12.882   6.450
 7869POPC   D2A45220  23.725  12.888   6.750
 7869POPC   C3A45221  23.726  12.884   7.050
 7869POPC   C4A45222  23.684  12.894   7.350
 7869POPC   C1B45223  23.611  12.646   6.450
 7869POPC   C2B45224  23.579  12.582   6.750
 7869POPC   C3B45225  23.633  12.600   7.050
 7869POPC   C4B45226  23.611  12.615   7.350
 7870POPC   NC345227  19.863  30.736   5.550
 7870POPC   PO445228  19.786  30.680   5.850
 7870POPC   GL145229  19.837  30.648   6.150
 7870POPC   GL245230  19.998  30.713   6.150
 7870POPC   C1A45231  19.856  30.742   6.450
 7870POPC   D2A45232  19.824  30.732   6.750
 7870POPC   C3A45233  19.796  30.734   7.050
 7870POPC   C4A45234  19.813  30.692   7.350
 7870POPC   C1B45235  20.087  30.730   6.450
 7870POPC   C2B45236  20.050  30.798   6.750
 7870POPC   C3B45237  20.074  30.779   7.050
 7870POPC   C4B45238  20.112  30.754   7.350
 7871POPC   NC345239  30.673  10.479   5.550
 7871POPC   PO445240  30.670  10.556   5.850
 7871POPC   GL145241  30.698  10.496   6.150
 7871POPC   GL245242  30.810  10.487   6.150
 7871POPC   C1A45243  30.697  10.519   6.450
 7871POPC   D2A45244  30.694  10.562   6.750
 7871POPC   C3A45245  30.728  10.562   7.050
 7871POPC   C4A45246  30.740  10.544   7.350
 7871POPC   C1B45247  30.949  10.412   6.450
 7871POPC   C2B45248  30.930  10.378   6.750
 7871POPC   C3B45249  30.921  10.427   7.050
 7871POPC   C4B45250  30.938  10.400   7.350
 7872POPC   NC345251  38.479   6.658   5.550
 7872POPC   PO445252  38.447   6.660   5.850
 7872POPC   GL145253  38.417   6.641   6.150
 7872POPC   GL245254  38.341   6.555   6.150
 7872POPC   C1A45255  38.453   6.604   6.450
 7872POPC   D2A45256  38.487   6.640   6.750
 7872POPC   C3A45257  38.500   6.681   7.050
 7872POPC   C4A45258  38.500   6.630   7.350
 7872POPC   C1B45259  38.209   6.514   6.450
 7872POPC   C2B45260  38.183   6.518   6.750
 7872POPC   C3B45261  38.220   6.510   7.050
 7872POPC   C4B45262  38.233   6.559   7.350
 7873POPC   NC345263  43.904   4.290   5.550
 7873POPC   PO445264  43.864   4.279   5.850
 7873POPC   GL145265  43.866   4.304   6.150
 7873POPC   GL245266  43.735   4.257   6.150
 7873POPC   C1A45267  43.895   4.305   6.450
 7873POPC   D2A45268  43.899   4.331   6.750
 7873POPC   C3A45269  43.923   4.294   7.050
 7873POPC   C4A45270  43.886   4.323   7.350
 7873POPC   C1B45271  43.601   4.269   6.450
 7873POPC   C2B45272  43.643   4.253   6.750
 7873POPC   C3B45273  43.611   4.273   7.050
 7873POPC   C4B45274  43.635   4.234   7.350
 7874POPC   NC345275  22.941   0.426   5.550
 7874POPC   PO445276  22.924   0.480   5.850
 7874POPC   GL145277  22.926   0.440   6.150
 7874POPC   GL245278  22.856   0.509   6.150
 7874POPC   C1A45279  22.948   0.413   6.450
 7874POPC   D2A45280  22.903   0.448   6.750
 7874POPC   C3A45281  22.917   0.397   7.050
 7874POPC   C4A45282  22.914   0.427   7.350
 7874POPC   C1B45283  22.843   0.654   6.450
 7874POPC   C2B45284  22.803   0.686   6.750
 7874POPC   C3B45285  22.813   0.647   7.050
 7874POPC   C4B45286  22.820   0.624   7.350
 7875POPC   NC345287  23.723  35.367   5.550
 7875POPC   PO445288  23.679  35.355   5.850
 7875POPC   GL145289  23.685  35.330   6.150
 7875POPC   GL245290  23.749  35.410   6.150
 7875POPC   C1A45291  23.755  35.394   6.450
 7875POPC   D2A45292  23.714  35.304   6.750
 7875POPC   C3A45293  23.713  35.377   7.050
 7875POPC   C4A45294  23.742  35.332   7.350
 7875POPC   C1B45295  23.893  35.551   6.450
 7875POPC   C2B45296  23.845  35.550   6.750
 7875POPC   C3B45297  23.804  35.597   7.050
 7875POPC   C4B45298  23.801  35.606   7.350
 7876POPC   NC345299  12.893  36.934   5.550
 7876POPC   PO445300  12.829  36.916   5.850
 7876POPC   GL145301  12.851  36.868   6.150
 7876POPC   GL245302  12.951  36.971   6.150
 7876POPC   C1A45303  12.831  36.887   6.450
 7876POPC   D2A45304  12.803  36.883   6.750
 7876POPC   C3A45305  12.817  36.907   7.050
 7876POPC   C4A45306  12.886  36.894   7.350
 7876POPC   C1B45307  13.076  37.076   6.450
 7876POPC   C2B45308  13.057  37.091   6.750
 7876POPC   C3B45309  13.061  37.106   7.050
 7876POPC   C4B45310  13.058  37.060   7.350
 7877POPC   NC345311  36.939   5.052   5.550
 7877POPC   PO445312  36.935   5.127   5.850
 7877POPC   GL145313  36.859   5.044   6.150
 7877POPC   GL245314  36.809   5.088   6.150
 7877POPC   C1A45315  36.862   5.090   6.450
 7877POPC   D2A45316  36.910   5.044   6.750
 7877POPC   C3A45317  36.916   5.062   7.050
 7877POPC   C4A45318  36.944   5.053   7.350
 7877POPC   C1B45319  36.687   5.067   6.450
 7877POPC   C2B45320  36.613   5.090   6.750
 7877POPC   C3B45321  36.646   5.067   7.050
 7877POPC   C4B45322  36.692   5.060   7.350
 7878POPC   NC345323  21.387  33.030   5.550
 7878POPC   PO445324  21.420  33.041   5.850
 7878POPC   GL145325  21.396  33.021   6.150
 7878POPC   GL245326  21.291  32.907   6.150
 7878POPC   C1A45327  21.392  33.028   6.450
 7878POPC   D2A45328  21.427  33.024   6.750
 7878POPC   C3A45329  21.396  33.070   7.050
 7878POPC   C4A45330  21.403  32.998   7.350
 7878POPC   C1B45331  21.230  32.867   6.450
 7878POPC   C2B45332  21.176  32.884   6.750
 7878POPC   C3B45333  21.141  32.866   7.050
 7878POPC   C4B45334  21.139  32.881   7.350
 7879POPC   NC345335  38.453  25.291   5.550
 7879POPC   PO445336  38.501  25.271   5.850
 7879POPC   GL145337  38.418  25.224   6.150
 7879POPC   GL245338  38.540  25.205   6.150
 7879POPC   C1A45339  38.465  25.310   6.450
 7879POPC   D2A45340  38.500  25.311   6.750
 7879POPC   C3A45341  38.446  25.243   7.050
 7879POPC   C4A45342  38.451  25.224   7.350
 7879POPC   C1B45343  38.663  25.106   6.450
 7879POPC   C2B45344  38.590  25.089   6.750
 7879POPC   C3B45345  38.627  25.032   7.050
 7879POPC   C4B45346  38.616  25.038   7.350
 7880POPC   NC345347  15.182   2.746   5.550
 7880POPC   PO445348  15.181   2.724   5.850
 7880POPC   GL145349  15.167   2.757   6.150
 7880POPC   GL245350  15.109   2.690   6.150
 7880POPC   C1A45351  15.180   2.731   6.450
 7880POPC   D2A45352  15.229   2.733   6.750
 7880POPC   C3A45353  15.131   2.784   7.050
 7880POPC   C4A45354  15.216   2.749   7.350
 7880POPC   C1B45355  15.044   2.499   6.450
 7880POPC   C2B45356  15.066   2.526   6.750
 7880POPC   C3B45357  15.099   2.547   7.050
 7880POPC   C4B45358  15.110   2.542   7.350
 7881POPC   NC345359   8.995  19.067   5.550
 7881POPC   PO445360   8.975  19.109   5.850
 7881POPC   GL145361   8.983  19.096   6.150
 7881POPC   GL245362   8.817  19.048   6.150
 7881POPC   C1A45363   9.018  19.029   6.450
 7881POPC   D2A45364   9.010  19.078   6.750
 7881POPC   C3A45365   8.958  19.061   7.050
 7881POPC   C4A45366   8.951  19.040   7.350
 7881POPC   C1B45367   8.764  18.923   6.450
 7881POPC   C2B45368   8.756  18.986   6.750
 7881POPC   C3B45369   8.731  18.956   7.050
 7881POPC   C4B45370   8.734  18.997   7.350
 7882POPC   NC345371  42.318   0.414   5.550
 7882POPC   PO445372  42.365   0.420   5.850
 7882POPC   GL145373  42.311   0.393   6.150
 7882POPC   GL245374  42.232   0.487   6.150
 7882POPC   C1A45375  42.349   0.402   6.450
 7882POPC   D2A45376  42.344   0.393   6.750
 7882POPC   C3A45377  42.339   0.433   7.050
 7882POPC   C4A45378  42.337   0.464   7.350
 7882POPC   C1B45379  42.117   0.456   6.450
 7882POPC   C2B45380  42.059   0.425   6.750
 7882POPC   C3B45381  42.090   0.467   7.050
 7882POPC   C4B45382  42.075   0.436   7.350
 7883POPC   NC345383  15.140  34.558   5.550
 7883POPC   PO445384  15.218  34.598   5.850
 7883POPC   GL145385  15.146  34.565   6.150
 7883POPC   GL245386  15.179  34.695   6.150
 7883POPC   C1A45387  15.151  34.530   6.450
 7883POPC   D2A45388  15.220  34.588   6.750
 7883POPC   C3A45389  15.171  34.550   7.050
 7883POPC   C4A45390  15.181  34.545   7.350
 7883POPC   C1B45391  15.080  34.860   6.450
 7883POPC   C2B45392  15.150  34.856   6.750
 7883POPC   C3B45393  15.149  34.789   7.050
 7883POPC   C4B45394  15.103  34.817   7.350
 7884POPC   NC345395  41.568  12.884   5.550
 7884POPC   PO445396  41.570  12.869   5.850
 7884POPC   GL145397  41.566  12.810   6.150
 7884POPC   GL245398  41.459  12.722   6.150
 7884POPC   C1A45399  41.603  12.881   6.450
 7884POPC   D2A45400  41.529  12.888   6.750
 7884POPC   C3A45401  41.511  12.868   7.050
 7884POPC   C4A45402  41.546  12.891   7.350
 7884POPC   C1B45403  41.382  12.698   6.450
 7884POPC   C2B45404  41.351  12.649   6.750
 7884POPC   C3B45405  41.358  12.673   7.050
 7884POPC   C4B45406  41.385  12.654   7.350
 7885POPC   NC345407  39.252  14.385   5.550
 7885POPC   PO445408  39.221  14.416   5.850
 7885POPC   GL145409  39.184  14.410   6.150
 7885POPC   GL245410  39.143  14.461   6.150
 7885POPC   C1A45411  39.206  14.444   6.450
 7885POPC   D2A45412  39.268  14.375   6.750
 7885POPC   C3A45413  39.187  14.425   7.050
 7885POPC   C4A45414  39.216  14.354   7.350
 7885POPC   C1B45415  38.982  14.542   6.450
 7885POPC   C2B45416  39.005  14.529   6.750
 7885POPC   C3B45417  39.000  14.529   7.050
 7885POPC   C4B45418  39.035  14.545   7.350
 7886POPC   NC345419  12.833  19.068   5.550
 7886POPC   PO445420  12.811  19.101   5.850
 7886POPC   GL145421  12.876  19.058   6.150
 7886POPC   GL245422  12.685  19.028   6.150
 7886POPC   C1A45423  12.846  19.081   6.450
 7886POPC   D2A45424  12.805  19.041   6.750
 7886POPC   C3A45425  12.869  19.042   7.050
 7886POPC   C4A45426  12.884  19.064   7.350
 7886POPC   C1B45427  12.573  19.085   6.450
 7886POPC   C2B45428  12.609  19.001   6.750
 7886POPC   C3B45429  12.585  19.072   7.050
 7886POPC   C4B45430  12.620  18.996   7.350
 7887POPC   NC345431  12.059  22.918   5.550
 7887POPC   PO445432  12.039  22.976   5.850
 7887POPC   GL145433  12.107  22.956   6.150
 7887POPC   GL245434  12.080  22.789   6.150
 7887POPC   C1A45435  12.107  22.951   6.450
 7887POPC   D2A45436  12.028  22.917   6.750
 7887POPC   C3A45437  12.065  22.977   7.050
 7887POPC   C4A45438  12.077  22.948   7.350
 7887POPC   C1B45439  12.161  22.695   6.450
 7887POPC   C2B45440  12.126  22.701   6.750
 7887POPC   C3B45441  12.153  22.693   7.050
 7887POPC   C4B45442  12.205  22.690   7.350
 7888POPC   NC345443   6.600  25.228   5.550
 7888POPC   PO445444   6.631  25.246   5.850
 7888POPC   GL145445   6.677  25.253   6.150
 7888POPC   GL245446   6.628  25.105   6.150
 7888POPC   C1A45447   6.643  25.287   6.450
 7888POPC   D2A45448   6.629  25.257   6.750
 7888POPC   C3A45449   6.625  25.265   7.050
 7888POPC   C4A45450   6.614  25.299   7.350
 7888POPC   C1B45451   6.542  25.001   6.450
 7888POPC   C2B45452   6.616  25.032   6.750
 7888POPC   C3B45453   6.633  24.985   7.050
 7888POPC   C4B45454   6.583  25.039   7.350
 7889POPC   NC345455  16.756   5.054   5.550
 7889POPC   PO445456  16.761   5.098   5.850
 7889POPC   GL145457  16.682   5.063   6.150
 7889POPC   GL245458  16.839   5.008   6.150
 7889POPC   C1A45459  16.742   5.093   6.450
 7889POPC   D2A45460  16.716   5.084   6.750
 7889POPC   C3A45461  16.715   5.085   7.050
 7889POPC   C4A45462  16.765   5.085   7.350
 7889POPC   C1B45463  16.910   4.975   6.450
 7889POPC   C2B45464  16.963   4.960   6.750
 7889POPC   C3B45465  16.905   4.918   7.050
 7889POPC   C4B45466  16.984   4.925   7.350
 7890POPC   NC345467  19.053  40.808   5.550
 7890POPC   PO445468  19.038  40.791   5.850
 7890POPC   GL145469  19.102  40.746   6.150
 7890POPC   GL245470  19.171  40.643   6.150
 7890POPC   C1A45471  19.039  40.795   6.450
 7890POPC   D2A45472  19.107  40.788   6.750
 7890POPC   C3A45473  19.022  40.780   7.050
 7890POPC   C4A45474  19.038  40.807   7.350
 7890POPC   C1B45475  19.203  40.567   6.450
 7890POPC   C2B45476  19.214  40.537   6.750
 7890POPC   C3B45477  19.247  40.584   7.050
 7890POPC   C4B45478  19.256  40.575   7.350
 7891POPC   NC345479  12.040   6.645   5.550
 7891POPC   PO445480  12.099   6.641   5.850
 7891POPC   GL145481  12.056   6.651   6.150
 7891POPC   GL245482  12.250   6.597   6.150
 7891POPC   C1A45483  12.033   6.640   6.450
 7891POPC   D2A45484  12.091   6.648   6.750
 7891POPC   C3A45485  12.054   6.649   7.050
 7891POPC   C4A45486  12.069   6.667   7.350
 7891POPC   C1B45487  12.350   6.676   6.450
 7891POPC   C2B45488  12.277   6.641   6.750
 7891POPC   C3B45489  12.325   6.638   7.050
 7891POPC   C4B45490  12.309   6.646   7.350
 7892POPC   NC345491  32.264  42.384   5.550
 7892POPC   PO445492  32.260  42.311   5.850
 7892POPC   GL145493  32.234  42.383   6.150
 7892POPC   GL245494  32.230  42.471   6.150
 7892POPC   C1A45495  32.282  42.297   6.450
 7892POPC   D2A45496  32.232  42.363   6.750
 7892POPC   C3A45497  32.259  42.337   7.050
 7892POPC   C4A45498  32.232  42.310   7.350
 7892POPC   C1B45499  32.261  42.618   6.450
 7892POPC   C2B45500  32.352  42.532   6.750
 7892POPC   C3B45501  32.328  42.531   7.050
 7892POPC   C4B45502  32.322  42.615   7.350
 7893POPC   NC345503  15.227  12.818   5.550
 7893POPC   PO445504  15.210  12.859   5.850
 7893POPC   GL145505  15.152  12.864   6.150
 7893POPC   GL245506  15.101  12.790   6.150
 7893POPC   C1A45507  15.156  12.822   6.450
 7893POPC   D2A45508  15.134  12.821   6.750
 7893POPC   C3A45509  15.208  12.854   7.050
 7893POPC   C4A45510  15.223  12.802   7.350
 7893POPC   C1B45511  15.035  12.705   6.450
 7893POPC   C2B45512  15.027  12.704   6.750
 7893POPC   C3B45513  15.022  12.670   7.050
 7893POPC   C4B45514  14.968  12.724   7.350
 7894POPC   NC345515  29.932  20.632   5.550
 7894POPC   PO445516  29.907  20.584   5.850
 7894POPC   GL145517  29.883  20.631   6.150
 7894POPC   GL245518  30.016  20.696   6.150
 7894POPC   C1A45519  29.910  20.621   6.450
 7894POPC   D2A45520  29.877  20.634   6.750
 7894POPC   C3A45521  29.937  20.576   7.050
 7894POPC   C4A45522  29.877  20.562   7.350
 7894POPC   C1B45523  30.063  20.813   6.450
 7894POPC   C2B45524  30.059  20.822   6.750
 7894POPC   C3B45525  29.998  20.806   7.050
 7894POPC   C4B45526  30.037  20.859   7.350
 7895POPC   NC345527  30.677  29.139   5.550
 7895POPC   PO445528  30.731  29.190   5.850
 7895POPC   GL145529  30.687  29.144   6.150
 7895POPC   GL245530  30.606  29.072   6.150
 7895POPC   C1A45531  30.737  29.111   6.450
 7895POPC   D2A45532  30.719  29.161   6.750
 7895POPC   C3A45533  30.738  29.128   7.050
 7895POPC   C4A45534  30.669  29.118   7.350
 7895POPC   C1B45535  30.628  28.959   6.450
 7895POPC   C2B45536  30.587  28.961   6.750
 7895POPC   C3B45537  30.633  28.922   7.050
 7895POPC   C4B45538  30.550  28.917   7.350
 7896POPC   NC345539  41.541  21.416   5.550
 7896POPC   PO445540  41.533  21.424   5.850
 7896POPC   GL145541  41.556  21.370   6.150
 7896POPC   GL245542  41.456  21.446   6.150
 7896POPC   C1A45543  41.552  21.420   6.450
 7896POPC   D2A45544  41.591  21.417   6.750
 7896POPC   C3A45545  41.516  21.380   7.050
 7896POPC   C4A45546  41.570  21.403   7.350
 7896POPC   C1B45547  41.360  21.565   6.450
 7896POPC   C2B45548  41.342  21.533   6.750
 7896POPC   C3B45549  41.332  21.547   7.050
 7896POPC   C4B45550  41.385  21.487   7.350
 7897POPC   NC345551  41.536  43.081   5.550
 7897POPC   PO445552  41.509  43.112   5.850
 7897POPC   GL145553  41.513  43.157   6.150
 7897POPC   GL245554  41.428  43.237   6.150
 7897POPC   C1A45555  41.594  43.125   6.450
 7897POPC   D2A45556  41.593  43.139   6.750
 7897POPC   C3A45557  41.518  43.137   7.050
 7897POPC   C4A45558  41.575  43.110   7.350
 7897POPC   C1B45559  41.355  43.318   6.450
 7897POPC   C2B45560  41.378  43.291   6.750
 7897POPC   C3B45561  41.426  43.279   7.050
 7897POPC   C4B45562  41.368  43.277   7.350
 7898POPC   NC345563  26.081   2.806   5.550
 7898POPC   PO445564  26.004   2.795   5.850
 7898POPC   GL145565  26.054   2.743   6.150
 7898POPC   GL245566  26.094   2.882   6.150
 7898POPC   C1A45567  26.069   2.791   6.450
 7898POPC   D2A45568  26.010   2.799   6.750
 7898POPC   C3A45569  26.051   2.747   7.050
 7898POPC   C4A45570  26.039   2.762   7.350
 7898POPC   C1B45571  26.108   2.984   6.450
 7898POPC   C2B45572  26.121   2.956   6.750
 7898POPC   C3B45573  26.107   3.025   7.050
 7898POPC   C4B45574  26.135   3.003   7.350
 7899POPC   NC345575  31.458  40.780   5.550
 7899POPC   PO445576  31.477  40.763   5.850
 7899POPC   GL145577  31.476  40.815   6.150
 7899POPC   GL245578  31.512  40.680   6.150
 7899POPC   C1A45579  31.496  40.760   6.450
 7899POPC   D2A45580  31.485  40.821   6.750
 7899POPC   C3A45581  31.458  40.789   7.050
 7899POPC   C4A45582  31.485  40.809   7.350
 7899POPC   C1B45583  31.593  40.589   6.450
 7899POPC   C2B45584  31.511  40.506   6.750
 7899POPC   C3B45585  31.544  40.551   7.050
 7899POPC   C4B45586  31.504  40.559   7.350
 7900POPC   NC345587  31.515  22.934   5.550
 7900POPC   PO445588  31.494  22.897   5.850
 7900POPC   GL145589  31.430  22.980   6.150
 7900POPC   GL245590  31.575  23.067   6.150
 7900POPC   C1A45591  31.491  22.945   6.450
 7900POPC   D2A45592  31.467  22.907   6.750
 7900POPC   C3A45593  31.440  22.933   7.050
 7900POPC   C4A45594  31.455  22.962   7.350
 7900POPC   C1B45595  31.603  23.139   6.450
 7900POPC   C2B45596  31.614  23.122   6.750
 7900POPC   C3B45597  31.625  23.125   7.050
 7900POPC   C4B45598  31.655  23.127   7.350
 7901POPC   NC345599  21.432  26.833   5.550
 7901POPC   PO445600  21.342  26.858   5.850
 7901POPC   GL145601  21.381  26.850   6.150
 7901POPC   GL245602  21.508  26.818   6.150
 7901POPC   C1A45603  21.337  26.799   6.450
 7901POPC   D2A45604  21.353  26.768   6.750
 7901POPC   C3A45605  21.347  26.782   7.050
 7901POPC   C4A45606  21.388  26.807   7.350
 7901POPC   C1B45607  21.655  26.767   6.450
 7901POPC   C2B45608  21.612  26.819   6.750
 7901POPC   C3B45609  21.605  26.809   7.050
 7901POPC   C4B45610  21.661  26.764   7.350
 7902POPC   NC345611  29.921  12.102   5.550
 7902POPC   PO445612  29.885  12.069   5.850
 7902POPC   GL145613  29.889  12.095   6.150
 7902POPC   GL245614  30.006  12.143   6.150
 7902POPC   C1A45615  29.928  12.125   6.450
 7902POPC   D2A45616  29.932  12.070   6.750
 7902POPC   C3A45617  29.946  12.083   7.050
 7902POPC   C4A45618  29.965  12.050   7.350
 7902POPC   C1B45619  30.081  12.251   6.450
 7902POPC   C2B45620  30.176  12.171   6.750
 7902POPC   C3B45621  30.162  12.230   7.050
 7902POPC   C4B45622  30.135  12.244   7.350
 7903POPC   NC345623   5.138  41.581   5.550
 7903POPC   PO445624   5.084  41.566   5.850
 7903POPC   GL145625   5.124  41.571   6.150
 7903POPC   GL245626   4.977  41.694   6.150
 7903POPC   C1A45627   5.052  41.548   6.450
 7903POPC   D2A45628   5.112  41.514   6.750
 7903POPC   C3A45629   5.122  41.519   7.050
 7903POPC   C4A45630   5.141  41.599   7.350
 7903POPC   C1B45631   4.939  41.775   6.450
 7903POPC   C2B45632   4.989  41.806   6.750
 7903POPC   C3B45633   4.968  41.741   7.050
 7903POPC   C4B45634   4.950  41.820   7.350
 7904POPC   NC345635   6.627  22.958   5.550
 7904POPC   PO445636   6.642  22.912   5.850
 7904POPC   GL145637   6.632  22.976   6.150
 7904POPC   GL245638   6.739  22.836   6.150
 7904POPC   C1A45639   6.680  22.981   6.450
 7904POPC   D2A45640   6.618  22.891   6.750
 7904POPC   C3A45641   6.668  22.911   7.050
 7904POPC   C4A45642   6.680  22.921   7.350
 7904POPC   C1B45643   6.791  22.743   6.450
 7904POPC   C2B45644   6.857  22.755   6.750
 7904POPC   C3B45645   6.789  22.728   7.050
 7904POPC   C4B45646   6.826  22.735   7.350
 7905POPC   NC345647  33.763  29.096   5.550
 7905POPC   PO445648  33.792  29.142   5.850
 7905POPC   GL145649  33.794  29.100   6.150
 7905POPC   GL245650  33.747  29.040   6.150
 7905POPC   C1A45651  33.842  29.160   6.450
 7905POPC   D2A45652  33.788  29.176   6.750
 7905POPC   C3A45653  33.835  29.114   7.050
 7905POPC   C4A45654  33.827  29.179   7.350
 7905POPC   C1B45655  33.742  28.920   6.450
 7905POPC   C2B45656  33.694  28.869   6.750
 7905POPC   C3B45657  33.723  28.903   7.050
 7905POPC   C4B45658  33.724  28.886   7.350
 7906POPC   NC345659  13.629  16.758   5.550
 7906POPC   PO445660  13.644  16.729   5.850
 7906POPC   GL145661  13.675  16.701   6.150
 7906POPC   GL245662  13.718  16.853   6.150
 7906POPC   C1A45663  13.600  16.736   6.450
 7906POPC   D2A45664  13.652  16.734   6.750
 7906POPC   C3A45665  13.655  16.774   7.050
 7906POPC   C4A45666  13.583  16.731   7.350
 7906POPC   C1B45667  13.767  16.941   6.450
 7906POPC   C2B45668  13.784  16.954   6.750
 7906POPC   C3B45669  13.798  16.954   7.050
 7906POPC   C4B45670  13.784  16.963   7.350
 7907POPC   NC345671   4.350  32.239   5.550
 7907POPC   PO445672   4.283  32.224   5.850
 7907POPC   GL145673   4.360  32.254   6.150
 7907POPC   GL245674   4.346  32.103   6.150
 7907POPC   C1A45675   4.312  32.289   6.450
 7907POPC   D2A45676   4.357  32.278   6.750
 7907POPC   C3A45677   4.320  32.250   7.050
 7907POPC   C4A45678   4.269  32.212   7.350
 7907POPC   C1B45679   4.377  31.983   6.450
 7907POPC   C2B45680   4.350  31.995   6.750
 7907POPC   C3B45681   4.415  32.010   7.050
 7907POPC   C4B45682   4.421  31.991   7.350
 7908POPC   NC345683  13.653  33.070   5.550
 7908POPC   PO445684  13.661  33.070   5.850
 7908POPC   GL145685  13.634  33.054   6.150
 7908POPC   GL245686  13.798  32.960   6.150
 7908POPC   C1A45687  13.610  33.033   6.450
 7908POPC   D2A45688  13.648  33.025   6.750
 7908POPC   C3A45689  13.661  33.003   7.050
 7908POPC   C4A45690  13.585  32.990   7.350
 7908POPC   C1B45691  13.908  32.926   6.450
 7908POPC   C2B45692  13.868  32.996   6.750
 7908POPC   C3B45693  13.896  32.952   7.050
 7908POPC   C4B45694  13.837  32.933   7.350
 7909POPC   NC345695  23.681   8.164   5.550
 7909POPC   PO445696  23.697   8.198   5.850
 7909POPC   GL145697  23.669   8.230   6.150
 7909POPC   GL245698  23.662   8.236   6.150
 7909POPC   C1A45699  23.699   8.230   6.450
 7909POPC   D2A45700  23.764   8.241   6.750
 7909POPC   C3A45701  23.695   8.176   7.050
 7909POPC   C4A45702  23.756   8.226   7.350
 7909POPC   C1B45703  23.538   8.314   6.450
 7909POPC   C2B45704  23.519   8.398   6.750
 7909POPC   C3B45705  23.511   8.350   7.050
 7909POPC   C4B45706  23.490   8.326   7.350
 7910POPC   NC345707  10.485  41.577   5.550
 7910POPC   PO445708  10.477  41.575   5.850
 7910POPC   GL145709  10.487  41.596   6.150
 7910POPC   GL245710  10.419  41.574   6.150
 7910POPC   C1A45711  10.527  41.546   6.450
 7910POPC   D2A45712  10.552  41.563   6.750
 7910POPC   C3A45713  10.523  41.520   7.050
 7910POPC   C4A45714  10.509  41.586   7.350
 7910POPC   C1B45715  10.288  41.517   6.450
 7910POPC   C2B45716  10.266  41.550   6.750
 7910POPC   C3B45717  10.273  41.508   7.050
 7910POPC   C4B45718  10.268  41.507   7.350
 7911POPC   NC345719  20.599  24.471   5.550
 7911POPC   PO445720  20.588  24.495   5.850
 7911POPC   GL145721  20.645  24.456   6.150
 7911POPC   GL245722  20.492  24.450   6.150
 7911POPC   C1A45723  20.600  24.484   6.450
 7911POPC   D2A45724  20.616  24.508   6.750
 7911POPC   C3A45725  20.589  24.502   7.050
 7911POPC   C4A45726  20.629  24.528   7.350
 7911POPC   C1B45727  20.341  24.326   6.450
 7911POPC   C2B45728  20.371  24.410   6.750
 7911POPC   C3B45729  20.437  24.413   7.050
 7911POPC   C4B45730  20.380  24.377   7.350
 7912POPC   NC345731   8.952   0.448   5.550
 7912POPC   PO445732   8.957   0.427   5.850
 7912POPC   GL145733   8.973   0.454   6.150
 7912POPC   GL245734   8.887   0.499   6.150
 7912POPC   C1A45735   8.945   0.396   6.450
 7912POPC   D2A45736   8.956   0.473   6.750
 7912POPC   C3A45737   8.959   0.431   7.050
 7912POPC   C4A45738   8.943   0.469   7.350
 7912POPC   C1B45739   8.794   0.541   6.450
 7912POPC   C2B45740   8.698   0.528   6.750
 7912POPC   C3B45741   8.758   0.513   7.050
 7912POPC   C4B45742   8.735   0.501   7.350
 7913POPC   NC345743  31.510  31.436   5.550
 7913POPC   PO445744  31.465  31.515   5.850
 7913POPC   GL145745  31.478  31.439   6.150
 7913POPC   GL245746  31.535  31.390   6.150
 7913POPC   C1A45747  31.514  31.504   6.450
 7913POPC   D2A45748  31.498  31.431   6.750
 7913POPC   C3A45749  31.461  31.520   7.050
 7913POPC   C4A45750  31.452  31.498   7.350
 7913POPC   C1B45751  31.640  31.321   6.450
 7913POPC   C2B45752  31.650  31.370   6.750
 7913POPC   C3B45753  31.702  31.325   7.050
 7913POPC   C4B45754  31.673  31.325   7.350
 7914POPC   NC345755  22.898  25.283   5.550
 7914POPC   PO445756  22.905  25.281   5.850
 7914POPC   GL145757  22.916  25.242   6.150
 7914POPC   GL245758  22.816  25.265   6.150
 7914POPC   C1A45759  22.892  25.237   6.450
 7914POPC   D2A45760  22.976  25.227   6.750
 7914POPC   C3A45761  22.936  25.258   7.050
 7914POPC   C4A45762  22.932  25.296   7.350
 7914POPC   C1B45763  22.700  25.258   6.450
 7914POPC   C2B45764  22.702  25.323   6.750
 7914POPC   C3B45765  22.660  25.251   7.050
 7914POPC   C4B45766  22.729  25.343   7.350
 7915POPC   NC345767  14.365  34.580   5.550
 7915POPC   PO445768  14.374  34.574   5.850
 7915POPC   GL145769  14.380  34.576   6.150
 7915POPC   GL245770  14.238  34.531   6.150
 7915POPC   C1A45771  14.402  34.616   6.450
 7915POPC   D2A45772  14.418  34.554   6.750
 7915POPC   C3A45773  14.359  34.543   7.050
 7915POPC   C4A45774  14.396  34.527   7.350
 7915POPC   C1B45775  14.130  34.560   6.450
 7915POPC   C2B45776  14.143  34.528   6.750
 7915POPC   C3B45777  14.179  34.581   7.050
 7915POPC   C4B45778  14.136  34.522   7.350
 7916POPC   NC345779  26.055  26.806   5.550
 7916POPC   PO445780  26.061  26.787   5.850
 7916POPC   GL145781  26.014  26.861   6.150
 7916POPC   GL245782  26.044  26.929   6.150
 7916POPC   C1A45783  26.019  26.830   6.450
 7916POPC   D2A45784  26.029  26.792   6.750
 7916POPC   C3A45785  26.078  26.796   7.050
 7916POPC   C4A45786  26.072  26.838   7.350
 7916POPC   C1B45787  25.983  27.102   6.450
 7916POPC   C2B45788  25.952  27.059   6.750
 7916POPC   C3B45789  25.930  27.003   7.050
 7916POPC   C4B45790  25.962  27.098   7.350
 7917POPC   NC345791   4.306  22.124   5.550
 7917POPC   PO445792   4.297  22.158   5.850
 7917POPC   GL145793   4.342  22.185   6.150
 7917POPC   GL245794   4.217  22.231   6.150
 7917POPC   C1A45795   4.273  22.146   6.450
 7917POPC   D2A45796   4.327  22.119   6.750
 7917POPC   C3A45797   4.337  22.187   7.050
 7917POPC   C4A45798   4.273  22.119   7.350
 7917POPC   C1B45799   4.129  22.347   6.450
 7917POPC   C2B45800   4.173  22.336   6.750
 7917POPC   C3B45801   4.140  22.331   7.050
 7917POPC   C4B45802   4.157  22.291   7.350
 7918POPC   NC345803  11.291   4.341   5.550
 7918POPC   PO445804  11.300   4.321   5.850
 7918POPC   GL145805  11.338   4.349   6.150
 7918POPC   GL245806  11.219   4.322   6.150
 7918POPC   C1A45807  11.313   4.284   6.450
 7918POPC   D2A45808  11.283   4.353   6.750
 7918POPC   C3A45809  11.303   4.364   7.050
 7918POPC   C4A45810  11.267   4.298   7.350
 7918POPC   C1B45811  11.064   4.452   6.450
 7918POPC   C2B45812  11.016   4.395   6.750
 7918POPC   C3B45813  11.106   4.404   7.050
 7918POPC   C4B45814  11.082   4.398   7.350
 7919POPC   NC345815  37.722  11.260   5.550
 7919POPC   PO445816  37.724  11.348   5.850
 7919POPC   GL145817  37.719  11.269   6.150
 7919POPC   GL245818  37.590  11.266   6.150
 7919POPC   C1A45819  37.655  11.330   6.450
 7919POPC   D2A45820  37.665  11.325   6.750
 7919POPC   C3A45821  37.656  11.301   7.050
 7919POPC   C4A45822  37.682  11.313   7.350
 7919POPC   C1B45823  37.426  11.359   6.450
 7919POPC   C2B45824  37.439  11.335   6.750
 7919POPC   C3B45825  37.380  11.358   7.050
 7919POPC   C4B45826  37.421  11.317   7.350
 7920POPC   NC345827  33.063   5.117   5.550
 7920POPC   PO445828  32.990   5.139   5.850
 7920POPC   GL145829  33.034   5.101   6.150
 7920POPC   GL245830  32.960   4.980   6.150
 7920POPC   C1A45831  32.989   5.079   6.450
 7920POPC   D2A45832  33.062   5.048   6.750
 7920POPC   C3A45833  32.999   5.100   7.050
 7920POPC   C4A45834  33.033   5.134   7.350
 7920POPC   C1B45835  32.956   4.852   6.450
 7920POPC   C2B45836  32.969   4.840   6.750
 7920POPC   C3B45837  32.956   4.903   7.050
 7920POPC   C4B45838  32.938   4.868   7.350
 7921POPC   NC345839  27.623   9.019   5.550
 7921POPC   PO445840  27.575   8.944   5.850
 7921POPC   GL145841  27.585   9.004   6.150
 7921POPC   GL245842  27.556   8.820   6.150
 7921POPC   C1A45843  27.582   8.993   6.450
 7921POPC   D2A45844  27.576   8.977   6.750
 7921POPC   C3A45845  27.595   8.988   7.050
 7921POPC   C4A45846  27.607   8.994   7.350
 7921POPC   C1B45847  27.629   8.700   6.450
 7921POPC   C2B45848  27.593   8.676   6.750
 7921POPC   C3B45849  27.628   8.727   7.050
 7921POPC   C4B45850  27.628   8.727   7.350
 7922POPC   NC345851   9.754  32.990   5.550
 7922POPC   PO445852   9.760  33.053   5.850
 7922POPC   GL145853   9.778  32.991   6.150
 7922POPC   GL245854   9.722  32.931   6.150
 7922POPC   C1A45855   9.774  33.059   6.450
 7922POPC   D2A45856   9.722  33.059   6.750
 7922POPC   C3A45857   9.730  33.057   7.050
 7922POPC   C4A45858   9.726  32.981   7.350
 7922POPC   C1B45859   9.672  32.839   6.450
 7922POPC   C2B45860   9.649  32.784   6.750
 7922POPC   C3B45861   9.634  32.807   7.050
 7922POPC   C4B45862   9.694  32.769   7.350
 7923POPC   NC345863  12.825  32.200   5.550
 7923POPC   PO445864  12.849  32.247   5.850
 7923POPC   GL145865  12.820  32.259   6.150
 7923POPC   GL245866  12.948  32.182   6.150
 7923POPC   C1A45867  12.826  32.203   6.450
 7923POPC   D2A45868  12.893  32.274   6.750
 7923POPC   C3A45869  12.851  32.236   7.050
 7923POPC   C4A45870  12.847  32.218   7.350
 7923POPC   C1B45871  13.097  32.119   6.450
 7923POPC   C2B45872  13.068  32.084   6.750
 7923POPC   C3B45873  13.015  32.159   7.050
 7923POPC   C4B45874  13.019  32.112   7.350
 7924POPC   NC345875  19.083   2.015   5.550
 7924POPC   PO445876  19.093   1.988   5.850
 7924POPC   GL145877  19.060   2.036   6.150
 7924POPC   GL245878  19.227   2.007   6.150
 7924POPC   C1A45879  19.071   1.943   6.450
 7924POPC   D2A45880  19.039   1.988   6.750
 7924POPC   C3A45881  19.090   1.996   7.050
 7924POPC   C4A45882  19.094   2.024   7.350
 7924POPC   C1B45883  19.264   1.967   6.450
 7924POPC   C2B45884  19.282   1.950   6.750
 7924POPC   C3B45885  19.287   2.021   7.050
 7924POPC   C4B45886  19.332   1.961   7.350
 7925POPC   NC345887  18.309   1.987   5.550
 7925POPC   PO445888  18.272   2.029   5.850
 7925POPC   GL145889  18.312   1.987   6.150
 7925POPC   GL245890  18.359   2.158   6.150
 7925POPC   C1A45891  18.265   1.981   6.450
 7925POPC   D2A45892  18.241   2.040   6.750
 7925POPC   C3A45893  18.323   1.969   7.050
 7925POPC   C4A45894  18.287   1.950   7.350
 7925POPC   C1B45895  18.292   2.268   6.450
 7925POPC   C2B45896  18.313   2.253   6.750
 7925POPC   C3B45897  18.312   2.248   7.050
 7925POPC   C4B45898  18.369   2.280   7.350
 7926POPC   NC345899  33.055  33.832   5.550
 7926POPC   PO445900  32.996  33.805   5.850
 7926POPC   GL145901  33.056  33.842   6.150
 7926POPC   GL245902  33.111  33.834   6.150
 7926POPC   C1A45903  33.058  33.807   6.450
 7926POPC   D2A45904  33.043  33.793   6.750
 7926POPC   C3A45905  33.043  33.848   7.050
 7926POPC   C4A45906  32.985  33.791   7.350
 7926POPC   C1B45907  33.310  33.818   6.450
 7926POPC   C2B45908  33.275  33.802   6.750
 7926POPC   C3B45909  33.276  33.804   7.050
 7926POPC   C4B45910  33.296  33.818   7.350
 7927POPC   NC345911   4.366  40.757   5.550
 7927POPC   PO445912   4.327  40.740   5.850
 7927POPC   GL145913   4.268  40.740   6.150
 7927POPC   GL245914   4.356  40.622   6.150
 7927POPC   C1A45915   4.314  40.810   6.450
 7927POPC   D2A45916   4.304  40.773   6.750
 7927POPC   C3A45917   4.305  40.811   7.050
 7927POPC   C4A45918   4.319  40.818   7.350
 7927POPC   C1B45919   4.367  40.553   6.450
 7927POPC   C2B45920   4.372  40.502   6.750
 7927POPC   C3B45921   4.347  40.533   7.050
 7927POPC   C4B45922   4.342  40.572   7.350
 7928POPC   NC345923   7.408  23.706   5.550
 7928POPC   PO445924   7.398  23.707   5.850
 7928POPC   GL145925   7.377  23.708   6.150
 7928POPC   GL245926   7.444  23.593   6.150
 7928POPC   C1A45927   7.461  23.698   6.450
 7928POPC   D2A45928   7.427  23.675   6.750
 7928POPC   C3A45929   7.410  23.665   7.050
 7928POPC   C4A45930   7.412  23.680   7.350
 7928POPC   C1B45931   7.489  23.481   6.450
 7928POPC   C2B45932   7.482  23.502   6.750
 7928POPC   C3B45933   7.501  23.525   7.050
 7928POPC   C4B45934   7.573  23.493   7.350
 7929POPC   NC345935  30.660   4.301   5.550
 7929POPC   PO445936  30.714   4.363   5.850
 7929POPC   GL145937  30.711   4.339   6.150
 7929POPC   GL245938  30.559   4.324   6.150
 7929POPC   C1A45939  30.661   4.340   6.450
 7929POPC   D2A45940  30.738   4.300   6.750
 7929POPC   C3A45941  30.727   4.277   7.050
 7929POPC   C4A45942  30.655   4.286   7.350
 7929POPC   C1B45943  30.437   4.321   6.450
 7929POPC   C2B45944  30.468   4.319   6.750
 7929POPC   C3B45945  30.428   4.317   7.050
 7929POPC   C4B45946  30.439   4.256   7.350
 7930POPC   NC345947   5.896  36.887   5.550
 7930POPC   PO445948   5.858  36.914   5.850
 7930POPC   GL145949   5.846  36.910   6.150
 7930POPC   GL245950   5.828  37.040   6.150
 7930POPC   C1A45951   5.822  36.863   6.450
 7930POPC   D2A45952   5.841  36.948   6.750
 7930POPC   C3A45953   5.864  36.936   7.050
 7930POPC   C4A45954   5.901  36.854   7.350
 7930POPC   C1B45955   5.908  37.104   6.450
 7930POPC   C2B45956   5.876  37.195   6.750
 7930POPC   C3B45957   5.881  37.165   7.050
 7930POPC   C4B45958   5.902  37.106   7.350
 7931POPC   NC345959  29.900  34.581   5.550
 7931POPC   PO445960  29.939  34.526   5.850
 7931POPC   GL145961  29.960  34.550   6.150
 7931POPC   GL245962  30.020  34.507   6.150
 7931POPC   C1A45963  29.957  34.611   6.450
 7931POPC   D2A45964  29.970  34.621   6.750
 7931POPC   C3A45965  29.917  34.577   7.050
 7931POPC   C4A45966  29.939  34.601   7.350
 7931POPC   C1B45967  30.136  34.446   6.450
 7931POPC   C2B45968  30.089  34.401   6.750
 7931POPC   C3B45969  30.125  34.447   7.050
 7931POPC   C4B45970  30.090  34.454   7.350
 7932POPC   NC345971  26.012  24.458   5.550
 7932POPC   PO445972  26.004  24.492   5.850
 7932POPC   GL145973  26.021  24.476   6.150
 7932POPC   GL245974  26.119  24.477   6.150
 7932POPC   C1A45975  26.067  24.446   6.450
 7932POPC   D2A45976  26.063  24.513   6.750
 7932POPC   C3A45977  26.028  24.491   7.050
 7932POPC   C4A45978  26.048  24.512   7.350
 7932POPC   C1B45979  26.325  24.518   6.450
 7932POPC   C2B45980  26.314  24.469   6.750
 7932POPC   C3B45981  26.285  24.482   7.050
 7932POPC   C4B45982  26.290  24.526   7.350
 7933POPC   NC345983  23.738  37.683   5.550
 7933POPC   PO445984  23.684  37.643   5.850
 7933POPC   GL145985  23.729  37.643   6.150
 7933POPC   GL245986  23.808  37.706   6.150
 7933POPC   C1A45987  23.725  37.706   6.450
 7933POPC   D2A45988  23.709  37.683   6.750
 7933POPC   C3A45989  23.718  37.643   7.050
 7933POPC   C4A45990  23.745  37.646   7.350
 7933POPC   C1B45991  23.925  37.698   6.450
 7933POPC   C2B45992  23.920  37.756   6.750
 7933POPC   C3B45993  23.943  37.718   7.050
 7933POPC   C4B45994  23.985  37.694   7.350
 7934POPC   NC345995   9.751  39.999   5.550
 7934POPC   PO445996   9.722  40.054   5.850
 7934POPC   GL145997   9.776  39.984   6.150
 7934POPC   GL245998   9.673  39.891   6.150
 7934POPC   C1A45999   9.782  40.034   6.450
 7934POPC   D2A46000   9.707  40.002   6.750
 7934POPC   C3A46001   9.712  40.018   7.050
 7934POPC   C4A46002   9.730  40.003   7.350
 7934POPC   C1B46003   9.590  39.831   6.450
 7934POPC   C2B46004   9.659  39.767   6.750
 7934POPC   C3B46005   9.644  39.825   7.050
 7934POPC   C4B46006   9.612  39.814   7.350
 7935POPC   NC346007  43.149  43.933   5.550
 7935POPC   PO446008  43.098  43.878   5.850
 7935POPC   GL146009  43.082  43.878   6.150
 7935POPC   GL246010  43.119  44.036   6.150
 7935POPC   C1A46011  43.147  43.869   6.450
 7935POPC   D2A46012  43.158  43.849   6.750
 7935POPC   C3A46013  43.074  43.854   7.050
 7935POPC   C4A46014  43.132  43.858   7.350
 7935POPC   C1B46015  43.070  44.096   6.450
 7935POPC   C2B46016  43.056  44.106   6.750
 7935POPC   C3B46017  43.140  44.181   7.050
 7935POPC   C4B46018  43.154  44.132   7.350
 7936POPC   NC346019  26.813  41.581   5.550
 7936POPC   PO446020  26.853  41.536   5.850
 7936POPC   GL146021  26.785  41.547   6.150
 7936POPC   GL246022  26.745  41.431   6.150
 7936POPC   C1A46023  26.793  41.562   6.450
 7936POPC   D2A46024  26.822  41.549   6.750
 7936POPC   C3A46025  26.854  41.537   7.050
 7936POPC   C4A46026  26.862  41.556   7.350
 7936POPC   C1B46027  26.750  41.341   6.450
 7936POPC   C2B46028  26.758  41.379   6.750
 7936POPC   C3B46029  26.682  41.345   7.050
 7936POPC   C4B46030  26.666  41.362   7.350
 7937POPC   NC346031  23.718  38.439   5.550
 7937POPC   PO446032  23.738  38.463   5.850
 7937POPC   GL146033  23.731  38.480   6.150
 7937POPC   GL246034  23.622  38.568   6.150
 7937POPC   C1A46035  23.747  38.502   6.450
 7937POPC   D2A46036  23.727  38.438   6.750
 7937POPC   C3A46037  23.667  38.413   7.050
 7937POPC   C4A46038  23.675  38.471   7.350
 7937POPC   C1B46039  23.634  38.728   6.450
 7937POPC   C2B46040  23.575  38.692   6.750
 7937POPC   C3B46041  23.611  38.692   7.050
 7937POPC   C4B46042  23.586  38.668   7.350
 7938POPC   NC346043  44.649  24.510   5.550
 7938POPC   PO446044  44.684  24.466   5.850
 7938POPC   GL146045  44.701  24.527   6.150
 7938POPC   GL246046  44.614  24.548   6.150
 7938POPC   C1A46047  44.627  24.508   6.450
 7938POPC   D2A46048  44.682  24.530   6.750
 7938POPC   C3A46049  44.617  24.529   7.050
 7938POPC   C4A46050  44.636  24.446   7.350
 7938POPC   C1B46051  44.445  24.621   6.450
 7938POPC   C2B46052  44.446  24.664   6.750
 7938POPC   C3B46053  44.516  24.642   7.050
 7938POPC   C4B46054  44.494  24.675   7.350
 7939POPC   NC346055  40.051  44.621   5.550
 7939POPC   PO446056  39.961  44.657   5.850
 7939POPC   GL146057  40.021  44.616   6.150
 7939POPC   GL246058  39.850  44.646   6.150
 7939POPC   C1A46059  39.973  44.641   6.450
 7939POPC   D2A46060  40.029  44.711   6.750
 7939POPC   C3A46061  40.024  44.616   7.050
 7939POPC   C4A46062  40.056  44.677   7.350
 7939POPC   C1B46063  39.790  44.568   6.450
 7939POPC   C2B46064  39.753  44.560   6.750
 7939POPC   C3B46065  39.780  44.604   7.050
 7939POPC   C4B46066  39.762  44.624   7.350
 7940POPC   NC346067  13.629  24.448   5.550
 7940POPC   PO446068  13.677  24.451   5.850
 7940POPC   GL146069  13.658  24.531   6.150
 7940POPC   GL246070  13.644  24.377   6.150
 7940POPC   C1A46071  13.674  24.452   6.450
 7940POPC   D2A46072  13.644  24.440   6.750
 7940POPC   C3A46073  13.624  24.497   7.050
 7940POPC   C4A46074  13.596  24.509   7.350
 7940POPC   C1B46075  13.667  24.283   6.450
 7940POPC   C2B46076  13.670  24.253   6.750
 7940POPC   C3B46077  13.725  24.289   7.050
 7940POPC   C4B46078  13.709  24.215   7.350
 7941POPC   NC346079  26.784  42.367   5.550
 7941POPC   PO446080  26.843  42.318   5.850
 7941POPC   GL146081  26.853  42.327   6.150
 7941POPC   GL246082  26.849  42.182   6.150
 7941POPC   C1A46083  26.807  42.344   6.450
 7941POPC   D2A46084  26.847  42.349   6.750
 7941POPC   C3A46085  26.800  42.316   7.050
 7941POPC   C4A46086  26.840  42.369   7.350
 7941POPC   C1B46087  26.869  42.087   6.450
 7941POPC   C2B46088  26.858  42.062   6.750
 7941POPC   C3B46089  26.864  42.090   7.050
 7941POPC   C4B46090  26.944  42.087   7.350
 7942POPC   NC346091   8.172  30.724   5.550
 7942POPC   PO446092   8.236  30.698   5.850
 7942POPC   GL146093   8.192  30.655   6.150
 7942POPC   GL246094   8.162  30.786   6.150
 7942POPC   C1A46095   8.227  30.672   6.450
 7942POPC   D2A46096   8.186  30.674   6.750
 7942POPC   C3A46097   8.192  30.720   7.050
 7942POPC   C4A46098   8.177  30.660   7.350
 7942POPC   C1B46099   8.124  30.871   6.450
 7942POPC   C2B46100   8.103  30.948   6.750
 7942POPC   C3B46101   8.080  30.889   7.050
 7942POPC   C4B46102   8.113  30.937   7.350
 7943POPC   NC346103  38.442  24.444   5.550
 7943POPC   PO446104  38.477  24.483   5.850
 7943POPC   GL146105  38.486  24.536   6.150
 7943POPC   GL246106  38.562  24.418   6.150
 7943POPC   C1A46107  38.413  24.503   6.450
 7943POPC   D2A46108  38.478  24.441   6.750
 7943POPC   C3A46109  38.412  24.507   7.050
 7943POPC   C4A46110  38.446  24.471   7.350
 7943POPC   C1B46111  38.603  24.269   6.450
 7943POPC   C2B46112  38.542  24.262   6.750
 7943POPC   C3B46113  38.544  24.320   7.050
 7943POPC   C4B46114  38.578  24.321   7.350
 7944POPC   NC346115  30.710  44.651   5.550
 7944POPC   PO446116  30.664  44.639   5.850
 7944POPC   GL146117  30.689  44.697   6.150
 7944POPC   GL246118  30.683  44.556   6.150
 7944POPC   C1A46119  30.686  44.634   6.450
 7944POPC   D2A46120  30.716  44.643   6.750
 7944POPC   C3A46121  30.730  44.619   7.050
 7944POPC   C4A46122  30.670  44.689   7.350
 7944POPC   C1B46123  30.694  44.386   6.450
 7944POPC   C2B46124  30.690  44.439   6.750
 7944POPC   C3B46125  30.697  44.425   7.050
 7944POPC   C4B46126  30.655  44.397   7.350
 7945POPC   NC346127  33.003   7.417   5.550
 7945POPC   PO446128  33.038   7.378   5.850
 7945POPC   GL146129  33.033   7.395   6.150
 7945POPC   GL246130  33.012   7.274   6.150
 7945POPC   C1A46131  33.067   7.371   6.450
 7945POPC   D2A46132  33.030   7.468   6.750
 7945POPC   C3A46133  32.997   7.461   7.050
 7945POPC   C4A46134  33.001   7.442   7.350
 7945POPC   C1B46135  33.062   7.128   6.450
 7945POPC   C2B46136  33.023   7.179   6.750
 7945POPC   C3B46137  33.052   7.142   7.050
 7945POPC   C4B46138  33.042   7.192   7.350
 7946POPC   NC346139  33.786  39.192   5.550
 7946POPC   PO446140  33.799  39.208   5.850
 7946POPC   GL146141  33.779  39.181   6.150
 7946POPC   GL246142  33.732  39.133   6.150
 7946POPC   C1A46143  33.773  39.192   6.450
 7946POPC   D2A46144  33.758  39.235   6.750
 7946POPC   C3A46145  33.767  39.198   7.050
 7946POPC   C4A46146  33.782  39.205   7.350
 7946POPC   C1B46147  33.639  39.050   6.450
 7946POPC   C2B46148  33.629  39.098   6.750
 7946POPC   C3B46149  33.658  39.046   7.050
 7946POPC   C4B46150  33.570  39.098   7.350
 7947POPC   NC346151  10.497   2.039   5.550
 7947POPC   PO446152  10.491   2.010   5.850
 7947POPC   GL146153  10.571   2.017   6.150
 7947POPC   GL246154  10.599   1.927   6.150
 7947POPC   C1A46155  10.493   1.951   6.450
 7947POPC   D2A46156  10.478   1.962   6.750
 7947POPC   C3A46157  10.557   2.037   7.050
 7947POPC   C4A46158  10.501   2.024   7.350
 7947POPC   C1B46159  10.780   1.816   6.450
 7947POPC   C2B46160  10.732   1.854   6.750
 7947POPC   C3B46161  10.711   1.883   7.050
 7947POPC   C4B46162  10.769   1.860   7.350
 7948POPC   NC346163  36.923  26.793   5.550
 7948POPC   PO446164  36.953  26.821   5.850
 7948POPC   GL146165  36.859  26.848   6.150
 7948POPC   GL246166  36.865  26.711   6.150
 7948POPC   C1A46167  36.898  26.810   6.450
 7948POPC   D2A46168  36.948  26.849   6.750
 7948POPC   C3A46169  36.855  26.780   7.050
 7948POPC   C4A46170  36.892  26.855   7.350
 7948POPC   C1B46171  36.789  26.620   6.450
 7948POPC   C2B46172  36.761  26.639   6.750
 7948POPC   C3B46173  36.747  26.593   7.050
 7948POPC   C4B46174  36.785  26.585   7.350
 7949POPC   NC346175  33.786   5.872   5.550
 7949POPC   PO446176  33.817   5.915   5.850
 7949POPC   GL146177  33.833   5.880   6.150
 7949POPC   GL246178  33.699   5.905   6.150
 7949POPC   C1A46179  33.818   5.830   6.450
 7949POPC   D2A46180  33.809   5.834   6.750
 7949POPC   C3A46181  33.756   5.853   7.050
 7949POPC   C4A46182  33.801   5.835   7.350
 7949POPC   C1B46183  33.571   5.822   6.450
 7949POPC   C2B46184  33.548   5.813   6.750
 7949POPC   C3B46185  33.589   5.829   7.050
 7949POPC   C4B46186  33.562   5.826   7.350
 7950POPC   NC346187  43.140  19.836   5.550
 7950POPC   PO446188  43.079  19.822   5.850
 7950POPC   GL146189  43.147  19.835   6.150
 7950POPC   GL246190  43.043  19.886   6.150
 7950POPC   C1A46191  43.155  19.829   6.450
 7950POPC   D2A46192  43.130  19.835   6.750
 7950POPC   C3A46193  43.131  19.810   7.050
 7950POPC   C4A46194  43.062  19.824   7.350
 7950POPC   C1B46195  42.944  19.930   6.450
 7950POPC   C2B46196  42.893  20.010   6.750
 7950POPC   C3B46197  42.902  19.994   7.050
 7950POPC   C4B46198  42.947  19.923   7.350
 7951POPC   NC346199  42.285  22.981   5.550
 7951POPC   PO446200  42.363  22.958   5.850
 7951POPC   GL146201  42.345  22.981   6.150
 7951POPC   GL246202  42.299  22.802   6.150
 7951POPC   C1A46203  42.319  22.944   6.450
 7951POPC   D2A46204  42.341  22.972   6.750
 7951POPC   C3A46205  42.326  22.918   7.050
 7951POPC   C4A46206  42.293  22.950   7.350
 7951POPC   C1B46207  42.273  22.703   6.450
 7951POPC   C2B46208  42.247  22.736   6.750
 7951POPC   C3B46209  42.234  22.680   7.050
 7951POPC   C4B46210  42.301  22.668   7.350
 7952POPC   NC346211  29.173  18.310   5.550
 7952POPC   PO446212  29.183  18.279   5.850
 7952POPC   GL146213  29.190  18.263   6.150
 7952POPC   GL246214  29.163  18.433   6.150
 7952POPC   C1A46215  29.191  18.282   6.450
 7952POPC   D2A46216  29.097  18.321   6.750
 7952POPC   C3A46217  29.100  18.308   7.050
 7952POPC   C4A46218  29.174  18.319   7.350
 7952POPC   C1B46219  29.158  18.544   6.450
 7952POPC   C2B46220  29.218  18.508   6.750
 7952POPC   C3B46221  29.173  18.484   7.050
 7952POPC   C4B46222  29.136  18.545   7.350
 7953POPC   NC346223  26.013  34.601   5.550
 7953POPC   PO446224  26.087  34.539   5.850
 7953POPC   GL146225  25.997  34.584   6.150
 7953POPC   GL246226  26.158  34.645   6.150
 7953POPC   C1A46227  26.016  34.625   6.450
 7953POPC   D2A46228  26.068  34.566   6.750
 7953POPC   C3A46229  26.079  34.547   7.050
 7953POPC   C4A46230  26.079  34.612   7.350
 7953POPC   C1B46231  26.273  34.755   6.450
 7953POPC   C2B46232  26.296  34.701   6.750
 7953POPC   C3B46233  26.216  34.746   7.050
 7953POPC   C4B46234  26.231  34.714   7.350
 7954POPC   NC346235  42.302  29.141   5.550
 7954POPC   PO446236  42.338  29.151   5.850
 7954POPC   GL146237  42.341  29.101   6.150
 7954POPC   GL246238  42.431  29.103   6.150
 7954POPC   C1A46239  42.302  29.136   6.450
 7954POPC   D2A46240  42.346  29.151   6.750
 7954POPC   C3A46241  42.286  29.140   7.050
 7954POPC   C4A46242  42.335  29.097   7.350
 7954POPC   C1B46243  42.578  29.030   6.450
 7954POPC   C2B46244  42.486  28.947   6.750
 7954POPC   C3B46245  42.502  29.000   7.050
 7954POPC   C4B46246  42.510  29.008   7.350
 7955POPC   NC346247   2.730   9.717   5.550
 7955POPC   PO446248   2.814   9.780   5.850
 7955POPC   GL146249   2.742   9.769   6.150
 7955POPC   GL246250   2.808   9.603   6.150
 7955POPC   C1A46251   2.730   9.709   6.450
 7955POPC   D2A46252   2.757   9.776   6.750
 7955POPC   C3A46253   2.733   9.751   7.050
 7955POPC   C4A46254   2.727   9.780   7.350
 7955POPC   C1B46255   2.739   9.478   6.450
 7955POPC   C2B46256   2.762   9.518   6.750
 7955POPC   C3B46257   2.772   9.508   7.050
 7955POPC   C4B46258   2.785   9.539   7.350
 7956POPC   NC346259  15.167  24.504   5.550
 7956POPC   PO446260  15.225  24.486   5.850
 7956POPC   GL146261  15.158  24.500   6.150
 7956POPC   GL246262  15.090  24.573   6.150
 7956POPC   C1A46263  15.207  24.469   6.450
 7956POPC   D2A46264  15.229  24.448   6.750
 7956POPC   C3A46265  15.228  24.441   7.050
 7956POPC   C4A46266  15.181  24.482   7.350
 7956POPC   C1B46267  15.066  24.696   6.450
 7956POPC   C2B46268  15.051  24.678   6.750
 7956POPC   C3B46269  15.035  24.680   7.050
 7956POPC   C4B46270  15.043  24.718   7.350
 7957POPC   NC346271  27.577   6.633   5.550
 7957POPC   PO446272  27.566   6.646   5.850
 7957POPC   GL146273  27.596   6.662   6.150
 7957POPC   GL246274  27.715   6.567   6.150
 7957POPC   C1A46275  27.547   6.680   6.450
 7957POPC   D2A46276  27.569   6.676   6.750
 7957POPC   C3A46277  27.618   6.635   7.050
 7957POPC   C4A46278  27.634   6.625   7.350
 7957POPC   C1B46279  27.806   6.487   6.450
 7957POPC   C2B46280  27.803   6.472   6.750
 7957POPC   C3B46281  27.836   6.458   7.050
 7957POPC   C4B46282  27.822   6.511   7.350
 7958POPC   NC346283  42.312  10.563   5.550
 7958POPC   PO446284  42.353  10.530   5.850
 7958POPC   GL146285  42.318  10.506   6.150
 7958POPC   GL246286  42.466  10.575   6.150
 7958POPC   C1A46287  42.346  10.564   6.450
 7958POPC   D2A46288  42.315  10.510   6.750
 7958POPC   C3A46289  42.370  10.519   7.050
 7958POPC   C4A46290  42.348  10.513   7.350
 7958POPC   C1B46291  42.505  10.722   6.450
 7958POPC   C2B46292  42.526  10.661   6.750
 7958POPC   C3B46293  42.517  10.745   7.050
 7958POPC   C4B46294  42.529  10.676   7.350
 7959POPC   NC346295  16.685  15.216   5.550
 7959POPC   PO446296  16.768  15.150   5.850
 7959POPC   GL146297  16.750  15.162   6.150
 7959POPC   GL246298  16.806  15.028   6.150
 7959POPC   C1A46299  16.692  15.216   6.450
 7959POPC   D2A46300  16.721  15.215   6.750
 7959POPC   C3A46301  16.771  15.164   7.050
 7959POPC   C4A46302  16.692  15.155   7.350
 7959POPC   C1B46303  16.825  14.949   6.450
 7959POPC   C2B46304  16.824  15.008   6.750
 7959POPC   C3B46305  16.854  14.963   7.050
 7959POPC   C4B46306  16.900  14.924   7.350
 7960POPC   NC346307  27.553  30.745   5.550
 7960POPC   PO446308  27.557  30.739   5.850
 7960POPC   GL146309  27.640  30.663   6.150
 7960POPC   GL246310  27.687  30.773   6.150
 7960POPC   C1A46311  27.579  30.683   6.450
 7960POPC   D2A46312  27.581  30.659   6.750
 7960POPC   C3A46313  27.594  30.689   7.050
 7960POPC   C4A46314  27.615  30.726   7.350
 7960POPC   C1B46315  27.830  30.885   6.450
 7960POPC   C2B46316  27.774  30.883   6.750
 7960POPC   C3B46317  27.840  30.807   7.050
 7960POPC   C4B46318  27.744  30.887   7.350
 7961POPC   NC346319   3.511   9.701   5.550
 7961POPC   PO446320   3.520   9.725   5.850
 7961POPC   GL146321   3.567   9.702   6.150
 7961POPC   GL246322   3.486   9.635   6.150
 7961POPC   C1A46323   3.502   9.731   6.450
 7961POPC   D2A46324   3.503   9.716   6.750
 7961POPC   C3A46325   3.492   9.788   7.050
 7961POPC   C4A46326   3.581   9.748   7.350
 7961POPC   C1B46327   3.446   9.463   6.450
 7961POPC   C2B46328   3.505   9.466   6.750
 7961POPC   C3B46329   3.470   9.540   7.050
 7961POPC   C4B46330   3.488   9.476   7.350
 7962POPC   NC346331  36.119  23.724   5.550
 7962POPC   PO446332  36.103  23.679   5.850
 7962POPC   GL146333  36.094  23.727   6.150
 7962POPC   GL246334  36.232  23.758   6.150
 7962POPC   C1A46335  36.126  23.674   6.450
 7962POPC   D2A46336  36.173  23.698   6.750
 7962POPC   C3A46337  36.124  23.709   7.050
 7962POPC   C4A46338  36.131  23.715   7.350
 7962POPC   C1B46339  36.415  23.687   6.450
 7962POPC   C2B46340  36.345  23.690   6.750
 7962POPC   C3B46341  36.414  23.719   7.050
 7962POPC   C4B46342  36.397  23.720   7.350
 7963POPC   NC346343  15.983   2.038   5.550
 7963POPC   PO446344  15.929   1.950   5.850
 7963POPC   GL146345  15.923   1.963   6.150
 7963POPC   GL246346  16.055   1.902   6.150
 7963POPC   C1A46347  15.936   2.035   6.450
 7963POPC   D2A46348  15.933   1.993   6.750
 7963POPC   C3A46349  15.906   2.018   7.050
 7963POPC   C4A46350  15.922   2.003   7.350
 7963POPC   C1B46351  16.018   1.776   6.450
 7963POPC   C2B46352  16.102   1.731   6.750
 7963POPC   C3B46353  16.078   1.785   7.050
 7963POPC   C4B46354  16.091   1.784   7.350
 7964POPC   NC346355  26.811  43.919   5.550
 7964POPC   PO446356  26.768  43.905   5.850
 7964POPC   GL146357  26.867  43.924   6.150
 7964POPC   GL246358  26.671  43.870   6.150
 7964POPC   C1A46359  26.777  43.846   6.450
 7964POPC   D2A46360  26.851  43.842   6.750
 7964POPC   C3A46361  26.797  43.929   7.050
 7964POPC   C4A46362  26.866  43.846   7.350
 7964POPC   C1B46363  26.596  43.716   6.450
 7964POPC   C2B46364  26.566  43.737   6.750
 7964POPC   C3B46365  26.638  43.734   7.050
 7964POPC   C4B46366  26.578  43.802   7.350
 7965POPC   NC346367   2.007  28.368   5.550
 7965POPC   PO446368   2.002  28.387   5.850
 7965POPC   GL146369   1.952  28.326   6.150
 7965POPC   GL246370   2.035  28.455   6.150
 7965POPC   C1A46371   1.994  28.381   6.450
 7965POPC   D2A46372   2.011  28.386   6.750
 7965POPC   C3A46373   1.990  28.347   7.050
 7965POPC   C4A46374   2.013  28.416   7.350
 7965POPC   C1B46375   2.181  28.510   6.450
 7965POPC   C2B46376   2.127  28.581   6.750
 7965POPC   C3B46377   2.177  28.571   7.050
 7965POPC   C4B46378   2.211  28.587   7.350
 7966POPC   NC346379  16.766  11.333   5.550
 7966POPC   PO446380  16.712  11.329   5.850
 7966POPC   GL146381  16.753  11.269   6.150
 7966POPC   GL246382  16.797  11.377   6.150
 7966POPC   C1A46383  16.762  11.349   6.450
 7966POPC   D2A46384  16.773  11.335   6.750
 7966POPC   C3A46385  16.741  11.338   7.050
 7966POPC   C4A46386  16.759  11.267   7.350
 7966POPC   C1B46387  16.880  11.459   6.450
 7966POPC   C2B46388  16.850  11.509   6.750
 7966POPC   C3B46389  16.892  11.498   7.050
 7966POPC   C4B46390  16.894  11.525   7.350
 7967POPC   NC346391   0.451  22.178   5.550
 7967POPC   PO446392   0.466  22.209   5.850
 7967POPC   GL146393   0.478  22.151   6.150
 7967POPC   GL246394   0.346  22.309   6.150
 7967POPC   C1A46395   0.467  22.151   6.450
 7967POPC   D2A46396   0.484  22.149   6.750
 7967POPC   C3A46397   0.415  22.177   7.050
 7967POPC   C4A46398   0.441  22.166   7.350
 7967POPC   C1B46399   0.309  22.386   6.450
 7967POPC   C2B46400   0.282  22.384   6.750
 7967POPC   C3B46401   0.332  22.423   7.050
 7967POPC   C4B46402   0.338  22.375   7.350
 7968POPC   NC346403   8.981  16.002   5.550
 7968POPC   PO446404   8.994  15.934   5.850
 7968POPC   GL146405   8.949  15.931   6.150
 7968POPC   GL246406   8.916  15.856   6.150
 7968POPC   C1A46407   8.998  15.921   6.450
 7968POPC   D2A46408   8.931  15.915   6.750
 7968POPC   C3A46409   8.974  15.994   7.050
 7968POPC   C4A46410   8.936  15.917   7.350
 7968POPC   C1B46411   8.867  15.779   6.450
 7968POPC   C2B46412   8.850  15.747   6.750
 7968POPC   C3B46413   8.823  15.755   7.050
 7968POPC   C4B46414   8.858  15.719   7.350
 7969POPC   NC346415  15.213  29.128   5.550
 7969POPC   PO446416  15.211  29.117   5.850
 7969POPC   GL146417  15.165  29.189   6.150
 7969POPC   GL246418  15.100  29.296   6.150
 7969POPC   C1A46419  15.148  29.158   6.450
 7969POPC   D2A46420  15.213  29.120   6.750
 7969POPC   C3A46421  15.146  29.161   7.050
 7969POPC   C4A46422  15.207  29.188   7.350
 7969POPC   C1B46423  15.138  29.408   6.450
 7969POPC   C2B46424  15.099  29.431   6.750
 7969POPC   C3B46425  15.157  29.385   7.050
 7969POPC   C4B46426  15.112  29.359   7.350
 7970POPC   NC346427  19.857  34.618   5.550
 7970POPC   PO446428  19.813  34.542   5.850
 7970POPC   GL146429  19.796  34.559   6.150
 7970POPC   GL246430  19.916  34.687   6.150
 7970POPC   C1A46431  19.837  34.576   6.450
 7970POPC   D2A46432  19.820  34.570   6.750
 7970POPC   C3A46433  19.791  34.552   7.050
 7970POPC   C4A46434  19.794  34.566   7.350
 7970POPC   C1B46435  20.044  34.681   6.450
 7970POPC   C2B46436  20.016  34.680   6.750
 7970POPC   C3B46437  20.070  34.699   7.050
 7970POPC   C4B46438  20.035  34.722   7.350
 7971POPC   NC346439   2.009   8.977   5.550
 7971POPC   PO446440   2.020   8.994   5.850
 7971POPC   GL146441   2.018   8.986   6.150
 7971POPC   GL246442   2.008   9.062   6.150
 7971POPC   C1A46443   2.035   8.968   6.450
 7971POPC   D2A46444   2.023   8.956   6.750
 7971POPC   C3A46445   1.986   8.963   7.050
 7971POPC   C4A46446   1.950   8.983   7.350
 7971POPC   C1B46447   2.094   9.197   6.450
 7971POPC   C2B46448   2.079   9.181   6.750
 7971POPC   C3B46449   2.073   9.174   7.050
 7971POPC   C4B46450   2.134   9.175   7.350
 7972POPC   NC346451  13.645  25.243   5.550
 7972POPC   PO446452  13.603  25.262   5.850
 7972POPC   GL146453  13.617  25.264   6.150
 7972POPC   GL246454  13.536  25.329   6.150
 7972POPC   C1A46455  13.671  25.259   6.450
 7972POPC   D2A46456  13.593  25.270   6.750
 7972POPC   C3A46457  13.613  25.242   7.050
 7972POPC   C4A46458  13.601  25.316   7.350
 7972POPC   C1B46459  13.477  25.435   6.450
 7972POPC   C2B46460  13.543  25.518   6.750
 7972POPC   C3B46461  13.516  25.526   7.050
 7972POPC   C4B46462  13.516  25.453   7.350
 7973POPC   NC346463   3.499  32.276   5.550
 7973POPC   PO446464   3.508  32.255   5.850
 7973POPC   GL146465   3.578  32.291   6.150
 7973POPC   GL246466   3.613  32.316   6.150
 7973POPC   C1A46467   3.495  32.250   6.450
 7973POPC   D2A46468   3.576  32.215   6.750
 7973POPC   C3A46469   3.492  32.296   7.050
 7973POPC   C4A46470   3.552  32.267   7.350
 7973POPC   C1B46471   3.677  32.442   6.450
 7973POPC   C2B46472   3.693  32.438   6.750
 7973POPC   C3B46473   3.756  32.469   7.050
 7973POPC   C4B46474   3.723  32.460   7.350
 7974POPC   NC346475  36.102  10.529   5.550
 7974POPC   PO446476  36.096  10.532   5.850
 7974POPC   GL146477  36.115  10.502   6.150
 7974POPC   GL246478  36.078  10.652   6.150
 7974POPC   C1A46479  36.089  10.560   6.450
 7974POPC   D2A46480  36.102  10.572   6.750
 7974POPC   C3A46481  36.137  10.507   7.050
 7974POPC   C4A46482  36.090  10.515   7.350
 7974POPC   C1B46483  35.946  10.664   6.450
 7974POPC   C2B46484  35.976  10.747   6.750
 7974POPC   C3B46485  35.994  10.760   7.050
 7974POPC   C4B46486  35.915  10.732   7.350
 7975POPC   NC346487  24.510   1.254   5.550
 7975POPC   PO446488  24.500   1.201   5.850
 7975POPC   GL146489  24.492   1.211   6.150
 7975POPC   GL246490  24.461   1.054   6.150
 7975POPC   C1A46491  24.524   1.177   6.450
 7975POPC   D2A46492  24.530   1.213   6.750
 7975POPC   C3A46493  24.517   1.217   7.050
 7975POPC   C4A46494  24.480   1.196   7.350
 7975POPC   C1B46495  24.382   0.959   6.450
 7975POPC   C2B46496  24.398   0.999   6.750
 7975POPC   C3B46497  24.342   0.982   7.050
 7975POPC   C4B46498  24.394   1.009   7.350
 7976POPC   NC346499   5.830  18.271   5.550
 7976POPC   PO446500   5.860  18.280   5.850
 7976POPC   GL146501   5.827  18.311   6.150
 7976POPC   GL246502   5.804  18.181   6.150
 7976POPC   C1A46503   5.895  18.264   6.450
 7976POPC   D2A46504   5.857  18.284   6.750
 7976POPC   C3A46505   5.851  18.306   7.050
 7976POPC   C4A46506   5.842  18.318   7.350
 7976POPC   C1B46507   5.706  18.100   6.450
 7976POPC   C2B46508   5.660  18.056   6.750
 7976POPC   C3B46509   5.719  18.074   7.050
 7976POPC   C4B46510   5.738  18.089   7.350
 7977POPC   NC346511  33.006  11.296   5.550
 7977POPC   PO446512  32.996  11.289   5.850
 7977POPC   GL146513  33.044  11.307   6.150
 7977POPC   GL246514  32.885  11.376   6.150
 7977POPC   C1A46515  33.016  11.303   6.450
 7977POPC   D2A46516  32.976  11.335   6.750
 7977POPC   C3A46517  33.034  11.287   7.050
 7977POPC   C4A46518  33.072  11.261   7.350
 7977POPC   C1B46519  32.796  11.407   6.450
 7977POPC   C2B46520  32.796  11.405   6.750
 7977POPC   C3B46521  32.842  11.413   7.050
 7977POPC   C4B46522  32.795  11.436   7.350
 7978POPC   NC346523  14.435  42.379   5.550
 7978POPC   PO446524  14.436  42.366   5.850
 7978POPC   GL146525  14.415  42.343   6.150
 7978POPC   GL246526  14.478  42.365   6.150
 7978POPC   C1A46527  14.412  42.365   6.450
 7978POPC   D2A46528  14.443  42.356   6.750
 7978POPC   C3A46529  14.449  42.348   7.050
 7978POPC   C4A46530  14.413  42.343   7.350
 7978POPC   C1B46531  14.645  42.459   6.450
 7978POPC   C2B46532  14.569  42.507   6.750
 7978POPC   C3B46533  14.607  42.470   7.050
 7978POPC   C4B46534  14.597  42.504   7.350
 7979POPC   NC346535   0.437   8.173   5.550
 7979POPC   PO446536   0.395   8.183   5.850
 7979POPC   GL146537   0.407   8.197   6.150
 7979POPC   GL246538   0.528   8.110   6.150
 7979POPC   C1A46539   0.390   8.227   6.450
 7979POPC   D2A46540   0.465   8.195   6.750
 7979POPC   C3A46541   0.439   8.220   7.050
 7979POPC   C4A46542   0.397   8.153   7.350
 7979POPC   C1B46543   0.599   7.954   6.450
 7979POPC   C2B46544   0.548   8.012   6.750
 7979POPC   C3B46545   0.599   8.019   7.050
 7979POPC   C4B46546   0.598   7.951   7.350
 7980POPC   NC346547   3.556  11.336   5.550
 7980POPC   PO446548   3.534  11.284   5.850
 7980POPC   GL146549   3.583  11.290   6.150
 7980POPC   GL246550   3.600  11.191   6.150
 7980POPC   C1A46551   3.499  11.272   6.450
 7980POPC   D2A46552   3.562  11.337   6.750
 7980POPC   C3A46553   3.560  11.301   7.050
 7980POPC   C4A46554   3.554  11.324   7.350
 7980POPC   C1B46555   3.677  11.160   6.450
 7980POPC   C2B46556   3.702  11.136   6.750
 7980POPC   C3B46557   3.715  11.111   7.050
 7980POPC   C4B46558   3.728  11.101   7.350
 7981POPC   NC346559   9.746  38.494   5.550
 7981POPC   PO446560   9.723  38.467   5.850
 7981POPC   GL146561   9.751  38.409   6.150
 7981POPC   GL246562   9.585  38.541   6.150
 7981POPC   C1A46563   9.720  38.444   6.450
 7981POPC   D2A46564   9.721  38.478   6.750
 7981POPC   C3A46565   9.702  38.464   7.050
 7981POPC   C4A46566   9.715  38.407   7.350
 7981POPC   C1B46567   9.482  38.530   6.450
 7981POPC   C2B46568   9.566  38.602   6.750
 7981POPC   C3B46569   9.561  38.517   7.050
 7981POPC   C4B46570   9.523  38.550   7.350
 7982POPC   NC346571  22.935   8.218   5.550
 7982POPC   PO446572  22.906   8.172   5.850
 7982POPC   GL146573  22.910   8.214   6.150
 7982POPC   GL246574  23.070   8.187   6.150
 7982POPC   C1A46575  22.971   8.209   6.450
 7982POPC   D2A46576  22.949   8.213   6.750
 7982POPC   C3A46577  22.941   8.191   7.050
 7982POPC   C4A46578  22.908   8.164   7.350
 7982POPC   C1B46579  23.193   8.287   6.450
 7982POPC   C2B46580  23.148   8.241   6.750
 7982POPC   C3B46581  23.155   8.284   7.050
 7982POPC   C4B46582  23.192   8.262   7.350
 7983POPC   NC346583  11.291  43.119   5.550
 7983POPC   PO446584  11.333  43.090   5.850
 7983POPC   GL146585  11.267  43.126   6.150
 7983POPC   GL246586  11.398  43.113   6.150
 7983POPC   C1A46587  11.339  43.072   6.450
 7983POPC   D2A46588  11.251  43.145   6.750
 7983POPC   C3A46589  11.309  43.112   7.050
 7983POPC   C4A46590  11.331  43.153   7.350
 7983POPC   C1B46591  11.496  43.171   6.450
 7983POPC   C2B46592  11.559  43.164   6.750
 7983POPC   C3B46593  11.565  43.180   7.050
 7983POPC   C4B46594  11.591  43.157   7.350
 7984POPC   NC346595  17.555  18.295   5.550
 7984POPC   PO446596  17.511  18.266   5.850
 7984POPC   GL146597  17.462  18.281   6.150
 7984POPC   GL246598  17.518  18.422   6.150
 7984POPC   C1A46599  17.460  18.327   6.450
 7984POPC   D2A46600  17.522  18.315   6.750
 7984POPC   C3A46601  17.552  18.271   7.050
 7984POPC   C4A46602  17.538  18.317   7.350
 7984POPC   C1B46603  17.578  18.562   6.450
 7984POPC   C2B46604  17.612  18.480   6.750
 7984POPC   C3B46605  17.567  18.551   7.050
 7984POPC   C4B46606  17.590  18.520   7.350
 7985POPC   NC346607  12.120  19.026   5.550
 7985POPC   PO446608  12.088  19.086   5.850
 7985POPC   GL146609  12.052  19.100   6.150
 7985POPC   GL246610  12.204  19.120   6.150
 7985POPC   C1A46611  12.069  19.064   6.450
 7985POPC   D2A46612  12.059  19.092   6.750
 7985POPC   C3A46613  12.077  19.087   7.050
 7985POPC   C4A46614  12.093  19.016   7.350
 7985POPC   C1B46615  12.283  19.141   6.450
 7985POPC   C2B46616  12.321  19.131   6.750
 7985POPC   C3B46617  12.280  19.093   7.050
 7985POPC   C4B46618  12.290  19.095   7.350
 7986POPC   NC346619   6.629   8.155   5.550
 7986POPC   PO446620   6.670   8.203   5.850
 7986POPC   GL146621   6.684   8.194   6.150
 7986POPC   GL246622   6.701   8.103   6.150
 7986POPC   C1A46623   6.639   8.155   6.450
 7986POPC   D2A46624   6.636   8.244   6.750
 7986POPC   C3A46625   6.595   8.147   7.050
 7986POPC   C4A46626   6.615   8.239   7.350
 7986POPC   C1B46627   6.694   7.986   6.450
 7986POPC   C2B46628   6.676   7.950   6.750
 7986POPC   C3B46629   6.641   7.950   7.050
 7986POPC   C4B46630   6.644   7.943   7.350
 7987POPC   NC346631  21.398  35.344   5.550
 7987POPC   PO446632  21.408  35.303   5.850
 7987POPC   GL146633  21.381  35.387   6.150
 7987POPC   GL246634  21.300  35.509   6.150
 7987POPC   C1A46635  21.343  35.379   6.450
 7987POPC   D2A46636  21.343  35.329   6.750
 7987POPC   C3A46637  21.348  35.401   7.050
 7987POPC   C4A46638  21.388  35.309   7.350
 7987POPC   C1B46639  21.290  35.567   6.450
 7987POPC   C2B46640  21.254  35.595   6.750
 7987POPC   C3B46641  21.257  35.542   7.050
 7987POPC   C4B46642  21.249  35.557   7.350
 7988POPC   NC346643  22.172  38.482   5.550
 7988POPC   PO446644  22.161  38.438   5.850
 7988POPC   GL146645  22.198  38.488   6.150
 7988POPC   GL246646  22.050  38.564   6.150
 7988POPC   C1A46647  22.153  38.423   6.450
 7988POPC   D2A46648  22.203  38.432   6.750
 7988POPC   C3A46649  22.157  38.421   7.050
 7988POPC   C4A46650  22.190  38.482   7.350
 7988POPC   C1B46651  21.980  38.701   6.450
 7988POPC   C2B46652  21.989  38.657   6.750
 7988POPC   C3B46653  22.043  38.625   7.050
 7988POPC   C4B46654  22.019  38.646   7.350
 7989POPC   NC346655  18.297  10.556   5.550
 7989POPC   PO446656  18.331  10.487   5.850
 7989POPC   GL146657  18.290  10.569   6.150
 7989POPC   GL246658  18.336  10.392   6.150
 7989POPC   C1A46659  18.321  10.547   6.450
 7989POPC   D2A46660  18.329  10.553   6.750
 7989POPC   C3A46661  18.314  10.563   7.050
 7989POPC   C4A46662  18.309  10.491   7.350
 7989POPC   C1B46663  18.281  10.244   6.450
 7989POPC   C2B46664  18.355  10.228   6.750
 7989POPC   C3B46665  18.281  10.280   7.050
 7989POPC   C4B46666  18.278  10.321   7.350
 7990POPC   NC346667  22.135  23.676   5.550
 7990POPC   PO446668  22.166  23.751   5.850
 7990POPC   GL146669  22.147  23.681   6.150
 7990POPC   GL246670  22.145  23.885   6.150
 7990POPC   C1A46671  22.154  23.680   6.450
 7990POPC   D2A46672  22.121  23.722   6.750
 7990POPC   C3A46673  22.185  23.720   7.050
 7990POPC   C4A46674  22.187  23.719   7.350
 7990POPC   C1B46675  22.138  23.970   6.450
 7990POPC   C2B46676  22.199  23.931   6.750
 7990POPC   C3B46677  22.170  23.982   7.050
 7990POPC   C4B46678  22.228  23.951   7.350
 7991POPC   NC346679  29.187  35.341   5.550
 7991POPC   PO446680  29.184  35.324   5.850
 7991POPC   GL146681  29.185  35.378   6.150
 7991POPC   GL246682  29.271  35.404   6.150
 7991POPC   C1A46683  29.178  35.327   6.450
 7991POPC   D2A46684  29.127  35.361   6.750
 7991POPC   C3A46685  29.097  35.335   7.050
 7991POPC   C4A46686  29.145  35.327   7.350
 7991POPC   C1B46687  29.438  35.404   6.450
 7991POPC   C2B46688  29.397  35.437   6.750
 7991POPC   C3B46689  29.362  35.365   7.050
 7991POPC   C4B46690  29.414  35.429   7.350
 7992POPC   NC346691   2.746   5.914   5.550
 7992POPC   PO446692   2.723   5.916   5.850
 7992POPC   GL146693   2.759   5.887   6.150
 7992POPC   GL246694   2.883   5.870   6.150
 7992POPC   C1A46695   2.795   5.919   6.450
 7992POPC   D2A46696   2.758   5.895   6.750
 7992POPC   C3A46697   2.797   5.917   7.050
 7992POPC   C4A46698   2.726   5.822   7.350
 7992POPC   C1B46699   3.011   5.895   6.450
 7992POPC   C2B46700   3.016   5.965   6.750
 7992POPC   C3B46701   3.003   5.903   7.050
 7992POPC   C4B46702   3.016   5.967   7.350
 7993POPC   NC346703  23.671  15.171   5.550
 7993POPC   PO446704  23.742  15.145   5.850
 7993POPC   GL146705  23.731  15.164   6.150
 7993POPC   GL246706  23.714  15.057   6.150
 7993POPC   C1A46707  23.753  15.189   6.450
 7993POPC   D2A46708  23.701  15.149   6.750
 7993POPC   C3A46709  23.717  15.186   7.050
 7993POPC   C4A46710  23.747  15.156   7.350
 7993POPC   C1B46711  23.673  14.942   6.450
 7993POPC   C2B46712  23.746  14.913   6.750
 7993POPC   C3B46713  23.667  14.949   7.050
 7993POPC   C4B46714  23.742  14.886   7.350
 7994POPC   NC346715  22.897  26.006   5.550
 7994POPC   PO446716  22.947  25.993   5.850
 7994POPC   GL146717  22.986  26.044   6.150
 7994POPC   GL246718  22.866  25.980   6.150
 7994POPC   C1A46719  22.893  25.997   6.450
 7994POPC   D2A46720  22.964  26.039   6.750
 7994POPC   C3A46721  22.981  26.066   7.050
 7994POPC   C4A46722  22.889  26.005   7.350
 7994POPC   C1B46723  22.753  25.980   6.450
 7994POPC   C2B46724  22.744  25.933   6.750
 7994POPC   C3B46725  22.706  25.972   7.050
 7994POPC   C4B46726  22.750  25.971   7.350
 7995POPC   NC346727   5.128  20.653   5.550
 7995POPC   PO446728   5.127  20.627   5.850
 7995POPC   GL146729   5.103  20.623   6.150
 7995POPC   GL246730   4.956  20.582   6.150
 7995POPC   C1A46731   5.076  20.567   6.450
 7995POPC   D2A46732   5.056  20.603   6.750
 7995POPC   C3A46733   5.124  20.582   7.050
 7995POPC   C4A46734   5.130  20.636   7.350
 7995POPC   C1B46735   4.829  20.513   6.450
 7995POPC   C2B46736   4.841  20.537   6.750
 7995POPC   C3B46737   4.830  20.565   7.050
 7995POPC   C4B46738   4.897  20.550   7.350
 7996POPC   NC346739  16.711  40.805   5.550
 7996POPC   PO446740  16.694  40.741   5.850
 7996POPC   GL146741  16.764  40.805   6.150
 7996POPC   GL246742  16.666  40.828   6.150
 7996POPC   C1A46743  16.690  40.787   6.450
 7996POPC   D2A46744  16.762  40.802   6.750
 7996POPC   C3A46745  16.760  40.806   7.050
 7996POPC   C4A46746  16.764  40.799   7.350
 7996POPC   C1B46747  16.459  40.862   6.450
 7996POPC   C2B46748  16.533  40.872   6.750
 7996POPC   C3B46749  16.500  40.872   7.050
 7996POPC   C4B46750  16.475  40.853   7.350
 7997POPC   NC346751   5.913  13.601   5.550
 7997POPC   PO446752   5.860  13.603   5.850
 7997POPC   GL146753   5.888  13.592   6.150
 7997POPC   GL246754   5.971  13.749   6.150
 7997POPC   C1A46755   5.886  13.650   6.450
 7997POPC   D2A46756   5.822  13.627   6.750
 7997POPC   C3A46757   5.820  13.660   7.050
 7997POPC   C4A46758   5.886  13.600   7.350
 7997POPC   C1B46759   6.059  13.803   6.450
 7997POPC   C2B46760   6.015  13.783   6.750
 7997POPC   C3B46761   6.058  13.844   7.050
 7997POPC   C4B46762   6.042  13.828   7.350
 7998POPC   NC346763  33.058  31.497   5.550
 7998POPC   PO446764  33.014  31.441   5.850
 7998POPC   GL146765  32.997  31.468   6.150
 7998POPC   GL246766  32.978  31.319   6.150
 7998POPC   C1A46767  32.986  31.426   6.450
 7998POPC   D2A46768  33.014  31.464   6.750
 7998POPC   C3A46769  33.048  31.445   7.050
 7998POPC   C4A46770  32.992  31.477   7.350
 7998POPC   C1B46771  32.975  31.247   6.450
 7998POPC   C2B46772  32.920  31.261   6.750
 7998POPC   C3B46773  32.956  31.258   7.050
 7998POPC   C4B46774  32.941  31.237   7.350
 7999POPC   NC346775  36.912   5.887   5.550
 7999POPC   PO446776  36.942   5.880   5.850
 7999POPC   GL146777  36.885   5.851   6.150
 7999POPC   GL246778  36.956   5.991   6.150
 7999POPC   C1A46779  36.888   5.914   6.450
 7999POPC   D2A46780  36.868   5.916   6.750
 7999POPC   C3A46781  36.930   5.917   7.050
 7999POPC   C4A46782  36.924   5.861   7.350
 7999POPC   C1B46783  37.102   6.050   6.450
 7999POPC   C2B46784  37.095   6.085   6.750
 7999POPC   C3B46785  37.087   6.003   7.050
 7999POPC   C4B46786  37.041   6.020   7.350
 8000POPC   NC346787  31.469  12.850   5.550
 8000POPC   PO446788  31.496  12.854   5.850
 8000POPC   GL146789  31.451  12.841   6.150
 8000POPC   GL246790  31.529  12.946   6.150
 8000POPC   C1A46791  31.495  12.813   6.450
 8000POPC   D2A46792  31.439  12.858   6.750
 8000POPC   C3A46793  31.427  12.843   7.050
 8000POPC   C4A46794  31.449  12.874   7.350
 8000POPC   C1B46795  31.564  13.128   6.450
 8000POPC   C2B46796  31.548  13.128   6.750
 8000POPC   C3B46797  31.584  13.077   7.050
 8000POPC   C4B46798  31.541  13.060   7.350
 8001POPC   NC346799  41.525  25.234   5.550
 8001POPC   PO446800  41.546  25.223   5.850
 8001POPC   GL146801  41.513  25.260   6.150
 8001POPC   GL246802  41.712  25.258   6.150
 8001POPC   C1A46803  41.570  25.267   6.450
 8001POPC   D2A46804  41.594  25.282   6.750
 8001POPC   C3A46805  41.511  25.218   7.050
 8001POPC   C4A46806  41.556  25.279   7.350
 8001POPC   C1B46807  41.805  25.206   6.450
 8001POPC   C2B46808  41.761  25.128   6.750
 8001POPC   C3B46809  41.825  25.182   7.050
 8001POPC   C4B46810  41.764  25.122   7.350
 8002POPC   NC346811   5.093  33.004   5.550
 8002POPC   PO446812   5.120  33.021   5.850
 8002POPC   GL146813   5.085  32.984   6.150
 8002POPC   GL246814   5.003  32.921   6.150
 8002POPC   C1A46815   5.070  33.018   6.450
 8002POPC   D2A46816   5.050  33.010   6.750
 8002POPC   C3A46817   5.112  33.004   7.050
 8002POPC   C4A46818   5.072  32.975   7.350
 8002POPC   C1B46819   4.883  32.811   6.450
 8002POPC   C2B46820   4.866  32.868   6.750
 8002POPC   C3B46821   4.911  32.823   7.050
 8002POPC   C4B46822   4.867  32.845   7.350
 8003POPC   NC346823  24.479  37.637   5.550
 8003POPC   PO446824  24.447  37.717   5.850
 8003POPC   GL146825  24.514  37.649   6.150
 8003POPC   GL246826  24.531  37.845   6.150
 8003POPC   C1A46827  24.487  37.633   6.450
 8003POPC   D2A46828  24.530  37.637   6.750
 8003POPC   C3A46829  24.440  37.720   7.050
 8003POPC   C4A46830  24.458  37.717   7.350
 8003POPC   C1B46831  24.588  37.941   6.450
 8003POPC   C2B46832  24.565  37.871   6.750
 8003POPC   C3B46833  24.527  37.926   7.050
 8003POPC   C4B46834  24.604  37.962   7.350
 8004POPC   NC346835   8.976  27.626   5.550
 8004POPC   PO446836   8.952  27.556   5.850
 8004POPC   GL146837   8.937  27.631   6.150
 8004POPC   GL246838   8.855  27.728   6.150
 8004POPC   C1A46839   8.995  27.603   6.450
 8004POPC   D2A46840   8.969  27.599   6.750
 8004POPC   C3A46841   8.923  27.616   7.050
 8004POPC   C4A46842   8.980  27.604   7.350
 8004POPC   C1B46843   8.832  27.825   6.450
 8004POPC   C2B46844   8.857  27.773   6.750
 8004POPC   C3B46845   8.816  27.783   7.050
 8004POPC   C4B46846   8.829  27.789   7.350
 8005POPC   NC346847   5.915  26.021   5.550
 8005POPC   PO446848   5.898  26.025   5.850
 8005POPC   GL146849   5.833  26.025   6.150
 8005POPC   GL246850   5.954  26.118   6.150
 8005POPC   C1A46851   5.874  26.054   6.450
 8005POPC   D2A46852   5.893  26.037   6.750
 8005POPC   C3A46853   5.875  26.063   7.050
 8005POPC   C4A46854   5.889  26.016   7.350
 8005POPC   C1B46855   6.025  26.241   6.450
 8005POPC   C2B46856   6.062  26.231   6.750
 8005POPC   C3B46857   6.017  26.232   7.050
 8005POPC   C4B46858   6.015  26.246   7.350
 8006POPC   NC346859  43.079   5.857   5.550
 8006POPC   PO446860  43.075   5.909   5.850
 8006POPC   GL146861  43.092   5.904   6.150
 8006POPC   GL246862  43.058   5.800   6.150
 8006POPC   C1A46863  43.150   5.850   6.450
 8006POPC   D2A46864  43.137   5.885   6.750
 8006POPC   C3A46865  43.061   5.833   7.050
 8006POPC   C4A46866  43.118   5.892   7.350
 8006POPC   C1B46867  42.993   5.639   6.450
 8006POPC   C2B46868  42.989   5.595   6.750
 8006POPC   C3B46869  43.027   5.645   7.050
 8006POPC   C4B46870  43.037   5.599   7.350
 8007POPC   NC346871  29.188  36.941   5.550
 8007POPC   PO446872  29.166  36.931   5.850
 8007POPC   GL146873  29.181  36.868   6.150
 8007POPC   GL246874  29.282  36.934   6.150
 8007POPC   C1A46875  29.138  36.905   6.450
 8007POPC   D2A46876  29.123  36.916   6.750
 8007POPC   C3A46877  29.188  36.864   7.050
 8007POPC   C4A46878  29.167  36.859   7.350
 8007POPC   C1B46879  29.377  36.872   6.450
 8007POPC   C2B46880  29.402  36.959   6.750
 8007POPC   C3B46881  29.365  36.912   7.050
 8007POPC   C4B46882  29.380  36.916   7.350
 8008POPC   NC346883  13.657  15.998   5.550
 8008POPC   PO446884  13.633  15.960   5.850
 8008POPC   GL146885  13.621  15.970   6.150
 8008POPC   GL246886  13.710  15.840   6.150
 8008POPC   C1A46887  13.670  15.932   6.450
 8008POPC   D2A46888  13.675  15.997   6.750
 8008POPC   C3A46889  13.651  15.989   7.050
 8008POPC   C4A46890  13.579  15.980   7.350
 8008POPC   C1B46891  13.813  15.774   6.450
 8008POPC   C2B46892  13.803  15.825   6.750
 8008POPC   C3B46893  13.775  15.735   7.050
 8008POPC   C4B46894  13.827  15.833   7.350
 8009POPC   NC346895  41.571  35.348   5.550
 8009POPC   PO446896  41.520  35.359   5.850
 8009POPC   GL146897  41.524  35.398   6.150
 8009POPC   GL246898  41.608  35.238   6.150
 8009POPC   C1A46899  41.598  35.379   6.450
 8009POPC   D2A46900  41.604  35.318   6.750
 8009POPC   C3A46901  41.604  35.309   7.050
 8009POPC   C4A46902  41.583  35.326   7.350
 8009POPC   C1B46903  41.736  35.186   6.450
 8009POPC   C2B46904  41.790  35.207   6.750
 8009POPC   C3B46905  41.728  35.235   7.050
 8009POPC   C4B46906  41.738  35.185   7.350
 8010POPC   NC346907   1.958  37.707   5.550
 8010POPC   PO446908   1.962  37.711   5.850
 8010POPC   GL146909   2.019  37.666   6.150
 8010POPC   GL246910   1.891  37.710   6.150
 8010POPC   C1A46911   2.038  37.646   6.450
 8010POPC   D2A46912   1.957  37.665   6.750
 8010POPC   C3A46913   1.956  37.691   7.050
 8010POPC   C4A46914   1.994  37.700   7.350
 8010POPC   C1B46915   1.785  37.773   6.450
 8010POPC   C2B46916   1.747  37.759   6.750
 8010POPC   C3B46917   1.757  37.749   7.050
 8010POPC   C4B46918   1.780  37.782   7.350
 8011POPC   NC346919  29.894  26.831   5.550
 8011POPC   PO446920  29.937  26.773   5.850
 8011POPC   GL146921  29.905  26.848   6.150
 8011POPC   GL246922  29.907  26.691   6.150
 8011POPC   C1A46923  29.874  26.796   6.450
 8011POPC   D2A46924  29.903  26.815   6.750
 8011POPC   C3A46925  29.955  26.820   7.050
 8011POPC   C4A46926  29.951  26.812   7.350
 8011POPC   C1B46927  29.879  26.597   6.450
 8011POPC   C2B46928  29.920  26.569   6.750
 8011POPC   C3B46929  29.883  26.561   7.050
 8011POPC   C4B46930  29.919  26.545   7.350
 8012POPC   NC346931  36.094  26.017   5.550
 8012POPC   PO446932  36.107  26.075   5.850
 8012POPC   GL146933  36.098  26.071   6.150
 8012POPC   GL246934  36.047  26.167   6.150
 8012POPC   C1A46935  36.115  26.064   6.450
 8012POPC   D2A46936  36.118  26.055   6.750
 8012POPC   C3A46937  36.115  26.009   7.050
 8012POPC   C4A46938  36.128  26.003   7.350
 8012POPC   C1B46939  36.023  26.300   6.450
 8012POPC   C2B46940  36.004  26.289   6.750
 8012POPC   C3B46941  36.019  26.256   7.050
 8012POPC   C4B46942  36.027  26.240   7.350
 8013POPC   NC346943   8.932  20.638   5.550
 8013POPC   PO446944   8.934  20.587   5.850
 8013POPC   GL146945   8.927  20.611   6.150
 8013POPC   GL246946   8.985  20.511   6.150
 8013POPC   C1A46947   9.006  20.658   6.450
 8013POPC   D2A46948   9.004  20.637   6.750
 8013POPC   C3A46949   8.968  20.611   7.050
 8013POPC   C4A46950   8.942  20.569   7.350
 8013POPC   C1B46951   8.929  20.384   6.450
 8013POPC   C2B46952   8.914  20.405   6.750
 8013POPC   C3B46953   8.969  20.329   7.050
 8013POPC   C4B46954   8.953  20.321   7.350
 8014POPC   NC346955  23.691  33.013   5.550
 8014POPC   PO446956  23.762  33.054   5.850
 8014POPC   GL146957  23.762  33.017   6.150
 8014POPC   GL246958  23.848  32.987   6.150
 8014POPC   C1A46959  23.724  33.060   6.450
 8014POPC   D2A46960  23.688  33.042   6.750
 8014POPC   C3A46961  23.683  33.057   7.050
 8014POPC   C4A46962  23.718  33.010   7.350
 8014POPC   C1B46963  23.933  32.933   6.450
 8014POPC   C2B46964  23.893  32.884   6.750
 8014POPC   C3B46965  23.945  32.882   7.050
 8014POPC   C4B46966  23.948  32.931   7.350
 8015POPC   NC346967  44.688  25.993   5.550
 8015POPC   PO446968  44.648  26.036   5.850
 8015POPC   GL146969  44.681  26.009   6.150
 8015POPC   GL246970  44.721  25.966   6.150
 8015POPC   C1A46971  44.648  26.052   6.450
 8015POPC   D2A46972  44.671  26.009   6.750
 8015POPC   C3A46973  44.694  26.012   7.050
 8015POPC   C4A46974  44.710  25.997   7.350
 8015POPC   C1B46975  44.644  25.746   6.450
 8015POPC   C2B46976  44.706  25.759   6.750
 8015POPC   C3B46977  44.695  25.823   7.050
 8015POPC   C4B46978  44.658  25.751   7.350
 8016POPC   NC346979  30.698   7.400   5.550
 8016POPC   PO446980  30.722   7.405   5.850
 8016POPC   GL146981  30.712   7.469   6.150
 8016POPC   GL246982  30.580   7.495   6.150
 8016POPC   C1A46983  30.653   7.439   6.450
 8016POPC   D2A46984  30.658   7.383   6.750
 8016POPC   C3A46985  30.681   7.427   7.050
 8016POPC   C4A46986  30.721   7.438   7.350
 8016POPC   C1B46987  30.497   7.547   6.450
 8016POPC   C2B46988  30.473   7.534   6.750
 8016POPC   C3B46989  30.470   7.594   7.050
 8016POPC   C4B46990  30.526   7.612   7.350
 8017POPC   NC346991  42.335  26.823   5.550
 8017POPC   PO446992  42.384  26.781   5.850
 8017POPC   GL146993  42.347  26.770   6.150
 8017POPC   GL246994  42.473  26.746   6.150
 8017POPC   C1A46995  42.356  26.852   6.450
 8017POPC   D2A46996  42.337  26.841   6.750
 8017POPC   C3A46997  42.289  26.835   7.050
 8017POPC   C4A46998  42.329  26.817   7.350
 8017POPC   C1B46999  42.626  26.748   6.450
 8017POPC   C2B47000  42.594  26.791   6.750
 8017POPC   C3B47001  42.552  26.805   7.050
 8017POPC   C4B47002  42.627  26.769   7.350
 8018POPC   NC347003  13.583   7.401   5.550
 8018POPC   PO447004  13.630   7.427   5.850
 8018POPC   GL147005  13.640   7.375   6.150
 8018POPC   GL247006  13.566   7.460   6.150
 8018POPC   C1A47007  13.626   7.408   6.450
 8018POPC   D2A47008  13.618   7.374   6.750
 8018POPC   C3A47009  13.617   7.396   7.050
 8018POPC   C4A47010  13.653   7.468   7.350
 8018POPC   C1B47011  13.487   7.607   6.450
 8018POPC   C2B47012  13.460   7.603   6.750
 8018POPC   C3B47013  13.462   7.627   7.050
 8018POPC   C4B47014  13.403   7.619   7.350
 8019POPC   NC347015  15.138  18.316   5.550
 8019POPC   PO447016  15.131  18.292   5.850
 8019POPC   GL147017  15.142  18.257   6.150
 8019POPC   GL247018  15.141  18.164   6.150
 8019POPC   C1A47019  15.180  18.267   6.450
 8019POPC   D2A47020  15.197  18.307   6.750
 8019POPC   C3A47021  15.228  18.285   7.050
 8019POPC   C4A47022  15.163  18.312   7.350
 8019POPC   C1B47023  14.978  18.130   6.450
 8019POPC   C2B47024  15.058  18.076   6.750
 8019POPC   C3B47025  15.001  18.068   7.050
 8019POPC   C4B47026  15.031  18.125   7.350
 8020POPC   NC347027  39.236  27.614   5.550
 8020POPC   PO447028  39.278  27.639   5.850
 8020POPC   GL147029  39.249  27.630   6.150
 8020POPC   GL247030  39.295  27.520   6.150
 8020POPC   C1A47031  39.213  27.568   6.450
 8020POPC   D2A47032  39.244  27.580   6.750
 8020POPC   C3A47033  39.240  27.634   7.050
 8020POPC   C4A47034  39.265  27.606   7.350
 8020POPC   C1B47035  39.389  27.405   6.450
 8020POPC   C2B47036  39.443  27.396   6.750
 8020POPC   C3B47037  39.391  27.431   7.050
 8020POPC   C4B47038  39.364  27.406   7.350
 8021POPC   NC347039  12.873  17.475   5.550
 8021POPC   PO447040  12.829  17.468   5.850
 8021POPC   GL147041  12.858  17.487   6.150
 8021POPC   GL247042  12.737  17.376   6.150
 8021POPC   C1A47043  12.889  17.471   6.450
 8021POPC   D2A47044  12.853  17.473   6.750
 8021POPC   C3A47045  12.867  17.529   7.050
 8021POPC   C4A47046  12.822  17.531   7.350
 8021POPC   C1B47047  12.717  17.286   6.450
 8021POPC   C2B47048  12.729  17.308   6.750
 8021POPC   C3B47049  12.724  17.313   7.050
 8021POPC   C4B47050  12.658  17.335   7.350
 8022POPC   NC347051  22.182  36.174   5.550
 8022POPC   PO447052  22.174  36.166   5.850
 8022POPC   GL147053  22.129  36.136   6.150
 8022POPC   GL247054  22.123  35.995   6.150
 8022POPC   C1A47055  22.201  36.106   6.450
 8022POPC   D2A47056  22.120  36.118   6.750
 8022POPC   C3A47057  22.115  36.118   7.050
 8022POPC   C4A47058  22.206  36.105   7.350
 8022POPC   C1B47059  22.129  35.928   6.450
 8022POPC   C2B47060  22.073  35.868   6.750
 8022POPC   C3B47061  22.113  35.846   7.050
 8022POPC   C4B47062  22.068  35.918   7.350
 8023POPC   NC347063  12.026   0.463   5.550
 8023POPC   PO447064  12.070   0.449   5.850
 8023POPC   GL147065  12.043   0.432   6.150
 8023POPC   GL247066  12.202   0.484   6.150
 8023POPC   C1A47067  12.044   0.452   6.450
 8023POPC   D2A47068  12.117   0.399   6.750
 8023POPC   C3A47069  12.057   0.486   7.050
 8023POPC   C4A47070  12.096   0.429   7.350
 8023POPC   C1B47071  12.303   0.583   6.450
 8023POPC   C2B47072  12.335   0.601   6.750
 8023POPC   C3B47073  12.327   0.612   7.050
 8023POPC   C4B47074  12.273   0.584   7.350
 8024POPC   NC347075   8.980  26.031   5.550
 8024POPC   PO447076   8.928  26.044   5.850
 8024POPC   GL147077   8.962  26.091   6.150
 8024POPC   GL247078   8.950  26.188   6.150
 8024POPC   C1A47079   9.020  26.030   6.450
 8024POPC   D2A47080   8.990  26.058   6.750
 8024POPC   C3A47081   8.956  26.079   7.050
 8024POPC   C4A47082   8.981  26.055   7.350
 8024POPC   C1B47083   8.958  26.274   6.450
 8024POPC   C2B47084   8.954  26.321   6.750
 8024POPC   C3B47085   8.947  26.331   7.050
 8024POPC   C4B47086   8.981  26.304   7.350
 8025POPC   NC347087  29.929   8.936   5.550
 8025POPC   PO447088  29.928   8.931   5.850
 8025POPC   GL147089  29.896   9.021   6.150
 8025POPC   GL247090  29.793   8.886   6.150
 8025POPC   C1A47091  29.935   8.949   6.450
 8025POPC   D2A47092  29.921   8.991   6.750
 8025POPC   C3A47093  29.885   9.014   7.050
 8025POPC   C4A47094  29.887   9.007   7.350
 8025POPC   C1B47095  29.713   8.813   6.450
 8025POPC   C2B47096  29.742   8.830   6.750
 8025POPC   C3B47097  29.710   8.816   7.050
 8025POPC   C4B47098  29.751   8.802   7.350
 8026POPC   NC347099  43.074  26.789   5.550
 8026POPC   PO447100  43.090  26.784   5.850
 8026POPC   GL147101  43.073  26.802   6.150
 8026POPC   GL247102  43.065  26.956   6.150
 8026POPC   C1A47103  43.103  26.814   6.450
 8026POPC   D2A47104  43.151  26.787   6.750
 8026POPC   C3A47105  43.097  26.865   7.050
 8026POPC   C4A47106  43.134  26.841   7.350
 8026POPC   C1B47107  43.011  27.061   6.450
 8026POPC   C2B47108  43.018  26.980   6.750
 8026POPC   C3B47109  42.933  27.075   7.050
 8026POPC   C4B47110  43.006  26.990   7.350
 8027POPC   NC347111  11.287   5.899   5.550
 8027POPC   PO447112  11.253   5.871   5.850
 8027POPC   GL147113  11.262   5.850   6.150
 8027POPC   GL247114  11.202   5.890   6.150
 8027POPC   C1A47115  11.273   5.819   6.450
 8027POPC   D2A47116  11.348   5.826   6.750
 8027POPC   C3A47117  11.307   5.918   7.050
 8027POPC   C4A47118  11.343   5.831   7.350
 8027POPC   C1B47119  11.075   6.009   6.450
 8027POPC   C2B47120  11.040   6.000   6.750
 8027POPC   C3B47121  11.051   6.024   7.050
 8027POPC   C4B47122  11.036   5.970   7.350
 8028POPC   NC347123  35.306  33.046   5.550
 8028POPC   PO447124  35.337  33.043   5.850
 8028POPC   GL147125  35.374  33.005   6.150
 8028POPC   GL247126  35.242  33.103   6.150
 8028POPC   C1A47127  35.392  33.001   6.450
 8028POPC   D2A47128  35.377  32.994   6.750
 8028POPC   C3A47129  35.399  33.024   7.050
 8028POPC   C4A47130  35.339  33.053   7.350
 8028POPC   C1B47131  35.145  33.167   6.450
 8028POPC   C2B47132  35.141  33.130   6.750
 8028POPC   C3B47133  35.097  33.169   7.050
 8028POPC   C4B47134  35.158  33.180   7.350
 8029POPC   NC347135   4.325  28.343   5.550
 8029POPC   PO447136   4.331  28.320   5.850
 8029POPC   GL147137   4.329  28.325   6.150
 8029POPC   GL247138   4.425  28.372   6.150
 8029POPC   C1A47139   4.276  28.364   6.450
 8029POPC   D2A47140   4.276  28.326   6.750
 8029POPC   C3A47141   4.361  28.340   7.050
 8029POPC   C4A47142   4.324  28.401   7.350
 8029POPC   C1B47143   4.579  28.462   6.450
 8029POPC   C2B47144   4.529  28.427   6.750
 8029POPC   C3B47145   4.563  28.396   7.050
 8029POPC   C4B47146   4.540  28.463   7.350
 8030POPC   NC347147  22.966  11.275   5.550
 8030POPC   PO447148  22.901  11.285   5.850
 8030POPC   GL147149  22.914  11.339   6.150
 8030POPC   GL247150  22.898  11.469   6.150
 8030POPC   C1A47151  22.902  11.332   6.450
 8030POPC   D2A47152  22.981  11.306   6.750
 8030POPC   C3A47153  22.955  11.275   7.050
 8030POPC   C4A47154  22.965  11.317   7.350
 8030POPC   C1B47155  22.886  11.502   6.450
 8030POPC   C2B47156  22.886  11.597   6.750
 8030POPC   C3B47157  22.964  11.516   7.050
 8030POPC   C4B47158  22.952  11.561   7.350
 8031POPC   NC347159  17.551  22.980   5.550
 8031POPC   PO447160  17.462  22.937   5.850
 8031POPC   GL147161  17.475  22.963   6.150
 8031POPC   GL247162  17.441  22.991   6.150
 8031POPC   C1A47163  17.469  22.933   6.450
 8031POPC   D2A47164  17.469  22.956   6.750
 8031POPC   C3A47165  17.467  22.981   7.050
 8031POPC   C4A47166  17.475  22.976   7.350
 8031POPC   C1B47167  17.346  23.081   6.450
 8031POPC   C2B47168  17.340  23.098   6.750
 8031POPC   C3B47169  17.319  23.142   7.050
 8031POPC   C4B47170  17.299  23.084   7.350
 8032POPC   NC347171  21.426   9.763   5.550
 8032POPC   PO447172  21.342   9.758   5.850
 8032POPC   GL147173  21.401   9.743   6.150
 8032POPC   GL247174  21.313   9.865   6.150
 8032POPC   C1A47175  21.342   9.765   6.450
 8032POPC   D2A47176  21.428   9.792   6.750
 8032POPC   C3A47177  21.410   9.724   7.050
 8032POPC   C4A47178  21.408   9.747   7.350
 8032POPC   C1B47179  21.278   9.992   6.450
 8032POPC   C2B47180  21.263   9.928   6.750
 8032POPC   C3B47181  21.252   9.922   7.050
 8032POPC   C4B47182  21.275   9.944   7.350
 8033POPC   NC347183  13.667  42.358   5.550
 8033POPC   PO447184  13.631  42.323   5.850
 8033POPC   GL147185  13.646  42.290   6.150
 8033POPC   GL247186  13.709  42.344   6.150
 8033POPC   C1A47187  13.638  42.384   6.450
 8033POPC   D2A47188  13.634  42.329   6.750
 8033POPC   C3A47189  13.644  42.376   7.050
 8033POPC   C4A47190  13.590  42.318   7.350
 8033POPC   C1B47191  13.885  42.367   6.450
 8033POPC   C2B47192  13.825  42.418   6.750
 8033POPC   C3B47193  13.848  42.400   7.050
 8033POPC   C4B47194  13.849  42.344   7.350
 8034POPC   NC347195  26.853  35.332   5.550
 8034POPC   PO447196  26.837  35.344   5.850
 8034POPC   GL147197  26.836  35.328   6.150
 8034POPC   GL247198  26.936  35.282   6.150
 8034POPC   C1A47199  26.857  35.390   6.450
 8034POPC   D2A47200  26.831  35.359   6.750
 8034POPC   C3A47201  26.789  35.387   7.050
 8034POPC   C4A47202  26.779  35.323   7.350
 8034POPC   C1B47203  27.012  35.132   6.450
 8034POPC   C2B47204  26.919  35.189   6.750
 8034POPC   C3B47205  27.011  35.112   7.050
 8034POPC   C4B47206  26.917  35.143   7.350
 8035POPC   NC347207  26.812  21.402   5.550
 8035POPC   PO447208  26.821  21.407   5.850
 8035POPC   GL147209  26.857  21.364   6.150
 8035POPC   GL247210  26.839  21.312   6.150
 8035POPC   C1A47211  26.807  21.368   6.450
 8035POPC   D2A47212  26.794  21.374   6.750
 8035POPC   C3A47213  26.788  21.387   7.050
 8035POPC   C4A47214  26.840  21.406   7.350
 8035POPC   C1B47215  26.956  21.214   6.450
 8035POPC   C2B47216  26.938  21.217   6.750
 8035POPC   C3B47217  26.930  21.219   7.050
 8035POPC   C4B47218  26.945  21.188   7.350
 8036POPC   NC347219  39.244   6.666   5.550
 8036POPC   PO447220  39.205   6.595   5.850
 8036POPC   GL147221  39.223   6.634   6.150
 8036POPC   GL247222  39.328   6.622   6.150
 8036POPC   C1A47223  39.245   6.686   6.450
 8036POPC   D2A47224  39.278   6.622   6.750
 8036POPC   C3A47225  39.189   6.622   7.050
 8036POPC   C4A47226  39.223   6.602   7.350
 8036POPC   C1B47227  39.460   6.554   6.450
 8036POPC   C2B47228  39.420   6.505   6.750
 8036POPC   C3B47229  39.415   6.523   7.050
 8036POPC   C4B47230  39.491   6.511   7.350
 8037POPC   NC347231   9.701   4.303   5.550
 8037POPC   PO447232   9.796   4.351   5.850
 8037POPC   GL147233   9.763   4.343   6.150
 8037POPC   GL247234   9.770   4.185   6.150
 8037POPC   C1A47235   9.739   4.280   6.450
 8037POPC   D2A47236   9.758   4.294   6.750
 8037POPC   C3A47237   9.775   4.321   7.050
 8037POPC   C4A47238   9.725   4.319   7.350
 8037POPC   C1B47239   9.771   4.086   6.450
 8037POPC   C2B47240   9.690   4.033   6.750
 8037POPC   C3B47241   9.679   4.070   7.050
 8037POPC   C4B47242   9.762   4.116   7.350
 8038POPC   NC347243  39.208  43.837   5.550
 8038POPC   PO447244  39.185  43.901   5.850
 8038POPC   GL147245  39.208  43.852   6.150
 8038POPC   GL247246  39.206  43.752   6.150
 8038POPC   C1A47247  39.243  43.899   6.450
 8038POPC   D2A47248  39.184  43.849   6.750
 8038POPC   C3A47249  39.238  43.907   7.050
 8038POPC   C4A47250  39.198  43.925   7.350
 8038POPC   C1B47251  39.116  43.655   6.450
 8038POPC   C2B47252  39.066  43.698   6.750
 8038POPC   C3B47253  39.100  43.674   7.050
 8038POPC   C4B47254  39.079  43.717   7.350
 8039POPC   NC347255  23.703  26.798   5.550
 8039POPC   PO447256  23.697  26.821   5.850
 8039POPC   GL147257  23.747  26.783   6.150
 8039POPC   GL247258  23.754  26.957   6.150
 8039POPC   C1A47259  23.709  26.845   6.450
 8039POPC   D2A47260  23.731  26.859   6.750
 8039POPC   C3A47261  23.737  26.807   7.050
 8039POPC   C4A47262  23.721  26.809   7.350
 8039POPC   C1B47263  23.740  27.105   6.450
 8039POPC   C2B47264  23.749  27.020   6.750
 8039POPC   C3B47265  23.729  27.116   7.050
 8039POPC   C4B47266  23.760  27.081   7.350
 8040POPC   NC347267  35.337  42.290   5.550
 8040POPC   PO447268  35.340  42.334   5.850
 8040POPC   GL147269  35.322  42.364   6.150
 8040POPC   GL247270  35.413  42.466   6.150
 8040POPC   C1A47271  35.398  42.329   6.450
 8040POPC   D2A47272  35.358  42.294   6.750
 8040POPC   C3A47273  35.339  42.343   7.050
 8040POPC   C4A47274  35.398  42.330   7.350
 8040POPC   C1B47275  35.503  42.554   6.450
 8040POPC   C2B47276  35.527  42.548   6.750
 8040POPC   C3B47277  35.553  42.513   7.050
 8040POPC   C4B47278  35.553  42.550   7.350
 8041POPC   NC347279  42.332  28.390   5.550
 8041POPC   PO447280  42.287  28.401   5.850
 8041POPC   GL147281  42.337  28.330   6.150
 8041POPC   GL247282  42.191  28.319   6.150
 8041POPC   C1A47283  42.365  28.374   6.450
 8041POPC   D2A47284  42.328  28.413   6.750
 8041POPC   C3A47285  42.351  28.412   7.050
 8041POPC   C4A47286  42.351  28.341   7.350
 8041POPC   C1B47287  42.125  28.211   6.450
 8041POPC   C2B47288  42.142  28.217   6.750
 8041POPC   C3B47289  42.090  28.271   7.050
 8041POPC   C4B47290  42.160  28.202   7.350
 8042POPC   NC347291   8.184  26.075   5.550
 8042POPC   PO447292   8.177  26.036   5.850
 8042POPC   GL147293   8.181  26.051   6.150
 8042POPC   GL247294   8.107  26.158   6.150
 8042POPC   C1A47295   8.182  26.063   6.450
 8042POPC   D2A47296   8.159  26.065   6.750
 8042POPC   C3A47297   8.191  26.062   7.050
 8042POPC   C4A47298   8.191  26.013   7.350
 8042POPC   C1B47299   7.992  26.233   6.450
 8042POPC   C2B47300   8.052  26.274   6.750
 8042POPC   C3B47301   8.042  26.199   7.050
 8042POPC   C4B47302   8.056  26.240   7.350
 8043POPC   NC347303  31.447  43.907   5.550
 8043POPC   PO447304  31.426  43.915   5.850
 8043POPC   GL147305  31.498  43.915   6.150
 8043POPC   GL247306  31.523  43.996   6.150
 8043POPC   C1A47307  31.508  43.886   6.450
 8043POPC   D2A47308  31.441  43.849   6.750
 8043POPC   C3A47309  31.437  43.917   7.050
 8043POPC   C4A47310  31.429  43.868   7.350
 8043POPC   C1B47311  31.550  44.158   6.450
 8043POPC   C2B47312  31.580  44.122   6.750
 8043POPC   C3B47313  31.489  44.147   7.050
 8043POPC   C4B47314  31.532  44.160   7.350
 8044POPC   NC347315  15.143  44.634   5.550
 8044POPC   PO447316  15.183  44.670   5.850
 8044POPC   GL147317  15.176  44.668   6.150
 8044POPC   GL247318  15.230  44.578   6.150
 8044POPC   C1A47319  15.153  44.646   6.450
 8044POPC   D2A47320  15.227  44.643   6.750
 8044POPC   C3A47321  15.152  44.663   7.050
 8044POPC   C4A47322  15.200  44.698   7.350
 8044POPC   C1B47323  15.243  44.436   6.450
 8044POPC   C2B47324  15.222  44.439   6.750
 8044POPC   C3B47325  15.199  44.456   7.050
 8044POPC   C4B47326  15.240  44.452   7.350
 8045POPC   NC347327  13.582   5.917   5.550
 8045POPC   PO447328  13.659   5.872   5.850
 8045POPC   GL147329  13.658   5.909   6.150
 8045POPC   GL247330  13.521   5.756   6.150
 8045POPC   C1A47331  13.629   5.893   6.450
 8045POPC   D2A47332  13.659   5.868   6.750
 8045POPC   C3A47333  13.628   5.865   7.050
 8045POPC   C4A47334  13.595   5.827   7.350
 8045POPC   C1B47335  13.466   5.685   6.450
 8045POPC   C2B47336  13.512   5.652   6.750
 8045POPC   C3B47337  13.476   5.636   7.050
 8045POPC   C4B47338  13.450   5.694   7.350
 8046POPC   NC347339  14.421  17.554   5.550
 8046POPC   PO447340  14.409  17.543   5.850
 8046POPC   GL147341  14.372  17.555   6.150
 8046POPC   GL247342  14.472  17.445   6.150
 8046POPC   C1A47343  14.368  17.557   6.450
 8046POPC   D2A47344  14.424  17.533   6.750
 8046POPC   C3A47345  14.423  17.549   7.050
 8046POPC   C4A47346  14.434  17.534   7.350
 8046POPC   C1B47347  14.559  17.257   6.450
 8046POPC   C2B47348  14.535  17.308   6.750
 8046POPC   C3B47349  14.495  17.321   7.050
 8046POPC   C4B47350  14.524  17.261   7.350
 8047POPC   NC347351  36.117   6.684   5.550
 8047POPC   PO447352  36.120   6.681   5.850
 8047POPC   GL147353  36.165   6.657   6.150
 8047POPC   GL247354  36.265   6.576   6.150
 8047POPC   C1A47355  36.103   6.606   6.450
 8047POPC   D2A47356  36.170   6.628   6.750
 8047POPC   C3A47357  36.122   6.680   7.050
 8047POPC   C4A47358  36.128   6.596   7.350
 8047POPC   C1B47359  36.325   6.545   6.450
 8047POPC   C2B47360  36.343   6.527   6.750
 8047POPC   C3B47361  36.378   6.544   7.050
 8047POPC   C4B47362  36.361   6.553   7.350
 8048POPC   NC347363  16.715   2.006   5.550
 8048POPC   PO447364  16.705   1.963   5.850
 8048POPC   GL147365  16.720   1.973   6.150
 8048POPC   GL247366  16.661   1.971   6.150
 8048POPC   C1A47367  16.703   1.945   6.450
 8048POPC   D2A47368  16.750   1.957   6.750
 8048POPC   C3A47369  16.733   2.009   7.050
 8048POPC   C4A47370  16.693   1.948   7.350
 8048POPC   C1B47371  16.484   1.843   6.450
 8048POPC   C2B47372  16.459   1.886   6.750
 8048POPC   C3B47373  16.470   1.851   7.050
 8048POPC   C4B47374  16.534   1.888   7.350
 8049POPC   NC347375  13.675  43.117   5.550
 8049POPC   PO447376  13.613  43.115   5.850
 8049POPC   GL147377  13.652  43.095   6.150
 8049POPC   GL247378  13.665  43.009   6.150
 8049POPC   C1A47379  13.633  43.110   6.450
 8049POPC   D2A47380  13.603  43.126   6.750
 8049POPC   C3A47381  13.590  43.108   7.050
 8049POPC   C4A47382  13.586  43.136   7.350
 8049POPC   C1B47383  13.832  42.889   6.450
 8049POPC   C2B47384  13.762  42.888   6.750
 8049POPC   C3B47385  13.748  42.932   7.050
 8049POPC   C4B47386  13.760  42.955   7.350
 8050POPC   NC347387  16.702   9.021   5.550
 8050POPC   PO447388  16.758   9.008   5.850
 8050POPC   GL147389  16.701   9.022   6.150
 8050POPC   GL247390  16.761   8.851   6.150
 8050POPC   C1A47391  16.763   8.944   6.450
 8050POPC   D2A47392  16.763   8.946   6.750
 8050POPC   C3A47393  16.694   8.995   7.050
 8050POPC   C4A47394  16.778   8.951   7.350
 8050POPC   C1B47395  16.678   8.698   6.450
 8050POPC   C2B47396  16.742   8.748   6.750
 8050POPC   C3B47397  16.717   8.726   7.050
 8050POPC   C4B47398  16.742   8.768   7.350
 8051POPC   NC347399   1.166  39.228   5.550
 8051POPC   PO447400   1.207  39.213   5.850
 8051POPC   GL147401   1.247  39.221   6.150
 8051POPC   GL247402   1.108  39.170   6.150
 8051POPC   C1A47403   1.262  39.252   6.450
 8051POPC   D2A47404   1.244  39.232   6.750
 8051POPC   C3A47405   1.234  39.200   7.050
 8051POPC   C4A47406   1.199  39.231   7.350
 8051POPC   C1B47407   1.104  39.010   6.450
 8051POPC   C2B47408   1.079  39.044   6.750
 8051POPC   C3B47409   1.121  38.991   7.050
 8051POPC   C4B47410   1.121  38.999   7.350
 8052POPC   NC347411   0.399   6.653   5.550
 8052POPC   PO447412   0.409   6.629   5.850
 8052POPC   GL147413   0.432   6.688   6.150
 8052POPC   GL247414   0.412   6.563   6.150
 8052POPC   C1A47415   0.398   6.687   6.450
 8052POPC   D2A47416   0.399   6.604   6.750
 8052POPC   C3A47417   0.411   6.620   7.050
 8052POPC   C4A47418   0.464   6.686   7.350
 8052POPC   C1B47419   0.427   6.347   6.450
 8052POPC   C2B47420   0.467   6.366   6.750
 8052POPC   C3B47421   0.424   6.423   7.050
 8052POPC   C4B47422   0.495   6.440   7.350
 8053POPC   NC347423   9.794  22.155   5.550
 8053POPC   PO447424   9.709  22.171   5.850
 8053POPC   GL147425   9.772  22.160   6.150
 8053POPC   GL247426   9.628  22.057   6.150
 8053POPC   C1A47427   9.701  22.201   6.450
 8053POPC   D2A47428   9.713  22.166   6.750
 8053POPC   C3A47429   9.742  22.191   7.050
 8053POPC   C4A47430   9.705  22.203   7.350
 8053POPC   C1B47431   9.561  22.002   6.450
 8053POPC   C2B47432   9.581  22.015   6.750
 8053POPC   C3B47433   9.528  22.048   7.050
 8053POPC   C4B47434   9.529  22.054   7.350
 8054POPC   NC347435  19.826  10.483   5.550
 8054POPC   PO447436  19.810  10.502   5.850
 8054POPC   GL147437  19.789  10.485   6.150
 8054POPC   GL247438  19.948  10.470   6.150
 8054POPC   C1A47439  19.789  10.552   6.450
 8054POPC   D2A47440  19.884  10.529   6.750
 8054POPC   C3A47441  19.870  10.499   7.050
 8054POPC   C4A47442  19.859  10.477   7.350
 8054POPC   C1B47443  19.972  10.395   6.450
 8054POPC   C2B47444  20.047  10.377   6.750
 8054POPC   C3B47445  20.021  10.347   7.050
 8054POPC   C4B47446  20.034  10.401   7.350
 8055POPC   NC347447  42.357  34.544   5.550
 8055POPC   PO447448  42.382  34.613   5.850
 8055POPC   GL147449  42.290  34.550   6.150
 8055POPC   GL247450  42.240  34.573   6.150
 8055POPC   C1A47451  42.316  34.617   6.450
 8055POPC   D2A47452  42.368  34.588   6.750
 8055POPC   C3A47453  42.328  34.556   7.050
 8055POPC   C4A47454  42.344  34.617   7.350
 8055POPC   C1B47455  42.118  34.659   6.450
 8055POPC   C2B47456  42.121  34.659   6.750
 8055POPC   C3B47457  42.051  34.619   7.050
 8055POPC   C4B47458  42.127  34.666   7.350
 8056POPC   NC347459  10.550  23.709   5.550
 8056POPC   PO447460  10.566  23.690   5.850
 8056POPC   GL147461  10.490  23.688   6.150
 8056POPC   GL247462  10.608  23.788   6.150
 8056POPC   C1A47463  10.563  23.698   6.450
 8056POPC   D2A47464  10.554  23.725   6.750
 8056POPC   C3A47465  10.542  23.689   7.050
 8056POPC   C4A47466  10.484  23.725   7.350
 8056POPC   C1B47467  10.602  23.920   6.450
 8056POPC   C2B47468  10.694  23.912   6.750
 8056POPC   C3B47469  10.655  23.917   7.050
 8056POPC   C4B47470  10.646  23.975   7.350
 8057POPC   NC347471  42.372  25.239   5.550
 8057POPC   PO447472  42.374  25.300   5.850
 8057POPC   GL147473  42.314  25.252   6.150
 8057POPC   GL247474  42.236  25.235   6.150
 8057POPC   C1A47475  42.366  25.216   6.450
 8057POPC   D2A47476  42.313  25.286   6.750
 8057POPC   C3A47477  42.325  25.297   7.050
 8057POPC   C4A47478  42.343  25.224   7.350
 8057POPC   C1B47479  42.119  25.202   6.450
 8057POPC   C2B47480  42.103  25.152   6.750
 8057POPC   C3B47481  42.067  25.136   7.050
 8057POPC   C4B47482  42.099  25.158   7.350
 8058POPC   NC347483  39.995  40.020   5.550
 8058POPC   PO447484  40.057  40.041   5.850
 8058POPC   GL147485  40.039  40.053   6.150
 8058POPC   GL247486  39.896  39.993   6.150
 8058POPC   C1A47487  39.960  39.959   6.450
 8058POPC   D2A47488  40.011  39.965   6.750
 8058POPC   C3A47489  39.966  39.966   7.050
 8058POPC   C4A47490  40.021  39.976   7.350
 8058POPC   C1B47491  39.791  40.074   6.450
 8058POPC   C2B47492  39.736  39.991   6.750
 8058POPC   C3B47493  39.737  39.995   7.050
 8058POPC   C4B47494  39.790  40.019   7.350
 8059POPC   NC347495  36.087   8.171   5.550
 8059POPC   PO447496  36.163   8.228   5.850
 8059POPC   GL147497  36.130   8.227   6.150
 8059POPC   GL247498  36.234   8.172   6.150
 8059POPC   C1A47499  36.125   8.205   6.450
 8059POPC   D2A47500  36.118   8.148   6.750
 8059POPC   C3A47501  36.128   8.241   7.050
 8059POPC   C4A47502  36.154   8.174   7.350
 8059POPC   C1B47503  36.309   8.068   6.450
 8059POPC   C2B47504  36.361   8.038   6.750
 8059POPC   C3B47505  36.357   8.100   7.050
 8059POPC   C4B47506  36.293   8.097   7.350
 8060POPC   NC347507  44.625  41.603   5.550
 8060POPC   PO447508  44.650  41.579   5.850
 8060POPC   GL147509  44.656  41.537   6.150
 8060POPC   GL247510  44.729  41.580   6.150
 8060POPC   C1A47511  44.623  41.585   6.450
 8060POPC   D2A47512  44.701  41.552   6.750
 8060POPC   C3A47513  44.712  41.517   7.050
 8060POPC   C4A47514  44.691  41.566   7.350
 8060POPC   C1B47515  44.922  41.690   6.450
 8060POPC   C2B47516  44.860  41.678   6.750
 8060POPC   C3B47517  44.874  41.663   7.050
 8060POPC   C4B47518  44.842  41.638   7.350
 8061POPC   NC347519  25.220  23.717   5.550
 8061POPC   PO447520  25.253  23.677   5.850
 8061POPC   GL147521  25.256  23.724   6.150
 8061POPC   GL247522  25.386  23.725   6.150
 8061POPC   C1A47523  25.260  23.700   6.450
 8061POPC   D2A47524  25.240  23.758   6.750
 8061POPC   C3A47525  25.284  23.714   7.050
 8061POPC   C4A47526  25.287  23.714   7.350
 8061POPC   C1B47527  25.483  23.731   6.450
 8061POPC   C2B47528  25.498  23.810   6.750
 8061POPC   C3B47529  25.525  23.799   7.050
 8061POPC   C4B47530  25.505  23.768   7.350
 8062POPC   NC347531  16.745   8.222   5.550
 8062POPC   PO447532  16.770   8.179   5.850
 8062POPC   GL147533  16.751   8.246   6.150
 8062POPC   GL247534  16.593   8.151   6.150
 8062POPC   C1A47535  16.769   8.228   6.450
 8062POPC   D2A47536  16.764   8.169   6.750
 8062POPC   C3A47537  16.764   8.218   7.050
 8062POPC   C4A47538  16.755   8.179   7.350
 8062POPC   C1B47539  16.474   8.146   6.450
 8062POPC   C2B47540  16.467   8.170   6.750
 8062POPC   C3B47541  16.478   8.166   7.050
 8062POPC   C4B47542  16.488   8.139   7.350
 8063POPC   NC347543  25.304  40.765   5.550
 8063POPC   PO447544  25.227  40.810   5.850
 8063POPC   GL147545  25.235  40.831   6.150
 8063POPC   GL247546  25.317  40.697   6.150
 8063POPC   C1A47547  25.302  40.773   6.450
 8063POPC   D2A47548  25.238  40.828   6.750
 8063POPC   C3A47549  25.281  40.759   7.050
 8063POPC   C4A47550  25.247  40.737   7.350
 8063POPC   C1B47551  25.364  40.505   6.450
 8063POPC   C2B47552  25.339  40.531   6.750
 8063POPC   C3B47553  25.377  40.577   7.050
 8063POPC   C4B47554  25.403  40.554   7.350
 8064POPC   NC347555  34.558  38.421   5.550
 8064POPC   PO447556  34.609  38.463   5.850
 8064POPC   GL147557  34.546  38.426   6.150
 8064POPC   GL247558  34.722  38.500   6.150
 8064POPC   C1A47559  34.534  38.452   6.450
 8064POPC   D2A47560  34.616  38.477   6.750
 8064POPC   C3A47561  34.577  38.410   7.050
 8064POPC   C4A47562  34.533  38.446   7.350
 8064POPC   C1B47563  34.782  38.511   6.450
 8064POPC   C2B47564  34.789  38.456   6.750
 8064POPC   C3B47565  34.859  38.511   7.050
 8064POPC   C4B47566  34.789  38.474   7.350
 8065POPC   NC347567  25.246  35.355   5.550
 8065POPC   PO447568  25.282  35.393   5.850
 8065POPC   GL147569  25.221  35.334   6.150
 8065POPC   GL247570  25.222  35.467   6.150
 8065POPC   C1A47571  25.221  35.394   6.450
 8065POPC   D2A47572  25.296  35.331   6.750
 8065POPC   C3A47573  25.313  35.390   7.050
 8065POPC   C4A47574  25.235  35.390   7.350
 8065POPC   C1B47575  25.128  35.613   6.450
 8065POPC   C2B47576  25.187  35.580   6.750
 8065POPC   C3B47577  25.176  35.546   7.050
 8065POPC   C4B47578  25.184  35.591   7.350
 8066POPC   NC347579  41.551  24.480   5.550
 8066POPC   PO447580  41.582  24.471   5.850
 8066POPC   GL147581  41.515  24.457   6.150
 8066POPC   GL247582  41.546  24.329   6.150
 8066POPC   C1A47583  41.564  24.512   6.450
 8066POPC   D2A47584  41.587  24.495   6.750
 8066POPC   C3A47585  41.576  24.526   7.050
 8066POPC   C4A47586  41.602  24.508   7.350
 8066POPC   C1B47587  41.476  24.255   6.450
 8066POPC   C2B47588  41.485  24.220   6.750
 8066POPC   C3B47589  41.483  24.203   7.050
 8066POPC   C4B47590  41.519  24.217   7.350
 8067POPC   NC347591   3.576  16.727   5.550
 8067POPC   PO447592   3.581  16.705   5.850
 8067POPC   GL147593   3.575  16.751   6.150
 8067POPC   GL247594   3.638  16.846   6.150
 8067POPC   C1A47595   3.509  16.689   6.450
 8067POPC   D2A47596   3.534  16.707   6.750
 8067POPC   C3A47597   3.510  16.681   7.050
 8067POPC   C4A47598   3.511  16.740   7.350
 8067POPC   C1B47599   3.651  16.951   6.450
 8067POPC   C2B47600   3.654  16.949   6.750
 8067POPC   C3B47601   3.692  16.964   7.050
 8067POPC   C4B47602   3.694  16.942   7.350
 8068POPC   NC347603  43.929  44.656   5.550
 8068POPC   PO447604  43.895  44.621   5.850
 8068POPC   GL147605  43.893  44.697   6.150
 8068POPC   GL247606  43.879  44.531   6.150
 8068POPC   C1A47607  43.931  44.647   6.450
 8068POPC   D2A47608  43.839  44.656   6.750
 8068POPC   C3A47609  43.875  44.700   7.050
 8068POPC   C4A47610  43.856  44.683   7.350
 8068POPC   C1B47611  43.861  44.424   6.450
 8068POPC   C2B47612  43.879  44.385   6.750
 8068POPC   C3B47613  43.855  44.468   7.050
 8068POPC   C4B47614  43.874  44.370   7.350
 8069POPC   NC347615  36.856  15.190   5.550
 8069POPC   PO447616  36.952  15.182   5.850
 8069POPC   GL147617  36.951  15.186   6.150
 8069POPC   GL247618  36.792  15.123   6.150
 8069POPC   C1A47619  36.870  15.219   6.450
 8069POPC   D2A47620  36.857  15.143   6.750
 8069POPC   C3A47621  36.860  15.168   7.050
 8069POPC   C4A47622  36.944  15.135   7.350
 8069POPC   C1B47623  36.701  15.107   6.450
 8069POPC   C2B47624  36.669  15.126   6.750
 8069POPC   C3B47625  36.663  15.096   7.050
 8069POPC   C4B47626  36.634  15.119   7.350
 8070POPC   NC347627  19.050  43.863   5.550
 8070POPC   PO447628  19.057  43.887   5.850
 8070POPC   GL147629  19.094  43.924   6.150
 8070POPC   GL247630  19.143  43.805   6.150
 8070POPC   C1A47631  19.024  43.873   6.450
 8070POPC   D2A47632  19.079  43.858   6.750
 8070POPC   C3A47633  19.020  43.931   7.050
 8070POPC   C4A47634  19.013  43.845   7.350
 8070POPC   C1B47635  19.317  43.831   6.450
 8070POPC   C2B47636  19.298  43.752   6.750
 8070POPC   C3B47637  19.321  43.806   7.050
 8070POPC   C4B47638  19.305  43.757   7.350
 8071POPC   NC347639   5.131  15.192   5.550
 8071POPC   PO447640   5.072  15.154   5.850
 8071POPC   GL147641   5.115  15.220   6.150
 8071POPC   GL247642   5.243  15.255   6.150
 8071POPC   C1A47643   5.050  15.157   6.450
 8071POPC   D2A47644   5.087  15.217   6.750
 8071POPC   C3A47645   5.075  15.145   7.050
 8071POPC   C4A47646   5.093  15.137   7.350
 8071POPC   C1B47647   5.366  15.291   6.450
 8071POPC   C2B47648   5.330  15.316   6.750
 8071POPC   C3B47649   5.353  15.308   7.050
 8071POPC   C4B47650   5.367  15.240   7.350
 8072POPC   NC347651   4.314  10.498   5.550
 8072POPC   PO447652   4.336  10.534   5.850
 8072POPC   GL147653   4.290  10.545   6.150
 8072POPC   GL247654   4.165  10.604   6.150
 8072POPC   C1A47655   4.273  10.561   6.450
 8072POPC   D2A47656   4.322  10.482   6.750
 8072POPC   C3A47657   4.355  10.531   7.050
 8072POPC   C4A47658   4.286  10.499   7.350
 8072POPC   C1B47659   4.041  10.554   6.450
 8072POPC   C2B47660   4.105  10.607   6.750
 8072POPC   C3B47661   4.072  10.634   7.050
 8072POPC   C4B47662   4.095  10.561   7.350
 8073POPC   NC347663  39.183  30.692   5.550
 8073POPC   PO447664  39.218  30.659   5.850
 8073POPC   GL147665  39.273  30.669   6.150
 8073POPC   GL247666  39.206  30.543   6.150
 8073POPC   C1A47667  39.250  30.681   6.450
 8073POPC   D2A47668  39.245  30.666   6.750
 8073POPC   C3A47669  39.273  30.685   7.050
 8073POPC   C4A47670  39.259  30.667   7.350
 8073POPC   C1B47671  39.162  30.462   6.450
 8073POPC   C2B47672  39.125  30.429   6.750
 8073POPC   C3B47673  39.186  30.472   7.050
 8073POPC   C4B47674  39.118  30.420   7.350
 8074POPC   NC347675  34.527  40.736   5.550
 8074POPC   PO447676  34.586  40.821   5.850
 8074POPC   GL147677  34.617  40.750   6.150
 8074POPC   GL247678  34.458  40.672   6.150
 8074POPC   C1A47679  34.591  40.767   6.450
 8074POPC   D2A47680  34.625  40.829   6.750
 8074POPC   C3A47681  34.593  40.810   7.050
 8074POPC   C4A47682  34.578  40.764   7.350
 8074POPC   C1B47683  34.469  40.598   6.450
 8074POPC   C2B47684  34.454  40.577   6.750
 8074POPC   C3B47685  34.453  40.554   7.050
 8074POPC   C4B47686  34.407  40.536   7.350
 8075POPC   NC347687   9.786  28.331   5.550
 8075POPC   PO447688   9.704  28.409   5.850
 8075POPC   GL147689   9.790  28.386   6.150
 8075POPC   GL247690   9.854  28.400   6.150
 8075POPC   C1A47691   9.765  28.376   6.450
 8075POPC   D2A47692   9.795  28.392   6.750
 8075POPC   C3A47693   9.732  28.376   7.050
 8075POPC   C4A47694   9.707  28.412   7.350
 8075POPC   C1B47695   9.998  28.476   6.450
 8075POPC   C2B47696   9.983  28.429   6.750
 8075POPC   C3B47697   9.997  28.519   7.050
 8075POPC   C4B47698  10.002  28.421   7.350
 8076POPC   NC347699  43.843  12.037   5.550
 8076POPC   PO447700  43.927  12.040   5.850
 8076POPC   GL147701  43.873  12.112   6.150
 8076POPC   GL247702  43.996  12.021   6.150
 8076POPC   C1A47703  43.847  12.089   6.450
 8076POPC   D2A47704  43.905  12.067   6.750
 8076POPC   C3A47705  43.919  12.107   7.050
 8076POPC   C4A47706  43.878  12.049   7.350
 8076POPC   C1B47707  44.142  12.043   6.450
 8076POPC   C2B47708  44.085  12.013   6.750
 8076POPC   C3B47709  44.120  11.966   7.050
 8076POPC   C4B47710  44.093  11.949   7.350
 8077POPC   NC347711  23.728  19.055   5.550
 8077POPC   PO447712  23.691  19.033   5.850
 8077POPC   GL147713  23.667  19.034   6.150
 8077POPC   GL247714  23.725  18.950   6.150
 8077POPC   C1A47715  23.701  19.015   6.450
 8077POPC   D2A47716  23.753  19.082   6.750
 8077POPC   C3A47717  23.682  19.040   7.050
 8077POPC   C4A47718  23.744  19.011   7.350
 8077POPC   C1B47719  23.713  18.799   6.450
 8077POPC   C2B47720  23.701  18.791   6.750
 8077POPC   C3B47721  23.688  18.790   7.050
 8077POPC   C4B47722  23.713  18.794   7.350
 8078POPC   NC347723  40.015  39.220   5.550
 8078POPC   PO447724  40.010  39.181   5.850
 8078POPC   GL147725  39.991  39.218   6.150
 8078POPC   GL247726  40.128  39.114   6.150
 8078POPC   C1A47727  40.044  39.255   6.450
 8078POPC   D2A47728  39.965  39.232   6.750
 8078POPC   C3A47729  40.031  39.268   7.050
 8078POPC   C4A47730  39.965  39.227   7.350
 8078POPC   C1B47731  40.228  39.119   6.450
 8078POPC   C2B47732  40.164  39.068   6.750
 8078POPC   C3B47733  40.234  39.107   7.050
 8078POPC   C4B47734  40.214  39.064   7.350
 8079POPC   NC347735  11.277  31.439   5.550
 8079POPC   PO447736  11.338  31.457   5.850
 8079POPC   GL147737  11.294  31.448   6.150
 8079POPC   GL247738  11.378  31.552   6.150
 8079POPC   C1A47739  11.270  31.487   6.450
 8079POPC   D2A47740  11.323  31.492   6.750
 8079POPC   C3A47741  11.320  31.439   7.050
 8079POPC   C4A47742  11.284  31.484   7.350
 8079POPC   C1B47743  11.503  31.576   6.450
 8079POPC   C2B47744  11.508  31.603   6.750
 8079POPC   C3B47745  11.572  31.600   7.050
 8079POPC   C4B47746  11.528  31.619   7.350
 8080POPC   NC347747   4.363  24.528   5.550
 8080POPC   PO447748   4.292  24.475   5.850
 8080POPC   GL147749   4.286  24.447   6.150
 8080POPC   GL247750   4.297  24.403   6.150
 8080POPC   C1A47751   4.297  24.447   6.450
 8080POPC   D2A47752   4.301  24.452   6.750
 8080POPC   C3A47753   4.284  24.540   7.050
 8080POPC   C4A47754   4.324  24.534   7.350
 8080POPC   C1B47755   4.355  24.206   6.450
 8080POPC   C2B47756   4.346  24.289   6.750
 8080POPC   C3B47757   4.334  24.233   7.050
 8080POPC   C4B47758   4.339  24.200   7.350
 8081POPC   NC347759  32.990  24.536   5.550
 8081POPC   PO447760  33.038  24.450   5.850
 8081POPC   GL147761  32.985  24.461   6.150
 8081POPC   GL247762  33.116  24.586   6.150
 8081POPC   C1A47763  32.981  24.444   6.450
 8081POPC   D2A47764  33.014  24.524   6.750
 8081POPC   C3A47765  33.026  24.455   7.050
 8081POPC   C4A47766  33.001  24.537   7.350
 8081POPC   C1B47767  33.110  24.751   6.450
 8081POPC   C2B47768  33.081  24.721   6.750
 8081POPC   C3B47769  33.144  24.703   7.050
 8081POPC   C4B47770  33.103  24.713   7.350
 8082POPC   NC347771  29.872  28.418   5.550
 8082POPC   PO447772  29.930  28.325   5.850
 8082POPC   GL147773  29.938  28.364   6.150
 8082POPC   GL247774  29.972  28.411   6.150
 8082POPC   C1A47775  29.949  28.354   6.450
 8082POPC   D2A47776  29.966  28.359   6.750
 8082POPC   C3A47777  29.913  28.385   7.050
 8082POPC   C4A47778  29.889  28.363   7.350
 8082POPC   C1B47779  30.058  28.549   6.450
 8082POPC   C2B47780  30.088  28.581   6.750
 8082POPC   C3B47781  30.133  28.563   7.050
 8082POPC   C4B47782  30.128  28.512   7.350
 8083POPC   NC347783  24.486  20.626   5.550
 8083POPC   PO447784  24.499  20.598   5.850
 8083POPC   GL147785  24.500  20.596   6.150
 8083POPC   GL247786  24.543  20.662   6.150
 8083POPC   C1A47787  24.534  20.610   6.450
 8083POPC   D2A47788  24.477  20.575   6.750
 8083POPC   C3A47789  24.442  20.649   7.050
 8083POPC   C4A47790  24.526  20.606   7.350
 8083POPC   C1B47791  24.634  20.835   6.450
 8083POPC   C2B47792  24.681  20.811   6.750
 8083POPC   C3B47793  24.605  20.835   7.050
 8083POPC   C4B47794  24.606  20.801   7.350
 8084POPC   NC347795  25.256  44.704   5.550
 8084POPC   PO447796  25.232  44.703   5.850
 8084POPC   GL147797  25.266  44.645   6.150
 8084POPC   GL247798  25.402  44.611   6.150
 8084POPC   C1A47799  25.284  44.698   6.450
 8084POPC   D2A47800  25.283  44.667   6.750
 8084POPC   C3A47801  25.285  44.664   7.050
 8084POPC   C4A47802  25.298  44.650   7.350
 8084POPC   C1B47803  25.544  44.600   6.450
 8084POPC   C2B47804  25.487  44.568   6.750
 8084POPC   C3B47805  25.537  44.559   7.050
 8084POPC   C4B47806  25.477  44.585   7.350
 8085POPC   NC347807  41.608  26.853   5.550
 8085POPC   PO447808  41.560  26.801   5.850
 8085POPC   GL147809  41.602  26.818   6.150
 8085POPC   GL247810  41.437  26.732   6.150
 8085POPC   C1A47811  41.608  26.817   6.450
 8085POPC   D2A47812  41.547  26.867   6.750
 8085POPC   C3A47813  41.590  26.839   7.050
 8085POPC   C4A47814  41.552  26.780   7.350
 8085POPC   C1B47815  41.330  26.623   6.450
 8085POPC   C2B47816  41.368  26.635   6.750
 8085POPC   C3B47817  41.380  26.666   7.050
 8085POPC   C4B47818  41.331  26.692   7.350
 8086POPC   NC347819   9.747  16.698   5.550
 8086POPC   PO447820   9.737  16.728   5.850
 8086POPC   GL147821   9.790  16.703   6.150
 8086POPC   GL247822   9.710  16.633   6.150
 8086POPC   C1A47823   9.733  16.708   6.450
 8086POPC   D2A47824   9.752  16.703   6.750
 8086POPC   C3A47825   9.774  16.736   7.050
 8086POPC   C4A47826   9.794  16.710   7.350
 8086POPC   C1B47827   9.640  16.533   6.450
 8086POPC   C2B47828   9.611  16.467   6.750
 8086POPC   C3B47829   9.678  16.552   7.050
 8086POPC   C4B47830   9.596  16.532   7.350
 8087POPC   NC347831  39.226  22.945   5.550
 8087POPC   PO447832  39.250  22.962   5.850
 8087POPC   GL147833  39.255  22.981   6.150
 8087POPC   GL247834  39.308  22.811   6.150
 8087POPC   C1A47835  39.252  22.969   6.450
 8087POPC   D2A47836  39.255  22.905   6.750
 8087POPC   C3A47837  39.216  22.967   7.050
 8087POPC   C4A47838  39.205  22.938   7.350
 8087POPC   C1B47839  39.318  22.675   6.450
 8087POPC   C2B47840  39.323  22.730   6.750
 8087POPC   C3B47841  39.292  22.748   7.050
 8087POPC   C4B47842  39.281  22.730   7.350
 8088POPC   NC347843  28.395  43.861   5.550
 8088POPC   PO447844  28.391  43.870   5.850
 8088POPC   GL147845  28.327  43.917   6.150
 8088POPC   GL247846  28.354  43.968   6.150
 8088POPC   C1A47847  28.369  43.844   6.450
 8088POPC   D2A47848  28.382  43.894   6.750
 8088POPC   C3A47849  28.350  43.910   7.050
 8088POPC   C4A47850  28.402  43.934   7.350
 8088POPC   C1B47851  28.332  44.090   6.450
 8088POPC   C2B47852  28.318  44.092   6.750
 8088POPC   C3B47853  28.361  44.153   7.050
 8088POPC   C4B47854  28.331  44.141   7.350
 8089POPC   NC347855  20.659  22.983   5.550
 8089POPC   PO447856  20.656  22.942   5.850
 8089POPC   GL147857  20.571  22.945   6.150
 8089POPC   GL247858  20.730  22.958   6.150
 8089POPC   C1A47859  20.614  22.926   6.450
 8089POPC   D2A47860  20.563  22.909   6.750
 8089POPC   C3A47861  20.656  22.957   7.050
 8089POPC   C4A47862  20.650  22.902   7.350
 8089POPC   C1B47863  20.803  23.027   6.450
 8089POPC   C2B47864  20.858  23.028   6.750
 8089POPC   C3B47865  20.843  23.007   7.050
 8089POPC   C4B47866  20.825  23.039   7.350
 8090POPC   NC347867  26.046  37.645   5.550
 8090POPC   PO447868  26.079  37.637   5.850
 8090POPC   GL147869  26.084  37.638   6.150
 8090POPC   GL247870  26.112  37.546   6.150
 8090POPC   C1A47871  26.075  37.634   6.450
 8090POPC   D2A47872  25.996  37.641   6.750
 8090POPC   C3A47873  26.020  37.707   7.050
 8090POPC   C4A47874  26.072  37.670   7.350
 8090POPC   C1B47875  26.172  37.431   6.450
 8090POPC   C2B47876  26.177  37.415   6.750
 8090POPC   C3B47877  26.140  37.448   7.050
 8090POPC   C4B47878  26.140  37.489   7.350
 8091POPC   NC347879  17.502  19.060   5.550
 8091POPC   PO447880  17.470  19.059   5.850
 8091POPC   GL147881  17.544  19.049   6.150
 8091POPC   GL247882  17.670  19.018   6.150
 8091POPC   C1A47883  17.523  19.033   6.450
 8091POPC   D2A47884  17.510  19.045   6.750
 8091POPC   C3A47885  17.500  19.035   7.050
 8091POPC   C4A47886  17.499  19.033   7.350
 8091POPC   C1B47887  17.733  19.048   6.450
 8091POPC   C2B47888  17.805  19.095   6.750
 8091POPC   C3B47889  17.803  19.055   7.050
 8091POPC   C4B47890  17.737  19.056   7.350
 8092POPC   NC347891  30.660  22.921   5.550
 8092POPC   PO447892  30.696  22.962   5.850
 8092POPC   GL147893  30.698  22.976   6.150
 8092POPC   GL247894  30.607  23.099   6.150
 8092POPC   C1A47895  30.663  22.910   6.450
 8092POPC   D2A47896  30.658  22.890   6.750
 8092POPC   C3A47897  30.670  22.987   7.050
 8092POPC   C4A47898  30.682  22.971   7.350
 8092POPC   C1B47899  30.626  23.128   6.450
 8092POPC   C2B47900  30.640  23.149   6.750
 8092POPC   C3B47901  30.582  23.181   7.050
 8092POPC   C4B47902  30.591  23.143   7.350
 8093POPC   NC347903  30.679  26.792   5.550
 8093POPC   PO447904  30.678  26.838   5.850
 8093POPC   GL147905  30.693  26.826   6.150
 8093POPC   GL247906  30.671  26.736   6.150
 8093POPC   C1A47907  30.734  26.841   6.450
 8093POPC   D2A47908  30.738  26.824   6.750
 8093POPC   C3A47909  30.694  26.801   7.050
 8093POPC   C4A47910  30.726  26.790   7.350
 8093POPC   C1B47911  30.521  26.613   6.450
 8093POPC   C2B47912  30.573  26.604   6.750
 8093POPC   C3B47913  30.549  26.607   7.050
 8093POPC   C4B47914  30.560  26.591   7.350
 8094POPC   NC347915  42.302  41.567   5.550
 8094POPC   PO447916  42.374  41.590   5.850
 8094POPC   GL147917  42.295  41.543   6.150
 8094POPC   GL247918  42.439  41.442   6.150
 8094POPC   C1A47919  42.349  41.587   6.450
 8094POPC   D2A47920  42.376  41.529   6.750
 8094POPC   C3A47921  42.290  41.557   7.050
 8094POPC   C4A47922  42.368  41.583   7.350
 8094POPC   C1B47923  42.522  41.368   6.450
 8094POPC   C2B47924  42.464  41.373   6.750
 8094POPC   C3B47925  42.520  41.338   7.050
 8094POPC   C4B47926  42.481  41.312   7.350
 8095POPC   NC347927  40.766  39.212   5.550
 8095POPC   PO447928  40.763  39.213   5.850
 8095POPC   GL147929  40.811  39.239   6.150
 8095POPC   GL247930  40.704  39.169   6.150
 8095POPC   C1A47931  40.806  39.205   6.450
 8095POPC   D2A47932  40.831  39.237   6.750
 8095POPC   C3A47933  40.827  39.275   7.050
 8095POPC   C4A47934  40.820  39.272   7.350
 8095POPC   C1B47935  40.546  39.180   6.450
 8095POPC   C2B47936  40.501  39.152   6.750
 8095POPC   C3B47937  40.539  39.215   7.050
 8095POPC   C4B47938  40.561  39.188   7.350
 8096POPC   NC347939  43.878  22.174   5.550
 8096POPC   PO447940  43.847  22.114   5.850
 8096POPC   GL147941  43.916  22.175   6.150
 8096POPC   GL247942  43.862  22.007   6.150
 8096POPC   C1A47943  43.854  22.138   6.450
 8096POPC   D2A47944  43.898  22.136   6.750
 8096POPC   C3A47945  43.934  22.165   7.050
 8096POPC   C4A47946  43.879  22.126   7.350
 8096POPC   C1B47947  43.778  21.988   6.450
 8096POPC   C2B47948  43.778  21.970   6.750
 8096POPC   C3B47949  43.813  21.925   7.050
 8096POPC   C4B47950  43.776  21.948   7.350
 8097POPC   NC347951   5.826  15.168   5.550
 8097POPC   PO447952   5.893  15.160   5.850
 8097POPC   GL147953   5.898  15.163   6.150
 8097POPC   GL247954   6.041  15.149   6.150
 8097POPC   C1A47955   5.918  15.158   6.450
 8097POPC   D2A47956   5.905  15.215   6.750
 8097POPC   C3A47957   5.885  15.159   7.050
 8097POPC   C4A47958   5.851  15.136   7.350
 8097POPC   C1B47959   6.112  15.119   6.450
 8097POPC   C2B47960   6.115  15.101   6.750
 8097POPC   C3B47961   6.153  15.111   7.050
 8097POPC   C4B47962   6.150  15.113   7.350
 8098POPC   NC347963  36.914  31.438   5.550
 8098POPC   PO447964  36.854  31.434   5.850
 8098POPC   GL147965  36.889  31.495   6.150
 8098POPC   GL247966  36.743  31.548   6.150
 8098POPC   C1A47967  36.859  31.483   6.450
 8098POPC   D2A47968  36.877  31.460   6.750
 8098POPC   C3A47969  36.901  31.443   7.050
 8098POPC   C4A47970  36.863  31.496   7.350
 8098POPC   C1B47971  36.633  31.542   6.450
 8098POPC   C2B47972  36.616  31.578   6.750
 8098POPC   C3B47973  36.640  31.509   7.050
 8098POPC   C4B47974  36.629  31.545   7.350
 8099POPC   NC347975  20.598  39.202   5.550
 8099POPC   PO447976  20.617  39.189   5.850
 8099POPC   GL147977  20.652  39.268   6.150
 8099POPC   GL247978  20.653  39.071   6.150
 8099POPC   C1A47979  20.655  39.223   6.450
 8099POPC   D2A47980  20.639  39.250   6.750
 8099POPC   C3A47981  20.562  39.255   7.050
 8099POPC   C4A47982  20.647  39.278   7.350
 8099POPC   C1B47983  20.767  39.032   6.450
 8099POPC   C2B47984  20.738  38.996   6.750
 8099POPC   C3B47985  20.688  38.978   7.050
 8099POPC   C4B47986  20.702  39.000   7.350
 8100POPC   NC347987  25.289   0.404   5.550
 8100POPC   PO447988  25.256   0.415   5.850
 8100POPC   GL147989  25.231   0.429   6.150
 8100POPC   GL247990  25.207   0.357   6.150
 8100POPC   C1A47991  25.276   0.397   6.450
 8100POPC   D2A47992  25.269   0.411   6.750
 8100POPC   C3A47993  25.241   0.421   7.050
 8100POPC   C4A47994  25.307   0.463   7.350
 8100POPC   C1B47995  25.068   0.219   6.450
 8100POPC   C2B47996  25.146   0.235   6.750
 8100POPC   C3B47997  25.073   0.269   7.050
 8100POPC   C4B47998  25.112   0.213   7.350
 8101POPC   NC347999  12.868  30.714   5.550
 8101POPC   PO448000  12.892  30.703   5.850
 8101POPC   GL148001  12.811  30.722   6.150
 8101POPC   GL248002  12.823  30.584   6.150
 8101POPC   C1A48003  12.805  30.666   6.450
 8101POPC   D2A48004  12.818  30.715   6.750
 8101POPC   C3A48005  12.845  30.736   7.050
 8101POPC   C4A48006  12.873  30.659   7.350
 8101POPC   C1B48007  12.744  30.455   6.450
 8101POPC   C2B48008  12.769  30.452   6.750
 8101POPC   C3B48009  12.718  30.518   7.050
 8101POPC   C4B48010  12.690  30.472   7.350
 8102POPC   NC348011  28.359  33.848   5.550
 8102POPC   PO448012  28.407  33.785   5.850
 8102POPC   GL148013  28.403  33.833   6.150
 8102POPC   GL248014  28.404  33.649   6.150
 8102POPC   C1A48015  28.323  33.797   6.450
 8102POPC   D2A48016  28.415  33.841   6.750
 8102POPC   C3A48017  28.374  33.767   7.050
 8102POPC   C4A48018  28.342  33.821   7.350
 8102POPC   C1B48019  28.469  33.575   6.450
 8102POPC   C2B48020  28.422  33.526   6.750
 8102POPC   C3B48021  28.494  33.532   7.050
 8102POPC   C4B48022  28.457  33.545   7.350
 8103POPC   NC348023  29.914   8.210   5.550
 8103POPC   PO448024  29.901   8.152   5.850
 8103POPC   GL148025  29.893   8.196   6.150
 8103POPC   GL248026  30.023   8.282   6.150
 8103POPC   C1A48027  29.925   8.235   6.450
 8103POPC   D2A48028  29.920   8.214   6.750
 8103POPC   C3A48029  29.893   8.197   7.050
 8103POPC   C4A48030  29.930   8.177   7.350
 8103POPC   C1B48031  30.159   8.361   6.450
 8103POPC   C2B48032  30.177   8.350   6.750
 8103POPC   C3B48033  30.169   8.370   7.050
 8103POPC   C4B48034  30.142   8.366   7.350
 8104POPC   NC348035  31.424  29.121   5.550
 8104POPC   PO448036  31.488  29.099   5.850
 8104POPC   GL148037  31.450  29.145   6.150
 8104POPC   GL248038  31.348  29.089   6.150
 8104POPC   C1A48039  31.463  29.150   6.450
 8104POPC   D2A48040  31.495  29.165   6.750
 8104POPC   C3A48041  31.444  29.132   7.050
 8104POPC   C4A48042  31.496  29.134   7.350
 8104POPC   C1B48043  31.348  28.987   6.450
 8104POPC   C2B48044  31.343  28.946   6.750
 8104POPC   C3B48045  31.310  28.926   7.050
 8104POPC   C4B48046  31.353  28.924   7.350
 8105POPC   NC348047  31.472  21.431   5.550
 8105POPC   PO448048  31.497  21.357   5.850
 8105POPC   GL148049  31.518  21.395   6.150
 8105POPC   GL248050  31.502  21.527   6.150
 8105POPC   C1A48051  31.485  21.406   6.450
 8105POPC   D2A48052  31.434  21.398   6.750
 8105POPC   C3A48053  31.454  21.355   7.050
 8105POPC   C4A48054  31.455  21.394   7.350
 8105POPC   C1B48055  31.579  21.604   6.450
 8105POPC   C2B48056  31.629  21.600   6.750
 8105POPC   C3B48057  31.564  21.571   7.050
 8105POPC   C4B48058  31.599  21.561   7.350
 8106POPC   NC348059  35.303  26.007   5.550
 8106POPC   PO448060  35.389  26.002   5.850
 8106POPC   GL148061  35.365  26.042   6.150
 8106POPC   GL248062  35.196  26.045   6.150
 8106POPC   C1A48063  35.322  26.023   6.450
 8106POPC   D2A48064  35.303  25.995   6.750
 8106POPC   C3A48065  35.309  26.073   7.050
 8106POPC   C4A48066  35.343  26.086   7.350
 8106POPC   C1B48067  35.157  26.091   6.450
 8106POPC   C2B48068  35.127  26.149   6.750
 8106POPC   C3B48069  35.134  26.089   7.050
 8106POPC   C4B48070  35.083  26.103   7.350
 8107POPC   NC348071  18.240  19.794   5.550
 8107POPC   PO448072  18.287  19.829   5.850
 8107POPC   GL148073  18.240  19.823   6.150
 8107POPC   GL248074  18.420  19.914   6.150
 8107POPC   C1A48075  18.329  19.823   6.450
 8107POPC   D2A48076  18.322  19.874   6.750
 8107POPC   C3A48077  18.315  19.837   7.050
 8107POPC   C4A48078  18.316  19.820   7.350
 8107POPC   C1B48079  18.501  20.044   6.450
 8107POPC   C2B48080  18.501  20.017   6.750
 8107POPC   C3B48081  18.509  19.995   7.050
 8107POPC   C4B48082  18.457  19.962   7.350
 8108POPC   NC348083  35.304  26.809   5.550
 8108POPC   PO448084  35.312  26.805   5.850
 8108POPC   GL148085  35.347  26.818   6.150
 8108POPC   GL248086  35.250  26.765   6.150
 8108POPC   C1A48087  35.353  26.807   6.450
 8108POPC   D2A48088  35.346  26.818   6.750
 8108POPC   C3A48089  35.308  26.826   7.050
 8108POPC   C4A48090  35.316  26.788   7.350
 8108POPC   C1B48091  35.146  26.614   6.450
 8108POPC   C2B48092  35.113  26.667   6.750
 8108POPC   C3B48093  35.179  26.686   7.050
 8108POPC   C4B48094  35.192  26.634   7.350
 8109POPC   NC348095  18.280   3.530   5.550
 8109POPC   PO448096  18.233   3.533   5.850
 8109POPC   GL148097  18.278   3.582   6.150
 8109POPC   GL248098  18.201   3.439   6.150
 8109POPC   C1A48099  18.308   3.504   6.450
 8109POPC   D2A48100  18.291   3.525   6.750
 8109POPC   C3A48101  18.323   3.567   7.050
 8109POPC   C4A48102  18.328   3.498   7.350
 8109POPC   C1B48103  18.184   3.299   6.450
 8109POPC   C2B48104  18.141   3.349   6.750
 8109POPC   C3B48105  18.137   3.356   7.050
 8109POPC   C4B48106  18.143   3.298   7.350
 8110POPC   NC348107  20.587  21.434   5.550
 8110POPC   PO448108  20.637  21.344   5.850
 8110POPC   GL148109  20.628  21.369   6.150
 8110POPC   GL248110  20.652  21.229   6.150
 8110POPC   C1A48111  20.570  21.424   6.450
 8110POPC   D2A48112  20.603  21.430   6.750
 8110POPC   C3A48113  20.657  21.416   7.050
 8110POPC   C4A48114  20.583  21.338   7.350
 8110POPC   C1B48115  20.662  21.095   6.450
 8110POPC   C2B48116  20.695  21.158   6.750
 8110POPC   C3B48117  20.639  21.158   7.050
 8110POPC   C4B48118  20.709  21.100   7.350
 8111POPC   NC348119  33.778  38.445   5.550
 8111POPC   PO448120  33.783  38.451   5.850
 8111POPC   GL148121  33.766  38.465   6.150
 8111POPC   GL248122  33.801  38.352   6.150
 8111POPC   C1A48123  33.804  38.418   6.450
 8111POPC   D2A48124  33.778  38.447   6.750
 8111POPC   C3A48125  33.760  38.419   7.050
 8111POPC   C4A48126  33.799  38.453   7.350
 8111POPC   C1B48127  33.843  38.180   6.450
 8111POPC   C2B48128  33.842  38.237   6.750
 8111POPC   C3B48129  33.884  38.223   7.050
 8111POPC   C4B48130  33.850  38.197   7.350
 8112POPC   NC348131  37.718  22.197   5.550
 8112POPC   PO448132  37.712  22.135   5.850
 8112POPC   GL148133  37.637  22.167   6.150
 8112POPC   GL248134  37.749  22.019   6.150
 8112POPC   C1A48135  37.722  22.147   6.450
 8112POPC   D2A48136  37.637  22.113   6.750
 8112POPC   C3A48137  37.715  22.144   7.050
 8112POPC   C4A48138  37.638  22.175   7.350
 8112POPC   C1B48139  37.807  21.934   6.450
 8112POPC   C2B48140  37.780  22.003   6.750
 8112POPC   C3B48141  37.794  21.933   7.050
 8112POPC   C4B48142  37.846  21.994   7.350
 8113POPC   NC348143   3.572  19.042   5.550
 8113POPC   PO448144   3.514  19.049   5.850
 8113POPC   GL148145   3.586  19.050   6.150
 8113POPC   GL248146   3.502  19.176   6.150
 8113POPC   C1A48147   3.515  19.034   6.450
 8113POPC   D2A48148   3.566  19.097   6.750
 8113POPC   C3A48149   3.559  19.055   7.050
 8113POPC   C4A48150   3.535  19.041   7.350
 8113POPC   C1B48151   3.424  19.233   6.450
 8113POPC   C2B48152   3.461  19.304   6.750
 8113POPC   C3B48153   3.370  19.325   7.050
 8113POPC   C4B48154   3.419  19.316   7.350
 8114POPC   NC348155  34.560  30.713   5.550
 8114POPC   PO448156  34.575  30.694   5.850
 8114POPC   GL148157  34.545  30.676   6.150
 8114POPC   GL248158  34.663  30.648   6.150
 8114POPC   C1A48159  34.605  30.659   6.450
 8114POPC   D2A48160  34.569  30.708   6.750
 8114POPC   C3A48161  34.572  30.702   7.050
 8114POPC   C4A48162  34.560  30.713   7.350
 8114POPC   C1B48163  34.780  30.665   6.450
 8114POPC   C2B48164  34.862  30.706   6.750
 8114POPC   C3B48165  34.794  30.686   7.050
 8114POPC   C4B48166  34.805  30.736   7.350
 8115POPC   NC348167  30.734   5.839   5.550
 8115POPC   PO448168  30.717   5.876   5.850
 8115POPC   GL148169  30.651   5.918   6.150
 8115POPC   GL248170  30.834   5.994   6.150
 8115POPC   C1A48171  30.680   5.861   6.450
 8115POPC   D2A48172  30.659   5.870   6.750
 8115POPC   C3A48173  30.737   5.877   7.050
 8115POPC   C4A48174  30.718   5.833   7.350
 8115POPC   C1B48175  30.827   6.048   6.450
 8115POPC   C2B48176  30.918   6.078   6.750
 8115POPC   C3B48177  30.880   6.078   7.050
 8115POPC   C4B48178  30.889   6.039   7.350
 8116POPC   NC348179  42.307   8.215   5.550
 8116POPC   PO448180  42.354   8.151   5.850
 8116POPC   GL148181  42.365   8.187   6.150
 8116POPC   GL248182  42.358   8.078   6.150
 8116POPC   C1A48183  42.322   8.149   6.450
 8116POPC   D2A48184  42.354   8.234   6.750
 8116POPC   C3A48185  42.316   8.188   7.050
 8116POPC   C4A48186  42.362   8.163   7.350
 8116POPC   C1B48187  42.458   8.008   6.450
 8116POPC   C2B48188  42.367   8.000   6.750
 8116POPC   C3B48189  42.425   7.947   7.050
 8116POPC   C4B48190  42.458   7.993   7.350
 8117POPC   NC348191   7.462  26.832   5.550
 8117POPC   PO448192   7.413  26.853   5.850
 8117POPC   GL148193   7.462  26.770   6.150
 8117POPC   GL248194   7.582  26.788   6.150
 8117POPC   C1A48195   7.439  26.802   6.450
 8117POPC   D2A48196   7.412  26.857   6.750
 8117POPC   C3A48197   7.381  26.862   7.050
 8117POPC   C4A48198   7.464  26.850   7.350
 8117POPC   C1B48199   7.635  26.762   6.450
 8117POPC   C2B48200   7.718  26.824   6.750
 8117POPC   C3B48201   7.686  26.841   7.050
 8117POPC   C4B48202   7.666  26.775   7.350
 8118POPC   NC348203  25.250  15.932   5.550
 8118POPC   PO448204  25.291  15.975   5.850
 8118POPC   GL148205  25.301  15.941   6.150
 8118POPC   GL248206  25.225  15.793   6.150
 8118POPC   C1A48207  25.254  15.940   6.450
 8118POPC   D2A48208  25.230  15.977   6.750
 8118POPC   C3A48209  25.302  15.958   7.050
 8118POPC   C4A48210  25.301  15.913   7.350
 8118POPC   C1B48211  25.119  15.702   6.450
 8118POPC   C2B48212  25.123  15.754   6.750
 8118POPC   C3B48213  25.122  15.706   7.050
 8118POPC   C4B48214  25.136  15.774   7.350
 8119POPC   NC348215   1.985  40.810   5.550
 8119POPC   PO448216   1.991  40.830   5.850
 8119POPC   GL148217   2.006  40.770   6.150
 8119POPC   GL248218   2.132  40.853   6.150
 8119POPC   C1A48219   2.005  40.762   6.450
 8119POPC   D2A48220   2.007  40.760   6.750
 8119POPC   C3A48221   1.996  40.820   7.050
 8119POPC   C4A48222   1.948  40.809   7.350
 8119POPC   C1B48223   2.206  40.923   6.450
 8119POPC   C2B48224   2.183  40.927   6.750
 8119POPC   C3B48225   2.189  40.961   7.050
 8119POPC   C4B48226   2.175  40.989   7.350
 8120POPC   NC348227  34.557   9.796   5.550
 8120POPC   PO448228  34.592   9.714   5.850
 8120POPC   GL148229  34.531   9.782   6.150
 8120POPC   GL248230  34.516   9.664   6.150
 8120POPC   C1A48231  34.609   9.732   6.450
 8120POPC   D2A48232  34.530   9.750   6.750
 8120POPC   C3A48233  34.541   9.767   7.050
 8120POPC   C4A48234  34.582   9.736   7.350
 8120POPC   C1B48235  34.381   9.656   6.450
 8120POPC   C2B48236  34.341   9.665   6.750
 8120POPC   C3B48237  34.352   9.611   7.050
 8120POPC   C4B48238  34.357   9.594   7.350
 8121POPC   NC348239  16.698  25.251   5.550
 8121POPC   PO448240  16.706  25.315   5.850
 8121POPC   GL148241  16.712  25.226   6.150
 8121POPC   GL248242  16.583  25.247   6.150
 8121POPC   C1A48243  16.718  25.309   6.450
 8121POPC   D2A48244  16.772  25.230   6.750
 8121POPC   C3A48245  16.696  25.296   7.050
 8121POPC   C4A48246  16.734  25.242   7.350
 8121POPC   C1B48247  16.481  25.351   6.450
 8121POPC   C2B48248  16.503  25.308   6.750
 8121POPC   C3B48249  16.459  25.342   7.050
 8121POPC   C4B48250  16.491  25.354   7.350
 8122POPC   NC348251   8.226  19.058   5.550
 8122POPC   PO448252   8.185  19.022   5.850
 8122POPC   GL148253   8.149  19.017   6.150
 8122POPC   GL248254   8.203  19.186   6.150
 8122POPC   C1A48255   8.176  19.087   6.450
 8122POPC   D2A48256   8.213  19.046   6.750
 8122POPC   C3A48257   8.222  19.055   7.050
 8122POPC   C4A48258   8.191  19.042   7.350
 8122POPC   C1B48259   8.121  19.282   6.450
 8122POPC   C2B48260   8.183  19.303   6.750
 8122POPC   C3B48261   8.190  19.278   7.050
 8122POPC   C4B48262   8.104  19.285   7.350
 8123POPC   NC348263   6.652  43.129   5.550
 8123POPC   PO448264   6.648  43.132   5.850
 8123POPC   GL148265   6.638  43.075   6.150
 8123POPC   GL248266   6.793  43.071   6.150
 8123POPC   C1A48267   6.677  43.066   6.450
 8123POPC   D2A48268   6.647  43.104   6.750
 8123POPC   C3A48269   6.688  43.064   7.050
 8123POPC   C4A48270   6.631  43.087   7.350
 8123POPC   C1B48271   6.840  42.961   6.450
 8123POPC   C2B48272   6.837  43.045   6.750
 8123POPC   C3B48273   6.896  43.007   7.050
 8123POPC   C4B48274   6.864  42.952   7.350
 8124POPC   NC348275  10.554  43.077   5.550
 8124POPC   PO448276  10.499  43.152   5.850
 8124POPC   GL148277  10.534  43.101   6.150
 8124POPC   GL248278  10.439  43.013   6.150
 8124POPC   C1A48279  10.510  43.090   6.450
 8124POPC   D2A48280  10.486  43.109   6.750
 8124POPC   C3A48281  10.484  43.087   7.050
 8124POPC   C4A48282  10.474  43.066   7.350
 8124POPC   C1B48283  10.288  42.942   6.450
 8124POPC   C2B48284  10.315  42.953   6.750
 8124POPC   C3B48285  10.317  42.985   7.050
 8124POPC   C4B48286  10.304  43.019   7.350
 8125POPC   NC348287   8.975  32.270   5.550
 8125POPC   PO448288   8.946  32.282   5.850
 8125POPC   GL148289   8.990  32.278   6.150
 8125POPC   GL248290   9.052  32.308   6.150
 8125POPC   C1A48291   8.997  32.213   6.450
 8125POPC   D2A48292   8.944  32.267   6.750
 8125POPC   C3A48293   9.002  32.209   7.050
 8125POPC   C4A48294   9.011  32.278   7.350
 8125POPC   C1B48295   9.207  32.358   6.450
 8125POPC   C2B48296   9.171  32.304   6.750
 8125POPC   C3B48297   9.163  32.295   7.050
 8125POPC   C4B48298   9.189  32.283   7.350
 8126POPC   NC348299  38.469  13.637   5.550
 8126POPC   PO448300  38.482  13.636   5.850
 8126POPC   GL148301  38.504  13.670   6.150
 8126POPC   GL248302  38.592  13.652   6.150
 8126POPC   C1A48303  38.470  13.661   6.450
 8126POPC   D2A48304  38.418  13.588   6.750
 8126POPC   C3A48305  38.417  13.635   7.050
 8126POPC   C4A48306  38.463  13.649   7.350
 8126POPC   C1B48307  38.668  13.657   6.450
 8126POPC   C2B48308  38.746  13.654   6.750
 8126POPC   C3B48309  38.680  13.674   7.050
 8126POPC   C4B48310  38.735  13.671   7.350
 8127POPC   NC348311  30.676  30.727   5.550
 8127POPC   PO448312  30.706  30.742   5.850
 8127POPC   GL148313  30.683  30.670   6.150
 8127POPC   GL248314  30.844  30.690   6.150
 8127POPC   C1A48315  30.652  30.720   6.450
 8127POPC   D2A48316  30.672  30.715   6.750
 8127POPC   C3A48317  30.743  30.704   7.050
 8127POPC   C4A48318  30.702  30.709   7.350
 8127POPC   C1B48319  30.908  30.655   6.450
 8127POPC   C2B48320  30.992  30.643   6.750
 8127POPC   C3B48321  30.982  30.703   7.050
 8127POPC   C4B48322  30.933  30.694   7.350
 8128POPC   NC348323  26.030  20.566   5.550
 8128POPC   PO448324  25.993  20.646   5.850
 8128POPC   GL148325  26.065  20.655   6.150
 8128POPC   GL248326  26.211  20.613   6.150
 8128POPC   C1A48327  26.049  20.580   6.450
 8128POPC   D2A48328  26.068  20.571   6.750
 8128POPC   C3A48329  26.076  20.635   7.050
 8128POPC   C4A48330  26.000  20.619   7.350
 8128POPC   C1B48331  26.324  20.586   6.450
 8128POPC   C2B48332  26.251  20.600   6.750
 8128POPC   C3B48333  26.334  20.652   7.050
 8128POPC   C4B48334  26.269  20.611   7.350
 8129POPC   NC348335  37.633   5.894   5.550
 8129POPC   PO448336  37.720   5.892   5.850
 8129POPC   GL148337  37.682   5.895   6.150
 8129POPC   GL248338  37.601   5.771   6.150
 8129POPC   C1A48339  37.669   5.843   6.450
 8129POPC   D2A48340  37.700   5.841   6.750
 8129POPC   C3A48341  37.682   5.871   7.050
 8129POPC   C4A48342  37.715   5.909   7.350
 8129POPC   C1B48343  37.513   5.602   6.450
 8129POPC   C2B48344  37.575   5.629   6.750
 8129POPC   C3B48345  37.591   5.639   7.050
 8129POPC   C4B48346  37.520   5.653   7.350
 8130POPC   NC348347   4.350   6.647   5.550
 8130POPC   PO448348   4.281   6.612   5.850
 8130POPC   GL148349   4.315   6.642   6.150
 8130POPC   GL248350   4.205   6.588   6.150
 8130POPC   C1A48351   4.333   6.677   6.450
 8130POPC   D2A48352   4.274   6.664   6.750
 8130POPC   C3A48353   4.283   6.625   7.050
 8130POPC   C4A48354   4.337   6.602   7.350
 8130POPC   C1B48355   4.114   6.464   6.450
 8130POPC   C2B48356   4.164   6.432   6.750
 8130POPC   C3B48357   4.170   6.445   7.050
 8130POPC   C4B48358   4.163   6.425   7.350
 8131POPC   NC348359  34.566   5.839   5.550
 8131POPC   PO448360  34.593   5.913   5.850
 8131POPC   GL148361  34.579   5.891   6.150
 8131POPC   GL248362  34.566   6.008   6.150
 8131POPC   C1A48363  34.545   5.886   6.450
 8131POPC   D2A48364  34.572   5.903   6.750
 8131POPC   C3A48365  34.538   5.898   7.050
 8131POPC   C4A48366  34.551   5.847   7.350
 8131POPC   C1B48367  34.685   6.136   6.450
 8131POPC   C2B48368  34.647   6.135   6.750
 8131POPC   C3B48369  34.618   6.137   7.050
 8131POPC   C4B48370  34.689   6.128   7.350
 8132POPC   NC348371   1.957  14.406   5.550
 8132POPC   PO448372   1.952  14.363   5.850
 8132POPC   GL148373   2.025  14.386   6.150
 8132POPC   GL248374   1.910  14.466   6.150
 8132POPC   C1A48375   1.974  14.413   6.450
 8132POPC   D2A48376   1.980  14.435   6.750
 8132POPC   C3A48377   1.944  14.408   7.050
 8132POPC   C4A48378   1.973  14.412   7.350
 8132POPC   C1B48379   1.802  14.629   6.450
 8132POPC   C2B48380   1.796  14.588   6.750
 8132POPC   C3B48381   1.825  14.621   7.050
 8132POPC   C4B48382   1.782  14.562   7.350
 8133POPC   NC348383  17.513  27.556   5.550
 8133POPC   PO448384  17.459  27.573   5.850
 8133POPC   GL148385  17.555  27.556   6.150
 8133POPC   GL248386  17.618  27.506   6.150
 8133POPC   C1A48387  17.492  27.625   6.450
 8133POPC   D2A48388  17.509  27.570   6.750
 8133POPC   C3A48389  17.550  27.602   7.050
 8133POPC   C4A48390  17.518  27.569   7.350
 8133POPC   C1B48391  17.716  27.472   6.450
 8133POPC   C2B48392  17.728  27.491   6.750
 8133POPC   C3B48393  17.740  27.448   7.050
 8133POPC   C4B48394  17.694  27.528   7.350
 8134POPC   NC348395  35.345   0.402   5.550
 8134POPC   PO448396  35.324   0.458   5.850
 8134POPC   GL148397  35.347   0.485   6.150
 8134POPC   GL248398  35.246   0.511   6.150
 8134POPC   C1A48399  35.391   0.425   6.450
 8134POPC   D2A48400  35.323   0.430   6.750
 8134POPC   C3A48401  35.384   0.407   7.050
 8134POPC   C4A48402  35.341   0.433   7.350
 8134POPC   C1B48403  35.204   0.652   6.450
 8134POPC   C2B48404  35.216   0.604   6.750
 8134POPC   C3B48405  35.251   0.656   7.050
 8134POPC   C4B48406  35.222   0.662   7.350
 8135POPC   NC348407  32.243  19.034   5.550
 8135POPC   PO448408  32.275  19.104   5.850
 8135POPC   GL148409  32.275  19.078   6.150
 8135POPC   GL248410  32.238  19.196   6.150
 8135POPC   C1A48411  32.227  19.058   6.450
 8135POPC   D2A48412  32.258  19.048   6.750
 8135POPC   C3A48413  32.243  19.068   7.050
 8135POPC   C4A48414  32.220  19.041   7.350
 8135POPC   C1B48415  32.152  19.284   6.450
 8135POPC   C2B48416  32.141  19.329   6.750
 8135POPC   C3B48417  32.154  19.319   7.050
 8135POPC   C4B48418  32.175  19.331   7.350
 8136POPC   NC348419  34.623  41.520   5.550
 8136POPC   PO448420  34.609  41.580   5.850
 8136POPC   GL148421  34.572  41.607   6.150
 8136POPC   GL248422  34.654  41.457   6.150
 8136POPC   C1A48423  34.563  41.568   6.450
 8136POPC   D2A48424  34.560  41.560   6.750
 8136POPC   C3A48425  34.586  41.567   7.050
 8136POPC   C4A48426  34.619  41.568   7.350
 8136POPC   C1B48427  34.789  41.426   6.450
 8136POPC   C2B48428  34.796  41.423   6.750
 8136POPC   C3B48429  34.842  41.495   7.050
 8136POPC   C4B48430  34.809  41.464   7.350
 8137POPC   NC348431   2.800  28.322   5.550
 8137POPC   PO448432   2.756  28.331   5.850
 8137POPC   GL148433   2.785  28.417   6.150
 8137POPC   GL248434   2.680  28.477   6.150
 8137POPC   C1A48435   2.808  28.396   6.450
 8137POPC   D2A48436   2.786  28.329   6.750
 8137POPC   C3A48437   2.731  28.380   7.050
 8137POPC   C4A48438   2.796  28.339   7.350
 8137POPC   C1B48439   2.555  28.524   6.450
 8137POPC   C2B48440   2.539  28.582   6.750
 8137POPC   C3B48441   2.546  28.546   7.050
 8137POPC   C4B48442   2.541  28.497   7.350
 8138POPC   NC348443  22.891  28.335   5.550
 8138POPC   PO448444  22.948  28.387   5.850
 8138POPC   GL148445  22.903  28.369   6.150
 8138POPC   GL248446  22.969  28.272   6.150
 8138POPC   C1A48447  22.911  28.363   6.450
 8138POPC   D2A48448  22.959  28.413   6.750
 8138POPC   C3A48449  22.959  28.352   7.050
 8138POPC   C4A48450  22.983  28.389   7.350
 8138POPC   C1B48451  23.037  28.150   6.450
 8138POPC   C2B48452  23.062  28.110   6.750
 8138POPC   C3B48453  23.031  28.112   7.050
 8138POPC   C4B48454  23.099  28.195   7.350
 8139POPC   NC348455  34.554  27.639   5.550
 8139POPC   PO448456  34.610  27.636   5.850
 8139POPC   GL148457  34.566  27.591   6.150
 8139POPC   GL248458  34.668  27.643   6.150
 8139POPC   C1A48459  34.578  27.607   6.450
 8139POPC   D2A48460  34.582  27.631   6.750
 8139POPC   C3A48461  34.603  27.589   7.050
 8139POPC   C4A48462  34.555  27.576   7.350
 8139POPC   C1B48463  34.729  27.797   6.450
 8139POPC   C2B48464  34.759  27.803   6.750
 8139POPC   C3B48465  34.787  27.801   7.050
 8139POPC   C4B48466  34.791  27.760   7.350
 8140POPC   NC348467  14.429  32.227   5.550
 8140POPC   PO448468  14.437  32.203   5.850
 8140POPC   GL148469  14.408  32.293   6.150
 8140POPC   GL248470  14.469  32.378   6.150
 8140POPC   C1A48471  14.428  32.254   6.450
 8140POPC   D2A48472  14.418  32.220   6.750
 8140POPC   C3A48473  14.402  32.222   7.050
 8140POPC   C4A48474  14.448  32.227   7.350
 8140POPC   C1B48475  14.580  32.448   6.450
 8140POPC   C2B48476  14.621  32.395   6.750
 8140POPC   C3B48477  14.560  32.461   7.050
 8140POPC   C4B48478  14.596  32.376   7.350
 8141POPC   NC348479  26.073   0.453   5.550
 8141POPC   PO448480  25.995   0.433   5.850
 8141POPC   GL148481  26.014   0.428   6.150
 8141POPC   GL248482  26.193   0.513   6.150
 8141POPC   C1A48483  26.091   0.435   6.450
 8141POPC   D2A48484  26.027   0.397   6.750
 8141POPC   C3A48485  26.029   0.391   7.050
 8141POPC   C4A48486  26.006   0.413   7.350
 8141POPC   C1B48487  26.259   0.505   6.450
 8141POPC   C2B48488  26.294   0.479   6.750
 8141POPC   C3B48489  26.272   0.525   7.050
 8141POPC   C4B48490  26.261   0.512   7.350
 8142POPC   NC348491  41.583   9.789   5.550
 8142POPC   PO448492  41.527   9.779   5.850
 8142POPC   GL148493  41.581   9.746   6.150
 8142POPC   GL248494  41.614   9.629   6.150
 8142POPC   C1A48495  41.564   9.753   6.450
 8142POPC   D2A48496  41.595   9.781   6.750
 8142POPC   C3A48497  41.596   9.776   7.050
 8142POPC   C4A48498  41.574   9.770   7.350
 8142POPC   C1B48499  41.674   9.531   6.450
 8142POPC   C2B48500  41.606   9.472   6.750
 8142POPC   C3B48501  41.672   9.501   7.050
 8142POPC   C4B48502  41.676   9.536   7.350
 8143POPC   NC348503   8.968  23.688   5.550
 8143POPC   PO448504   8.970  23.734   5.850
 8143POPC   GL148505   8.942  23.705   6.150
 8143POPC   GL248506   9.099  23.740   6.150
 8143POPC   C1A48507   8.983  23.751   6.450
 8143POPC   D2A48508   9.013  23.736   6.750
 8143POPC   C3A48509   9.002  23.708   7.050
 8143POPC   C4A48510   9.003  23.732   7.350
 8143POPC   C1B48511   9.247  23.658   6.450
 8143POPC   C2B48512   9.218  23.664   6.750
 8143POPC   C3B48513   9.208  23.704   7.050
 8143POPC   C4B48514   9.240  23.695   7.350
 8144POPC   NC348515   4.295  36.141   5.550
 8144POPC   PO448516   4.355  36.165   5.850
 8144POPC   GL148517   4.269  36.156   6.150
 8144POPC   GL248518   4.430  36.032   6.150
 8144POPC   C1A48519   4.308  36.168   6.450
 8144POPC   D2A48520   4.312  36.171   6.750
 8144POPC   C3A48521   4.343  36.168   7.050
 8144POPC   C4A48522   4.289  36.120   7.350
 8144POPC   C1B48523   4.502  35.995   6.450
 8144POPC   C2B48524   4.469  35.996   6.750
 8144POPC   C3B48525   4.507  35.946   7.050
 8144POPC   C4B48526   4.501  35.954   7.350
 8145POPC   NC348527  18.313  33.759   5.550
 8145POPC   PO448528  18.330  33.797   5.850
 8145POPC   GL148529  18.294  33.791   6.150
 8145POPC   GL248530  18.308  33.896   6.150
 8145POPC   C1A48531  18.297  33.830   6.450
 8145POPC   D2A48532  18.330  33.849   6.750
 8145POPC   C3A48533  18.315  33.792   7.050
 8145POPC   C4A48534  18.288  33.825   7.350
 8145POPC   C1B48535  18.382  34.022   6.450
 8145POPC   C2B48536  18.384  34.009   6.750
 8145POPC   C3B48537  18.379  34.016   7.050
 8145POPC   C4B48538  18.418  33.984   7.350
 8146POPC   NC348539  32.993  39.258   5.550
 8146POPC   PO448540  33.020  39.192   5.850
 8146POPC   GL148541  33.038  39.228   6.150
 8146POPC   GL248542  32.975  39.330   6.150
 8146POPC   C1A48543  33.052  39.211   6.450
 8146POPC   D2A48544  32.987  39.226   6.750
 8146POPC   C3A48545  33.055  39.245   7.050
 8146POPC   C4A48546  32.993  39.271   7.350
 8146POPC   C1B48547  32.944  39.411   6.450
 8146POPC   C2B48548  32.853  39.471   6.750
 8146POPC   C3B48549  32.919  39.469   7.050
 8146POPC   C4B48550  32.925  39.493   7.350
 8147POPC   NC348551  22.980  26.812   5.550
 8147POPC   PO448552  22.972  26.844   5.850
 8147POPC   GL148553  22.920  26.829   6.150
 8147POPC   GL248554  23.025  26.730   6.150
 8147POPC   C1A48555  22.905  26.832   6.450
 8147POPC   D2A48556  22.968  26.794   6.750
 8147POPC   C3A48557  22.968  26.831   7.050
 8147POPC   C4A48558  22.953  26.802   7.350
 8147POPC   C1B48559  23.107  26.642   6.450
 8147POPC   C2B48560  23.179  26.632   6.750
 8147POPC   C3B48561  23.113  26.644   7.050
 8147POPC   C4B48562  23.136  26.640   7.350
 8148POPC   NC348563  43.902   8.243   5.550
 8148POPC   PO448564  43.844   8.241   5.850
 8148POPC   GL148565  43.843   8.232   6.150
 8148POPC   GL248566  43.798   8.224   6.150
 8148POPC   C1A48567  43.879   8.193   6.450
 8148POPC   D2A48568  43.909   8.193   6.750
 8148POPC   C3A48569  43.880   8.177   7.050
 8148POPC   C4A48570  43.839   8.215   7.350
 8148POPC   C1B48571  43.652   8.307   6.450
 8148POPC   C2B48572  43.728   8.290   6.750
 8148POPC   C3B48573  43.677   8.316   7.050
 8148POPC   C4B48574  43.656   8.363   7.350
 8149POPC   NC348575   8.955  32.990   5.550
 8149POPC   PO448576   8.930  33.027   5.850
 8149POPC   GL148577   9.015  33.046   6.150
 8149POPC   GL248578   8.964  33.098   6.150
 8149POPC   C1A48579   8.927  33.059   6.450
 8149POPC   D2A48580   9.019  33.042   6.750
 8149POPC   C3A48581   8.989  33.038   7.050
 8149POPC   C4A48582   8.981  32.993   7.350
 8149POPC   C1B48583   8.946  33.219   6.450
 8149POPC   C2B48584   8.893  33.262   6.750
 8149POPC   C3B48585   8.872  33.225   7.050
 8149POPC   C4B48586   8.945  33.291   7.350
 8150POPC   NC348587  15.195  43.935   5.550
 8150POPC   PO448588  15.139  43.869   5.850
 8150POPC   GL148589  15.185  43.878   6.150
 8150POPC   GL248590  15.072  43.821   6.150
 8150POPC   C1A48591  15.208  43.917   6.450
 8150POPC   D2A48592  15.168  43.890   6.750
 8150POPC   C3A48593  15.162  43.917   7.050
 8150POPC   C4A48594  15.133  43.927   7.350
 8150POPC   C1B48595  15.041  43.719   6.450
 8150POPC   C2B48596  15.000  43.633   6.750
 8150POPC   C3B48597  15.078  43.675   7.050
 8150POPC   C4B48598  15.061  43.633   7.350
 8151POPC   NC348599  22.962  36.168   5.550
 8151POPC   PO448600  22.895  36.122   5.850
 8151POPC   GL148601  22.956  36.121   6.150
 8151POPC   GL248602  22.807  36.068   6.150
 8151POPC   C1A48603  22.982  36.144   6.450
 8151POPC   D2A48604  22.926  36.104   6.750
 8151POPC   C3A48605  22.957  36.166   7.050
 8151POPC   C4A48606  22.944  36.141   7.350
 8151POPC   C1B48607  22.761  36.019   6.450
 8151POPC   C2B48608  22.741  36.021   6.750
 8151POPC   C3B48609  22.736  35.985   7.050
 8151POPC   C4B48610  22.784  35.943   7.350
 8152POPC   NC348611   5.882  29.176   5.550
 8152POPC   PO448612   5.876  29.176   5.850
 8152POPC   GL148613   5.839  29.194   6.150
 8152POPC   GL248614   5.973  29.213   6.150
 8152POPC   C1A48615   5.885  29.188   6.450
 8152POPC   D2A48616   5.854  29.183   6.750
 8152POPC   C3A48617   5.840  29.194   7.050
 8152POPC   C4A48618   5.881  29.191   7.350
 8152POPC   C1B48619   6.098  29.303   6.450
 8152POPC   C2B48620   6.070  29.260   6.750
 8152POPC   C3B48621   6.130  29.312   7.050
 8152POPC   C4B48622   6.070  29.289   7.350
 8153POPC   NC348623  19.829  35.312   5.550
 8153POPC   PO448624  19.825  35.327   5.850
 8153POPC   GL148625  19.865  35.331   6.150
 8153POPC   GL248626  19.870  35.255   6.150
 8153POPC   C1A48627  19.818  35.332   6.450
 8153POPC   D2A48628  19.796  35.312   6.750
 8153POPC   C3A48629  19.816  35.340   7.050
 8153POPC   C4A48630  19.869  35.333   7.350
 8153POPC   C1B48631  19.808  35.131   6.450
 8153POPC   C2B48632  19.813  35.080   6.750
 8153POPC   C3B48633  19.794  35.113   7.050
 8153POPC   C4B48634  19.801  35.075   7.350
 8154POPC   NC348635  34.602  11.252   5.550
 8154POPC   PO448636  34.554  11.328   5.850
 8154POPC   GL148637  34.589  11.277   6.150
 8154POPC   GL248638  34.558  11.415   6.150
 8154POPC   C1A48639  34.537  11.267   6.450
 8154POPC   D2A48640  34.572  11.286   6.750
 8154POPC   C3A48641  34.584  11.332   7.050
 8154POPC   C4A48642  34.581  11.262   7.350
 8154POPC   C1B48643  34.601  11.558   6.450
 8154POPC   C2B48644  34.588  11.532   6.750
 8154POPC   C3B48645  34.543  11.582   7.050
 8154POPC   C4B48646  34.531  11.552   7.350
 8155POPC   NC348647  35.306  30.745   5.550
 8155POPC   PO448648  35.368  30.702   5.850
 8155POPC   GL148649  35.330  30.707   6.150
 8155POPC   GL248650  35.261  30.768   6.150
 8155POPC   C1A48651  35.324  30.694   6.450
 8155POPC   D2A48652  35.364  30.737   6.750
 8155POPC   C3A48653  35.304  30.743   7.050
 8155POPC   C4A48654  35.373  30.659   7.350
 8155POPC   C1B48655  35.256  30.936   6.450
 8155POPC   C2B48656  35.244  30.967   6.750
 8155POPC   C3B48657  35.315  30.885   7.050
 8155POPC   C4B48658  35.260  30.913   7.350
 8156POPC   NC348659  41.569  11.342   5.550
 8156POPC   PO448660  41.546  11.340   5.850
 8156POPC   GL148661  41.541  11.313   6.150
 8156POPC   GL248662  41.602  11.130   6.150
 8156POPC   C1A48663  41.604  11.330   6.450
 8156POPC   D2A48664  41.592  11.279   6.750
 8156POPC   C3A48665  41.553  11.343   7.050
 8156POPC   C4A48666  41.576  11.264   7.350
 8156POPC   C1B48667  41.579  11.051   6.450
 8156POPC   C2B48668  41.576  11.013   6.750
 8156POPC   C3B48669  41.656  11.028   7.050
 8156POPC   C4B48670  41.620  11.081   7.350
 8157POPC   NC348671  30.702   8.934   5.550
 8157POPC   PO448672  30.736   8.968   5.850
 8157POPC   GL148673  30.649   8.978   6.150
 8157POPC   GL248674  30.773   8.875   6.150
 8157POPC   C1A48675  30.734   8.978   6.450
 8157POPC   D2A48676  30.725   9.009   6.750
 8157POPC   C3A48677  30.671   8.936   7.050
 8157POPC   C4A48678  30.746   8.934   7.350
 8157POPC   C1B48679  30.855   8.754   6.450
 8157POPC   C2B48680  30.884   8.743   6.750
 8157POPC   C3B48681  30.832   8.749   7.050
 8157POPC   C4B48682  30.892   8.732   7.350
 8158POPC   NC348683  33.811  21.414   5.550
 8158POPC   PO448684  33.783  21.368   5.850
 8158POPC   GL148685  33.805  21.403   6.150
 8158POPC   GL248686  33.806  21.226   6.150
 8158POPC   C1A48687  33.824  21.402   6.450
 8158POPC   D2A48688  33.765  21.412   6.750
 8158POPC   C3A48689  33.782  21.394   7.050
 8158POPC   C4A48690  33.809  21.378   7.350
 8158POPC   C1B48691  33.806  21.179   6.450
 8158POPC   C2B48692  33.889  21.184   6.750
 8158POPC   C3B48693  33.854  21.099   7.050
 8158POPC   C4B48694  33.887  21.149   7.350
 8159POPC   NC348695  36.116  15.961   5.550
 8159POPC   PO448696  36.095  15.958   5.850
 8159POPC   GL148697  36.123  15.999   6.150
 8159POPC   GL248698  36.221  15.899   6.150
 8159POPC   C1A48699  36.145  15.923   6.450
 8159POPC   D2A48700  36.080  15.955   6.750
 8159POPC   C3A48701  36.113  15.909   7.050
 8159POPC   C4A48702  36.108  15.994   7.350
 8159POPC   C1B48703  36.322  15.777   6.450
 8159POPC   C2B48704  36.374  15.841   6.750
 8159POPC   C3B48705  36.336  15.809   7.050
 8159POPC   C4B48706  36.283  15.764   7.350
 8160POPC   NC348707  39.235  13.655   5.550
 8160POPC   PO448708  39.210  13.603   5.850
 8160POPC   GL148709  39.191  13.608   6.150
 8160POPC   GL248710  39.307  13.588   6.150
 8160POPC   C1A48711  39.250  13.655   6.450
 8160POPC   D2A48712  39.194  13.603   6.750
 8160POPC   C3A48713  39.203  13.645   7.050
 8160POPC   C4A48714  39.200  13.635   7.350
 8160POPC   C1B48715  39.389  13.442   6.450
 8160POPC   C2B48716  39.379  13.451   6.750
 8160POPC   C3B48717  39.414  13.440   7.050
 8160POPC   C4B48718  39.423  13.448   7.350
 8161POPC   NC348719  36.124  17.478   5.550
 8161POPC   PO448720  36.099  17.526   5.850
 8161POPC   GL148721  36.105  17.471   6.150
 8161POPC   GL248722  36.169  17.664   6.150
 8161POPC   C1A48723  36.138  17.508   6.450
 8161POPC   D2A48724  36.167  17.519   6.750
 8161POPC   C3A48725  36.133  17.486   7.050
 8161POPC   C4A48726  36.163  17.473   7.350
 8161POPC   C1B48727  36.274  17.692   6.450
 8161POPC   C2B48728  36.263  17.755   6.750
 8161POPC   C3B48729  36.255  17.696   7.050
 8161POPC   C4B48730  36.208  17.765   7.350
 8162POPC   NC348731  28.381  32.978   5.550
 8162POPC   PO448732  28.353  32.979   5.850
 8162POPC   GL148733  28.410  33.065   6.150
 8162POPC   GL248734  28.269  33.167   6.150
 8162POPC   C1A48735  28.391  33.073   6.450
 8162POPC   D2A48736  28.350  33.044   6.750
 8162POPC   C3A48737  28.347  33.017   7.050
 8162POPC   C4A48738  28.397  33.021   7.350
 8162POPC   C1B48739  28.232  33.204   6.450
 8162POPC   C2B48740  28.249  33.220   6.750
 8162POPC   C3B48741  28.160  33.177   7.050
 8162POPC   C4B48742  28.165  33.249   7.350
 8163POPC   NC348743  12.818   5.834   5.550
 8163POPC   PO448744  12.901   5.839   5.850
 8163POPC   GL148745  12.901   5.831   6.150
 8163POPC   GL248746  12.773   5.848   6.150
 8163POPC   C1A48747  12.874   5.845   6.450
 8163POPC   D2A48748  12.843   5.839   6.750
 8163POPC   C3A48749  12.836   5.883   7.050
 8163POPC   C4A48750  12.829   5.823   7.350
 8163POPC   C1B48751  12.671   5.744   6.450
 8163POPC   C2B48752  12.665   5.754   6.750
 8163POPC   C3B48753  12.686   5.717   7.050
 8163POPC   C4B48754  12.676   5.701   7.350
 8164POPC   NC348755  15.167   3.539   5.550
 8164POPC   PO448756  15.157   3.526   5.850
 8164POPC   GL148757  15.167   3.506   6.150
 8164POPC   GL248758  15.282   3.506   6.150
 8164POPC   C1A48759  15.196   3.525   6.450
 8164POPC   D2A48760  15.150   3.531   6.750
 8164POPC   C3A48761  15.200   3.528   7.050
 8164POPC   C4A48762  15.216   3.554   7.350
 8164POPC   C1B48763  15.385   3.418   6.450
 8164POPC   C2B48764  15.454   3.466   6.750
 8164POPC   C3B48765  15.358   3.461   7.050
 8164POPC   C4B48766  15.402   3.415   7.350
 8165POPC   NC348767  36.921  21.356   5.550
 8165POPC   PO448768  36.855  21.386   5.850
 8165POPC   GL148769  36.862  21.336   6.150
 8165POPC   GL248770  36.898  21.508   6.150
 8165POPC   C1A48771  36.910  21.410   6.450
 8165POPC   D2A48772  36.890  21.352   6.750
 8165POPC   C3A48773  36.862  21.375   7.050
 8165POPC   C4A48774  36.907  21.360   7.350
 8165POPC   C1B48775  36.970  21.622   6.450
 8165POPC   C2B48776  36.950  21.611   6.750
 8165POPC   C3B48777  36.989  21.596   7.050
 8165POPC   C4B48778  36.947  21.607   7.350
 8166POPC   NC348779  13.609  11.320   5.550
 8166POPC   PO448780  13.659  11.285   5.850
 8166POPC   GL148781  13.623  11.258   6.150
 8166POPC   GL248782  13.761  11.326   6.150
 8166POPC   C1A48783  13.583  11.338   6.450
 8166POPC   D2A48784  13.637  11.341   6.750
 8166POPC   C3A48785  13.605  11.334   7.050
 8166POPC   C4A48786  13.589  11.277   7.350
 8166POPC   C1B48787  13.899  11.268   6.450
 8166POPC   C2B48788  13.848  11.252   6.750
 8166POPC   C3B48789  13.835  11.320   7.050
 8166POPC   C4B48790  13.852  11.275   7.350
 8167POPC   NC348791  37.686  34.597   5.550
 8167POPC   PO448792  37.648  34.578   5.850
 8167POPC   GL148793  37.640  34.541   6.150
 8167POPC   GL248794  37.601  34.685   6.150
 8167POPC   C1A48795  37.678  34.589   6.450
 8167POPC   D2A48796  37.686  34.526   6.750
 8167POPC   C3A48797  37.723  34.527   7.050
 8167POPC   C4A48798  37.723  34.612   7.350
 8167POPC   C1B48799  37.566  34.849   6.450
 8167POPC   C2B48800  37.651  34.799   6.750
 8167POPC   C3B48801  37.642  34.817   7.050
 8167POPC   C4B48802  37.635  34.790   7.350
 8168POPC   NC348803  27.558  26.808   5.550
 8168POPC   PO448804  27.584  26.835   5.850
 8168POPC   GL148805  27.617  26.861   6.150
 8168POPC   GL248806  27.706  26.733   6.150
 8168POPC   C1A48807  27.571  26.838   6.450
 8168POPC   D2A48808  27.636  26.805   6.750
 8168POPC   C3A48809  27.604  26.833   7.050
 8168POPC   C4A48810  27.626  26.787   7.350
 8168POPC   C1B48811  27.786  26.768   6.450
 8168POPC   C2B48812  27.848  26.754   6.750
 8168POPC   C3B48813  27.788  26.781   7.050
 8168POPC   C4B48814  27.847  26.750   7.350
 8169POPC   NC348815   3.541  29.873   5.550
 8169POPC   PO448816   3.517  29.883   5.850
 8169POPC   GL148817   3.569  29.884   6.150
 8169POPC   GL248818   3.395  29.858   6.150
 8169POPC   C1A48819   3.590  29.888   6.450
 8169POPC   D2A48820   3.582  29.960   6.750
 8169POPC   C3A48821   3.570  29.948   7.050
 8169POPC   C4A48822   3.541  29.957   7.350
 8169POPC   C1B48823   3.282  29.858   6.450
 8169POPC   C2B48824   3.305  29.784   6.750
 8169POPC   C3B48825   3.349  29.787   7.050
 8169POPC   C4B48826   3.332  29.805   7.350
 8170POPC   NC348827  42.319  23.757   5.550
 8170POPC   PO448828  42.357  23.703   5.850
 8170POPC   GL148829  42.286  23.684   6.150
 8170POPC   GL248830  42.206  23.670   6.150
 8170POPC   C1A48831  42.376  23.738   6.450
 8170POPC   D2A48832  42.374  23.685   6.750
 8170POPC   C3A48833  42.347  23.671   7.050
 8170POPC   C4A48834  42.367  23.704   7.350
 8170POPC   C1B48835  42.118  23.685   6.450
 8170POPC   C2B48836  42.050  23.722   6.750
 8170POPC   C3B48837  42.132  23.651   7.050
 8170POPC   C4B48838  42.048  23.680   7.350
 8171POPC   NC348839  33.818   2.013   5.550
 8171POPC   PO448840  33.807   1.999   5.850
 8171POPC   GL148841  33.844   1.992   6.150
 8171POPC   GL248842  33.872   1.922   6.150
 8171POPC   C1A48843  33.781   1.956   6.450
 8171POPC   D2A48844  33.802   1.970   6.750
 8171POPC   C3A48845  33.832   1.958   7.050
 8171POPC   C4A48846  33.800   1.959   7.350
 8171POPC   C1B48847  34.043   1.861   6.450
 8171POPC   C2B48848  33.978   1.861   6.750
 8171POPC   C3B48849  33.979   1.839   7.050
 8171POPC   C4B48850  33.974   1.838   7.350
 8172POPC   NC348851  12.895  22.205   5.550
 8172POPC   PO448852  12.840  22.201   5.850
 8172POPC   GL148853  12.876  22.174   6.150
 8172POPC   GL248854  12.737  22.112   6.150
 8172POPC   C1A48855  12.884  22.119   6.450
 8172POPC   D2A48856  12.885  22.160   6.750
 8172POPC   C3A48857  12.896  22.151   7.050
 8172POPC   C4A48858  12.892  22.178   7.350
 8172POPC   C1B48859  12.557  22.171   6.450
 8172POPC   C2B48860  12.570  22.194   6.750
 8172POPC   C3B48861  12.577  22.193   7.050
 8172POPC   C4B48862  12.596  22.142   7.350
 8173POPC   NC348863  35.304  40.824   5.550
 8173POPC   PO448864  35.330  40.781   5.850
 8173POPC   GL148865  35.311  40.814   6.150
 8173POPC   GL248866  35.249  40.853   6.150
 8173POPC   C1A48867  35.307  40.801   6.450
 8173POPC   D2A48868  35.380  40.770   6.750
 8173POPC   C3A48869  35.312  40.749   7.050
 8173POPC   C4A48870  35.375  40.764   7.350
 8173POPC   C1B48871  35.136  40.922   6.450
 8173POPC   C2B48872  35.128  40.861   6.750
 8173POPC   C3B48873  35.152  40.856   7.050
 8173POPC   C4B48874  35.104  40.901   7.350
 8174POPC   NC348875  40.769   0.441   5.550
 8174POPC   PO448876  40.759   0.395   5.850
 8174POPC   GL148877  40.756   0.394   6.150
 8174POPC   GL248878  40.755   0.563   6.150
 8174POPC   C1A48879  40.737   0.414   6.450
 8174POPC   D2A48880  40.774   0.423   6.750
 8174POPC   C3A48881  40.743   0.444   7.050
 8174POPC   C4A48882  40.744   0.403   7.350
 8174POPC   C1B48883  40.623   0.629   6.450
 8174POPC   C2B48884  40.650   0.663   6.750
 8174POPC   C3B48885  40.654   0.626   7.050
 8174POPC   C4B48886  40.624   0.619   7.350
 8175POPC   NC348887  44.708  23.704   5.550
 8175POPC   PO448888  44.665  23.720   5.850
 8175POPC   GL148889  44.618  23.727   6.150
 8175POPC   GL248890  44.761  23.739   6.150
 8175POPC   C1A48891  44.679  23.678   6.450
 8175POPC   D2A48892  44.633  23.723   6.750
 8175POPC   C3A48893  44.701  23.734   7.050
 8175POPC   C4A48894  44.687  23.678   7.350
 8175POPC   C1B48895  44.921  23.834   6.450
 8175POPC   C2B48896  44.864  23.808   6.750
 8175POPC   C3B48897  44.921  23.833   7.050
 8175POPC   C4B48898  44.883  23.852   7.350
 8176POPC   NC348899  33.017  18.284   5.550
 8176POPC   PO448900  33.030  18.264   5.850
 8176POPC   GL148901  33.062  18.245   6.150
 8176POPC   GL248902  33.102  18.238   6.150
 8176POPC   C1A48903  33.012  18.282   6.450
 8176POPC   D2A48904  33.071  18.297   6.750
 8176POPC   C3A48905  33.030  18.264   7.050
 8176POPC   C4A48906  32.997  18.241   7.350
 8176POPC   C1B48907  33.284  18.226   6.450
 8176POPC   C2B48908  33.234  18.301   6.750
 8176POPC   C3B48909  33.311  18.282   7.050
 8176POPC   C4B48910  33.254  18.255   7.350
 8177POPC   NC348911  26.038   2.028   5.550
 8177POPC   PO448912  26.050   1.974   5.850
 8177POPC   GL148913  26.067   1.942   6.150
 8177POPC   GL248914  26.021   2.073   6.150
 8177POPC   C1A48915  26.027   2.033   6.450
 8177POPC   D2A48916  26.077   1.940   6.750
 8177POPC   C3A48917  26.028   2.036   7.050
 8177POPC   C4A48918  26.011   1.951   7.350
 8177POPC   C1B48919  26.122   2.232   6.450
 8177POPC   C2B48920  26.110   2.238   6.750
 8177POPC   C3B48921  26.135   2.222   7.050
 8177POPC   C4B48922  26.070   2.272   7.350
 8178POPC   NC348923  22.933  30.731   5.550
 8178POPC   PO448924  22.975  30.733   5.850
 8178POPC   GL148925  22.927  30.680   6.150
 8178POPC   GL248926  23.032  30.592   6.150
 8178POPC   C1A48927  22.960  30.703   6.450
 8178POPC   D2A48928  22.894  30.696   6.750
 8178POPC   C3A48929  22.934  30.669   7.050
 8178POPC   C4A48930  22.929  30.672   7.350
 8178POPC   C1B48931  23.127  30.516   6.450
 8178POPC   C2B48932  23.100  30.491   6.750
 8178POPC   C3B48933  23.083  30.515   7.050
 8178POPC   C4B48934  23.072  30.494   7.350
 8179POPC   NC348935  36.173  22.923   5.550
 8179POPC   PO448936  36.104  22.948   5.850
 8179POPC   GL148937  36.176  22.914   6.150
 8179POPC   GL248938  35.992  22.951   6.150
 8179POPC   C1A48939  36.176  22.942   6.450
 8179POPC   D2A48940  36.142  22.892   6.750
 8179POPC   C3A48941  36.092  22.977   7.050
 8179POPC   C4A48942  36.129  22.917   7.350
 8179POPC   C1B48943  35.860  23.026   6.450
 8179POPC   C2B48944  35.843  22.952   6.750
 8179POPC   C3B48945  35.884  23.009   7.050
 8179POPC   C4B48946  35.856  23.025   7.350
 8180POPC   NC348947  30.744  29.962   5.550
 8180POPC   PO448948  30.651  29.911   5.850
 8180POPC   GL148949  30.665  29.967   6.150
 8180POPC   GL248950  30.612  30.059   6.150
 8180POPC   C1A48951  30.676  29.887   6.450
 8180POPC   D2A48952  30.742  29.880   6.750
 8180POPC   C3A48953  30.714  29.938   7.050
 8180POPC   C4A48954  30.711  29.932   7.350
 8180POPC   C1B48955  30.590  30.075   6.450
 8180POPC   C2B48956  30.512  30.104   6.750
 8180POPC   C3B48957  30.583  30.147   7.050
 8180POPC   C4B48958  30.506  30.118   7.350
 8181POPC   NC348959  34.550  26.087   5.550
 8181POPC   PO448960  34.606  26.059   5.850
 8181POPC   GL148961  34.531  26.061   6.150
 8181POPC   GL248962  34.470  26.084   6.150
 8181POPC   C1A48963  34.543  26.080   6.450
 8181POPC   D2A48964  34.582  26.067   6.750
 8181POPC   C3A48965  34.595  26.000   7.050
 8181POPC   C4A48966  34.547  25.999   7.350
 8181POPC   C1B48967  34.321  26.084   6.450
 8181POPC   C2B48968  34.353  26.074   6.750
 8181POPC   C3B48969  34.356  26.054   7.050
 8181POPC   C4B48970  34.280  26.025   7.350
 8182POPC   NC348971  14.446  36.137   5.550
 8182POPC   PO448972  14.404  36.136   5.850
 8182POPC   GL148973  14.424  36.150   6.150
 8182POPC   GL248974  14.519  36.135   6.150
 8182POPC   C1A48975  14.430  36.124   6.450
 8182POPC   D2A48976  14.397  36.131   6.750
 8182POPC   C3A48977  14.379  36.173   7.050
 8182POPC   C4A48978  14.433  36.163   7.350
 8182POPC   C1B48979  14.625  36.227   6.450
 8182POPC   C2B48980  14.600  36.224   6.750
 8182POPC   C3B48981  14.618  36.150   7.050
 8182POPC   C4B48982  14.672  36.213   7.350
 8183POPC   NC348983  35.308  38.466   5.550
 8183POPC   PO448984  35.340  38.497   5.850
 8183POPC   GL148985  35.389  38.444   6.150
 8183POPC   GL248986  35.216  38.466   6.150
 8183POPC   C1A48987  35.358  38.484   6.450
 8183POPC   D2A48988  35.358  38.467   6.750
 8183POPC   C3A48989  35.391  38.407   7.050
 8183POPC   C4A48990  35.368  38.441   7.350
 8183POPC   C1B48991  35.119  38.403   6.450
 8183POPC   C2B48992  35.093  38.469   6.750
 8183POPC   C3B48993  35.059  38.430   7.050
 8183POPC   C4B48994  35.111  38.425   7.350
 8184POPC   NC348995  25.266   9.778   5.550
 8184POPC   PO448996  25.254   9.796   5.850
 8184POPC   GL148997  25.237   9.742   6.150
 8184POPC   GL248998  25.192   9.650   6.150
 8184POPC   C1A48999  25.265   9.710   6.450
 8184POPC   D2A49000  25.223   9.797   6.750
 8184POPC   C3A49001  25.219   9.743   7.050
 8184POPC   C4A49002  25.287   9.717   7.350
 8184POPC   C1B49003  25.054   9.670   6.450
 8184POPC   C2B49004  25.054   9.643   6.750
 8184POPC   C3B49005  25.032   9.655   7.050
 8184POPC   C4B49006  25.002   9.676   7.350
 8185POPC   NC349007  29.122  33.070   5.550
 8185POPC   PO449008  29.151  33.072   5.850
 8185POPC   GL149009  29.162  33.013   6.150
 8185POPC   GL249010  29.238  32.902   6.150
 8185POPC   C1A49011  29.098  32.978   6.450
 8185POPC   D2A49012  29.098  33.011   6.750
 8185POPC   C3A49013  29.164  32.976   7.050
 8185POPC   C4A49014  29.162  32.986   7.350
 8185POPC   C1B49015  29.317  32.778   6.450
 8185POPC   C2B49016  29.256  32.867   6.750
 8185POPC   C3B49017  29.303  32.802   7.050
 8185POPC   C4B49018  29.303  32.855   7.350
 8186POPC   NC349019  24.511  36.914   5.550
 8186POPC   PO449020  24.452  36.884   5.850
 8186POPC   GL149021  24.539  36.923   6.150
 8186POPC   GL249022  24.401  36.961   6.150
 8186POPC   C1A49023  24.498  36.912   6.450
 8186POPC   D2A49024  24.531  36.899   6.750
 8186POPC   C3A49025  24.449  36.950   7.050
 8186POPC   C4A49026  24.441  36.902   7.350
 8186POPC   C1B49027  24.287  37.105   6.450
 8186POPC   C2B49028  24.298  37.056   6.750
 8186POPC   C3B49029  24.351  37.121   7.050
 8186POPC   C4B49030  24.373  37.117   7.350
 8187POPC   NC349031  16.720  33.054   5.550
 8187POPC   PO449032  16.731  32.984   5.850
 8187POPC   GL149033  16.693  33.033   6.150
 8187POPC   GL249034  16.871  32.958   6.150
 8187POPC   C1A49035  16.763  33.038   6.450
 8187POPC   D2A49036  16.693  32.986   6.750
 8187POPC   C3A49037  16.772  32.997   7.050
 8187POPC   C4A49038  16.705  32.993   7.350
 8187POPC   C1B49039  16.888  32.899   6.450
 8187POPC   C2B49040  16.915  32.880   6.750
 8187POPC   C3B49041  16.885  32.870   7.050
 8187POPC   C4B49042  16.931  32.864   7.350
 8188POPC   NC349043   5.899   9.703   5.550
 8188POPC   PO449044   5.902   9.759   5.850
 8188POPC   GL149045   5.832   9.723   6.150
 8188POPC   GL249046   5.798   9.830   6.150
 8188POPC   C1A49047   5.830   9.701   6.450
 8188POPC   D2A49048   5.842   9.735   6.750
 8188POPC   C3A49049   5.880   9.705   7.050
 8188POPC   C4A49050   5.905   9.784   7.350
 8188POPC   C1B49051   5.741   9.979   6.450
 8188POPC   C2B49052   5.693   9.994   6.750
 8188POPC   C3B49053   5.671   9.924   7.050
 8188POPC   C4B49054   5.710   9.998   7.350
 8189POPC   NC349055   7.451  19.798   5.550
 8189POPC   PO449056   7.454  19.816   5.850
 8189POPC   GL149057   7.409  19.828   6.150
 8189POPC   GL249058   7.500  19.854   6.150
 8189POPC   C1A49059   7.470  19.814   6.450
 8189POPC   D2A49060   7.394  19.869   6.750
 8189POPC   C3A49061   7.373  19.884   7.050
 8189POPC   C4A49062   7.402  19.879   7.350
 8189POPC   C1B49063   7.664  19.793   6.450
 8189POPC   C2B49064   7.661  19.733   6.750
 8189POPC   C3B49065   7.637  19.751   7.050
 8189POPC   C4B49066   7.657  19.823   7.350
 8190POPC   NC349067  22.131  37.637   5.550
 8190POPC   PO449068  22.145  37.678   5.850
 8190POPC   GL149069  22.129  37.650   6.150
 8190POPC   GL249070  22.280  37.746   6.150
 8190POPC   C1A49071  22.131  37.715   6.450
 8190POPC   D2A49072  22.206  37.717   6.750
 8190POPC   C3A49073  22.152  37.703   7.050
 8190POPC   C4A49074  22.161  37.692   7.350
 8190POPC   C1B49075  22.426  37.716   6.450
 8190POPC   C2B49076  22.430  37.767   6.750
 8190POPC   C3B49077  22.425  37.792   7.050
 8190POPC   C4B49078  22.372  37.716   7.350
 8191POPC   NC349079  34.590  12.095   5.550
 8191POPC   PO449080  34.610  12.083   5.850
 8191POPC   GL149081  34.603  12.062   6.150
 8191POPC   GL249082  34.525  12.189   6.150
 8191POPC   C1A49083  34.600  12.123   6.450
 8191POPC   D2A49084  34.539  12.102   6.750
 8191POPC   C3A49085  34.555  12.052   7.050
 8191POPC   C4A49086  34.609  12.104   7.350
 8191POPC   C1B49087  34.417  12.256   6.450
 8191POPC   C2B49088  34.397  12.292   6.750
 8191POPC   C3B49089  34.424  12.292   7.050
 8191POPC   C4B49090  34.429  12.276   7.350
 8192POPC   NC349091  14.421  21.338   5.550
 8192POPC   PO449092  14.433  21.384   5.850
 8192POPC   GL149093  14.411  21.389   6.150
 8192POPC   GL249094  14.359  21.273   6.150
 8192POPC   C1A49095  14.372  21.406   6.450
 8192POPC   D2A49096  14.399  21.348   6.750
 8192POPC   C3A49097  14.452  21.358   7.050
 8192POPC   C4A49098  14.421  21.422   7.350
 8192POPC   C1B49099  14.189  21.188   6.450
 8192POPC   C2B49100  14.246  21.183   6.750
 8192POPC   C3B49101  14.188  21.196   7.050
 8192POPC   C4B49102  14.217  21.211   7.350
 8193POPC   NC349103   4.361  41.584   5.550
 8193POPC   PO449104   4.276  41.563   5.850
 8193POPC   GL149105   4.312  41.523   6.150
 8193POPC   GL249106   4.215  41.537   6.150
 8193POPC   C1A49107   4.337  41.574   6.450
 8193POPC   D2A49108   4.340  41.595   6.750
 8193POPC   C3A49109   4.355  41.549   7.050
 8193POPC   C4A49110   4.326  41.510   7.350
 8193POPC   C1B49111   4.042  41.489   6.450
 8193POPC   C2B49112   4.055  41.445   6.750
 8193POPC   C3B49113   4.084  41.520   7.050
 8193POPC   C4B49114   4.102  41.479   7.350
 8194POPC   NC349115  30.676  39.958   5.550
 8194POPC   PO449116  30.713  40.042   5.850
 8194POPC   GL149117  30.660  40.054   6.150
 8194POPC   GL249118  30.701  40.173   6.150
 8194POPC   C1A49119  30.742  40.054   6.450
 8194POPC   D2A49120  30.670  40.041   6.750
 8194POPC   C3A49121  30.710  40.052   7.050
 8194POPC   C4A49122  30.721  40.053   7.350
 8194POPC   C1B49123  30.697  40.295   6.450
 8194POPC   C2B49124  30.615  40.233   6.750
 8194POPC   C3B49125  30.611  40.244   7.050
 8194POPC   C4B49126  30.660  40.297   7.350
 8195POPC   NC349127  24.462  30.700   5.550
 8195POPC   PO449128  24.522  30.665   5.850
 8195POPC   GL149129  24.493  30.739   6.150
 8195POPC   GL249130  24.597  30.656   6.150
 8195POPC   C1A49131  24.502  30.734   6.450
 8195POPC   D2A49132  24.490  30.660   6.750
 8195POPC   C3A49133  24.537  30.665   7.050
 8195POPC   C4A49134  24.501  30.695   7.350
 8195POPC   C1B49135  24.719  30.601   6.450
 8195POPC   C2B49136  24.744  30.672   6.750
 8195POPC   C3B49137  24.723  30.627   7.050
 8195POPC   C4B49138  24.715  30.619   7.350
 8196POPC   NC349139   5.095  29.898   5.550
 8196POPC   PO449140   5.116  29.911   5.850
 8196POPC   GL149141   5.137  29.902   6.150
 8196POPC   GL249142   5.205  29.875   6.150
 8196POPC   C1A49143   5.133  29.969   6.450
 8196POPC   D2A49144   5.094  29.877   6.750
 8196POPC   C3A49145   5.063  29.885   7.050
 8196POPC   C4A49146   5.133  29.941   7.350
 8196POPC   C1B49147   5.324  29.820   6.450
 8196POPC   C2B49148   5.337  29.812   6.750
 8196POPC   C3B49149   5.308  29.818   7.050
 8196POPC   C4B49150   5.290  29.824   7.350
 8197POPC   NC349151  23.688   3.556   5.550
 8197POPC   PO449152  23.666   3.545   5.850
 8197POPC   GL149153  23.671   3.555   6.150
 8197POPC   GL249154  23.764   3.648   6.150
 8197POPC   C1A49155  23.755   3.538   6.450
 8197POPC   D2A49156  23.736   3.495   6.750
 8197POPC   C3A49157  23.717   3.585   7.050
 8197POPC   C4A49158  23.747   3.511   7.350
 8197POPC   C1B49159  23.769   3.766   6.450
 8197POPC   C2B49160  23.744   3.775   6.750
 8197POPC   C3B49161  23.760   3.731   7.050
 8197POPC   C4B49162  23.782   3.759   7.350
 8198POPC   NC349163  29.898  26.044   5.550
 8198POPC   PO449164  29.879  25.999   5.850
 8198POPC   GL149165  29.950  26.008   6.150
 8198POPC   GL249166  29.868  26.215   6.150
 8198POPC   C1A49167  29.930  26.041   6.450
 8198POPC   D2A49168  29.876  26.061   6.750
 8198POPC   C3A49169  29.919  26.003   7.050
 8198POPC   C4A49170  29.966  26.004   7.350
 8198POPC   C1B49171  29.837  26.292   6.450
 8198POPC   C2B49172  29.861  26.241   6.750
 8198POPC   C3B49173  29.852  26.268   7.050
 8198POPC   C4B49174  29.831  26.241   7.350
 8199POPC   NC349175  26.077  10.512   5.550
 8199POPC   PO449176  26.011  10.557   5.850
 8199POPC   GL149177  26.006  10.540   6.150
 8199POPC   GL249178  25.887  10.485   6.150
 8199POPC   C1A49179  26.017  10.562   6.450
 8199POPC   D2A49180  26.038  10.498   6.750
 8199POPC   C3A49181  25.998  10.532   7.050
 8199POPC   C4A49182  25.997  10.538   7.350
 8199POPC   C1B49183  25.788  10.386   6.450
 8199POPC   C2B49184  25.829  10.439   6.750
 8199POPC   C3B49185  25.843  10.444   7.050
 8199POPC   C4B49186  25.823  10.393   7.350
 8200POPC   NC349187   6.616   6.683   5.550
 8200POPC   PO449188   6.627   6.669   5.850
 8200POPC   GL149189   6.693   6.637   6.150
 8200POPC   GL249190   6.715   6.796   6.150
 8200POPC   C1A49191   6.623   6.644   6.450
 8200POPC   D2A49192   6.613   6.674   6.750
 8200POPC   C3A49193   6.666   6.668   7.050
 8200POPC   C4A49194   6.640   6.674   7.350
 8200POPC   C1B49195   6.801   6.866   6.450
 8200POPC   C2B49196   6.780   6.906   6.750
 8200POPC   C3B49197   6.722   6.825   7.050
 8200POPC   C4B49198   6.770   6.865   7.350
 8201POPC   NC349199  12.074  27.600   5.550
 8201POPC   PO449200  12.062  27.566   5.850
 8201POPC   GL149201  12.076  27.607   6.150
 8201POPC   GL249202  11.983  27.484   6.150
 8201POPC   C1A49203  12.066  27.580   6.450
 8201POPC   D2A49204  12.086  27.586   6.750
 8201POPC   C3A49205  12.029  27.562   7.050
 8201POPC   C4A49206  12.051  27.623   7.350
 8201POPC   C1B49207  11.927  27.378   6.450
 8201POPC   C2B49208  11.964  27.412   6.750
 8201POPC   C3B49209  12.004  27.366   7.050
 8201POPC   C4B49210  11.956  27.339   7.350
 8202POPC   NC349211  14.412  31.423   5.550
 8202POPC   PO449212  14.449  31.464   5.850
 8202POPC   GL149213  14.410  31.427   6.150
 8202POPC   GL249214  14.389  31.365   6.150
 8202POPC   C1A49215  14.364  31.474   6.450
 8202POPC   D2A49216  14.439  31.455   6.750
 8202POPC   C3A49217  14.430  31.479   7.050
 8202POPC   C4A49218  14.436  31.490   7.350
 8202POPC   C1B49219  14.278  31.238   6.450
 8202POPC   C2B49220  14.306  31.205   6.750
 8202POPC   C3B49221  14.328  31.251   7.050
 8202POPC   C4B49222  14.340  31.220   7.350
 8203POPC   NC349223  11.298   3.559   5.550
 8203POPC   PO449224  11.300   3.533   5.850
 8203POPC   GL149225  11.348   3.509   6.150
 8203POPC   GL249226  11.356   3.656   6.150
 8203POPC   C1A49227  11.332   3.577   6.450
 8203POPC   D2A49228  11.265   3.510   6.750
 8203POPC   C3A49229  11.309   3.532   7.050
 8203POPC   C4A49230  11.346   3.520   7.350
 8203POPC   C1B49231  11.407   3.766   6.450
 8203POPC   C2B49232  11.340   3.772   6.750
 8203POPC   C3B49233  11.353   3.763   7.050
 8203POPC   C4B49234  11.419   3.779   7.350
 8204POPC   NC349235  35.327  20.561   5.550
 8204POPC   PO449236  35.340  20.637   5.850
 8204POPC   GL149237  35.392  20.648   6.150
 8204POPC   GL249238  35.190  20.619   6.150
 8204POPC   C1A49239  35.370  20.600   6.450
 8204POPC   D2A49240  35.390  20.615   6.750
 8204POPC   C3A49241  35.313  20.641   7.050
 8204POPC   C4A49242  35.345  20.594   7.350
 8204POPC   C1B49243  35.073  20.598   6.450
 8204POPC   C2B49244  35.103  20.608   6.750
 8204POPC   C3B49245  35.066  20.612   7.050
 8204POPC   C4B49246  35.091  20.573   7.350
 8205POPC   NC349247  25.253   8.926   5.550
 8205POPC   PO449248  25.312   8.980   5.850
 8205POPC   GL149249  25.302   8.935   6.150
 8205POPC   GL249250  25.361   9.077   6.150
 8205POPC   C1A49251  25.265   8.946   6.450
 8205POPC   D2A49252  25.261   9.006   6.750
 8205POPC   C3A49253  25.253   8.971   7.050
 8205POPC   C4A49254  25.309   8.931   7.350
 8205POPC   C1B49255  25.390   9.243   6.450
 8205POPC   C2B49256  25.335   9.197   6.750
 8205POPC   C3B49257  25.362   9.238   7.050
 8205POPC   C4B49258  25.313   9.217   7.350
 8206POPC   NC349259  17.528  26.860   5.550
 8206POPC   PO449260  17.537  26.853   5.850
 8206POPC   GL149261  17.457  26.865   6.150
 8206POPC   GL249262  17.404  26.785   6.150
 8206POPC   C1A49263  17.545  26.828   6.450
 8206POPC   D2A49264  17.542  26.860   6.750
 8206POPC   C3A49265  17.530  26.818   7.050
 8206POPC   C4A49266  17.484  26.865   7.350
 8206POPC   C1B49267  17.226  26.787   6.450
 8206POPC   C2B49268  17.293  26.833   6.750
 8206POPC   C3B49269  17.252  26.778   7.050
 8206POPC   C4B49270  17.214  26.790   7.350
 8207POPC   NC349271  39.258  40.830   5.550
 8207POPC   PO449272  39.228  40.761   5.850
 8207POPC   GL149273  39.190  40.801   6.150
 8207POPC   GL249274  39.172  40.851   6.150
 8207POPC   C1A49275  39.193  40.801   6.450
 8207POPC   D2A49276  39.270  40.832   6.750
 8207POPC   C3A49277  39.206  40.780   7.050
 8207POPC   C4A49278  39.271  40.745   7.350
 8207POPC   C1B49279  39.046  40.937   6.450
 8207POPC   C2B49280  39.019  40.995   6.750
 8207POPC   C3B49281  39.035  40.946   7.050
 8207POPC   C4B49282  39.027  41.002   7.350
 8208POPC   NC349283  26.810  18.299   5.550
 8208POPC   PO449284  26.791  18.284   5.850
 8208POPC   GL149285  26.835  18.331   6.150
 8208POPC   GL249286  26.712  18.405   6.150
 8208POPC   C1A49287  26.837  18.251   6.450
 8208POPC   D2A49288  26.824  18.247   6.750
 8208POPC   C3A49289  26.852  18.277   7.050
 8208POPC   C4A49290  26.816  18.326   7.350
 8208POPC   C1B49291  26.658  18.462   6.450
 8208POPC   C2B49292  26.677  18.496   6.750
 8208POPC   C3B49293  26.690  18.511   7.050
 8208POPC   C4B49294  26.611  18.486   7.350
 8209POPC   NC349295  31.451  33.827   5.550
 8209POPC   PO449296  31.435  33.773   5.850
 8209POPC   GL149297  31.519  33.764   6.150
 8209POPC   GL249298  31.614  33.760   6.150
 8209POPC   C1A49299  31.502  33.817   6.450
 8209POPC   D2A49300  31.463  33.814   6.750
 8209POPC   C3A49301  31.486  33.818   7.050
 8209POPC   C4A49302  31.483  33.752   7.350
 8209POPC   C1B49303  31.682  33.840   6.450
 8209POPC   C2B49304  31.769  33.787   6.750
 8209POPC   C3B49305  31.692  33.845   7.050
 8209POPC   C4B49306  31.718  33.811   7.350
 8210POPC   NC349307  21.382   1.257   5.550
 8210POPC   PO449308  21.432   1.237   5.850
 8210POPC   GL149309  21.351   1.187   6.150
 8210POPC   GL249310  21.249   1.323   6.150
 8210POPC   C1A49311  21.359   1.174   6.450
 8210POPC   D2A49312  21.396   1.214   6.750
 8210POPC   C3A49313  21.367   1.220   7.050
 8210POPC   C4A49314  21.414   1.247   7.350
 8210POPC   C1B49315  21.221   1.436   6.450
 8210POPC   C2B49316  21.205   1.433   6.750
 8210POPC   C3B49317  21.162   1.410   7.050
 8210POPC   C4B49318  21.220   1.409   7.350
 8211POPC   NC349319   0.434  20.642   5.550
 8211POPC   PO449320   0.484  20.586   5.850
 8211POPC   GL149321   0.390  20.655   6.150
 8211POPC   GL249322   0.387  20.566   6.150
 8211POPC   C1A49323   0.455  20.570   6.450
 8211POPC   D2A49324   0.428  20.632   6.750
 8211POPC   C3A49325   0.458  20.599   7.050
 8211POPC   C4A49326   0.454  20.646   7.350
 8211POPC   C1B49327   0.240  20.429   6.450
 8211POPC   C2B49328   0.271  20.385   6.750
 8211POPC   C3B49329   0.236  20.435   7.050
 8211POPC   C4B49330   0.234  20.396   7.350
 8212POPC   NC349331  28.402  18.235   5.550
 8212POPC   PO449332  28.358  18.248   5.850
 8212POPC   GL149333  28.336  18.329   6.150
 8212POPC   GL249334  28.267  18.365   6.150
 8212POPC   C1A49335  28.367  18.265   6.450
 8212POPC   D2A49336  28.363  18.251   6.750
 8212POPC   C3A49337  28.388  18.250   7.050
 8212POPC   C4A49338  28.338  18.317   7.350
 8212POPC   C1B49339  28.159  18.477   6.450
 8212POPC   C2B49340  28.163  18.449   6.750
 8212POPC   C3B49341  28.137  18.444   7.050
 8212POPC   C4B49342  28.198  18.444   7.350
 8213POPC   NC349343  35.367   6.674   5.550
 8213POPC   PO449344  35.353   6.672   5.850
 8213POPC   GL149345  35.334   6.674   6.150
 8213POPC   GL249346  35.334   6.548   6.150
 8213POPC   C1A49347  35.333   6.606   6.450
 8213POPC   D2A49348  35.389   6.603   6.750
 8213POPC   C3A49349  35.381   6.613   7.050
 8213POPC   C4A49350  35.327   6.637   7.350
 8213POPC   C1B49351  35.367   6.348   6.450
 8213POPC   C2B49352  35.362   6.423   6.750
 8213POPC   C3B49353  35.358   6.440   7.050
 8213POPC   C4B49354  35.299   6.389   7.350
 8214POPC   NC349355   8.208   0.446   5.550
 8214POPC   PO449356   8.183   0.438   5.850
 8214POPC   GL149357   8.156   0.424   6.150
 8214POPC   GL249358   8.270   0.334   6.150
 8214POPC   C1A49359   8.222   0.407   6.450
 8214POPC   D2A49360   8.220   0.397   6.750
 8214POPC   C3A49361   8.174   0.388   7.050
 8214POPC   C4A49362   8.151   0.482   7.350
 8214POPC   C1B49363   8.408   0.294   6.450
 8214POPC   C2B49364   8.404   0.248   6.750
 8214POPC   C3B49365   8.332   0.257   7.050
 8214POPC   C4B49366   8.354   0.237   7.350
 8215POPC   NC349367   2.814  26.865   5.550
 8215POPC   PO449368   2.786  26.802   5.850
 8215POPC   GL149369   2.802  26.839   6.150
 8215POPC   GL249370   2.899  26.902   6.150
 8215POPC   C1A49371   2.758  26.853   6.450
 8215POPC   D2A49372   2.745  26.821   6.750
 8215POPC   C3A49373   2.781  26.793   7.050
 8215POPC   C4A49374   2.790  26.857   7.350
 8215POPC   C1B49375   2.913  26.988   6.450
 8215POPC   C2B49376   2.960  27.038   6.750
 8215POPC   C3B49377   2.944  26.982   7.050
 8215POPC   C4B49378   2.978  26.952   7.350
 8216POPC   NC349379  22.909   2.750   5.550
 8216POPC   PO449380  22.949   2.718   5.850
 8216POPC   GL149381  22.919   2.734   6.150
 8216POPC   GL249382  22.934   2.690   6.150
 8216POPC   C1A49383  22.898   2.815   6.450
 8216POPC   D2A49384  22.928   2.733   6.750
 8216POPC   C3A49385  22.974   2.749   7.050
 8216POPC   C4A49386  22.902   2.786   7.350
 8216POPC   C1B49387  22.931   2.561   6.450
 8216POPC   C2B49388  22.885   2.545   6.750
 8216POPC   C3B49389  22.863   2.496   7.050
 8216POPC   C4B49390  22.945   2.498   7.350
 8217POPC   NC349391  37.641  13.643   5.550
 8217POPC   PO449392  37.714  13.650   5.850
 8217POPC   GL149393  37.724  13.638   6.150
 8217POPC   GL249394  37.542  13.639   6.150
 8217POPC   C1A49395  37.708  13.596   6.450
 8217POPC   D2A49396  37.677  13.662   6.750
 8217POPC   C3A49397  37.664  13.675   7.050
 8217POPC   C4A49398  37.688  13.643   7.350
 8217POPC   C1B49399  37.410  13.538   6.450
 8217POPC   C2B49400  37.414  13.543   6.750
 8217POPC   C3B49401  37.469  13.587   7.050
 8217POPC   C4B49402  37.387  13.625   7.350
 8218POPC   NC349403  12.092  36.148   5.550
 8218POPC   PO449404  12.053  36.110   5.850
 8218POPC   GL149405  12.102  36.093   6.150
 8218POPC   GL249406  12.164  36.150   6.150
 8218POPC   C1A49407  12.054  36.087   6.450
 8218POPC   D2A49408  12.056  36.145   6.750
 8218POPC   C3A49409  12.120  36.105   7.050
 8218POPC   C4A49410  12.086  36.174   7.350
 8218POPC   C1B49411  12.281  36.188   6.450
 8218POPC   C2B49412  12.270  36.169   6.750
 8218POPC   C3B49413  12.272  36.181   7.050
 8218POPC   C4B49414  12.328  36.145   7.350
 8219POPC   NC349415  16.703  44.705   5.550
 8219POPC   PO449416  16.775  44.652   5.850
 8219POPC   GL149417  16.682  44.711   6.150
 8219POPC   GL249418  16.738  44.548   6.150
 8219POPC   C1A49419  16.691  44.694   6.450
 8219POPC   D2A49420  16.759  44.646   6.750
 8219POPC   C3A49421  16.736  44.662   7.050
 8219POPC   C4A49422  16.780  44.634   7.350
 8219POPC   C1B49423  16.713  44.400   6.450
 8219POPC   C2B49424  16.733  44.387   6.750
 8219POPC   C3B49425  16.748  44.401   7.050
 8219POPC   C4B49426  16.753  44.382   7.350
 8220POPC   NC349427  28.380  43.117   5.550
 8220POPC   PO449428  28.416  43.088   5.850
 8220POPC   GL149429  28.406  43.115   6.150
 8220POPC   GL249430  28.444  43.050   6.150
 8220POPC   C1A49431  28.341  43.116   6.450
 8220POPC   D2A49432  28.352  43.064   6.750
 8220POPC   C3A49433  28.382  43.118   7.050
 8220POPC   C4A49434  28.374  43.158   7.350
 8220POPC   C1B49435  28.651  43.034   6.450
 8220POPC   C2B49436  28.645  43.095   6.750
 8220POPC   C3B49437  28.584  43.028   7.050
 8220POPC   C4B49438  28.648  43.087   7.350
 8221POPC   NC349439  29.132  42.343   5.550
 8221POPC   PO449440  29.171  42.349   5.850
 8221POPC   GL149441  29.097  42.311   6.150
 8221POPC   GL249442  29.046  42.398   6.150
 8221POPC   C1A49443  29.098  42.346   6.450
 8221POPC   D2A49444  29.106  42.329   6.750
 8221POPC   C3A49445  29.124  42.382   7.050
 8221POPC   C4A49446  29.160  42.324   7.350
 8221POPC   C1B49447  29.002  42.585   6.450
 8221POPC   C2B49448  28.995  42.511   6.750
 8221POPC   C3B49449  29.043  42.552   7.050
 8221POPC   C4B49450  29.014  42.588   7.350
 8222POPC   NC349451  14.441  26.781   5.550
 8222POPC   PO449452  14.420  26.801   5.850
 8222POPC   GL149453  14.377  26.798   6.150
 8222POPC   GL249454  14.439  26.668   6.150
 8222POPC   C1A49455  14.433  26.773   6.450
 8222POPC   D2A49456  14.404  26.819   6.750
 8222POPC   C3A49457  14.355  26.786   7.050
 8222POPC   C4A49458  14.359  26.849   7.350
 8222POPC   C1B49459  14.434  26.610   6.450
 8222POPC   C2B49460  14.447  26.534   6.750
 8222POPC   C3B49461  14.373  26.576   7.050
 8222POPC   C4B49462  14.395  26.578   7.350
 8223POPC   NC349463  32.270  28.370   5.550
 8223POPC   PO449464  32.242  28.370   5.850
 8223POPC   GL149465  32.199  28.408   6.150
 8223POPC   GL249466  32.170  28.497   6.150
 8223POPC   C1A49467  32.291  28.406   6.450
 8223POPC   D2A49468  32.281  28.368   6.750
 8223POPC   C3A49469  32.220  28.394   7.050
 8223POPC   C4A49470  32.223  28.402   7.350
 8223POPC   C1B49471  32.188  28.656   6.450
 8223POPC   C2B49472  32.150  28.637   6.750
 8223POPC   C3B49473  32.132  28.579   7.050
 8223POPC   C4B49474  32.199  28.646   7.350
 8224POPC   NC349475   5.060   3.497   5.550
 8224POPC   PO449476   5.052   3.557   5.850
 8224POPC   GL149477   5.056   3.560   6.150
 8224POPC   GL249478   5.151   3.656   6.150
 8224POPC   C1A49479   5.108   3.555   6.450
 8224POPC   D2A49480   5.097   3.501   6.750
 8224POPC   C3A49481   5.115   3.565   7.050
 8224POPC   C4A49482   5.067   3.584   7.350
 8224POPC   C1B49483   5.332   3.731   6.450
 8224POPC   C2B49484   5.251   3.713   6.750
 8224POPC   C3B49485   5.266   3.718   7.050
 8224POPC   C4B49486   5.325   3.727   7.350
 8225POPC   NC349487  22.159  30.707   5.550
 8225POPC   PO449488  22.153  30.707   5.850
 8225POPC   GL149489  22.142  30.738   6.150
 8225POPC   GL249490  22.075  30.640   6.150
 8225POPC   C1A49491  22.191  30.728   6.450
 8225POPC   D2A49492  22.193  30.716   6.750
 8225POPC   C3A49493  22.115  30.687   7.050
 8225POPC   C4A49494  22.201  30.667   7.350
 8225POPC   C1B49495  22.038  30.511   6.450
 8225POPC   C2B49496  22.041  30.443   6.750
 8225POPC   C3B49497  21.978  30.534   7.050
 8225POPC   C4B49498  22.037  30.502   7.350
 8226POPC   NC349499  34.590  34.581   5.550
 8226POPC   PO449500  34.547  34.625   5.850
 8226POPC   GL149501  34.562  34.624   6.150
 8226POPC   GL249502  34.667  34.675   6.150
 8226POPC   C1A49503  34.614  34.622   6.450
 8226POPC   D2A49504  34.580  34.577   6.750
 8226POPC   C3A49505  34.569  34.602   7.050
 8226POPC   C4A49506  34.530  34.558   7.350
 8226POPC   C1B49507  34.819  34.721   6.450
 8226POPC   C2B49508  34.833  34.729   6.750
 8226POPC   C3B49509  34.793  34.679   7.050
 8226POPC   C4B49510  34.796  34.732   7.350
 8227POPC   NC349511   8.952  31.512   5.550
 8227POPC   PO449512   8.948  31.488   5.850
 8227POPC   GL149513   8.960  31.431   6.150
 8227POPC   GL249514   8.920  31.638   6.150
 8227POPC   C1A49515   8.958  31.512   6.450
 8227POPC   D2A49516   8.990  31.482   6.750
 8227POPC   C3A49517   8.929  31.485   7.050
 8227POPC   C4A49518   9.005  31.514   7.350
 8227POPC   C1B49519   8.929  31.738   6.450
 8227POPC   C2B49520   8.891  31.699   6.750
 8227POPC   C3B49521   8.904  31.714   7.050
 8227POPC   C4B49522   8.929  31.704   7.350
 8228POPC   NC349523  11.304  36.167   5.550
 8228POPC   PO449524  11.323  36.096   5.850
 8228POPC   GL149525  11.294  36.148   6.150
 8228POPC   GL249526  11.335  36.295   6.150
 8228POPC   C1A49527  11.342  36.175   6.450
 8228POPC   D2A49528  11.284  36.171   6.750
 8228POPC   C3A49529  11.319  36.132   7.050
 8228POPC   C4A49530  11.326  36.116   7.350
 8228POPC   C1B49531  11.350  36.340   6.450
 8228POPC   C2B49532  11.422  36.352   6.750
 8228POPC   C3B49533  11.365  36.385   7.050
 8228POPC   C4B49534  11.363  36.324   7.350
 8229POPC   NC349535  35.354  10.484   5.550
 8229POPC   PO449536  35.310  10.569   5.850
 8229POPC   GL149537  35.366  10.523   6.150
 8229POPC   GL249538  35.265  10.569   6.150
 8229POPC   C1A49539  35.322  10.492   6.450
 8229POPC   D2A49540  35.314  10.476   6.750
 8229POPC   C3A49541  35.352  10.567   7.050
 8229POPC   C4A49542  35.323  10.529   7.350
 8229POPC   C1B49543  35.154  10.654   6.450
 8229POPC   C2B49544  35.158  10.655   6.750
 8229POPC   C3B49545  35.109  10.618   7.050
 8229POPC   C4B49546  35.156  10.636   7.350
 8230POPC   NC349547  31.514   6.682   5.550
 8230POPC   PO449548  31.510   6.635   5.850
 8230POPC   GL149549  31.511   6.664   6.150
 8230POPC   GL249550  31.395   6.551   6.150
 8230POPC   C1A49551  31.425   6.628   6.450
 8230POPC   D2A49552  31.464   6.633   6.750
 8230POPC   C3A49553  31.502   6.686   7.050
 8230POPC   C4A49554  31.494   6.623   7.350
 8230POPC   C1B49555  31.311   6.377   6.450
 8230POPC   C2B49556  31.368   6.377   6.750
 8230POPC   C3B49557  31.340   6.381   7.050
 8230POPC   C4B49558  31.385   6.454   7.350
 8231POPC   NC349559  20.640  26.770   5.550
 8231POPC   PO449560  20.618  26.778   5.850
 8231POPC   GL149561  20.566  26.824   6.150
 8231POPC   GL249562  20.545  26.740   6.150
 8231POPC   C1A49563  20.636  26.788   6.450
 8231POPC   D2A49564  20.629  26.864   6.750
 8231POPC   C3A49565  20.562  26.839   7.050
 8231POPC   C4A49566  20.572  26.843   7.350
 8231POPC   C1B49567  20.413  26.686   6.450
 8231POPC   C2B49568  20.416  26.644   6.750
 8231POPC   C3B49569  20.376  26.671   7.050
 8231POPC   C4B49570  20.392  26.633   7.350
 8232POPC   NC349571  43.128  22.124   5.550
 8232POPC   PO449572  43.126  22.113   5.850
 8232POPC   GL149573  43.076  22.130   6.150
 8232POPC   GL249574  43.169  22.263   6.150
 8232POPC   C1A49575  43.090  22.196   6.450
 8232POPC   D2A49576  43.146  22.113   6.750
 8232POPC   C3A49577  43.086  22.115   7.050
 8232POPC   C4A49578  43.068  22.179   7.350
 8232POPC   C1B49579  43.312  22.353   6.450
 8232POPC   C2B49580  43.282  22.364   6.750
 8232POPC   C3B49581  43.329  22.349   7.050
 8232POPC   C4B49582  43.349  22.294   7.350
 8233POPC   NC349583  36.935  42.358   5.550
 8233POPC   PO449584  36.876  42.305   5.850
 8233POPC   GL149585  36.857  42.302   6.150
 8233POPC   GL249586  36.788  42.236   6.150
 8233POPC   C1A49587  36.891  42.354   6.450
 8233POPC   D2A49588  36.855  42.315   6.750
 8233POPC   C3A49589  36.861  42.296   7.050
 8233POPC   C4A49590  36.872  42.374   7.350
 8233POPC   C1B49591  36.653  42.167   6.450
 8233POPC   C2B49592  36.671  42.190   6.750
 8233POPC   C3B49593  36.654  42.186   7.050
 8233POPC   C4B49594  36.712  42.222   7.350
 8234POPC   NC349595  38.477  29.924   5.550
 8234POPC   PO449596  38.462  29.897   5.850
 8234POPC   GL149597  38.452  29.874   6.150
 8234POPC   GL249598  38.322  30.004   6.150
 8234POPC   C1A49599  38.463  29.901   6.450
 8234POPC   D2A49600  38.413  29.958   6.750
 8234POPC   C3A49601  38.499  29.885   7.050
 8234POPC   C4A49602  38.454  29.943   7.350
 8234POPC   C1B49603  38.277  30.147   6.450
 8234POPC   C2B49604  38.235  30.081   6.750
 8234POPC   C3B49605  38.264  30.087   7.050
 8234POPC   C4B49606  38.292  30.105   7.350
 8235POPC   NC349607  29.190  44.680   5.550
 8235POPC   PO449608  29.127  44.641   5.850
 8235POPC   GL149609  29.148  44.690   6.150
 8235POPC   GL249610  28.981  44.655   6.150
 8235POPC   C1A49611  29.104  44.671   6.450
 8235POPC   D2A49612  29.180  44.639   6.750
 8235POPC   C3A49613  29.181  44.628   7.050
 8235POPC   C4A49614  29.168  44.642   7.350
 8235POPC   C1B49615  28.919  44.614   6.450
 8235POPC   C2B49616  28.900  44.613   6.750
 8235POPC   C3B49617  28.880  44.660   7.050
 8235POPC   C4B49618  28.921  44.654   7.350
 8236POPC   NC349619  29.181  32.198   5.550
 8236POPC   PO449620  29.157  32.202   5.850
 8236POPC   GL149621  29.110  32.288   6.150
 8236POPC   GL249622  29.229  32.300   6.150
 8236POPC   C1A49623  29.156  32.289   6.450
 8236POPC   D2A49624  29.125  32.285   6.750
 8236POPC   C3A49625  29.159  32.261   7.050
 8236POPC   C4A49626  29.101  32.252   7.350
 8236POPC   C1B49627  29.342  32.339   6.450
 8236POPC   C2B49628  29.397  32.334   6.750
 8236POPC   C3B49629  29.375  32.416   7.050
 8236POPC   C4B49630  29.383  32.377   7.350
 8237POPC   NC349631  29.158  36.091   5.550
 8237POPC   PO449632  29.180  36.134   5.850
 8237POPC   GL149633  29.127  36.143   6.150
 8237POPC   GL249634  29.218  36.295   6.150
 8237POPC   C1A49635  29.139  36.146   6.450
 8237POPC   D2A49636  29.194  36.163   6.750
 8237POPC   C3A49637  29.104  36.115   7.050
 8237POPC   C4A49638  29.122  36.116   7.350
 8237POPC   C1B49639  29.193  36.332   6.450
 8237POPC   C2B49640  29.231  36.377   6.750
 8237POPC   C3B49641  29.222  36.342   7.050
 8237POPC   C4B49642  29.246  36.332   7.350
 8238POPC   NC349643   5.138  11.349   5.550
 8238POPC   PO449644   5.134  11.326   5.850
 8238POPC   GL149645   5.070  11.280   6.150
 8238POPC   GL249646   5.124  11.221   6.150
 8238POPC   C1A49647   5.101  11.298   6.450
 8238POPC   D2A49648   5.067  11.263   6.750
 8238POPC   C3A49649   5.115  11.294   7.050
 8238POPC   C4A49650   5.081  11.339   7.350
 8238POPC   C1B49651   5.184  11.022   6.450
 8238POPC   C2B49652   5.208  11.034   6.750
 8238POPC   C3B49653   5.136  11.073   7.050
 8238POPC   C4B49654   5.217  11.080   7.350
 8239POPC   NC349655  33.839  31.453   5.550
 8239POPC   PO449656  33.751  31.480   5.850
 8239POPC   GL149657  33.782  31.521   6.150
 8239POPC   GL249658  33.734  31.559   6.150
 8239POPC   C1A49659  33.820  31.452   6.450
 8239POPC   D2A49660  33.779  31.474   6.750
 8239POPC   C3A49661  33.783  31.493   7.050
 8239POPC   C4A49662  33.771  31.468   7.350
 8239POPC   C1B49663  33.735  31.741   6.450
 8239POPC   C2B49664  33.711  31.683   6.750
 8239POPC   C3B49665  33.736  31.746   7.050
 8239POPC   C4B49666  33.751  31.723   7.350
 8240POPC   NC349667  15.949  23.735   5.550
 8240POPC   PO449668  15.989  23.680   5.850
 8240POPC   GL149669  15.970  23.697   6.150
 8240POPC   GL249670  15.894  23.826   6.150
 8240POPC   C1A49671  15.966  23.671   6.450
 8240POPC   D2A49672  15.912  23.712   6.750
 8240POPC   C3A49673  15.948  23.746   7.050
 8240POPC   C4A49674  15.946  23.698   7.350
 8240POPC   C1B49675  15.786  23.851   6.450
 8240POPC   C2B49676  15.784  23.861   6.750
 8240POPC   C3B49677  15.808  23.924   7.050
 8240POPC   C4B49678  15.822  23.887   7.350
 8241POPC   NC349679  28.340  36.142   5.550
 8241POPC   PO449680  28.348  36.175   5.850
 8241POPC   GL149681  28.407  36.141   6.150
 8241POPC   GL249682  28.408  36.167   6.150
 8241POPC   C1A49683  28.350  36.105   6.450
 8241POPC   D2A49684  28.345  36.128   6.750
 8241POPC   C3A49685  28.404  36.127   7.050
 8241POPC   C4A49686  28.405  36.132   7.350
 8241POPC   C1B49687  28.548  36.287   6.450
 8241POPC   C2B49688  28.524  36.304   6.750
 8241POPC   C3B49689  28.586  36.326   7.050
 8241POPC   C4B49690  28.586  36.326   7.350
 8242POPC   NC349691   1.998   9.754   5.550
 8242POPC   PO449692   1.981   9.740   5.850
 8242POPC   GL149693   1.957   9.768   6.150
 8242POPC   GL249694   1.837   9.736   6.150
 8242POPC   C1A49695   1.993   9.755   6.450
 8242POPC   D2A49696   1.993   9.777   6.750
 8242POPC   C3A49697   1.945   9.771   7.050
 8242POPC   C4A49698   1.981   9.746   7.350
 8242POPC   C1B49699   1.740   9.779   6.450
 8242POPC   C2B49700   1.709   9.794   6.750
 8242POPC   C3B49701   1.725   9.756   7.050
 8242POPC   C4B49702   1.755   9.775   7.350
 8243POPC   NC349703  25.306  15.206   5.550
 8243POPC   PO449704  25.221  15.146   5.850
 8243POPC   GL149705  25.295  15.214   6.150
 8243POPC   GL249706  25.174  15.168   6.150
 8243POPC   C1A49707  25.229  15.167   6.450
 8243POPC   D2A49708  25.224  15.160   6.750
 8243POPC   C3A49709  25.240  15.186   7.050
 8243POPC   C4A49710  25.239  15.157   7.350
 8243POPC   C1B49711  24.989  15.262   6.450
 8243POPC   C2B49712  25.035  15.255   6.750
 8243POPC   C3B49713  24.990  15.272   7.050
 8243POPC   C4B49714  25.037  15.197   7.350
 8244POPC   NC349715   9.789   2.025   5.550
 8244POPC   PO449716   9.757   1.962   5.850
 8244POPC   GL149717   9.761   2.018   6.150
 8244POPC   GL249718   9.803   1.922   6.150
 8244POPC   C1A49719   9.726   1.975   6.450
 8244POPC   D2A49720   9.739   1.963   6.750
 8244POPC   C3A49721   9.798   2.022   7.050
 8244POPC   C4A49722   9.752   2.027   7.350
 8244POPC   C1B49723   9.899   1.813   6.450
 8244POPC   C2B49724   9.856   1.765   6.750
 8244POPC   C3B49725   9.929   1.800   7.050
 8244POPC   C4B49726   9.932   1.793   7.350
 8245POPC   NC349727  19.837  12.122   5.550
 8245POPC   PO449728  19.825  12.048   5.850
 8245POPC   GL149729  19.804  12.107   6.150
 8245POPC   GL249730  19.813  11.949   6.150
 8245POPC   C1A49731  19.860  12.123   6.450
 8245POPC   D2A49732  19.796  12.070   6.750
 8245POPC   C3A49733  19.815  12.093   7.050
 8245POPC   C4A49734  19.805  12.111   7.350
 8245POPC   C1B49735  19.758  11.814   6.450
 8245POPC   C2B49736  19.753  11.811   6.750
 8245POPC   C3B49737  19.692  11.883   7.050
 8245POPC   C4B49738  19.736  11.840   7.350
 8246POPC   NC349739  37.673  29.182   5.550
 8246POPC   PO449740  37.647  29.132   5.850
 8246POPC   GL149741  37.689  29.105   6.150
 8246POPC   GL249742  37.699  29.252   6.150
 8246POPC   C1A49743  37.666  29.193   6.450
 8246POPC   D2A49744  37.632  29.184   6.750
 8246POPC   C3A49745  37.653  29.139   7.050
 8246POPC   C4A49746  37.696  29.145   7.350
 8246POPC   C1B49747  37.677  29.386   6.450
 8246POPC   C2B49748  37.672  29.380   6.750
 8246POPC   C3B49749  37.743  29.397   7.050
 8246POPC   C4B49750  37.707  29.361   7.350
 8247POPC   NC349751  10.524  19.045   5.550
 8247POPC   PO449752  10.543  19.062   5.850
 8247POPC   GL149753  10.540  19.026   6.150
 8247POPC   GL249754  10.457  19.038   6.150
 8247POPC   C1A49755  10.545  19.021   6.450
 8247POPC   D2A49756  10.475  19.034   6.750
 8247POPC   C3A49757  10.553  19.090   7.050
 8247POPC   C4A49758  10.483  19.050   7.350
 8247POPC   C1B49759  10.290  18.966   6.450
 8247POPC   C2B49760  10.301  18.919   6.750
 8247POPC   C3B49761  10.283  18.977   7.050
 8247POPC   C4B49762  10.337  18.907   7.350
 8248POPC   NC349763  24.472  38.408   5.550
 8248POPC   PO449764  24.440  38.471   5.850
 8248POPC   GL149765  24.498  38.468   6.150
 8248POPC   GL249766  24.352  38.486   6.150
 8248POPC   C1A49767  24.478  38.411   6.450
 8248POPC   D2A49768  24.515  38.497   6.750
 8248POPC   C3A49769  24.446  38.442   7.050
 8248POPC   C4A49770  24.491  38.458   7.350
 8248POPC   C1B49771  24.252  38.381   6.450
 8248POPC   C2B49772  24.199  38.463   6.750
 8248POPC   C3B49773  24.230  38.383   7.050
 8248POPC   C4B49774  24.213  38.475   7.350
 8249POPC   NC349775  32.269  30.655   5.550
 8249POPC   PO449776  32.212  30.680   5.850
 8249POPC   GL149777  32.203  30.671   6.150
 8249POPC   GL249778  32.292  30.610   6.150
 8249POPC   C1A49779  32.226  30.692   6.450
 8249POPC   D2A49780  32.262  30.720   6.750
 8249POPC   C3A49781  32.235  30.708   7.050
 8249POPC   C4A49782  32.252  30.696   7.350
 8249POPC   C1B49783  32.400  30.445   6.450
 8249POPC   C2B49784  32.319  30.479   6.750
 8249POPC   C3B49785  32.353  30.447   7.050
 8249POPC   C4B49786  32.378  30.449   7.350
 8250POPC   NC349787  19.824  12.840   5.550
 8250POPC   PO449788  19.874  12.820   5.850
 8250POPC   GL149789  19.805  12.848   6.150
 8250POPC   GL249790  19.909  12.851   6.150
 8250POPC   C1A49791  19.813  12.874   6.450
 8250POPC   D2A49792  19.875  12.816   6.750
 8250POPC   C3A49793  19.840  12.804   7.050
 8250POPC   C4A49794  19.789  12.885   7.350
 8250POPC   C1B49795  20.125  12.870   6.450
 8250POPC   C2B49796  20.115  12.910   6.750
 8250POPC   C3B49797  20.109  12.946   7.050
 8250POPC   C4B49798  20.128  12.877   7.350
 8251POPC   NC349799  35.397   8.200   5.550
 8251POPC   PO449800  35.341   8.218   5.850
 8251POPC   GL149801  35.332   8.180   6.150
 8251POPC   GL249802  35.349   8.083   6.150
 8251POPC   C1A49803  35.366   8.244   6.450
 8251POPC   D2A49804  35.387   8.149   6.750
 8251POPC   C3A49805  35.372   8.181   7.050
 8251POPC   C4A49806  35.358   8.196   7.350
 8251POPC   C1B49807  35.407   7.997   6.450
 8251POPC   C2B49808  35.369   7.958   6.750
 8251POPC   C3B49809  35.436   7.940   7.050
 8251POPC   C4B49810  35.446   7.920   7.350
 8252POPC   NC349811   7.373  15.950   5.550
 8252POPC   PO449812   7.377  15.928   5.850
 8252POPC   GL149813   7.388  15.977   6.150
 8252POPC   GL249814   7.324  15.896   6.150
 8252POPC   C1A49815   7.378  15.965   6.450
 8252POPC   D2A49816   7.448  15.973   6.750
 8252POPC   C3A49817   7.390  15.952   7.050
 8252POPC   C4A49818   7.395  15.918   7.350
 8252POPC   C1B49819   7.251  15.778   6.450
 8252POPC   C2B49820   7.255  15.798   6.750
 8252POPC   C3B49821   7.244  15.789   7.050
 8252POPC   C4B49822   7.184  15.747   7.350
 8253POPC   NC349823   0.442  40.743   5.550
 8253POPC   PO449824   0.409  40.824   5.850
 8253POPC   GL149825   0.482  40.758   6.150
 8253POPC   GL249826   0.397  40.907   6.150
 8253POPC   C1A49827   0.393  40.764   6.450
 8253POPC   D2A49828   0.427  40.823   6.750
 8253POPC   C3A49829   0.394  40.770   7.050
 8253POPC   C4A49830   0.444  40.784   7.350
 8253POPC   C1B49831   0.440  41.045   6.450
 8253POPC   C2B49832   0.380  41.042   6.750
 8253POPC   C3B49833   0.413  41.079   7.050
 8253POPC   C4B49834   0.387  41.071   7.350
 8254POPC   NC349835  10.527   5.121   5.550
 8254POPC   PO449836  10.553   5.079   5.850
 8254POPC   GL149837  10.548   5.133   6.150
 8254POPC   GL249838  10.614   5.161   6.150
 8254POPC   C1A49839  10.545   5.044   6.450
 8254POPC   D2A49840  10.552   5.099   6.750
 8254POPC   C3A49841  10.548   5.135   7.050
 8254POPC   C4A49842  10.501   5.069   7.350
 8254POPC   C1B49843  10.754   5.138   6.450
 8254POPC   C2B49844  10.774   5.199   6.750
 8254POPC   C3B49845  10.803   5.143   7.050
 8254POPC   C4B49846  10.788   5.164   7.350
 8255POPC   NC349847  12.048  32.268   5.550
 8255POPC   PO449848  12.095  32.250   5.850
 8255POPC   GL149849  12.066  32.239   6.150
 8255POPC   GL249850  11.956  32.257   6.150
 8255POPC   C1A49851  12.068  32.245   6.450
 8255POPC   D2A49852  12.069  32.213   6.750
 8255POPC   C3A49853  12.112  32.250   7.050
 8255POPC   C4A49854  12.078  32.260   7.350
 8255POPC   C1B49855  11.833  32.358   6.450
 8255POPC   C2B49856  11.801  32.332   6.750
 8255POPC   C3B49857  11.802  32.313   7.050
 8255POPC   C4B49858  11.795  32.367   7.350
 8256POPC   NC349859  16.719  41.580   5.550
 8256POPC   PO449860  16.689  41.518   5.850
 8256POPC   GL149861  16.699  41.544   6.150
 8256POPC   GL249862  16.762  41.484   6.150
 8256POPC   C1A49863  16.682  41.596   6.450
 8256POPC   D2A49864  16.699  41.545   6.750
 8256POPC   C3A49865  16.722  41.534   7.050
 8256POPC   C4A49866  16.772  41.538   7.350
 8256POPC   C1B49867  16.834  41.330   6.450
 8256POPC   C2B49868  16.788  41.283   6.750
 8256POPC   C3B49869  16.844  41.312   7.050
 8256POPC   C4B49870  16.872  41.363   7.350
 8257POPC   NC349871  37.654   1.173   5.550
 8257POPC   PO449872  37.728   1.194   5.850
 8257POPC   GL149873  37.640   1.184   6.150
 8257POPC   GL249874  37.775   1.209   6.150
 8257POPC   C1A49875  37.713   1.182   6.450
 8257POPC   D2A49876  37.702   1.191   6.750
 8257POPC   C3A49877  37.650   1.164   7.050
 8257POPC   C4A49878  37.676   1.166   7.350
 8257POPC   C1B49879  37.956   1.288   6.450
 8257POPC   C2B49880  37.883   1.332   6.750
 8257POPC   C3B49881  37.925   1.344   7.050
 8257POPC   C4B49882  37.887   1.286   7.350
 8258POPC   NC349883   5.080   0.429   5.550
 8258POPC   PO449884   5.093   0.426   5.850
 8258POPC   GL149885   5.126   0.474   6.150
 8258POPC   GL249886   4.996   0.416   6.150
 8258POPC   C1A49887   5.074   0.415   6.450
 8258POPC   D2A49888   5.127   0.462   6.750
 8258POPC   C3A49889   5.107   0.414   7.050
 8258POPC   C4A49890   5.106   0.403   7.350
 8258POPC   C1B49891   4.823   0.423   6.450
 8258POPC   C2B49892   4.838   0.453   6.750
 8258POPC   C3B49893   4.847   0.389   7.050
 8258POPC   C4B49894   4.876   0.424   7.350
 8259POPC   NC349895  26.817  10.545   5.550
 8259POPC   PO449896  26.812  10.487   5.850
 8259POPC   GL149897  26.827  10.521   6.150
 8259POPC   GL249898  26.822  10.438   6.150
 8259POPC   C1A49899  26.768  10.537   6.450
 8259POPC   D2A49900  26.848  10.566   6.750
 8259POPC   C3A49901  26.774  10.492   7.050
 8259POPC   C4A49902  26.782  10.541   7.350
 8259POPC   C1B49903  26.848  10.244   6.450
 8259POPC   C2B49904  26.793  10.254   6.750
 8259POPC   C3B49905  26.814  10.303   7.050
 8259POPC   C4B49906  26.790  10.294   7.350
 8260POPC   NC349907  26.782  40.010   5.550
 8260POPC   PO449908  26.801  40.022   5.850
 8260POPC   GL149909  26.789  39.986   6.150
 8260POPC   GL249910  26.872  40.130   6.150
 8260POPC   C1A49911  26.809  40.016   6.450
 8260POPC   D2A49912  26.820  39.969   6.750
 8260POPC   C3A49913  26.771  39.980   7.050
 8260POPC   C4A49914  26.784  40.037   7.350
 8260POPC   C1B49915  26.954  40.176   6.450
 8260POPC   C2B49916  26.997  40.188   6.750
 8260POPC   C3B49917  26.919  40.174   7.050
 8260POPC   C4B49918  27.000  40.234   7.350
 8261POPC   NC349919  44.669   9.702   5.550
 8261POPC   PO449920  44.658   9.708   5.850
 8261POPC   GL149921  44.687   9.724   6.150
 8261POPC   GL249922  44.570   9.697   6.150
 8261POPC   C1A49923  44.692   9.741   6.450
 8261POPC   D2A49924  44.699   9.759   6.750
 8261POPC   C3A49925  44.619   9.752   7.050
 8261POPC   C4A49926  44.636   9.732   7.350
 8261POPC   C1B49927  44.397   9.679   6.450
 8261POPC   C2B49928  44.406   9.739   6.750
 8261POPC   C3B49929  44.411   9.703   7.050
 8261POPC   C4B49930  44.385   9.728   7.350
 8262POPC   NC349931   2.008  12.039   5.550
 8262POPC   PO449932   2.001  12.049   5.850
 8262POPC   GL149933   1.946  12.100   6.150
 8262POPC   GL249934   2.129  12.009   6.150
 8262POPC   C1A49935   1.949  12.044   6.450
 8262POPC   D2A49936   1.980  12.054   6.750
 8262POPC   C3A49937   2.019  12.073   7.050
 8262POPC   C4A49938   2.014  12.038   7.350
 8262POPC   C1B49939   2.261  11.968   6.450
 8262POPC   C2B49940   2.216  12.010   6.750
 8262POPC   C3B49941   2.251  12.028   7.050
 8262POPC   C4B49942   2.217  11.994   7.350
 8263POPC   NC349943   9.010  24.476   5.550
 8263POPC   PO449944   8.927  24.530   5.850
 8263POPC   GL149945   9.019  24.471   6.150
 8263POPC   GL249946   9.053  24.517   6.150
 8263POPC   C1A49947   9.010  24.445   6.450
 8263POPC   D2A49948   8.929  24.443   6.750
 8263POPC   C3A49949   8.945  24.505   7.050
 8263POPC   C4A49950   8.988  24.465   7.350
 8263POPC   C1B49951   9.195  24.541   6.450
 8263POPC   C2B49952   9.203  24.483   6.750
 8263POPC   C3B49953   9.199  24.567   7.050
 8263POPC   C4B49954   9.214  24.533   7.350
 8264POPC   NC349955   8.196  29.969   5.550
 8264POPC   PO449956   8.214  29.936   5.850
 8264POPC   GL149957   8.181  29.891   6.150
 8264POPC   GL249958   8.341  29.944   6.150
 8264POPC   C1A49959   8.195  29.971   6.450
 8264POPC   D2A49960   8.198  29.938   6.750
 8264POPC   C3A49961   8.225  29.965   7.050
 8264POPC   C4A49962   8.227  29.910   7.350
 8264POPC   C1B49963   8.437  29.958   6.450
 8264POPC   C2B49964   8.421  29.955   6.750
 8264POPC   C3B49965   8.400  29.906   7.050
 8264POPC   C4B49966   8.489  29.896   7.350
 8265POPC   NC349967  43.884  15.954   5.550
 8265POPC   PO449968  43.894  15.962   5.850
 8265POPC   GL149969  43.881  15.936   6.150
 8265POPC   GL249970  43.909  16.079   6.150
 8265POPC   C1A49971  43.892  16.003   6.450
 8265POPC   D2A49972  43.909  15.918   6.750
 8265POPC   C3A49973  43.845  15.944   7.050
 8265POPC   C4A49974  43.904  15.979   7.350
 8265POPC   C1B49975  43.883  16.229   6.450
 8265POPC   C2B49976  43.849  16.228   6.750
 8265POPC   C3B49977  43.908  16.159   7.050
 8265POPC   C4B49978  43.902  16.221   7.350
 8266POPC   NC349979  36.137   0.450   5.550
 8266POPC   PO449980  36.078   0.408   5.850
 8266POPC   GL149981  36.171   0.449   6.150
 8266POPC   GL249982  36.232   0.472   6.150
 8266POPC   C1A49983  36.108   0.437   6.450
 8266POPC   D2A49984  36.169   0.451   6.750
 8266POPC   C3A49985  36.118   0.460   7.050
 8266POPC   C4A49986  36.157   0.403   7.350
 8266POPC   C1B49987  36.396   0.576   6.450
 8266POPC   C2B49988  36.358   0.557   6.750
 8266POPC   C3B49989  36.359   0.568   7.050
 8266POPC   C4B49990  36.385   0.510   7.350
 8267POPC   NC349991   9.710   5.841   5.550
 8267POPC   PO449992   9.783   5.859   5.850
 8267POPC   GL149993   9.715   5.874   6.150
 8267POPC   GL249994   9.757   5.767   6.150
 8267POPC   C1A49995   9.784   5.888   6.450
 8267POPC   D2A49996   9.739   5.832   6.750
 8267POPC   C3A49997   9.777   5.895   7.050
 8267POPC   C4A49998   9.793   5.846   7.350
 8267POPC   C1B49999   9.752   5.583   6.450
 8267POPC   C2B50000   9.698   5.668   6.750
 8267POPC   C3B50001   9.691   5.652   7.050
 8267POPC   C4B50002   9.687   5.579   7.350
 8268POPC   NC350003   1.165  12.823   5.550
 8268POPC   PO450004   1.204  12.838   5.850
 8268POPC   GL150005   1.177  12.808   6.150
 8268POPC   GL250006   1.209  12.769   6.150
 8268POPC   C1A50007   1.229  12.804   6.450
 8268POPC   D2A50008   1.238  12.899   6.750
 8268POPC   C3A50009   1.181  12.835   7.050
 8268POPC   C4A50010   1.197  12.806   7.350
 8268POPC   C1B50011   1.243  12.613   6.450
 8268POPC   C2B50012   1.178  12.642   6.750
 8268POPC   C3B50013   1.182  12.623   7.050
 8268POPC   C4B50014   1.213  12.589   7.350
 8269POPC   NC350015  36.109  15.185   5.550
 8269POPC   PO450016  36.165  15.176   5.850
 8269POPC   GL150017  36.134  15.219   6.150
 8269POPC   GL250018  36.260  15.059   6.150
 8269POPC   C1A50019  36.101  15.192   6.450
 8269POPC   D2A50020  36.168  15.213   6.750
 8269POPC   C3A50021  36.129  15.164   7.050
 8269POPC   C4A50022  36.128  15.188   7.350
 8269POPC   C1B50023  36.351  15.026   6.450
 8269POPC   C2B50024  36.360  14.994   6.750
 8269POPC   C3B50025  36.297  15.079   7.050
 8269POPC   C4B50026  36.363  15.005   7.350
 8270POPC   NC350027  15.183   9.780   5.550
 8270POPC   PO450028  15.197   9.756   5.850
 8270POPC   GL150029  15.138   9.772   6.150
 8270POPC   GL250030  15.025   9.714   6.150
 8270POPC   C1A50031  15.214   9.748   6.450
 8270POPC   D2A50032  15.166   9.713   6.750
 8270POPC   C3A50033  15.149   9.726   7.050
 8270POPC   C4A50034  15.149   9.733   7.350
 8270POPC   C1B50035  14.943   9.721   6.450
 8270POPC   C2B50036  14.916   9.713   6.750
 8270POPC   C3B50037  14.903   9.684   7.050
 8270POPC   C4B50038  14.930   9.725   7.350
 8271POPC   NC350039   0.408  18.295   5.550
 8271POPC   PO450040   0.449  18.315   5.850
 8271POPC   GL150041   0.463  18.257   6.150
 8271POPC   GL250042   0.515  18.280   6.150
 8271POPC   C1A50043   0.434  18.295   6.450
 8271POPC   D2A50044   0.445  18.233   6.750
 8271POPC   C3A50045   0.460  18.255   7.050
 8271POPC   C4A50046   0.444  18.269   7.350
 8271POPC   C1B50047   0.695  18.315   6.450
 8271POPC   C2B50048   0.652  18.239   6.750
 8271POPC   C3B50049   0.678  18.320   7.050
 8271POPC   C4B50050   0.724  18.242   7.350
 8272POPC   NC350051  34.578  33.844   5.550
 8272POPC   PO450052  34.574  33.836   5.850
 8272POPC   GL150053  34.582  33.845   6.150
 8272POPC   GL250054  34.742  33.853   6.150
 8272POPC   C1A50055  34.620  33.813   6.450
 8272POPC   D2A50056  34.593  33.785   6.750
 8272POPC   C3A50057  34.604  33.783   7.050
 8272POPC   C4A50058  34.568  33.756   7.350
 8272POPC   C1B50059  34.821  33.862   6.450
 8272POPC   C2B50060  34.783  33.835   6.750
 8272POPC   C3B50061  34.801  33.818   7.050
 8272POPC   C4B50062  34.866  33.843   7.350
 8273POPC   NC350063   4.340  26.032   5.550
 8273POPC   PO450064   4.280  26.090   5.850
 8273POPC   GL150065   4.272  26.056   6.150
 8273POPC   GL250066   4.430  26.043   6.150
 8273POPC   C1A50067   4.310  26.013   6.450
 8273POPC   D2A50068   4.347  26.090   6.750
 8273POPC   C3A50069   4.290  26.032   7.050
 8273POPC   C4A50070   4.342  26.009   7.350
 8273POPC   C1B50071   4.545  25.978   6.450
 8273POPC   C2B50072   4.544  26.013   6.750
 8273POPC   C3B50073   4.579  26.004   7.050
 8273POPC   C4B50074   4.593  25.950   7.350
 8274POPC   NC350075  35.391  32.297   5.550
 8274POPC   PO450076  35.400  32.256   5.850
 8274POPC   GL150077  35.352  32.285   6.150
 8274POPC   GL250078  35.192  32.255   6.150
 8274POPC   C1A50079  35.387  32.278   6.450
 8274POPC   D2A50080  35.321  32.246   6.750
 8274POPC   C3A50081  35.311  32.254   7.050
 8274POPC   C4A50082  35.369  32.255   7.350
 8274POPC   C1B50083  35.156  32.350   6.450
 8274POPC   C2B50084  35.155  32.349   6.750
 8274POPC   C3B50085  35.133  32.374   7.050
 8274POPC   C4B50086  35.174  32.375   7.350
 8275POPC   NC350087  40.818  43.134   5.550
 8275POPC   PO450088  40.793  43.079   5.850
 8275POPC   GL150089  40.815  43.144   6.150
 8275POPC   GL250090  40.863  42.999   6.150
 8275POPC   C1A50091  40.757  43.118   6.450
 8275POPC   D2A50092  40.748  43.090   6.750
 8275POPC   C3A50093  40.823  43.108   7.050
 8275POPC   C4A50094  40.822  43.133   7.350
 8275POPC   C1B50095  40.858  42.855   6.450
 8275POPC   C2B50096  40.907  42.912   6.750
 8275POPC   C3B50097  40.931  42.904   7.050
 8275POPC   C4B50098  40.928  42.921   7.350
 8276POPC   NC350099  10.483  32.982   5.550
 8276POPC   PO450100  10.548  33.069   5.850
 8276POPC   GL150101  10.573  32.990   6.150
 8276POPC   GL250102  10.612  33.057   6.150
 8276POPC   C1A50103  10.511  33.073   6.450
 8276POPC   D2A50104  10.489  33.063   6.750
 8276POPC   C3A50105  10.556  33.053   7.050
 8276POPC   C4A50106  10.485  33.028   7.350
 8276POPC   C1B50107  10.767  33.109   6.450
 8276POPC   C2B50108  10.736  33.095   6.750
 8276POPC   C3B50109  10.710  33.127   7.050
 8276POPC   C4B50110  10.747  33.140   7.350
 8277POPC   NC350111  23.697   4.309   5.550
 8277POPC   PO450112  23.701   4.282   5.850
 8277POPC   GL150113  23.670   4.285   6.150
 8277POPC   GL250114  23.618   4.401   6.150
 8277POPC   C1A50115  23.708   4.296   6.450
 8277POPC   D2A50116  23.762   4.328   6.750
 8277POPC   C3A50117  23.679   4.268   7.050
 8277POPC   C4A50118  23.757   4.351   7.350
 8277POPC   C1B50119  23.484   4.466   6.450
 8277POPC   C2B50120  23.561   4.470   6.750
 8277POPC   C3B50121  23.525   4.434   7.050
 8277POPC   C4B50122  23.565   4.484   7.350
 8278POPC   NC350123  12.091  39.985   5.550
 8278POPC   PO450124  12.084  40.035   5.850
 8278POPC   GL150125  12.065  39.997   6.150
 8278POPC   GL250126  12.018  39.862   6.150
 8278POPC   C1A50127  12.063  40.005   6.450
 8278POPC   D2A50128  12.080  39.963   6.750
 8278POPC   C3A50129  12.078  39.960   7.050
 8278POPC   C4A50130  12.112  40.026   7.350
 8278POPC   C1B50131  11.923  39.805   6.450
 8278POPC   C2B50132  11.954  39.807   6.750
 8278POPC   C3B50133  11.979  39.746   7.050
 8278POPC   C4B50134  11.980  39.768   7.350
 8279POPC   NC350135  28.366   0.462   5.550
 8279POPC   PO450136  28.355   0.486   5.850
 8279POPC   GL150137  28.400   0.480   6.150
 8279POPC   GL250138  28.379   0.589   6.150
 8279POPC   C1A50139  28.348   0.484   6.450
 8279POPC   D2A50140  28.416   0.422   6.750
 8279POPC   C3A50141  28.354   0.446   7.050
 8279POPC   C4A50142  28.345   0.416   7.350
 8279POPC   C1B50143  28.437   0.648   6.450
 8279POPC   C2B50144  28.426   0.696   6.750
 8279POPC   C3B50145  28.462   0.665   7.050
 8279POPC   C4B50146  28.496   0.659   7.350
 8280POPC   NC350147  13.613  19.036   5.550
 8280POPC   PO450148  13.606  19.022   5.850
 8280POPC   GL150149  13.664  19.092   6.150
 8280POPC   GL250150  13.638  19.207   6.150
 8280POPC   C1A50151  13.602  19.060   6.450
 8280POPC   D2A50152  13.605  19.043   6.750
 8280POPC   C3A50153  13.589  19.093   7.050
 8280POPC   C4A50154  13.662  19.019   7.350
 8280POPC   C1B50155  13.567  19.352   6.450
 8280POPC   C2B50156  13.604  19.279   6.750
 8280POPC   C3B50157  13.589  19.296   7.050
 8280POPC   C4B50158  13.621  19.256   7.350
 8281POPC   NC350159  12.826  29.894   5.550
 8281POPC   PO450160  12.815  29.876   5.850
 8281POPC   GL150161  12.865  29.913   6.150
 8281POPC   GL250162  12.814  30.074   6.150
 8281POPC   C1A50163  12.893  29.950   6.450
 8281POPC   D2A50164  12.859  29.875   6.750
 8281POPC   C3A50165  12.809  29.946   7.050
 8281POPC   C4A50166  12.843  29.890   7.350
 8281POPC   C1B50167  12.787  30.204   6.450
 8281POPC   C2B50168  12.850  30.159   6.750
 8281POPC   C3B50169  12.859  30.146   7.050
 8281POPC   C4B50170  12.814  30.189   7.350
 8282POPC   NC350171   1.191  43.092   5.550
 8282POPC   PO450172   1.171  43.061   5.850
 8282POPC   GL150173   1.264  43.157   6.150
 8282POPC   GL250174   1.089  43.081   6.150
 8282POPC   C1A50175   1.235  43.157   6.450
 8282POPC   D2A50176   1.235  43.106   6.750
 8282POPC   C3A50177   1.197  43.093   7.050
 8282POPC   C4A50178   1.201  43.068   7.350
 8282POPC   C1B50179   0.952  43.040   6.450
 8282POPC   C2B50180   0.972  43.072   6.750
 8282POPC   C3B50181   1.018  43.061   7.050
 8282POPC   C4B50182   0.991  42.995   7.350
 8283POPC   NC350183  43.100  44.702   5.550
 8283POPC   PO450184  43.159  44.662   5.850
 8283POPC   GL150185  43.070  44.692   6.150
 8283POPC   GL250186  43.225  44.583   6.150
 8283POPC   C1A50187  43.115  44.636   6.450
 8283POPC   D2A50188  43.082  44.652   6.750
 8283POPC   C3A50189  43.102  44.697   7.050
 8283POPC   C4A50190  43.071  44.647   7.350
 8283POPC   C1B50191  43.318  44.542   6.450
 8283POPC   C2B50192  43.315  44.540   6.750
 8283POPC   C3B50193  43.307  44.543   7.050
 8283POPC   C4B50194  43.313  44.562   7.350
 8284POPC   NC350195   7.459   0.448   5.550
 8284POPC   PO450196   7.389   0.462   5.850
 8284POPC   GL150197   7.408   0.431   6.150
 8284POPC   GL250198   7.434   0.334   6.150
 8284POPC   C1A50199   7.422   0.396   6.450
 8284POPC   D2A50200   7.453   0.449   6.750
 8284POPC   C3A50201   7.456   0.479   7.050
 8284POPC   C4A50202   7.437   0.460   7.350
 8284POPC   C1B50203   7.379   0.219   6.450
 8284POPC   C2B50204   7.333   0.177   6.750
 8284POPC   C3B50205   7.343   0.194   7.050
 8284POPC   C4B50206   7.359   0.213   7.350
 8285POPC   NC350207  34.581  20.563   5.550
 8285POPC   PO450208  34.554  20.585   5.850
 8285POPC   GL150209  34.558  20.615   6.150
 8285POPC   GL250210  34.689  20.650   6.150
 8285POPC   C1A50211  34.568  20.591   6.450
 8285POPC   D2A50212  34.596  20.617   6.750
 8285POPC   C3A50213  34.620  20.657   7.050
 8285POPC   C4A50214  34.621  20.594   7.350
 8285POPC   C1B50215  34.738  20.740   6.450
 8285POPC   C2B50216  34.765  20.742   6.750
 8285POPC   C3B50217  34.738  20.718   7.050
 8285POPC   C4B50218  34.829  20.789   7.350
 8286POPC   NC350219  30.732   1.207   5.550
 8286POPC   PO450220  30.648   1.204   5.850
 8286POPC   GL150221  30.674   1.244   6.150
 8286POPC   GL250222  30.779   1.290   6.150
 8286POPC   C1A50223  30.732   1.225   6.450
 8286POPC   D2A50224  30.704   1.235   6.750
 8286POPC   C3A50225  30.733   1.262   7.050
 8286POPC   C4A50226  30.702   1.256   7.350
 8286POPC   C1B50227  30.868   1.463   6.450
 8286POPC   C2B50228  30.871   1.459   6.750
 8286POPC   C3B50229  30.845   1.445   7.050
 8286POPC   C4B50230  30.829   1.391   7.350
 8287POPC   NC350231  10.555   0.442   5.550
 8287POPC   PO450232  10.559   0.420   5.850
 8287POPC   GL150233  10.510   0.397   6.150
 8287POPC   GL250234  10.557   0.366   6.150
 8287POPC   C1A50235  10.527   0.414   6.450
 8287POPC   D2A50236  10.528   0.400   6.750
 8287POPC   C3A50237  10.557   0.439   7.050
 8287POPC   C4A50238  10.477   0.432   7.350
 8287POPC   C1B50239  10.643   0.220   6.450
 8287POPC   C2B50240  10.664   0.189   6.750
 8287POPC   C3B50241  10.671   0.218   7.050
 8287POPC   C4B50242  10.608   0.213   7.350
 8288POPC   NC350243  15.929  33.056   5.550
 8288POPC   PO450244  15.925  33.035   5.850
 8288POPC   GL150245  15.940  33.062   6.150
 8288POPC   GL250246  16.000  33.155   6.150
 8288POPC   C1A50247  15.989  33.064   6.450
 8288POPC   D2A50248  15.954  33.065   6.750
 8288POPC   C3A50249  15.934  33.058   7.050
 8288POPC   C4A50250  15.993  32.998   7.350
 8288POPC   C1B50251  16.032  33.305   6.450
 8288POPC   C2B50252  16.068  33.302   6.750
 8288POPC   C3B50253  16.021  33.301   7.050
 8288POPC   C4B50254  16.063  33.244   7.350
 8289POPC   NC350255  11.321   1.239   5.550
 8289POPC   PO450256  11.257   1.214   5.850
 8289POPC   GL150257  11.331   1.250   6.150
 8289POPC   GL250258  11.456   1.160   6.150
 8289POPC   C1A50259  11.341   1.181   6.450
 8289POPC   D2A50260  11.349   1.256   6.750
 8289POPC   C3A50261  11.268   1.225   7.050
 8289POPC   C4A50262  11.321   1.251   7.350
 8289POPC   C1B50263  11.587   1.189   6.450
 8289POPC   C2B50264  11.574   1.161   6.750
 8289POPC   C3B50265  11.581   1.157   7.050
 8289POPC   C4B50266  11.581   1.155   7.350
 8290POPC   NC350267  15.963  15.981   5.550
 8290POPC   PO450268  15.960  15.930   5.850
 8290POPC   GL150269  15.996  15.961   6.150
 8290POPC   GL250270  15.981  15.848   6.150
 8290POPC   C1A50271  15.939  15.920   6.450
 8290POPC   D2A50272  15.975  15.959   6.750
 8290POPC   C3A50273  15.990  15.936   7.050
 8290POPC   C4A50274  15.967  15.999   7.350
 8290POPC   C1B50275  15.927  15.729   6.450
 8290POPC   C2B50276  15.974  15.700   6.750
 8290POPC   C3B50277  15.998  15.663   7.050
 8290POPC   C4B50278  15.960  15.681   7.350
 8291POPC   NC350279  15.930  25.301   5.550
 8291POPC   PO450280  15.962  25.313   5.850
 8291POPC   GL150281  15.975  25.294   6.150
 8291POPC   GL250282  15.892  25.338   6.150
 8291POPC   C1A50283  15.961  25.220   6.450
 8291POPC   D2A50284  15.967  25.238   6.750
 8291POPC   C3A50285  15.957  25.290   7.050
 8291POPC   C4A50286  15.971  25.269   7.350
 8291POPC   C1B50287  15.719  25.381   6.450
 8291POPC   C2B50288  15.720  25.418   6.750
 8291POPC   C3B50289  15.790  25.467   7.050
 8291POPC   C4B50290  15.768  25.401   7.350
 8292POPC   NC350291  12.804  15.179   5.550
 8292POPC   PO450292  12.860  15.175   5.850
 8292POPC   GL150293  12.819  15.134   6.150
 8292POPC   GL250294  12.828  15.031   6.150
 8292POPC   C1A50295  12.845  15.219   6.450
 8292POPC   D2A50296  12.803  15.144   6.750
 8292POPC   C3A50297  12.897  15.156   7.050
 8292POPC   C4A50298  12.858  15.148   7.350
 8292POPC   C1B50299  12.683  14.943   6.450
 8292POPC   C2B50300  12.729  14.978   6.750
 8292POPC   C3B50301  12.752  14.955   7.050
 8292POPC   C4B50302  12.693  14.928   7.350
 8293POPC   NC350303  32.209  44.677   5.550
 8293POPC   PO450304  32.208  44.665   5.850
 8293POPC   GL150305  32.263  44.659   6.150
 8293POPC   GL250306  32.351  44.672   6.150
 8293POPC   C1A50307  32.290  44.690   6.450
 8293POPC   D2A50308  32.280  44.689   6.750
 8293POPC   C3A50309  32.207  44.674   7.050
 8293POPC   C4A50310  32.256  44.702   7.350
 8293POPC   C1B50311  32.503  44.583   6.450
 8293POPC   C2B50312  32.485  44.639   6.750
 8293POPC   C3B50313  32.489  44.578   7.050
 8293POPC   C4B50314  32.492  44.562   7.350
 8294POPC   NC350315  16.706  29.121   5.550
 8294POPC   PO450316  16.698  29.141   5.850
 8294POPC   GL150317  16.734  29.123   6.150
 8294POPC   GL250318  16.735  29.259   6.150
 8294POPC   C1A50319  16.781  29.156   6.450
 8294POPC   D2A50320  16.754  29.190   6.750
 8294POPC   C3A50321  16.770  29.109   7.050
 8294POPC   C4A50322  16.769  29.138   7.350
 8294POPC   C1B50323  16.818  29.386   6.450
 8294POPC   C2B50324  16.768  29.370   6.750
 8294POPC   C3B50325  16.807  29.365   7.050
 8294POPC   C4B50326  16.768  29.350   7.350
 8295POPC   NC350327  12.885  20.653   5.550
 8295POPC   PO450328  12.860  20.643   5.850
 8295POPC   GL150329  12.895  20.601   6.150
 8295POPC   GL250330  12.836  20.713   6.150
 8295POPC   C1A50331  12.881  20.578   6.450
 8295POPC   D2A50332  12.868  20.637   6.750
 8295POPC   C3A50333  12.847  20.597   7.050
 8295POPC   C4A50334  12.879  20.651   7.350
 8295POPC   C1B50335  12.769  20.890   6.450
 8295POPC   C2B50336  12.760  20.851   6.750
 8295POPC   C3B50337  12.804  20.870   7.050
 8295POPC   C4B50338  12.799  20.877   7.350
 8296POPC   NC350339  22.184  28.344   5.550
 8296POPC   PO450340  22.133  28.361   5.850
 8296POPC   GL150341  22.118  28.400   6.150
 8296POPC   GL250342  21.998  28.430   6.150
 8296POPC   C1A50343  22.119  28.321   6.450
 8296POPC   D2A50344  22.202  28.413   6.750
 8296POPC   C3A50345  22.143  28.409   7.050
 8296POPC   C4A50346  22.144  28.409   7.350
 8296POPC   C1B50347  21.966  28.474   6.450
 8296POPC   C2B50348  21.960  28.468   6.750
 8296POPC   C3B50349  21.909  28.431   7.050
 8296POPC   C4B50350  21.941  28.463   7.350
 8297POPC   NC350351  33.030  44.645   5.550
 8297POPC   PO450352  33.045  44.658   5.850
 8297POPC   GL150353  33.006  44.635   6.150
 8297POPC   GL250354  32.937  44.685   6.150
 8297POPC   C1A50355  33.064  44.671   6.450
 8297POPC   D2A50356  33.016  44.690   6.750
 8297POPC   C3A50357  32.986  44.617   7.050
 8297POPC   C4A50358  33.073  44.634   7.350
 8297POPC   C1B50359  32.833  44.821   6.450
 8297POPC   C2B50360  32.831  44.760   6.750
 8297POPC   C3B50361  32.851  44.766   7.050
 8297POPC   C4B50362  32.762  44.820   7.350
 8298POPC   NC350363  23.731  42.379   5.550
 8298POPC   PO450364  23.712  42.383   5.850
 8298POPC   GL150365  23.680  42.312   6.150
 8298POPC   GL250366  23.779  42.433   6.150
 8298POPC   C1A50367  23.681  42.318   6.450
 8298POPC   D2A50368  23.673  42.325   6.750
 8298POPC   C3A50369  23.698  42.325   7.050
 8298POPC   C4A50370  23.713  42.355   7.350
 8298POPC   C1B50371  23.938  42.455   6.450
 8298POPC   C2B50372  23.937  42.494   6.750
 8298POPC   C3B50373  23.906  42.465   7.050
 8298POPC   C4B50374  23.876  42.466   7.350
 8299POPC   NC350375   7.465  30.670   5.550
 8299POPC   PO450376   7.446  30.706   5.850
 8299POPC   GL150377   7.386  30.658   6.150
 8299POPC   GL250378   7.353  30.836   6.150
 8299POPC   C1A50379   7.410  30.697   6.450
 8299POPC   D2A50380   7.441  30.719   6.750
 8299POPC   C3A50381   7.383  30.667   7.050
 8299POPC   C4A50382   7.423  30.740   7.350
 8299POPC   C1B50383   7.324  30.889   6.450
 8299POPC   C2B50384   7.372  30.900   6.750
 8299POPC   C3B50385   7.372  30.914   7.050
 8299POPC   C4B50386   7.372  30.884   7.350
 8300POPC   NC350387  17.539  12.815   5.550
 8300POPC   PO450388  17.523  12.817   5.850
 8300POPC   GL150389  17.518  12.822   6.150
 8300POPC   GL250390  17.514  12.941   6.150
 8300POPC   C1A50391  17.475  12.861   6.450
 8300POPC   D2A50392  17.498  12.896   6.750
 8300POPC   C3A50393  17.526  12.825   7.050
 8300POPC   C4A50394  17.536  12.846   7.350
 8300POPC   C1B50395  17.559  13.077   6.450
 8300POPC   C2B50396  17.535  13.149   6.750
 8300POPC   C3B50397  17.512  13.107   7.050
 8300POPC   C4B50398  17.566  13.144   7.350
 8301POPC   NC350399   7.396  26.009   5.550
 8301POPC   PO450400   7.371  26.020   5.850
 8301POPC   GL150401   7.442  26.071   6.150
 8301POPC   GL250402   7.278  26.069   6.150
 8301POPC   C1A50403   7.467  25.997   6.450
 8301POPC   D2A50404   7.430  26.012   6.750
 8301POPC   C3A50405   7.429  26.032   7.050
 8301POPC   C4A50406   7.465  25.995   7.350
 8301POPC   C1B50407   7.160  26.118   6.450
 8301POPC   C2B50408   7.186  26.057   6.750
 8301POPC   C3B50409   7.146  26.060   7.050
 8301POPC   C4B50410   7.138  26.088   7.350
 8302POPC   NC350411  22.113  33.817   5.550
 8302POPC   PO450412  22.125  33.794   5.850
 8302POPC   GL150413  22.162  33.832   6.150
 8302POPC   GL250414  22.300  33.896   6.150
 8302POPC   C1A50415  22.115  33.813   6.450
 8302POPC   D2A50416  22.131  33.844   6.750
 8302POPC   C3A50417  22.144  33.773   7.050
 8302POPC   C4A50418  22.196  33.787   7.350
 8302POPC   C1B50419  22.360  33.971   6.450
 8302POPC   C2B50420  22.384  33.970   6.750
 8302POPC   C3B50421  22.343  33.908   7.050
 8302POPC   C4B50422  22.398  33.911   7.350
 8303POPC   NC350423  13.592  33.757   5.550
 8303POPC   PO450424  13.592  33.802   5.850
 8303POPC   GL150425  13.593  33.838   6.150
 8303POPC   GL250426  13.503  33.764   6.150
 8303POPC   C1A50427  13.606  33.813   6.450
 8303POPC   D2A50428  13.646  33.794   6.750
 8303POPC   C3A50429  13.673  33.770   7.050
 8303POPC   C4A50430  13.675  33.808   7.350
 8303POPC   C1B50431  13.430  33.744   6.450
 8303POPC   C2B50432  13.392  33.694   6.750
 8303POPC   C3B50433  13.340  33.691   7.050
 8303POPC   C4B50434  13.377  33.727   7.350
 8304POPC   NC350435  36.930  32.216   5.550
 8304POPC   PO450436  36.863  32.261   5.850
 8304POPC   GL150437  36.918  32.270   6.150
 8304POPC   GL250438  36.829  32.361   6.150
 8304POPC   C1A50439  36.868  32.263   6.450
 8304POPC   D2A50440  36.864  32.277   6.750
 8304POPC   C3A50441  36.889  32.224   7.050
 8304POPC   C4A50442  36.916  32.256   7.350
 8304POPC   C1B50443  36.716  32.483   6.450
 8304POPC   C2B50444  36.770  32.447   6.750
 8304POPC   C3B50445  36.737  32.439   7.050
 8304POPC   C4B50446  36.764  32.414   7.350
 8305POPC   NC350447   5.130  10.514   5.550
 8305POPC   PO450448   5.044  10.477   5.850
 8305POPC   GL150449   5.120  10.563   6.150
 8305POPC   GL250450   5.197  10.642   6.150
 8305POPC   C1A50451   5.053  10.543   6.450
 8305POPC   D2A50452   5.085  10.502   6.750
 8305POPC   C3A50453   5.086  10.567   7.050
 8305POPC   C4A50454   5.082  10.484   7.350
 8305POPC   C1B50455   5.169  10.707   6.450
 8305POPC   C2B50456   5.227  10.772   6.750
 8305POPC   C3B50457   5.219  10.697   7.050
 8305POPC   C4B50458   5.262  10.771   7.350
 8306POPC   NC350459  17.557  10.536   5.550
 8306POPC   PO450460  17.506  10.478   5.850
 8306POPC   GL150461  17.509  10.561   6.150
 8306POPC   GL250462  17.453  10.407   6.150
 8306POPC   C1A50463  17.548  10.495   6.450
 8306POPC   D2A50464  17.550  10.494   6.750
 8306POPC   C3A50465  17.522  10.523   7.050
 8306POPC   C4A50466  17.522  10.528   7.350
 8306POPC   C1B50467  17.417  10.306   6.450
 8306POPC   C2B50468  17.454  10.294   6.750
 8306POPC   C3B50469  17.408  10.290   7.050
 8306POPC   C4B50470  17.402  10.272   7.350
 8307POPC   NC350471  12.881  44.652   5.550
 8307POPC   PO450472  12.808  44.633   5.850
 8307POPC   GL150473  12.823  44.633   6.150
 8307POPC   GL250474  12.789  44.613   6.150
 8307POPC   C1A50475  12.806  44.625   6.450
 8307POPC   D2A50476  12.821  44.623   6.750
 8307POPC   C3A50477  12.819  44.632   7.050
 8307POPC   C4A50478  12.823  44.643   7.350
 8307POPC   C1B50479  12.674  44.438   6.450
 8307POPC   C2B50480  12.661  44.488   6.750
 8307POPC   C3B50481  12.669  44.425   7.050
 8307POPC   C4B50482  12.668  44.506   7.350
 8308POPC   NC350483  24.485  16.702   5.550
 8308POPC   PO450484  24.513  16.756   5.850
 8308POPC   GL150485  24.523  16.738   6.150
 8308POPC   GL250486  24.585  16.692   6.150
 8308POPC   C1A50487  24.509  16.714   6.450
 8308POPC   D2A50488  24.504  16.731   6.750
 8308POPC   C3A50489  24.473  16.710   7.050
 8308POPC   C4A50490  24.533  16.753   7.350
 8308POPC   C1B50491  24.680  16.632   6.450
 8308POPC   C2B50492  24.773  16.612   6.750
 8308POPC   C3B50493  24.675  16.675   7.050
 8308POPC   C4B50494  24.689  16.642   7.350
 8309POPC   NC350495  40.755  42.359   5.550
 8309POPC   PO450496  40.823  42.321   5.850
 8309POPC   GL150497  40.791  42.365   6.150
 8309POPC   GL250498  40.894  42.197   6.150
 8309POPC   C1A50499  40.767  42.301   6.450
 8309POPC   D2A50500  40.778  42.344   6.750
 8309POPC   C3A50501  40.830  42.373   7.050
 8309POPC   C4A50502  40.810  42.330   7.350
 8309POPC   C1B50503  40.979  42.170   6.450
 8309POPC   C2B50504  40.994  42.143   6.750
 8309POPC   C3B50505  40.992  42.166   7.050
 8309POPC   C4B50506  40.943  42.174   7.350
 8310POPC   NC350507  14.417  14.441   5.550
 8310POPC   PO450508  14.425  14.444   5.850
 8310POPC   GL150509  14.439  14.365   6.150
 8310POPC   GL250510  14.378  14.320   6.150
 8310POPC   C1A50511  14.449  14.425   6.450
 8310POPC   D2A50512  14.371  14.402   6.750
 8310POPC   C3A50513  14.391  14.408   7.050
 8310POPC   C4A50514  14.423  14.436   7.350
 8310POPC   C1B50515  14.360  14.154   6.450
 8310POPC   C2B50516  14.299  14.172   6.750
 8310POPC   C3B50517  14.281  14.204   7.050
 8310POPC   C4B50518  14.311  14.201   7.350
 8311POPC   NC350519  19.075   8.930   5.550
 8311POPC   PO450520  19.058   8.947   5.850
 8311POPC   GL150521  19.082   9.008   6.150
 8311POPC   GL250522  19.010   8.940   6.150
 8311POPC   C1A50523  19.063   9.009   6.450
 8311POPC   D2A50524  19.077   8.946   6.750
 8311POPC   C3A50525  19.076   8.926   7.050
 8311POPC   C4A50526  19.012   8.947   7.350
 8311POPC   C1B50527  18.884   8.843   6.450
 8311POPC   C2B50528  18.845   8.794   6.750
 8311POPC   C3B50529  18.861   8.786   7.050
 8311POPC   C4B50530  18.844   8.854   7.350
 8312POPC   NC350531  39.249   7.381   5.550
 8312POPC   PO450532  39.223   7.428   5.850
 8312POPC   GL150533  39.222   7.458   6.150
 8312POPC   GL250534  39.362   7.490   6.150
 8312POPC   C1A50535  39.201   7.409   6.450
 8312POPC   D2A50536  39.210   7.408   6.750
 8312POPC   C3A50537  39.191   7.450   7.050
 8312POPC   C4A50538  39.191   7.457   7.350
 8312POPC   C1B50539  39.390   7.597   6.450
 8312POPC   C2B50540  39.405   7.563   6.750
 8312POPC   C3B50541  39.435   7.622   7.050
 8312POPC   C4B50542  39.472   7.537   7.350
 8313POPC   NC350543   5.076   8.243   5.550
 8313POPC   PO450544   5.117   8.159   5.850
 8313POPC   GL150545   5.056   8.220   6.150
 8313POPC   GL250546   5.222   8.156   6.150
 8313POPC   C1A50547   5.107   8.210   6.450
 8313POPC   D2A50548   5.064   8.159   6.750
 8313POPC   C3A50549   5.086   8.187   7.050
 8313POPC   C4A50550   5.117   8.180   7.350
 8313POPC   C1B50551   5.326   8.070   6.450
 8313POPC   C2B50552   5.310   8.099   6.750
 8313POPC   C3B50553   5.291   8.073   7.050
 8313POPC   C4B50554   5.301   8.057   7.350
 8314POPC   NC350555  33.063  19.070   5.550
 8314POPC   PO450556  32.993  19.010   5.850
 8314POPC   GL150557  33.038  19.059   6.150
 8314POPC   GL250558  32.966  18.957   6.150
 8314POPC   C1A50559  33.031  19.014   6.450
 8314POPC   D2A50560  33.073  19.101   6.750
 8314POPC   C3A50561  32.989  19.053   7.050
 8314POPC   C4A50562  33.026  19.030   7.350
 8314POPC   C1B50563  32.805  18.854   6.450
 8314POPC   C2B50564  32.886  18.851   6.750
 8314POPC   C3B50565  32.836  18.926   7.050
 8314POPC   C4B50566  32.822  18.932   7.350
 8315POPC   NC350567  12.900   6.664   5.550
 8315POPC   PO450568  12.888   6.661   5.850
 8315POPC   GL150569  12.872   6.608   6.150
 8315POPC   GL250570  12.812   6.534   6.150
 8315POPC   C1A50571  12.899   6.634   6.450
 8315POPC   D2A50572  12.874   6.600   6.750
 8315POPC   C3A50573  12.813   6.606   7.050
 8315POPC   C4A50574  12.868   6.678   7.350
 8315POPC   C1B50575  12.735   6.394   6.450
 8315POPC   C2B50576  12.765   6.389   6.750
 8315POPC   C3B50577  12.794   6.368   7.050
 8315POPC   C4B50578  12.714   6.378   7.350
 8316POPC   NC350579  36.944  23.735   5.550
 8316POPC   PO450580  36.900  23.705   5.850
 8316POPC   GL150581  36.892  23.714   6.150
 8316POPC   GL250582  36.797  23.644   6.150
 8316POPC   C1A50583  36.879  23.683   6.450
 8316POPC   D2A50584  36.931  23.671   6.750
 8316POPC   C3A50585  36.873  23.740   7.050
 8316POPC   C4A50586  36.950  23.761   7.350
 8316POPC   C1B50587  36.664  23.606   6.450
 8316POPC   C2B50588  36.631  23.625   6.750
 8316POPC   C3B50589  36.670  23.633   7.050
 8316POPC   C4B50590  36.632  23.604   7.350
 8317POPC   NC350591   6.691   0.457   5.550
 8317POPC   PO450592   6.664   0.466   5.850
 8317POPC   GL150593   6.651   0.402   6.150
 8317POPC   GL250594   6.629   0.535   6.150
 8317POPC   C1A50595   6.667   0.425   6.450
 8317POPC   D2A50596   6.630   0.394   6.750
 8317POPC   C3A50597   6.618   0.415   7.050
 8317POPC   C4A50598   6.611   0.413   7.350
 8317POPC   C1B50599   6.744   0.685   6.450
 8317POPC   C2B50600   6.694   0.652   6.750
 8317POPC   C3B50601   6.752   0.664   7.050
 8317POPC   C4B50602   6.660   0.640   7.350
 8318POPC   NC350603  39.187  12.107   5.550
 8318POPC   PO450604  39.195  12.060   5.850
 8318POPC   GL150605  39.215  12.111   6.150
 8318POPC   GL250606  39.282  11.948   6.150
 8318POPC   C1A50607  39.197  12.098   6.450
 8318POPC   D2A50608  39.270  12.065   6.750
 8318POPC   C3A50609  39.213  12.082   7.050
 8318POPC   C4A50610  39.233  12.101   7.350
 8318POPC   C1B50611  39.338  11.860   6.450
 8318POPC   C2B50612  39.404  11.868   6.750
 8318POPC   C3B50613  39.345  11.846   7.050
 8318POPC   C4B50614  39.412  11.892   7.350
 8319POPC   NC350615  20.653  44.612   5.550
 8319POPC   PO450616  20.648  44.667   5.850
 8319POPC   GL150617  20.650  44.623   6.150
 8319POPC   GL250618  20.561  44.569   6.150
 8319POPC   C1A50619  20.634  44.692   6.450
 8319POPC   D2A50620  20.623  44.636   6.750
 8319POPC   C3A50621  20.562  44.691   7.050
 8319POPC   C4A50622  20.601  44.651   7.350
 8319POPC   C1B50623  20.580  44.454   6.450
 8319POPC   C2B50624  20.624  44.461   6.750
 8319POPC   C3B50625  20.573  44.381   7.050
 8319POPC   C4B50626  20.636  44.425   7.350
 8320POPC   NC350627  36.899  19.864   5.550
 8320POPC   PO450628  36.923  19.809   5.850
 8320POPC   GL150629  36.944  19.825   6.150
 8320POPC   GL250630  36.894  19.747   6.150
 8320POPC   C1A50631  36.934  19.846   6.450
 8320POPC   D2A50632  36.887  19.883   6.750
 8320POPC   C3A50633  36.910  19.802   7.050
 8320POPC   C4A50634  36.914  19.870   7.350
 8320POPC   C1B50635  36.909  19.575   6.450
 8320POPC   C2B50636  36.855  19.620   6.750
 8320POPC   C3B50637  36.844  19.616   7.050
 8320POPC   C4B50638  36.852  19.618   7.350
 8321POPC   NC350639  35.339  22.204   5.550
 8321POPC   PO450640  35.352  22.114   5.850
 8321POPC   GL150641  35.378  22.129   6.150
 8321POPC   GL250642  35.350  22.267   6.150
 8321POPC   C1A50643  35.383  22.169   6.450
 8321POPC   D2A50644  35.328  22.124   6.750
 8321POPC   C3A50645  35.318  22.192   7.050
 8321POPC   C4A50646  35.334  22.195   7.350
 8321POPC   C1B50647  35.456  22.376   6.450
 8321POPC   C2B50648  35.421  22.448   6.750
 8321POPC   C3B50649  35.445  22.448   7.050
 8321POPC   C4B50650  35.448  22.376   7.350
 8322POPC   NC350651  12.101  34.576   5.550
 8322POPC   PO450652  12.121  34.544   5.850
 8322POPC   GL150653  12.098  34.595   6.150
 8322POPC   GL250654  12.135  34.666   6.150
 8322POPC   C1A50655  12.114  34.580   6.450
 8322POPC   D2A50656  12.075  34.598   6.750
 8322POPC   C3A50657  12.124  34.605   7.050
 8322POPC   C4A50658  12.085  34.538   7.350
 8322POPC   C1B50659  12.246  34.808   6.450
 8322POPC   C2B50660  12.195  34.761   6.750
 8322POPC   C3B50661  12.232  34.818   7.050
 8322POPC   C4B50662  12.246  34.775   7.350
 8323POPC   NC350663  19.059  22.895   5.550
 8323POPC   PO450664  19.030  22.917   5.850
 8323POPC   GL150665  19.041  22.960   6.150
 8323POPC   GL250666  19.198  22.959   6.150
 8323POPC   C1A50667  19.037  22.941   6.450
 8323POPC   D2A50668  19.092  22.936   6.750
 8323POPC   C3A50669  19.066  22.948   7.050
 8323POPC   C4A50670  19.019  22.899   7.350
 8323POPC   C1B50671  19.313  23.051   6.450
 8323POPC   C2B50672  19.274  23.058   6.750
 8323POPC   C3B50673  19.306  23.058   7.050
 8323POPC   C4B50674  19.303  23.026   7.350
 8324POPC   NC350675   0.405  16.735   5.550
 8324POPC   PO450676   0.481  16.742   5.850
 8324POPC   GL150677   0.419  16.768   6.150
 8324POPC   GL250678   0.296  16.756   6.150
 8324POPC   C1A50679   0.428  16.713   6.450
 8324POPC   D2A50680   0.479  16.770   6.750
 8324POPC   C3A50681   0.418  16.763   7.050
 8324POPC   C4A50682   0.441  16.774   7.350
 8324POPC   C1B50683   0.173  16.773   6.450
 8324POPC   C2B50684   0.180  16.779   6.750
 8324POPC   C3B50685   0.149  16.753   7.050
 8324POPC   C4B50686   0.197  16.795   7.350
 8325POPC   NC350687   5.900   2.729   5.550
 8325POPC   PO450688   5.879   2.758   5.850
 8325POPC   GL150689   5.891   2.758   6.150
 8325POPC   GL250690   5.896   2.843   6.150
 8325POPC   C1A50691   5.871   2.747   6.450
 8325POPC   D2A50692   5.903   2.739   6.750
 8325POPC   C3A50693   5.871   2.773   7.050
 8325POPC   C4A50694   5.893   2.739   7.350
 8325POPC   C1B50695   6.003   2.988   6.450
 8325POPC   C2B50696   5.999   2.985   6.750
 8325POPC   C3B50697   5.966   2.994   7.050
 8325POPC   C4B50698   5.928   3.015   7.350
 8326POPC   NC350699  30.736  19.061   5.550
 8326POPC   PO450700  30.693  19.024   5.850
 8326POPC   GL150701  30.686  19.048   6.150
 8326POPC   GL250702  30.734  19.141   6.150
 8326POPC   C1A50703  30.731  19.033   6.450
 8326POPC   D2A50704  30.666  19.030   6.750
 8326POPC   C3A50705  30.705  19.030   7.050
 8326POPC   C4A50706  30.674  19.020   7.350
 8326POPC   C1B50707  30.750  19.302   6.450
 8326POPC   C2B50708  30.729  19.300   6.750
 8326POPC   C3B50709  30.768  19.336   7.050
 8326POPC   C4B50710  30.720  19.326   7.350
 8327POPC   NC350711  28.332  26.803   5.550
 8327POPC   PO450712  28.356  26.850   5.850
 8327POPC   GL150713  28.412  26.810   6.150
 8327POPC   GL250714  28.469  26.806   6.150
 8327POPC   C1A50715  28.337  26.851   6.450
 8327POPC   D2A50716  28.335  26.866   6.750
 8327POPC   C3A50717  28.342  26.823   7.050
 8327POPC   C4A50718  28.398  26.787   7.350
 8327POPC   C1B50719  28.565  26.699   6.450
 8327POPC   C2B50720  28.580  26.756   6.750
 8327POPC   C3B50721  28.604  26.721   7.050
 8327POPC   C4B50722  28.615  26.704   7.350
 8328POPC   NC350723  34.536  23.721   5.550
 8328POPC   PO450724  34.592  23.680   5.850
 8328POPC   GL150725  34.563  23.701   6.150
 8328POPC   GL250726  34.494  23.756   6.150
 8328POPC   C1A50727  34.590  23.693   6.450
 8328POPC   D2A50728  34.527  23.682   6.750
 8328POPC   C3A50729  34.600  23.758   7.050
 8328POPC   C4A50730  34.582  23.665   7.350
 8328POPC   C1B50731  34.392  23.761   6.450
 8328POPC   C2B50732  34.326  23.769   6.750
 8328POPC   C3B50733  34.333  23.816   7.050
 8328POPC   C4B50734  34.331  23.762   7.350
 8329POPC   NC350735  25.264  16.762   5.550
 8329POPC   PO450736  25.226  16.754   5.850
 8329POPC   GL150737  25.230  16.747   6.150
 8329POPC   GL250738  25.272  16.646   6.150
 8329POPC   C1A50739  25.293  16.720   6.450
 8329POPC   D2A50740  25.275  16.753   6.750
 8329POPC   C3A50741  25.249  16.716   7.050
 8329POPC   C4A50742  25.246  16.709   7.350
 8329POPC   C1B50743  25.271  16.497   6.450
 8329POPC   C2B50744  25.259  16.532   6.750
 8329POPC   C3B50745  25.270  16.488   7.050
 8329POPC   C4B50746  25.258  16.469   7.350
 8330POPC   NC350747  33.797  33.805   5.550
 8330POPC   PO450748  33.811  33.804   5.850
 8330POPC   GL150749  33.820  33.775   6.150
 8330POPC   GL250750  33.749  33.682   6.150
 8330POPC   C1A50751  33.802  33.760   6.450
 8330POPC   D2A50752  33.783  33.842   6.750
 8330POPC   C3A50753  33.841  33.755   7.050
 8330POPC   C4A50754  33.783  33.841   7.350
 8330POPC   C1B50755  33.712  33.603   6.450
 8330POPC   C2B50756  33.737  33.535   6.750
 8330POPC   C3B50757  33.690  33.525   7.050
 8330POPC   C4B50758  33.745  33.541   7.350
 8331POPC   NC350759  22.150  20.576   5.550
 8331POPC   PO450760  22.203  20.650   5.850
 8331POPC   GL150761  22.116  20.660   6.150
 8331POPC   GL250762  22.326  20.556   6.150
 8331POPC   C1A50763  22.202  20.614   6.450
 8331POPC   D2A50764  22.166  20.642   6.750
 8331POPC   C3A50765  22.193  20.621   7.050
 8331POPC   C4A50766  22.165  20.638   7.350
 8331POPC   C1B50767  22.401  20.514   6.450
 8331POPC   C2B50768  22.420  20.504   6.750
 8331POPC   C3B50769  22.372  20.489   7.050
 8331POPC   C4B50770  22.414  20.515   7.350
 8332POPC   NC350771  17.532  33.802   5.550
 8332POPC   PO450772  17.493  33.808   5.850
 8332POPC   GL150773  17.517  33.827   6.150
 8332POPC   GL250774  17.500  33.885   6.150
 8332POPC   C1A50775  17.458  33.775   6.450
 8332POPC   D2A50776  17.553  33.848   6.750
 8332POPC   C3A50777  17.481  33.825   7.050
 8332POPC   C4A50778  17.484  33.765   7.350
 8332POPC   C1B50779  17.543  34.081   6.450
 8332POPC   C2B50780  17.576  34.064   6.750
 8332POPC   C3B50781  17.536  34.051   7.050
 8332POPC   C4B50782  17.595  34.015   7.350
 8333POPC   NC350783  24.443  25.255   5.550
 8333POPC   PO450784  24.504  25.243   5.850
 8333POPC   GL150785  24.501  25.266   6.150
 8333POPC   GL250786  24.482  25.344   6.150
 8333POPC   C1A50787  24.467  25.312   6.450
 8333POPC   D2A50788  24.477  25.283   6.750
 8333POPC   C3A50789  24.500  25.282   7.050
 8333POPC   C4A50790  24.445  25.255   7.350
 8333POPC   C1B50791  24.384  25.492   6.450
 8333POPC   C2B50792  24.388  25.473   6.750
 8333POPC   C3B50793  24.421  25.548   7.050
 8333POPC   C4B50794  24.464  25.549   7.350
 8334POPC   NC350795   5.820  10.539   5.550
 8334POPC   PO450796   5.919  10.549   5.850
 8334POPC   GL150797   5.884  10.544   6.150
 8334POPC   GL250798   5.945  10.643   6.150
 8334POPC   C1A50799   5.889  10.542   6.450
 8334POPC   D2A50800   5.824  10.529   6.750
 8334POPC   C3A50801   5.873  10.562   7.050
 8334POPC   C4A50802   5.836  10.557   7.350
 8334POPC   C1B50803   5.898  10.798   6.450
 8334POPC   C2B50804   5.981  10.797   6.750
 8334POPC   C3B50805   5.994  10.730   7.050
 8334POPC   C4B50806   5.995  10.715   7.350
 8335POPC   NC350807  36.141  26.793   5.550
 8335POPC   PO450808  36.124  26.836   5.850
 8335POPC   GL150809  36.123  26.852   6.150
 8335POPC   GL250810  36.049  26.975   6.150
 8335POPC   C1A50811  36.177  26.767   6.450
 8335POPC   D2A50812  36.125  26.807   6.750
 8335POPC   C3A50813  36.100  26.798   7.050
 8335POPC   C4A50814  36.092  26.773   7.350
 8335POPC   C1B50815  36.073  27.095   6.450
 8335POPC   C2B50816  36.076  27.099   6.750
 8335POPC   C3B50817  36.019  27.057   7.050
 8335POPC   C4B50818  36.086  27.061   7.350
 8336POPC   NC350819  33.804  12.055   5.550
 8336POPC   PO450820  33.815  12.044   5.850
 8336POPC   GL150821  33.825  12.113   6.150
 8336POPC   GL250822  33.734  11.937   6.150
 8336POPC   C1A50823  33.760  12.029   6.450
 8336POPC   D2A50824  33.787  12.034   6.750
 8336POPC   C3A50825  33.779  12.114   7.050
 8336POPC   C4A50826  33.823  12.096   7.350
 8336POPC   C1B50827  33.763  11.858   6.450
 8336POPC   C2B50828  33.745  11.880   6.750
 8336POPC   C3B50829  33.770  11.883   7.050
 8336POPC   C4B50830  33.781  11.794   7.350
 8337POPC   NC350831   8.233  20.595   5.550
 8337POPC   PO450832   8.240  20.597   5.850
 8337POPC   GL150833   8.209  20.578   6.150
 8337POPC   GL250834   8.297  20.602   6.150
 8337POPC   C1A50835   8.154  20.606   6.450
 8337POPC   D2A50836   8.157  20.624   6.750
 8337POPC   C3A50837   8.227  20.645   7.050
 8337POPC   C4A50838   8.225  20.609   7.350
 8337POPC   C1B50839   8.398  20.564   6.450
 8337POPC   C2B50840   8.454  20.569   6.750
 8337POPC   C3B50841   8.444  20.555   7.050
 8337POPC   C4B50842   8.447  20.546   7.350
 8338POPC   NC350843  10.511   3.502   5.550
 8338POPC   PO450844  10.555   3.524   5.850
 8338POPC   GL150845  10.567   3.566   6.150
 8338POPC   GL250846  10.560   3.457   6.150
 8338POPC   C1A50847  10.553   3.521   6.450
 8338POPC   D2A50848  10.475   3.492   6.750
 8338POPC   C3A50849  10.571   3.511   7.050
 8338POPC   C4A50850  10.543   3.550   7.350
 8338POPC   C1B50851  10.621   3.329   6.450
 8338POPC   C2B50852  10.601   3.344   6.750
 8338POPC   C3B50853  10.541   3.316   7.050
 8338POPC   C4B50854  10.625   3.334   7.350
 8339POPC   NC350855  30.716   9.758   5.550
 8339POPC   PO450856  30.650   9.716   5.850
 8339POPC   GL150857  30.739   9.698   6.150
 8339POPC   GL250858  30.605   9.875   6.150
 8339POPC   C1A50859  30.666   9.722   6.450
 8339POPC   D2A50860  30.698   9.720   6.750
 8339POPC   C3A50861  30.692   9.737   7.050
 8339POPC   C4A50862  30.745   9.751   7.350
 8339POPC   C1B50863  30.583   9.920   6.450
 8339POPC   C2B50864  30.543   9.989   6.750
 8339POPC   C3B50865  30.526   9.952   7.050
 8339POPC   C4B50866  30.537   9.948   7.350
 8340POPC   NC350867  15.925  29.962   5.550
 8340POPC   PO450868  15.963  29.901   5.850
 8340POPC   GL150869  15.939  29.872   6.150
 8340POPC   GL250870  15.860  29.828   6.150
 8340POPC   C1A50871  15.950  29.916   6.450
 8340POPC   D2A50872  15.987  29.892   6.750
 8340POPC   C3A50873  15.927  29.871   7.050
 8340POPC   C4A50874  15.952  29.874   7.350
 8340POPC   C1B50875  15.750  29.832   6.450
 8340POPC   C2B50876  15.753  29.826   6.750
 8340POPC   C3B50877  15.768  29.809   7.050
 8340POPC   C4B50878  15.747  29.773   7.350
 8341POPC   NC350879  27.593  28.399   5.550
 8341POPC   PO450880  27.609  28.376   5.850
 8341POPC   GL150881  27.631  28.392   6.150
 8341POPC   GL250882  27.725  28.269   6.150
 8341POPC   C1A50883  27.617  28.340   6.450
 8341POPC   D2A50884  27.625  28.339   6.750
 8341POPC   C3A50885  27.614  28.321   7.050
 8341POPC   C4A50886  27.589  28.340   7.350
 8341POPC   C1B50887  27.818  28.262   6.450
 8341POPC   C2B50888  27.818  28.262   6.750
 8341POPC   C3B50889  27.785  28.289   7.050
 8341POPC   C4B50890  27.780  28.269   7.350
 8342POPC   NC350891  15.977   8.184   5.550
 8342POPC   PO450892  15.942   8.236   5.850
 8342POPC   GL150893  16.001   8.221   6.150
 8342POPC   GL250894  15.803   8.234   6.150
 8342POPC   C1A50895  15.980   8.223   6.450
 8342POPC   D2A50896  15.906   8.160   6.750
 8342POPC   C3A50897  15.926   8.170   7.050
 8342POPC   C4A50898  15.944   8.207   7.350
 8342POPC   C1B50899  15.737   8.185   6.450
 8342POPC   C2B50900  15.683   8.203   6.750
 8342POPC   C3B50901  15.686   8.242   7.050
 8342POPC   C4B50902  15.709   8.195   7.350
 8343POPC   NC350903  32.250   2.015   5.550
 8343POPC   PO450904  32.229   1.941   5.850
 8343POPC   GL150905  32.253   1.996   6.150
 8343POPC   GL250906  32.175   1.854   6.150
 8343POPC   C1A50907  32.202   1.965   6.450
 8343POPC   D2A50908  32.222   2.006   6.750
 8343POPC   C3A50909  32.242   2.011   7.050
 8343POPC   C4A50910  32.224   1.948   7.350
 8343POPC   C1B50911  32.105   1.832   6.450
 8343POPC   C2B50912  32.061   1.776   6.750
 8343POPC   C3B50913  32.092   1.844   7.050
 8343POPC   C4B50914  32.069   1.857   7.350
 8344POPC   NC350915  20.574  40.037   5.550
 8344POPC   PO450916  20.581  40.017   5.850
 8344POPC   GL150917  20.623  39.980   6.150
 8344POPC   GL250918  20.621  40.100   6.150
 8344POPC   C1A50919  20.571  39.989   6.450
 8344POPC   D2A50920  20.581  40.023   6.750
 8344POPC   C3A50921  20.592  40.031   7.050
 8344POPC   C4A50922  20.628  39.965   7.350
 8344POPC   C1B50923  20.558  40.212   6.450
 8344POPC   C2B50924  20.538  40.259   6.750
 8344POPC   C3B50925  20.556  40.225   7.050
 8344POPC   C4B50926  20.606  40.258   7.350
 8345POPC   NC350927  29.917  43.913   5.550
 8345POPC   PO450928  29.953  43.886   5.850
 8345POPC   GL150929  29.920  43.928   6.150
 8345POPC   GL250930  29.934  43.812   6.150
 8345POPC   C1A50931  29.914  43.899   6.450
 8345POPC   D2A50932  29.931  43.920   6.750
 8345POPC   C3A50933  29.949  43.896   7.050
 8345POPC   C4A50934  29.963  43.838   7.350
 8345POPC   C1B50935  29.925  43.677   6.450
 8345POPC   C2B50936  29.892  43.685   6.750
 8345POPC   C3B50937  29.888  43.675   7.050
 8345POPC   C4B50938  29.863  43.683   7.350
 8346POPC   NC350939  27.599  33.811   5.550
 8346POPC   PO450940  27.611  33.791   5.850
 8346POPC   GL150941  27.559  33.784   6.150
 8346POPC   GL250942  27.610  33.633   6.150
 8346POPC   C1A50943  27.606  33.787   6.450
 8346POPC   D2A50944  27.640  33.828   6.750
 8346POPC   C3A50945  27.570  33.751   7.050
 8346POPC   C4A50946  27.590  33.849   7.350
 8346POPC   C1B50947  27.686  33.519   6.450
 8346POPC   C2B50948  27.623  33.574   6.750
 8346POPC   C3B50949  27.715  33.521   7.050
 8346POPC   C4B50950  27.706  33.596   7.350
 8347POPC   NC350951  35.316  29.883   5.550
 8347POPC   PO450952  35.323  29.922   5.850
 8347POPC   GL150953  35.357  29.942   6.150
 8347POPC   GL250954  35.476  29.913   6.150
 8347POPC   C1A50955  35.366  29.938   6.450
 8347POPC   D2A50956  35.348  29.894   6.750
 8347POPC   C3A50957  35.307  29.915   7.050
 8347POPC   C4A50958  35.359  29.941   7.350
 8347POPC   C1B50959  35.593  29.933   6.450
 8347POPC   C2B50960  35.608  29.990   6.750
 8347POPC   C3B50961  35.642  29.926   7.050
 8347POPC   C4B50962  35.633  29.918   7.350
 8348POPC   NC350963  32.201   0.469   5.550
 8348POPC   PO450964  32.229   0.485   5.850
 8348POPC   GL150965  32.297   0.399   6.150
 8348POPC   GL250966  32.299   0.563   6.150
 8348POPC   C1A50967  32.204   0.471   6.450
 8348POPC   D2A50968  32.265   0.482   6.750
 8348POPC   C3A50969  32.267   0.437   7.050
 8348POPC   C4A50970  32.243   0.426   7.350
 8348POPC   C1B50971  32.435   0.601   6.450
 8348POPC   C2B50972  32.452   0.678   6.750
 8348POPC   C3B50973  32.404   0.627   7.050
 8348POPC   C4B50974  32.410   0.606   7.350
 8349POPC   NC350975   2.035  23.728   5.550
 8349POPC   PO450976   2.021  23.721   5.850
 8349POPC   GL150977   1.993  23.746   6.150
 8349POPC   GL250978   2.024  23.572   6.150
 8349POPC   C1A50979   1.999  23.762   6.450
 8349POPC   D2A50980   2.021  23.729   6.750
 8349POPC   C3A50981   1.952  23.747   7.050
 8349POPC   C4A50982   2.033  23.707   7.350
 8349POPC   C1B50983   2.084  23.503   6.450
 8349POPC   C2B50984   2.089  23.479   6.750
 8349POPC   C3B50985   2.106  23.511   7.050
 8349POPC   C4B50986   2.092  23.438   7.350
 8350POPC   NC350987   5.076  38.418   5.550
 8350POPC   PO450988   5.086  38.410   5.850
 8350POPC   GL150989   5.092  38.502   6.150
 8350POPC   GL250990   5.076  38.334   6.150
 8350POPC   C1A50991   5.076  38.453   6.450
 8350POPC   D2A50992   5.088  38.416   6.750
 8350POPC   C3A50993   5.138  38.483   7.050
 8350POPC   C4A50994   5.140  38.419   7.350
 8350POPC   C1B50995   5.148  38.188   6.450
 8350POPC   C2B50996   5.187  38.242   6.750
 8350POPC   C3B50997   5.144  38.227   7.050
 8350POPC   C4B50998   5.134  38.225   7.350
 8351POPC   NC350999  19.036   1.228   5.550
 8351POPC   PO451000  19.103   1.262   5.850
 8351POPC   GL151001  19.021   1.220   6.150
 8351POPC   GL251002  19.023   1.144   6.150
 8351POPC   C1A51003  19.041   1.240   6.450
 8351POPC   D2A51004  19.078   1.175   6.750
 8351POPC   C3A51005  19.020   1.260   7.050
 8351POPC   C4A51006  19.079   1.237   7.350
 8351POPC   C1B51007  19.003   0.939   6.450
 8351POPC   C2B51008  19.016   0.985   6.750
 8351POPC   C3B51009  19.029   1.005   7.050
 8351POPC   C4B51010  18.947   1.012   7.350
 8352POPC   NC351011  16.705  17.496   5.550
 8352POPC   PO451012  16.743  17.506   5.850
 8352POPC   GL151013  16.721  17.501   6.150
 8352POPC   GL251014  16.714  17.369   6.150
 8352POPC   C1A51015  16.700  17.468   6.450
 8352POPC   D2A51016  16.683  17.538   6.750
 8352POPC   C3A51017  16.751  17.504   7.050
 8352POPC   C4A51018  16.758  17.490   7.350
 8352POPC   C1B51019  16.703  17.285   6.450
 8352POPC   C2B51020  16.611  17.254   6.750
 8352POPC   C3B51021  16.654  17.268   7.050
 8352POPC   C4B51022  16.666  17.228   7.350
 8353POPC   NC351023  36.103  16.689   5.550
 8353POPC   PO451024  36.157  16.764   5.850
 8353POPC   GL151025  36.153  16.766   6.150
 8353POPC   GL251026  36.100  16.818   6.150
 8353POPC   C1A51027  36.121  16.767   6.450
 8353POPC   D2A51028  36.163  16.768   6.750
 8353POPC   C3A51029  36.118  16.741   7.050
 8353POPC   C4A51030  36.130  16.702   7.350
 8353POPC   C1B51031  36.058  16.967   6.450
 8353POPC   C2B51032  35.998  16.946   6.750
 8353POPC   C3B51033  36.090  16.950   7.050
 8353POPC   C4B51034  36.061  16.918   7.350
 8354POPC   NC351035  12.815  34.564   5.550
 8354POPC   PO451036  12.850  34.598   5.850
 8354POPC   GL151037  12.888  34.577   6.150
 8354POPC   GL251038  12.892  34.481   6.150
 8354POPC   C1A51039  12.876  34.590   6.450
 8354POPC   D2A51040  12.818  34.593   6.750
 8354POPC   C3A51041  12.862  34.623   7.050
 8354POPC   C4A51042  12.873  34.540   7.350
 8354POPC   C1B51043  13.061  34.377   6.450
 8354POPC   C2B51044  13.055  34.357   6.750
 8354POPC   C3B51045  12.992  34.378   7.050
 8354POPC   C4B51046  13.060  34.373   7.350
 8355POPC   NC351047  29.965  17.545   5.550
 8355POPC   PO451048  29.885  17.541   5.850
 8355POPC   GL151049  29.927  17.551   6.150
 8355POPC   GL251050  29.846  17.467   6.150
 8355POPC   C1A51051  29.961  17.473   6.450
 8355POPC   D2A51052  29.909  17.509   6.750
 8355POPC   C3A51053  29.943  17.465   7.050
 8355POPC   C4A51054  29.949  17.498   7.350
 8355POPC   C1B51055  29.702  17.398   6.450
 8355POPC   C2B51056  29.669  17.465   6.750
 8355POPC   C3B51057  29.642  17.426   7.050
 8355POPC   C4B51058  29.716  17.464   7.350
 8356POPC   NC351059  38.439  31.498   5.550
 8356POPC   PO451060  38.414  31.485   5.850
 8356POPC   GL151061  38.458  31.450   6.150
 8356POPC   GL251062  38.327  31.385   6.150
 8356POPC   C1A51063  38.418  31.518   6.450
 8356POPC   D2A51064  38.453  31.492   6.750
 8356POPC   C3A51065  38.425  31.476   7.050
 8356POPC   C4A51066  38.461  31.469   7.350
 8356POPC   C1B51067  38.204  31.321   6.450
 8356POPC   C2B51068  38.253  31.340   6.750
 8356POPC   C3B51069  38.252  31.404   7.050
 8356POPC   C4B51070  38.284  31.393   7.350
 8357POPC   NC351071  12.841  25.314   5.550
 8357POPC   PO451072  12.828  25.276   5.850
 8357POPC   GL151073  12.897  25.283   6.150
 8357POPC   GL251074  12.795  25.190   6.150
 8357POPC   C1A51075  12.827  25.260   6.450
 8357POPC   D2A51076  12.878  25.266   6.750
 8357POPC   C3A51077  12.888  25.304   7.050
 8357POPC   C4A51078  12.855  25.226   7.350
 8357POPC   C1B51079  12.723  25.020   6.450
 8357POPC   C2B51080  12.724  25.077   6.750
 8357POPC   C3B51081  12.716  25.014   7.050
 8357POPC   C4B51082  12.752  25.046   7.350
 8358POPC   NC351083  22.136  13.614   5.550
 8358POPC   PO451084  22.135  13.596   5.850
 8358POPC   GL151085  22.188  13.627   6.150
 8358POPC   GL251086  22.136  13.484   6.150
 8358POPC   C1A51087  22.132  13.667   6.450
 8358POPC   D2A51088  22.127  13.626   6.750
 8358POPC   C3A51089  22.179  13.605   7.050
 8358POPC   C4A51090  22.158  13.637   7.350
 8358POPC   C1B51091  22.173  13.374   6.450
 8358POPC   C2B51092  22.163  13.403   6.750
 8358POPC   C3B51093  22.148  13.378   7.050
 8358POPC   C4B51094  22.136  13.378   7.350
 8359POPC   NC351095   5.859  19.065   5.550
 8359POPC   PO451096   5.842  19.098   5.850
 8359POPC   GL151097   5.883  19.098   6.150
 8359POPC   GL251098   5.820  19.162   6.150
 8359POPC   C1A51099   5.834  19.051   6.450
 8359POPC   D2A51100   5.829  19.093   6.750
 8359POPC   C3A51101   5.910  19.021   7.050
 8359POPC   C4A51102   5.860  19.065   7.350
 8359POPC   C1B51103   5.696  19.281   6.450
 8359POPC   C2B51104   5.705  19.248   6.750
 8359POPC   C3B51105   5.648  19.231   7.050
 8359POPC   C4B51106   5.673  19.196   7.350
 8360POPC   NC351107  22.895  37.717   5.550
 8360POPC   PO451108  22.904  37.635   5.850
 8360POPC   GL151109  22.937  37.656   6.150
 8360POPC   GL251110  22.824  37.762   6.150
 8360POPC   C1A51111  22.980  37.689   6.450
 8360POPC   D2A51112  22.951  37.713   6.750
 8360POPC   C3A51113  22.908  37.642   7.050
 8360POPC   C4A51114  22.941  37.714   7.350
 8360POPC   C1B51115  22.786  37.830   6.450
 8360POPC   C2B51116  22.702  37.803   6.750
 8360POPC   C3B51117  22.726  37.855   7.050
 8360POPC   C4B51118  22.770  37.854   7.350
 8361POPC   NC351119  31.427  32.260   5.550
 8361POPC   PO451120  31.490  32.281   5.850
 8361POPC   GL151121  31.465  32.210   6.150
 8361POPC   GL251122  31.374  32.340   6.150
 8361POPC   C1A51123  31.472  32.218   6.450
 8361POPC   D2A51124  31.471  32.282   6.750
 8361POPC   C3A51125  31.502  32.216   7.050
 8361POPC   C4A51126  31.501  32.255   7.350
 8361POPC   C1B51127  31.282  32.385   6.450
 8361POPC   C2B51128  31.240  32.369   6.750
 8361POPC   C3B51129  31.204  32.378   7.050
 8361POPC   C4B51130  31.197  32.358   7.350
 8362POPC   NC351131  33.063  30.662   5.550
 8362POPC   PO451132  33.062  30.692   5.850
 8362POPC   GL151133  33.063  30.655   6.150
 8362POPC   GL251134  32.902  30.626   6.150
 8362POPC   C1A51135  32.985  30.730   6.450
 8362POPC   D2A51136  32.993  30.675   6.750
 8362POPC   C3A51137  33.018  30.710   7.050
 8362POPC   C4A51138  32.998  30.665   7.350
 8362POPC   C1B51139  32.837  30.513   6.450
 8362POPC   C2B51140  32.795  30.543   6.750
 8362POPC   C3B51141  32.835  30.557   7.050
 8362POPC   C4B51142  32.811  30.576   7.350
 8363POPC   NC351143  16.000  11.299   5.550
 8363POPC   PO451144  15.970  11.292   5.850
 8363POPC   GL151145  15.940  11.267   6.150
 8363POPC   GL251146  15.850  11.322   6.150
 8363POPC   C1A51147  15.967  11.312   6.450
 8363POPC   D2A51148  15.916  11.287   6.750
 8363POPC   C3A51149  15.971  11.263   7.050
 8363POPC   C4A51150  15.978  11.337   7.350
 8363POPC   C1B51151  15.724  11.284   6.450
 8363POPC   C2B51152  15.712  11.308   6.750
 8363POPC   C3B51153  15.739  11.288   7.050
 8363POPC   C4B51154  15.676  11.325   7.350
 8364POPC   NC351155  17.545   4.276   5.550
 8364POPC   PO451156  17.504   4.277   5.850
 8364POPC   GL151157  17.508   4.349   6.150
 8364POPC   GL251158  17.628   4.233   6.150
 8364POPC   C1A51159  17.556   4.351   6.450
 8364POPC   D2A51160  17.499   4.327   6.750
 8364POPC   C3A51161  17.505   4.289   7.050
 8364POPC   C4A51162  17.546   4.307   7.350
 8364POPC   C1B51163  17.683   4.152   6.450
 8364POPC   C2B51164  17.735   4.140   6.750
 8364POPC   C3B51165  17.718   4.145   7.050
 8364POPC   C4B51166  17.668   4.141   7.350
 8365POPC   NC351167   5.853  41.586   5.550
 8365POPC   PO451168   5.828  41.580   5.850
 8365POPC   GL151169   5.849  41.594   6.150
 8365POPC   GL251170   5.826  41.406   6.150
 8365POPC   C1A51171   5.871  41.539   6.450
 8365POPC   D2A51172   5.847  41.564   6.750
 8365POPC   C3A51173   5.869  41.545   7.050
 8365POPC   C4A51174   5.891  41.539   7.350
 8365POPC   C1B51175   5.873  41.310   6.450
 8365POPC   C2B51176   5.801  41.316   6.750
 8365POPC   C3B51177   5.834  41.348   7.050
 8365POPC   C4B51178   5.836  41.295   7.350
 8366POPC   NC351179   3.544  38.420   5.550
 8366POPC   PO451180   3.533  38.501   5.850
 8366POPC   GL151181   3.533  38.423   6.150
 8366POPC   GL251182   3.647  38.445   6.150
 8366POPC   C1A51183   3.505  38.410   6.450
 8366POPC   D2A51184   3.579  38.503   6.750
 8366POPC   C3A51185   3.532  38.494   7.050
 8366POPC   C4A51186   3.529  38.448   7.350
 8366POPC   C1B51187   3.770  38.543   6.450
 8366POPC   C2B51188   3.780  38.459   6.750
 8366POPC   C3B51189   3.740  38.484   7.050
 8366POPC   C4B51190   3.803  38.491   7.350
 8367POPC   NC351191   3.519  20.641   5.550
 8367POPC   PO451192   3.572  20.619   5.850
 8367POPC   GL151193   3.586  20.636   6.150
 8367POPC   GL251194   3.448  20.635   6.150
 8367POPC   C1A51195   3.499  20.648   6.450
 8367POPC   D2A51196   3.526  20.650   6.750
 8367POPC   C3A51197   3.531  20.599   7.050
 8367POPC   C4A51198   3.507  20.640   7.350
 8367POPC   C1B51199   3.353  20.658   6.450
 8367POPC   C2B51200   3.278  20.670   6.750
 8367POPC   C3B51201   3.308  20.669   7.050
 8367POPC   C4B51202   3.274  20.727   7.350
 8368POPC   NC351203  12.058  33.846   5.550
 8368POPC   PO451204  12.028  33.831   5.850
 8368POPC   GL151205  12.104  33.756   6.150
 8368POPC   GL251206  11.988  33.888   6.150
 8368POPC   C1A51207  12.076  33.773   6.450
 8368POPC   D2A51208  12.080  33.837   6.750
 8368POPC   C3A51209  12.100  33.800   7.050
 8368POPC   C4A51210  12.065  33.777   7.350
 8368POPC   C1B51211  11.843  33.874   6.450
 8368POPC   C2B51212  11.830  33.918   6.750
 8368POPC   C3B51213  11.837  33.964   7.050
 8368POPC   C4B51214  11.826  33.966   7.350
 8369POPC   NC351215   5.079  29.140   5.550
 8369POPC   PO451216   5.075  29.159   5.850
 8369POPC   GL151217   5.112  29.155   6.150
 8369POPC   GL251218   5.186  28.988   6.150
 8369POPC   C1A51219   5.136  29.186   6.450
 8369POPC   D2A51220   5.069  29.149   6.750
 8369POPC   C3A51221   5.131  29.116   7.050
 8369POPC   C4A51222   5.090  29.117   7.350
 8369POPC   C1B51223   5.209  28.935   6.450
 8369POPC   C2B51224   5.232  28.879   6.750
 8369POPC   C3B51225   5.199  28.907   7.050
 8369POPC   C4B51226   5.234  28.921   7.350
 8370POPC   NC351227  17.467   1.968   5.550
 8370POPC   PO451228  17.553   2.026   5.850
 8370POPC   GL151229  17.502   1.991   6.150
 8370POPC   GL251230  17.603   2.036   6.150
 8370POPC   C1A51231  17.554   1.997   6.450
 8370POPC   D2A51232  17.459   2.037   6.750
 8370POPC   C3A51233  17.548   2.012   7.050
 8370POPC   C4A51234  17.474   2.006   7.350
 8370POPC   C1B51235  17.678   2.102   6.450
 8370POPC   C2B51236  17.711   2.108   6.750
 8370POPC   C3B51237  17.754   2.067   7.050
 8370POPC   C4B51238  17.747   2.144   7.350
 8371POPC   NC351239  27.612   4.326   5.550
 8371POPC   PO451240  27.632   4.306   5.850
 8371POPC   GL151241  27.642   4.310   6.150
 8371POPC   GL251242  27.652   4.471   6.150
 8371POPC   C1A51243  27.632   4.356   6.450
 8371POPC   D2A51244  27.628   4.280   6.750
 8371POPC   C3A51245  27.636   4.318   7.050
 8371POPC   C4A51246  27.622   4.267   7.350
 8371POPC   C1B51247  27.773   4.516   6.450
 8371POPC   C2B51248  27.718   4.562   6.750
 8371POPC   C3B51249  27.740   4.519   7.050
 8371POPC   C4B51250  27.731   4.516   7.350
 8372POPC   NC351251  28.365   4.287   5.550
 8372POPC   PO451252  28.338   4.316   5.850
 8372POPC   GL151253  28.328   4.342   6.150
 8372POPC   GL251254  28.458   4.260   6.150
 8372POPC   C1A51255  28.325   4.358   6.450
 8372POPC   D2A51256  28.403   4.352   6.750
 8372POPC   C3A51257  28.383   4.340   7.050
 8372POPC   C4A51258  28.385   4.326   7.350
 8372POPC   C1B51259  28.485   4.162   6.450
 8372POPC   C2B51260  28.523   4.155   6.750
 8372POPC   C3B51261  28.517   4.100   7.050
 8372POPC   C4B51262  28.552   4.081   7.350
 8373POPC   NC351263  36.934  12.830   5.550
 8373POPC   PO451264  36.911  12.858   5.850
 8373POPC   GL151265  36.854  12.813   6.150
 8373POPC   GL251266  36.823  12.891   6.150
 8373POPC   C1A51267  36.858  12.888   6.450
 8373POPC   D2A51268  36.856  12.886   6.750
 8373POPC   C3A51269  36.870  12.820   7.050
 8373POPC   C4A51270  36.862  12.827   7.350
 8373POPC   C1B51271  36.691  12.837   6.450
 8373POPC   C2B51272  36.621  12.835   6.750
 8373POPC   C3B51273  36.642  12.865   7.050
 8373POPC   C4B51274  36.607  12.842   7.350
 8374POPC   NC351275  21.386  36.872   5.550
 8374POPC   PO451276  21.382  36.911   5.850
 8374POPC   GL151277  21.411  36.899   6.150
 8374POPC   GL251278  21.424  37.035   6.150
 8374POPC   C1A51279  21.380  36.922   6.450
 8374POPC   D2A51280  21.413  36.897   6.750
 8374POPC   C3A51281  21.363  36.930   7.050
 8374POPC   C4A51282  21.398  36.866   7.350
 8374POPC   C1B51283  21.490  37.169   6.450
 8374POPC   C2B51284  21.492  37.150   6.750
 8374POPC   C3B51285  21.491  37.181   7.050
 8374POPC   C4B51286  21.503  37.184   7.350
 8375POPC   NC351287  28.418  10.488   5.550
 8375POPC   PO451288  28.396  10.500   5.850
 8375POPC   GL151289  28.386  10.476   6.150
 8375POPC   GL251290  28.481  10.631   6.150
 8375POPC   C1A51291  28.376  10.515   6.450
 8375POPC   D2A51292  28.363  10.540   6.750
 8375POPC   C3A51293  28.323  10.480   7.050
 8375POPC   C4A51294  28.388  10.542   7.350
 8375POPC   C1B51295  28.567  10.651   6.450
 8375POPC   C2B51296  28.568  10.673   6.750
 8375POPC   C3B51297  28.578  10.680   7.050
 8375POPC   C4B51298  28.584  10.690   7.350
 8376POPC   NC351299   5.097  12.810   5.550
 8376POPC   PO451300   5.072  12.900   5.850
 8376POPC   GL151301   5.061  12.900   6.150
 8376POPC   GL251302   4.961  12.894   6.150
 8376POPC   C1A51303   5.084  12.892   6.450
 8376POPC   D2A51304   5.050  12.823   6.750
 8376POPC   C3A51305   5.133  12.833   7.050
 8376POPC   C4A51306   5.124  12.891   7.350
 8376POPC   C1B51307   4.891  13.046   6.450
 8376POPC   C2B51308   4.851  12.959   6.750
 8376POPC   C3B51309   4.902  13.030   7.050
 8376POPC   C4B51310   4.895  12.968   7.350
 8377POPC   NC351311  34.565  22.943   5.550
 8377POPC   PO451312  34.616  22.912   5.850
 8377POPC   GL151313  34.613  22.911   6.150
 8377POPC   GL251314  34.703  23.001   6.150
 8377POPC   C1A51315  34.609  22.903   6.450
 8377POPC   D2A51316  34.581  22.982   6.750
 8377POPC   C3A51317  34.555  22.955   7.050
 8377POPC   C4A51318  34.546  22.974   7.350
 8377POPC   C1B51319  34.782  23.045   6.450
 8377POPC   C2B51320  34.801  23.103   6.750
 8377POPC   C3B51321  34.767  23.067   7.050
 8377POPC   C4B51322  34.838  23.090   7.350
 8378POPC   NC351323  15.140   5.048   5.550
 8378POPC   PO451324  15.228   5.046   5.850
 8378POPC   GL151325  15.196   5.118   6.150
 8378POPC   GL251326  15.218   5.200   6.150
 8378POPC   C1A51327  15.146   5.051   6.450
 8378POPC   D2A51328  15.131   5.132   6.750
 8378POPC   C3A51329  15.189   5.083   7.050
 8378POPC   C4A51330  15.222   5.050   7.350
 8378POPC   C1B51331  15.289   5.339   6.450
 8378POPC   C2B51332  15.257   5.296   6.750
 8378POPC   C3B51333  15.223   5.345   7.050
 8378POPC   C4B51334  15.251   5.295   7.350
 8379POPC   NC351335  32.262  24.517   5.550
 8379POPC   PO451336  32.223  24.516   5.850
 8379POPC   GL151337  32.250  24.489   6.150
 8379POPC   GL251338  32.161  24.358   6.150
 8379POPC   C1A51339  32.284  24.449   6.450
 8379POPC   D2A51340  32.283  24.440   6.750
 8379POPC   C3A51341  32.244  24.538   7.050
 8379POPC   C4A51342  32.212  24.448   7.350
 8379POPC   C1B51343  32.142  24.295   6.450
 8379POPC   C2B51344  32.193  24.235   6.750
 8379POPC   C3B51345  32.128  24.212   7.050
 8379POPC   C4B51346  32.136  24.282   7.350
 8380POPC   NC351347   5.113  39.217   5.550
 8380POPC   PO451348   5.065  39.252   5.850
 8380POPC   GL151349   5.054  39.185   6.150
 8380POPC   GL251350   5.146  39.082   6.150
 8380POPC   C1A51351   5.099  39.262   6.450
 8380POPC   D2A51352   5.068  39.209   6.750
 8380POPC   C3A51353   5.122  39.209   7.050
 8380POPC   C4A51354   5.061  39.252   7.350
 8380POPC   C1B51355   5.208  38.963   6.450
 8380POPC   C2B51356   5.160  38.971   6.750
 8380POPC   C3B51357   5.152  38.959   7.050
 8380POPC   C4B51358   5.213  39.045   7.350
 8381POPC   NC351359  32.294   5.124   5.550
 8381POPC   PO451360  32.240   5.114   5.850
 8381POPC   GL151361  32.231   5.131   6.150
 8381POPC   GL251362  32.205   5.137   6.150
 8381POPC   C1A51363  32.294   5.092   6.450
 8381POPC   D2A51364  32.252   5.113   6.750
 8381POPC   C3A51365  32.263   5.110   7.050
 8381POPC   C4A51366  32.219   5.094   7.350
 8381POPC   C1B51367  32.057   5.251   6.450
 8381POPC   C2B51368  32.047   5.228   6.750
 8381POPC   C3B51369  32.091   5.215   7.050
 8381POPC   C4B51370  32.026   5.313   7.350
 8382POPC   NC351371  17.492  15.992   5.550
 8382POPC   PO451372  17.466  15.990   5.850
 8382POPC   GL151373  17.524  15.928   6.150
 8382POPC   GL251374  17.619  16.047   6.150
 8382POPC   C1A51375  17.530  15.906   6.450
 8382POPC   D2A51376  17.503  15.971   6.750
 8382POPC   C3A51377  17.464  15.908   7.050
 8382POPC   C4A51378  17.529  15.933   7.350
 8382POPC   C1B51379  17.719  16.030   6.450
 8382POPC   C2B51380  17.743  16.073   6.750
 8382POPC   C3B51381  17.715  16.062   7.050
 8382POPC   C4B51382  17.773  16.094   7.350
 8383POPC   NC351383  42.380  35.304   5.550
 8383POPC   PO451384  42.291  35.348   5.850
 8383POPC   GL151385  42.346  35.375   6.150
 8383POPC   GL251386  42.314  35.288   6.150
 8383POPC   C1A51387  42.369  35.376   6.450
 8383POPC   D2A51388  42.384  35.341   6.750
 8383POPC   C3A51389  42.318  35.322   7.050
 8383POPC   C4A51390  42.347  35.342   7.350
 8383POPC   C1B51391  42.151  35.187   6.450
 8383POPC   C2B51392  42.207  35.176   6.750
 8383POPC   C3B51393  42.179  35.168   7.050
 8383POPC   C4B51394  42.212  35.168   7.350
 8384POPC   NC351395   9.776  44.650   5.550
 8384POPC   PO451396   9.729  44.707   5.850
 8384POPC   GL151397   9.756  44.653   6.150
 8384POPC   GL251398   9.885  44.676   6.150
 8384POPC   C1A51399   9.725  44.708   6.450
 8384POPC   D2A51400   9.789  44.674   6.750
 8384POPC   C3A51401   9.710  44.687   7.050
 8384POPC   C4A51402   9.792  44.711   7.350
 8384POPC   C1B51403  10.013  44.669   6.450
 8384POPC   C2B51404   9.991  44.602   6.750
 8384POPC   C3B51405   9.972  44.652   7.050
 8384POPC   C4B51406  10.026  44.587   7.350
 8385POPC   NC351407  33.787  20.633   5.550
 8385POPC   PO451408  33.754  20.610   5.850
 8385POPC   GL151409  33.822  20.641   6.150
 8385POPC   GL251410  33.746  20.690   6.150
 8385POPC   C1A51411  33.784  20.647   6.450
 8385POPC   D2A51412  33.803  20.646   6.750
 8385POPC   C3A51413  33.790  20.644   7.050
 8385POPC   C4A51414  33.807  20.633   7.350
 8385POPC   C1B51415  33.776  20.888   6.450
 8385POPC   C2B51416  33.824  20.872   6.750
 8385POPC   C3B51417  33.810  20.813   7.050
 8385POPC   C4B51418  33.812  20.883   7.350
 8386POPC   NC351419  16.714   9.797   5.550
 8386POPC   PO451420  16.774   9.770   5.850
 8386POPC   GL151421  16.780   9.776   6.150
 8386POPC   GL251422  16.878   9.751   6.150
 8386POPC   C1A51423  16.706   9.798   6.450
 8386POPC   D2A51424  16.744   9.782   6.750
 8386POPC   C3A51425  16.705   9.773   7.050
 8386POPC   C4A51426  16.749   9.783   7.350
 8386POPC   C1B51427  16.965   9.728   6.450
 8386POPC   C2B51428  16.987   9.660   6.750
 8386POPC   C3B51429  16.984   9.693   7.050
 8386POPC   C4B51430  17.022   9.724   7.350
 8387POPC   NC351431  23.697   6.675   5.550
 8387POPC   PO451432  23.726   6.638   5.850
 8387POPC   GL151433  23.671   6.679   6.150
 8387POPC   GL251434  23.609   6.523   6.150
 8387POPC   C1A51435  23.757   6.643   6.450
 8387POPC   D2A51436  23.669   6.669   6.750
 8387POPC   C3A51437  23.692   6.695   7.050
 8387POPC   C4A51438  23.738   6.617   7.350
 8387POPC   C1B51439  23.531   6.430   6.450
 8387POPC   C2B51440  23.577   6.433   6.750
 8387POPC   C3B51441  23.524   6.523   7.050
 8387POPC   C4B51442  23.498   6.440   7.350
 8388POPC   NC351443  16.687  19.836   5.550
 8388POPC   PO451444  16.734  19.844   5.850
 8388POPC   GL151445  16.742  19.843   6.150
 8388POPC   GL251446  16.647  19.835   6.150
 8388POPC   C1A51447  16.713  19.874   6.450
 8388POPC   D2A51448  16.780  19.807   6.750
 8388POPC   C3A51449  16.781  19.822   7.050
 8388POPC   C4A51450  16.725  19.875   7.350
 8388POPC   C1B51451  16.477  19.862   6.450
 8388POPC   C2B51452  16.443  19.877   6.750
 8388POPC   C3B51453  16.476  19.954   7.050
 8388POPC   C4B51454  16.449  19.901   7.350
 8389POPC   NC351455  39.258  10.474   5.550
 8389POPC   PO451456  39.193  10.479   5.850
 8389POPC   GL151457  39.230  10.485   6.150
 8389POPC   GL251458  39.149  10.415   6.150
 8389POPC   C1A51459  39.247  10.553   6.450
 8389POPC   D2A51460  39.200  10.528   6.750
 8389POPC   C3A51461  39.237  10.540   7.050
 8389POPC   C4A51462  39.253  10.502   7.350
 8389POPC   C1B51463  39.082  10.377   6.450
 8389POPC   C2B51464  39.038  10.335   6.750
 8389POPC   C3B51465  39.085  10.354   7.050
 8389POPC   C4B51466  39.016  10.343   7.350
 8390POPC   NC351467  20.631  33.849   5.550
 8390POPC   PO451468  20.628  33.789   5.850
 8390POPC   GL151469  20.576  33.830   6.150
 8390POPC   GL251470  20.774  33.762   6.150
 8390POPC   C1A51471  20.642  33.765   6.450
 8390POPC   D2A51472  20.629  33.836   6.750
 8390POPC   C3A51473  20.621  33.796   7.050
 8390POPC   C4A51474  20.649  33.805   7.350
 8390POPC   C1B51475  20.888  33.774   6.450
 8390POPC   C2B51476  20.884  33.743   6.750
 8390POPC   C3B51477  20.858  33.773   7.050
 8390POPC   C4B51478  20.817  33.682   7.350
 8391POPC   NC351479  20.589  12.083   5.550
 8391POPC   PO451480  20.660  12.035   5.850
 8391POPC   GL151481  20.625  12.093   6.150
 8391POPC   GL251482  20.714  12.120   6.150
 8391POPC   C1A51483  20.580  12.042   6.450
 8391POPC   D2A51484  20.596  12.109   6.750
 8391POPC   C3A51485  20.593  12.074   7.050
 8391POPC   C4A51486  20.586  12.107   7.350
 8391POPC   C1B51487  20.775  12.249   6.450
 8391POPC   C2B51488  20.797  12.185   6.750
 8391POPC   C3B51489  20.797  12.252   7.050
 8391POPC   C4B51490  20.771  12.198   7.350
 8392POPC   NC351491  15.999  43.094   5.550
 8392POPC   PO451492  15.990  43.113   5.850
 8392POPC   GL151493  15.995  43.097   6.150
 8392POPC   GL251494  15.985  43.012   6.150
 8392POPC   C1A51495  15.921  43.127   6.450
 8392POPC   D2A51496  15.915  43.133   6.750
 8392POPC   C3A51497  15.939  43.081   7.050
 8392POPC   C4A51498  15.923  43.131   7.350
 8392POPC   C1B51499  15.979  42.879   6.450
 8392POPC   C2B51500  15.954  42.838   6.750
 8392POPC   C3B51501  15.986  42.877   7.050
 8392POPC   C4B51502  15.953  42.830   7.350
 8393POPC   NC351503   4.284  35.391   5.550
 8393POPC   PO451504   4.336  35.314   5.850
 8393POPC   GL151505   4.277  35.327   6.150
 8393POPC   GL251506   4.238  35.258   6.150
 8393POPC   C1A51507   4.279  35.357   6.450
 8393POPC   D2A51508   4.351  35.371   6.750
 8393POPC   C3A51509   4.299  35.349   7.050
 8393POPC   C4A51510   4.353  35.386   7.350
 8393POPC   C1B51511   4.220  35.159   6.450
 8393POPC   C2B51512   4.178  35.071   6.750
 8393POPC   C3B51513   4.261  35.121   7.050
 8393POPC   C4B51514   4.272  35.124   7.350
 8394POPC   NC351515  10.503  43.840   5.550
 8394POPC   PO451516  10.522  43.902   5.850
 8394POPC   GL151517  10.501  43.861   6.150
 8394POPC   GL251518  10.528  44.018   6.150
 8394POPC   C1A51519  10.492  43.869   6.450
 8394POPC   D2A51520  10.521  43.912   6.750
 8394POPC   C3A51521  10.520  43.839   7.050
 8394POPC   C4A51522  10.542  43.880   7.350
 8394POPC   C1B51523  10.434  44.168   6.450
 8394POPC   C2B51524  10.423  44.132   6.750
 8394POPC   C3B51525  10.436  44.095   7.050
 8394POPC   C4B51526  10.413  44.136   7.350
 8395POPC   NC351527  18.304  33.013   5.550
 8395POPC   PO451528  18.310  33.055   5.850
 8395POPC   GL151529  18.254  33.027   6.150
 8395POPC   GL251530  18.293  33.146   6.150
 8395POPC   C1A51531  18.297  33.020   6.450
 8395POPC   D2A51532  18.252  33.034   6.750
 8395POPC   C3A51533  18.331  33.007   7.050
 8395POPC   C4A51534  18.254  33.062   7.350
 8395POPC   C1B51535  18.225  33.273   6.450
 8395POPC   C2B51536  18.248  33.233   6.750
 8395POPC   C3B51537  18.305  33.254   7.050
 8395POPC   C4B51538  18.212  33.248   7.350
 8396POPC   NC351539  23.750   1.232   5.550
 8396POPC   PO451540  23.702   1.190   5.850
 8396POPC   GL151541  23.733   1.210   6.150
 8396POPC   GL251542  23.831   1.224   6.150
 8396POPC   C1A51543  23.750   1.255   6.450
 8396POPC   D2A51544  23.717   1.188   6.750
 8396POPC   C3A51545  23.756   1.215   7.050
 8396POPC   C4A51546  23.721   1.242   7.350
 8396POPC   C1B51547  23.926   1.236   6.450
 8396POPC   C2B51548  23.955   1.247   6.750
 8396POPC   C3B51549  23.938   1.219   7.050
 8396POPC   C4B51550  23.979   1.180   7.350
 8397POPC   NC351551   9.727  36.113   5.550
 8397POPC   PO451552   9.754  36.167   5.850
 8397POPC   GL151553   9.775  36.100   6.150
 8397POPC   GL251554   9.839  36.056   6.150
 8397POPC   C1A51555   9.762  36.102   6.450
 8397POPC   D2A51556   9.770  36.094   6.750
 8397POPC   C3A51557   9.744  36.159   7.050
 8397POPC   C4A51558   9.746  36.091   7.350
 8397POPC   C1B51559  10.008  36.096   6.450
 8397POPC   C2B51560   9.999  36.040   6.750
 8397POPC   C3B51561   9.958  36.073   7.050
 8397POPC   C4B51562   9.958  36.046   7.350
 8398POPC   NC351563  11.292   8.936   5.550
 8398POPC   PO451564  11.270   9.020   5.850
 8398POPC   GL151565  11.266   8.967   6.150
 8398POPC   GL251566  11.157   8.919   6.150
 8398POPC   C1A51567  11.284   9.005   6.450
 8398POPC   D2A51568  11.261   8.983   6.750
 8398POPC   C3A51569  11.292   9.003   7.050
 8398POPC   C4A51570  11.258   8.948   7.350
 8398POPC   C1B51571  11.097   8.801   6.450
 8398POPC   C2B51572  11.099   8.879   6.750
 8398POPC   C3B51573  11.038   8.896   7.050
 8398POPC   C4B51574  11.105   8.865   7.350
 8399POPC   NC351575   5.115  34.623   5.550
 8399POPC   PO451576   5.142  34.600   5.850
 8399POPC   GL151577   5.078  34.554   6.150
 8399POPC   GL251578   5.119  34.450   6.150
 8399POPC   C1A51579   5.085  34.591   6.450
 8399POPC   D2A51580   5.044  34.588   6.750
 8399POPC   C3A51581   5.089  34.577   7.050
 8399POPC   C4A51582   5.134  34.558   7.350
 8399POPC   C1B51583   5.095  34.293   6.450
 8399POPC   C2B51584   5.038  34.282   6.750
 8399POPC   C3B51585   5.049  34.293   7.050
 8399POPC   C4B51586   5.066  34.301   7.350
 8400POPC   NC351587  28.330  27.634   5.550
 8400POPC   PO451588  28.407  27.583   5.850
 8400POPC   GL151589  28.339  27.624   6.150
 8400POPC   GL251590  28.339  27.745   6.150
 8400POPC   C1A51591  28.388  27.620   6.450
 8400POPC   D2A51592  28.340  27.613   6.750
 8400POPC   C3A51593  28.417  27.628   7.050
 8400POPC   C4A51594  28.333  27.639   7.350
 8400POPC   C1B51595  28.372  27.819   6.450
 8400POPC   C2B51596  28.353  27.850   6.750
 8400POPC   C3B51597  28.364  27.805   7.050
 8400POPC   C4B51598  28.388  27.827   7.350
 8401POPC   NC351599  14.450  39.998   5.550
 8401POPC   PO451600  14.355  40.026   5.850
 8401POPC   GL151601  14.386  39.964   6.150
 8401POPC   GL251602  14.481  40.056   6.150
 8401POPC   C1A51603  14.427  40.042   6.450
 8401POPC   D2A51604  14.406  40.003   6.750
 8401POPC   C3A51605  14.385  40.017   7.050
 8401POPC   C4A51606  14.367  40.052   7.350
 8401POPC   C1B51607  14.609  40.182   6.450
 8401POPC   C2B51608  14.574  40.221   6.750
 8401POPC   C3B51609  14.523  40.177   7.050
 8401POPC   C4B51610  14.558  40.218   7.350
 8402POPC   NC351611  26.069  36.103   5.550
 8402POPC   PO451612  26.072  36.148   5.850
 8402POPC   GL151613  26.067  36.166   6.150
 8402POPC   GL251614  25.960  36.038   6.150
 8402POPC   C1A51615  26.081  36.094   6.450
 8402POPC   D2A51616  26.080  36.090   6.750
 8402POPC   C3A51617  26.057  36.175   7.050
 8402POPC   C4A51618  26.027  36.080   7.350
 8402POPC   C1B51619  26.010  35.866   6.450
 8402POPC   C2B51620  25.982  35.865   6.750
 8402POPC   C3B51621  25.946  35.851   7.050
 8402POPC   C4B51622  25.937  35.877   7.350
 8403POPC   NC351623  13.579  29.880   5.550
 8403POPC   PO451624  13.589  29.883   5.850
 8403POPC   GL151625  13.579  29.964   6.150
 8403POPC   GL251626  13.514  29.956   6.150
 8403POPC   C1A51627  13.660  29.898   6.450
 8403POPC   D2A51628  13.579  29.904   6.750
 8403POPC   C3A51629  13.630  29.884   7.050
 8403POPC   C4A51630  13.660  29.944   7.350
 8403POPC   C1B51631  13.428  29.988   6.450
 8403POPC   C2B51632  13.367  30.024   6.750
 8403POPC   C3B51633  13.391  30.008   7.050
 8403POPC   C4B51634  13.379  29.988   7.350
 8404POPC   NC351635  28.375  36.910   5.550
 8404POPC   PO451636  28.376  36.922   5.850
 8404POPC   GL151637  28.367  36.947   6.150
 8404POPC   GL251638  28.478  36.957   6.150
 8404POPC   C1A51639  28.390  36.919   6.450
 8404POPC   D2A51640  28.319  36.952   6.750
 8404POPC   C3A51641  28.340  36.885   7.050
 8404POPC   C4A51642  28.344  36.874   7.350
 8404POPC   C1B51643  28.523  37.085   6.450
 8404POPC   C2B51644  28.527  37.148   6.750
 8404POPC   C3B51645  28.469  37.078   7.050
 8404POPC   C4B51646  28.547  37.080   7.350
 8405POPC   NC351647  32.241  25.267   5.550
 8405POPC   PO451648  32.226  25.263   5.850
 8405POPC   GL151649  32.254  25.279   6.150
 8405POPC   GL251650  32.177  25.321   6.150
 8405POPC   C1A51651  32.254  25.267   6.450
 8405POPC   D2A51652  32.256  25.303   6.750
 8405POPC   C3A51653  32.273  25.306   7.050
 8405POPC   C4A51654  32.234  25.220   7.350
 8405POPC   C1B51655  32.127  25.440   6.450
 8405POPC   C2B51656  32.126  25.462   6.750
 8405POPC   C3B51657  32.115  25.504   7.050
 8405POPC   C4B51658  32.134  25.486   7.350
 8406POPC   NC351659  28.338  26.014   5.550
 8406POPC   PO451660  28.393  26.019   5.850
 8406POPC   GL151661  28.367  26.073   6.150
 8406POPC   GL251662  28.275  26.179   6.150
 8406POPC   C1A51663  28.408  26.074   6.450
 8406POPC   D2A51664  28.380  26.031   6.750
 8406POPC   C3A51665  28.336  26.022   7.050
 8406POPC   C4A51666  28.384  26.045   7.350
 8406POPC   C1B51667  28.199  26.277   6.450
 8406POPC   C2B51668  28.241  26.203   6.750
 8406POPC   C3B51669  28.257  26.280   7.050
 8406POPC   C4B51670  28.201  26.245   7.350
 8407POPC   NC351671  24.468  11.315   5.550
 8407POPC   PO451672  24.486  11.299   5.850
 8407POPC   GL151673  24.521  11.312   6.150
 8407POPC   GL251674  24.382  11.265   6.150
 8407POPC   C1A51675  24.462  11.313   6.450
 8407POPC   D2A51676  24.463  11.345   6.750
 8407POPC   C3A51677  24.513  11.308   7.050
 8407POPC   C4A51678  24.487  11.348   7.350
 8407POPC   C1B51679  24.246  11.202   6.450
 8407POPC   C2B51680  24.295  11.168   6.750
 8407POPC   C3B51681  24.221  11.162   7.050
 8407POPC   C4B51682  24.247  11.182   7.350
 8408POPC   NC351683  15.920  15.186   5.550
 8408POPC   PO451684  15.937  15.175   5.850
 8408POPC   GL151685  15.936  15.205   6.150
 8408POPC   GL251686  16.020  15.297   6.150
 8408POPC   C1A51687  15.931  15.153   6.450
 8408POPC   D2A51688  15.936  15.213   6.750
 8408POPC   C3A51689  15.919  15.220   7.050
 8408POPC   C4A51690  15.909  15.146   7.350
 8408POPC   C1B51691  16.097  15.352   6.450
 8408POPC   C2B51692  16.134  15.373   6.750
 8408POPC   C3B51693  16.140  15.359   7.050
 8408POPC   C4B51694  16.095  15.341   7.350
 8409POPC   NC351695  34.554  12.808   5.550
 8409POPC   PO451696  34.614  12.803   5.850
 8409POPC   GL151697  34.577  12.819   6.150
 8409POPC   GL251698  34.728  12.781   6.150
 8409POPC   C1A51699  34.593  12.850   6.450
 8409POPC   D2A51700  34.618  12.849   6.750
 8409POPC   C3A51701  34.589  12.828   7.050
 8409POPC   C4A51702  34.577  12.815   7.350
 8409POPC   C1B51703  34.804  12.684   6.450
 8409POPC   C2B51704  34.833  12.780   6.750
 8409POPC   C3B51705  34.812  12.761   7.050
 8409POPC   C4B51706  34.785  12.710   7.350
 8410POPC   NC351707  14.385  22.935   5.550
 8410POPC   PO451708  14.413  22.948   5.850
 8410POPC   GL151709  14.429  22.901   6.150
 8410POPC   GL251710  14.458  23.011   6.150
 8410POPC   C1A51711  14.426  22.978   6.450
 8410POPC   D2A51712  14.407  22.965   6.750
 8410POPC   C3A51713  14.372  22.898   7.050
 8410POPC   C4A51714  14.446  22.899   7.350
 8410POPC   C1B51715  14.406  23.162   6.450
 8410POPC   C2B51716  14.431  23.139   6.750
 8410POPC   C3B51717  14.413  23.191   7.050
 8410POPC   C4B51718  14.445  23.146   7.350
 8411POPC   NC351719   8.965  41.509   5.550
 8411POPC   PO451720   8.976  41.561   5.850
 8411POPC   GL151721   8.981  41.591   6.150
 8411POPC   GL251722   9.066  41.670   6.150
 8411POPC   C1A51723   8.925  41.578   6.450
 8411POPC   D2A51724   9.009  41.540   6.750
 8411POPC   C3A51725   9.002  41.587   7.050
 8411POPC   C4A51726   9.005  41.538   7.350
 8411POPC   C1B51727   9.110  41.792   6.450
 8411POPC   C2B51728   9.156  41.719   6.750
 8411POPC   C3B51729   9.112  41.768   7.050
 8411POPC   C4B51730   9.130  41.780   7.350
 8412POPC   NC351731   0.392  42.324   5.550
 8412POPC   PO451732   0.478  42.351   5.850
 8412POPC   GL151733   0.448  42.313   6.150
 8412POPC   GL251734   0.419  42.476   6.150
 8412POPC   C1A51735   0.412  42.286   6.450
 8412POPC   D2A51736   0.407  42.352   6.750
 8412POPC   C3A51737   0.465  42.355   7.050
 8412POPC   C4A51738   0.454  42.288   7.350
 8412POPC   C1B51739   0.339  42.582   6.450
 8412POPC   C2B51740   0.344  42.538   6.750
 8412POPC   C3B51741   0.292  42.550   7.050
 8412POPC   C4B51742   0.319  42.548   7.350
 8413POPC   NC351743  40.013  29.917   5.550
 8413POPC   PO451744  39.959  29.871   5.850
 8413POPC   GL151745  40.039  29.905   6.150
 8413POPC   GL251746  40.095  29.971   6.150
 8413POPC   C1A51747  40.025  29.967   6.450
 8413POPC   D2A51748  40.008  29.912   6.750
 8413POPC   C3A51749  40.040  29.944   7.050
 8413POPC   C4A51750  39.980  29.890   7.350
 8413POPC   C1B51751  40.195  30.132   6.450
 8413POPC   C2B51752  40.132  30.072   6.750
 8413POPC   C3B51753  40.185  30.080   7.050
 8413POPC   C4B51754  40.142  30.093   7.350
 8414POPC   NC351755  26.797  32.246   5.550
 8414POPC   PO451756  26.827  32.218   5.850
 8414POPC   GL151757  26.827  32.239   6.150
 8414POPC   GL251758  26.796  32.190   6.150
 8414POPC   C1A51759  26.768  32.298   6.450
 8414POPC   D2A51760  26.807  32.229   6.750
 8414POPC   C3A51761  26.809  32.228   7.050
 8414POPC   C4A51762  26.810  32.255   7.350
 8414POPC   C1B51763  26.671  32.011   6.450
 8414POPC   C2B51764  26.700  32.002   6.750
 8414POPC   C3B51765  26.723  31.992   7.050
 8414POPC   C4B51766  26.672  32.019   7.350
 8415POPC   NC351767   5.905   6.634   5.550
 8415POPC   PO451768   5.876   6.637   5.850
 8415POPC   GL151769   5.896   6.618   6.150
 8415POPC   GL251770   6.027   6.734   6.150
 8415POPC   C1A51771   5.835   6.648   6.450
 8415POPC   D2A51772   5.842   6.655   6.750
 8415POPC   C3A51773   5.828   6.649   7.050
 8415POPC   C4A51774   5.908   6.688   7.350
 8415POPC   C1B51775   6.138   6.709   6.450
 8415POPC   C2B51776   6.132   6.705   6.750
 8415POPC   C3B51777   6.133   6.715   7.050
 8415POPC   C4B51778   6.099   6.755   7.350
 8416POPC   NC351779  32.978  17.549   5.550
 8416POPC   PO451780  33.014  17.465   5.850
 8416POPC   GL151781  33.047  17.495   6.150
 8416POPC   GL251782  32.985  17.372   6.150
 8416POPC   C1A51783  33.022  17.499   6.450
 8416POPC   D2A51784  32.999  17.461   6.750
 8416POPC   C3A51785  33.066  17.505   7.050
 8416POPC   C4A51786  33.044  17.506   7.350
 8416POPC   C1B51787  32.962  17.295   6.450
 8416POPC   C2B51788  32.983  17.266   6.750
 8416POPC   C3B51789  32.963  17.238   7.050
 8416POPC   C4B51790  32.980  17.232   7.350
 8417POPC   NC351791  28.412  20.593   5.550
 8417POPC   PO451792  28.406  20.638   5.850
 8417POPC   GL151793  28.337  20.638   6.150
 8417POPC   GL251794  28.350  20.717   6.150
 8417POPC   C1A51795  28.369  20.592   6.450
 8417POPC   D2A51796  28.401  20.609   6.750
 8417POPC   C3A51797  28.389  20.659   7.050
 8417POPC   C4A51798  28.340  20.600   7.350
 8417POPC   C1B51799  28.265  20.828   6.450
 8417POPC   C2B51800  28.226  20.811   6.750
 8417POPC   C3B51801  28.262  20.864   7.050
 8417POPC   C4B51802  28.193  20.858   7.350
 8418POPC   NC351803  24.530   2.729   5.550
 8418POPC   PO451804  24.528   2.802   5.850
 8418POPC   GL151805  24.486   2.772   6.150
 8418POPC   GL251806  24.380   2.636   6.150
 8418POPC   C1A51807  24.471   2.756   6.450
 8418POPC   D2A51808  24.442   2.761   6.750
 8418POPC   C3A51809  24.476   2.804   7.050
 8418POPC   C4A51810  24.482   2.795   7.350
 8418POPC   C1B51811  24.402   2.550   6.450
 8418POPC   C2B51812  24.346   2.519   6.750
 8418POPC   C3B51813  24.342   2.523   7.050
 8418POPC   C4B51814  24.402   2.592   7.350
 8419POPC   NC351815  29.909  23.728   5.550
 8419POPC   PO451816  29.941  23.722   5.850
 8419POPC   GL151817  29.891  23.724   6.150
 8419POPC   GL251818  29.838  23.683   6.150
 8419POPC   C1A51819  29.955  23.734   6.450
 8419POPC   D2A51820  29.892  23.687   6.750
 8419POPC   C3A51821  29.913  23.673   7.050
 8419POPC   C4A51822  29.889  23.736   7.350
 8419POPC   C1B51823  29.722  23.608   6.450
 8419POPC   C2B51824  29.714  23.564   6.750
 8419POPC   C3B51825  29.727  23.617   7.050
 8419POPC   C4B51826  29.748  23.606   7.350
 8420POPC   NC351827   3.512  27.573   5.550
 8420POPC   PO451828   3.550  27.567   5.850
 8420POPC   GL151829   3.505  27.553   6.150
 8420POPC   GL251830   3.499  27.514   6.150
 8420POPC   C1A51831   3.532  27.575   6.450
 8420POPC   D2A51832   3.503  27.596   6.750
 8420POPC   C3A51833   3.502  27.621   7.050
 8420POPC   C4A51834   3.587  27.610   7.350
 8420POPC   C1B51835   3.526  27.305   6.450
 8420POPC   C2B51836   3.503  27.327   6.750
 8420POPC   C3B51837   3.521  27.373   7.050
 8420POPC   C4B51838   3.557  27.330   7.350
 8421POPC   NC351839  31.445  19.079   5.550
 8421POPC   PO451840  31.497  19.035   5.850
 8421POPC   GL151841  31.488  19.029   6.150
 8421POPC   GL251842  31.571  19.065   6.150
 8421POPC   C1A51843  31.485  19.089   6.450
 8421POPC   D2A51844  31.435  19.058   6.750
 8421POPC   C3A51845  31.455  19.076   7.050
 8421POPC   C4A51846  31.473  19.067   7.350
 8421POPC   C1B51847  31.705  19.071   6.450
 8421POPC   C2B51848  31.748  19.010   6.750
 8421POPC   C3B51849  31.708  19.041   7.050
 8421POPC   C4B51850  31.740  19.036   7.350
 8422POPC   NC351851   8.239  42.288   5.550
 8422POPC   PO451852   8.198  42.364   5.850
 8422POPC   GL151853   8.218  42.383   6.150
 8422POPC   GL251854   8.263  42.449   6.150
 8422POPC   C1A51855   8.208  42.320   6.450
 8422POPC   D2A51856   8.243  42.356   6.750
 8422POPC   C3A51857   8.229  42.318   7.050
 8422POPC   C4A51858   8.181  42.370   7.350
 8422POPC   C1B51859   8.277  42.522   6.450
 8422POPC   C2B51860   8.313  42.563   6.750
 8422POPC   C3B51861   8.308  42.562   7.050
 8422POPC   C4B51862   8.280  42.536   7.350
 8423POPC   NC351863  15.936   8.984   5.550
 8423POPC   PO451864  15.950   8.938   5.850
 8423POPC   GL151865  15.985   8.984   6.150
 8423POPC   GL251866  15.879   8.830   6.150
 8423POPC   C1A51867  15.958   8.977   6.450
 8423POPC   D2A51868  15.981   9.000   6.750
 8423POPC   C3A51869  15.968   8.933   7.050
 8423POPC   C4A51870  15.939   8.997   7.350
 8423POPC   C1B51871  15.850   8.744   6.450
 8423POPC   C2B51872  15.837   8.786   6.750
 8423POPC   C3B51873  15.877   8.771   7.050
 8423POPC   C4B51874  15.832   8.716   7.350
 8424POPC   NC351875   2.720  24.522   5.550
 8424POPC   PO451876   2.743  24.521   5.850
 8424POPC   GL151877   2.799  24.477   6.150
 8424POPC   GL251878   2.856  24.399   6.150
 8424POPC   C1A51879   2.763  24.516   6.450
 8424POPC   D2A51880   2.725  24.453   6.750
 8424POPC   C3A51881   2.780  24.471   7.050
 8424POPC   C4A51882   2.750  24.520   7.350
 8424POPC   C1B51883   2.909  24.253   6.450
 8424POPC   C2B51884   2.843  24.228   6.750
 8424POPC   C3B51885   2.848  24.229   7.050
 8424POPC   C4B51886   2.897  24.307   7.350
 8425POPC   NC351887  12.052   5.123   5.550
 8425POPC   PO451888  12.112   5.114   5.850
 8425POPC   GL151889  12.115   5.088   6.150
 8425POPC   GL251890  12.236   5.084   6.150
 8425POPC   C1A51891  12.063   5.065   6.450
 8425POPC   D2A51892  12.035   5.097   6.750
 8425POPC   C3A51893  12.089   5.085   7.050
 8425POPC   C4A51894  12.097   5.064   7.350
 8425POPC   C1B51895  12.300   5.166   6.450
 8425POPC   C2B51896  12.354   5.148   6.750
 8425POPC   C3B51897  12.325   5.178   7.050
 8425POPC   C4B51898  12.284   5.163   7.350
 8426POPC   NC351899  16.751  12.900   5.550
 8426POPC   PO451900  16.760  12.813   5.850
 8426POPC   GL151901  16.761  12.847   6.150
 8426POPC   GL251902  16.606  12.828   6.150
 8426POPC   C1A51903  16.723  12.861   6.450
 8426POPC   D2A51904  16.710  12.841   6.750
 8426POPC   C3A51905  16.740  12.808   7.050
 8426POPC   C4A51906  16.722  12.868   7.350
 8426POPC   C1B51907  16.453  12.822   6.450
 8426POPC   C2B51908  16.462  12.728   6.750
 8426POPC   C3B51909  16.507  12.790   7.050
 8426POPC   C4B51910  16.514  12.813   7.350
 8427POPC   NC351911  22.956  23.701   5.550
 8427POPC   PO451912  22.914  23.732   5.850
 8427POPC   GL151913  22.942  23.713   6.150
 8427POPC   GL251914  22.844  23.663   6.150
 8427POPC   C1A51915  22.925  23.736   6.450
 8427POPC   D2A51916  22.961  23.710   6.750
 8427POPC   C3A51917  22.951  23.700   7.050
 8427POPC   C4A51918  22.915  23.747   7.350
 8427POPC   C1B51919  22.661  23.630   6.450
 8427POPC   C2B51920  22.700  23.667   6.750
 8427POPC   C3B51921  22.730  23.638   7.050
 8427POPC   C4B51922  22.686  23.653   7.350
 8428POPC   NC351923  20.652  26.058   5.550
 8428POPC   PO451924  20.603  26.047   5.850
 8428POPC   GL151925  20.579  26.012   6.150
 8428POPC   GL251926  20.719  25.942   6.150
 8428POPC   C1A51927  20.611  25.992   6.450
 8428POPC   D2A51928  20.655  25.999   6.750
 8428POPC   C3A51929  20.658  26.086   7.050
 8428POPC   C4A51930  20.605  26.070   7.350
 8428POPC   C1B51931  20.794  25.865   6.450
 8428POPC   C2B51932  20.750  25.859   6.750
 8428POPC   C3B51933  20.813  25.870   7.050
 8428POPC   C4B51934  20.793  25.851   7.350
 8429POPC   NC351935  31.478  42.340   5.550
 8429POPC   PO451936  31.470  42.382   5.850
 8429POPC   GL151937  31.449  42.308   6.150
 8429POPC   GL251938  31.428  42.482   6.150
 8429POPC   C1A51939  31.437  42.305   6.450
 8429POPC   D2A51940  31.506  42.318   6.750
 8429POPC   C3A51941  31.520  42.309   7.050
 8429POPC   C4A51942  31.436  42.362   7.350
 8429POPC   C1B51943  31.453  42.564   6.450
 8429POPC   C2B51944  31.405  42.573   6.750
 8429POPC   C3B51945  31.463  42.553   7.050
 8429POPC   C4B51946  31.424  42.609   7.350
 8430POPC   NC351947  15.954  32.266   5.550
 8430POPC   PO451948  15.993  32.281   5.850
 8430POPC   GL151949  15.941  32.234   6.150
 8430POPC   GL251950  16.006  32.156   6.150
 8430POPC   C1A51951  15.997  32.220   6.450
 8430POPC   D2A51952  15.968  32.240   6.750
 8430POPC   C3A51953  15.983  32.217   7.050
 8430POPC   C4A51954  15.912  32.278   7.350
 8430POPC   C1B51955  15.976  31.963   6.450
 8430POPC   C2B51956  15.966  32.016   6.750
 8430POPC   C3B51957  15.996  32.042   7.050
 8430POPC   C4B51958  15.959  31.973   7.350
 8431POPC   NC351959   1.958  12.863   5.550
 8431POPC   PO451960   1.949  12.841   5.850
 8431POPC   GL151961   2.010  12.900   6.150
 8431POPC   GL251962   1.995  12.754   6.150
 8431POPC   C1A51963   1.947  12.841   6.450
 8431POPC   D2A51964   2.004  12.811   6.750
 8431POPC   C3A51965   2.025  12.870   7.050
 8431POPC   C4A51966   1.966  12.872   7.350
 8431POPC   C1B51967   2.021  12.638   6.450
 8431POPC   C2B51968   1.994  12.588   6.750
 8431POPC   C3B51969   2.032  12.564   7.050
 8431POPC   C4B51970   2.022  12.582   7.350
 8432POPC   NC351971   2.749  14.445   5.550
 8432POPC   PO451972   2.728  14.395   5.850
 8432POPC   GL151973   2.814  14.358   6.150
 8432POPC   GL251974   2.759  14.244   6.150
 8432POPC   C1A51975   2.753  14.366   6.450
 8432POPC   D2A51976   2.743  14.396   6.750
 8432POPC   C3A51977   2.808  14.359   7.050
 8432POPC   C4A51978   2.716  14.357   7.350
 8432POPC   C1B51979   2.780  14.109   6.450
 8432POPC   C2B51980   2.742  14.202   6.750
 8432POPC   C3B51981   2.839  14.194   7.050
 8432POPC   C4B51982   2.797  14.174   7.350
 8433POPC   NC351983   7.394  22.137   5.550
 8433POPC   PO451984   7.466  22.129   5.850
 8433POPC   GL151985   7.434  22.211   6.150
 8433POPC   GL251986   7.563  22.258   6.150
 8433POPC   C1A51987   7.409  22.144   6.450
 8433POPC   D2A51988   7.374  22.165   6.750
 8433POPC   C3A51989   7.398  22.156   7.050
 8433POPC   C4A51990   7.457  22.202   7.350
 8433POPC   C1B51991   7.670  22.298   6.450
 8433POPC   C2B51992   7.620  22.284   6.750
 8433POPC   C3B51993   7.686  22.238   7.050
 8433POPC   C4B51994   7.604  22.309   7.350
 8434POPC   NC351995  29.123  24.462   5.550
 8434POPC   PO451996  29.169  24.469   5.850
 8434POPC   GL151997  29.095  24.462   6.150
 8434POPC   GL251998  29.224  24.352   6.150
 8434POPC   C1A51999  29.134  24.518   6.450
 8434POPC   D2A52000  29.167  24.447   6.750
 8434POPC   C3A52001  29.187  24.452   7.050
 8434POPC   C4A52002  29.181  24.451   7.350
 8434POPC   C1B52003  29.185  24.230   6.450
 8434POPC   C2B52004  29.191  24.207   6.750
 8434POPC   C3B52005  29.225  24.240   7.050
 8434POPC   C4B52006  29.189  24.240   7.350
 8435POPC   NC352007  12.876  41.581   5.550
 8435POPC   PO452008  12.850  41.527   5.850
 8435POPC   GL152009  12.836  41.509   6.150
 8435POPC   GL252010  12.925  41.452   6.150
 8435POPC   C1A52011  12.848  41.550   6.450
 8435POPC   D2A52012  12.888  41.589   6.750
 8435POPC   C3A52013  12.837  41.539   7.050
 8435POPC   C4A52014  12.806  41.532   7.350
 8435POPC   C1B52015  13.071  41.439   6.450
 8435POPC   C2B52016  13.089  41.412   6.750
 8435POPC   C3B52017  13.113  41.445   7.050
 8435POPC   C4B52018  13.039  41.439   7.350
 8436POPC   NC352019  18.300  34.614   5.550
 8436POPC   PO452020  18.238  34.599   5.850
 8436POPC   GL152021  18.251  34.620   6.150
 8436POPC   GL252022  18.240  34.457   6.150
 8436POPC   C1A52023  18.236  34.615   6.450
 8436POPC   D2A52024  18.254  34.547   6.750
 8436POPC   C3A52025  18.262  34.547   7.050
 8436POPC   C4A52026  18.304  34.599   7.350
 8436POPC   C1B52027  18.223  34.336   6.450
 8436POPC   C2B52028  18.317  34.322   6.750
 8436POPC   C3B52029  18.263  34.294   7.050
 8436POPC   C4B52030  18.247  34.334   7.350
 8437POPC   NC352031  37.644  21.428   5.550
 8437POPC   PO452032  37.702  21.342   5.850
 8437POPC   GL152033  37.716  21.393   6.150
 8437POPC   GL252034  37.605  21.461   6.150
 8437POPC   C1A52035  37.705  21.433   6.450
 8437POPC   D2A52036  37.704  21.348   6.750
 8437POPC   C3A52037  37.698  21.399   7.050
 8437POPC   C4A52038  37.705  21.386   7.350
 8437POPC   C1B52039  37.644  21.641   6.450
 8437POPC   C2B52040  37.589  21.661   6.750
 8437POPC   C3B52041  37.574  21.666   7.050
 8437POPC   C4B52042  37.576  21.659   7.350
 8438POPC   NC352043  19.839  29.181   5.550
 8438POPC   PO452044  19.812  29.132   5.850
 8438POPC   GL152045  19.863  29.110   6.150
 8438POPC   GL252046  19.852  29.286   6.150
 8438POPC   C1A52047  19.875  29.138   6.450
 8438POPC   D2A52048  19.864  29.109   6.750
 8438POPC   C3A52049  19.839  29.188   7.050
 8438POPC   C4A52050  19.819  29.181   7.350
 8438POPC   C1B52051  19.866  29.357   6.450
 8438POPC   C2B52052  19.886  29.432   6.750
 8438POPC   C3B52053  19.891  29.423   7.050
 8438POPC   C4B52054  19.808  29.401   7.350
 8439POPC   NC352055  27.557   2.737   5.550
 8439POPC   PO452056  27.593   2.811   5.850
 8439POPC   GL152057  27.548   2.748   6.150
 8439POPC   GL252058  27.680   2.665   6.150
 8439POPC   C1A52059  27.594   2.745   6.450
 8439POPC   D2A52060  27.637   2.782   6.750
 8439POPC   C3A52061  27.553   2.748   7.050
 8439POPC   C4A52062  27.587   2.727   7.350
 8439POPC   C1B52063  27.811   2.608   6.450
 8439POPC   C2B52064  27.800   2.609   6.750
 8439POPC   C3B52065  27.769   2.574   7.050
 8439POPC   C4B52066  27.765   2.591   7.350
 8440POPC   NC352067  30.702  20.576   5.550
 8440POPC   PO452068  30.704  20.594   5.850
 8440POPC   GL152069  30.661  20.611   6.150
 8440POPC   GL252070  30.798  20.642   6.150
 8440POPC   C1A52071  30.672  20.636   6.450
 8440POPC   D2A52072  30.684  20.602   6.750
 8440POPC   C3A52073  30.740  20.626   7.050
 8440POPC   C4A52074  30.660  20.584   7.350
 8440POPC   C1B52075  30.925  20.752   6.450
 8440POPC   C2B52076  30.841  20.737   6.750
 8440POPC   C3B52077  30.841  20.775   7.050
 8440POPC   C4B52078  30.932  20.807   7.350
 8441POPC   NC352079  15.954   7.407   5.550
 8441POPC   PO452080  15.947   7.422   5.850
 8441POPC   GL152081  15.979   7.405   6.150
 8441POPC   GL252082  16.040   7.529   6.150
 8441POPC   C1A52083  15.967   7.418   6.450
 8441POPC   D2A52084  15.943   7.423   6.750
 8441POPC   C3A52085  15.938   7.388   7.050
 8441POPC   C4A52086  15.957   7.415   7.350
 8441POPC   C1B52087  16.097   7.587   6.450
 8441POPC   C2B52088  16.083   7.647   6.750
 8441POPC   C3B52089  16.072   7.657   7.050
 8441POPC   C4B52090  16.133   7.671   7.350
 8442POPC   NC352091  33.058   4.343   5.550
 8442POPC   PO452092  33.020   4.287   5.850
 8442POPC   GL152093  33.004   4.357   6.150
 8442POPC   GL252094  33.034   4.403   6.150
 8442POPC   C1A52095  33.002   4.331   6.450
 8442POPC   D2A52096  33.044   4.317   6.750
 8442POPC   C3A52097  33.045   4.294   7.050
 8442POPC   C4A52098  33.030   4.268   7.350
 8442POPC   C1B52099  33.120   4.532   6.450
 8442POPC   C2B52100  33.084   4.562   6.750
 8442POPC   C3B52101  33.152   4.532   7.050
 8442POPC   C4B52102  33.105   4.587   7.350
 8443POPC   NC352103   1.218  13.646   5.550
 8443POPC   PO452104   1.221  13.609   5.850
 8443POPC   GL152105   1.249  13.582   6.150
 8443POPC   GL252106   1.064  13.663   6.150
 8443POPC   C1A52107   1.229  13.615   6.450
 8443POPC   D2A52108   1.195  13.626   6.750
 8443POPC   C3A52109   1.202  13.629   7.050
 8443POPC   C4A52110   1.212  13.662   7.350
 8443POPC   C1B52111   0.980  13.639   6.450
 8443POPC   C2B52112   0.950  13.677   6.750
 8443POPC   C3B52113   1.009  13.617   7.050
 8443POPC   C4B52114   0.931  13.611   7.350
 8444POPC   NC352115   9.713   3.585   5.550
 8444POPC   PO452116   9.736   3.534   5.850
 8444POPC   GL152117   9.728   3.578   6.150
 8444POPC   GL252118   9.919   3.564   6.150
 8444POPC   C1A52119   9.754   3.542   6.450
 8444POPC   D2A52120   9.705   3.530   6.750
 8444POPC   C3A52121   9.793   3.505   7.050
 8444POPC   C4A52122   9.749   3.539   7.350
 8444POPC   C1B52123   9.994   3.582   6.450
 8444POPC   C2B52124  10.038   3.579   6.750
 8444POPC   C3B52125  10.004   3.500   7.050
 8444POPC   C4B52126   9.997   3.555   7.350
 8445POPC   NC352127  35.340  16.000   5.550
 8445POPC   PO452128  35.337  15.920   5.850
 8445POPC   GL152129  35.340  15.932   6.150
 8445POPC   GL252130  35.302  15.906   6.150
 8445POPC   C1A52131  35.343  15.955   6.450
 8445POPC   D2A52132  35.304  15.950   6.750
 8445POPC   C3A52133  35.308  15.923   7.050
 8445POPC   C4A52134  35.354  15.980   7.350
 8445POPC   C1B52135  35.165  15.788   6.450
 8445POPC   C2B52136  35.132  15.761   6.750
 8445POPC   C3B52137  35.206  15.837   7.050
 8445POPC   C4B52138  35.115  15.801   7.350
 8446POPC   NC352139  44.640  22.963   5.550
 8446POPC   PO452140  44.639  22.962   5.850
 8446POPC   GL152141  44.665  22.982   6.150
 8446POPC   GL252142  44.785  23.046   6.150
 8446POPC   C1A52143  44.645  22.907   6.450
 8446POPC   D2A52144  44.682  22.905   6.750
 8446POPC   C3A52145  44.691  22.968   7.050
 8446POPC   C4A52146  44.612  22.955   7.350
 8446POPC   C1B52147  44.849  23.105   6.450
 8446POPC   C2B52148  44.823  23.063   6.750
 8446POPC   C3B52149  44.845  23.048   7.050
 8446POPC   C4B52150  44.826  23.102   7.350
 8447POPC   NC352151  13.631  26.783   5.550
 8447POPC   PO452152  13.629  26.820   5.850
 8447POPC   GL152153  13.605  26.865   6.150
 8447POPC   GL252154  13.659  26.645   6.150
 8447POPC   C1A52155  13.602  26.830   6.450
 8447POPC   D2A52156  13.662  26.847   6.750
 8447POPC   C3A52157  13.608  26.783   7.050
 8447POPC   C4A52158  13.625  26.780   7.350
 8447POPC   C1B52159  13.644  26.618   6.450
 8447POPC   C2B52160  13.674  26.556   6.750
 8447POPC   C3B52161  13.716  26.530   7.050
 8447POPC   C4B52162  13.658  26.551   7.350
 8448POPC   NC352163  24.531  28.363   5.550
 8448POPC   PO452164  24.443  28.413   5.850
 8448POPC   GL152165  24.501  28.384   6.150
 8448POPC   GL252166  24.428  28.254   6.150
 8448POPC   C1A52167  24.487  28.366   6.450
 8448POPC   D2A52168  24.516  28.327   6.750
 8448POPC   C3A52169  24.501  28.367   7.050
 8448POPC   C4A52170  24.459  28.392   7.350
 8448POPC   C1B52171  24.421  28.100   6.450
 8448POPC   C2B52172  24.368  28.129   6.750
 8448POPC   C3B52173  24.405  28.122   7.050
 8448POPC   C4B52174  24.414  28.151   7.350
 8449POPC   NC352175  22.922  14.360   5.550
 8449POPC   PO452176  22.923  14.374   5.850
 8449POPC   GL152177  22.980  14.401   6.150
 8449POPC   GL252178  23.027  14.398   6.150
 8449POPC   C1A52179  22.930  14.384   6.450
 8449POPC   D2A52180  22.917  14.354   6.750
 8449POPC   C3A52181  22.896  14.376   7.050
 8449POPC   C4A52182  22.898  14.384   7.350
 8449POPC   C1B52183  23.138  14.455   6.450
 8449POPC   C2B52184  23.162  14.455   6.750
 8449POPC   C3B52185  23.187  14.449   7.050
 8449POPC   C4B52186  23.156  14.416   7.350
 8450POPC   NC352187  22.198  43.921   5.550
 8450POPC   PO452188  22.207  43.887   5.850
 8450POPC   GL152189  22.201  43.894   6.150
 8450POPC   GL252190  22.070  43.855   6.150
 8450POPC   C1A52191  22.177  43.919   6.450
 8450POPC   D2A52192  22.136  43.841   6.750
 8450POPC   C3A52193  22.142  43.902   7.050
 8450POPC   C4A52194  22.209  43.868   7.350
 8450POPC   C1B52195  21.933  43.859   6.450
 8450POPC   C2B52196  21.905  43.830   6.750
 8450POPC   C3B52197  21.904  43.882   7.050
 8450POPC   C4B52198  21.918  43.808   7.350
 8451POPC   NC352199   7.447  43.160   5.550
 8451POPC   PO452200   7.397  43.073   5.850
 8451POPC   GL152201   7.463  43.090   6.150
 8451POPC   GL252202   7.456  43.192   6.150
 8451POPC   C1A52203   7.397  43.089   6.450
 8451POPC   D2A52204   7.420  43.088   6.750
 8451POPC   C3A52205   7.453  43.064   7.050
 8451POPC   C4A52206   7.379  43.098   7.350
 8451POPC   C1B52207   7.468  43.311   6.450
 8451POPC   C2B52208   7.538  43.364   6.750
 8451POPC   C3B52209   7.490  43.360   7.050
 8451POPC   C4B52210   7.550  43.320   7.350
 8452POPC   NC352211  36.858  18.321   5.550
 8452POPC   PO452212  36.907  18.325   5.850
 8452POPC   GL152213  36.861  18.317   6.150
 8452POPC   GL252214  36.771  18.287   6.150
 8452POPC   C1A52215  36.935  18.245   6.450
 8452POPC   D2A52216  36.854  18.307   6.750
 8452POPC   C3A52217  36.903  18.245   7.050
 8452POPC   C4A52218  36.876  18.257   7.350
 8452POPC   C1B52219  36.701  18.320   6.450
 8452POPC   C2B52220  36.615  18.343   6.750
 8452POPC   C3B52221  36.613  18.274   7.050
 8452POPC   C4B52222  36.641  18.305   7.350
 8453POPC   NC352223   1.946   6.626   5.550
 8453POPC   PO452224   1.973   6.605   5.850
 8453POPC   GL152225   1.984   6.611   6.150
 8453POPC   GL252226   1.856   6.721   6.150
 8453POPC   C1A52227   2.036   6.644   6.450
 8453POPC   D2A52228   1.960   6.639   6.750
 8453POPC   C3A52229   2.025   6.653   7.050
 8453POPC   C4A52230   2.006   6.669   7.350
 8453POPC   C1B52231   1.803   6.777   6.450
 8453POPC   C2B52232   1.795   6.744   6.750
 8453POPC   C3B52233   1.716   6.759   7.050
 8453POPC   C4B52234   1.793   6.698   7.350
 8454POPC   NC352235  41.533  23.712   5.550
 8454POPC   PO452236  41.598  23.683   5.850
 8454POPC   GL152237  41.557  23.759   6.150
 8454POPC   GL252238  41.468  23.784   6.150
 8454POPC   C1A52239  41.539  23.683   6.450
 8454POPC   D2A52240  41.554  23.713   6.750
 8454POPC   C3A52241  41.525  23.723   7.050
 8454POPC   C4A52242  41.527  23.738   7.350
 8454POPC   C1B52243  41.281  23.755   6.450
 8454POPC   C2B52244  41.312  23.765   6.750
 8454POPC   C3B52245  41.345  23.818   7.050
 8454POPC   C4B52246  41.315  23.782   7.350
 8455POPC   NC352247  44.692  19.060   5.550
 8455POPC   PO452248  44.630  19.058   5.850
 8455POPC   GL152249  44.635  19.069   6.150
 8455POPC   GL252250  44.544  18.974   6.150
 8455POPC   C1A52251  44.672  19.101   6.450
 8455POPC   D2A52252  44.670  19.026   6.750
 8455POPC   C3A52253  44.667  19.077   7.050
 8455POPC   C4A52254  44.701  19.051   7.350
 8455POPC   C1B52255  44.447  18.921   6.450
 8455POPC   C2B52256  44.436  18.931   6.750
 8455POPC   C3B52257  44.454  18.926   7.050
 8455POPC   C4B52258  44.472  18.936   7.350
 8456POPC   NC352259  26.786  19.814   5.550
 8456POPC   PO452260  26.776  19.876   5.850
 8456POPC   GL152261  26.814  19.859   6.150
 8456POPC   GL252262  26.932  19.791   6.150
 8456POPC   C1A52263  26.850  19.831   6.450
 8456POPC   D2A52264  26.820  19.848   6.750
 8456POPC   C3A52265  26.831  19.872   7.050
 8456POPC   C4A52266  26.768  19.857   7.350
 8456POPC   C1B52267  27.069  19.880   6.450
 8456POPC   C2B52268  27.071  19.828   6.750
 8456POPC   C3B52269  27.086  19.807   7.050
 8456POPC   C4B52270  27.066  19.793   7.350
 8457POPC   NC352271  22.166   1.985   5.550
 8457POPC   PO452272  22.125   1.971   5.850
 8457POPC   GL152273  22.135   2.004   6.150
 8457POPC   GL252274  22.096   2.071   6.150
 8457POPC   C1A52275  22.148   1.983   6.450
 8457POPC   D2A52276  22.177   2.004   6.750
 8457POPC   C3A52277  22.145   1.978   7.050
 8457POPC   C4A52278  22.178   2.013   7.350
 8457POPC   C1B52279  21.915   2.036   6.450
 8457POPC   C2B52280  21.966   2.118   6.750
 8457POPC   C3B52281  21.942   2.039   7.050
 8457POPC   C4B52282  21.963   2.044   7.350
 8458POPC   NC352283  21.382   2.759   5.550
 8458POPC   PO452284  21.369   2.768   5.850
 8458POPC   GL152285  21.386   2.781   6.150
 8458POPC   GL252286  21.437   2.910   6.150
 8458POPC   C1A52287  21.358   2.796   6.450
 8458POPC   D2A52288  21.375   2.764   6.750
 8458POPC   C3A52289  21.369   2.812   7.050
 8458POPC   C4A52290  21.374   2.724   7.350
 8458POPC   C1B52291  21.589   2.989   6.450
 8458POPC   C2B52292  21.577   3.006   6.750
 8458POPC   C3B52293  21.502   2.953   7.050
 8458POPC   C4B52294  21.536   2.959   7.350
 8459POPC   NC352295  35.318  40.006   5.550
 8459POPC   PO452296  35.309  40.026   5.850
 8459POPC   GL152297  35.335  40.025   6.150
 8459POPC   GL252298  35.330  39.892   6.150
 8459POPC   C1A52299  35.374  39.970   6.450
 8459POPC   D2A52300  35.387  39.992   6.750
 8459POPC   C3A52301  35.384  40.010   7.050
 8459POPC   C4A52302  35.332  40.027   7.350
 8459POPC   C1B52303  35.319  39.774   6.450
 8459POPC   C2B52304  35.335  39.793   6.750
 8459POPC   C3B52305  35.292  39.798   7.050
 8459POPC   C4B52306  35.301  39.767   7.350
 8460POPC   NC352307   3.574  31.493   5.550
 8460POPC   PO452308   3.503  31.439   5.850
 8460POPC   GL152309   3.560  31.483   6.150
 8460POPC   GL252310   3.460  31.430   6.150
 8460POPC   C1A52311   3.525  31.447   6.450
 8460POPC   D2A52312   3.579  31.492   6.750
 8460POPC   C3A52313   3.519  31.453   7.050
 8460POPC   C4A52314   3.590  31.520   7.350
 8460POPC   C1B52315   3.246  31.485   6.450
 8460POPC   C2B52316   3.267  31.413   6.750
 8460POPC   C3B52317   3.315  31.485   7.050
 8460POPC   C4B52318   3.295  31.487   7.350
 8461POPC   NC352319  20.620  20.649   5.550
 8461POPC   PO452320  20.572  20.575   5.850
 8461POPC   GL152321  20.653  20.567   6.150
 8461POPC   GL252322  20.582  20.537   6.150
 8461POPC   C1A52323  20.614  20.638   6.450
 8461POPC   D2A52324  20.625  20.591   6.750
 8461POPC   C3A52325  20.572  20.649   7.050
 8461POPC   C4A52326  20.610  20.562   7.350
 8461POPC   C1B52327  20.510  20.350   6.450
 8461POPC   C2B52328  20.494  20.339   6.750
 8461POPC   C3B52329  20.513  20.362   7.050
 8461POPC   C4B52330  20.505  20.367   7.350
 8462POPC   NC352331   4.342  30.711   5.550
 8462POPC   PO452332   4.365  30.705   5.850
 8462POPC   GL152333   4.300  30.721   6.150
 8462POPC   GL252334   4.209  30.738   6.150
 8462POPC   C1A52335   4.337  30.692   6.450
 8462POPC   D2A52336   4.337  30.693   6.750
 8462POPC   C3A52337   4.321  30.653   7.050
 8462POPC   C4A52338   4.343  30.746   7.350
 8462POPC   C1B52339   4.041  30.705   6.450
 8462POPC   C2B52340   4.052  30.659   6.750
 8462POPC   C3B52341   4.029  30.709   7.050
 8462POPC   C4B52342   4.072  30.653   7.350
 8463POPC   NC352343  18.250  12.838   5.550
 8463POPC   PO452344  18.244  12.874   5.850
 8463POPC   GL152345  18.317  12.820   6.150
 8463POPC   GL252346  18.375  12.725   6.150
 8463POPC   C1A52347  18.329  12.804   6.450
 8463POPC   D2A52348  18.320  12.804   6.750
 8463POPC   C3A52349  18.236  12.808   7.050
 8463POPC   C4A52350  18.256  12.841   7.350
 8463POPC   C1B52351  18.469  12.658   6.450
 8463POPC   C2B52352  18.506  12.673   6.750
 8463POPC   C3B52353  18.424  12.665   7.050
 8463POPC   C4B52354  18.469  12.712   7.350
 8464POPC   NC352355  25.256  43.151   5.550
 8464POPC   PO452356  25.265  43.060   5.850
 8464POPC   GL152357  25.236  43.127   6.150
 8464POPC   GL252358  25.142  43.063   6.150
 8464POPC   C1A52359  25.225  43.130   6.450
 8464POPC   D2A52360  25.225  43.148   6.750
 8464POPC   C3A52361  25.231  43.135   7.050
 8464POPC   C4A52362  25.277  43.075   7.350
 8464POPC   C1B52363  25.041  42.975   6.450
 8464POPC   C2B52364  25.037  43.012   6.750
 8464POPC   C3B52365  25.039  42.953   7.050
 8464POPC   C4B52366  25.070  42.987   7.350
 8465POPC   NC352367  33.052   0.440   5.550
 8465POPC   PO452368  33.047   0.485   5.850
 8465POPC   GL152369  32.982   0.404   6.150
 8465POPC   GL252370  32.916   0.398   6.150
 8465POPC   C1A52371  33.056   0.431   6.450
 8465POPC   D2A52372  33.050   0.419   6.750
 8465POPC   C3A52373  32.999   0.401   7.050
 8465POPC   C4A52374  33.001   0.468   7.350
 8465POPC   C1B52375  32.840   0.309   6.450
 8465POPC   C2B52376  32.803   0.314   6.750
 8465POPC   C3B52377  32.821   0.322   7.050
 8465POPC   C4B52378  32.851   0.251   7.350
 8466POPC   NC352379  36.953  15.933   5.550
 8466POPC   PO452380  36.898  15.994   5.850
 8466POPC   GL152381  36.860  15.971   6.150
 8466POPC   GL252382  36.885  16.107   6.150
 8466POPC   C1A52383  36.913  16.004   6.450
 8466POPC   D2A52384  36.944  15.942   6.750
 8466POPC   C3A52385  36.873  15.982   7.050
 8466POPC   C4A52386  36.884  15.914   7.350
 8466POPC   C1B52387  36.849  16.211   6.450
 8466POPC   C2B52388  36.864  16.196   6.750
 8466POPC   C3B52389  36.846  16.214   7.050
 8466POPC   C4B52390  36.804  16.170   7.350
 8467POPC   NC352391  12.840  19.860   5.550
 8467POPC   PO452392  12.802  19.805   5.850
 8467POPC   GL152393  12.885  19.835   6.150
 8467POPC   GL252394  13.006  19.819   6.150
 8467POPC   C1A52395  12.861  19.820   6.450
 8467POPC   D2A52396  12.887  19.822   6.750
 8467POPC   C3A52397  12.900  19.801   7.050
 8467POPC   C4A52398  12.818  19.798   7.350
 8467POPC   C1B52399  13.133  19.832   6.450
 8467POPC   C2B52400  13.100  19.788   6.750
 8467POPC   C3B52401  13.121  19.808   7.050
 8467POPC   C4B52402  13.087  19.818   7.350
 8468POPC   NC352403   6.645   5.143   5.550
 8468POPC   PO452404   6.690   5.094   5.850
 8468POPC   GL152405   6.615   5.065   6.150
 8468POPC   GL252406   6.553   5.155   6.150
 8468POPC   C1A52407   6.669   5.093   6.450
 8468POPC   D2A52408   6.694   5.067   6.750
 8468POPC   C3A52409   6.665   5.135   7.050
 8468POPC   C4A52410   6.641   5.121   7.350
 8468POPC   C1B52411   6.455   5.203   6.450
 8468POPC   C2B52412   6.375   5.138   6.750
 8468POPC   C3B52413   6.385   5.164   7.050
 8468POPC   C4B52414   6.379   5.202   7.350
 8469POPC   NC352415  25.262  38.412   5.550
 8469POPC   PO452416  25.291  38.419   5.850
 8469POPC   GL152417  25.294  38.422   6.150
 8469POPC   GL252418  25.163  38.387   6.150
 8469POPC   C1A52419  25.229  38.466   6.450
 8469POPC   D2A52420  25.298  38.455   6.750
 8469POPC   C3A52421  25.288  38.501   7.050
 8469POPC   C4A52422  25.315  38.474   7.350
 8469POPC   C1B52423  25.099  38.298   6.450
 8469POPC   C2B52424  25.101  38.318   6.750
 8469POPC   C3B52425  25.022  38.296   7.050
 8469POPC   C4B52426  25.097  38.357   7.350
 8470POPC   NC352427   7.417   4.353   5.550
 8470POPC   PO452428   7.399   4.310   5.850
 8470POPC   GL152429   7.441   4.349   6.150
 8470POPC   GL252430   7.497   4.444   6.150
 8470POPC   C1A52431   7.401   4.315   6.450
 8470POPC   D2A52432   7.416   4.289   6.750
 8470POPC   C3A52433   7.394   4.282   7.050
 8470POPC   C4A52434   7.459   4.310   7.350
 8470POPC   C1B52435   7.646   4.466   6.450
 8470POPC   C2B52436   7.603   4.487   6.750
 8470POPC   C3B52437   7.567   4.478   7.050
 8470POPC   C4B52438   7.572   4.536   7.350
 8471POPC   NC352439   5.902  36.091   5.550
 8471POPC   PO452440   5.845  36.102   5.850
 8471POPC   GL152441   5.879  36.164   6.150
 8471POPC   GL252442   5.703  36.056   6.150
 8471POPC   C1A52443   5.879  36.102   6.450
 8471POPC   D2A52444   5.857  36.090   6.750
 8471POPC   C3A52445   5.901  36.137   7.050
 8471POPC   C4A52446   5.835  36.101   7.350
 8471POPC   C1B52447   5.592  36.055   6.450
 8471POPC   C2B52448   5.633  36.062   6.750
 8471POPC   C3B52449   5.622  36.071   7.050
 8471POPC   C4B52450   5.679  36.031   7.350
 8472POPC   NC352451   5.899  38.460   5.550
 8472POPC   PO452452   5.903  38.490   5.850
 8472POPC   GL152453   5.829  38.443   6.150
 8472POPC   GL252454   5.961  38.393   6.150
 8472POPC   C1A52455   5.913  38.490   6.450
 8472POPC   D2A52456   5.911  38.457   6.750
 8472POPC   C3A52457   5.857  38.464   7.050
 8472POPC   C4A52458   5.895  38.459   7.350
 8472POPC   C1B52459   6.082  38.297   6.450
 8472POPC   C2B52460   6.019  38.299   6.750
 8472POPC   C3B52461   6.047  38.332   7.050
 8472POPC   C4B52462   6.110  38.295   7.350
 8473POPC   NC352463  16.000  28.403   5.550
 8473POPC   PO452464  15.970  28.410   5.850
 8473POPC   GL152465  15.998  28.401   6.150
 8473POPC   GL252466  16.028  28.237   6.150
 8473POPC   C1A52467  15.918  28.339   6.450
 8473POPC   D2A52468  15.920  28.413   6.750
 8473POPC   C3A52469  15.948  28.400   7.050
 8473POPC   C4A52470  16.002  28.387   7.350
 8473POPC   C1B52471  15.981  28.124   6.450
 8473POPC   C2B52472  16.011  28.165   6.750
 8473POPC   C3B52473  16.028  28.153   7.050
 8473POPC   C4B52474  16.044  28.118   7.350
 8474POPC   NC352475  40.818  33.789   5.550
 8474POPC   PO452476  40.786  33.780   5.850
 8474POPC   GL152477  40.779  33.757   6.150
 8474POPC   GL252478  40.770  33.659   6.150
 8474POPC   C1A52479  40.823  33.818   6.450
 8474POPC   D2A52480  40.830  33.823   6.750
 8474POPC   C3A52481  40.768  33.754   7.050
 8474POPC   C4A52482  40.762  33.815   7.350
 8474POPC   C1B52483  40.709  33.572   6.450
 8474POPC   C2B52484  40.750  33.543   6.750
 8474POPC   C3B52485  40.763  33.550   7.050
 8474POPC   C4B52486  40.750  33.598   7.350
 8475POPC   NC352487  12.057  31.448   5.550
 8475POPC   PO452488  12.124  31.425   5.850
 8475POPC   GL152489  12.028  31.482   6.150
 8475POPC   GL252490  12.159  31.376   6.150
 8475POPC   C1A52491  12.101  31.516   6.450
 8475POPC   D2A52492  12.126  31.425   6.750
 8475POPC   C3A52493  12.104  31.440   7.050
 8475POPC   C4A52494  12.081  31.474   7.350
 8475POPC   C1B52495  12.335  31.349   6.450
 8475POPC   C2B52496  12.280  31.349   6.750
 8475POPC   C3B52497  12.325  31.318   7.050
 8475POPC   C4B52498  12.269  31.353   7.350
 8476POPC   NC352499  43.901  27.641   5.550
 8476POPC   PO452500  43.900  27.579   5.850
 8476POPC   GL152501  43.910  27.572   6.150
 8476POPC   GL252502  43.900  27.419   6.150
 8476POPC   C1A52503  43.845  27.581   6.450
 8476POPC   D2A52504  43.871  27.579   6.750
 8476POPC   C3A52505  43.910  27.608   7.050
 8476POPC   C4A52506  43.869  27.637   7.350
 8476POPC   C1B52507  43.921  27.365   6.450
 8476POPC   C2B52508  43.895  27.333   6.750
 8476POPC   C3B52509  43.930  27.344   7.050
 8476POPC   C4B52510  43.924  27.360   7.350
 8477POPC   NC352511   8.972   8.930   5.550
 8477POPC   PO452512   8.961   8.961   5.850
 8477POPC   GL152513   9.001   8.939   6.150
 8477POPC   GL252514   9.035   9.057   6.150
 8477POPC   C1A52515   8.942   8.938   6.450
 8477POPC   D2A52516   9.009   8.948   6.750
 8477POPC   C3A52517   8.982   8.926   7.050
 8477POPC   C4A52518   8.944   8.945   7.350
 8477POPC   C1B52519   9.052   9.210   6.450
 8477POPC   C2B52520   9.077   9.221   6.750
 8477POPC   C3B52521   9.063   9.224   7.050
 8477POPC   C4B52522   9.013   9.259   7.350
 8478POPC   NC352523  13.621   5.092   5.550
 8478POPC   PO452524  13.613   5.061   5.850
 8478POPC   GL152525  13.666   5.085   6.150
 8478POPC   GL252526  13.704   5.227   6.150
 8478POPC   C1A52527  13.614   5.051   6.450
 8478POPC   D2A52528  13.626   5.084   6.750
 8478POPC   C3A52529  13.662   5.076   7.050
 8478POPC   C4A52530  13.673   5.066   7.350
 8478POPC   C1B52531  13.773   5.278   6.450
 8478POPC   C2B52532  13.823   5.240   6.750
 8478POPC   C3B52533  13.818   5.240   7.050
 8478POPC   C4B52534  13.784   5.255   7.350
 8479POPC   NC352535  39.988   6.600   5.550
 8479POPC   PO452536  40.052   6.658   5.850
 8479POPC   GL152537  40.026   6.664   6.150
 8479POPC   GL252538  39.997   6.774   6.150
 8479POPC   C1A52539  40.030   6.637   6.450
 8479POPC   D2A52540  40.050   6.675   6.750
 8479POPC   C3A52541  39.961   6.675   7.050
 8479POPC   C4A52542  40.032   6.643   7.350
 8479POPC   C1B52543  40.134   6.844   6.450
 8479POPC   C2B52544  40.047   6.916   6.750
 8479POPC   C3B52545  40.057   6.914   7.050
 8479POPC   C4B52546  40.104   6.926   7.350
 8480POPC   NC352547  23.760  20.612   5.550
 8480POPC   PO452548  23.727  20.635   5.850
 8480POPC   GL152549  23.727  20.634   6.150
 8480POPC   GL252550  23.569  20.553   6.150
 8480POPC   C1A52551  23.716  20.618   6.450
 8480POPC   D2A52552  23.692  20.594   6.750
 8480POPC   C3A52553  23.746  20.621   7.050
 8480POPC   C4A52554  23.755  20.626   7.350
 8480POPC   C1B52555  23.510  20.548   6.450
 8480POPC   C2B52556  23.483  20.504   6.750
 8480POPC   C3B52557  23.535  20.518   7.050
 8480POPC   C4B52558  23.462  20.522   7.350
 8481POPC   NC352559  19.810  43.900   5.550
 8481POPC   PO452560  19.811  43.895   5.850
 8481POPC   GL152561  19.800  43.924   6.150
 8481POPC   GL252562  19.896  43.811   6.150
 8481POPC   C1A52563  19.814  43.864   6.450
 8481POPC   D2A52564  19.862  43.893   6.750
 8481POPC   C3A52565  19.852  43.915   7.050
 8481POPC   C4A52566  19.848  43.877   7.350
 8481POPC   C1B52567  20.027  43.739   6.450
 8481POPC   C2B52568  19.997  43.722   6.750
 8481POPC   C3B52569  19.998  43.717   7.050
 8481POPC   C4B52570  20.057  43.684   7.350
 8482POPC   NC352571  12.119  32.991   5.550
 8482POPC   PO452572  12.097  33.015   5.850
 8482POPC   GL152573  12.078  32.982   6.150
 8482POPC   GL252574  12.128  33.178   6.150
 8482POPC   C1A52575  12.059  33.052   6.450
 8482POPC   D2A52576  12.098  33.019   6.750
 8482POPC   C3A52577  12.086  33.058   7.050
 8482POPC   C4A52578  12.030  33.032   7.350
 8482POPC   C1B52579  12.136  33.288   6.450
 8482POPC   C2B52580  12.105  33.227   6.750
 8482POPC   C3B52581  12.149  33.278   7.050
 8482POPC   C4B52582  12.156  33.308   7.350
 8483POPC   NC352583   6.634  18.241   5.550
 8483POPC   PO452584   6.618  18.259   5.850
 8483POPC   GL152585   6.657  18.292   6.150
 8483POPC   GL252586   6.501  18.282   6.150
 8483POPC   C1A52587   6.679  18.322   6.450
 8483POPC   D2A52588   6.662  18.273   6.750
 8483POPC   C3A52589   6.669  18.272   7.050
 8483POPC   C4A52590   6.639  18.257   7.350
 8483POPC   C1B52591   6.372  18.164   6.450
 8483POPC   C2B52592   6.365  18.160   6.750
 8483POPC   C3B52593   6.361  18.158   7.050
 8483POPC   C4B52594   6.418  18.214   7.350
 8484POPC   NC352595   8.942  21.367   5.550
 8484POPC   PO452596   9.004  21.407   5.850
 8484POPC   GL152597   8.942  21.370   6.150
 8484POPC   GL252598   9.073  21.458   6.150
 8484POPC   C1A52599   8.947  21.368   6.450
 8484POPC   D2A52600   8.944  21.409   6.750
 8484POPC   C3A52601   8.931  21.338   7.050
 8484POPC   C4A52602   9.013  21.339   7.350
 8484POPC   C1B52603   9.105  21.617   6.450
 8484POPC   C2B52604   9.124  21.594   6.750
 8484POPC   C3B52605   9.127  21.548   7.050
 8484POPC   C4B52606   9.116  21.530   7.350
 8485POPC   NC352607   5.913  34.584   5.550
 8485POPC   PO452608   5.871  34.547   5.850
 8485POPC   GL152609   5.883  34.590   6.150
 8485POPC   GL252610   5.934  34.553   6.150
 8485POPC   C1A52611   5.844  34.611   6.450
 8485POPC   D2A52612   5.830  34.606   6.750
 8485POPC   C3A52613   5.826  34.621   7.050
 8485POPC   C4A52614   5.850  34.571   7.350
 8485POPC   C1B52615   6.056  34.497   6.450
 8485POPC   C2B52616   6.111  34.422   6.750
 8485POPC   C3B52617   6.048  34.453   7.050
 8485POPC   C4B52618   6.062  34.431   7.350
 8486POPC   NC352619  38.486   9.022   5.550
 8486POPC   PO452620  38.461   9.020   5.850
 8486POPC   GL152621  38.410   8.923   6.150
 8486POPC   GL252622  38.550   9.129   6.150
 8486POPC   C1A52623  38.478   8.998   6.450
 8486POPC   D2A52624  38.486   8.995   6.750
 8486POPC   C3A52625  38.464   8.984   7.050
 8486POPC   C4A52626  38.450   9.007   7.350
 8486POPC   C1B52627  38.620   9.224   6.450
 8486POPC   C2B52628  38.551   9.223   6.750
 8486POPC   C3B52629  38.602   9.214   7.050
 8486POPC   C4B52630  38.576   9.146   7.350
 8487POPC   NC352631  14.385  25.303   5.550
 8487POPC   PO452632  14.379  25.216   5.850
 8487POPC   GL152633  14.446  25.234   6.150
 8487POPC   GL252634  14.371  25.136   6.150
 8487POPC   C1A52635  14.424  25.287   6.450
 8487POPC   D2A52636  14.364  25.248   6.750
 8487POPC   C3A52637  14.354  25.299   7.050
 8487POPC   C4A52638  14.442  25.275   7.350
 8487POPC   C1B52639  14.350  25.070   6.450
 8487POPC   C2B52640  14.291  25.003   6.750
 8487POPC   C3B52641  14.352  25.037   7.050
 8487POPC   C4B52642  14.314  25.007   7.350
 8488POPC   NC352643  43.147  37.692   5.550
 8488POPC   PO452644  43.101  37.639   5.850
 8488POPC   GL152645  43.150  37.728   6.150
 8488POPC   GL252646  43.154  37.817   6.150
 8488POPC   C1A52647  43.078  37.671   6.450
 8488POPC   D2A52648  43.074  37.706   6.750
 8488POPC   C3A52649  43.123  37.666   7.050
 8488POPC   C4A52650  43.061  37.715   7.350
 8488POPC   C1B52651  43.295  37.842   6.450
 8488POPC   C2B52652  43.247  37.876   6.750
 8488POPC   C3B52653  43.271  37.918   7.050
 8488POPC   C4B52654  43.264  37.881   7.350
 8489POPC   NC352655  37.662  10.545   5.550
 8489POPC   PO452656  37.724  10.518   5.850
 8489POPC   GL152657  37.678  10.489   6.150
 8489POPC   GL252658  37.650  10.367   6.150
 8489POPC   C1A52659  37.681  10.484   6.450
 8489POPC   D2A52660  37.715  10.549   6.750
 8489POPC   C3A52661  37.715  10.507   7.050
 8489POPC   C4A52662  37.700  10.518   7.350
 8489POPC   C1B52663  37.709  10.281   6.450
 8489POPC   C2B52664  37.641  10.277   6.750
 8489POPC   C3B52665  37.674  10.239   7.050
 8489POPC   C4B52666  37.697  10.305   7.350
 8490POPC   NC352667   5.044  32.284   5.550
 8490POPC   PO452668   5.063  32.291   5.850
 8490POPC   GL152669   5.052  32.273   6.150
 8490POPC   GL252670   5.185  32.376   6.150
 8490POPC   C1A52671   5.046  32.223   6.450
 8490POPC   D2A52672   5.096  32.278   6.750
 8490POPC   C3A52673   5.054  32.239   7.050
 8490POPC   C4A52674   5.105  32.270   7.350
 8490POPC   C1B52675   5.156  32.523   6.450
 8490POPC   C2B52676   5.155  32.434   6.750
 8490POPC   C3B52677   5.163  32.510   7.050
 8490POPC   C4B52678   5.186  32.517   7.350
 8491POPC   NC352679  31.455  25.236   5.550
 8491POPC   PO452680  31.434  25.287   5.850
 8491POPC   GL152681  31.451  25.309   6.150
 8491POPC   GL252682  31.636  25.253   6.150
 8491POPC   C1A52683  31.494  25.300   6.450
 8491POPC   D2A52684  31.518  25.223   6.750
 8491POPC   C3A52685  31.447  25.227   7.050
 8491POPC   C4A52686  31.449  25.302   7.350
 8491POPC   C1B52687  31.724  25.329   6.450
 8491POPC   C2B52688  31.732  25.301   6.750
 8491POPC   C3B52689  31.688  25.270   7.050
 8491POPC   C4B52690  31.745  25.320   7.350
 8492POPC   NC352691  29.967   5.871   5.550
 8492POPC   PO452692  29.905   5.852   5.850
 8492POPC   GL152693  29.871   5.848   6.150
 8492POPC   GL252694  30.002   5.911   6.150
 8492POPC   C1A52695  29.942   5.907   6.450
 8492POPC   D2A52696  29.955   5.874   6.750
 8492POPC   C3A52697  29.931   5.885   7.050
 8492POPC   C4A52698  29.893   5.834   7.350
 8492POPC   C1B52699  30.162   5.931   6.450
 8492POPC   C2B52700  30.147   5.916   6.750
 8492POPC   C3B52701  30.176   5.963   7.050
 8492POPC   C4B52702  30.157   5.993   7.350
 8493POPC   NC352703  30.713  40.765   5.550
 8493POPC   PO452704  30.736  40.828   5.850
 8493POPC   GL152705  30.713  40.784   6.150
 8493POPC   GL252706  30.857  40.746   6.150
 8493POPC   C1A52707  30.712  40.776   6.450
 8493POPC   D2A52708  30.702  40.816   6.750
 8493POPC   C3A52709  30.673  40.813   7.050
 8493POPC   C4A52710  30.664  40.815   7.350
 8493POPC   C1B52711  30.986  40.722   6.450
 8493POPC   C2B52712  30.924  40.768   6.750
 8493POPC   C3B52713  30.966  40.740   7.050
 8493POPC   C4B52714  30.953  40.803   7.350
 8494POPC   NC352715  22.136  10.567   5.550
 8494POPC   PO452716  22.123  10.487   5.850
 8494POPC   GL152717  22.132  10.563   6.150
 8494POPC   GL252718  22.182  10.595   6.150
 8494POPC   C1A52719  22.171  10.564   6.450
 8494POPC   D2A52720  22.164  10.570   6.750
 8494POPC   C3A52721  22.146  10.560   7.050
 8494POPC   C4A52722  22.129  10.504   7.350
 8494POPC   C1B52723  22.216  10.779   6.450
 8494POPC   C2B52724  22.280  10.806   6.750
 8494POPC   C3B52725  22.249  10.745   7.050
 8494POPC   C4B52726  22.216  10.773   7.350
 8495POPC   NC352727  19.071  30.742   5.550
 8495POPC   PO452728  19.092  30.707   5.850
 8495POPC   GL152729  19.038  30.708   6.150
 8495POPC   GL252730  19.055  30.773   6.150
 8495POPC   C1A52731  19.077  30.685   6.450
 8495POPC   D2A52732  19.011  30.690   6.750
 8495POPC   C3A52733  19.029  30.652   7.050
 8495POPC   C4A52734  19.084  30.716   7.350
 8495POPC   C1B52735  19.015  30.956   6.450
 8495POPC   C2B52736  18.947  30.938   6.750
 8495POPC   C3B52737  18.973  30.987   7.050
 8495POPC   C4B52738  19.018  30.969   7.350
 8496POPC   NC352739  27.610  17.473   5.550
 8496POPC   PO452740  27.622  17.475   5.850
 8496POPC   GL152741  27.642  17.557   6.150
 8496POPC   GL252742  27.616  17.629   6.150
 8496POPC   C1A52743  27.560  17.475   6.450
 8496POPC   D2A52744  27.570  17.522   6.750
 8496POPC   C3A52745  27.636  17.498   7.050
 8496POPC   C4A52746  27.643  17.517   7.350
 8496POPC   C1B52747  27.657  17.781   6.450
 8496POPC   C2B52748  27.611  17.773   6.750
 8496POPC   C3B52749  27.610  17.728   7.050
 8496POPC   C4B52750  27.624  17.703   7.350
 8497POPC   NC352751  26.839   7.379   5.550
 8497POPC   PO452752  26.787   7.427   5.850
 8497POPC   GL152753  26.771   7.427   6.150
 8497POPC   GL252754  26.948   7.404   6.150
 8497POPC   C1A52755  26.864   7.371   6.450
 8497POPC   D2A52756  26.858   7.449   6.750
 8497POPC   C3A52757  26.845   7.462   7.050
 8497POPC   C4A52758  26.800   7.405   7.350
 8497POPC   C1B52759  27.072   7.344   6.450
 8497POPC   C2B52760  27.105   7.332   6.750
 8497POPC   C3B52761  27.087   7.343   7.050
 8497POPC   C4B52762  27.041   7.372   7.350
 8498POPC   NC352763  40.779  11.331   5.550
 8498POPC   PO452764  40.790  11.335   5.850
 8498POPC   GL152765  40.802  11.266   6.150
 8498POPC   GL252766  40.794  11.379   6.150
 8498POPC   C1A52767  40.769  11.304   6.450
 8498POPC   D2A52768  40.780  11.330   6.750
 8498POPC   C3A52769  40.789  11.252   7.050
 8498POPC   C4A52770  40.767  11.331   7.350
 8498POPC   C1B52771  40.854  11.491   6.450
 8498POPC   C2B52772  40.947  11.496   6.750
 8498POPC   C3B52773  40.929  11.559   7.050
 8498POPC   C4B52774  40.933  11.561   7.350
 8499POPC   NC352775  43.867  43.888   5.550
 8499POPC   PO452776  43.899  43.894   5.850
 8499POPC   GL152777  43.848  43.849   6.150
 8499POPC   GL252778  43.827  43.968   6.150
 8499POPC   C1A52779  43.918  43.886   6.450
 8499POPC   D2A52780  43.857  43.857   6.750
 8499POPC   C3A52781  43.889  43.846   7.050
 8499POPC   C4A52782  43.868  43.865   7.350
 8499POPC   C1B52783  43.747  44.104   6.450
 8499POPC   C2B52784  43.747  44.140   6.750
 8499POPC   C3B52785  43.837  44.136   7.050
 8499POPC   C4B52786  43.820  44.153   7.350
 8500POPC   NC352787  13.626   2.778   5.550
 8500POPC   PO452788  13.587   2.801   5.850
 8500POPC   GL152789  13.657   2.759   6.150
 8500POPC   GL252790  13.660   2.622   6.150
 8500POPC   C1A52791  13.674   2.749   6.450
 8500POPC   D2A52792  13.626   2.732   6.750
 8500POPC   C3A52793  13.647   2.727   7.050
 8500POPC   C4A52794  13.669   2.731   7.350
 8500POPC   C1B52795  13.683   2.551   6.450
 8500POPC   C2B52796  13.693   2.507   6.750
 8500POPC   C3B52797  13.675   2.544   7.050
 8500POPC   C4B52798  13.702   2.539   7.350
 8501POPC   NC352799  12.899  33.773   5.550
 8501POPC   PO452800  12.812  33.776   5.850
 8501POPC   GL152801  12.812  33.833   6.150
 8501POPC   GL252802  12.864  33.644   6.150
 8501POPC   C1A52803  12.858  33.801   6.450
 8501POPC   D2A52804  12.882  33.844   6.750
 8501POPC   C3A52805  12.847  33.840   7.050
 8501POPC   C4A52806  12.868  33.832   7.350
 8501POPC   C1B52807  12.843  33.537   6.450
 8501POPC   C2B52808  12.873  33.593   6.750
 8501POPC   C3B52809  12.834  33.501   7.050
 8501POPC   C4B52810  12.878  33.519   7.350
 8502POPC   NC352811  25.294  24.491   5.550
 8502POPC   PO452812  25.315  24.520   5.850
 8502POPC   GL152813  25.306  24.507   6.150
 8502POPC   GL252814  25.332  24.418   6.150
 8502POPC   C1A52815  25.276  24.535   6.450
 8502POPC   D2A52816  25.263  24.505   6.750
 8502POPC   C3A52817  25.282  24.493   7.050
 8502POPC   C4A52818  25.221  24.449   7.350
 8502POPC   C1B52819  25.358  24.246   6.450
 8502POPC   C2B52820  25.426  24.288   6.750
 8502POPC   C3B52821  25.392  24.259   7.050
 8502POPC   C4B52822  25.380  24.241   7.350
 8503POPC   NC352823   0.484  17.465   5.550
 8503POPC   PO452824   0.432  17.532   5.850
 8503POPC   GL152825   0.417  17.522   6.150
 8503POPC   GL252826   0.341  17.593   6.150
 8503POPC   C1A52827   0.485  17.542   6.450
 8503POPC   D2A52828   0.409  17.493   6.750
 8503POPC   C3A52829   0.444  17.500   7.050
 8503POPC   C4A52830   0.421  17.545   7.350
 8503POPC   C1B52831   0.217  17.623   6.450
 8503POPC   C2B52832   0.211  17.572   6.750
 8503POPC   C3B52833   0.217  17.635   7.050
 8503POPC   C4B52834   0.204  17.658   7.350
 8504POPC   NC352835  17.463  28.385   5.550
 8504POPC   PO452836  17.464  28.387   5.850
 8504POPC   GL152837  17.552  28.391   6.150
 8504POPC   GL252838  17.614  28.458   6.150
 8504POPC   C1A52839  17.476  28.326   6.450
 8504POPC   D2A52840  17.516  28.353   6.750
 8504POPC   C3A52841  17.551  28.324   7.050
 8504POPC   C4A52842  17.521  28.341   7.350
 8504POPC   C1B52843  17.744  28.495   6.450
 8504POPC   C2B52844  17.752  28.473   6.750
 8504POPC   C3B52845  17.711  28.464   7.050
 8504POPC   C4B52846  17.775  28.517   7.350
 8505POPC   NC352847   1.228  19.108   5.550
 8505POPC   PO452848   1.232  19.010   5.850
 8505POPC   GL152849   1.223  19.088   6.150
 8505POPC   GL252850   1.272  18.953   6.150
 8505POPC   C1A52851   1.235  19.058   6.450
 8505POPC   D2A52852   1.207  19.039   6.750
 8505POPC   C3A52853   1.255  19.037   7.050
 8505POPC   C4A52854   1.243  19.092   7.350
 8505POPC   C1B52855   1.382  18.938   6.450
 8505POPC   C2B52856   1.423  18.891   6.750
 8505POPC   C3B52857   1.390  18.874   7.050
 8505POPC   C4B52858   1.351  18.894   7.350
 8506POPC   NC352859  17.515  15.149   5.550
 8506POPC   PO452860  17.517  15.186   5.850
 8506POPC   GL152861  17.542  15.186   6.150
 8506POPC   GL252862  17.515  15.294   6.150
 8506POPC   C1A52863  17.461  15.185   6.450
 8506POPC   D2A52864  17.542  15.200   6.750
 8506POPC   C3A52865  17.468  15.218   7.050
 8506POPC   C4A52866  17.482  15.202   7.350
 8506POPC   C1B52867  17.638  15.374   6.450
 8506POPC   C2B52868  17.586  15.447   6.750
 8506POPC   C3B52869  17.584  15.381   7.050
 8506POPC   C4B52870  17.628  15.413   7.350
 8507POPC   NC352871  10.540   8.972   5.550
 8507POPC   PO452872  10.511   9.016   5.850
 8507POPC   GL152873  10.543   8.970   6.150
 8507POPC   GL252874  10.409   8.909   6.150
 8507POPC   C1A52875  10.570   8.976   6.450
 8507POPC   D2A52876  10.552   8.928   6.750
 8507POPC   C3A52877  10.561   8.928   7.050
 8507POPC   C4A52878  10.517   8.982   7.350
 8507POPC   C1B52879  10.252   8.858   6.450
 8507POPC   C2B52880  10.325   8.857   6.750
 8507POPC   C3B52881  10.258   8.876   7.050
 8507POPC   C4B52882  10.335   8.874   7.350
 8508POPC   NC352883  35.380   3.562   5.550
 8508POPC   PO452884  35.370   3.491   5.850
 8508POPC   GL152885  35.323   3.575   6.150
 8508POPC   GL252886  35.410   3.596   6.150
 8508POPC   C1A52887  35.340   3.500   6.450
 8508POPC   D2A52888  35.356   3.569   6.750
 8508POPC   C3A52889  35.400   3.497   7.050
 8508POPC   C4A52890  35.392   3.569   7.350
 8508POPC   C1B52891  35.585   3.714   6.450
 8508POPC   C2B52892  35.556   3.652   6.750
 8508POPC   C3B52893  35.543   3.712   7.050
 8508POPC   C4B52894  35.539   3.635   7.350
 8509POPC   NC352895  22.935  35.353   5.550
 8509POPC   PO452896  22.953  35.368   5.850
 8509POPC   GL152897  22.928  35.338   6.150
 8509POPC   GL252898  22.919  35.513   6.150
 8509POPC   C1A52899  22.967  35.387   6.450
 8509POPC   D2A52900  22.936  35.314   6.750
 8509POPC   C3A52901  22.923  35.390   7.050
 8509POPC   C4A52902  22.907  35.342   7.350
 8509POPC   C1B52903  22.824  35.616   6.450
 8509POPC   C2B52904  22.829  35.543   6.750
 8509POPC   C3B52905  22.903  35.563   7.050
 8509POPC   C4B52906  22.904  35.566   7.350
 8510POPC   NC352907  34.622   8.203   5.550
 8510POPC   PO452908  34.595   8.154   5.850
 8510POPC   GL152909  34.619   8.207   6.150
 8510POPC   GL252910  34.634   8.275   6.150
 8510POPC   C1A52911  34.547   8.169   6.450
 8510POPC   D2A52912  34.604   8.221   6.750
 8510POPC   C3A52913  34.605   8.230   7.050
 8510POPC   C4A52914  34.590   8.178   7.350
 8510POPC   C1B52915  34.594   8.458   6.450
 8510POPC   C2B52916  34.577   8.432   6.750
 8510POPC   C3B52917  34.604   8.487   7.050
 8510POPC   C4B52918  34.575   8.482   7.350
 8511POPC   NC352919   2.805  16.712   5.550
 8511POPC   PO452920   2.789  16.713   5.850
 8511POPC   GL152921   2.776  16.732   6.150
 8511POPC   GL252922   2.677  16.745   6.150
 8511POPC   C1A52923   2.742  16.774   6.450
 8511POPC   D2A52924   2.813  16.759   6.750
 8511POPC   C3A52925   2.779  16.778   7.050
 8511POPC   C4A52926   2.728  16.736   7.350
 8511POPC   C1B52927   2.565  16.847   6.450
 8511POPC   C2B52928   2.551  16.862   6.750
 8511POPC   C3B52929   2.559  16.846   7.050
 8511POPC   C4B52930   2.529  16.804   7.350
 8512POPC   NC352931  22.937  13.624   5.550
 8512POPC   PO452932  22.951  13.601   5.850
 8512POPC   GL152933  22.968  13.656   6.150
 8512POPC   GL252934  23.072  13.659   6.150
 8512POPC   C1A52935  22.939  13.635   6.450
 8512POPC   D2A52936  22.902  13.615   6.750
 8512POPC   C3A52937  22.903  13.584   7.050
 8512POPC   C4A52938  22.949  13.672   7.350
 8512POPC   C1B52939  23.117  13.749   6.450
 8512POPC   C2B52940  23.152  13.783   6.750
 8512POPC   C3B52941  23.163  13.773   7.050
 8512POPC   C4B52942  23.165  13.797   7.350
 8513POPC   NC352943   1.972  11.327   5.550
 8513POPC   PO452944   1.957  11.257   5.850
 8513POPC   GL152945   1.960  11.270   6.150
 8513POPC   GL252946   1.923  11.160   6.150
 8513POPC   C1A52947   2.021  11.276   6.450
 8513POPC   D2A52948   2.004  11.333   6.750
 8513POPC   C3A52949   1.960  11.321   7.050
 8513POPC   C4A52950   2.037  11.268   7.350
 8513POPC   C1B52951   1.976  11.070   6.450
 8513POPC   C2B52952   1.967  11.017   6.750
 8513POPC   C3B52953   1.909  11.035   7.050
 8513POPC   C4B52954   1.919  11.087   7.350
 8514POPC   NC352955  20.641  43.900   5.550
 8514POPC   PO452956  20.624  43.872   5.850
 8514POPC   GL152957  20.575  43.854   6.150
 8514POPC   GL252958  20.593  43.767   6.150
 8514POPC   C1A52959  20.574  43.847   6.450
 8514POPC   D2A52960  20.580  43.928   6.750
 8514POPC   C3A52961  20.603  43.911   7.050
 8514POPC   C4A52962  20.601  43.935   7.350
 8514POPC   C1B52963  20.460  43.625   6.450
 8514POPC   C2B52964  20.503  43.663   6.750
 8514POPC   C3B52965  20.543  43.645   7.050
 8514POPC   C4B52966  20.469  43.690   7.350
 8515POPC   NC352967  44.689  37.658   5.550
 8515POPC   PO452968  44.665  37.639   5.850
 8515POPC   GL152969  44.658  37.708   6.150
 8515POPC   GL252970  44.526  37.774   6.150
 8515POPC   C1A52971  44.642  37.660   6.450
 8515POPC   D2A52972  44.710  37.681   6.750
 8515POPC   C3A52973  44.655  37.677   7.050
 8515POPC   C4A52974  44.626  37.684   7.350
 8515POPC   C1B52975  44.459  37.809   6.450
 8515POPC   C2B52976  44.495  37.855   6.750
 8515POPC   C3B52977  44.465  37.846   7.050
 8515POPC   C4B52978  44.442  37.831   7.350
 8516POPC   NC352979  33.753  25.284   5.550
 8516POPC   PO452980  33.805  25.284   5.850
 8516POPC   GL152981  33.797  25.222   6.150
 8516POPC   GL252982  33.809  25.405   6.150
 8516POPC   C1A52983  33.799  25.283   6.450
 8516POPC   D2A52984  33.847  25.233   6.750
 8516POPC   C3A52985  33.824  25.307   7.050
 8516POPC   C4A52986  33.799  25.237   7.350
 8516POPC   C1B52987  33.681  25.507   6.450
 8516POPC   C2B52988  33.734  25.477   6.750
 8516POPC   C3B52989  33.741  25.498   7.050
 8516POPC   C4B52990  33.766  25.489   7.350
 8517POPC   NC352991  15.946  42.328   5.550
 8517POPC   PO452992  15.923  42.335   5.850
 8517POPC   GL152993  15.930  42.333   6.150
 8517POPC   GL252994  15.982  42.461   6.150
 8517POPC   C1A52995  15.941  42.356   6.450
 8517POPC   D2A52996  16.001  42.346   6.750
 8517POPC   C3A52997  15.977  42.366   7.050
 8517POPC   C4A52998  15.918  42.372   7.350
 8517POPC   C1B52999  15.968  42.546   6.450
 8517POPC   C2B53000  15.954  42.551   6.750
 8517POPC   C3B53001  15.885  42.593   7.050
 8517POPC   C4B53002  15.927  42.535   7.350
 8518POPC   NC353003   9.771  43.133   5.550
 8518POPC   PO453004   9.772  43.120   5.850
 8518POPC   GL153005   9.719  43.136   6.150
 8518POPC   GL253006   9.919  43.149   6.150
 8518POPC   C1A53007   9.781  43.061   6.450
 8518POPC   D2A53008   9.700  43.077   6.750
 8518POPC   C3A53009   9.775  43.109   7.050
 8518POPC   C4A53010   9.765  43.137   7.350
 8518POPC   C1B53011  10.034  43.194   6.450
 8518POPC   C2B53012   9.991  43.150   6.750
 8518POPC   C3B53013   9.943  43.119   7.050
 8518POPC   C4B53014   9.942  43.151   7.350
 8519POPC   NC353015  40.781  12.049   5.550
 8519POPC   PO453016  40.815  12.049   5.850
 8519POPC   GL153017  40.812  12.069   6.150
 8519POPC   GL253018  40.651  12.119   6.150
 8519POPC   C1A53019  40.826  12.112   6.450
 8519POPC   D2A53020  40.770  12.057   6.750
 8519POPC   C3A53021  40.816  12.045   7.050
 8519POPC   C4A53022  40.794  12.094   7.350
 8519POPC   C1B53023  40.571  12.219   6.450
 8519POPC   C2B53024  40.578  12.186   6.750
 8519POPC   C3B53025  40.539  12.149   7.050
 8519POPC   C4B53026  40.514  12.218   7.350
 8520POPC   NC353027  22.888  27.592   5.550
 8520POPC   PO453028  22.894  27.639   5.850
 8520POPC   GL153029  22.925  27.639   6.150
 8520POPC   GL253030  23.033  27.459   6.150
 8520POPC   C1A53031  22.970  27.633   6.450
 8520POPC   D2A53032  22.980  27.598   6.750
 8520POPC   C3A53033  22.956  27.628   7.050
 8520POPC   C4A53034  22.988  27.562   7.350
 8520POPC   C1B53035  23.073  27.449   6.450
 8520POPC   C2B53036  23.073  27.365   6.750
 8520POPC   C3B53037  23.138  27.443   7.050
 8520POPC   C4B53038  23.072  27.410   7.350
 8521POPC   NC353039   1.966  17.532   5.550
 8521POPC   PO453040   2.007  17.458   5.850
 8521POPC   GL153041   1.950  17.496   6.150
 8521POPC   GL253042   2.137  17.442   6.150
 8521POPC   C1A53043   2.014  17.506   6.450
 8521POPC   D2A53044   1.957  17.556   6.750
 8521POPC   C3A53045   1.972  17.491   7.050
 8521POPC   C4A53046   2.007  17.515   7.350
 8521POPC   C1B53047   2.238  17.388   6.450
 8521POPC   C2B53048   2.192  17.376   6.750
 8521POPC   C3B53049   2.182  17.416   7.050
 8521POPC   C4B53050   2.149  17.336   7.350
 8522POPC   NC353051   2.763  19.108   5.550
 8522POPC   PO453052   2.733  19.064   5.850
 8522POPC   GL153053   2.799  19.055   6.150
 8522POPC   GL253054   2.778  19.147   6.150
 8522POPC   C1A53055   2.727  19.096   6.450
 8522POPC   D2A53056   2.730  19.080   6.750
 8522POPC   C3A53057   2.790  19.046   7.050
 8522POPC   C4A53058   2.791  19.034   7.350
 8522POPC   C1B53059   2.725  19.327   6.450
 8522POPC   C2B53060   2.707  19.313   6.750
 8522POPC   C3B53061   2.783  19.279   7.050
 8522POPC   C4B53062   2.725  19.352   7.350
 8523POPC   NC353063  40.056  22.905   5.550
 8523POPC   PO453064  39.999  22.947   5.850
 8523POPC   GL153065  40.004  22.915   6.150
 8523POPC   GL253066  40.068  23.064   6.150
 8523POPC   C1A53067  40.008  22.914   6.450
 8523POPC   D2A53068  40.040  22.971   6.750
 8523POPC   C3A53069  40.023  22.922   7.050
 8523POPC   C4A53070  40.007  22.894   7.350
 8523POPC   C1B53071  40.199  23.128   6.450
 8523POPC   C2B53072  40.162  23.168   6.750
 8523POPC   C3B53073  40.146  23.118   7.050
 8523POPC   C4B53074  40.173  23.073   7.350
 8524POPC   NC353075   9.699  40.763   5.550
 8524POPC   PO453076   9.785  40.768   5.850
 8524POPC   GL153077   9.767  40.805   6.150
 8524POPC   GL253078   9.643  40.831   6.150
 8524POPC   C1A53079   9.787  40.776   6.450
 8524POPC   D2A53080   9.757  40.761   6.750
 8524POPC   C3A53081   9.705  40.756   7.050
 8524POPC   C4A53082   9.733  40.766   7.350
 8524POPC   C1B53083   9.499  40.862   6.450
 8524POPC   C2B53084   9.466  40.868   6.750
 8524POPC   C3B53085   9.498  40.848   7.050
 8524POPC   C4B53086   9.491  40.850   7.350
 8525POPC   NC353087  41.599  27.607   5.550
 8525POPC   PO453088  41.557  27.617   5.850
 8525POPC   GL153089  41.521  27.589   6.150
 8525POPC   GL253090  41.577  27.489   6.150
 8525POPC   C1A53091  41.572  27.546   6.450
 8525POPC   D2A53092  41.530  27.619   6.750
 8525POPC   C3A53093  41.582  27.558   7.050
 8525POPC   C4A53094  41.551  27.551   7.350
 8525POPC   C1B53095  41.610  27.318   6.450
 8525POPC   C2B53096  41.579  27.349   6.750
 8525POPC   C3B53097  41.618  27.330   7.050
 8525POPC   C4B53098  41.531  27.303   7.350
 8526POPC   NC353099   6.688   1.231   5.550
 8526POPC   PO453100   6.654   1.210   5.850
 8526POPC   GL153101   6.601   1.219   6.150
 8526POPC   GL253102   6.543   1.310   6.150
 8526POPC   C1A53103   6.596   1.168   6.450
 8526POPC   D2A53104   6.645   1.175   6.750
 8526POPC   C3A53105   6.662   1.252   7.050
 8526POPC   C4A53106   6.631   1.202   7.350
 8526POPC   C1B53107   6.561   1.474   6.450
 8526POPC   C2B53108   6.479   1.419   6.750
 8526POPC   C3B53109   6.540   1.432   7.050
 8526POPC   C4B53110   6.529   1.467   7.350
 8527POPC   NC353111   2.728  26.023   5.550
 8527POPC   PO453112   2.789  25.992   5.850
 8527POPC   GL153113   2.771  25.999   6.150
 8527POPC   GL253114   2.704  25.917   6.150
 8527POPC   C1A53115   2.735  26.051   6.450
 8527POPC   D2A53116   2.748  25.999   6.750
 8527POPC   C3A53117   2.737  26.046   7.050
 8527POPC   C4A53118   2.784  26.056   7.350
 8527POPC   C1B53119   2.721  25.831   6.450
 8527POPC   C2B53120   2.692  25.792   6.750
 8527POPC   C3B53121   2.705  25.845   7.050
 8527POPC   C4B53122   2.654  25.805   7.350
 8528POPC   NC353123  12.054   7.458   5.550
 8528POPC   PO453124  12.107   7.463   5.850
 8528POPC   GL153125  12.104   7.447   6.150
 8528POPC   GL253126  12.060   7.508   6.150
 8528POPC   C1A53127  12.074   7.401   6.450
 8528POPC   D2A53128  12.029   7.460   6.750
 8528POPC   C3A53129  12.118   7.375   7.050
 8528POPC   C4A53130  12.123   7.404   7.350
 8528POPC   C1B53131  12.007   7.623   6.450
 8528POPC   C2B53132  12.000   7.685   6.750
 8528POPC   C3B53133  11.998   7.640   7.050
 8528POPC   C4B53134  12.063   7.709   7.350
 8529POPC   NC353135  21.385  23.705   5.550
 8529POPC   PO453136  21.412  23.749   5.850
 8529POPC   GL153137  21.355  23.688   6.150
 8529POPC   GL253138  21.346  23.826   6.150
 8529POPC   C1A53139  21.425  23.719   6.450
 8529POPC   D2A53140  21.406  23.667   6.750
 8529POPC   C3A53141  21.426  23.755   7.050
 8529POPC   C4A53142  21.394  23.690   7.350
 8529POPC   C1B53143  21.361  23.980   6.450
 8529POPC   C2B53144  21.395  23.942   6.750
 8529POPC   C3B53145  21.317  23.921   7.050
 8529POPC   C4B53146  21.355  23.948   7.350
 8530POPC   NC353147  44.667   9.014   5.550
 8530POPC   PO453148  44.666   8.994   5.850
 8530POPC   GL153149  44.701   8.930   6.150
 8530POPC   GL253150  44.557   9.053   6.150
 8530POPC   C1A53151  44.651   8.947   6.450
 8530POPC   D2A53152  44.686   9.008   6.750
 8530POPC   C3A53153  44.624   9.017   7.050
 8530POPC   C4A53154  44.662   8.932   7.350
 8530POPC   C1B53155  44.414   9.029   6.450
 8530POPC   C2B53156  44.420   9.090   6.750
 8530POPC   C3B53157  44.467   9.031   7.050
 8530POPC   C4B53158  44.401   9.055   7.350
 8531POPC   NC353159   7.381   5.843   5.550
 8531POPC   PO453160   7.467   5.892   5.850
 8531POPC   GL153161   7.386   5.856   6.150
 8531POPC   GL253162   7.371   5.994   6.150
 8531POPC   C1A53163   7.391   5.841   6.450
 8531POPC   D2A53164   7.441   5.912   6.750
 8531POPC   C3A53165   7.389   5.885   7.050
 8531POPC   C4A53166   7.411   5.823   7.350
 8531POPC   C1B53167   7.332   6.054   6.450
 8531POPC   C2B53168   7.301   6.103   6.750
 8531POPC   C3B53169   7.290   6.087   7.050
 8531POPC   C4B53170   7.324   6.066   7.350
 8532POPC   NC353171   0.451  12.887   5.550
 8532POPC   PO453172   0.476  12.806   5.850
 8532POPC   GL153173   0.422  12.829   6.150
 8532POPC   GL253174   0.378  12.791   6.150
 8532POPC   C1A53175   0.446  12.848   6.450
 8532POPC   D2A53176   0.409  12.882   6.750
 8532POPC   C3A53177   0.459  12.846   7.050
 8532POPC   C4A53178   0.451  12.873   7.350
 8532POPC   C1B53179   0.267  12.668   6.450
 8532POPC   C2B53180   0.280  12.618   6.750
 8532POPC   C3B53181   0.301  12.621   7.050
 8532POPC   C4B53182   0.274  12.609   7.350
 8533POPC   NC353183  22.177  12.063   5.550
 8533POPC   PO453184  22.190  12.074   5.850
 8533POPC   GL153185  22.138  12.046   6.150
 8533POPC   GL253186  22.200  11.966   6.150
 8533POPC   C1A53187  22.140  12.030   6.450
 8533POPC   D2A53188  22.196  12.122   6.750
 8533POPC   C3A53189  22.123  12.080   7.050
 8533POPC   C4A53190  22.139  12.112   7.350
 8533POPC   C1B53191  22.273  11.870   6.450
 8533POPC   C2B53192  22.271  11.792   6.750
 8533POPC   C3B53193  22.282  11.886   7.050
 8533POPC   C4B53194  22.211  11.801   7.350
 8534POPC   NC353195  36.914  30.686   5.550
 8534POPC   PO453196  36.946  30.684   5.850
 8534POPC   GL153197  36.859  30.678   6.150
 8534POPC   GL253198  36.981  30.833   6.150
 8534POPC   C1A53199  36.878  30.740   6.450
 8534POPC   D2A53200  36.909  30.722   6.750
 8534POPC   C3A53201  36.929  30.714   7.050
 8534POPC   C4A53202  36.926  30.707   7.350
 8534POPC   C1B53203  36.948  30.975   6.450
 8534POPC   C2B53204  36.963  30.984   6.750
 8534POPC   C3B53205  37.010  30.973   7.050
 8534POPC   C4B53206  36.981  30.919   7.350
 8535POPC   NC353207  36.868  36.875   5.550
 8535POPC   PO453208  36.888  36.862   5.850
 8535POPC   GL153209  36.859  36.904   6.150
 8535POPC   GL253210  36.762  36.957   6.150
 8535POPC   C1A53211  36.937  36.884   6.450
 8535POPC   D2A53212  36.866  36.858   6.750
 8535POPC   C3A53213  36.868  36.877   7.050
 8535POPC   C4A53214  36.938  36.931   7.350
 8535POPC   C1B53215  36.714  37.039   6.450
 8535POPC   C2B53216  36.731  37.025   6.750
 8535POPC   C3B53217  36.690  37.042   7.050
 8535POPC   C4B53218  36.761  37.113   7.350
 8536POPC   NC353219  15.131  27.633   5.550
 8536POPC   PO453220  15.136  27.643   5.850
 8536POPC   GL153221  15.144  27.573   6.150
 8536POPC   GL253222  15.174  27.750   6.150
 8536POPC   C1A53223  15.180  27.548   6.450
 8536POPC   D2A53224  15.229  27.632   6.750
 8536POPC   C3A53225  15.229  27.590   7.050
 8536POPC   C4A53226  15.144  27.572   7.350
 8536POPC   C1B53227  15.207  27.879   6.450
 8536POPC   C2B53228  15.128  27.882   6.750
 8536POPC   C3B53229  15.175  27.871   7.050
 8536POPC   C4B53230  15.207  27.861   7.350
 8537POPC   NC353231   0.435  25.244   5.550
 8537POPC   PO453232   0.435  25.305   5.850
 8537POPC   GL153233   0.436  25.275   6.150
 8537POPC   GL253234   0.286  25.265   6.150
 8537POPC   C1A53235   0.438  25.220   6.450
 8537POPC   D2A53236   0.470  25.243   6.750
 8537POPC   C3A53237   0.488  25.282   7.050
 8537POPC   C4A53238   0.488  25.293   7.350
 8537POPC   C1B53239   0.145  25.315   6.450
 8537POPC   C2B53240   0.218  25.275   6.750
 8537POPC   C3B53241   0.236  25.248   7.050
 8537POPC   C4B53242   0.166  25.287   7.350
 8538POPC   NC353243  38.434  34.623   5.550
 8538POPC   PO453244  38.454  34.585   5.850
 8538POPC   GL153245  38.462  34.560   6.150
 8538POPC   GL253246  38.571  34.729   6.150
 8538POPC   C1A53247  38.406  34.590   6.450
 8538POPC   D2A53248  38.429  34.540   6.750
 8538POPC   C3A53249  38.410  34.554   7.050
 8538POPC   C4A53250  38.458  34.538   7.350
 8538POPC   C1B53251  38.609  34.756   6.450
 8538POPC   C2B53252  38.630  34.814   6.750
 8538POPC   C3B53253  38.561  34.797   7.050
 8538POPC   C4B53254  38.606  34.756   7.350
 8539POPC   NC353255  38.429  35.333   5.550
 8539POPC   PO453256  38.442  35.360   5.850
 8539POPC   GL153257  38.487  35.331   6.150
 8539POPC   GL253258  38.388  35.471   6.150
 8539POPC   C1A53259  38.439  35.306   6.450
 8539POPC   D2A53260  38.494  35.303   6.750
 8539POPC   C3A53261  38.478  35.308   7.050
 8539POPC   C4A53262  38.429  35.332   7.350
 8539POPC   C1B53263  38.356  35.543   6.450
 8539POPC   C2B53264  38.367  35.580   6.750
 8539POPC   C3B53265  38.350  35.637   7.050
 8539POPC   C4B53266  38.394  35.579   7.350
 8540POPC   NC353267  30.744  33.037   5.550
 8540POPC   PO453268  30.694  32.980   5.850
 8540POPC   GL153269  30.729  33.071   6.150
 8540POPC   GL253270  30.596  33.070   6.150
 8540POPC   C1A53271  30.744  32.985   6.450
 8540POPC   D2A53272  30.668  32.983   6.750
 8540POPC   C3A53273  30.701  32.974   7.050
 8540POPC   C4A53274  30.746  33.013   7.350
 8540POPC   C1B53275  30.425  33.056   6.450
 8540POPC   C2B53276  30.493  33.087   6.750
 8540POPC   C3B53277  30.425  33.041   7.050
 8540POPC   C4B53278  30.451  33.115   7.350
 8541POPC   NC353279  36.940   6.628   5.550
 8541POPC   PO453280  36.895   6.604   5.850
 8541POPC   GL153281  36.898   6.615   6.150
 8541POPC   GL253282  37.061   6.628   6.150
 8541POPC   C1A53283  36.946   6.646   6.450
 8541POPC   D2A53284  36.946   6.635   6.750
 8541POPC   C3A53285  36.895   6.650   7.050
 8541POPC   C4A53286  36.858   6.640   7.350
 8541POPC   C1B53287  37.176   6.544   6.450
 8541POPC   C2B53288  37.160   6.521   6.750
 8541POPC   C3B53289  37.085   6.553   7.050
 8541POPC   C4B53290  37.173   6.487   7.350
 8542POPC   NC353291  14.376  16.727   5.550
 8542POPC   PO453292  14.358  16.685   5.850
 8542POPC   GL153293  14.405  16.767   6.150
 8542POPC   GL253294  14.264  16.751   6.150
 8542POPC   C1A53295  14.391  16.780   6.450
 8542POPC   D2A53296  14.395  16.694   6.750
 8542POPC   C3A53297  14.402  16.775   7.050
 8542POPC   C4A53298  14.377  16.694   7.350
 8542POPC   C1B53299  14.211  16.816   6.450
 8542POPC   C2B53300  14.194  16.839   6.750
 8542POPC   C3B53301  14.204  16.777   7.050
 8542POPC   C4B53302  14.167  16.864   7.350
 8543POPC   NC353303  32.254  43.886   5.550
 8543POPC   PO453304  32.224  43.861   5.850
 8543POPC   GL153305  32.235  43.877   6.150
 8543POPC   GL253306  32.391  43.937   6.150
 8543POPC   C1A53307  32.285  43.919   6.450
 8543POPC   D2A53308  32.268  43.903   6.750
 8543POPC   C3A53309  32.219  43.891   7.050
 8543POPC   C4A53310  32.205  43.862   7.350
 8543POPC   C1B53311  32.404  44.011   6.450
 8543POPC   C2B53312  32.448  43.987   6.750
 8543POPC   C3B53313  32.437  44.070   7.050
 8543POPC   C4B53314  32.456  44.002   7.350
 8544POPC   NC353315  14.406  43.077   5.550
 8544POPC   PO453316  14.408  43.132   5.850
 8544POPC   GL153317  14.405  43.143   6.150
 8544POPC   GL253318  14.242  43.076   6.150
 8544POPC   C1A53319  14.354  43.068   6.450
 8544POPC   D2A53320  14.365  43.086   6.750
 8544POPC   C3A53321  14.382  43.151   7.050
 8544POPC   C4A53322  14.399  43.131   7.350
 8544POPC   C1B53323  14.164  43.042   6.450
 8544POPC   C2B53324  14.151  43.106   6.750
 8544POPC   C3B53325  14.143  43.036   7.050
 8544POPC   C4B53326  14.114  43.082   7.350
 8545POPC   NC353327   5.866  35.395   5.550
 8545POPC   PO453328   5.915  35.315   5.850
 8545POPC   GL153329   5.855  35.347   6.150
 8545POPC   GL253330   5.925  35.243   6.150
 8545POPC   C1A53331   5.905  35.352   6.450
 8545POPC   D2A53332   5.866  35.358   6.750
 8545POPC   C3A53333   5.841  35.308   7.050
 8545POPC   C4A53334   5.843  35.347   7.350
 8545POPC   C1B53335   5.926  35.132   6.450
 8545POPC   C2B53336   5.890  35.059   6.750
 8545POPC   C3B53337   5.905  35.063   7.050
 8545POPC   C4B53338   5.915  35.140   7.350
 8546POPC   NC353339  10.540  36.889   5.550
 8546POPC   PO453340  10.522  36.889   5.850
 8546POPC   GL153341  10.545  36.877   6.150
 8546POPC   GL253342  10.496  36.814   6.150
 8546POPC   C1A53343  10.522  36.916   6.450
 8546POPC   D2A53344  10.570  36.902   6.750
 8546POPC   C3A53345  10.574  36.859   7.050
 8546POPC   C4A53346  10.531  36.923   7.350
 8546POPC   C1B53347  10.416  36.655   6.450
 8546POPC   C2B53348  10.377  36.726   6.750
 8546POPC   C3B53349  10.357  36.648   7.050
 8546POPC   C4B53350  10.355  36.712   7.350
 8547POPC   NC353351   1.196   9.741   5.550
 8547POPC   PO453352   1.252   9.722   5.850
 8547POPC   GL153353   1.239   9.727   6.150
 8547POPC   GL253354   1.383   9.749   6.150
 8547POPC   C1A53355   1.218   9.757   6.450
 8547POPC   D2A53356   1.172   9.745   6.750
 8547POPC   C3A53357   1.201   9.774   7.050
 8547POPC   C4A53358   1.187   9.752   7.350
 8547POPC   C1B53359   1.485   9.799   6.450
 8547POPC   C2B53360   1.455   9.742   6.750
 8547POPC   C3B53361   1.436   9.776   7.050
 8547POPC   C4B53362   1.450   9.753   7.350
 8548POPC   NC353363  12.870  42.296   5.550
 8548POPC   PO453364  12.822  42.378   5.850
 8548POPC   GL153365  12.833  42.294   6.150
 8548POPC   GL253366  12.775  42.390   6.150
 8548POPC   C1A53367  12.834  42.356   6.450
 8548POPC   D2A53368  12.813  42.299   6.750
 8548POPC   C3A53369  12.803  42.380   7.050
 8548POPC   C4A53370  12.805  42.381   7.350
 8548POPC   C1B53371  12.654  42.513   6.450
 8548POPC   C2B53372  12.678  42.446   6.750
 8548POPC   C3B53373  12.631  42.437   7.050
 8548POPC   C4B53374  12.684  42.496   7.350
 8549POPC   NC353375   7.404  22.982   5.550
 8549POPC   PO453376   7.447  22.924   5.850
 8549POPC   GL153377   7.467  22.973   6.150
 8549POPC   GL253378   7.553  22.926   6.150
 8549POPC   C1A53379   7.379  22.913   6.450
 8549POPC   D2A53380   7.384  22.958   6.750
 8549POPC   C3A53381   7.402  22.923   7.050
 8549POPC   C4A53382   7.401  22.969   7.350
 8549POPC   C1B53383   7.674  22.855   6.450
 8549POPC   C2B53384   7.643  22.840   6.750
 8549POPC   C3B53385   7.673  22.789   7.050
 8549POPC   C4B53386   7.649  22.871   7.350
 8550POPC   NC353387  33.796  22.124   5.550
 8550POPC   PO453388  33.806  22.141   5.850
 8550POPC   GL153389  33.846  22.204   6.150
 8550POPC   GL253390  33.670  22.142   6.150
 8550POPC   C1A53391  33.823  22.180   6.450
 8550POPC   D2A53392  33.812  22.165   6.750
 8550POPC   C3A53393  33.812  22.143   7.050
 8550POPC   C4A53394  33.815  22.174   7.350
 8550POPC   C1B53395  33.541  22.214   6.450
 8550POPC   C2B53396  33.511  22.222   6.750
 8550POPC   C3B53397  33.505  22.244   7.050
 8550POPC   C4B53398  33.557  22.214   7.350
 8551POPC   NC353399  28.348  22.188   5.550
 8551POPC   PO453400  28.348  22.150   5.850
 8551POPC   GL153401  28.346  22.208   6.150
 8551POPC   GL253402  28.357  22.260   6.150
 8551POPC   C1A53403  28.322  22.202   6.450
 8551POPC   D2A53404  28.344  22.150   6.750
 8551POPC   C3A53405  28.406  22.197   7.050
 8551POPC   C4A53406  28.401  22.162   7.350
 8551POPC   C1B53407  28.249  22.394   6.450
 8551POPC   C2B53408  28.310  22.343   6.750
 8551POPC   C3B53409  28.298  22.390   7.050
 8551POPC   C4B53410  28.262  22.434   7.350
 8552POPC   NC353411  22.918  32.976   5.550
 8552POPC   PO453412  22.893  33.052   5.850
 8552POPC   GL153413  22.967  33.043   6.150
 8552POPC   GL253414  22.803  32.950   6.150
 8552POPC   C1A53415  22.952  33.038   6.450
 8552POPC   D2A53416  22.889  32.991   6.750
 8552POPC   C3A53417  22.925  33.058   7.050
 8552POPC   C4A53418  22.928  33.052   7.350
 8552POPC   C1B53419  22.706  32.961   6.450
 8552POPC   C2B53420  22.666  32.948   6.750
 8552POPC   C3B53421  22.703  32.899   7.050
 8552POPC   C4B53422  22.685  32.957   7.350
 8553POPC   NC353423  43.111   8.925   5.550
 8553POPC   PO453424  43.154   9.019   5.850
 8553POPC   GL153425  43.137   8.955   6.150
 8553POPC   GL253426  43.003   8.999   6.150
 8553POPC   C1A53427  43.069   8.979   6.450
 8553POPC   D2A53428  43.102   8.927   6.750
 8553POPC   C3A53429  43.070   8.979   7.050
 8553POPC   C4A53430  43.154   8.981   7.350
 8553POPC   C1B53431  42.887   9.069   6.450
 8553POPC   C2B53432  42.925   9.089   6.750
 8553POPC   C3B53433  42.895   9.089   7.050
 8553POPC   C4B53434  42.937   9.069   7.350
 8554POPC   NC353435  12.876   1.944   5.550
 8554POPC   PO453436  12.817   1.974   5.850
 8554POPC   GL153437  12.869   1.983   6.150
 8554POPC   GL253438  12.748   1.992   6.150
 8554POPC   C1A53439  12.810   1.994   6.450
 8554POPC   D2A53440  12.852   1.999   6.750
 8554POPC   C3A53441  12.885   1.952   7.050
 8554POPC   C4A53442  12.846   1.992   7.350
 8554POPC   C1B53443  12.624   2.062   6.450
 8554POPC   C2B53444  12.600   2.036   6.750
 8554POPC   C3B53445  12.590   2.052   7.050
 8554POPC   C4B53446  12.613   2.098   7.350
 8555POPC   NC353447   1.955  13.604   5.550
 8555POPC   PO453448   2.031  13.631   5.850
 8555POPC   GL153449   1.960  13.617   6.150
 8555POPC   GL253450   1.936  13.692   6.150
 8555POPC   C1A53451   1.973  13.664   6.450
 8555POPC   D2A53452   1.940  13.609   6.750
 8555POPC   C3A53453   2.038  13.642   7.050
 8555POPC   C4A53454   2.022  13.608   7.350
 8555POPC   C1B53455   1.778  13.783   6.450
 8555POPC   C2B53456   1.759  13.833   6.750
 8555POPC   C3B53457   1.775  13.806   7.050
 8555POPC   C4B53458   1.782  13.812   7.350
 8556POPC   NC353459  22.934  41.586   5.550
 8556POPC   PO453460  22.980  41.533   5.850
 8556POPC   GL153461  22.959  41.588   6.150
 8556POPC   GL253462  22.990  41.474   6.150
 8556POPC   C1A53463  22.949  41.521   6.450
 8556POPC   D2A53464  22.907  41.513   6.750
 8556POPC   C3A53465  22.938  41.536   7.050
 8556POPC   C4A53466  22.895  41.574   7.350
 8556POPC   C1B53467  23.038  41.340   6.450
 8556POPC   C2B53468  23.029  41.299   6.750
 8556POPC   C3B53469  22.991  41.283   7.050
 8556POPC   C4B53470  22.995  41.278   7.350
 8557POPC   NC353471  39.992  35.381   5.550
 8557POPC   PO453472  40.038  35.384   5.850
 8557POPC   GL153473  39.957  35.338   6.150
 8557POPC   GL253474  39.911  35.424   6.150
 8557POPC   C1A53475  40.021  35.345   6.450
 8557POPC   D2A53476  40.003  35.347   6.750
 8557POPC   C3A53477  40.005  35.338   7.050
 8557POPC   C4A53478  40.009  35.384   7.350
 8557POPC   C1B53479  39.862  35.562   6.450
 8557POPC   C2B53480  39.893  35.598   6.750
 8557POPC   C3B53481  39.915  35.612   7.050
 8557POPC   C4B53482  39.856  35.550   7.350
 8558POPC   NC353483  26.841  30.671   5.550
 8558POPC   PO453484  26.862  30.701   5.850
 8558POPC   GL153485  26.805  30.744   6.150
 8558POPC   GL253486  26.868  30.553   6.150
 8558POPC   C1A53487  26.791  30.712   6.450
 8558POPC   D2A53488  26.858  30.720   6.750
 8558POPC   C3A53489  26.826  30.650   7.050
 8558POPC   C4A53490  26.862  30.661   7.350
 8558POPC   C1B53491  26.814  30.483   6.450
 8558POPC   C2B53492  26.872  30.472   6.750
 8558POPC   C3B53493  26.871  30.415   7.050
 8558POPC   C4B53494  26.880  30.400   7.350
 8559POPC   NC353495  31.457  34.590   5.550
 8559POPC   PO453496  31.453  34.590   5.850
 8559POPC   GL153497  31.476  34.620   6.150
 8559POPC   GL253498  31.510  34.648   6.150
 8559POPC   C1A53499  31.459  34.557   6.450
 8559POPC   D2A53500  31.456  34.584   6.750
 8559POPC   C3A53501  31.434  34.542   7.050
 8559POPC   C4A53502  31.472  34.610   7.350
 8559POPC   C1B53503  31.538  34.774   6.450
 8559POPC   C2B53504  31.571  34.820   6.750
 8559POPC   C3B53505  31.603  34.794   7.050
 8559POPC   C4B53506  31.594  34.776   7.350
 8560POPC   NC353507  43.149  43.104   5.550
 8560POPC   PO453508  43.126  43.102   5.850
 8560POPC   GL153509  43.134  43.100   6.150
 8560POPC   GL253510  43.185  43.226   6.150
 8560POPC   C1A53511  43.123  43.136   6.450
 8560POPC   D2A53512  43.073  43.159   6.750
 8560POPC   C3A53513  43.103  43.144   7.050
 8560POPC   C4A53514  43.080  43.078   7.350
 8560POPC   C1B53515  43.287  43.306   6.450
 8560POPC   C2B53516  43.256  43.294   6.750
 8560POPC   C3B53517  43.273  43.338   7.050
 8560POPC   C4B53518  43.308  43.342   7.350
 8561POPC   NC353519   6.657  14.433   5.550
 8561POPC   PO453520   6.694  14.407   5.850
 8561POPC   GL153521   6.625  14.452   6.150
 8561POPC   GL253522   6.644  14.291   6.150
 8561POPC   C1A53523   6.605  14.395   6.450
 8561POPC   D2A53524   6.634  14.395   6.750
 8561POPC   C3A53525   6.637  14.422   7.050
 8561POPC   C4A53526   6.645  14.434   7.350
 8561POPC   C1B53527   6.725  14.169   6.450
 8561POPC   C2B53528   6.746  14.194   6.750
 8561POPC   C3B53529   6.746  14.140   7.050
 8561POPC   C4B53530   6.749  14.150   7.350
 8562POPC   NC353531  10.562  20.631   5.550
 8562POPC   PO453532  10.527  20.564   5.850
 8562POPC   GL153533  10.504  20.653   6.150
 8562POPC   GL253534  10.442  20.504   6.150
 8562POPC   C1A53535  10.547  20.576   6.450
 8562POPC   D2A53536  10.489  20.617   6.750
 8562POPC   C3A53537  10.509  20.658   7.050
 8562POPC   C4A53538  10.505  20.642   7.350
 8562POPC   C1B53539  10.305  20.390   6.450
 8562POPC   C2B53540  10.368  20.471   6.750
 8562POPC   C3B53541  10.325  20.477   7.050
 8562POPC   C4B53542  10.343  20.444   7.350
 8563POPC   NC353543  25.257   3.582   5.550
 8563POPC   PO453544  25.217   3.495   5.850
 8563POPC   GL153545  25.271   3.492   6.150
 8563POPC   GL253546  25.173   3.431   6.150
 8563POPC   C1A53547  25.244   3.509   6.450
 8563POPC   D2A53548  25.222   3.493   6.750
 8563POPC   C3A53549  25.236   3.551   7.050
 8563POPC   C4A53550  25.250   3.551   7.350
 8563POPC   C1B53551  25.116   3.346   6.450
 8563POPC   C2B53552  25.067   3.340   6.750
 8563POPC   C3B53553  25.125   3.331   7.050
 8563POPC   C4B53554  25.130   3.387   7.350
 8564POPC   NC353555   5.860  33.809   5.550
 8564POPC   PO453556   5.908  33.825   5.850
 8564POPC   GL153557   5.853  33.848   6.150
 8564POPC   GL253558   5.863  33.723   6.150
 8564POPC   C1A53559   5.861  33.769   6.450
 8564POPC   D2A53560   5.864  33.790   6.750
 8564POPC   C3A53561   5.835  33.776   7.050
 8564POPC   C4A53562   5.908  33.753   7.350
 8564POPC   C1B53563   5.723  33.579   6.450
 8564POPC   C2B53564   5.796  33.544   6.750
 8564POPC   C3B53565   5.769  33.607   7.050
 8564POPC   C4B53566   5.743  33.573   7.350
 8565POPC   NC353567   2.736  39.232   5.550
 8565POPC   PO453568   2.729  39.195   5.850
 8565POPC   GL153569   2.775  39.217   6.150
 8565POPC   GL253570   2.671  39.303   6.150
 8565POPC   C1A53571   2.729  39.207   6.450
 8565POPC   D2A53572   2.719  39.281   6.750
 8565POPC   C3A53573   2.794  39.219   7.050
 8565POPC   C4A53574   2.780  39.276   7.350
 8565POPC   C1B53575   2.656  39.444   6.450
 8565POPC   C2B53576   2.649  39.500   6.750
 8565POPC   C3B53577   2.690  39.431   7.050
 8565POPC   C4B53578   2.620  39.407   7.350
 8566POPC   NC353579  20.569  10.559   5.550
 8566POPC   PO453580  20.599  10.517   5.850
 8566POPC   GL153581  20.630  10.485   6.150
 8566POPC   GL253582  20.723  10.596   6.150
 8566POPC   C1A53583  20.566  10.547   6.450
 8566POPC   D2A53584  20.631  10.567   6.750
 8566POPC   C3A53585  20.620  10.555   7.050
 8566POPC   C4A53586  20.617  10.567   7.350
 8566POPC   C1B53587  20.850  10.626   6.450
 8566POPC   C2B53588  20.783  10.707   6.750
 8566POPC   C3B53589  20.828  10.675   7.050
 8566POPC   C4B53590  20.792  10.665   7.350
 8567POPC   NC353591  44.693  44.615   5.550
 8567POPC   PO453592  44.695  44.629   5.850
 8567POPC   GL153593  44.625  44.693   6.150
 8567POPC   GL253594  44.511  44.682   6.150
 8567POPC   C1A53595  44.695  44.686   6.450
 8567POPC   D2A53596  44.621  44.707   6.750
 8567POPC   C3A53597  44.661  44.664   7.050
 8567POPC   C4A53598  44.685  44.710   7.350
 8567POPC   C1B53599  44.426  44.767   6.450
 8567POPC   C2B53600  44.404  44.718   6.750
 8567POPC   C3B53601  44.408  44.791   7.050
 8567POPC   C4B53602  44.435  44.779   7.350
 8568POPC   NC353603  34.533   5.137   5.550
 8568POPC   PO453604  34.625   5.085   5.850
 8568POPC   GL153605  34.548   5.120   6.150
 8568POPC   GL253606  34.455   5.163   6.150
 8568POPC   C1A53607  34.622   5.068   6.450
 8568POPC   D2A53608  34.622   5.136   6.750
 8568POPC   C3A53609  34.551   5.105   7.050
 8568POPC   C4A53610  34.574   5.056   7.350
 8568POPC   C1B53611  34.360   5.173   6.450
 8568POPC   C2B53612  34.322   5.199   6.750
 8568POPC   C3B53613  34.369   5.239   7.050
 8568POPC   C4B53614  34.334   5.195   7.350
 8569POPC   NC353615  36.866  27.587   5.550
 8569POPC   PO453616  36.952  27.563   5.850
 8569POPC   GL153617  36.905  27.594   6.150
 8569POPC   GL253618  36.925  27.700   6.150
 8569POPC   C1A53619  36.943  27.546   6.450
 8569POPC   D2A53620  36.884  27.632   6.750
 8569POPC   C3A53621  36.901  27.601   7.050
 8569POPC   C4A53622  36.889  27.602   7.350
 8569POPC   C1B53623  36.820  27.845   6.450
 8569POPC   C2B53624  36.811  27.852   6.750
 8569POPC   C3B53625  36.888  27.836   7.050
 8569POPC   C4B53626  36.854  27.830   7.350
 8570POPC   NC353627  32.294   7.408   5.550
 8570POPC   PO453628  32.289   7.461   5.850
 8570POPC   GL153629  32.228   7.433   6.150
 8570POPC   GL253630  32.265   7.315   6.150
 8570POPC   C1A53631  32.256   7.407   6.450
 8570POPC   D2A53632  32.246   7.379   6.750
 8570POPC   C3A53633  32.220   7.389   7.050
 8570POPC   C4A53634  32.268   7.470   7.350
 8570POPC   C1B53635  32.234   7.183   6.450
 8570POPC   C2B53636  32.215   7.133   6.750
 8570POPC   C3B53637  32.274   7.206   7.050
 8570POPC   C4B53638  32.217   7.186   7.350
 8571POPC   NC353639  36.909  16.748   5.550
 8571POPC   PO453640  36.877  16.693   5.850
 8571POPC   GL153641  36.898  16.742   6.150
 8571POPC   GL253642  36.968  16.762   6.150
 8571POPC   C1A53643  36.881  16.760   6.450
 8571POPC   D2A53644  36.911  16.697   6.750
 8571POPC   C3A53645  36.898  16.764   7.050
 8571POPC   C4A53646  36.868  16.764   7.350
 8571POPC   C1B53647  37.076  16.842   6.450
 8571POPC   C2B53648  37.143  16.876   6.750
 8571POPC   C3B53649  37.132  16.874   7.050
 8571POPC   C4B53650  37.099  16.839   7.350
 8572POPC   NC353651  40.750  32.278   5.550
 8572POPC   PO453652  40.828  32.292   5.850
 8572POPC   GL153653  40.752  32.198   6.150
 8572POPC   GL253654  40.785  32.355   6.150
 8572POPC   C1A53655  40.759  32.225   6.450
 8572POPC   D2A53656  40.830  32.247   6.750
 8572POPC   C3A53657  40.746  32.256   7.050
 8572POPC   C4A53658  40.770  32.206   7.350
 8572POPC   C1B53659  40.784  32.455   6.450
 8572POPC   C2B53660  40.817  32.476   6.750
 8572POPC   C3B53661  40.786  32.499   7.050
 8572POPC   C4B53662  40.749  32.474   7.350
 8573POPC   NC353663  11.318  41.556   5.550
 8573POPC   PO453664  11.261  41.518   5.850
 8573POPC   GL153665  11.290  41.536   6.150
 8573POPC   GL253666  11.291  41.462   6.150
 8573POPC   C1A53667  11.286  41.549   6.450
 8573POPC   D2A53668  11.329  41.517   6.750
 8573POPC   C3A53669  11.264  41.541   7.050
 8573POPC   C4A53670  11.318  41.571   7.350
 8573POPC   C1B53671  11.217  41.268   6.450
 8573POPC   C2B53672  11.275  41.278   6.750
 8573POPC   C3B53673  11.299  41.313   7.050
 8573POPC   C4B53674  11.223  41.325   7.350
 8574POPC   NC353675  17.545  20.601   5.550
 8574POPC   PO453676  17.470  20.602   5.850
 8574POPC   GL153677  17.477  20.562   6.150
 8574POPC   GL253678  17.539  20.762   6.150
 8574POPC   C1A53679  17.550  20.623   6.450
 8574POPC   D2A53680  17.549  20.612   6.750
 8574POPC   C3A53681  17.495  20.623   7.050
 8574POPC   C4A53682  17.555  20.646   7.350
 8574POPC   C1B53683  17.465  20.827   6.450
 8574POPC   C2B53684  17.471  20.872   6.750
 8574POPC   C3B53685  17.511  20.880   7.050
 8574POPC   C4B53686  17.523  20.825   7.350
 8575POPC   NC353687  33.001   9.764   5.550
 8575POPC   PO453688  33.071   9.783   5.850
 8575POPC   GL153689  33.074   9.732   6.150
 8575POPC   GL253690  32.931   9.764   6.150
 8575POPC   C1A53691  33.044   9.725   6.450
 8575POPC   D2A53692  33.018   9.730   6.750
 8575POPC   C3A53693  33.032   9.786   7.050
 8575POPC   C4A53694  33.017   9.792   7.350
 8575POPC   C1B53695  32.813   9.716   6.450
 8575POPC   C2B53696  32.788   9.703   6.750
 8575POPC   C3B53697  32.757   9.684   7.050
 8575POPC   C4B53698  32.796   9.738   7.350
 8576POPC   NC353699  26.037  42.342   5.550
 8576POPC   PO453700  26.034  42.287   5.850
 8576POPC   GL153701  26.002  42.329   6.150
 8576POPC   GL253702  26.165  42.362   6.150
 8576POPC   C1A53703  26.000  42.324   6.450
 8576POPC   D2A53704  26.026  42.348   6.750
 8576POPC   C3A53705  26.088  42.330   7.050
 8576POPC   C4A53706  26.022  42.285   7.350
 8576POPC   C1B53707  26.242  42.451   6.450
 8576POPC   C2B53708  26.234  42.461   6.750
 8576POPC   C3B53709  26.260  42.402   7.050
 8576POPC   C4B53710  26.290  42.396   7.350
 8577POPC   NC353711  37.724  31.485   5.550
 8577POPC   PO453712  37.695  31.477   5.850
 8577POPC   GL153713  37.679  31.464   6.150
 8577POPC   GL253714  37.588  31.471   6.150
 8577POPC   C1A53715  37.704  31.511   6.450
 8577POPC   D2A53716  37.704  31.458   6.750
 8577POPC   C3A53717  37.687  31.478   7.050
 8577POPC   C4A53718  37.665  31.477   7.350
 8577POPC   C1B53719  37.491  31.388   6.450
 8577POPC   C2B53720  37.457  31.401   6.750
 8577POPC   C3B53721  37.463  31.385   7.050
 8577POPC   C4B53722  37.477  31.381   7.350
 8578POPC   NC353723  41.568  14.451   5.550
 8578POPC   PO453724  41.512  14.388   5.850
 8578POPC   GL153725  41.553  14.395   6.150
 8578POPC   GL253726  41.498  14.534   6.150
 8578POPC   C1A53727  41.574  14.384   6.450
 8578POPC   D2A53728  41.603  14.437   6.750
 8578POPC   C3A53729  41.533  14.439   7.050
 8578POPC   C4A53730  41.598  14.450   7.350
 8578POPC   C1B53731  41.414  14.620   6.450
 8578POPC   C2B53732  41.443  14.555   6.750
 8578POPC   C3B53733  41.404  14.583   7.050
 8578POPC   C4B53734  41.359  14.573   7.350
 8579POPC   NC353735  42.328   9.757   5.550
 8579POPC   PO453736  42.369   9.737   5.850
 8579POPC   GL153737  42.307   9.779   6.150
 8579POPC   GL253738  42.460   9.687   6.150
 8579POPC   C1A53739  42.334   9.730   6.450
 8579POPC   D2A53740  42.360   9.732   6.750
 8579POPC   C3A53741  42.318   9.728   7.050
 8579POPC   C4A53742  42.291   9.705   7.350
 8579POPC   C1B53743  42.522   9.611   6.450
 8579POPC   C2B53744  42.562   9.614   6.750
 8579POPC   C3B53745  42.575   9.603   7.050
 8579POPC   C4B53746  42.521   9.615   7.350
 8580POPC   NC353747  30.649   3.588   5.550
 8580POPC   PO453748  30.651   3.533   5.850
 8580POPC   GL153749  30.711   3.590   6.150
 8580POPC   GL253750  30.569   3.478   6.150
 8580POPC   C1A53751  30.730   3.540   6.450
 8580POPC   D2A53752  30.716   3.533   6.750
 8580POPC   C3A53753  30.681   3.527   7.050
 8580POPC   C4A53754  30.648   3.584   7.350
 8580POPC   C1B53755  30.539   3.406   6.450
 8580POPC   C2B53756  30.525   3.408   6.750
 8580POPC   C3B53757  30.473   3.374   7.050
 8580POPC   C4B53758  30.462   3.342   7.350
 8581POPC   NC353759  36.175  36.098   5.550
 8581POPC   PO453760  36.103  36.125   5.850
 8581POPC   GL153761  36.151  36.150   6.150
 8581POPC   GL253762  36.011  36.190   6.150
 8581POPC   C1A53763  36.094  36.168   6.450
 8581POPC   D2A53764  36.111  36.109   6.750
 8581POPC   C3A53765  36.148  36.134   7.050
 8581POPC   C4A53766  36.131  36.162   7.350
 8581POPC   C1B53767  35.879  36.125   6.450
 8581POPC   C2B53768  35.919  36.173   6.750
 8581POPC   C3B53769  35.898  36.143   7.050
 8581POPC   C4B53770  35.869  36.118   7.350
 8582POPC   NC353771  41.516  36.913   5.550
 8582POPC   PO453772  41.599  36.871   5.850
 8582POPC   GL153773  41.543  36.867   6.150
 8582POPC   GL253774  41.510  36.993   6.150
 8582POPC   C1A53775  41.535  36.881   6.450
 8582POPC   D2A53776  41.580  36.908   6.750
 8582POPC   C3A53777  41.559  36.900   7.050
 8582POPC   C4A53778  41.598  36.910   7.350
 8582POPC   C1B53779  41.546  37.135   6.450
 8582POPC   C2B53780  41.499  37.146   6.750
 8582POPC   C3B53781  41.461  37.105   7.050
 8582POPC   C4B53782  41.505  37.124   7.350
 8583POPC   NC353783   5.061  31.444   5.550
 8583POPC   PO453784   5.111  31.450   5.850
 8583POPC   GL153785   5.061  31.499   6.150
 8583POPC   GL253786   4.968  31.351   6.150
 8583POPC   C1A53787   5.081  31.457   6.450
 8583POPC   D2A53788   5.078  31.505   6.750
 8583POPC   C3A53789   5.096  31.471   7.050
 8583POPC   C4A53790   5.125  31.478   7.350
 8583POPC   C1B53791   4.954  31.322   6.450
 8583POPC   C2B53792   4.900  31.249   6.750
 8583POPC   C3B53793   4.976  31.287   7.050
 8583POPC   C4B53794   4.940  31.259   7.350
 8584POPC   NC353795  33.823  11.344   5.550
 8584POPC   PO453796  33.752  11.314   5.850
 8584POPC   GL153797  33.788  11.305   6.150
 8584POPC   GL253798  33.756  11.436   6.150
 8584POPC   C1A53799  33.778  11.311   6.450
 8584POPC   D2A53800  33.836  11.338   6.750
 8584POPC   C3A53801  33.760  11.268   7.050
 8584POPC   C4A53802  33.760  11.327   7.350
 8584POPC   C1B53803  33.797  11.556   6.450
 8584POPC   C2B53804  33.831  11.571   6.750
 8584POPC   C3B53805  33.822  11.547   7.050
 8584POPC   C4B53806  33.742  11.574   7.350
 8585POPC   NC353807   6.606  29.877   5.550
 8585POPC   PO453808   6.688  29.970   5.850
 8585POPC   GL153809   6.680  29.910   6.150
 8585POPC   GL253810   6.607  29.766   6.150
 8585POPC   C1A53811   6.682  29.898   6.450
 8585POPC   D2A53812   6.642  29.921   6.750
 8585POPC   C3A53813   6.690  29.888   7.050
 8585POPC   C4A53814   6.611  29.947   7.350
 8585POPC   C1B53815   6.612  29.651   6.450
 8585POPC   C2B53816   6.671  29.684   6.750
 8585POPC   C3B53817   6.585  29.633   7.050
 8585POPC   C4B53818   6.627  29.684   7.350
 8586POPC   NC353819   2.034   7.409   5.550
 8586POPC   PO453820   1.970   7.384   5.850
 8586POPC   GL153821   2.017   7.465   6.150
 8586POPC   GL253822   2.005   7.532   6.150
 8586POPC   C1A53823   1.974   7.400   6.450
 8586POPC   D2A53824   2.038   7.389   6.750
 8586POPC   C3A53825   2.029   7.427   7.050
 8586POPC   C4A53826   2.014   7.470   7.350
 8586POPC   C1B53827   1.925   7.705   6.450
 8586POPC   C2B53828   1.965   7.636   6.750
 8586POPC   C3B53829   1.957   7.667   7.050
 8586POPC   C4B53830   1.920   7.671   7.350
 8587POPC   NC353831  17.489  23.723   5.550
 8587POPC   PO453832  17.489  23.727   5.850
 8587POPC   GL153833  17.466  23.706   6.150
 8587POPC   GL253834  17.511  23.597   6.150
 8587POPC   C1A53835  17.499  23.727   6.450
 8587POPC   D2A53836  17.490  23.719   6.750
 8587POPC   C3A53837  17.481  23.674   7.050
 8587POPC   C4A53838  17.497  23.759   7.350
 8587POPC   C1B53839  17.546  23.464   6.450
 8587POPC   C2B53840  17.531  23.484   6.750
 8587POPC   C3B53841  17.520  23.494   7.050
 8587POPC   C4B53842  17.592  23.443   7.350
 8588POPC   NC353843  37.664  15.941   5.550
 8588POPC   PO453844  37.715  15.942   5.850
 8588POPC   GL153845  37.693  15.963   6.150
 8588POPC   GL253846  37.734  15.884   6.150
 8588POPC   C1A53847  37.699  15.990   6.450
 8588POPC   D2A53848  37.632  15.937   6.750
 8588POPC   C3A53849  37.674  15.965   7.050
 8588POPC   C4A53850  37.673  15.957   7.350
 8588POPC   C1B53851  37.877  15.833   6.450
 8588POPC   C2B53852  37.896  15.794   6.750
 8588POPC   C3B53853  37.882  15.813   7.050
 8588POPC   C4B53854  37.914  15.749   7.350
 8589POPC   NC353855  24.517  21.353   5.550
 8589POPC   PO453856  24.534  21.372   5.850
 8589POPC   GL153857  24.496  21.355   6.150
 8589POPC   GL253858  24.426  21.303   6.150
 8589POPC   C1A53859  24.496  21.399   6.450
 8589POPC   D2A53860  24.503  21.351   6.750
 8589POPC   C3A53861  24.522  21.379   7.050
 8589POPC   C4A53862  24.466  21.387   7.350
 8589POPC   C1B53863  24.400  21.161   6.450
 8589POPC   C2B53864  24.339  21.179   6.750
 8589POPC   C3B53865  24.376  21.195   7.050
 8589POPC   C4B53866  24.340  21.164   7.350
 8590POPC   NC353867   2.766  20.629   5.550
 8590POPC   PO453868   2.758  20.591   5.850
 8590POPC   GL153869   2.803  20.614   6.150
 8590POPC   GL253870   2.680  20.592   6.150
 8590POPC   C1A53871   2.790  20.631   6.450
 8590POPC   D2A53872   2.770  20.622   6.750
 8590POPC   C3A53873   2.763  20.619   7.050
 8590POPC   C4A53874   2.751  20.569   7.350
 8590POPC   C1B53875   2.493  20.658   6.450
 8590POPC   C2B53876   2.489  20.591   6.750
 8590POPC   C3B53877   2.492  20.649   7.050
 8590POPC   C4B53878   2.562  20.639   7.350
 8591POPC   NC353879  16.704  22.198   5.550
 8591POPC   PO453880  16.730  22.119   5.850
 8591POPC   GL153881  16.770  22.186   6.150
 8591POPC   GL253882  16.847  22.204   6.150
 8591POPC   C1A53883  16.764  22.160   6.450
 8591POPC   D2A53884  16.771  22.165   6.750
 8591POPC   C3A53885  16.737  22.142   7.050
 8591POPC   C4A53886  16.724  22.202   7.350
 8591POPC   C1B53887  16.970  22.204   6.450
 8591POPC   C2B53888  17.004  22.235   6.750
 8591POPC   C3B53889  16.980  22.179   7.050
 8591POPC   C4B53890  16.948  22.205   7.350
 8592POPC   NC353891   4.281  31.430   5.550
 8592POPC   PO453892   4.347  31.501   5.850
 8592POPC   GL153893   4.355  31.442   6.150
 8592POPC   GL253894   4.333  31.324   6.150
 8592POPC   C1A53895   4.364  31.475   6.450
 8592POPC   D2A53896   4.339  31.447   6.750
 8592POPC   C3A53897   4.314  31.434   7.050
 8592POPC   C4A53898   4.332  31.505   7.350
 8592POPC   C1B53899   4.361  31.238   6.450
 8592POPC   C2B53900   4.419  31.208   6.750
 8592POPC   C3B53901   4.358  31.238   7.050
 8592POPC   C4B53902   4.390  31.191   7.350
 8593POPC   NC353903  22.963   9.734   5.550
 8593POPC   PO453904  22.980   9.780   5.850
 8593POPC   GL153905  22.906   9.769   6.150
 8593POPC   GL253906  22.863   9.620   6.150
 8593POPC   C1A53907  22.960   9.763   6.450
 8593POPC   D2A53908  22.910   9.743   6.750
 8593POPC   C3A53909  22.912   9.717   7.050
 8593POPC   C4A53910  22.888   9.715   7.350
 8593POPC   C1B53911  22.765   9.569   6.450
 8593POPC   C2B53912  22.799   9.518   6.750
 8593POPC   C3B53913  22.794   9.584   7.050
 8593POPC   C4B53914  22.821   9.524   7.350
 8594POPC   NC353915   7.433  42.353   5.550
 8594POPC   PO453916   7.418  42.298   5.850
 8594POPC   GL153917   7.439  42.307   6.150
 8594POPC   GL253918   7.370  42.500   6.150
 8594POPC   C1A53919   7.448  42.327   6.450
 8594POPC   D2A53920   7.458  42.285   6.750
 8594POPC   C3A53921   7.449  42.340   7.050
 8594POPC   C4A53922   7.430  42.358   7.350
 8594POPC   C1B53923   7.351  42.592   6.450
 8594POPC   C2B53924   7.396  42.560   6.750
 8594POPC   C3B53925   7.360  42.565   7.050
 8594POPC   C4B53926   7.399  42.616   7.350
 8595POPC   NC353927  13.638  12.863   5.550
 8595POPC   PO453928  13.673  12.842   5.850
 8595POPC   GL153929  13.677  12.862   6.150
 8595POPC   GL253930  13.703  12.895   6.150
 8595POPC   C1A53931  13.582  12.850   6.450
 8595POPC   D2A53932  13.676  12.833   6.750
 8595POPC   C3A53933  13.631  12.841   7.050
 8595POPC   C4A53934  13.653  12.823   7.350
 8595POPC   C1B53935  13.868  12.996   6.450
 8595POPC   C2B53936  13.798  12.992   6.750
 8595POPC   C3B53937  13.852  13.027   7.050
 8595POPC   C4B53938  13.874  12.980   7.350
 8596POPC   NC353939  24.467   0.484   5.550
 8596POPC   PO453940  24.505   0.435   5.850
 8596POPC   GL153941  24.460   0.461   6.150
 8596POPC   GL253942  24.556   0.318   6.150
 8596POPC   C1A53943  24.491   0.388   6.450
 8596POPC   D2A53944  24.455   0.403   6.750
 8596POPC   C3A53945  24.513   0.395   7.050
 8596POPC   C4A53946  24.521   0.421   7.350
 8596POPC   C1B53947  24.560   0.233   6.450
 8596POPC   C2B53948  24.481   0.181   6.750
 8596POPC   C3B53949  24.493   0.223   7.050
 8596POPC   C4B53950  24.490   0.215   7.350
 8597POPC   NC353951  24.491  15.220   5.550
 8597POPC   PO453952  24.477  15.180   5.850
 8597POPC   GL153953  24.525  15.167   6.150
 8597POPC   GL253954  24.581  15.209   6.150
 8597POPC   C1A53955  24.495  15.198   6.450
 8597POPC   D2A53956  24.537  15.189   6.750
 8597POPC   C3A53957  24.464  15.229   7.050
 8597POPC   C4A53958  24.535  15.155   7.350
 8597POPC   C1B53959  24.654  15.314   6.450
 8597POPC   C2B53960  24.705  15.300   6.750
 8597POPC   C3B53961  24.706  15.327   7.050
 8597POPC   C4B53962  24.658  15.287   7.350
 8598POPC   NC353963  44.649   8.229   5.550
 8598POPC   PO453964  44.638   8.211   5.850
 8598POPC   GL153965  44.691   8.173   6.150
 8598POPC   GL253966  44.709   8.106   6.150
 8598POPC   C1A53967  44.637   8.233   6.450
 8598POPC   D2A53968  44.639   8.148   6.750
 8598POPC   C3A53969  44.647   8.233   7.050
 8598POPC   C4A53970  44.686   8.213   7.350
 8598POPC   C1B53971  44.822   8.003   6.450
 8598POPC   C2B53972  44.807   8.018   6.750
 8598POPC   C3B53973  44.798   8.006   7.050
 8598POPC   C4B53974  44.831   8.064   7.350
 8599POPC   NC353975  40.787   7.393   5.550
 8599POPC   PO453976  40.828   7.388   5.850
 8599POPC   GL153977  40.795   7.372   6.150
 8599POPC   GL253978  40.818   7.543   6.150
 8599POPC   C1A53979  40.739   7.430   6.450
 8599POPC   D2A53980  40.818   7.448   6.750
 8599POPC   C3A53981  40.756   7.403   7.050
 8599POPC   C4A53982  40.811   7.424   7.350
 8599POPC   C1B53983  40.946   7.581   6.450
 8599POPC   C2B53984  40.909   7.653   6.750
 8599POPC   C3B53985  40.970   7.586   7.050
 8599POPC   C4B53986  40.947   7.611   7.350
 8600POPC   NC353987  24.470  29.158   5.550
 8600POPC   PO453988  24.531  29.112   5.850
 8600POPC   GL153989  24.524  29.178   6.150
 8600POPC   GL253990  24.611  29.082   6.150
 8600POPC   C1A53991  24.504  29.111   6.450
 8600POPC   D2A53992  24.451  29.167   6.750
 8600POPC   C3A53993  24.496  29.116   7.050
 8600POPC   C4A53994  24.510  29.163   7.350
 8600POPC   C1B53995  24.632  28.945   6.450
 8600POPC   C2B53996  24.687  28.981   6.750
 8600POPC   C3B53997  24.647  28.934   7.050
 8600POPC   C4B53998  24.663  28.973   7.350
 8601POPC   NC353999  43.098  15.193   5.550
 8601POPC   PO454000  43.154  15.187   5.850
 8601POPC   GL154001  43.107  15.154   6.150
 8601POPC   GL254002  43.177  15.085   6.150
 8601POPC   C1A54003  43.068  15.137   6.450
 8601POPC   D2A54004  43.138  15.169   6.750
 8601POPC   C3A54005  43.092  15.193   7.050
 8601POPC   C4A54006  43.097  15.134   7.350
 8601POPC   C1B54007  43.159  14.908   6.450
 8601POPC   C2B54008  43.234  14.991   6.750
 8601POPC   C3B54009  43.199  14.986   7.050
 8601POPC   C4B54010  43.249  14.912   7.350
 8602POPC   NC354011  36.155   1.947   5.550
 8602POPC   PO454012  36.151   1.968   5.850
 8602POPC   GL154013  36.130   1.976   6.150
 8602POPC   GL254014  36.221   1.894   6.150
 8602POPC   C1A54015  36.150   2.014   6.450
 8602POPC   D2A54016  36.112   2.006   6.750
 8602POPC   C3A54017  36.118   2.007   7.050
 8602POPC   C4A54018  36.090   1.985   7.350
 8602POPC   C1B54019  36.318   1.780   6.450
 8602POPC   C2B54020  36.294   1.798   6.750
 8602POPC   C3B54021  36.326   1.853   7.050
 8602POPC   C4B54022  36.329   1.865   7.350
 8603POPC   NC354023  36.143  25.230   5.550
 8603POPC   PO454024  36.146  25.271   5.850
 8603POPC   GL154025  36.108  25.258   6.150
 8603POPC   GL254026  36.156  25.434   6.150
 8603POPC   C1A54027  36.165  25.314   6.450
 8603POPC   D2A54028  36.157  25.278   6.750
 8603POPC   C3A54029  36.167  25.284   7.050
 8603POPC   C4A54030  36.141  25.245   7.350
 8603POPC   C1B54031  36.096  25.539   6.450
 8603POPC   C2B54032  36.133  25.559   6.750
 8603POPC   C3B54033  36.167  25.490   7.050
 8603POPC   C4B54034  36.175  25.558   7.350
 8604POPC   NC354035  17.537  30.667   5.550
 8604POPC   PO454036  17.476  30.745   5.850
 8604POPC   GL154037  17.523  30.691   6.150
 8604POPC   GL254038  17.429  30.793   6.150
 8604POPC   C1A54039  17.471  30.724   6.450
 8604POPC   D2A54040  17.550  30.741   6.750
 8604POPC   C3A54041  17.462  30.674   7.050
 8604POPC   C4A54042  17.479  30.744   7.350
 8604POPC   C1B54043  17.341  30.825   6.450
 8604POPC   C2B54044  17.362  30.897   6.750
 8604POPC   C3B54045  17.333  30.845   7.050
 8604POPC   C4B54046  17.281  30.812   7.350
 8605POPC   NC354047  43.863  24.458   5.550
 8605POPC   PO454048  43.892  24.526   5.850
 8605POPC   GL154049  43.885  24.452   6.150
 8605POPC   GL254050  43.962  24.459   6.150
 8605POPC   C1A54051  43.857  24.486   6.450
 8605POPC   D2A54052  43.893  24.538   6.750
 8605POPC   C3A54053  43.912  24.518   7.050
 8605POPC   C4A54054  43.905  24.535   7.350
 8605POPC   C1B54055  44.091  24.417   6.450
 8605POPC   C2B54056  44.159  24.460   6.750
 8605POPC   C3B54057  44.164  24.421   7.050
 8605POPC   C4B54058  44.103  24.422   7.350
 8606POPC   NC354059  26.768  43.090   5.550
 8606POPC   PO454060  26.784  43.092   5.850
 8606POPC   GL154061  26.830  43.105   6.150
 8606POPC   GL254062  26.884  43.053   6.150
 8606POPC   C1A54063  26.858  43.102   6.450
 8606POPC   D2A54064  26.804  43.151   6.750
 8606POPC   C3A54065  26.803  43.099   7.050
 8606POPC   C4A54066  26.807  43.073   7.350
 8606POPC   C1B54067  27.059  42.972   6.450
 8606POPC   C2B54068  26.965  42.987   6.750
 8606POPC   C3B54069  27.011  42.915   7.050
 8606POPC   C4B54070  27.005  42.923   7.350
 8607POPC   NC354071   3.577  43.924   5.550
 8607POPC   PO454072   3.537  43.933   5.850
 8607POPC   GL154073   3.554  43.861   6.150
 8607POPC   GL254074   3.604  43.956   6.150
 8607POPC   C1A54075   3.587  43.882   6.450
 8607POPC   D2A54076   3.509  43.930   6.750
 8607POPC   C3A54077   3.583  43.839   7.050
 8607POPC   C4A54078   3.577  43.877   7.350
 8607POPC   C1B54079   3.673  44.082   6.450
 8607POPC   C2B54080   3.739  44.029   6.750
 8607POPC   C3B54081   3.749  44.037   7.050
 8607POPC   C4B54082   3.738  44.091   7.350
 8608POPC   NC354083  12.900  16.716   5.550
 8608POPC   PO454084  12.848  16.727   5.850
 8608POPC   GL154085  12.841  16.726   6.150
 8608POPC   GL254086  12.727  16.609   6.150
 8608POPC   C1A54087  12.842  16.695   6.450
 8608POPC   D2A54088  12.896  16.705   6.750
 8608POPC   C3A54089  12.878  16.766   7.050
 8608POPC   C4A54090  12.855  16.762   7.350
 8608POPC   C1B54091  12.727  16.552   6.450
 8608POPC   C2B54092  12.708  16.546   6.750
 8608POPC   C3B54093  12.714  16.523   7.050
 8608POPC   C4B54094  12.712  16.580   7.350
 8609POPC   NC354095  29.884  44.658   5.550
 8609POPC   PO454096  29.880  44.677   5.850
 8609POPC   GL154097  29.916  44.696   6.150
 8609POPC   GL254098  29.976  44.572   6.150
 8609POPC   C1A54099  29.879  44.688   6.450
 8609POPC   D2A54100  29.968  44.660   6.750
 8609POPC   C3A54101  29.878  44.666   7.050
 8609POPC   C4A54102  29.951  44.644   7.350
 8609POPC   C1B54103  30.106  44.467   6.450
 8609POPC   C2B54104  30.046  44.452   6.750
 8609POPC   C3B54105  30.014  44.500   7.050
 8609POPC   C4B54106  30.064  44.450   7.350
 8610POPC   NC354107  43.121  21.341   5.550
 8610POPC   PO454108  43.111  21.425   5.850
 8610POPC   GL154109  43.089  21.383   6.150
 8610POPC   GL254110  43.083  21.464   6.150
 8610POPC   C1A54111  43.082  21.339   6.450
 8610POPC   D2A54112  43.115  21.402   6.750
 8610POPC   C3A54113  43.112  21.421   7.050
 8610POPC   C4A54114  43.068  21.367   7.350
 8610POPC   C1B54115  43.042  21.617   6.450
 8610POPC   C2B54116  42.984  21.595   6.750
 8610POPC   C3B54117  43.003  21.596   7.050
 8610POPC   C4B54118  43.030  21.618   7.350
 8611POPC   NC354119  37.663  40.809   5.550
 8611POPC   PO454120  37.683  40.761   5.850
 8611POPC   GL154121  37.709  40.758   6.150
 8611POPC   GL254122  37.777  40.821   6.150
 8611POPC   C1A54123  37.677  40.745   6.450
 8611POPC   D2A54124  37.666  40.803   6.750
 8611POPC   C3A54125  37.645  40.753   7.050
 8611POPC   C4A54126  37.662  40.775   7.350
 8611POPC   C1B54127  37.894  40.769   6.450
 8611POPC   C2B54128  37.939  40.729   6.750
 8611POPC   C3B54129  37.975  40.730   7.050
 8611POPC   C4B54130  37.887  40.750   7.350
 8612POPC   NC354131  12.806  26.045   5.550
 8612POPC   PO454132  12.850  26.023   5.850
 8612POPC   GL154133  12.821  26.038   6.150
 8612POPC   GL254134  12.777  26.177   6.150
 8612POPC   C1A54135  12.808  26.021   6.450
 8612POPC   D2A54136  12.857  26.031   6.750
 8612POPC   C3A54137  12.851  26.042   7.050
 8612POPC   C4A54138  12.880  26.054   7.350
 8612POPC   C1B54139  12.779  26.285   6.450
 8612POPC   C2B54140  12.725  26.308   6.750
 8612POPC   C3B54141  12.745  26.231   7.050
 8612POPC   C4B54142  12.712  26.317   7.350
 8613POPC   NC354143  19.094  29.184   5.550
 8613POPC   PO454144  19.050  29.096   5.850
 8613POPC   GL154145  19.090  29.101   6.150
 8613POPC   GL254146  19.018  29.240   6.150
 8613POPC   C1A54147  19.071  29.120   6.450
 8613POPC   D2A54148  19.041  29.150   6.750
 8613POPC   C3A54149  19.071  29.164   7.050
 8613POPC   C4A54150  19.051  29.177   7.350
 8613POPC   C1B54151  19.069  29.348   6.450
 8613POPC   C2B54152  19.060  29.422   6.750
 8613POPC   C3B54153  19.088  29.427   7.050
 8613POPC   C4B54154  19.016  29.429   7.350
 8614POPC   NC354155  26.033  29.899   5.550
 8614POPC   PO454156  26.030  29.874   5.850
 8614POPC   GL154157  26.047  29.958   6.150
 8614POPC   GL254158  26.213  29.968   6.150
 8614POPC   C1A54159  26.043  29.885   6.450
 8614POPC   D2A54160  25.994  29.934   6.750
 8614POPC   C3A54161  26.091  29.959   7.050
 8614POPC   C4A54162  26.013  29.967   7.350
 8614POPC   C1B54163  26.305  30.011   6.450
 8614POPC   C2B54164  26.259  29.926   6.750
 8614POPC   C3B54165  26.325  30.009   7.050
 8614POPC   C4B54166  26.277  29.937   7.350
 8615POPC   NC354167  22.212  39.263   5.550
 8615POPC   PO454168  22.130  39.227   5.850
 8615POPC   GL154169  22.152  39.271   6.150
 8615POPC   GL254170  22.184  39.124   6.150
 8615POPC   C1A54171  22.197  39.229   6.450
 8615POPC   D2A54172  22.194  39.190   6.750
 8615POPC   C3A54173  22.118  39.258   7.050
 8615POPC   C4A54174  22.146  39.190   7.350
 8615POPC   C1B54175  22.273  39.047   6.450
 8615POPC   C2B54176  22.309  38.982   6.750
 8615POPC   C3B54177  22.238  38.985   7.050
 8615POPC   C4B54178  22.234  39.007   7.350
 8616POPC   NC354179  33.034  25.258   5.550
 8616POPC   PO454180  33.026  25.273   5.850
 8616POPC   GL154181  33.038  25.277   6.150
 8616POPC   GL254182  32.867  25.238   6.150
 8616POPC   C1A54183  33.069  25.238   6.450
 8616POPC   D2A54184  33.024  25.276   6.750
 8616POPC   C3A54185  33.006  25.291   7.050
 8616POPC   C4A54186  32.985  25.304   7.350
 8616POPC   C1B54187  32.736  25.327   6.450
 8616POPC   C2B54188  32.765  25.278   6.750
 8616POPC   C3B54189  32.770  25.317   7.050
 8616POPC   C4B54190  32.733  25.259   7.350
 8617POPC   NC354191  31.512  35.384   5.550
 8617POPC   PO454192  31.509  35.377   5.850
 8617POPC   GL154193  31.465  35.399   6.150
 8617POPC   GL254194  31.371  35.344   6.150
 8617POPC   C1A54195  31.441  35.377   6.450
 8617POPC   D2A54196  31.434  35.306   6.750
 8617POPC   C3A54197  31.504  35.396   7.050
 8617POPC   C4A54198  31.479  35.369   7.350
 8617POPC   C1B54199  31.284  35.285   6.450
 8617POPC   C2B54200  31.244  35.270   6.750
 8617POPC   C3B54201  31.292  35.245   7.050
 8617POPC   C4B54202  31.259  35.272   7.350
 8618POPC   NC354203  26.852  12.117   5.550
 8618POPC   PO454204  26.846  12.040   5.850
 8618POPC   GL154205  26.787  12.059   6.150
 8618POPC   GL254206  26.723  11.987   6.150
 8618POPC   C1A54207  26.855  12.033   6.450
 8618POPC   D2A54208  26.842  12.076   6.750
 8618POPC   C3A54209  26.776  12.040   7.050
 8618POPC   C4A54210  26.834  12.060   7.350
 8618POPC   C1B54211  26.685  11.929   6.450
 8618POPC   C2B54212  26.591  11.916   6.750
 8618POPC   C3B54213  26.612  11.931   7.050
 8618POPC   C4B54214  26.622  11.931   7.350
 8619POPC   NC354215  26.822   5.102   5.550
 8619POPC   PO454216  26.822   5.063   5.850
 8619POPC   GL154217  26.770   5.073   6.150
 8619POPC   GL254218  26.988   5.076   6.150
 8619POPC   C1A54219  26.771   5.048   6.450
 8619POPC   D2A54220  26.864   5.063   6.750
 8619POPC   C3A54221  26.804   5.118   7.050
 8619POPC   C4A54222  26.854   5.134   7.350
 8619POPC   C1B54223  27.095   5.097   6.450
 8619POPC   C2B54224  27.049   5.178   6.750
 8619POPC   C3B54225  27.109   5.140   7.050
 8619POPC   C4B54226  27.048   5.180   7.350
 8620POPC   NC354227   6.659  19.811   5.550
 8620POPC   PO454228   6.663  19.871   5.850
 8620POPC   GL154229   6.683  19.816   6.150
 8620POPC   GL254230   6.546  19.969   6.150
 8620POPC   C1A54231   6.646  19.867   6.450
 8620POPC   D2A54232   6.682  19.815   6.750
 8620POPC   C3A54233   6.652  19.864   7.050
 8620POPC   C4A54234   6.631  19.830   7.350
 8620POPC   C1B54235   6.483  20.089   6.450
 8620POPC   C2B54236   6.496  20.041   6.750
 8620POPC   C3B54237   6.561  20.105   7.050
 8620POPC   C4B54238   6.568  20.081   7.350
 8621POPC   NC354239   3.524   8.960   5.550
 8621POPC   PO454240   3.556   9.020   5.850
 8621POPC   GL154241   3.541   8.959   6.150
 8621POPC   GL254242   3.559   8.805   6.150
 8621POPC   C1A54243   3.580   8.948   6.450
 8621POPC   D2A54244   3.528   8.986   6.750
 8621POPC   C3A54245   3.539   8.925   7.050
 8621POPC   C4A54246   3.549   8.983   7.350
 8621POPC   C1B54247   3.538   8.697   6.450
 8621POPC   C2B54248   3.590   8.695   6.750
 8621POPC   C3B54249   3.589   8.726   7.050
 8621POPC   C4B54250   3.567   8.711   7.350
 8622POPC   NC354251  18.312   9.746   5.550
 8622POPC   PO454252  18.308   9.713   5.850
 8622POPC   GL154253  18.267   9.781   6.150
 8622POPC   GL254254  18.298   9.828   6.150
 8622POPC   C1A54255  18.258   9.766   6.450
 8622POPC   D2A54256  18.254   9.716   6.750
 8622POPC   C3A54257  18.306   9.791   7.050
 8622POPC   C4A54258  18.275   9.730   7.350
 8622POPC   C1B54259  18.397   9.965   6.450
 8622POPC   C2B54260  18.369   9.984   6.750
 8622POPC   C3B54261  18.408  10.017   7.050
 8622POPC   C4B54262  18.410   9.992   7.350
 8623POPC   NC354263  38.470  15.201   5.550
 8623POPC   PO454264  38.466  15.156   5.850
 8623POPC   GL154265  38.470  15.182   6.150
 8623POPC   GL254266  38.442  15.109   6.150
 8623POPC   C1A54267  38.420  15.129   6.450
 8623POPC   D2A54268  38.447  15.155   6.750
 8623POPC   C3A54269  38.452  15.184   7.050
 8623POPC   C4A54270  38.485  15.207   7.350
 8623POPC   C1B54271  38.402  14.911   6.450
 8623POPC   C2B54272  38.368  14.974   6.750
 8623POPC   C3B54273  38.364  14.909   7.050
 8623POPC   C4B54274  38.379  14.999   7.350
 8624POPC   NC354275  15.157   4.287   5.550
 8624POPC   PO454276  15.179   4.350   5.850
 8624POPC   GL154277  15.178   4.298   6.150
 8624POPC   GL254278  15.123   4.416   6.150
 8624POPC   C1A54279  15.216   4.300   6.450
 8624POPC   D2A54280  15.185   4.295   6.750
 8624POPC   C3A54281  15.137   4.347   7.050
 8624POPC   C4A54282  15.180   4.339   7.350
 8624POPC   C1B54283  15.131   4.550   6.450
 8624POPC   C2B54284  15.060   4.545   6.750
 8624POPC   C3B54285  15.042   4.505   7.050
 8624POPC   C4B54286  15.100   4.518   7.350
 8625POPC   NC354287  29.871   7.428   5.550
 8625POPC   PO454288  29.912   7.465   5.850
 8625POPC   GL154289  29.876   7.408   6.150
 8625POPC   GL254290  29.870   7.312   6.150
 8625POPC   C1A54291  29.947   7.390   6.450
 8625POPC   D2A54292  29.964   7.435   6.750
 8625POPC   C3A54293  29.902   7.432   7.050
 8625POPC   C4A54294  29.917   7.437   7.350
 8625POPC   C1B54295  29.794   7.197   6.450
 8625POPC   C2B54296  29.869   7.224   6.750
 8625POPC   C3B54297  29.803   7.212   7.050
 8625POPC   C4B54298  29.891   7.152   7.350
 8626POPC   NC354299  34.567  32.218   5.550
 8626POPC   PO454300  34.554  32.222   5.850
 8626POPC   GL154301  34.575  32.246   6.150
 8626POPC   GL254302  34.655  32.249   6.150
 8626POPC   C1A54303  34.530  32.287   6.450
 8626POPC   D2A54304  34.625  32.290   6.750
 8626POPC   C3A54305  34.555  32.231   7.050
 8626POPC   C4A54306  34.562  32.242   7.350
 8626POPC   C1B54307  34.784  32.203   6.450
 8626POPC   C2B54308  34.840  32.249   6.750
 8626POPC   C3B54309  34.803  32.253   7.050
 8626POPC   C4B54310  34.858  32.287   7.350
 8627POPC   NC354311  27.569   8.174   5.550
 8627POPC   PO454312  27.628   8.228   5.850
 8627POPC   GL154313  27.616   8.198   6.150
 8627POPC   GL254314  27.587   8.045   6.150
 8627POPC   C1A54315  27.635   8.164   6.450
 8627POPC   D2A54316  27.555   8.244   6.750
 8627POPC   C3A54317  27.583   8.171   7.050
 8627POPC   C4A54318  27.643   8.156   7.350
 8627POPC   C1B54319  27.630   7.952   6.450
 8627POPC   C2B54320  27.641   7.953   6.750
 8627POPC   C3B54321  27.642   7.935   7.050
 8627POPC   C4B54322  27.677   7.948   7.350
 8628POPC   NC354323  16.727  33.779   5.550
 8628POPC   PO454324  16.690  33.829   5.850
 8628POPC   GL154325  16.740  33.761   6.150
 8628POPC   GL254326  16.770  33.917   6.150
 8628POPC   C1A54327  16.699  33.790   6.450
 8628POPC   D2A54328  16.764  33.755   6.750
 8628POPC   C3A54329  16.689  33.848   7.050
 8628POPC   C4A54330  16.716  33.800   7.350
 8628POPC   C1B54331  16.766  34.075   6.450
 8628POPC   C2B54332  16.688  34.053   6.750
 8628POPC   C3B54333  16.747  34.061   7.050
 8628POPC   C4B54334  16.746  34.099   7.350
 8629POPC   NC354335  22.950  24.454   5.550
 8629POPC   PO454336  22.932  24.487   5.850
 8629POPC   GL154337  22.918  24.477   6.150
 8629POPC   GL254338  23.093  24.559   6.150
 8629POPC   C1A54339  22.891  24.515   6.450
 8629POPC   D2A54340  22.928  24.444   6.750
 8629POPC   C3A54341  22.982  24.533   7.050
 8629POPC   C4A54342  22.954  24.507   7.350
 8629POPC   C1B54343  23.172  24.646   6.450
 8629POPC   C2B54344  23.121  24.663   6.750
 8629POPC   C3B54345  23.188  24.609   7.050
 8629POPC   C4B54346  23.148  24.602   7.350
 8630POPC   NC354347  41.567  39.243   5.550
 8630POPC   PO454348  41.589  39.230   5.850
 8630POPC   GL154349  41.551  39.245   6.150
 8630POPC   GL254350  41.664  39.094   6.150
 8630POPC   C1A54351  41.528  39.230   6.450
 8630POPC   D2A54352  41.529  39.187   6.750
 8630POPC   C3A54353  41.534  39.228   7.050
 8630POPC   C4A54354  41.521  39.200   7.350
 8630POPC   C1B54355  41.657  39.054   6.450
 8630POPC   C2B54356  41.690  39.050   6.750
 8630POPC   C3B54357  41.706  39.012   7.050
 8630POPC   C4B54358  41.717  38.980   7.350
 8631POPC   NC354359  11.295  27.612   5.550
 8631POPC   PO454360  11.269  27.573   5.850
 8631POPC   GL154361  11.300  27.638   6.150
 8631POPC   GL254362  11.358  27.479   6.150
 8631POPC   C1A54363  11.345  27.566   6.450
 8631POPC   D2A54364  11.327  27.628   6.750
 8631POPC   C3A54365  11.310  27.637   7.050
 8631POPC   C4A54366  11.297  27.620   7.350
 8631POPC   C1B54367  11.454  27.475   6.450
 8631POPC   C2B54368  11.533  27.463   6.750
 8631POPC   C3B54369  11.464  27.445   7.050
 8631POPC   C4B54370  11.499  27.390   7.350
 8632POPC   NC354371   3.494  12.828   5.550
 8632POPC   PO454372   3.555  12.885   5.850
 8632POPC   GL154373   3.564  12.826   6.150
 8632POPC   GL254374   3.483  12.765   6.150
 8632POPC   C1A54375   3.498  12.870   6.450
 8632POPC   D2A54376   3.575  12.824   6.750
 8632POPC   C3A54377   3.552  12.859   7.050
 8632POPC   C4A54378   3.516  12.847   7.350
 8632POPC   C1B54379   3.362  12.662   6.450
 8632POPC   C2B54380   3.339  12.666   6.750
 8632POPC   C3B54381   3.400  12.711   7.050
 8632POPC   C4B54382   3.416  12.704   7.350
 8633POPC   NC354383   3.539  28.343   5.550
 8633POPC   PO454384   3.503  28.401   5.850
 8633POPC   GL154385   3.525  28.384   6.150
 8633POPC   GL254386   3.483  28.249   6.150
 8633POPC   C1A54387   3.580  28.368   6.450
 8633POPC   D2A54388   3.550  28.394   6.750
 8633POPC   C3A54389   3.560  28.338   7.050
 8633POPC   C4A54390   3.493  28.416   7.350
 8633POPC   C1B54391   3.356  28.176   6.450
 8633POPC   C2B54392   3.397  28.153   6.750
 8633POPC   C3B54393   3.324  28.174   7.050
 8633POPC   C4B54394   3.354  28.210   7.350
 8634POPC   NC354395  42.333   5.123   5.550
 8634POPC   PO454396  42.297   5.049   5.850
 8634POPC   GL154397  42.299   5.119   6.150
 8634POPC   GL254398  42.214   5.108   6.150
 8634POPC   C1A54399  42.297   5.121   6.450
 8634POPC   D2A54400  42.296   5.133   6.750
 8634POPC   C3A54401  42.305   5.105   7.050
 8634POPC   C4A54402  42.316   5.138   7.350
 8634POPC   C1B54403  42.123   5.086   6.450
 8634POPC   C2B54404  42.080   5.121   6.750
 8634POPC   C3B54405  42.072   5.100   7.050
 8634POPC   C4B54406  42.099   5.063   7.350
 8635POPC   NC354407  22.204  21.412   5.550
 8635POPC   PO454408  22.203  21.407   5.850
 8635POPC   GL154409  22.122  21.434   6.150
 8635POPC   GL254410  22.267  21.248   6.150
 8635POPC   C1A54411  22.211  21.360   6.450
 8635POPC   D2A54412  22.207  21.401   6.750
 8635POPC   C3A54413  22.158  21.382   7.050
 8635POPC   C4A54414  22.124  21.420   7.350
 8635POPC   C1B54415  22.267  21.170   6.450
 8635POPC   C2B54416  22.316  21.206   6.750
 8635POPC   C3B54417  22.322  21.234   7.050
 8635POPC   C4B54418  22.325  21.185   7.350
 8636POPC   NC354419   5.911  40.763   5.550
 8636POPC   PO454420   5.898  40.738   5.850
 8636POPC   GL154421   5.901  40.751   6.150
 8636POPC   GL254422   5.932  40.646   6.150
 8636POPC   C1A54423   5.849  40.756   6.450
 8636POPC   D2A54424   5.850  40.790   6.750
 8636POPC   C3A54425   5.844  40.770   7.050
 8636POPC   C4A54426   5.857  40.741   7.350
 8636POPC   C1B54427   5.943  40.561   6.450
 8636POPC   C2B54428   5.897  40.566   6.750
 8636POPC   C3B54429   5.969  40.531   7.050
 8636POPC   C4B54430   5.886  40.508   7.350
 8637POPC   NC354431  13.627  44.666   5.550
 8637POPC   PO454432  13.668  44.663   5.850
 8637POPC   GL154433  13.655  44.709   6.150
 8637POPC   GL254434  13.750  44.603   6.150
 8637POPC   C1A54435  13.658  44.614   6.450
 8637POPC   D2A54436  13.656  44.655   6.750
 8637POPC   C3A54437  13.651  44.707   7.050
 8637POPC   C4A54438  13.641  44.633   7.350
 8637POPC   C1B54439  13.854  44.482   6.450
 8637POPC   C2B54440  13.817  44.537   6.750
 8637POPC   C3B54441  13.803  44.512   7.050
 8637POPC   C4B54442  13.865  44.511   7.350
 8638POPC   NC354443  12.867  29.177   5.550
 8638POPC   PO454444  12.802  29.191   5.850
 8638POPC   GL154445  12.802  29.190   6.150
 8638POPC   GL254446  12.959  29.074   6.150
 8638POPC   C1A54447  12.868  29.151   6.450
 8638POPC   D2A54448  12.816  29.194   6.750
 8638POPC   C3A54449  12.892  29.195   7.050
 8638POPC   C4A54450  12.892  29.156   7.350
 8638POPC   C1B54451  13.062  29.113   6.450
 8638POPC   C2B54452  13.058  29.123   6.750
 8638POPC   C3B54453  13.095  29.139   7.050
 8638POPC   C4B54454  13.066  29.088   7.350
 8639POPC   NC354455  35.334  44.667   5.550
 8639POPC   PO454456  35.376  44.658   5.850
 8639POPC   GL154457  35.362  44.657   6.150
 8639POPC   GL254458  35.454  44.582   6.150
 8639POPC   C1A54459  35.396  44.668   6.450
 8639POPC   D2A54460  35.365  44.631   6.750
 8639POPC   C3A54461  35.310  44.655   7.050
 8639POPC   C4A54462  35.361  44.651   7.350
 8639POPC   C1B54463  35.577  44.538   6.450
 8639POPC   C2B54464  35.535  44.524   6.750
 8639POPC   C3B54465  35.514  44.566   7.050
 8639POPC   C4B54466  35.566  44.491   7.350
 8640POPC   NC354467  22.894  40.780   5.550
 8640POPC   PO454468  22.943  40.743   5.850
 8640POPC   GL154469  22.960  40.820   6.150
 8640POPC   GL254470  22.853  40.685   6.150
 8640POPC   C1A54471  22.953  40.737   6.450
 8640POPC   D2A54472  22.896  40.819   6.750
 8640POPC   C3A54473  22.915  40.741   7.050
 8640POPC   C4A54474  22.939  40.810   7.350
 8640POPC   C1B54475  22.756  40.642   6.450
 8640POPC   C2B54476  22.794  40.585   6.750
 8640POPC   C3B54477  22.700  40.651   7.050
 8640POPC   C4B54478  22.754  40.657   7.350
 8641POPC   NC354479  16.690  20.574   5.550
 8641POPC   PO454480  16.776  20.633   5.850
 8641POPC   GL154481  16.701  20.590   6.150
 8641POPC   GL254482  16.696  20.697   6.150
 8641POPC   C1A54483  16.712  20.633   6.450
 8641POPC   D2A54484  16.695  20.654   6.750
 8641POPC   C3A54485  16.738  20.602   7.050
 8641POPC   C4A54486  16.708  20.587   7.350
 8641POPC   C1B54487  16.705  20.819   6.450
 8641POPC   C2B54488  16.667  20.816   6.750
 8641POPC   C3B54489  16.699  20.843   7.050
 8641POPC   C4B54490  16.736  20.820   7.350
 8642POPC   NC354491   5.136   1.190   5.550
 8642POPC   PO454492   5.137   1.192   5.850
 8642POPC   GL154493   5.104   1.220   6.150
 8642POPC   GL254494   4.994   1.187   6.150
 8642POPC   C1A54495   5.083   1.184   6.450
 8642POPC   D2A54496   5.072   1.192   6.750
 8642POPC   C3A54497   5.087   1.171   7.050
 8642POPC   C4A54498   5.045   1.202   7.350
 8642POPC   C1B54499   4.900   1.062   6.450
 8642POPC   C2B54500   4.931   1.029   6.750
 8642POPC   C3B54501   4.929   1.094   7.050
 8642POPC   C4B54502   4.863   1.099   7.350
 8643POPC   NC354503   5.091  40.826   5.550
 8643POPC   PO454504   5.082  40.764   5.850
 8643POPC   GL154505   5.143  40.788   6.150
 8643POPC   GL254506   5.150  40.669   6.150
 8643POPC   C1A54507   5.133  40.776   6.450
 8643POPC   D2A54508   5.101  40.777   6.750
 8643POPC   C3A54509   5.083  40.748   7.050
 8643POPC   C4A54510   5.112  40.831   7.350
 8643POPC   C1B54511   5.283  40.597   6.450
 8643POPC   C2B54512   5.244  40.613   6.750
 8643POPC   C3B54513   5.250  40.634   7.050
 8643POPC   C4B54514   5.242  40.633   7.350
 8644POPC   NC354515  44.710  10.572   5.550
 8644POPC   PO454516  44.643  10.518   5.850
 8644POPC   GL154517  44.621  10.504   6.150
 8644POPC   GL254518  44.706  10.620   6.150
 8644POPC   C1A54519  44.624  10.503   6.450
 8644POPC   D2A54520  44.665  10.502   6.750
 8644POPC   C3A54521  44.646  10.552   7.050
 8644POPC   C4A54522  44.695  10.530   7.350
 8644POPC   C1B54523  44.786  10.666   6.450
 8644POPC   C2B54524  44.788  10.719   6.750
 8644POPC   C3B54525  44.831  10.696   7.050
 8644POPC   C4B54526  44.845  10.732   7.350
 8645POPC   NC354527  29.913  40.015   5.550
 8645POPC   PO454528  29.957  40.009   5.850
 8645POPC   GL154529  29.902  39.960   6.150
 8645POPC   GL254530  30.062  40.111   6.150
 8645POPC   C1A54531  29.938  39.963   6.450
 8645POPC   D2A54532  29.954  39.999   6.750
 8645POPC   C3A54533  29.883  39.979   7.050
 8645POPC   C4A54534  29.951  39.957   7.350
 8645POPC   C1B54535  30.086  40.114   6.450
 8645POPC   C2B54536  30.138  40.125   6.750
 8645POPC   C3B54537  30.083  40.128   7.050
 8645POPC   C4B54538  30.135  40.128   7.350
 8646POPC   NC354539   5.077  16.736   5.550
 8646POPC   PO454540   5.103  16.715   5.850
 8646POPC   GL154541   5.085  16.744   6.150
 8646POPC   GL254542   5.057  16.628   6.150
 8646POPC   C1A54543   5.133  16.739   6.450
 8646POPC   D2A54544   5.141  16.736   6.750
 8646POPC   C3A54545   5.110  16.759   7.050
 8646POPC   C4A54546   5.045  16.773   7.350
 8646POPC   C1B54547   4.981  16.492   6.450
 8646POPC   C2B54548   4.965  16.557   6.750
 8646POPC   C3B54549   4.929  16.508   7.050
 8646POPC   C4B54550   4.974  16.486   7.350
 8647POPC   NC354551   9.004  29.897   5.550
 8647POPC   PO454552   9.018  29.936   5.850
 8647POPC   GL154553   8.948  29.932   6.150
 8647POPC   GL254554   8.934  29.787   6.150
 8647POPC   C1A54555   9.020  29.895   6.450
 8647POPC   D2A54556   9.008  29.922   6.750
 8647POPC   C3A54557   9.005  29.913   7.050
 8647POPC   C4A54558   8.925  29.882   7.350
 8647POPC   C1B54559   8.849  29.763   6.450
 8647POPC   C2B54560   8.861  29.718   6.750
 8647POPC   C3B54561   8.774  29.687   7.050
 8647POPC   C4B54562   8.834  29.719   7.350
 8648POPC   NC354563   9.726  25.269   5.550
 8648POPC   PO454564   9.755  25.288   5.850
 8648POPC   GL154565   9.703  25.266   6.150
 8648POPC   GL254566   9.809  25.118   6.150
 8648POPC   C1A54567   9.764  25.217   6.450
 8648POPC   D2A54568   9.757  25.297   6.750
 8648POPC   C3A54569   9.765  25.250   7.050
 8648POPC   C4A54570   9.740  25.231   7.350
 8648POPC   C1B54571   9.866  25.076   6.450
 8648POPC   C2B54572   9.903  25.056   6.750
 8648POPC   C3B54573   9.952  25.043   7.050
 8648POPC   C4B54574   9.953  25.028   7.350
 8649POPC   NC354575   3.581  14.374   5.550
 8649POPC   PO454576   3.498  14.443   5.850
 8649POPC   GL154577   3.582  14.390   6.150
 8649POPC   GL254578   3.451  14.527   6.150
 8649POPC   C1A54579   3.494  14.388   6.450
 8649POPC   D2A54580   3.586  14.427   6.750
 8649POPC   C3A54581   3.511  14.363   7.050
 8649POPC   C4A54582   3.578  14.372   7.350
 8649POPC   C1B54583   3.442  14.651   6.450
 8649POPC   C2B54584   3.443  14.650   6.750
 8649POPC   C3B54585   3.451  14.644   7.050
 8649POPC   C4B54586   3.368  14.569   7.350
 8650POPC   NC354587   5.836  20.584   5.550
 8650POPC   PO454588   5.883  20.615   5.850
 8650POPC   GL154589   5.907  20.565   6.150
 8650POPC   GL254590   5.945  20.487   6.150
 8650POPC   C1A54591   5.855  20.644   6.450
 8650POPC   D2A54592   5.911  20.590   6.750
 8650POPC   C3A54593   5.844  20.621   7.050
 8650POPC   C4A54594   5.899  20.636   7.350
 8650POPC   C1B54595   6.048  20.437   6.450
 8650POPC   C2B54596   5.983  20.410   6.750
 8650POPC   C3B54597   6.013  20.376   7.050
 8650POPC   C4B54598   5.972  20.401   7.350
 8651POPC   NC354599  10.509  27.596   5.550
 8651POPC   PO454600  10.483  27.626   5.850
 8651POPC   GL154601  10.547  27.596   6.150
 8651POPC   GL254602  10.598  27.562   6.150
 8651POPC   C1A54603  10.563  27.599   6.450
 8651POPC   D2A54604  10.489  27.555   6.750
 8651POPC   C3A54605  10.481  27.572   7.050
 8651POPC   C4A54606  10.489  27.599   7.350
 8651POPC   C1B54607  10.735  27.427   6.450
 8651POPC   C2B54608  10.680  27.477   6.750
 8651POPC   C3B54609  10.696  27.420   7.050
 8651POPC   C4B54610  10.703  27.488   7.350
 8652POPC   NC354611  35.346  37.654   5.550
 8652POPC   PO454612  35.316  37.643   5.850
 8652POPC   GL154613  35.371  37.719   6.150
 8652POPC   GL254614  35.180  37.713   6.150
 8652POPC   C1A54615  35.309  37.660   6.450
 8652POPC   D2A54616  35.334  37.647   6.750
 8652POPC   C3A54617  35.339  37.693   7.050
 8652POPC   C4A54618  35.335  37.632   7.350
 8652POPC   C1B54619  35.110  37.713   6.450
 8652POPC   C2B54620  35.152  37.731   6.750
 8652POPC   C3B54621  35.150  37.653   7.050
 8652POPC   C4B54622  35.117  37.684   7.350
 8653POPC   NC354623  31.462  37.630   5.550
 8653POPC   PO454624  31.468  37.699   5.850
 8653POPC   GL154625  31.451  37.637   6.150
 8653POPC   GL254626  31.412  37.759   6.150
 8653POPC   C1A54627  31.425  37.701   6.450
 8653POPC   D2A54628  31.517  37.639   6.750
 8653POPC   C3A54629  31.456  37.721   7.050
 8653POPC   C4A54630  31.458  37.634   7.350
 8653POPC   C1B54631  31.324  37.813   6.450
 8653POPC   C2B54632  31.289  37.852   6.750
 8653POPC   C3B54633  31.301  37.818   7.050
 8653POPC   C4B54634  31.323  37.884   7.350
 8654POPC   NC354635  31.521  39.211   5.550
 8654POPC   PO454636  31.446  39.268   5.850
 8654POPC   GL154637  31.502  39.255   6.150
 8654POPC   GL254638  31.427  39.389   6.150
 8654POPC   C1A54639  31.440  39.254   6.450
 8654POPC   D2A54640  31.456  39.268   6.750
 8654POPC   C3A54641  31.491  39.212   7.050
 8654POPC   C4A54642  31.486  39.238   7.350
 8654POPC   C1B54643  31.393  39.426   6.450
 8654POPC   C2B54644  31.416  39.478   6.750
 8654POPC   C3B54645  31.407  39.510   7.050
 8654POPC   C4B54646  31.424  39.483   7.350
 8655POPC   NC354647   6.602  19.083   5.550
 8655POPC   PO454648   6.607  19.051   5.850
 8655POPC   GL154649   6.671  19.071   6.150
 8655POPC   GL254650   6.553  19.179   6.150
 8655POPC   C1A54651   6.601  19.045   6.450
 8655POPC   D2A54652   6.597  19.052   6.750
 8655POPC   C3A54653   6.600  19.068   7.050
 8655POPC   C4A54654   6.682  19.100   7.350
 8655POPC   C1B54655   6.491  19.253   6.450
 8655POPC   C2B54656   6.470  19.248   6.750
 8655POPC   C3B54657   6.498  19.197   7.050
 8655POPC   C4B54658   6.436  19.258   7.350
 8656POPC   NC354659  22.172  14.421   5.550
 8656POPC   PO454660  22.116  14.382   5.850
 8656POPC   GL154661  22.112  14.374   6.150
 8656POPC   GL254662  22.258  14.466   6.150
 8656POPC   C1A54663  22.145  14.388   6.450
 8656POPC   D2A54664  22.209  14.382   6.750
 8656POPC   C3A54665  22.201  14.366   7.050
 8656POPC   C4A54666  22.170  14.397   7.350
 8656POPC   C1B54667  22.320  14.510   6.450
 8656POPC   C2B54668  22.382  14.503   6.750
 8656POPC   C3B54669  22.394  14.541   7.050
 8656POPC   C4B54670  22.417  14.514   7.350
 8657POPC   NC354671  40.042  29.103   5.550
 8657POPC   PO454672  40.002  29.096   5.850
 8657POPC   GL154673  39.984  29.122   6.150
 8657POPC   GL254674  39.931  29.228   6.150
 8657POPC   C1A54675  39.966  29.124   6.450
 8657POPC   D2A54676  39.961  29.182   6.750
 8657POPC   C3A54677  40.047  29.185   7.050
 8657POPC   C4A54678  39.987  29.128   7.350
 8657POPC   C1B54679  39.897  29.348   6.450
 8657POPC   C2B54680  39.864  29.371   6.750
 8657POPC   C3B54681  39.834  29.381   7.050
 8657POPC   C4B54682  39.829  29.320   7.350
 8658POPC   NC354683  35.324   1.987   5.550
 8658POPC   PO454684  35.400   1.943   5.850
 8658POPC   GL154685  35.335   1.942   6.150
 8658POPC   GL254686  35.421   2.071   6.150
 8658POPC   C1A54687  35.346   1.978   6.450
 8658POPC   D2A54688  35.320   1.944   6.750
 8658POPC   C3A54689  35.375   2.011   7.050
 8658POPC   C4A54690  35.375   1.952   7.350
 8658POPC   C1B54691  35.440   2.168   6.450
 8658POPC   C2B54692  35.420   2.169   6.750
 8658POPC   C3B54693  35.495   2.172   7.050
 8658POPC   C4B54694  35.425   2.172   7.350
 8659POPC   NC354695  33.751  19.101   5.550
 8659POPC   PO454696  33.775  19.070   5.850
 8659POPC   GL154697  33.800  19.026   6.150
 8659POPC   GL254698  33.772  19.129   6.150
 8659POPC   C1A54699  33.823  19.046   6.450
 8659POPC   D2A54700  33.792  19.069   6.750
 8659POPC   C3A54701  33.821  19.105   7.050
 8659POPC   C4A54702  33.817  19.075   7.350
 8659POPC   C1B54703  33.614  19.286   6.450
 8659POPC   C2B54704  33.658  19.292   6.750
 8659POPC   C3B54705  33.694  19.287   7.050
 8659POPC   C4B54706  33.645  19.294   7.350
 8660POPC   NC354707  19.877  26.767   5.550
 8660POPC   PO454708  19.804  26.852   5.850
 8660POPC   GL154709  19.864  26.799   6.150
 8660POPC   GL254710  19.741  26.879   6.150
 8660POPC   C1A54711  19.843  26.817   6.450
 8660POPC   D2A54712  19.880  26.823   6.750
 8660POPC   C3A54713  19.818  26.824   7.050
 8660POPC   C4A54714  19.864  26.811   7.350
 8660POPC   C1B54715  19.575  26.974   6.450
 8660POPC   C2B54716  19.602  26.975   6.750
 8660POPC   C3B54717  19.640  26.892   7.050
 8660POPC   C4B54718  19.637  26.916   7.350
 8661POPC   NC354719  21.432  26.037   5.550
 8661POPC   PO454720  21.380  26.070   5.850
 8661POPC   GL154721  21.375  26.050   6.150
 8661POPC   GL254722  21.245  25.969   6.150
 8661POPC   C1A54723  21.383  26.024   6.450
 8661POPC   D2A54724  21.368  26.002   6.750
 8661POPC   C3A54725  21.383  26.015   7.050
 8661POPC   C4A54726  21.391  26.003   7.350
 8661POPC   C1B54727  21.113  25.987   6.450
 8661POPC   C2B54728  21.109  25.950   6.750
 8661POPC   C3B54729  21.201  25.932   7.050
 8661POPC   C4B54730  21.169  25.957   7.350
 8662POPC   NC354731  14.439   1.238   5.550
 8662POPC   PO454732  14.419   1.263   5.850
 8662POPC   GL154733  14.371   1.248   6.150
 8662POPC   GL254734  14.524   1.154   6.150
 8662POPC   C1A54735  14.440   1.164   6.450
 8662POPC   D2A54736  14.390   1.227   6.750
 8662POPC   C3A54737  14.434   1.172   7.050
 8662POPC   C4A54738  14.404   1.207   7.350
 8662POPC   C1B54739  14.628   1.013   6.450
 8662POPC   C2B54740  14.550   1.040   6.750
 8662POPC   C3B54741  14.547   1.054   7.050
 8662POPC   C4B54742  14.621   1.027   7.350
 8663POPC   NC354743  43.092  26.025   5.550
 8663POPC   PO454744  43.134  26.035   5.850
 8663POPC   GL154745  43.079  26.011   6.150
 8663POPC   GL254746  43.020  25.999   6.150
 8663POPC   C1A54747  43.133  26.047   6.450
 8663POPC   D2A54748  43.106  26.057   6.750
 8663POPC   C3A54749  43.136  26.024   7.050
 8663POPC   C4A54750  43.111  26.025   7.350
 8663POPC   C1B54751  42.838  26.079   6.450
 8663POPC   C2B54752  42.830  25.996   6.750
 8663POPC   C3B54753  42.903  25.999   7.050
 8663POPC   C4B54754  42.820  26.028   7.350
 8664POPC   NC354755   5.092  24.488   5.550
 8664POPC   PO454756   5.094  24.539   5.850
 8664POPC   GL154757   5.103  24.501   6.150
 8664POPC   GL254758   5.058  24.413   6.150
 8664POPC   C1A54759   5.121  24.482   6.450
 8664POPC   D2A54760   5.098  24.493   6.750
 8664POPC   C3A54761   5.110  24.523   7.050
 8664POPC   C4A54762   5.098  24.442   7.350
 8664POPC   C1B54763   4.984  24.336   6.450
 8664POPC   C2B54764   4.986  24.292   6.750
 8664POPC   C3B54765   4.904  24.237   7.050
 8664POPC   C4B54766   4.906  24.329   7.350
 8665POPC   NC354767  39.998  12.878   5.550
 8665POPC   PO454768  40.018  12.856   5.850
 8665POPC   GL154769  39.984  12.888   6.150
 8665POPC   GL254770  39.910  12.766   6.150
 8665POPC   C1A54771  40.036  12.890   6.450
 8665POPC   D2A54772  40.007  12.820   6.750
 8665POPC   C3A54773  39.968  12.874   7.050
 8665POPC   C4A54774  40.037  12.821   7.350
 8665POPC   C1B54775  39.814  12.673   6.450
 8665POPC   C2B54776  39.768  12.687   6.750
 8665POPC   C3B54777  39.814  12.716   7.050
 8665POPC   C4B54778  39.812  12.679   7.350
 8666POPC   NC354779  28.364   9.793   5.550
 8666POPC   PO454780  28.406   9.756   5.850
 8666POPC   GL154781  28.351   9.711   6.150
 8666POPC   GL254782  28.480   9.740   6.150
 8666POPC   C1A54783  28.370   9.705   6.450
 8666POPC   D2A54784  28.361   9.736   6.750
 8666POPC   C3A54785  28.367   9.776   7.050
 8666POPC   C4A54786  28.347   9.779   7.350
 8666POPC   C1B54787  28.631   9.801   6.450
 8666POPC   C2B54788  28.602   9.827   6.750
 8666POPC   C3B54789  28.621   9.794   7.050
 8666POPC   C4B54790  28.560   9.818   7.350
 8667POPC   NC354791  39.969  27.625   5.550
 8667POPC   PO454792  39.974  27.599   5.850
 8667POPC   GL154793  40.044  27.626   6.150
 8667POPC   GL254794  39.937  27.422   6.150
 8667POPC   C1A54795  39.988  27.638   6.450
 8667POPC   D2A54796  40.024  27.632   6.750
 8667POPC   C3A54797  40.054  27.551   7.050
 8667POPC   C4A54798  39.995  27.641   7.350
 8667POPC   C1B54799  39.918  27.389   6.450
 8667POPC   C2B54800  39.928  27.369   6.750
 8667POPC   C3B54801  39.942  27.342   7.050
 8667POPC   C4B54802  39.998  27.340   7.350
 8668POPC   NC354803  12.813  27.563   5.550
 8668POPC   PO454804  12.893  27.600   5.850
 8668POPC   GL154805  12.877  27.568   6.150
 8668POPC   GL254806  12.812  27.702   6.150
 8668POPC   C1A54807  12.878  27.609   6.450
 8668POPC   D2A54808  12.875  27.612   6.750
 8668POPC   C3A54809  12.810  27.575   7.050
 8668POPC   C4A54810  12.823  27.557   7.350
 8668POPC   C1B54811  12.731  27.753   6.450
 8668POPC   C2B54812  12.681  27.831   6.750
 8668POPC   C3B54813  12.678  27.843   7.050
 8668POPC   C4B54814  12.709  27.789   7.350
 8669POPC   NC354815  34.573  25.285   5.550
 8669POPC   PO454816  34.590  25.231   5.850
 8669POPC   GL154817  34.543  25.221   6.150
 8669POPC   GL254818  34.736  25.249   6.150
 8669POPC   C1A54819  34.552  25.283   6.450
 8669POPC   D2A54820  34.597  25.306   6.750
 8669POPC   C3A54821  34.560  25.244   7.050
 8669POPC   C4A54822  34.619  25.240   7.350
 8669POPC   C1B54823  34.845  25.266   6.450
 8669POPC   C2B54824  34.839  25.279   6.750
 8669POPC   C3B54825  34.875  25.242   7.050
 8669POPC   C4B54826  34.820  25.330   7.350
 8670POPC   NC354827  36.134  20.654   5.550
 8670POPC   PO454828  36.156  20.631   5.850
 8670POPC   GL154829  36.126  20.628   6.150
 8670POPC   GL254830  36.220  20.702   6.150
 8670POPC   C1A54831  36.081  20.650   6.450
 8670POPC   D2A54832  36.094  20.592   6.750
 8670POPC   C3A54833  36.121  20.639   7.050
 8670POPC   C4A54834  36.119  20.610   7.350
 8670POPC   C1B54835  36.307  20.815   6.450
 8670POPC   C2B54836  36.294  20.869   6.750
 8670POPC   C3B54837  36.288  20.854   7.050
 8670POPC   C4B54838  36.247  20.785   7.350
 8671POPC   NC354839  39.232  29.899   5.550
 8671POPC   PO454840  39.187  29.909   5.850
 8671POPC   GL154841  39.252  29.953   6.150
 8671POPC   GL254842  39.117  30.039   6.150
 8671POPC   C1A54843  39.233  29.912   6.450
 8671POPC   D2A54844  39.183  29.916   6.750
 8671POPC   C3A54845  39.281  29.935   7.050
 8671POPC   C4A54846  39.190  29.914   7.350
 8671POPC   C1B54847  39.009  30.106   6.450
 8671POPC   C2B54848  39.020  30.082   6.750
 8671POPC   C3B54849  38.984  30.063   7.050
 8671POPC   C4B54850  39.039  30.117   7.350
 8672POPC   NC354851  36.126  31.480   5.550
 8672POPC   PO454852  36.109  31.463   5.850
 8672POPC   GL154853  36.094  31.433   6.150
 8672POPC   GL254854  36.281  31.551   6.150
 8672POPC   C1A54855  36.130  31.506   6.450
 8672POPC   D2A54856  36.176  31.425   6.750
 8672POPC   C3A54857  36.120  31.503   7.050
 8672POPC   C4A54858  36.100  31.515   7.350
 8672POPC   C1B54859  36.359  31.623   6.450
 8672POPC   C2B54860  36.332  31.594   6.750
 8672POPC   C3B54861  36.294  31.631   7.050
 8672POPC   C4B54862  36.356  31.570   7.350
 8673POPC   NC354863   3.497  13.665   5.550
 8673POPC   PO454864   3.564  13.586   5.850
 8673POPC   GL154865   3.501  13.657   6.150
 8673POPC   GL254866   3.442  13.730   6.150
 8673POPC   C1A54867   3.585  13.676   6.450
 8673POPC   D2A54868   3.563  13.625   6.750
 8673POPC   C3A54869   3.543  13.670   7.050
 8673POPC   C4A54870   3.501  13.591   7.350
 8673POPC   C1B54871   3.400  13.841   6.450
 8673POPC   C2B54872   3.337  13.784   6.750
 8673POPC   C3B54873   3.362  13.804   7.050
 8673POPC   C4B54874   3.384  13.787   7.350
 8674POPC   NC354875  26.007  44.678   5.550
 8674POPC   PO454876  26.032  44.645   5.850
 8674POPC   GL154877  25.998  44.703   6.150
 8674POPC   GL254878  26.111  44.529   6.150
 8674POPC   C1A54879  26.015  44.680   6.450
 8674POPC   D2A54880  26.041  44.619   6.750
 8674POPC   C3A54881  26.053  44.656   7.050
 8674POPC   C4A54882  26.047  44.676   7.350
 8674POPC   C1B54883  26.185  44.430   6.450
 8674POPC   C2B54884  26.146  44.454   6.750
 8674POPC   C3B54885  26.135  44.446   7.050
 8674POPC   C4B54886  26.122  44.401   7.350
 8675POPC   NC354887   5.848  43.061   5.550
 8675POPC   PO454888   5.913  43.111   5.850
 8675POPC   GL154889   5.836  43.145   6.150
 8675POPC   GL254890   5.773  43.189   6.150
 8675POPC   C1A54891   5.857  43.109   6.450
 8675POPC   D2A54892   5.834  43.089   6.750
 8675POPC   C3A54893   5.840  43.069   7.050
 8675POPC   C4A54894   5.835  43.081   7.350
 8675POPC   C1B54895   5.707  43.248   6.450
 8675POPC   C2B54896   5.694  43.269   6.750
 8675POPC   C3B54897   5.703  43.325   7.050
 8675POPC   C4B54898   5.704  43.311   7.350
 8676POPC   NC354899  33.051  36.856   5.550
 8676POPC   PO454900  33.025  36.883   5.850
 8676POPC   GL154901  33.033  36.949   6.150
 8676POPC   GL254902  33.057  36.988   6.150
 8676POPC   C1A54903  33.053  36.859   6.450
 8676POPC   D2A54904  32.998  36.911   6.750
 8676POPC   C3A54905  32.979  36.939   7.050
 8676POPC   C4A54906  33.049  36.940   7.350
 8676POPC   C1B54907  33.096  37.147   6.450
 8676POPC   C2B54908  33.156  37.181   6.750
 8676POPC   C3B54909  33.104  37.176   7.050
 8676POPC   C4B54910  33.103  37.128   7.350
 8677POPC   NC354911  27.553  13.607   5.550
 8677POPC   PO454912  27.586  13.669   5.850
 8677POPC   GL154913  27.618  13.629   6.150
 8677POPC   GL254914  27.592  13.494   6.150
 8677POPC   C1A54915  27.642  13.656   6.450
 8677POPC   D2A54916  27.634  13.640   6.750
 8677POPC   C3A54917  27.623  13.657   7.050
 8677POPC   C4A54918  27.577  13.645   7.350
 8677POPC   C1B54919  27.672  13.361   6.450
 8677POPC   C2B54920  27.668  13.362   6.750
 8677POPC   C3B54921  27.637  13.370   7.050
 8677POPC   C4B54922  27.665  13.396   7.350
 8678POPC   NC354923   2.789  22.941   5.550
 8678POPC   PO454924   2.796  22.892   5.850
 8678POPC   GL154925   2.749  22.943   6.150
 8678POPC   GL254926   2.724  23.111   6.150
 8678POPC   C1A54927   2.788  22.977   6.450
 8678POPC   D2A54928   2.731  22.955   6.750
 8678POPC   C3A54929   2.735  22.922   7.050
 8678POPC   C4A54930   2.804  22.891   7.350
 8678POPC   C1B54931   2.762  23.191   6.450
 8678POPC   C2B54932   2.817  23.171   6.750
 8678POPC   C3B54933   2.792  23.227   7.050
 8678POPC   C4B54934   2.805  23.144   7.350
 8679POPC   NC354935  33.778  18.301   5.550
 8679POPC   PO454936  33.770  18.274   5.850
 8679POPC   GL154937  33.780  18.280   6.150
 8679POPC   GL254938  33.869  18.187   6.150
 8679POPC   C1A54939  33.816  18.326   6.450
 8679POPC   D2A54940  33.833  18.294   6.750
 8679POPC   C3A54941  33.849  18.302   7.050
 8679POPC   C4A54942  33.848  18.265   7.350
 8679POPC   C1B54943  33.979  18.155   6.450
 8679POPC   C2B54944  34.027  18.194   6.750
 8679POPC   C3B54945  33.996  18.152   7.050
 8679POPC   C4B54946  33.966  18.175   7.350
 8680POPC   NC354947  16.776  16.738   5.550
 8680POPC   PO454948  16.700  16.747   5.850
 8680POPC   GL154949  16.780  16.728   6.150
 8680POPC   GL254950  16.592  16.613   6.150
 8680POPC   C1A54951  16.752  16.755   6.450
 8680POPC   D2A54952  16.747  16.717   6.750
 8680POPC   C3A54953  16.682  16.751   7.050
 8680POPC   C4A54954  16.723  16.709   7.350
 8680POPC   C1B54955  16.513  16.544   6.450
 8680POPC   C2B54956  16.538  16.542   6.750
 8680POPC   C3B54957  16.516  16.546   7.050
 8680POPC   C4B54958  16.548  16.590   7.350
 8681POPC   NC354959  31.427   5.863   5.550
 8681POPC   PO454960  31.469   5.862   5.850
 8681POPC   GL154961  31.448   5.824   6.150
 8681POPC   GL254962  31.348   5.967   6.150
 8681POPC   C1A54963  31.467   5.856   6.450
 8681POPC   D2A54964  31.490   5.827   6.750
 8681POPC   C3A54965  31.468   5.855   7.050
 8681POPC   C4A54966  31.448   5.868   7.350
 8681POPC   C1B54967  31.289   5.969   6.450
 8681POPC   C2B54968  31.219   5.968   6.750
 8681POPC   C3B54969  31.294   5.977   7.050
 8681POPC   C4B54970  31.263   6.009   7.350
 8682POPC   NC354971   8.231  22.893   5.550
 8682POPC   PO454972   8.191  22.959   5.850
 8682POPC   GL154973   8.179  22.917   6.150
 8682POPC   GL254974   8.146  23.095   6.150
 8682POPC   C1A54975   8.162  22.965   6.450
 8682POPC   D2A54976   8.200  22.904   6.750
 8682POPC   C3A54977   8.221  22.984   7.050
 8682POPC   C4A54978   8.204  22.970   7.350
 8682POPC   C1B54979   8.118  23.184   6.450
 8682POPC   C2B54980   8.156  23.172   6.750
 8682POPC   C3B54981   8.147  23.140   7.050
 8682POPC   C4B54982   8.092  23.139   7.350
 8683POPC   NC354983   3.507  35.370   5.550
 8683POPC   PO454984   3.573  35.374   5.850
 8683POPC   GL154985   3.535  35.378   6.150
 8683POPC   GL254986   3.671  35.265   6.150
 8683POPC   C1A54987   3.559  35.315   6.450
 8683POPC   D2A54988   3.505  35.385   6.750
 8683POPC   C3A54989   3.496  35.335   7.050
 8683POPC   C4A54990   3.534  35.323   7.350
 8683POPC   C1B54991   3.734  35.225   6.450
 8683POPC   C2B54992   3.730  35.233   6.750
 8683POPC   C3B54993   3.769  35.232   7.050
 8683POPC   C4B54994   3.819  35.278   7.350
 8684POPC   NC354995  22.940  39.233   5.550
 8684POPC   PO454996  22.916  39.213   5.850
 8684POPC   GL154997  22.904  39.195   6.150
 8684POPC   GL254998  22.828  39.308   6.150
 8684POPC   C1A54999  22.932  39.186   6.450
 8684POPC   D2A55000  22.914  39.267   6.750
 8684POPC   C3A55001  22.964  39.208   7.050
 8684POPC   C4A55002  22.934  39.219   7.350
 8684POPC   C1B55003  22.738  39.310   6.450
 8684POPC   C2B55004  22.739  39.383   6.750
 8684POPC   C3B55005  22.707  39.396   7.050
 8684POPC   C4B55006  22.680  39.389   7.350
 8685POPC   NC355007  26.859  11.272   5.550
 8685POPC   PO455008  26.839  11.335   5.850
 8685POPC   GL155009  26.786  11.270   6.150
 8685POPC   GL255010  26.866  11.368   6.150
 8685POPC   C1A55011  26.780  11.285   6.450
 8685POPC   D2A55012  26.802  11.301   6.750
 8685POPC   C3A55013  26.854  11.269   7.050
 8685POPC   C4A55014  26.830  11.288   7.350
 8685POPC   C1B55015  26.888  11.517   6.450
 8685POPC   C2B55016  26.922  11.521   6.750
 8685POPC   C3B55017  26.929  11.542   7.050
 8685POPC   C4B55018  26.914  11.507   7.350
 8686POPC   NC355019  34.575  15.943   5.550
 8686POPC   PO455020  34.592  15.945   5.850
 8686POPC   GL155021  34.601  15.968   6.150
 8686POPC   GL255022  34.482  16.057   6.150
 8686POPC   C1A55023  34.562  15.933   6.450
 8686POPC   D2A55024  34.573  15.947   6.750
 8686POPC   C3A55025  34.573  15.977   7.050
 8686POPC   C4A55026  34.611  15.953   7.350
 8686POPC   C1B55027  34.361  16.127   6.450
 8686POPC   C2B55028  34.352  16.142   6.750
 8686POPC   C3B55029  34.413  16.155   7.050
 8686POPC   C4B55030  34.376  16.097   7.350
 8687POPC   NC355031  39.963  14.357   5.550
 8687POPC   PO455032  40.015  14.419   5.850
 8687POPC   GL155033  39.964  14.359   6.150
 8687POPC   GL255034  40.027  14.529   6.150
 8687POPC   C1A55035  40.046  14.398   6.450
 8687POPC   D2A55036  40.021  14.366   6.750
 8687POPC   C3A55037  40.011  14.383   7.050
 8687POPC   C4A55038  40.026  14.424   7.350
 8687POPC   C1B55039  40.033  14.639   6.450
 8687POPC   C2B55040  40.009  14.626   6.750
 8687POPC   C3B55041  40.010  14.670   7.050
 8687POPC   C4B55042  40.023  14.690   7.350
 8688POPC   NC355043   2.802  27.635   5.550
 8688POPC   PO455044   2.731  27.630   5.850
 8688POPC   GL155045   2.771  27.593   6.150
 8688POPC   GL255046   2.885  27.591   6.150
 8688POPC   C1A55047   2.767  27.583   6.450
 8688POPC   D2A55048   2.778  27.544   6.750
 8688POPC   C3A55049   2.775  27.592   7.050
 8688POPC   C4A55050   2.786  27.579   7.350
 8688POPC   C1B55051   3.052  27.655   6.450
 8688POPC   C2B55052   2.989  27.668   6.750
 8688POPC   C3B55053   2.991  27.667   7.050
 8688POPC   C4B55054   3.033  27.638   7.350
 8689POPC   NC355055  26.811  28.404   5.550
 8689POPC   PO455056  26.864  28.401   5.850
 8689POPC   GL155057  26.815  28.342   6.150
 8689POPC   GL255058  26.952  28.330   6.150
 8689POPC   C1A55059  26.858  28.383   6.450
 8689POPC   D2A55060  26.857  28.366   6.750
 8689POPC   C3A55061  26.782  28.373   7.050
 8689POPC   C4A55062  26.792  28.366   7.350
 8689POPC   C1B55063  27.081  28.389   6.450
 8689POPC   C2B55064  27.025  28.353   6.750
 8689POPC   C3B55065  27.030  28.365   7.050
 8689POPC   C4B55066  27.024  28.326   7.350
 8690POPC   NC355067   2.753  15.945   5.550
 8690POPC   PO455068   2.759  15.912   5.850
 8690POPC   GL155069   2.749  15.905   6.150
 8690POPC   GL255070   2.691  16.095   6.150
 8690POPC   C1A55071   2.792  15.965   6.450
 8690POPC   D2A55072   2.812  15.918   6.750
 8690POPC   C3A55073   2.770  15.918   7.050
 8690POPC   C4A55074   2.727  15.962   7.350
 8690POPC   C1B55075   2.611  16.190   6.450
 8690POPC   C2B55076   2.607  16.158   6.750
 8690POPC   C3B55077   2.661  16.193   7.050
 8690POPC   C4B55078   2.666  16.203   7.350
 8691POPC   NC355079   9.014  17.528   5.550
 8691POPC   PO455080   8.985  17.499   5.850
 8691POPC   GL155081   8.973  17.554   6.150
 8691POPC   GL255082   8.848  17.496   6.150
 8691POPC   C1A55083   8.995  17.533   6.450
 8691POPC   D2A55084   9.015  17.462   6.750
 8691POPC   C3A55085   8.980  17.458   7.050
 8691POPC   C4A55086   9.002  17.459   7.350
 8691POPC   C1B55087   8.750  17.382   6.450
 8691POPC   C2B55088   8.785  17.439   6.750
 8691POPC   C3B55089   8.726  17.425   7.050
 8691POPC   C4B55090   8.726  17.462   7.350
 8692POPC   NC355091   4.301  36.890   5.550
 8692POPC   PO455092   4.359  36.935   5.850
 8692POPC   GL155093   4.304  36.913   6.150
 8692POPC   GL255094   4.244  36.938   6.150
 8692POPC   C1A55095   4.307  36.861   6.450
 8692POPC   D2A55096   4.335  36.952   6.750
 8692POPC   C3A55097   4.307  36.867   7.050
 8692POPC   C4A55098   4.330  36.869   7.350
 8692POPC   C1B55099   4.127  36.994   6.450
 8692POPC   C2B55100   4.079  37.031   6.750
 8692POPC   C3B55101   4.106  36.962   7.050
 8692POPC   C4B55102   4.049  36.984   7.350
 8693POPC   NC355103   0.469  15.971   5.550
 8693POPC   PO455104   0.408  15.967   5.850
 8693POPC   GL155105   0.458  15.976   6.150
 8693POPC   GL255106   0.348  15.895   6.150
 8693POPC   C1A55107   0.459  15.914   6.450
 8693POPC   D2A55108   0.389  15.979   6.750
 8693POPC   C3A55109   0.418  15.927   7.050
 8693POPC   C4A55110   0.453  15.934   7.350
 8693POPC   C1B55111   0.315  15.755   6.450
 8693POPC   C2B55112   0.329  15.764   6.750
 8693POPC   C3B55113   0.327  15.770   7.050
 8693POPC   C4B55114   0.336  15.757   7.350
 8694POPC   NC355115   3.500  44.639   5.550
 8694POPC   PO455116   3.523  44.695   5.850
 8694POPC   GL155117   3.509  44.618   6.150
 8694POPC   GL255118   3.529  44.794   6.150
 8694POPC   C1A55119   3.574  44.620   6.450
 8694POPC   D2A55120   3.581  44.711   6.750
 8694POPC   C3A55121   3.527  44.675   7.050
 8694POPC   C4A55122   3.526  44.672   7.350
 8694POPC   C1B55123   3.468  44.921   6.450
 8694POPC   C2B55124   3.505  44.858   6.750
 8694POPC   C3B55125   3.431  44.865   7.050
 8694POPC   C4B55126   3.501  44.860   7.350
 8695POPC   NC355127  43.117   4.334   5.550
 8695POPC   PO455128  43.097   4.359   5.850
 8695POPC   GL155129  43.158   4.343   6.150
 8695POPC   GL255130  43.039   4.444   6.150
 8695POPC   C1A55131  43.145   4.335   6.450
 8695POPC   D2A55132  43.121   4.347   6.750
 8695POPC   C3A55133  43.114   4.332   7.050
 8695POPC   C4A55134  43.069   4.285   7.350
 8695POPC   C1B55135  42.928   4.562   6.450
 8695POPC   C2B55136  43.022   4.512   6.750
 8695POPC   C3B55137  42.950   4.566   7.050
 8695POPC   C4B55138  42.991   4.540   7.350
 8696POPC   NC355139   9.743  35.314   5.550
 8696POPC   PO455140   9.760  35.306   5.850
 8696POPC   GL155141   9.752  35.357   6.150
 8696POPC   GL255142   9.640  35.278   6.150
 8696POPC   C1A55143   9.781  35.399   6.450
 8696POPC   D2A55144   9.781  35.305   6.750
 8696POPC   C3A55145   9.764  35.380   7.050
 8696POPC   C4A55146   9.790  35.334   7.350
 8696POPC   C1B55147   9.601  35.152   6.450
 8696POPC   C2B55148   9.626  35.131   6.750
 8696POPC   C3B55149   9.563  35.111   7.050
 8696POPC   C4B55150   9.626  35.188   7.350
 8697POPC   NC355151  18.284  11.285   5.550
 8697POPC   PO455152  18.325  11.264   5.850
 8697POPC   GL155153  18.289  11.267   6.150
 8697POPC   GL255154  18.159  11.225   6.150
 8697POPC   C1A55155  18.263  11.306   6.450
 8697POPC   D2A55156  18.315  11.301   6.750
 8697POPC   C3A55157  18.299  11.273   7.050
 8697POPC   C4A55158  18.262  11.271   7.350
 8697POPC   C1B55159  18.027  11.210   6.450
 8697POPC   C2B55160  17.993  11.262   6.750
 8697POPC   C3B55161  18.083  11.216   7.050
 8697POPC   C4B55162  18.019  11.201   7.350
 8698POPC   NC355163   1.207  20.569   5.550
 8698POPC   PO455164   1.181  20.623   5.850
 8698POPC   GL155165   1.202  20.611   6.150
 8698POPC   GL255166   1.101  20.614   6.150
 8698POPC   C1A55167   1.227  20.606   6.450
 8698POPC   D2A55168   1.189  20.588   6.750
 8698POPC   C3A55169   1.174  20.642   7.050
 8698POPC   C4A55170   1.219  20.615   7.350
 8698POPC   C1B55171   1.006  20.520   6.450
 8698POPC   C2B55172   1.007  20.503   6.750
 8698POPC   C3B55173   0.968  20.569   7.050
 8698POPC   C4B55174   1.030  20.564   7.350
 8699POPC   NC355175   6.625   7.428   5.550
 8699POPC   PO455176   6.681   7.416   5.850
 8699POPC   GL155177   6.604   7.399   6.150
 8699POPC   GL255178   6.769   7.389   6.150
 8699POPC   C1A55179   6.692   7.449   6.450
 8699POPC   D2A55180   6.659   7.434   6.750
 8699POPC   C3A55181   6.637   7.419   7.050
 8699POPC   C4A55182   6.660   7.373   7.350
 8699POPC   C1B55183   6.855   7.288   6.450
 8699POPC   C2B55184   6.860   7.334   6.750
 8699POPC   C3B55185   6.880   7.333   7.050
 8699POPC   C4B55186   6.906   7.246   7.350
 8700POPC   NC355187  42.301  15.178   5.550
 8700POPC   PO455188  42.292  15.216   5.850
 8700POPC   GL155189  42.290  15.131   6.150
 8700POPC   GL255190  42.205  15.146   6.150
 8700POPC   C1A55191  42.318  15.221   6.450
 8700POPC   D2A55192  42.307  15.204   6.750
 8700POPC   C3A55193  42.334  15.174   7.050
 8700POPC   C4A55194  42.373  15.204   7.350
 8700POPC   C1B55195  42.091  15.176   6.450
 8700POPC   C2B55196  42.069  15.177   6.750
 8700POPC   C3B55197  42.060  15.170   7.050
 8700POPC   C4B55198  42.054  15.159   7.350
 8701POPC   NC355199  39.974  38.438   5.550
 8701POPC   PO455200  40.002  38.424   5.850
 8701POPC   GL155201  39.991  38.491   6.150
 8701POPC   GL255202  39.962  38.326   6.150
 8701POPC   C1A55203  40.037  38.414   6.450
 8701POPC   D2A55204  39.972  38.503   6.750
 8701POPC   C3A55205  40.020  38.505   7.050
 8701POPC   C4A55206  40.056  38.448   7.350
 8701POPC   C1B55207  39.839  38.244   6.450
 8701POPC   C2B55208  39.830  38.318   6.750
 8701POPC   C3B55209  39.787  38.326   7.050
 8701POPC   C4B55210  39.794  38.274   7.350
 8702POPC   NC355211   8.179   4.344   5.550
 8702POPC   PO455212   8.246   4.340   5.850
 8702POPC   GL155213   8.186   4.280   6.150
 8702POPC   GL255214   8.299   4.376   6.150
 8702POPC   C1A55215   8.211   4.322   6.450
 8702POPC   D2A55216   8.242   4.329   6.750
 8702POPC   C3A55217   8.183   4.331   7.050
 8702POPC   C4A55218   8.223   4.330   7.350
 8702POPC   C1B55219   8.454   4.371   6.450
 8702POPC   C2B55220   8.419   4.407   6.750
 8702POPC   C3B55221   8.461   4.420   7.050
 8702POPC   C4B55222   8.405   4.343   7.350
 8703POPC   NC355223  17.499  17.513   5.550
 8703POPC   PO455224  17.476  17.502   5.850
 8703POPC   GL155225  17.480  17.524   6.150
 8703POPC   GL255226  17.523  17.584   6.150
 8703POPC   C1A55227  17.526  17.483   6.450
 8703POPC   D2A55228  17.546  17.464   6.750
 8703POPC   C3A55229  17.493  17.525   7.050
 8703POPC   C4A55230  17.515  17.516   7.350
 8703POPC   C1B55231  17.565  17.776   6.450
 8703POPC   C2B55232  17.621  17.776   6.750
 8703POPC   C3B55233  17.618  17.774   7.050
 8703POPC   C4B55234  17.584  17.749   7.350
 8704POPC   NC355235  26.856  26.859   5.550
 8704POPC   PO455236  26.863  26.791   5.850
 8704POPC   GL155237  26.771  26.781   6.150
 8704POPC   GL255238  26.727  26.681   6.150
 8704POPC   C1A55239  26.825  26.834   6.450
 8704POPC   D2A55240  26.798  26.786   6.750
 8704POPC   C3A55241  26.784  26.807   7.050
 8704POPC   C4A55242  26.815  26.770   7.350
 8704POPC   C1B55243  26.707  26.542   6.450
 8704POPC   C2B55244  26.756  26.626   6.750
 8704POPC   C3B55245  26.696  26.545   7.050
 8704POPC   C4B55246  26.703  26.630   7.350
 8705POPC   NC355247  12.827  31.444   5.550
 8705POPC   PO455248  12.843  31.463   5.850
 8705POPC   GL155249  12.897  31.493   6.150
 8705POPC   GL255250  12.711  31.409   6.150
 8705POPC   C1A55251  12.845  31.505   6.450
 8705POPC   D2A55252  12.810  31.518   6.750
 8705POPC   C3A55253  12.836  31.441   7.050
 8705POPC   C4A55254  12.865  31.468   7.350
 8705POPC   C1B55255  12.599  31.450   6.450
 8705POPC   C2B55256  12.646  31.473   6.750
 8705POPC   C3B55257  12.631  31.412   7.050
 8705POPC   C4B55258  12.617  31.457   7.350
 8706POPC   NC355259  12.893  10.535   5.550
 8706POPC   PO455260  12.854  10.552   5.850
 8706POPC   GL155261  12.896  10.507   6.150
 8706POPC   GL255262  12.967  10.538   6.150
 8706POPC   C1A55263  12.898  10.526   6.450
 8706POPC   D2A55264  12.806  10.536   6.750
 8706POPC   C3A55265  12.863  10.516   7.050
 8706POPC   C4A55266  12.886  10.476   7.350
 8706POPC   C1B55267  13.084  10.617   6.450
 8706POPC   C2B55268  13.108  10.597   6.750
 8706POPC   C3B55269  13.050  10.554   7.050
 8706POPC   C4B55270  13.125  10.544   7.350
 8707POPC   NC355271  28.395   2.721   5.550
 8707POPC   PO455272  28.348   2.748   5.850
 8707POPC   GL155273  28.363   2.803   6.150
 8707POPC   GL255274  28.454   2.749   6.150
 8707POPC   C1A55275  28.353   2.759   6.450
 8707POPC   D2A55276  28.410   2.810   6.750
 8707POPC   C3A55277  28.388   2.802   7.050
 8707POPC   C4A55278  28.365   2.795   7.350
 8707POPC   C1B55279  28.601   2.671   6.450
 8707POPC   C2B55280  28.605   2.629   6.750
 8707POPC   C3B55281  28.575   2.655   7.050
 8707POPC   C4B55282  28.625   2.612   7.350
 8708POPC   NC355283  24.523   5.123   5.550
 8708POPC   PO455284  24.474   5.106   5.850
 8708POPC   GL155285  24.501   5.111   6.150
 8708POPC   GL255286  24.567   5.058   6.150
 8708POPC   C1A55287  24.508   5.078   6.450
 8708POPC   D2A55288  24.505   5.087   6.750
 8708POPC   C3A55289  24.458   5.140   7.050
 8708POPC   C4A55290  24.490   5.082   7.350
 8708POPC   C1B55291  24.682   5.021   6.450
 8708POPC   C2B55292  24.698   4.975   6.750
 8708POPC   C3B55293  24.716   4.976   7.050
 8708POPC   C4B55294  24.695   4.968   7.350
 8709POPC   NC355295  24.481  44.663   5.550
 8709POPC   PO455296  24.458  44.692   5.850
 8709POPC   GL155297  24.456  44.689   6.150
 8709POPC   GL255298  24.555  44.522   6.150
 8709POPC   C1A55299  24.523  44.624   6.450
 8709POPC   D2A55300  24.464  44.663   6.750
 8709POPC   C3A55301  24.486  44.615   7.050
 8709POPC   C4A55302  24.447  44.666   7.350
 8709POPC   C1B55303  24.615  44.441   6.450
 8709POPC   C2B55304  24.606  44.492   6.750
 8709POPC   C3B55305  24.617  44.399   7.050
 8709POPC   C4B55306  24.645  44.443   7.350
 8710POPC   NC355307  43.861  12.834   5.550
 8710POPC   PO455308  43.933  12.884   5.850
 8710POPC   GL155309  43.922  12.899   6.150
 8710POPC   GL255310  43.813  12.726   6.150
 8710POPC   C1A55311  43.872  12.808   6.450
 8710POPC   D2A55312  43.846  12.866   6.750
 8710POPC   C3A55313  43.854  12.889   7.050
 8710POPC   C4A55314  43.865  12.854   7.350
 8710POPC   C1B55315  43.849  12.650   6.450
 8710POPC   C2B55316  43.850  12.651   6.750
 8710POPC   C3B55317  43.840  12.564   7.050
 8710POPC   C4B55318  43.811  12.614   7.350
 8711POPC   NC355319  40.828  40.813   5.550
 8711POPC   PO455320  40.769  40.746   5.850
 8711POPC   GL155321  40.771  40.781   6.150
 8711POPC   GL255322  40.924  40.820   6.150
 8711POPC   C1A55323  40.818  40.742   6.450
 8711POPC   D2A55324  40.812  40.801   6.750
 8711POPC   C3A55325  40.737  40.772   7.050
 8711POPC   C4A55326  40.782  40.799   7.350
 8711POPC   C1B55327  41.018  40.814   6.450
 8711POPC   C2B55328  41.003  40.869   6.750
 8711POPC   C3B55329  41.022  40.824   7.050
 8711POPC   C4B55330  41.038  40.840   7.350
 8712POPC   NC355331  34.547  36.908   5.550
 8712POPC   PO455332  34.559  36.929   5.850
 8712POPC   GL155333  34.623  36.933   6.150
 8712POPC   GL255334  34.611  36.819   6.150
 8712POPC   C1A55335  34.623  36.948   6.450
 8712POPC   D2A55336  34.534  36.892   6.750
 8712POPC   C3A55337  34.607  36.878   7.050
 8712POPC   C4A55338  34.544  36.934   7.350
 8712POPC   C1B55339  34.546  36.644   6.450
 8712POPC   C2B55340  34.573  36.613   6.750
 8712POPC   C3B55341  34.597  36.604   7.050
 8712POPC   C4B55342  34.574  36.687   7.350
 8713POPC   NC355343  14.402  18.248   5.550
 8713POPC   PO455344  14.388  18.270   5.850
 8713POPC   GL155345  14.397  18.277   6.150
 8713POPC   GL255346  14.286  18.287   6.150
 8713POPC   C1A55347  14.409  18.273   6.450
 8713POPC   D2A55348  14.415  18.266   6.750
 8713POPC   C3A55349  14.429  18.320   7.050
 8713POPC   C4A55350  14.383  18.276   7.350
 8713POPC   C1B55351  14.147  18.235   6.450
 8713POPC   C2B55352  14.154  18.173   6.750
 8713POPC   C3B55353  14.196  18.187   7.050
 8713POPC   C4B55354  14.160  18.173   7.350
 8714POPC   NC355355  35.340  36.150   5.550
 8714POPC   PO455356  35.379  36.167   5.850
 8714POPC   GL155357  35.386  36.111   6.150
 8714POPC   GL255358  35.333  36.227   6.150
 8714POPC   C1A55359  35.304  36.169   6.450
 8714POPC   D2A55360  35.333  36.141   6.750
 8714POPC   C3A55361  35.314  36.166   7.050
 8714POPC   C4A55362  35.315  36.173   7.350
 8714POPC   C1B55363  35.274  36.383   6.450
 8714POPC   C2B55364  35.208  36.387   6.750
 8714POPC   C3B55365  35.259  36.347   7.050
 8714POPC   C4B55366  35.231  36.376   7.350
 8715POPC   NC355367  12.111  22.123   5.550
 8715POPC   PO455368  12.026  22.165   5.850
 8715POPC   GL155369  12.055  22.175   6.150
 8715POPC   GL255370  11.988  22.314   6.150
 8715POPC   C1A55371  12.107  22.210   6.450
 8715POPC   D2A55372  12.113  22.186   6.750
 8715POPC   C3A55373  12.028  22.129   7.050
 8715POPC   C4A55374  12.124  22.188   7.350
 8715POPC   C1B55375  11.974  22.421   6.450
 8715POPC   C2B55376  12.004  22.403   6.750
 8715POPC   C3B55377  11.998  22.416   7.050
 8715POPC   C4B55378  11.998  22.338   7.350
 8716POPC   NC355379  29.109   8.998   5.550
 8716POPC   PO455380  29.184   8.945   5.850
 8716POPC   GL155381  29.181   8.927   6.150
 8716POPC   GL255382  29.129   9.143   6.150
 8716POPC   C1A55383  29.114   8.950   6.450
 8716POPC   D2A55384  29.157   8.966   6.750
 8716POPC   C3A55385  29.154   9.022   7.050
 8716POPC   C4A55386  29.187   9.008   7.350
 8716POPC   C1B55387  29.214   9.219   6.450
 8716POPC   C2B55388  29.138   9.239   6.750
 8716POPC   C3B55389  29.210   9.205   7.050
 8716POPC   C4B55390  29.234   9.205   7.350
 8717POPC   NC355391  31.453  33.034   5.550
 8717POPC   PO455392  31.497  32.986   5.850
 8717POPC   GL155393  31.446  32.981   6.150
 8717POPC   GL255394  31.359  32.994   6.150
 8717POPC   C1A55395  31.497  33.045   6.450
 8717POPC   D2A55396  31.509  33.049   6.750
 8717POPC   C3A55397  31.519  33.009   7.050
 8717POPC   C4A55398  31.453  33.056   7.350
 8717POPC   C1B55399  31.259  32.905   6.450
 8717POPC   C2B55400  31.288  32.831   6.750
 8717POPC   C3B55401  31.266  32.900   7.050
 8717POPC   C4B55402  31.270  32.855   7.350
 8718POPC   NC355403  43.879  25.309   5.550
 8718POPC   PO455404  43.915  25.263   5.850
 8718POPC   GL155405  43.909  25.243   6.150
 8718POPC   GL255406  43.810  25.398   6.150
 8718POPC   C1A55407  43.890  25.281   6.450
 8718POPC   D2A55408  43.930  25.272   6.750
 8718POPC   C3A55409  43.919  25.244   7.050
 8718POPC   C4A55410  43.841  25.261   7.350
 8718POPC   C1B55411  43.787  25.524   6.450
 8718POPC   C2B55412  43.747  25.488   6.750
 8718POPC   C3B55413  43.728  25.502   7.050
 8718POPC   C4B55414  43.767  25.506   7.350
 8719POPC   NC355415  29.161  21.377   5.550
 8719POPC   PO455416  29.180  21.421   5.850
 8719POPC   GL155417  29.103  21.387   6.150
 8719POPC   GL255418  29.101  21.233   6.150
 8719POPC   C1A55419  29.175  21.416   6.450
 8719POPC   D2A55420  29.180  21.428   6.750
 8719POPC   C3A55421  29.126  21.433   7.050
 8719POPC   C4A55422  29.144  21.348   7.350
 8719POPC   C1B55423  29.060  21.114   6.450
 8719POPC   C2B55424  29.122  21.154   6.750
 8719POPC   C3B55425  29.092  21.174   7.050
 8719POPC   C4B55426  29.109  21.145   7.350
 8720POPC   NC355427   2.764  25.255   5.550
 8720POPC   PO455428   2.805  25.251   5.850
 8720POPC   GL155429   2.789  25.267   6.150
 8720POPC   GL255430   2.818  25.175   6.150
 8720POPC   C1A55431   2.808  25.234   6.450
 8720POPC   D2A55432   2.726  25.219   6.750
 8720POPC   C3A55433   2.750  25.246   7.050
 8720POPC   C4A55434   2.726  25.308   7.350
 8720POPC   C1B55435   2.809  25.050   6.450
 8720POPC   C2B55436   2.815  24.986   6.750
 8720POPC   C3B55437   2.839  24.991   7.050
 8720POPC   C4B55438   2.848  25.020   7.350
 8721POPC   NC355439   1.991  18.271   5.550
 8721POPC   PO455440   1.942  18.312   5.850
 8721POPC   GL155441   1.964  18.267   6.150
 8721POPC   GL255442   1.847  18.231   6.150
 8721POPC   C1A55443   2.023  18.266   6.450
 8721POPC   D2A55444   1.945  18.251   6.750
 8721POPC   C3A55445   1.993  18.289   7.050
 8721POPC   C4A55446   1.996  18.308   7.350
 8721POPC   C1B55447   1.795  18.194   6.450
 8721POPC   C2B55448   1.798  18.176   6.750
 8721POPC   C3B55449   1.772  18.194   7.050
 8721POPC   C4B55450   1.747  18.182   7.350
 8722POPC   NC355451  16.753  12.092   5.550
 8722POPC   PO455452  16.717  12.093   5.850
 8722POPC   GL155453  16.745  12.063   6.150
 8722POPC   GL255454  16.777  11.905   6.150
 8722POPC   C1A55455  16.726  12.061   6.450
 8722POPC   D2A55456  16.693  12.034   6.750
 8722POPC   C3A55457  16.718  12.067   7.050
 8722POPC   C4A55458  16.725  12.045   7.350
 8722POPC   C1B55459  16.781  11.857   6.450
 8722POPC   C2B55460  16.798  11.846   6.750
 8722POPC   C3B55461  16.721  11.850   7.050
 8722POPC   C4B55462  16.740  11.827   7.350
 8723POPC   NC355463  12.099   3.542   5.550
 8723POPC   PO455464  12.053   3.517   5.850
 8723POPC   GL155465  12.077   3.512   6.150
 8723POPC   GL255466  11.973   3.456   6.150
 8723POPC   C1A55467  12.043   3.502   6.450
 8723POPC   D2A55468  12.087   3.583   6.750
 8723POPC   C3A55469  12.054   3.589   7.050
 8723POPC   C4A55470  12.028   3.552   7.350
 8723POPC   C1B55471  11.847   3.418   6.450
 8723POPC   C2B55472  11.854   3.359   6.750
 8723POPC   C3B55473  11.876   3.396   7.050
 8723POPC   C4B55474  11.841   3.382   7.350
 8724POPC   NC355475  22.927  33.801   5.550
 8724POPC   PO455476  22.901  33.773   5.850
 8724POPC   GL155477  22.941  33.794   6.150
 8724POPC   GL255478  22.828  33.795   6.150
 8724POPC   C1A55479  22.901  33.759   6.450
 8724POPC   D2A55480  22.937  33.774   6.750
 8724POPC   C3A55481  22.890  33.838   7.050
 8724POPC   C4A55482  22.950  33.806   7.350
 8724POPC   C1B55483  22.660  33.733   6.450
 8724POPC   C2B55484  22.742  33.735   6.750
 8724POPC   C3B55485  22.724  33.697   7.050
 8724POPC   C4B55486  22.709  33.726   7.350
 8725POPC   NC355487  22.895   3.580   5.550
 8725POPC   PO455488  22.907   3.513   5.850
 8725POPC   GL155489  22.984   3.523   6.150
 8725POPC   GL255490  22.787   3.634   6.150
 8725POPC   C1A55491  22.935   3.506   6.450
 8725POPC   D2A55492  22.969   3.537   6.750
 8725POPC   C3A55493  22.936   3.555   7.050
 8725POPC   C4A55494  22.944   3.559   7.350
 8725POPC   C1B55495  22.727   3.662   6.450
 8725POPC   C2B55496  22.721   3.682   6.750
 8725POPC   C3B55497  22.737   3.692   7.050
 8725POPC   C4B55498  22.681   3.714   7.350
 8726POPC   NC355499  10.493   6.619   5.550
 8726POPC   PO455500  10.548   6.690   5.850
 8726POPC   GL155501  10.506   6.659   6.150
 8726POPC   GL255502  10.625   6.578   6.150
 8726POPC   C1A55503  10.477   6.622   6.450
 8726POPC   D2A55504  10.556   6.596   6.750
 8726POPC   C3A55505  10.475   6.614   7.050
 8726POPC   C4A55506  10.568   6.682   7.350
 8726POPC   C1B55507  10.687   6.523   6.450
 8726POPC   C2B55508  10.701   6.528   6.750
 8726POPC   C3B55509  10.692   6.488   7.050
 8726POPC   C4B55510  10.682   6.456   7.350
 8727POPC   NC355511  30.686  36.110   5.550
 8727POPC   PO455512  30.711  36.149   5.850
 8727POPC   GL155513  30.726  36.141   6.150
 8727POPC   GL255514  30.814  36.210   6.150
 8727POPC   C1A55515  30.728  36.120   6.450
 8727POPC   D2A55516  30.711  36.173   6.750
 8727POPC   C3A55517  30.741  36.113   7.050
 8727POPC   C4A55518  30.688  36.172   7.350
 8727POPC   C1B55519  30.828  36.313   6.450
 8727POPC   C2B55520  30.828  36.273   6.750
 8727POPC   C3B55521  30.919  36.357   7.050
 8727POPC   C4B55522  30.842  36.337   7.350
 8728POPC   NC355523  15.210  22.204   5.550
 8728POPC   PO455524  15.191  22.211   5.850
 8728POPC   GL155525  15.212  22.210   6.150
 8728POPC   GL255526  15.099  22.106   6.150
 8728POPC   C1A55527  15.207  22.179   6.450
 8728POPC   D2A55528  15.203  22.135   6.750
 8728POPC   C3A55529  15.206  22.201   7.050
 8728POPC   C4A55530  15.170  22.212   7.350
 8728POPC   C1B55531  14.926  22.027   6.450
 8728POPC   C2B55532  14.942  21.989   6.750
 8728POPC   C3B55533  14.999  22.045   7.050
 8728POPC   C4B55534  15.002  22.063   7.350
 8729POPC   NC355535   6.682  26.781   5.550
 8729POPC   PO455536   6.620  26.779   5.850
 8729POPC   GL155537   6.621  26.805   6.150
 8729POPC   GL255538   6.801  26.864   6.150
 8729POPC   C1A55539   6.646  26.809   6.450
 8729POPC   D2A55540   6.684  26.835   6.750
 8729POPC   C3A55541   6.643  26.833   7.050
 8729POPC   C4A55542   6.600  26.768   7.350
 8729POPC   C1B55543   6.922  26.897   6.450
 8729POPC   C2B55544   6.923  26.911   6.750
 8729POPC   C3B55545   6.859  26.884   7.050
 8729POPC   C4B55546   6.884  26.934   7.350
 8730POPC   NC355547  25.268  36.156   5.550
 8730POPC   PO455548  25.220  36.098   5.850
 8730POPC   GL155549  25.271  36.082   6.150
 8730POPC   GL255550  25.319  36.254   6.150
 8730POPC   C1A55551  25.278  36.146   6.450
 8730POPC   D2A55552  25.219  36.103   6.750
 8730POPC   C3A55553  25.309  36.090   7.050
 8730POPC   C4A55554  25.291  36.142   7.350
 8730POPC   C1B55555  25.433  36.306   6.450
 8730POPC   C2B55556  25.388  36.370   6.750
 8730POPC   C3B55557  25.445  36.352   7.050
 8730POPC   C4B55558  25.408  36.312   7.350
 8731POPC   NC355559   6.640  12.880   5.550
 8731POPC   PO455560   6.655  12.873   5.850
 8731POPC   GL155561   6.680  12.863   6.150
 8731POPC   GL255562   6.705  12.719   6.150
 8731POPC   C1A55563   6.612  12.839   6.450
 8731POPC   D2A55564   6.628  12.890   6.750
 8731POPC   C3A55565   6.601  12.875   7.050
 8731POPC   C4A55566   6.612  12.823   7.350
 8731POPC   C1B55567   6.653  12.592   6.450
 8731POPC   C2B55568   6.717  12.598   6.750
 8731POPC   C3B55569   6.640  12.593   7.050
 8731POPC   C4B55570   6.686  12.603   7.350
 8732POPC   NC355571  28.412  44.643   5.550
 8732POPC   PO455572  28.412  44.636   5.850
 8732POPC   GL155573  28.344  44.677   6.150
 8732POPC   GL255574  28.482  44.660   6.150
 8732POPC   C1A55575  28.408  44.681   6.450
 8732POPC   D2A55576  28.337  44.645   6.750
 8732POPC   C3A55577  28.368  44.628   7.050
 8732POPC   C4A55578  28.389  44.688   7.350
 8732POPC   C1B55579  28.597  44.779   6.450
 8732POPC   C2B55580  28.577  44.736   6.750
 8732POPC   C3B55581  28.614  44.735   7.050
 8732POPC   C4B55582  28.601  44.764   7.350
 8733POPC   NC355583  36.170  35.397   5.550
 8733POPC   PO455584  36.119  35.399   5.850
 8733POPC   GL155585  36.154  35.346   6.150
 8733POPC   GL255586  36.084  35.255   6.150
 8733POPC   C1A55587  36.163  35.373   6.450
 8733POPC   D2A55588  36.079  35.320   6.750
 8733POPC   C3A55589  36.160  35.324   7.050
 8733POPC   C4A55590  36.173  35.345   7.350
 8733POPC   C1B55591  36.067  35.080   6.450
 8733POPC   C2B55592  36.115  35.080   6.750
 8733POPC   C3B55593  36.108  35.135   7.050
 8733POPC   C4B55594  36.050  35.083   7.350
 8734POPC   NC355595  30.693   2.029   5.550
 8734POPC   PO455596  30.727   2.012   5.850
 8734POPC   GL155597  30.726   1.942   6.150
 8734POPC   GL255598  30.619   1.869   6.150
 8734POPC   C1A55599  30.724   2.033   6.450
 8734POPC   D2A55600  30.733   1.949   6.750
 8734POPC   C3A55601  30.699   1.980   7.050
 8734POPC   C4A55602  30.724   2.033   7.350
 8734POPC   C1B55603  30.527   1.795   6.450
 8734POPC   C2B55604  30.570   1.799   6.750
 8734POPC   C3B55605  30.550   1.804   7.050
 8734POPC   C4B55606  30.510   1.859   7.350
 8735POPC   NC355607  33.034  40.760   5.550
 8735POPC   PO455608  33.036  40.807   5.850
 8735POPC   GL155609  33.000  40.801   6.150
 8735POPC   GL255610  32.954  40.780   6.150
 8735POPC   C1A55611  33.013  40.827   6.450
 8735POPC   D2A55612  32.980  40.800   6.750
 8735POPC   C3A55613  32.996  40.759   7.050
 8735POPC   C4A55614  32.979  40.808   7.350
 8735POPC   C1B55615  32.808  40.742   6.450
 8735POPC   C2B55616  32.785  40.653   6.750
 8735POPC   C3B55617  32.833  40.737   7.050
 8735POPC   C4B55618  32.780  40.682   7.350
 8736POPC   NC355619  13.638  18.306   5.550
 8736POPC   PO455620  13.654  18.296   5.850
 8736POPC   GL155621  13.673  18.297   6.150
 8736POPC   GL255622  13.742  18.346   6.150
 8736POPC   C1A55623  13.622  18.236   6.450
 8736POPC   D2A55624  13.599  18.332   6.750
 8736POPC   C3A55625  13.589  18.264   7.050
 8736POPC   C4A55626  13.614  18.300   7.350
 8736POPC   C1B55627  13.908  18.315   6.450
 8736POPC   C2B55628  13.883  18.349   6.750
 8736POPC   C3B55629  13.836  18.363   7.050
 8736POPC   C4B55630  13.821  18.368   7.350
 8737POPC   NC355631   0.473  26.854   5.550
 8737POPC   PO455632   0.466  26.768   5.850
 8737POPC   GL155633   0.440  26.853   6.150
 8737POPC   GL255634   0.540  26.699   6.150
 8737POPC   C1A55635   0.403  26.818   6.450
 8737POPC   D2A55636   0.404  26.788   6.750
 8737POPC   C3A55637   0.434  26.806   7.050
 8737POPC   C4A55638   0.475  26.784   7.350
 8737POPC   C1B55639   0.657  26.630   6.450
 8737POPC   C2B55640   0.616  26.629   6.750
 8737POPC   C3B55641   0.640  26.669   7.050
 8737POPC   C4B55642   0.664  26.658   7.350
 8738POPC   NC355643  36.131  30.708   5.550
 8738POPC   PO455644  36.148  30.703   5.850
 8738POPC   GL155645  36.168  30.732   6.150
 8738POPC   GL255646  36.227  30.629   6.150
 8738POPC   C1A55647  36.165  30.736   6.450
 8738POPC   D2A55648  36.096  30.738   6.750
 8738POPC   C3A55649  36.163  30.681   7.050
 8738POPC   C4A55650  36.115  30.731   7.350
 8738POPC   C1B55651  36.295  30.529   6.450
 8738POPC   C2B55652  36.341  30.565   6.750
 8738POPC   C3B55653  36.303  30.575   7.050
 8738POPC   C4B55654  36.337  30.533   7.350
 8739POPC   NC355655   7.371  40.024   5.550
 8739POPC   PO455656   7.420  40.034   5.850
 8739POPC   GL155657   7.385  39.971   6.150
 8739POPC   GL255658   7.494  40.100   6.150
 8739POPC   C1A55659   7.377  40.016   6.450
 8739POPC   D2A55660   7.383  40.012   6.750
 8739POPC   C3A55661   7.410  39.988   7.050
 8739POPC   C4A55662   7.381  39.977   7.350
 8739POPC   C1B55663   7.619  40.206   6.450
 8739POPC   C2B55664   7.652  40.152   6.750
 8739POPC   C3B55665   7.643  40.128   7.050
 8739POPC   C4B55666   7.644  40.128   7.350
 8740POPC   NC355667  26.038  40.029   5.550
 8740POPC   PO455668  26.037  40.050   5.850
 8740POPC   GL155669  26.013  40.039   6.150
 8740POPC   GL255670  25.965  40.122   6.150
 8740POPC   C1A55671  26.050  39.993   6.450
 8740POPC   D2A55672  26.051  40.034   6.750
 8740POPC   C3A55673  26.078  40.014   7.050
 8740POPC   C4A55674  26.015  40.007   7.350
 8740POPC   C1B55675  25.844  40.198   6.450
 8740POPC   C2B55676  25.858  40.142   6.750
 8740POPC   C3B55677  25.882  40.226   7.050
 8740POPC   C4B55678  25.906  40.197   7.350
 8741POPC   NC355679  33.800   0.397   5.550
 8741POPC   PO455680  33.780   0.436   5.850
 8741POPC   GL155681  33.822   0.452   6.150
 8741POPC   GL255682  33.908   0.408   6.150
 8741POPC   C1A55683  33.806   0.406   6.450
 8741POPC   D2A55684  33.754   0.466   6.750
 8741POPC   C3A55685  33.822   0.459   7.050
 8741POPC   C4A55686  33.823   0.482   7.350
 8741POPC   C1B55687  34.004   0.396   6.450
 8741POPC   C2B55688  34.011   0.370   6.750
 8741POPC   C3B55689  34.001   0.420   7.050
 8741POPC   C4B55690  34.052   0.349   7.350
 8742POPC   NC355691  20.623  13.658   5.550
 8742POPC   PO455692  20.598  13.623   5.850
 8742POPC   GL155693  20.561  13.606   6.150
 8742POPC   GL255694  20.764  13.730   6.150
 8742POPC   C1A55695  20.562  13.581   6.450
 8742POPC   D2A55696  20.655  13.596   6.750
 8742POPC   C3A55697  20.638  13.653   7.050
 8742POPC   C4A55698  20.605  13.581   7.350
 8742POPC   C1B55699  20.781  13.712   6.450
 8742POPC   C2B55700  20.800  13.786   6.750
 8742POPC   C3B55701  20.836  13.751   7.050
 8742POPC   C4B55702  20.845  13.760   7.350
 8743POPC   NC355703  19.856  44.696   5.550
 8743POPC   PO455704  19.824  44.674   5.850
 8743POPC   GL155705  19.806  44.637   6.150
 8743POPC   GL255706  19.719  44.616   6.150
 8743POPC   C1A55707  19.825  44.647   6.450
 8743POPC   D2A55708  19.859  44.704   6.750
 8743POPC   C3A55709  19.818  44.642   7.050
 8743POPC   C4A55710  19.790  44.683   7.350
 8743POPC   C1B55711  19.641  44.558   6.450
 8743POPC   C2B55712  19.587  44.510   6.750
 8743POPC   C3B55713  19.601  44.547   7.050
 8743POPC   C4B55714  19.655  44.533   7.350
 8744POPC   NC355715  36.933  10.507   5.550
 8744POPC   PO455716  36.926  10.567   5.850
 8744POPC   GL155717  36.858  10.574   6.150
 8744POPC   GL255718  36.927  10.609   6.150
 8744POPC   C1A55719  36.947  10.542   6.450
 8744POPC   D2A55720  36.856  10.545   6.750
 8744POPC   C3A55721  36.928  10.518   7.050
 8744POPC   C4A55722  36.899  10.508   7.350
 8744POPC   C1B55723  37.014  10.724   6.450
 8744POPC   C2B55724  37.018  10.738   6.750
 8744POPC   C3B55725  37.001  10.802   7.050
 8744POPC   C4B55726  36.948  10.752   7.350
 8745POPC   NC355727   8.181  41.590   5.550
 8745POPC   PO455728   8.233  41.565   5.850
 8745POPC   GL155729   8.240  41.517   6.150
 8745POPC   GL255730   8.130  41.627   6.150
 8745POPC   C1A55731   8.184  41.534   6.450
 8745POPC   D2A55732   8.186  41.549   6.750
 8745POPC   C3A55733   8.191  41.587   7.050
 8745POPC   C4A55734   8.156  41.513   7.350
 8745POPC   C1B55735   8.133  41.757   6.450
 8745POPC   C2B55736   8.089  41.758   6.750
 8745POPC   C3B55737   8.114  41.813   7.050
 8745POPC   C4B55738   8.119  41.769   7.350
 8746POPC   NC355739  35.377  16.778   5.550
 8746POPC   PO455740  35.360  16.737   5.850
 8746POPC   GL155741  35.380  16.727   6.150
 8746POPC   GL255742  35.396  16.789   6.150
 8746POPC   C1A55743  35.340  16.734   6.450
 8746POPC   D2A55744  35.332  16.780   6.750
 8746POPC   C3A55745  35.368  16.695   7.050
 8746POPC   C4A55746  35.344  16.755   7.350
 8746POPC   C1B55747  35.503  16.898   6.450
 8746POPC   C2B55748  35.459  16.921   6.750
 8746POPC   C3B55749  35.524  16.976   7.050
 8746POPC   C4B55750  35.434  16.946   7.350
 8747POPC   NC355751  37.658  15.215   5.550
 8747POPC   PO455752  37.679  15.175   5.850
 8747POPC   GL155753  37.710  15.159   6.150
 8747POPC   GL255754  37.552  15.074   6.150
 8747POPC   C1A55755  37.698  15.204   6.450
 8747POPC   D2A55756  37.700  15.139   6.750
 8747POPC   C3A55757  37.715  15.221   7.050
 8747POPC   C4A55758  37.630  15.193   7.350
 8747POPC   C1B55759  37.549  14.961   6.450
 8747POPC   C2B55760  37.493  14.940   6.750
 8747POPC   C3B55761  37.541  14.995   7.050
 8747POPC   C4B55762  37.526  14.955   7.350
 8748POPC   NC355763  21.396  12.036   5.550
 8748POPC   PO455764  21.414  12.070   5.850
 8748POPC   GL155765  21.370  12.032   6.150
 8748POPC   GL255766  21.339  11.980   6.150
 8748POPC   C1A55767  21.361  12.068   6.450
 8748POPC   D2A55768  21.351  12.031   6.750
 8748POPC   C3A55769  21.342  12.072   7.050
 8748POPC   C4A55770  21.436  12.065   7.350
 8748POPC   C1B55771  21.267  11.879   6.450
 8748POPC   C2B55772  21.219  11.930   6.750
 8748POPC   C3B55773  21.231  11.867   7.050
 8748POPC   C4B55774  21.196  11.897   7.350
 8749POPC   NC355775  11.282   0.475   5.550
 8749POPC   PO455776  11.262   0.392   5.850
 8749POPC   GL155777  11.279   0.431   6.150
 8749POPC   GL255778  11.268   0.553   6.150
 8749POPC   C1A55779  11.327   0.437   6.450
 8749POPC   D2A55780  11.318   0.442   6.750
 8749POPC   C3A55781  11.319   0.414   7.050
 8749POPC   C4A55782  11.327   0.480   7.350
 8749POPC   C1B55783  11.133   0.610   6.450
 8749POPC   C2B55784  11.166   0.675   6.750
 8749POPC   C3B55785  11.164   0.654   7.050
 8749POPC   C4B55786  11.139   0.680   7.350
 8750POPC   NC355787  21.382  43.896   5.550
 8750POPC   PO455788  21.336  43.877   5.850
 8750POPC   GL155789  21.418  43.910   6.150
 8750POPC   GL255790  21.453  43.808   6.150
 8750POPC   C1A55791  21.357  43.864   6.450
 8750POPC   D2A55792  21.377  43.855   6.750
 8750POPC   C3A55793  21.433  43.933   7.050
 8750POPC   C4A55794  21.377  43.874   7.350
 8750POPC   C1B55795  21.484  43.664   6.450
 8750POPC   C2B55796  21.433  43.693   6.750
 8750POPC   C3B55797  21.463  43.674   7.050
 8750POPC   C4B55798  21.466  43.672   7.350
 8751POPC   NC355799  25.259  32.253   5.550
 8751POPC   PO455800  25.311  32.261   5.850
 8751POPC   GL155801  25.288  32.217   6.150
 8751POPC   GL255802  25.395  32.196   6.150
 8751POPC   C1A55803  25.255  32.266   6.450
 8751POPC   D2A55804  25.304  32.220   6.750
 8751POPC   C3A55805  25.275  32.261   7.050
 8751POPC   C4A55806  25.228  32.207   7.350
 8751POPC   C1B55807  25.547  32.215   6.450
 8751POPC   C2B55808  25.505  32.192   6.750
 8751POPC   C3B55809  25.503  32.148   7.050
 8751POPC   C4B55810  25.525  32.185   7.350
 8752POPC   NC355811   1.981  44.663   5.550
 8752POPC   PO455812   1.951  44.662   5.850
 8752POPC   GL155813   1.963  44.692   6.150
 8752POPC   GL255814   2.125  44.679   6.150
 8752POPC   C1A55815   2.002  44.652   6.450
 8752POPC   D2A55816   2.027  44.708   6.750
 8752POPC   C3A55817   1.976  44.619   7.050
 8752POPC   C4A55818   2.038  44.694   7.350
 8752POPC   C1B55819   2.221  44.734   6.450
 8752POPC   C2B55820   2.165  44.758   6.750
 8752POPC   C3B55821   2.249  44.778   7.050
 8752POPC   C4B55822   2.205  44.799   7.350
 8753POPC   NC355823  11.285  22.188   5.550
 8753POPC   PO455824  11.251  22.201   5.850
 8753POPC   GL155825  11.303  22.184   6.150
 8753POPC   GL255826  11.274  22.021   6.150
 8753POPC   C1A55827  11.260  22.178   6.450
 8753POPC   D2A55828  11.277  22.204   6.750
 8753POPC   C3A55829  11.262  22.171   7.050
 8753POPC   C4A55830  11.259  22.123   7.350
 8753POPC   C1B55831  11.216  21.944   6.450
 8753POPC   C2B55832  11.250  21.902   6.750
 8753POPC   C3B55833  11.236  21.902   7.050
 8753POPC   C4B55834  11.209  21.941   7.350
 8754POPC   NC355835  29.162   1.173   5.550
 8754POPC   PO455836  29.193   1.241   5.850
 8754POPC   GL155837  29.149   1.190   6.150
 8754POPC   GL255838  29.140   1.060   6.150
 8754POPC   C1A55839  29.181   1.194   6.450
 8754POPC   D2A55840  29.169   1.201   6.750
 8754POPC   C3A55841  29.096   1.177   7.050
 8754POPC   C4A55842  29.185   1.185   7.350
 8754POPC   C1B55843  29.163   0.915   6.450
 8754POPC   C2B55844  29.109   0.999   6.750
 8754POPC   C3B55845  29.163   0.995   7.050
 8754POPC   C4B55846  29.118   1.012   7.350
 8755POPC   NC355847  19.061  21.394   5.550
 8755POPC   PO455848  19.073  21.420   5.850
 8755POPC   GL155849  19.099  21.371   6.150
 8755POPC   GL255850  18.965  21.378   6.150
 8755POPC   C1A55851  19.028  21.415   6.450
 8755POPC   D2A55852  19.046  21.396   6.750
 8755POPC   C3A55853  19.103  21.372   7.050
 8755POPC   C4A55854  19.030  21.376   7.350
 8755POPC   C1B55855  18.807  21.361   6.450
 8755POPC   C2B55856  18.841  21.362   6.750
 8755POPC   C3B55857  18.838  21.353   7.050
 8755POPC   C4B55858  18.788  21.342   7.350
 8756POPC   NC355859  10.526  34.597   5.550
 8756POPC   PO455860  10.482  34.571   5.850
 8756POPC   GL155861  10.513  34.578   6.150
 8756POPC   GL255862  10.611  34.447   6.150
 8756POPC   C1A55863  10.565  34.528   6.450
 8756POPC   D2A55864  10.509  34.541   6.750
 8756POPC   C3A55865  10.487  34.547   7.050
 8756POPC   C4A55866  10.486  34.563   7.350
 8756POPC   C1B55867  10.694  34.356   6.450
 8756POPC   C2B55868  10.612  34.324   6.750
 8756POPC   C3B55869  10.660  34.343   7.050
 8756POPC   C4B55870  10.631  34.341   7.350
 8757POPC   NC355871  25.306  27.635   5.550
 8757POPC   PO455872  25.300  27.573   5.850
 8757POPC   GL155873  25.315  27.609   6.150
 8757POPC   GL255874  25.165  27.687   6.150
 8757POPC   C1A55875  25.234  27.599   6.450
 8757POPC   D2A55876  25.271  27.554   6.750
 8757POPC   C3A55877  25.303  27.633   7.050
 8757POPC   C4A55878  25.257  27.603   7.350
 8757POPC   C1B55879  25.112  27.804   6.450
 8757POPC   C2B55880  25.167  27.773   6.750
 8757POPC   C3B55881  25.151  27.857   7.050
 8757POPC   C4B55882  25.158  27.857   7.350
 8758POPC   NC355883  19.086  17.480   5.550
 8758POPC   PO455884  19.083  17.479   5.850
 8758POPC   GL155885  19.055  17.480   6.150
 8758POPC   GL255886  19.096  17.415   6.150
 8758POPC   C1A55887  19.023  17.462   6.450
 8758POPC   D2A55888  19.100  17.487   6.750
 8758POPC   C3A55889  19.017  17.465   7.050
 8758POPC   C4A55890  19.024  17.499   7.350
 8758POPC   C1B55891  19.021  17.247   6.450
 8758POPC   C2B55892  19.039  17.239   6.750
 8758POPC   C3B55893  19.074  17.296   7.050
 8758POPC   C4B55894  19.042  17.299   7.350
 8759POPC   NC355895  21.384  32.267   5.550
 8759POPC   PO455896  21.411  32.243   5.850
 8759POPC   GL155897  21.385  32.265   6.150
 8759POPC   GL255898  21.268  32.277   6.150
 8759POPC   C1A55899  21.386  32.261   6.450
 8759POPC   D2A55900  21.338  32.252   6.750
 8759POPC   C3A55901  21.403  32.249   7.050
 8759POPC   C4A55902  21.359  32.226   7.350
 8759POPC   C1B55903  21.144  32.265   6.450
 8759POPC   C2B55904  21.143  32.231   6.750
 8759POPC   C3B55905  21.099  32.232   7.050
 8759POPC   C4B55906  21.089  32.293   7.350
 8760POPC   NC355907  26.776   4.350   5.550
 8760POPC   PO455908  26.818   4.323   5.850
 8760POPC   GL155909  26.799   4.268   6.150
 8760POPC   GL255910  26.856   4.200   6.150
 8760POPC   C1A55911  26.791   4.302   6.450
 8760POPC   D2A55912  26.863   4.298   6.750
 8760POPC   C3A55913  26.830   4.292   7.050
 8760POPC   C4A55914  26.802   4.326   7.350
 8760POPC   C1B55915  26.776   4.024   6.450
 8760POPC   C2B55916  26.765   4.055   6.750
 8760POPC   C3B55917  26.777   4.036   7.050
 8760POPC   C4B55918  26.836   4.063   7.350
 8761POPC   NC355919  36.935  44.670   5.550
 8761POPC   PO455920  36.909  44.700   5.850
 8761POPC   GL155921  36.879  44.617   6.150
 8761POPC   GL255922  36.807  44.615   6.150
 8761POPC   C1A55923  36.886  44.612   6.450
 8761POPC   D2A55924  36.910  44.679   6.750
 8761POPC   C3A55925  36.935  44.676   7.050
 8761POPC   C4A55926  36.861  44.672   7.350
 8761POPC   C1B55927  36.709  44.553   6.450
 8761POPC   C2B55928  36.699  44.552   6.750
 8761POPC   C3B55929  36.660  44.563   7.050
 8761POPC   C4B55930  36.654  44.545   7.350
 8762POPC   NC355931  27.550   7.391   5.550
 8762POPC   PO455932  27.617   7.430   5.850
 8762POPC   GL155933  27.585   7.431   6.150
 8762POPC   GL255934  27.539   7.365   6.150
 8762POPC   C1A55935  27.640   7.420   6.450
 8762POPC   D2A55936  27.565   7.439   6.750
 8762POPC   C3A55937  27.638   7.434   7.050
 8762POPC   C4A55938  27.565   7.377   7.350
 8762POPC   C1B55939  27.469   7.175   6.450
 8762POPC   C2B55940  27.450   7.252   6.750
 8762POPC   C3B55941  27.430   7.199   7.050
 8762POPC   C4B55942  27.428   7.168   7.350
 8763POPC   NC355943  15.997   9.734   5.550
 8763POPC   PO455944  15.951   9.751   5.850
 8763POPC   GL155945  15.972   9.710   6.150
 8763POPC   GL255946  15.922   9.858   6.150
 8763POPC   C1A55947  15.906   9.747   6.450
 8763POPC   D2A55948  15.906   9.788   6.750
 8763POPC   C3A55949  15.958   9.738   7.050
 8763POPC   C4A55950  15.959   9.728   7.350
 8763POPC   C1B55951  15.946  10.045   6.450
 8763POPC   C2B55952  15.956  10.041   6.750
 8763POPC   C3B55953  15.959   9.969   7.050
 8763POPC   C4B55954  15.934   9.978   7.350
 8764POPC   NC355955  26.046   1.220   5.550
 8764POPC   PO455956  26.016   1.262   5.850
 8764POPC   GL155957  26.075   1.167   6.150
 8764POPC   GL255958  26.126   1.087   6.150
 8764POPC   C1A55959  26.089   1.196   6.450
 8764POPC   D2A55960  26.075   1.251   6.750
 8764POPC   C3A55961  26.068   1.177   7.050
 8764POPC   C4A55962  26.059   1.200   7.350
 8764POPC   C1B55963  26.181   1.032   6.450
 8764POPC   C2B55964  26.220   1.066   6.750
 8764POPC   C3B55965  26.182   1.015   7.050
 8764POPC   C4B55966  26.183   0.981   7.350
 8765POPC   NC355967  36.106   7.440   5.550
 8765POPC   PO455968  36.174   7.469   5.850
 8765POPC   GL155969  36.102   7.421   6.150
 8765POPC   GL255970  35.968   7.421   6.150
 8765POPC   C1A55971  36.165   7.379   6.450
 8765POPC   D2A55972  36.125   7.463   6.750
 8765POPC   C3A55973  36.148   7.446   7.050
 8765POPC   C4A55974  36.134   7.455   7.350
 8765POPC   C1B55975  35.828   7.446   6.450
 8765POPC   C2B55976  35.916   7.473   6.750
 8765POPC   C3B55977  35.884   7.398   7.050
 8765POPC   C4B55978  35.901   7.418   7.350
 8766POPC   NC355979   5.088   5.907   5.550
 8766POPC   PO455980   5.082   5.847   5.850
 8766POPC   GL155981   5.127   5.899   6.150
 8766POPC   GL255982   5.230   5.865   6.150
 8766POPC   C1A55983   5.078   5.908   6.450
 8766POPC   D2A55984   5.043   5.883   6.750
 8766POPC   C3A55985   5.098   5.829   7.050
 8766POPC   C4A55986   5.091   5.834   7.350
 8766POPC   C1B55987   5.352   5.802   6.450
 8766POPC   C2B55988   5.296   5.766   6.750
 8766POPC   C3B55989   5.379   5.841   7.050
 8766POPC   C4B55990   5.360   5.801   7.350
 8767POPC   NC355991  41.535  30.736   5.550
 8767POPC   PO455992  41.565  30.738   5.850
 8767POPC   GL155993  41.596  30.651   6.150
 8767POPC   GL255994  41.676  30.735   6.150
 8767POPC   C1A55995  41.562  30.685   6.450
 8767POPC   D2A55996  41.547  30.711   6.750
 8767POPC   C3A55997  41.524  30.735   7.050
 8767POPC   C4A55998  41.541  30.746   7.350
 8767POPC   C1B55999  41.742  30.890   6.450
 8767POPC   C2B56000  41.740  30.880   6.750
 8767POPC   C3B56001  41.804  30.806   7.050
 8767POPC   C4B56002  41.726  30.859   7.350
 8768POPC   NC356003  36.142  19.814   5.550
 8768POPC   PO456004  36.143  19.826   5.850
 8768POPC   GL156005  36.093  19.864   6.150
 8768POPC   GL256006  36.237  19.704   6.150
 8768POPC   C1A56007  36.078  19.872   6.450
 8768POPC   D2A56008  36.118  19.878   6.750
 8768POPC   C3A56009  36.172  19.795   7.050
 8768POPC   C4A56010  36.112  19.869   7.350
 8768POPC   C1B56011  36.261  19.580   6.450
 8768POPC   C2B56012  36.222  19.648   6.750
 8768POPC   C3B56013  36.315  19.604   7.050
 8768POPC   C4B56014  36.287  19.585   7.350
 8769POPC   NC356015  42.361  43.099   5.550
 8769POPC   PO456016  42.370  43.141   5.850
 8769POPC   GL156017  42.375  43.148   6.150
 8769POPC   GL256018  42.467  43.120   6.150
 8769POPC   C1A56019  42.307  43.148   6.450
 8769POPC   D2A56020  42.303  43.070   6.750
 8769POPC   C3A56021  42.368  43.151   7.050
 8769POPC   C4A56022  42.314  43.070   7.350
 8769POPC   C1B56023  42.573  43.047   6.450
 8769POPC   C2B56024  42.587  43.063   6.750
 8769POPC   C3B56025  42.587  43.069   7.050
 8769POPC   C4B56026  42.625  43.075   7.350
 8770POPC   NC356027  36.938  25.278   5.550
 8770POPC   PO456028  36.875  25.278   5.850
 8770POPC   GL156029  36.882  25.301   6.150
 8770POPC   GL256030  36.784  25.224   6.150
 8770POPC   C1A56031  36.938  25.269   6.450
 8770POPC   D2A56032  36.859  25.277   6.750
 8770POPC   C3A56033  36.918  25.253   7.050
 8770POPC   C4A56034  36.897  25.263   7.350
 8770POPC   C1B56035  36.714  25.107   6.450
 8770POPC   C2B56036  36.725  25.120   6.750
 8770POPC   C3B56037  36.709  25.091   7.050
 8770POPC   C4B56038  36.682  25.189   7.350
 8771POPC   NC356039  39.245  40.040   5.550
 8771POPC   PO456040  39.261  40.004   5.850
 8771POPC   GL156041  39.251  39.963   6.150
 8771POPC   GL256042  39.277  39.939   6.150
 8771POPC   C1A56043  39.264  40.011   6.450
 8771POPC   D2A56044  39.261  39.972   6.750
 8771POPC   C3A56045  39.255  40.044   7.050
 8771POPC   C4A56046  39.267  39.990   7.350
 8771POPC   C1B56047  39.331  39.734   6.450
 8771POPC   C2B56048  39.348  39.804   6.750
 8771POPC   C3B56049  39.350  39.775   7.050
 8771POPC   C4B56050  39.338  39.775   7.350
 8772POPC   NC356051  29.876  18.261   5.550
 8772POPC   PO456052  29.894  18.262   5.850
 8772POPC   GL156053  29.940  18.305   6.150
 8772POPC   GL256054  30.021  18.210   6.150
 8772POPC   C1A56055  29.906  18.264   6.450
 8772POPC   D2A56056  29.933  18.296   6.750
 8772POPC   C3A56057  29.969  18.306   7.050
 8772POPC   C4A56058  29.900  18.328   7.350
 8772POPC   C1B56059  29.984  18.091   6.450
 8772POPC   C2B56060  29.989  18.071   6.750
 8772POPC   C3B56061  30.073  18.032   7.050
 8772POPC   C4B56062  30.041  18.013   7.350
 8773POPC   NC356063  19.840  27.561   5.550
 8773POPC   PO456064  19.817  27.625   5.850
 8773POPC   GL156065  19.860  27.632   6.150
 8773POPC   GL256066  19.887  27.484   6.150
 8773POPC   C1A56067  19.872  27.551   6.450
 8773POPC   D2A56068  19.877  27.639   6.750
 8773POPC   C3A56069  19.823  27.582   7.050
 8773POPC   C4A56070  19.864  27.606   7.350
 8773POPC   C1B56071  19.984  27.411   6.450
 8773POPC   C2B56072  19.960  27.392   6.750
 8773POPC   C3B56073  20.013  27.358   7.050
 8773POPC   C4B56074  20.038  27.376   7.350
 8774POPC   NC356075  33.782  40.751   5.550
 8774POPC   PO456076  33.808  40.787   5.850
 8774POPC   GL156077  33.787  40.785   6.150
 8774POPC   GL256078  33.774  40.905   6.150
 8774POPC   C1A56079  33.834  40.815   6.450
 8774POPC   D2A56080  33.760  40.766   6.750
 8774POPC   C3A56081  33.797  40.784   7.050
 8774POPC   C4A56082  33.781  40.798   7.350
 8774POPC   C1B56083  33.799  41.006   6.450
 8774POPC   C2B56084  33.839  40.986   6.750
 8774POPC   C3B56085  33.852  40.986   7.050
 8774POPC   C4B56086  33.868  41.038   7.350
 8775POPC   NC356087   1.211  44.701   5.550
 8775POPC   PO456088   1.261  44.626   5.850
 8775POPC   GL156089   1.166  44.643   6.150
 8775POPC   GL256090   1.341  44.641   6.150
 8775POPC   C1A56091   1.209  44.664   6.450
 8775POPC   D2A56092   1.164  44.686   6.750
 8775POPC   C3A56093   1.218  44.619   7.050
 8775POPC   C4A56094   1.249  44.673   7.350
 8775POPC   C1B56095   1.384  44.501   6.450
 8775POPC   C2B56096   1.466  44.507   6.750
 8775POPC   C3B56097   1.410  44.503   7.050
 8775POPC   C4B56098   1.436  44.507   7.350
 8776POPC   NC356099  34.564   6.686   5.550
 8776POPC   PO456100  34.613   6.660   5.850
 8776POPC   GL156101  34.594   6.605   6.150
 8776POPC   GL256102  34.649   6.725   6.150
 8776POPC   C1A56103  34.586   6.681   6.450
 8776POPC   D2A56104  34.593   6.667   6.750
 8776POPC   C3A56105  34.615   6.595   7.050
 8776POPC   C4A56106  34.538   6.639   7.350
 8776POPC   C1B56107  34.673   6.887   6.450
 8776POPC   C2B56108  34.652   6.913   6.750
 8776POPC   C3B56109  34.623   6.852   7.050
 8776POPC   C4B56110  34.656   6.843   7.350
 8777POPC   NC356111  35.349  14.390   5.550
 8777POPC   PO456112  35.380  14.437   5.850
 8777POPC   GL156113  35.302  14.441   6.150
 8777POPC   GL256114  35.241  14.396   6.150
 8777POPC   C1A56115  35.304  14.451   6.450
 8777POPC   D2A56116  35.307  14.405   6.750
 8777POPC   C3A56117  35.371  14.441   7.050
 8777POPC   C4A56118  35.365  14.414   7.350
 8777POPC   C1B56119  35.077  14.396   6.450
 8777POPC   C2B56120  35.116  14.423   6.750
 8777POPC   C3B56121  35.070  14.398   7.050
 8777POPC   C4B56122  35.078  14.417   7.350
 8778POPC   NC356123  13.582   0.428   5.550
 8778POPC   PO456124  13.613   0.448   5.850
 8778POPC   GL156125  13.677   0.474   6.150
 8778POPC   GL256126  13.627   0.283   6.150
 8778POPC   C1A56127  13.641   0.484   6.450
 8778POPC   D2A56128  13.652   0.461   6.750
 8778POPC   C3A56129  13.588   0.425   7.050
 8778POPC   C4A56130  13.639   0.401   7.350
 8778POPC   C1B56131  13.629   0.231   6.450
 8778POPC   C2B56132  13.615   0.184   6.750
 8778POPC   C3B56133  13.640   0.231   7.050
 8778POPC   C4B56134  13.667   0.173   7.350
 8779POPC   NC356135  25.252  19.851   5.550
 8779POPC   PO456136  25.312  19.883   5.850
 8779POPC   GL156137  25.300  19.881   6.150
 8779POPC   GL256138  25.181  19.851   6.150
 8779POPC   C1A56139  25.307  19.833   6.450
 8779POPC   D2A56140  25.238  19.800   6.750
 8779POPC   C3A56141  25.240  19.829   7.050
 8779POPC   C4A56142  25.222  19.811   7.350
 8779POPC   C1B56143  25.034  19.865   6.450
 8779POPC   C2B56144  25.002  19.861   6.750
 8779POPC   C3B56145  25.012  19.826   7.050
 8779POPC   C4B56146  24.976  19.858   7.350
 8780POPC   NC356147  27.545  24.521   5.550
 8780POPC   PO456148  27.544  24.513   5.850
 8780POPC   GL156149  27.607  24.509   6.150
 8780POPC   GL256150  27.699  24.588   6.150
 8780POPC   C1A56151  27.568  24.500   6.450
 8780POPC   D2A56152  27.586  24.531   6.750
 8780POPC   C3A56153  27.605  24.500   7.050
 8780POPC   C4A56154  27.635  24.516   7.350
 8780POPC   C1B56155  27.753  24.639   6.450
 8780POPC   C2B56156  27.780  24.699   6.750
 8780POPC   C3B56157  27.735  24.704   7.050
 8780POPC   C4B56158  27.741  24.665   7.350
 8781POPC   NC356159  29.880   6.693   5.550
 8781POPC   PO456160  29.939   6.670   5.850
 8781POPC   GL156161  29.950   6.600   6.150
 8781POPC   GL256162  29.991   6.765   6.150
 8781POPC   C1A56163  29.890   6.670   6.450
 8781POPC   D2A56164  29.934   6.685   6.750
 8781POPC   C3A56165  29.900   6.690   7.050
 8781POPC   C4A56166  29.889   6.619   7.350
 8781POPC   C1B56167  30.107   6.807   6.450
 8781POPC   C2B56168  30.163   6.805   6.750
 8781POPC   C3B56169  30.118   6.781   7.050
 8781POPC   C4B56170  30.107   6.803   7.350
 8782POPC   NC356171  20.660   2.717   5.550
 8782POPC   PO456172  20.624   2.744   5.850
 8782POPC   GL156173  20.598   2.765   6.150
 8782POPC   GL256174  20.472   2.817   6.150
 8782POPC   C1A56175  20.576   2.767   6.450
 8782POPC   D2A56176  20.614   2.787   6.750
 8782POPC   C3A56177  20.635   2.718   7.050
 8782POPC   C4A56178  20.623   2.717   7.350
 8782POPC   C1B56179  20.378   2.789   6.450
 8782POPC   C2B56180  20.395   2.846   6.750
 8782POPC   C3B56181  20.377   2.814   7.050
 8782POPC   C4B56182  20.323   2.824   7.350
 8783POPC   NC356183   6.656   4.318   5.550
 8783POPC   PO456184   6.666   4.306   5.850
 8783POPC   GL156185   6.596   4.330   6.150
 8783POPC   GL256186   6.567   4.386   6.150
 8783POPC   C1A56187   6.683   4.282   6.450
 8783POPC   D2A56188   6.603   4.349   6.750
 8783POPC   C3A56189   6.675   4.350   7.050
 8783POPC   C4A56190   6.643   4.347   7.350
 8783POPC   C1B56191   6.463   4.503   6.450
 8783POPC   C2B56192   6.448   4.523   6.750
 8783POPC   C3B56193   6.522   4.470   7.050
 8783POPC   C4B56194   6.541   4.486   7.350
 8784POPC   NC356195  15.972  20.621   5.550
 8784POPC   PO456196  15.987  20.642   5.850
 8784POPC   GL156197  15.944  20.650   6.150
 8784POPC   GL256198  15.850  20.650   6.150
 8784POPC   C1A56199  15.919  20.657   6.450
 8784POPC   D2A56200  15.956  20.576   6.750
 8784POPC   C3A56201  15.980  20.570   7.050
 8784POPC   C4A56202  15.954  20.660   7.350
 8784POPC   C1B56203  15.700  20.670   6.450
 8784POPC   C2B56204  15.743  20.662   6.750
 8784POPC   C3B56205  15.703  20.622   7.050
 8784POPC   C4B56206  15.676  20.716   7.350
 8785POPC   NC356207   5.102  17.509   5.550
 8785POPC   PO456208   5.142  17.489   5.850
 8785POPC   GL156209   5.137  17.523   6.150
 8785POPC   GL256210   4.976  17.537   6.150
 8785POPC   C1A56211   5.076  17.457   6.450
 8785POPC   D2A56212   5.043  17.512   6.750
 8785POPC   C3A56213   5.143  17.495   7.050
 8785POPC   C4A56214   5.090  17.547   7.350
 8785POPC   C1B56215   4.841  17.493   6.450
 8785POPC   C2B56216   4.800  17.470   6.750
 8785POPC   C3B56217   4.796  17.475   7.050
 8785POPC   C4B56218   4.834  17.490   7.350
 8786POPC   NC356219  19.050  32.220   5.550
 8786POPC   PO456220  19.023  32.220   5.850
 8786POPC   GL156221  19.072  32.220   6.150
 8786POPC   GL256222  19.032  32.139   6.150
 8786POPC   C1A56223  19.040  32.215   6.450
 8786POPC   D2A56224  19.020  32.275   6.750
 8786POPC   C3A56225  19.031  32.210   7.050
 8786POPC   C4A56226  19.089  32.244   7.350
 8786POPC   C1B56227  19.046  32.003   6.450
 8786POPC   C2B56228  19.006  32.032   6.750
 8786POPC   C3B56229  19.029  31.998   7.050
 8786POPC   C4B56230  18.979  32.040   7.350
 8787POPC   NC356231  12.080  16.002   5.550
 8787POPC   PO456232  12.067  15.909   5.850
 8787POPC   GL156233  12.087  15.972   6.150
 8787POPC   GL256234  12.025  15.787   6.150
 8787POPC   C1A56235  12.029  15.959   6.450
 8787POPC   D2A56236  12.095  15.994   6.750
 8787POPC   C3A56237  12.093  15.977   7.050
 8787POPC   C4A56238  12.060  15.972   7.350
 8787POPC   C1B56239  12.092  15.726   6.450
 8787POPC   C2B56240  12.075  15.691   6.750
 8787POPC   C3B56241  12.021  15.699   7.050
 8787POPC   C4B56242  12.034  15.677   7.350
 8788POPC   NC356243  15.915  33.804   5.550
 8788POPC   PO456244  15.970  33.833   5.850
 8788POPC   GL156245  16.002  33.804   6.150
 8788POPC   GL256246  15.849  33.793   6.150
 8788POPC   C1A56247  16.003  33.795   6.450
 8788POPC   D2A56248  15.935  33.791   6.750
 8788POPC   C3A56249  15.915  33.756   7.050
 8788POPC   C4A56250  15.986  33.753   7.350
 8788POPC   C1B56251  15.668  33.799   6.450
 8788POPC   C2B56252  15.716  33.838   6.750
 8788POPC   C3B56253  15.717  33.854   7.050
 8788POPC   C4B56254  15.676  33.844   7.350
 8789POPC   NC356255  26.005  29.156   5.550
 8789POPC   PO456256  26.044  29.175   5.850
 8789POPC   GL156257  26.043  29.134   6.150
 8789POPC   GL256258  26.106  29.277   6.150
 8789POPC   C1A56259  26.035  29.192   6.450
 8789POPC   D2A56260  26.013  29.183   6.750
 8789POPC   C3A56261  26.047  29.139   7.050
 8789POPC   C4A56262  26.027  29.101   7.350
 8789POPC   C1B56263  26.063  29.340   6.450
 8789POPC   C2B56264  26.049  29.406   6.750
 8789POPC   C3B56265  26.135  29.438   7.050
 8789POPC   C4B56266  26.115  29.389   7.350
 8790POPC   NC356267  28.342   8.969   5.550
 8790POPC   PO456268  28.372   8.974   5.850
 8790POPC   GL156269  28.394   8.925   6.150
 8790POPC   GL256270  28.307   9.111   6.150
 8790POPC   C1A56271  28.388   8.970   6.450
 8790POPC   D2A56272  28.348   8.935   6.750
 8790POPC   C3A56273  28.340   8.984   7.050
 8790POPC   C4A56274  28.327   8.952   7.350
 8790POPC   C1B56275  28.320   9.234   6.450
 8790POPC   C2B56276  28.378   9.200   6.750
 8790POPC   C3B56277  28.335   9.178   7.050
 8790POPC   C4B56278  28.326   9.270   7.350
 8791POPC   NC356279  44.655  25.265   5.550
 8791POPC   PO456280  44.639  25.280   5.850
 8791POPC   GL156281  44.634  25.303   6.150
 8791POPC   GL256282  44.748  25.359   6.150
 8791POPC   C1A56283  44.708  25.267   6.450
 8791POPC   D2A56284  44.709  25.266   6.750
 8791POPC   C3A56285  44.682  25.285   7.050
 8791POPC   C4A56286  44.641  25.250   7.350
 8791POPC   C1B56287  44.865  25.347   6.450
 8791POPC   C2B56288  44.892  25.416   6.750
 8791POPC   C3B56289  44.838  25.435   7.050
 8791POPC   C4B56290  44.903  25.381   7.350
 8792POPC   NC356291   7.467  27.603   5.550
 8792POPC   PO456292   7.469  27.625   5.850
 8792POPC   GL156293   7.434  27.604   6.150
 8792POPC   GL256294   7.333  27.630   6.150
 8792POPC   C1A56295   7.460  27.587   6.450
 8792POPC   D2A56296   7.391  27.555   6.750
 8792POPC   C3A56297   7.376  27.550   7.050
 8792POPC   C4A56298   7.454  27.625   7.350
 8792POPC   C1B56299   7.139  27.698   6.450
 8792POPC   C2B56300   7.208  27.654   6.750
 8792POPC   C3B56301   7.193  27.664   7.050
 8792POPC   C4B56302   7.214  27.637   7.350
 8793POPC   NC356303  14.426  41.525   5.550
 8793POPC   PO456304  14.411  41.563   5.850
 8793POPC   GL156305  14.385  41.518   6.150
 8793POPC   GL256306  14.504  41.519   6.150
 8793POPC   C1A56307  14.365  41.528   6.450
 8793POPC   D2A56308  14.395  41.539   6.750
 8793POPC   C3A56309  14.409  41.553   7.050
 8793POPC   C4A56310  14.385  41.605   7.350
 8793POPC   C1B56311  14.595  41.418   6.450
 8793POPC   C2B56312  14.593  41.410   6.750
 8793POPC   C3B56313  14.596  41.414   7.050
 8793POPC   C4B56314  14.552  41.395   7.350
 8794POPC   NC356315  28.409  17.524   5.550
 8794POPC   PO456316  28.400  17.467   5.850
 8794POPC   GL156317  28.337  17.529   6.150
 8794POPC   GL256318  28.463  17.471   6.150
 8794POPC   C1A56319  28.389  17.545   6.450
 8794POPC   D2A56320  28.389  17.528   6.750
 8794POPC   C3A56321  28.408  17.534   7.050
 8794POPC   C4A56322  28.365  17.507   7.350
 8794POPC   C1B56323  28.649  17.488   6.450
 8794POPC   C2B56324  28.565  17.480   6.750
 8794POPC   C3B56325  28.571  17.488   7.050
 8794POPC   C4B56326  28.601  17.490   7.350
 8795POPC   NC356327  33.046  10.515   5.550
 8795POPC   PO456328  32.980  10.503   5.850
 8795POPC   GL156329  33.009  10.565   6.150
 8795POPC   GL256330  33.078  10.417   6.150
 8795POPC   C1A56331  33.031  10.555   6.450
 8795POPC   D2A56332  33.060  10.507   6.750
 8795POPC   C3A56333  33.051  10.555   7.050
 8795POPC   C4A56334  33.021  10.487   7.350
 8795POPC   C1B56335  33.151  10.288   6.450
 8795POPC   C2B56336  33.085  10.275   6.750
 8795POPC   C3B56337  33.101  10.300   7.050
 8795POPC   C4B56338  33.109  10.264   7.350
 8796POPC   NC356339  26.010   5.049   5.550
 8796POPC   PO456340  26.024   5.068   5.850
 8796POPC   GL156341  26.034   5.070   6.150
 8796POPC   GL256342  25.982   5.034   6.150
 8796POPC   C1A56343  26.024   5.133   6.450
 8796POPC   D2A56344  26.068   5.059   6.750
 8796POPC   C3A56345  26.085   5.131   7.050
 8796POPC   C4A56346  26.011   5.095   7.350
 8796POPC   C1B56347  25.818   4.980   6.450
 8796POPC   C2B56348  25.862   4.985   6.750
 8796POPC   C3B56349  25.876   4.929   7.050
 8796POPC   C4B56350  25.838   4.929   7.350
 8797POPC   NC356351  41.591  43.861   5.550
 8797POPC   PO456352  41.606  43.895   5.850
 8797POPC   GL156353  41.512  43.845   6.150
 8797POPC   GL256354  41.414  43.768   6.150
 8797POPC   C1A56355  41.546  43.839   6.450
 8797POPC   D2A56356  41.589  43.868   6.750
 8797POPC   C3A56357  41.591  43.849   7.050
 8797POPC   C4A56358  41.563  43.865   7.350
 8797POPC   C1B56359  41.364  43.717   6.450
 8797POPC   C2B56360  41.407  43.764   6.750
 8797POPC   C3B56361  41.347  43.742   7.050
 8797POPC   C4B56362  41.316  43.752   7.350
 8798POPC   NC356363  10.570  37.660   5.550
 8798POPC   PO456364  10.523  37.673   5.850
 8798POPC   GL156365  10.565  37.631   6.150
 8798POPC   GL256366  10.485  37.523   6.150
 8798POPC   C1A56367  10.495  37.685   6.450
 8798POPC   D2A56368  10.506  37.716   6.750
 8798POPC   C3A56369  10.517  37.719   7.050
 8798POPC   C4A56370  10.504  37.633   7.350
 8798POPC   C1B56371  10.504  37.412   6.450
 8798POPC   C2B56372  10.475  37.397   6.750
 8798POPC   C3B56373  10.524  37.433   7.050
 8798POPC   C4B56374  10.478  37.477   7.350
 8799POPC   NC356375  29.944  22.129   5.550
 8799POPC   PO456376  29.949  22.148   5.850
 8799POPC   GL156377  29.949  22.140   6.150
 8799POPC   GL256378  29.874  22.272   6.150
 8799POPC   C1A56379  29.955  22.171   6.450
 8799POPC   D2A56380  29.951  22.207   6.750
 8799POPC   C3A56381  29.891  22.155   7.050
 8799POPC   C4A56382  29.958  22.191   7.350
 8799POPC   C1B56383  29.783  22.341   6.450
 8799POPC   C2B56384  29.751  22.364   6.750
 8799POPC   C3B56385  29.781  22.321   7.050
 8799POPC   C4B56386  29.789  22.307   7.350
 8800POPC   NC356387   9.794  23.670   5.550
 8800POPC   PO456388   9.752  23.720   5.850
 8800POPC   GL156389   9.758  23.672   6.150
 8800POPC   GL256390   9.674  23.815   6.150
 8800POPC   C1A56391   9.785  23.744   6.450
 8800POPC   D2A56392   9.742  23.711   6.750
 8800POPC   C3A56393   9.777  23.675   7.050
 8800POPC   C4A56394   9.750  23.696   7.350
 8800POPC   C1B56395   9.565  23.897   6.450
 8800POPC   C2B56396   9.575  23.887   6.750
 8800POPC   C3B56397   9.625  23.927   7.050
 8800POPC   C4B56398   9.581  23.884   7.350
 8801POPC   NC356399  37.682  40.032   5.550
 8801POPC   PO456400  37.649  39.984   5.850
 8801POPC   GL156401  37.663  40.011   6.150
 8801POPC   GL256402  37.519  40.055   6.150
 8801POPC   C1A56403  37.700  39.962   6.450
 8801POPC   D2A56404  37.680  40.013   6.750
 8801POPC   C3A56405  37.667  39.983   7.050
 8801POPC   C4A56406  37.688  40.025   7.350
 8801POPC   C1B56407  37.394  40.045   6.450
 8801POPC   C2B56408  37.410  40.001   6.750
 8801POPC   C3B56409  37.396  40.065   7.050
 8801POPC   C4B56410  37.385  40.064   7.350
 8802POPC   NC356411  30.721   0.432   5.550
 8802POPC   PO456412  30.702   0.410   5.850
 8802POPC   GL156413  30.670   0.438   6.150
 8802POPC   GL256414  30.656   0.299   6.150
 8802POPC   C1A56415  30.732   0.430   6.450
 8802POPC   D2A56416  30.680   0.487   6.750
 8802POPC   C3A56417  30.745   0.443   7.050
 8802POPC   C4A56418  30.691   0.485   7.350
 8802POPC   C1B56419  30.488   0.217   6.450
 8802POPC   C2B56420  30.573   0.262   6.750
 8802POPC   C3B56421  30.570   0.271   7.050
 8802POPC   C4B56422  30.539   0.219   7.350
 8803POPC   NC356423  26.808  37.639   5.550
 8803POPC   PO456424  26.857  37.706   5.850
 8803POPC   GL156425  26.838  37.728   6.150
 8803POPC   GL256426  26.868  37.534   6.150
 8803POPC   C1A56427  26.821  37.684   6.450
 8803POPC   D2A56428  26.840  37.661   6.750
 8803POPC   C3A56429  26.787  37.661   7.050
 8803POPC   C4A56430  26.852  37.700   7.350
 8803POPC   C1B56431  26.922  37.483   6.450
 8803POPC   C2B56432  26.933  37.448   6.750
 8803POPC   C3B56433  26.944  37.522   7.050
 8803POPC   C4B56434  26.934  37.456   7.350
 8804POPC   NC356435  12.075   1.223   5.550
 8804POPC   PO456436  12.060   1.231   5.850
 8804POPC   GL156437  12.085   1.251   6.150
 8804POPC   GL256438  12.155   1.127   6.150
 8804POPC   C1A56439  12.052   1.203   6.450
 8804POPC   D2A56440  12.097   1.261   6.750
 8804POPC   C3A56441  12.054   1.181   7.050
 8804POPC   C4A56442  12.039   1.246   7.350
 8804POPC   C1B56443  12.168   0.999   6.450
 8804POPC   C2B56444  12.210   1.004   6.750
 8804POPC   C3B56445  12.170   0.996   7.050
 8804POPC   C4B56446  12.225   0.985   7.350
 8805POPC   NC356447  29.876  37.640   5.550
 8805POPC   PO456448  29.946  37.657   5.850
 8805POPC   GL156449  29.899  37.717   6.150
 8805POPC   GL256450  29.912  37.846   6.150
 8805POPC   C1A56451  29.949  37.720   6.450
 8805POPC   D2A56452  29.933  37.692   6.750
 8805POPC   C3A56453  29.921  37.653   7.050
 8805POPC   C4A56454  29.905  37.646   7.350
 8805POPC   C1B56455  29.817  37.912   6.450
 8805POPC   C2B56456  29.840  37.918   6.750
 8805POPC   C3B56457  29.895  37.914   7.050
 8805POPC   C4B56458  29.866  37.886   7.350
 8806POPC   NC356459  43.874  21.386   5.550
 8806POPC   PO456460  43.904  21.381   5.850
 8806POPC   GL156461  43.883  21.388   6.150
 8806POPC   GL256462  43.942  21.494   6.150
 8806POPC   C1A56463  43.901  21.354   6.450
 8806POPC   D2A56464  43.923  21.421   6.750
 8806POPC   C3A56465  43.904  21.367   7.050
 8806POPC   C4A56466  43.859  21.337   7.350
 8806POPC   C1B56467  44.037  21.580   6.450
 8806POPC   C2B56468  44.009  21.555   6.750
 8806POPC   C3B56469  44.018  21.585   7.050
 8806POPC   C4B56470  43.971  21.569   7.350
 8807POPC   NC356471  30.677  43.880   5.550
 8807POPC   PO456472  30.716  43.903   5.850
 8807POPC   GL156473  30.679  43.856   6.150
 8807POPC   GL256474  30.691  43.730   6.150
 8807POPC   C1A56475  30.681  43.854   6.450
 8807POPC   D2A56476  30.726  43.839   6.750
 8807POPC   C3A56477  30.731  43.891   7.050
 8807POPC   C4A56478  30.711  43.916   7.350
 8807POPC   C1B56479  30.666  43.614   6.450
 8807POPC   C2B56480  30.648  43.594   6.750
 8807POPC   C3B56481  30.687  43.602   7.050
 8807POPC   C4B56482  30.633  43.649   7.350
 8808POPC   NC356483  18.257  32.215   5.550
 8808POPC   PO456484  18.238  32.228   5.850
 8808POPC   GL156485  18.278  32.247   6.150
 8808POPC   GL256486  18.360  32.168   6.150
 8808POPC   C1A56487  18.297  32.245   6.450
 8808POPC   D2A56488  18.329  32.238   6.750
 8808POPC   C3A56489  18.284  32.269   7.050
 8808POPC   C4A56490  18.258  32.279   7.350
 8808POPC   C1B56491  18.478  32.175   6.450
 8808POPC   C2B56492  18.547  32.211   6.750
 8808POPC   C3B56493  18.566  32.126   7.050
 8808POPC   C4B56494  18.554  32.185   7.350
 8809POPC   NC356495   5.866  22.148   5.550
 8809POPC   PO456496   5.881  22.159   5.850
 8809POPC   GL156497   5.829  22.132   6.150
 8809POPC   GL256498   5.715  22.187   6.150
 8809POPC   C1A56499   5.822  22.209   6.450
 8809POPC   D2A56500   5.889  22.210   6.750
 8809POPC   C3A56501   5.826  22.116   7.050
 8809POPC   C4A56502   5.881  22.164   7.350
 8809POPC   C1B56503   5.636  22.282   6.450
 8809POPC   C2B56504   5.661  22.224   6.750
 8809POPC   C3B56505   5.609  22.275   7.050
 8809POPC   C4B56506   5.585  22.208   7.350
 8810POPC   NC356507  40.832   8.999   5.550
 8810POPC   PO456508  40.829   8.960   5.850
 8810POPC   GL156509  40.739   8.957   6.150
 8810POPC   GL256510  40.726   9.050   6.150
 8810POPC   C1A56511  40.752   8.953   6.450
 8810POPC   D2A56512  40.736   8.935   6.750
 8810POPC   C3A56513  40.828   8.985   7.050
 8810POPC   C4A56514  40.758   8.993   7.350
 8810POPC   C1B56515  40.741   9.230   6.450
 8810POPC   C2B56516  40.682   9.256   6.750
 8810POPC   C3B56517  40.680   9.232   7.050
 8810POPC   C4B56518  40.738   9.242   7.350
 8811POPC   NC356519  42.340  40.797   5.550
 8811POPC   PO456520  42.361  40.820   5.850
 8811POPC   GL156521  42.325  40.797   6.150
 8811POPC   GL256522  42.455  40.723   6.150
 8811POPC   C1A56523  42.311  40.735   6.450
 8811POPC   D2A56524  42.287  40.779   6.750
 8811POPC   C3A56525  42.353  40.787   7.050
 8811POPC   C4A56526  42.300  40.767   7.350
 8811POPC   C1B56527  42.553  40.703   6.450
 8811POPC   C2B56528  42.588  40.637   6.750
 8811POPC   C3B56529  42.565  40.689   7.050
 8811POPC   C4B56530  42.573  40.661   7.350
 8812POPC   NC356531   9.787  24.453   5.550
 8812POPC   PO456532   9.722  24.452   5.850
 8812POPC   GL156533   9.766  24.517   6.150
 8812POPC   GL256534   9.800  24.334   6.150
 8812POPC   C1A56535   9.712  24.497   6.450
 8812POPC   D2A56536   9.701  24.441   6.750
 8812POPC   C3A56537   9.727  24.462   7.050
 8812POPC   C4A56538   9.716  24.519   7.350
 8812POPC   C1B56539   9.843  24.291   6.450
 8812POPC   C2B56540   9.804  24.209   6.750
 8812POPC   C3B56541   9.829  24.221   7.050
 8812POPC   C4B56542   9.766  24.274   7.350
 8813POPC   NC356543  33.052  22.208   5.550
 8813POPC   PO456544  33.014  22.125   5.850
 8813POPC   GL156545  33.022  22.134   6.150
 8813POPC   GL256546  33.103  22.075   6.150
 8813POPC   C1A56547  32.991  22.115   6.450
 8813POPC   D2A56548  32.999  22.182   6.750
 8813POPC   C3A56549  33.032  22.138   7.050
 8813POPC   C4A56550  33.022  22.119   7.350
 8813POPC   C1B56551  33.259  22.072   6.450
 8813POPC   C2B56552  33.282  22.083   6.750
 8813POPC   C3B56553  33.251  22.061   7.050
 8813POPC   C4B56554  33.299  22.076   7.350
 8814POPC   NC356555  16.692  15.928   5.550
 8814POPC   PO456556  16.750  15.996   5.850
 8814POPC   GL156557  16.681  15.921   6.150
 8814POPC   GL256558  16.835  15.906   6.150
 8814POPC   C1A56559  16.705  15.933   6.450
 8814POPC   D2A56560  16.719  15.992   6.750
 8814POPC   C3A56561  16.740  15.905   7.050
 8814POPC   C4A56562  16.760  16.002   7.350
 8814POPC   C1B56563  16.959  15.928   6.450
 8814POPC   C2B56564  16.967  15.897   6.750
 8814POPC   C3B56565  17.022  15.868   7.050
 8814POPC   C4B56566  17.011  15.946   7.350
 8815POPC   NC356567  10.529  19.857   5.550
 8815POPC   PO456568  10.552  19.868   5.850
 8815POPC   GL156569  10.544  19.844   6.150
 8815POPC   GL256570  10.620  19.805   6.150
 8815POPC   C1A56571  10.526  19.812   6.450
 8815POPC   D2A56572  10.474  19.807   6.750
 8815POPC   C3A56573  10.509  19.880   7.050
 8815POPC   C4A56574  10.475  19.870   7.350
 8815POPC   C1B56575  10.733  19.731   6.450
 8815POPC   C2B56576  10.774  19.696   6.750
 8815POPC   C3B56577  10.764  19.732   7.050
 8815POPC   C4B56578  10.786  19.753   7.350
 8816POPC   NC356579   5.835  37.644   5.550
 8816POPC   PO456580   5.886  37.668   5.850
 8816POPC   GL156581   5.871  37.675   6.150
 8816POPC   GL256582   6.022  37.741   6.150
 8816POPC   C1A56583   5.918  37.665   6.450
 8816POPC   D2A56584   5.820  37.708   6.750
 8816POPC   C3A56585   5.821  37.665   7.050
 8816POPC   C4A56586   5.899  37.656   7.350
 8816POPC   C1B56587   6.084  37.818   6.450
 8816POPC   C2B56588   6.090  37.768   6.750
 8816POPC   C3B56589   6.103  37.781   7.050
 8816POPC   C4B56590   6.106  37.806   7.350
 8817POPC   NC356591  38.462  18.332   5.550
 8817POPC   PO456592  38.445  18.320   5.850
 8817POPC   GL156593  38.477  18.254   6.150
 8817POPC   GL256594  38.514  18.421   6.150
 8817POPC   C1A56595  38.497  18.248   6.450
 8817POPC   D2A56596  38.433  18.300   6.750
 8817POPC   C3A56597  38.441  18.328   7.050
 8817POPC   C4A56598  38.464  18.303   7.350
 8817POPC   C1B56599  38.590  18.453   6.450
 8817POPC   C2B56600  38.603  18.513   6.750
 8817POPC   C3B56601  38.634  18.472   7.050
 8817POPC   C4B56602  38.574  18.543   7.350
 8818POPC   NC356603  36.908   0.429   5.550
 8818POPC   PO456604  36.882   0.395   5.850
 8818POPC   GL156605  36.928   0.449   6.150
 8818POPC   GL256606  36.911   0.361   6.150
 8818POPC   C1A56607  36.916   0.393   6.450
 8818POPC   D2A56608  36.908   0.481   6.750
 8818POPC   C3A56609  36.901   0.430   7.050
 8818POPC   C4A56610  36.879   0.423   7.350
 8818POPC   C1B56611  36.955   0.221   6.450
 8818POPC   C2B56612  36.869   0.215   6.750
 8818POPC   C3B56613  36.892   0.182   7.050
 8818POPC   C4B56614  36.926   0.230   7.350
 8819POPC   NC356615  25.997  35.305   5.550
 8819POPC   PO456616  26.042  35.368   5.850
 8819POPC   GL156617  26.087  35.347   6.150
 8819POPC   GL256618  26.157  35.323   6.150
 8819POPC   C1A56619  26.026  35.318   6.450
 8819POPC   D2A56620  26.062  35.370   6.750
 8819POPC   C3A56621  26.025  35.345   7.050
 8819POPC   C4A56622  26.009  35.384   7.350
 8819POPC   C1B56623  26.296  35.186   6.450
 8819POPC   C2B56624  26.213  35.252   6.750
 8819POPC   C3B56625  26.280  35.200   7.050
 8819POPC   C4B56626  26.205  35.204   7.350
 8820POPC   NC356627  14.369   8.948   5.550
 8820POPC   PO456628  14.375   8.954   5.850
 8820POPC   GL156629  14.418   8.935   6.150
 8820POPC   GL256630  14.357   8.829   6.150
 8820POPC   C1A56631  14.375   8.925   6.450
 8820POPC   D2A56632  14.403   8.992   6.750
 8820POPC   C3A56633  14.400   8.977   7.050
 8820POPC   C4A56634  14.404   8.936   7.350
 8820POPC   C1B56635  14.322   8.732   6.450
 8820POPC   C2B56636  14.260   8.745   6.750
 8820POPC   C3B56637  14.290   8.790   7.050
 8820POPC   C4B56638  14.335   8.790   7.350
 8821POPC   NC356639   7.392  29.964   5.550
 8821POPC   PO456640   7.440  29.902   5.850
 8821POPC   GL156641   7.470  29.923   6.150
 8821POPC   GL256642   7.317  29.826   6.150
 8821POPC   C1A56643   7.466  29.927   6.450
 8821POPC   D2A56644   7.470  29.926   6.750
 8821POPC   C3A56645   7.383  29.932   7.050
 8821POPC   C4A56646   7.456  29.910   7.350
 8821POPC   C1B56647   7.161  29.842   6.450
 8821POPC   C2B56648   7.207  29.796   6.750
 8821POPC   C3B56649   7.197  29.813   7.050
 8821POPC   C4B56650   7.250  29.790   7.350
 8822POPC   NC356651  11.300  29.185   5.550
 8822POPC   PO456652  11.294  29.141   5.850
 8822POPC   GL156653  11.336  29.099   6.150
 8822POPC   GL256654  11.368  29.106   6.150
 8822POPC   C1A56655  11.292  29.134   6.450
 8822POPC   D2A56656  11.256  29.163   6.750
 8822POPC   C3A56657  11.347  29.139   7.050
 8822POPC   C4A56658  11.275  29.154   7.350
 8822POPC   C1B56659  11.481  29.016   6.450
 8822POPC   C2B56660  11.460  28.981   6.750
 8822POPC   C3B56661  11.499  29.028   7.050
 8822POPC   C4B56662  11.483  28.963   7.350
 8823POPC   NC356663  27.613  22.909   5.550
 8823POPC   PO456664  27.583  22.924   5.850
 8823POPC   GL156665  27.638  22.928   6.150
 8823POPC   GL256666  27.488  22.931   6.150
 8823POPC   C1A56667  27.629  22.900   6.450
 8823POPC   D2A56668  27.633  22.902   6.750
 8823POPC   C3A56669  27.594  22.980   7.050
 8823POPC   C4A56670  27.629  22.953   7.350
 8823POPC   C1B56671  27.364  22.845   6.450
 8823POPC   C2B56672  27.347  22.861   6.750
 8823POPC   C3B56673  27.320  22.844   7.050
 8823POPC   C4B56674  27.413  22.845   7.350
 8824POPC   NC356675  19.076  28.401   5.550
 8824POPC   PO456676  19.027  28.349   5.850
 8824POPC   GL156677  19.016  28.394   6.150
 8824POPC   GL256678  19.191  28.416   6.150
 8824POPC   C1A56679  19.072  28.384   6.450
 8824POPC   D2A56680  19.060  28.352   6.750
 8824POPC   C3A56681  19.108  28.351   7.050
 8824POPC   C4A56682  19.036  28.339   7.350
 8824POPC   C1B56683  19.342  28.467   6.450
 8824POPC   C2B56684  19.334  28.432   6.750
 8824POPC   C3B56685  19.346  28.420   7.050
 8824POPC   C4B56686  19.311  28.402   7.350
 8825POPC   NC356687  13.671   9.741   5.550
 8825POPC   PO456688  13.654   9.715   5.850
 8825POPC   GL156689  13.579   9.704   6.150
 8825POPC   GL256690  13.705   9.769   6.150
 8825POPC   C1A56691  13.629   9.759   6.450
 8825POPC   D2A56692  13.581   9.707   6.750
 8825POPC   C3A56693  13.607   9.740   7.050
 8825POPC   C4A56694  13.677   9.763   7.350
 8825POPC   C1B56695  13.857   9.887   6.450
 8825POPC   C2B56696  13.860   9.873   6.750
 8825POPC   C3B56697  13.868   9.879   7.050
 8825POPC   C4B56698  13.832   9.807   7.350
 8826POPC   NC356699  26.044  23.713   5.550
 8826POPC   PO456700  26.029  23.760   5.850
 8826POPC   GL156701  26.043  23.693   6.150
 8826POPC   GL256702  26.102  23.765   6.150
 8826POPC   C1A56703  26.079  23.667   6.450
 8826POPC   D2A56704  26.076  23.739   6.750
 8826POPC   C3A56705  26.009  23.691   7.050
 8826POPC   C4A56706  26.028  23.676   7.350
 8826POPC   C1B56707  26.199  23.913   6.450
 8826POPC   C2B56708  26.246  23.840   6.750
 8826POPC   C3B56709  26.250  23.896   7.050
 8826POPC   C4B56710  26.275  23.877   7.350
 8827POPC   NC356711  13.662  43.882   5.550
 8827POPC   PO456712  13.646  43.876   5.850
 8827POPC   GL156713  13.612  43.905   6.150
 8827POPC   GL256714  13.493  43.906   6.150
 8827POPC   C1A56715  13.666  43.866   6.450
 8827POPC   D2A56716  13.593  43.930   6.750
 8827POPC   C3A56717  13.598  43.877   7.050
 8827POPC   C4A56718  13.580  43.913   7.350
 8827POPC   C1B56719  13.353  43.891   6.450
 8827POPC   C2B56720  13.346  43.959   6.750
 8827POPC   C3B56721  13.347  43.944   7.050
 8827POPC   C4B56722  13.355  43.967   7.350
 8828POPC   NC356723  13.657  17.462   5.550
 8828POPC   PO456724  13.625  17.512   5.850
 8828POPC   GL156725  13.611  17.503   6.150
 8828POPC   GL256726  13.491  17.561   6.150
 8828POPC   C1A56727  13.632  17.528   6.450
 8828POPC   D2A56728  13.667  17.462   6.750
 8828POPC   C3A56729  13.588  17.508   7.050
 8828POPC   C4A56730  13.623  17.472   7.350
 8828POPC   C1B56731  13.373  17.556   6.450
 8828POPC   C2B56732  13.392  17.515   6.750
 8828POPC   C3B56733  13.371  17.542   7.050
 8828POPC   C4B56734  13.381  17.496   7.350
 8829POPC   NC356735  32.248  22.192   5.550
 8829POPC   PO456736  32.258  22.132   5.850
 8829POPC   GL156737  32.203  22.141   6.150
 8829POPC   GL256738  32.360  22.055   6.150
 8829POPC   C1A56739  32.243  22.143   6.450
 8829POPC   D2A56740  32.242  22.208   6.750
 8829POPC   C3A56741  32.228  22.161   7.050
 8829POPC   C4A56742  32.209  22.191   7.350
 8829POPC   C1B56743  32.432  21.995   6.450
 8829POPC   C2B56744  32.487  21.983   6.750
 8829POPC   C3B56745  32.477  22.030   7.050
 8829POPC   C4B56746  32.444  22.048   7.350
 8830POPC   NC356747  43.081  12.026   5.550
 8830POPC   PO456748  43.156  12.113   5.850
 8830POPC   GL156749  43.130  12.055   6.150
 8830POPC   GL256750  43.052  12.235   6.150
 8830POPC   C1A56751  43.109  12.110   6.450
 8830POPC   D2A56752  43.159  12.105   6.750
 8830POPC   C3A56753  43.138  12.057   7.050
 8830POPC   C4A56754  43.116  12.054   7.350
 8830POPC   C1B56755  42.954  12.320   6.450
 8830POPC   C2B56756  42.998  12.258   6.750
 8830POPC   C3B56757  43.046  12.269   7.050
 8830POPC   C4B56758  42.988  12.333   7.350
 8831POPC   NC356759   5.080  43.876   5.550
 8831POPC   PO456760   5.129  43.898   5.850
 8831POPC   GL156761   5.083  43.842   6.150
 8831POPC   GL256762   5.082  44.023   6.150
 8831POPC   C1A56763   5.098  43.922   6.450
 8831POPC   D2A56764   5.125  43.837   6.750
 8831POPC   C3A56765   5.126  43.906   7.050
 8831POPC   C4A56766   5.107  43.844   7.350
 8831POPC   C1B56767   5.018  44.097   6.450
 8831POPC   C2B56768   5.087  44.161   6.750
 8831POPC   C3B56769   5.052  44.158   7.050
 8831POPC   C4B56770   5.084  44.089   7.350
 8832POPC   NC356771   4.339   8.961   5.550
 8832POPC   PO456772   4.323   9.010   5.850
 8832POPC   GL156773   4.273   8.971   6.150
 8832POPC   GL256774   4.207   9.063   6.150
 8832POPC   C1A56775   4.281   9.016   6.450
 8832POPC   D2A56776   4.274   8.939   6.750
 8832POPC   C3A56777   4.312   9.006   7.050
 8832POPC   C4A56778   4.366   8.936   7.350
 8832POPC   C1B56779   4.152   9.136   6.450
 8832POPC   C2B56780   4.165   9.138   6.750
 8832POPC   C3B56781   4.129   9.144   7.050
 8832POPC   C4B56782   4.114   9.157   7.350
 8833POPC   NC356783   8.176  26.865   5.550
 8833POPC   PO456784   8.225  26.859   5.850
 8833POPC   GL156785   8.167  26.769   6.150
 8833POPC   GL256786   8.176  26.651   6.150
 8833POPC   C1A56787   8.149  26.810   6.450
 8833POPC   D2A56788   8.208  26.827   6.750
 8833POPC   C3A56789   8.233  26.853   7.050
 8833POPC   C4A56790   8.201  26.770   7.350
 8833POPC   C1B56791   8.286  26.545   6.450
 8833POPC   C2B56792   8.197  26.542   6.750
 8833POPC   C3B56793   8.217  26.550   7.050
 8833POPC   C4B56794   8.240  26.580   7.350
 8834POPC   NC356795  21.364  38.417   5.550
 8834POPC   PO456796  21.373  38.446   5.850
 8834POPC   GL156797  21.366  38.494   6.150
 8834POPC   GL256798  21.274  38.412   6.150
 8834POPC   C1A56799  21.345  38.441   6.450
 8834POPC   D2A56800  21.382  38.498   6.750
 8834POPC   C3A56801  21.349  38.476   7.050
 8834POPC   C4A56802  21.419  38.434   7.350
 8834POPC   C1B56803  21.165  38.450   6.450
 8834POPC   C2B56804  21.149  38.437   6.750
 8834POPC   C3B56805  21.183  38.363   7.050
 8834POPC   C4B56806  21.182  38.441   7.350
 8835POPC   NC356807  12.031   9.754   5.550
 8835POPC   PO456808  12.053   9.772   5.850
 8835POPC   GL156809  12.123   9.736   6.150
 8835POPC   GL256810  12.042   9.868   6.150
 8835POPC   C1A56811  12.083   9.746   6.450
 8835POPC   D2A56812  12.125   9.791   6.750
 8835POPC   C3A56813  12.112   9.798   7.050
 8835POPC   C4A56814  12.057   9.704   7.350
 8835POPC   C1B56815  11.966   9.958   6.450
 8835POPC   C2B56816  11.953   9.908   6.750
 8835POPC   C3B56817  11.904   9.916   7.050
 8835POPC   C4B56818  11.961   9.980   7.350
 8836POPC   NC356819   2.017  15.132   5.550
 8836POPC   PO456820   2.010  15.150   5.850
 8836POPC   GL156821   1.972  15.204   6.150
 8836POPC   GL256822   1.836  15.240   6.150
 8836POPC   C1A56823   2.005  15.199   6.450
 8836POPC   D2A56824   1.983  15.201   6.750
 8836POPC   C3A56825   1.963  15.142   7.050
 8836POPC   C4A56826   2.000  15.169   7.350
 8836POPC   C1B56827   1.799  15.225   6.450
 8836POPC   C2B56828   1.731  15.277   6.750
 8836POPC   C3B56829   1.744  15.301   7.050
 8836POPC   C4B56830   1.798  15.219   7.350
 8837POPC   NC356831   5.087  25.278   5.550
 8837POPC   PO456832   5.097  25.228   5.850
 8837POPC   GL156833   5.101  25.237   6.150
 8837POPC   GL256834   5.005  25.221   6.150
 8837POPC   C1A56835   5.097  25.256   6.450
 8837POPC   D2A56836   5.138  25.241   6.750
 8837POPC   C3A56837   5.064  25.268   7.050
 8837POPC   C4A56838   5.102  25.247   7.350
 8837POPC   C1B56839   4.834  25.104   6.450
 8837POPC   C2B56840   4.911  25.186   6.750
 8837POPC   C3B56841   4.866  25.142   7.050
 8837POPC   C4B56842   4.914  25.172   7.350
 8838POPC   NC356843   2.803  43.890   5.550
 8838POPC   PO456844   2.736  43.926   5.850
 8838POPC   GL156845   2.800  43.902   6.150
 8838POPC   GL256846   2.825  43.964   6.150
 8838POPC   C1A56847   2.793  43.898   6.450
 8838POPC   D2A56848   2.772  43.843   6.750
 8838POPC   C3A56849   2.798  43.857   7.050
 8838POPC   C4A56850   2.764  43.857   7.350
 8838POPC   C1B56851   2.994  44.061   6.450
 8838POPC   C2B56852   2.922  44.035   6.750
 8838POPC   C3B56853   2.997  44.066   7.050
 8838POPC   C4B56854   2.989  44.037   7.350
 8839POPC   NC356855  24.522  40.811   5.550
 8839POPC   PO456856  24.524  40.747   5.850
 8839POPC   GL156857  24.471  40.809   6.150
 8839POPC   GL256858  24.568  40.765   6.150
 8839POPC   C1A56859  24.444  40.749   6.450
 8839POPC   D2A56860  24.504  40.777   6.750
 8839POPC   C3A56861  24.456  40.772   7.050
 8839POPC   C4A56862  24.510  40.813   7.350
 8839POPC   C1B56863  24.720  40.786   6.450
 8839POPC   C2B56864  24.691  40.759   6.750
 8839POPC   C3B56865  24.726  40.762   7.050
 8839POPC   C4B56866  24.767  40.763   7.350
 8840POPC   NC356867  15.909   5.096   5.550
 8840POPC   PO456868  15.957   5.139   5.850
 8840POPC   GL156869  15.973   5.051   6.150
 8840POPC   GL256870  15.863   5.068   6.150
 8840POPC   C1A56871  15.970   5.130   6.450
 8840POPC   D2A56872  15.916   5.125   6.750
 8840POPC   C3A56873  15.910   5.049   7.050
 8840POPC   C4A56874  15.979   5.092   7.350
 8840POPC   C1B56875  15.765   4.971   6.450
 8840POPC   C2B56876  15.749   4.959   6.750
 8840POPC   C3B56877  15.712   5.030   7.050
 8840POPC   C4B56878  15.700   5.010   7.350
 8841POPC   NC356879  42.345  26.018   5.550
 8841POPC   PO456880  42.307  26.007   5.850
 8841POPC   GL156881  42.371  25.991   6.150
 8841POPC   GL256882  42.382  25.946   6.150
 8841POPC   C1A56883  42.365  26.025   6.450
 8841POPC   D2A56884  42.333  26.046   6.750
 8841POPC   C3A56885  42.365  26.021   7.050
 8841POPC   C4A56886  42.348  26.062   7.350
 8841POPC   C1B56887  42.488  25.863   6.450
 8841POPC   C2B56888  42.494  25.912   6.750
 8841POPC   C3B56889  42.466  25.857   7.050
 8841POPC   C4B56890  42.540  25.877   7.350
 8842POPC   NC356891  36.133  43.087   5.550
 8842POPC   PO456892  36.117  43.079   5.850
 8842POPC   GL156893  36.145  43.117   6.150
 8842POPC   GL256894  36.013  43.157   6.150
 8842POPC   C1A56895  36.107  43.107   6.450
 8842POPC   D2A56896  36.111  43.134   6.750
 8842POPC   C3A56897  36.177  43.139   7.050
 8842POPC   C4A56898  36.117  43.106   7.350
 8842POPC   C1B56899  35.976  43.296   6.450
 8842POPC   C2B56900  35.888  43.263   6.750
 8842POPC   C3B56901  35.982  43.264   7.050
 8842POPC   C4B56902  35.978  43.307   7.350
 8843POPC   NC356903   3.558  21.388   5.550
 8843POPC   PO456904   3.567  21.403   5.850
 8843POPC   GL156905   3.537  21.395   6.150
 8843POPC   GL256906   3.463  21.370   6.150
 8843POPC   C1A56907   3.578  21.341   6.450
 8843POPC   D2A56908   3.498  21.400   6.750
 8843POPC   C3A56909   3.544  21.351   7.050
 8843POPC   C4A56910   3.570  21.355   7.350
 8843POPC   C1B56911   3.312  21.355   6.450
 8843POPC   C2B56912   3.292  21.310   6.750
 8843POPC   C3B56913   3.279  21.329   7.050
 8843POPC   C4B56914   3.336  21.320   7.350
 8844POPC   NC356915  26.815   2.759   5.550
 8844POPC   PO456916  26.801   2.762   5.850
 8844POPC   GL156917  26.856   2.778   6.150
 8844POPC   GL256918  26.988   2.720   6.150
 8844POPC   C1A56919  26.777   2.772   6.450
 8844POPC   D2A56920  26.797   2.721   6.750
 8844POPC   C3A56921  26.850   2.729   7.050
 8844POPC   C4A56922  26.768   2.776   7.350
 8844POPC   C1B56923  27.027   2.806   6.450
 8844POPC   C2B56924  27.083   2.775   6.750
 8844POPC   C3B56925  27.098   2.799   7.050
 8844POPC   C4B56926  27.050   2.733   7.350
 8845POPC   NC356927  35.391  19.839   5.550
 8845POPC   PO456928  35.382  19.841   5.850
 8845POPC   GL156929  35.380  19.785   6.150
 8845POPC   GL256930  35.213  19.735   6.150
 8845POPC   C1A56931  35.398  19.799   6.450
 8845POPC   D2A56932  35.332  19.835   6.750
 8845POPC   C3A56933  35.325  19.816   7.050
 8845POPC   C4A56934  35.378  19.825   7.350
 8845POPC   C1B56935  35.126  19.739   6.450
 8845POPC   C2B56936  35.115  19.722   6.750
 8845POPC   C3B56937  35.103  19.748   7.050
 8845POPC   C4B56938  35.145  19.731   7.350
 8846POPC   NC356939  34.591  29.895   5.550
 8846POPC   PO456940  34.545  29.952   5.850
 8846POPC   GL156941  34.606  29.911   6.150
 8846POPC   GL256942  34.725  29.844   6.150
 8846POPC   C1A56943  34.600  29.928   6.450
 8846POPC   D2A56944  34.542  29.961   6.750
 8846POPC   C3A56945  34.584  29.957   7.050
 8846POPC   C4A56946  34.544  29.919   7.350
 8846POPC   C1B56947  34.768  29.815   6.450
 8846POPC   C2B56948  34.738  29.753   6.750
 8846POPC   C3B56949  34.811  29.787   7.050
 8846POPC   C4B56950  34.804  29.790   7.350
 8847POPC   NC356951   5.852  28.389   5.550
 8847POPC   PO456952   5.833  28.332   5.850
 8847POPC   GL156953   5.919  28.385   6.150
 8847POPC   GL256954   5.737  28.347   6.150
 8847POPC   C1A56955   5.898  28.380   6.450
 8847POPC   D2A56956   5.865  28.404   6.750
 8847POPC   C3A56957   5.857  28.375   7.050
 8847POPC   C4A56958   5.845  28.356   7.350
 8847POPC   C1B56959   5.602  28.273   6.450
 8847POPC   C2B56960   5.628  28.306   6.750
 8847POPC   C3B56961   5.624  28.284   7.050
 8847POPC   C4B56962   5.639  28.300   7.350
 8848POPC   NC356963  35.352  17.492   5.550
 8848POPC   PO456964  35.318  17.473   5.850
 8848POPC   GL156965  35.365  17.470   6.150
 8848POPC   GL256966  35.444  17.443   6.150
 8848POPC   C1A56967  35.314  17.482   6.450
 8848POPC   D2A56968  35.377  17.541   6.750
 8848POPC   C3A56969  35.319  17.555   7.050
 8848POPC   C4A56970  35.385  17.528   7.350
 8848POPC   C1B56971  35.493  17.272   6.450
 8848POPC   C2B56972  35.522  17.270   6.750
 8848POPC   C3B56973  35.471  17.286   7.050
 8848POPC   C4B56974  35.461  17.259   7.350
 8849POPC   NC356975   6.694  34.527   5.550
 8849POPC   PO456976   6.664  34.532   5.850
 8849POPC   GL156977   6.695  34.573   6.150
 8849POPC   GL256978   6.486  34.538   6.150
 8849POPC   C1A56979   6.687  34.622   6.450
 8849POPC   D2A56980   6.597  34.533   6.750
 8849POPC   C3A56981   6.676  34.623   7.050
 8849POPC   C4A56982   6.627  34.557   7.350
 8849POPC   C1B56983   6.372  34.531   6.450
 8849POPC   C2B56984   6.447  34.581   6.750
 8849POPC   C3B56985   6.430  34.488   7.050
 8849POPC   C4B56986   6.422  34.575   7.350
 8850POPC   NC356987   7.377  18.309   5.550
 8850POPC   PO456988   7.427  18.259   5.850
 8850POPC   GL156989   7.437  18.281   6.150
 8850POPC   GL256990   7.272  18.273   6.150
 8850POPC   C1A56991   7.449  18.269   6.450
 8850POPC   D2A56992   7.451  18.316   6.750
 8850POPC   C3A56993   7.405  18.259   7.050
 8850POPC   C4A56994   7.415  18.330   7.350
 8850POPC   C1B56995   7.224  18.367   6.450
 8850POPC   C2B56996   7.207  18.328   6.750
 8850POPC   C3B56997   7.210  18.379   7.050
 8850POPC   C4B56998   7.229  18.312   7.350
 8851POPC   NC356999  23.734  14.364   5.550
 8851POPC   PO457000  23.686  14.394   5.850
 8851POPC   GL157001  23.706  14.381   6.150
 8851POPC   GL257002  23.628  14.485   6.150
 8851POPC   C1A57003  23.681  14.433   6.450
 8851POPC   D2A57004  23.738  14.445   6.750
 8851POPC   C3A57005  23.691  14.385   7.050
 8851POPC   C4A57006  23.695  14.367   7.350
 8851POPC   C1B57007  23.679  14.652   6.450
 8851POPC   C2B57008  23.656  14.640   6.750
 8851POPC   C3B57009  23.600  14.610   7.050
 8851POPC   C4B57010  23.591  14.685   7.350
 8852POPC   NC357011  23.692   7.427   5.550
 8852POPC   PO457012  23.715   7.378   5.850
 8852POPC   GL157013  23.674   7.408   6.150
 8852POPC   GL257014  23.744   7.497   6.150
 8852POPC   C1A57015  23.712   7.373   6.450
 8852POPC   D2A57016  23.739   7.437   6.750
 8852POPC   C3A57017  23.762   7.373   7.050
 8852POPC   C4A57018  23.726   7.386   7.350
 8852POPC   C1B57019  23.744   7.704   6.450
 8852POPC   C2B57020  23.776   7.707   6.750
 8852POPC   C3B57021  23.836   7.636   7.050
 8852POPC   C4B57022  23.832   7.663   7.350
 8853POPC   NC357023  17.498  24.538   5.550
 8853POPC   PO457024  17.513  24.461   5.850
 8853POPC   GL157025  17.503  24.485   6.150
 8853POPC   GL257026  17.586  24.326   6.150
 8853POPC   C1A57027  17.483  24.515   6.450
 8853POPC   D2A57028  17.495  24.472   6.750
 8853POPC   C3A57029  17.548  24.468   7.050
 8853POPC   C4A57030  17.466  24.477   7.350
 8853POPC   C1B57031  17.568  24.302   6.450
 8853POPC   C2B57032  17.551  24.303   6.750
 8853POPC   C3B57033  17.569  24.259   7.050
 8853POPC   C4B57034  17.640  24.276   7.350
 8854POPC   NC357035   2.807  22.211   5.550
 8854POPC   PO457036   2.734  22.185   5.850
 8854POPC   GL157037   2.749  22.155   6.150
 8854POPC   GL257038   2.701  22.001   6.150
 8854POPC   C1A57039   2.760  22.154   6.450
 8854POPC   D2A57040   2.718  22.152   6.750
 8854POPC   C3A57041   2.790  22.131   7.050
 8854POPC   C4A57042   2.734  22.149   7.350
 8854POPC   C1B57043   2.727  21.886   6.450
 8854POPC   C2B57044   2.740  21.957   6.750
 8854POPC   C3B57045   2.681  21.926   7.050
 8854POPC   C4B57046   2.685  21.918   7.350
 8855POPC   NC357047  32.263  40.049   5.550
 8855POPC   PO457048  32.199  40.005   5.850
 8855POPC   GL157049  32.292  40.033   6.150
 8855POPC   GL257050  32.341  40.041   6.150
 8855POPC   C1A57051  32.285  40.037   6.450
 8855POPC   D2A57052  32.234  39.990   6.750
 8855POPC   C3A57053  32.260  40.044   7.050
 8855POPC   C4A57054  32.245  40.048   7.350
 8855POPC   C1B57055  32.484  40.044   6.450
 8855POPC   C2B57056  32.468  40.081   6.750
 8855POPC   C3B57057  32.446  40.086   7.050
 8855POPC   C4B57058  32.502  40.060   7.350
 8856POPC   NC357059   1.173  17.461   5.550
 8856POPC   PO457060   1.187  17.548   5.850
 8856POPC   GL157061   1.178  17.503   6.150
 8856POPC   GL257062   1.188  17.565   6.150
 8856POPC   C1A57063   1.167  17.533   6.450
 8856POPC   D2A57064   1.201  17.473   6.750
 8856POPC   C3A57065   1.257  17.540   7.050
 8856POPC   C4A57066   1.168  17.472   7.350
 8856POPC   C1B57067   1.051  17.710   6.450
 8856POPC   C2B57068   1.047  17.711   6.750
 8856POPC   C3B57069   1.135  17.706   7.050
 8856POPC   C4B57070   1.122  17.698   7.350
 8857POPC   NC357071  22.170   3.526   5.550
 8857POPC   PO457072  22.196   3.554   5.850
 8857POPC   GL157073  22.118   3.578   6.150
 8857POPC   GL257074  22.090   3.678   6.150
 8857POPC   C1A57075  22.127   3.499   6.450
 8857POPC   D2A57076  22.154   3.544   6.750
 8857POPC   C3A57077  22.152   3.566   7.050
 8857POPC   C4A57078  22.147   3.538   7.350
 8857POPC   C1B57079  22.029   3.725   6.450
 8857POPC   C2B57080  22.058   3.729   6.750
 8857POPC   C3B57081  22.009   3.807   7.050
 8857POPC   C4B57082  22.026   3.740   7.350
 8858POPC   NC357083  42.368   2.800   5.550
 8858POPC   PO457084  42.327   2.758   5.850
 8858POPC   GL157085  42.365   2.752   6.150
 8858POPC   GL257086  42.328   2.602   6.150
 8858POPC   C1A57087  42.312   2.779   6.450
 8858POPC   D2A57088  42.319   2.727   6.750
 8858POPC   C3A57089  42.348   2.741   7.050
 8858POPC   C4A57090  42.333   2.775   7.350
 8858POPC   C1B57091  42.382   2.525   6.450
 8858POPC   C2B57092  42.379   2.484   6.750
 8858POPC   C3B57093  42.419   2.540   7.050
 8858POPC   C4B57094  42.437   2.532   7.350
 8859POPC   NC357095  26.010  14.363   5.550
 8859POPC   PO457096  26.004  14.404   5.850
 8859POPC   GL157097  26.082  14.407   6.150
 8859POPC   GL257098  26.073  14.313   6.150
 8859POPC   C1A57099  26.046  14.415   6.450
 8859POPC   D2A57100  26.023  14.406   6.750
 8859POPC   C3A57101  26.048  14.394   7.050
 8859POPC   C4A57102  26.083  14.380   7.350
 8859POPC   C1B57103  26.201  14.224   6.450
 8859POPC   C2B57104  26.227  14.242   6.750
 8859POPC   C3B57105  26.164  14.211   7.050
 8859POPC   C4B57106  26.231  14.157   7.350
 8860POPC   NC357107   0.475  10.557   5.550
 8860POPC   PO457108   0.398  10.533   5.850
 8860POPC   GL157109   0.484  10.478   6.150
 8860POPC   GL257110   0.461  10.602   6.150
 8860POPC   C1A57111   0.421  10.547   6.450
 8860POPC   D2A57112   0.469  10.526   6.750
 8860POPC   C3A57113   0.466  10.532   7.050
 8860POPC   C4A57114   0.389  10.477   7.350
 8860POPC   C1B57115   0.499  10.807   6.450
 8860POPC   C2B57116   0.540  10.756   6.750
 8860POPC   C3B57117   0.529  10.759   7.050
 8860POPC   C4B57118   0.460  10.768   7.350
 8861POPC   NC357119  19.047  33.757   5.550
 8861POPC   PO457120  19.038  33.783   5.850
 8861POPC   GL157121  19.018  33.783   6.150
 8861POPC   GL257122  18.933  33.722   6.150
 8861POPC   C1A57123  19.105  33.766   6.450
 8861POPC   D2A57124  19.069  33.822   6.750
 8861POPC   C3A57125  19.009  33.808   7.050
 8861POPC   C4A57126  19.054  33.768   7.350
 8861POPC   C1B57127  18.875  33.688   6.450
 8861POPC   C2B57128  18.821  33.655   6.750
 8861POPC   C3B57129  18.851  33.690   7.050
 8861POPC   C4B57130  18.832  33.707   7.350
 8862POPC   NC357131  35.336   5.891   5.550
 8862POPC   PO457132  35.349   5.898   5.850
 8862POPC   GL157133  35.359   5.891   6.150
 8862POPC   GL257134  35.497   5.848   6.150
 8862POPC   C1A57135  35.323   5.864   6.450
 8862POPC   D2A57136  35.359   5.872   6.750
 8862POPC   C3A57137  35.371   5.858   7.050
 8862POPC   C4A57138  35.377   5.866   7.350
 8862POPC   C1B57139  35.562   5.857   6.450
 8862POPC   C2B57140  35.617   5.794   6.750
 8862POPC   C3B57141  35.566   5.817   7.050
 8862POPC   C4B57142  35.626   5.870   7.350
 8863POPC   NC357143  24.449  33.828   5.550
 8863POPC   PO457144  24.486  33.831   5.850
 8863POPC   GL157145  24.443  33.801   6.150
 8863POPC   GL257146  24.570  33.743   6.150
 8863POPC   C1A57147  24.511  33.821   6.450
 8863POPC   D2A57148  24.496  33.813   6.750
 8863POPC   C3A57149  24.531  33.815   7.050
 8863POPC   C4A57150  24.459  33.755   7.350
 8863POPC   C1B57151  24.687  33.771   6.450
 8863POPC   C2B57152  24.706  33.769   6.750
 8863POPC   C3B57153  24.694  33.693   7.050
 8863POPC   C4B57154  24.707  33.756   7.350
 8864POPC   NC357155   9.756  17.514   5.550
 8864POPC   PO457156   9.736  17.508   5.850
 8864POPC   GL157157   9.735  17.536   6.150
 8864POPC   GL257158   9.664  17.637   6.150
 8864POPC   C1A57159   9.705  17.556   6.450
 8864POPC   D2A57160   9.797  17.550   6.750
 8864POPC   C3A57161   9.703  17.503   7.050
 8864POPC   C4A57162   9.754  17.473   7.350
 8864POPC   C1B57163   9.655  17.733   6.450
 8864POPC   C2B57164   9.630  17.737   6.750
 8864POPC   C3B57165   9.611  17.693   7.050
 8864POPC   C4B57166   9.562  17.689   7.350
 8865POPC   NC357167  25.291  34.561   5.550
 8865POPC   PO457168  25.271  34.592   5.850
 8865POPC   GL157169  25.282  34.584   6.150
 8865POPC   GL257170  25.356  34.577   6.150
 8865POPC   C1A57171  25.268  34.547   6.450
 8865POPC   D2A57172  25.314  34.605   6.750
 8865POPC   C3A57173  25.302  34.594   7.050
 8865POPC   C4A57174  25.312  34.542   7.350
 8865POPC   C1B57175  25.467  34.624   6.450
 8865POPC   C2B57176  25.531  34.568   6.750
 8865POPC   C3B57177  25.496  34.587   7.050
 8865POPC   C4B57178  25.465  34.647   7.350
 8866POPC   NC357179   0.429  39.181   5.550
 8866POPC   PO457180   0.457  39.190   5.850
 8866POPC   GL157181   0.440  39.251   6.150
 8866POPC   GL257182   0.530  39.309   6.150
 8866POPC   C1A57183   0.390  39.183   6.450
 8866POPC   D2A57184   0.395  39.196   6.750
 8866POPC   C3A57185   0.392  39.185   7.050
 8866POPC   C4A57186   0.418  39.275   7.350
 8866POPC   C1B57187   0.621  39.409   6.450
 8866POPC   C2B57188   0.661  39.357   6.750
 8866POPC   C3B57189   0.629  39.395   7.050
 8866POPC   C4B57190   0.612  39.416   7.350
 8867POPC   NC357191   4.275  37.634   5.550
 8867POPC   PO457192   4.311  37.710   5.850
 8867POPC   GL157193   4.295  37.685   6.150
 8867POPC   GL257194   4.258  37.814   6.150
 8867POPC   C1A57195   4.319  37.687   6.450
 8867POPC   D2A57196   4.315  37.658   6.750
 8867POPC   C3A57197   4.331  37.638   7.050
 8867POPC   C4A57198   4.343  37.674   7.350
 8867POPC   C1B57199   4.240  37.895   6.450
 8867POPC   C2B57200   4.289  37.957   6.750
 8867POPC   C3B57201   4.280  37.967   7.050
 8867POPC   C4B57202   4.252  37.929   7.350
 8868POPC   NC357203  19.060  10.551   5.550
 8868POPC   PO457204  19.060  10.570   5.850
 8868POPC   GL157205  19.106  10.557   6.150
 8868POPC   GL257206  18.957  10.400   6.150
 8868POPC   C1A57207  19.012  10.500   6.450
 8868POPC   D2A57208  19.097  10.512   6.750
 8868POPC   C3A57209  19.036  10.568   7.050
 8868POPC   C4A57210  19.104  10.545   7.350
 8868POPC   C1B57211  18.910  10.297   6.450
 8868POPC   C2B57212  18.904  10.315   6.750
 8868POPC   C3B57213  18.931  10.318   7.050
 8868POPC   C4B57214  18.883  10.317   7.350
 8869POPC   NC357215  39.257  22.181   5.550
 8869POPC   PO457216  39.223  22.144   5.850
 8869POPC   GL157217  39.205  22.201   6.150
 8869POPC   GL257218  39.275  22.086   6.150
 8869POPC   C1A57219  39.245  22.132   6.450
 8869POPC   D2A57220  39.217  22.163   6.750
 8869POPC   C3A57221  39.236  22.187   7.050
 8869POPC   C4A57222  39.260  22.138   7.350
 8869POPC   C1B57223  39.328  21.975   6.450
 8869POPC   C2B57224  39.356  21.957   6.750
 8869POPC   C3B57225  39.300  21.924   7.050
 8869POPC   C4B57226  39.293  21.897   7.350
 8870POPC   NC357227  31.452   4.269   5.550
 8870POPC   PO457228  31.443   4.283   5.850
 8870POPC   GL157229  31.495   4.292   6.150
 8870POPC   GL257230  31.623   4.263   6.150
 8870POPC   C1A57231  31.519   4.353   6.450
 8870POPC   D2A57232  31.490   4.359   6.750
 8870POPC   C3A57233  31.459   4.354   7.050
 8870POPC   C4A57234  31.453   4.350   7.350
 8870POPC   C1B57235  31.745   4.279   6.450
 8870POPC   C2B57236  31.720   4.253   6.750
 8870POPC   C3B57237  31.716   4.306   7.050
 8870POPC   C4B57238  31.716   4.329   7.350
 8871POPC   NC357239  39.252  24.468   5.550
 8871POPC   PO457240  39.280  24.443   5.850
 8871POPC   GL157241  39.208  24.523   6.150
 8871POPC   GL257242  39.148  24.586   6.150
 8871POPC   C1A57243  39.223  24.501   6.450
 8871POPC   D2A57244  39.223  24.501   6.750
 8871POPC   C3A57245  39.183  24.485   7.050
 8871POPC   C4A57246  39.276  24.482   7.350
 8871POPC   C1B57247  38.997  24.600   6.450
 8871POPC   C2B57248  39.016  24.661   6.750
 8871POPC   C3B57249  39.067  24.601   7.050
 8871POPC   C4B57250  39.050  24.628   7.350
 8872POPC   NC357251  17.467   9.699   5.550
 8872POPC   PO457252  17.511   9.772   5.850
 8872POPC   GL157253  17.486   9.713   6.150
 8872POPC   GL257254  17.630   9.690   6.150
 8872POPC   C1A57255  17.475   9.708   6.450
 8872POPC   D2A57256  17.467   9.744   6.750
 8872POPC   C3A57257  17.482   9.706   7.050
 8872POPC   C4A57258  17.524   9.795   7.350
 8872POPC   C1B57259  17.634   9.573   6.450
 8872POPC   C2B57260  17.633   9.503   6.750
 8872POPC   C3B57261  17.636   9.540   7.050
 8872POPC   C4B57262  17.625   9.546   7.350
 8873POPC   NC357263  42.308  38.504   5.550
 8873POPC   PO457264  42.300  38.475   5.850
 8873POPC   GL157265  42.335  38.418   6.150
 8873POPC   GL257266  42.170  38.451   6.150
 8873POPC   C1A57267  42.302  38.424   6.450
 8873POPC   D2A57268  42.318  38.409   6.750
 8873POPC   C3A57269  42.308  38.443   7.050
 8873POPC   C4A57270  42.325  38.430   7.350
 8873POPC   C1B57271  42.123  38.506   6.450
 8873POPC   C2B57272  42.111  38.448   6.750
 8873POPC   C3B57273  42.072  38.459   7.050
 8873POPC   C4B57274  42.041  38.474   7.350
 8874POPC   NC357275  32.265   1.189   5.550
 8874POPC   PO457276  32.243   1.231   5.850
 8874POPC   GL157277  32.256   1.261   6.150
 8874POPC   GL257278  32.338   1.346   6.150
 8874POPC   C1A57279  32.296   1.187   6.450
 8874POPC   D2A57280  32.284   1.173   6.750
 8874POPC   C3A57281  32.273   1.220   7.050
 8874POPC   C4A57282  32.211   1.228   7.350
 8874POPC   C1B57283  32.374   1.445   6.450
 8874POPC   C2B57284  32.346   1.442   6.750
 8874POPC   C3B57285  32.388   1.470   7.050
 8874POPC   C4B57286  32.386   1.411   7.350
 8875POPC   NC357287  36.104  21.385   5.550
 8875POPC   PO457288  36.136  21.434   5.850
 8875POPC   GL157289  36.124  21.394   6.150
 8875POPC   GL257290  36.046  21.286   6.150
 8875POPC   C1A57291  36.082  21.408   6.450
 8875POPC   D2A57292  36.149  21.434   6.750
 8875POPC   C3A57293  36.107  21.422   7.050
 8875POPC   C4A57294  36.087  21.340   7.350
 8875POPC   C1B57295  36.001  21.201   6.450
 8875POPC   C2B57296  35.998  21.206   6.750
 8875POPC   C3B57297  35.959  21.166   7.050
 8875POPC   C4B57298  36.027  21.215   7.350
 8876POPC   NC357299  33.834  36.126   5.550
 8876POPC   PO457300  33.825  36.130   5.850
 8876POPC   GL157301  33.845  36.108   6.150
 8876POPC   GL257302  33.849  36.230   6.150
 8876POPC   C1A57303  33.757  36.150   6.450
 8876POPC   D2A57304  33.767  36.135   6.750
 8876POPC   C3A57305  33.776  36.103   7.050
 8876POPC   C4A57306  33.773  36.163   7.350
 8876POPC   C1B57307  33.900  36.310   6.450
 8876POPC   C2B57308  33.894  36.356   6.750
 8876POPC   C3B57309  33.900  36.320   7.050
 8876POPC   C4B57310  33.895  36.380   7.350
 8877POPC   NC357311  26.071  43.107   5.550
 8877POPC   PO457312  26.022  43.095   5.850
 8877POPC   GL157313  26.057  43.076   6.150
 8877POPC   GL257314  26.064  42.955   6.150
 8877POPC   C1A57315  25.997  43.062   6.450
 8877POPC   D2A57316  26.056  43.107   6.750
 8877POPC   C3A57317  26.004  43.105   7.050
 8877POPC   C4A57318  26.051  43.126   7.350
 8877POPC   C1B57319  26.116  42.937   6.450
 8877POPC   C2B57320  26.122  42.847   6.750
 8877POPC   C3B57321  26.124  42.912   7.050
 8877POPC   C4B57322  26.163  42.938   7.350
 8878POPC   NC357323  14.449  33.827   5.550
 8878POPC   PO457324  14.382  33.841   5.850
 8878POPC   GL157325  14.432  33.790   6.150
 8878POPC   GL257326  14.287  33.906   6.150
 8878POPC   C1A57327  14.411  33.795   6.450
 8878POPC   D2A57328  14.392  33.783   6.750
 8878POPC   C3A57329  14.404  33.811   7.050
 8878POPC   C4A57330  14.428  33.813   7.350
 8878POPC   C1B57331  14.194  33.983   6.450
 8878POPC   C2B57332  14.259  33.980   6.750
 8878POPC   C3B57333  14.254  34.003   7.050
 8878POPC   C4B57334  14.272  34.012   7.350
 8879POPC   NC357335  40.748  43.918   5.550
 8879POPC   PO457336  40.832  43.874   5.850
 8879POPC   GL157337  40.769  43.893   6.150
 8879POPC   GL257338  40.870  43.776   6.150
 8879POPC   C1A57339  40.802  43.855   6.450
 8879POPC   D2A57340  40.758  43.885   6.750
 8879POPC   C3A57341  40.802  43.928   7.050
 8879POPC   C4A57342  40.768  43.849   7.350
 8879POPC   C1B57343  40.890  43.679   6.450
 8879POPC   C2B57344  40.883  43.632   6.750
 8879POPC   C3B57345  40.926  43.654   7.050
 8879POPC   C4B57346  40.918  43.661   7.350
 8880POPC   NC357347  26.779  20.568   5.550
 8880POPC   PO457348  26.800  20.587   5.850
 8880POPC   GL157349  26.860  20.604   6.150
 8880POPC   GL257350  26.732  20.509   6.150
 8880POPC   C1A57351  26.792  20.582   6.450
 8880POPC   D2A57352  26.788  20.577   6.750
 8880POPC   C3A57353  26.832  20.660   7.050
 8880POPC   C4A57354  26.847  20.638   7.350
 8880POPC   C1B57355  26.683  20.421   6.450
 8880POPC   C2B57356  26.674  20.386   6.750
 8880POPC   C3B57357  26.727  20.356   7.050
 8880POPC   C4B57358  26.689  20.417   7.350
 8881POPC   NC357359  23.677  29.124   5.550
 8881POPC   PO457360  23.670  29.111   5.850
 8881POPC   GL157361  23.664  29.107   6.150
 8881POPC   GL257362  23.815  29.158   6.150
 8881POPC   C1A57363  23.735  29.174   6.450
 8881POPC   D2A57364  23.692  29.112   6.750
 8881POPC   C3A57365  23.673  29.104   7.050
 8881POPC   C4A57366  23.693  29.194   7.350
 8881POPC   C1B57367  23.983  29.111   6.450
 8881POPC   C2B57368  23.957  29.073   6.750
 8881POPC   C3B57369  23.992  29.143   7.050
 8881POPC   C4B57370  23.928  29.104   7.350
 8882POPC   NC357371  44.699  16.754   5.550
 8882POPC   PO457372  44.661  16.742   5.850
 8882POPC   GL157373  44.663  16.768   6.150
 8882POPC   GL257374  44.686  16.579   6.150
 8882POPC   C1A57375  44.692  16.708   6.450
 8882POPC   D2A57376  44.712  16.731   6.750
 8882POPC   C3A57377  44.659  16.754   7.050
 8882POPC   C4A57378  44.669  16.698   7.350
 8882POPC   C1B57379  44.663  16.460   6.450
 8882POPC   C2B57380  44.663  16.466   6.750
 8882POPC   C3B57381  44.680  16.529   7.050
 8882POPC   C4B57382  44.638  16.503   7.350
 8883POPC   NC357383  14.437   4.342   5.550
 8883POPC   PO457384  14.354   4.280   5.850
 8883POPC   GL157385  14.388   4.335   6.150
 8883POPC   GL257386  14.271   4.287   6.150
 8883POPC   C1A57387  14.430   4.321   6.450
 8883POPC   D2A57388  14.431   4.341   6.750
 8883POPC   C3A57389  14.405   4.283   7.050
 8883POPC   C4A57390  14.439   4.307   7.350
 8883POPC   C1B57391  14.135   4.203   6.450
 8883POPC   C2B57392  14.162   4.192   6.750
 8883POPC   C3B57393  14.161   4.247   7.050
 8883POPC   C4B57394  14.153   4.198   7.350
 8884POPC   NC357395   9.770   0.433   5.550
 8884POPC   PO457396   9.791   0.419   5.850
 8884POPC   GL157397   9.702   0.464   6.150
 8884POPC   GL257398   9.804   0.559   6.150
 8884POPC   C1A57399   9.765   0.424   6.450
 8884POPC   D2A57400   9.786   0.441   6.750
 8884POPC   C3A57401   9.704   0.401   7.050
 8884POPC   C4A57402   9.765   0.416   7.350
 8884POPC   C1B57403   9.854   0.675   6.450
 8884POPC   C2B57404   9.874   0.657   6.750
 8884POPC   C3B57405   9.907   0.616   7.050
 8884POPC   C4B57406   9.879   0.686   7.350
 8885POPC   NC357407  33.022   3.539   5.550
 8885POPC   PO457408  33.023   3.527   5.850
 8885POPC   GL157409  33.054   3.526   6.150
 8885POPC   GL257410  32.883   3.427   6.150
 8885POPC   C1A57411  33.014   3.564   6.450
 8885POPC   D2A57412  33.049   3.524   6.750
 8885POPC   C3A57413  33.028   3.564   7.050
 8885POPC   C4A57414  33.045   3.578   7.350
 8885POPC   C1B57415  32.854   3.391   6.450
 8885POPC   C2B57416  32.808   3.365   6.750
 8885POPC   C3B57417  32.869   3.358   7.050
 8885POPC   C4B57418  32.787   3.362   7.350
 8886POPC   NC357419  34.568  26.780   5.550
 8886POPC   PO457420  34.561  26.850   5.850
 8886POPC   GL157421  34.559  26.793   6.150
 8886POPC   GL257422  34.730  26.820   6.150
 8886POPC   C1A57423  34.609  26.769   6.450
 8886POPC   D2A57424  34.563  26.806   6.750
 8886POPC   C3A57425  34.614  26.828   7.050
 8886POPC   C4A57426  34.593  26.802   7.350
 8886POPC   C1B57427  34.801  26.882   6.450
 8886POPC   C2B57428  34.802  26.856   6.750
 8886POPC   C3B57429  34.800  26.935   7.050
 8886POPC   C4B57430  34.769  26.922   7.350
 8887POPC   NC357431  26.002  21.380   5.550
 8887POPC   PO457432  26.025  21.337   5.850
 8887POPC   GL157433  26.021  21.398   6.150
 8887POPC   GL257434  25.962  21.357   6.150
 8887POPC   C1A57435  26.074  21.355   6.450
 8887POPC   D2A57436  26.004  21.413   6.750
 8887POPC   C3A57437  26.084  21.353   7.050
 8887POPC   C4A57438  26.070  21.390   7.350
 8887POPC   C1B57439  25.756  21.383   6.450
 8887POPC   C2B57440  25.793  21.323   6.750
 8887POPC   C3B57441  25.776  21.340   7.050
 8887POPC   C4B57442  25.782  21.285   7.350
 8888POPC   NC357443  34.569  22.155   5.550
 8888POPC   PO457444  34.551  22.143   5.850
 8888POPC   GL157445  34.526  22.204   6.150
 8888POPC   GL257446  34.488  22.234   6.150
 8888POPC   C1A57447  34.570  22.201   6.450
 8888POPC   D2A57448  34.593  22.132   6.750
 8888POPC   C3A57449  34.581  22.204   7.050
 8888POPC   C4A57450  34.600  22.133   7.350
 8888POPC   C1B57451  34.330  22.293   6.450
 8888POPC   C2B57452  34.382  22.348   6.750
 8888POPC   C3B57453  34.418  22.268   7.050
 8888POPC   C4B57454  34.400  22.342   7.350
 8889POPC   NC357455  17.528  42.291   5.550
 8889POPC   PO457456  17.461  42.300   5.850
 8889POPC   GL157457  17.511  42.364   6.150
 8889POPC   GL257458  17.631  42.295   6.150
 8889POPC   C1A57459  17.477  42.313   6.450
 8889POPC   D2A57460  17.466  42.316   6.750
 8889POPC   C3A57461  17.537  42.331   7.050
 8889POPC   C4A57462  17.537  42.363   7.350
 8889POPC   C1B57463  17.739  42.209   6.450
 8889POPC   C2B57464  17.747  42.224   6.750
 8889POPC   C3B57465  17.696  42.268   7.050
 8889POPC   C4B57466  17.752  42.273   7.350
 8890POPC   NC357467  26.012  41.536   5.550
 8890POPC   PO457468  26.006  41.562   5.850
 8890POPC   GL157469  26.078  41.587   6.150
 8890POPC   GL257470  25.917  41.690   6.150
 8890POPC   C1A57471  26.005  41.588   6.450
 8890POPC   D2A57472  26.053  41.519   6.750
 8890POPC   C3A57473  26.046  41.607   7.050
 8890POPC   C4A57474  26.006  41.594   7.350
 8890POPC   C1B57475  25.895  41.733   6.450
 8890POPC   C2B57476  25.898  41.691   6.750
 8890POPC   C3B57477  25.865  41.751   7.050
 8890POPC   C4B57478  25.838  41.730   7.350
 8891POPC   NC357479  15.931  22.952   5.550
 8891POPC   PO457480  16.004  22.898   5.850
 8891POPC   GL157481  15.992  22.945   6.150
 8891POPC   GL257482  16.051  22.963   6.150
 8891POPC   C1A57483  15.963  22.978   6.450
 8891POPC   D2A57484  15.986  22.986   6.750
 8891POPC   C3A57485  15.933  22.956   7.050
 8891POPC   C4A57486  15.985  22.958   7.350
 8891POPC   C1B57487  16.181  22.959   6.450
 8891POPC   C2B57488  16.239  23.009   6.750
 8891POPC   C3B57489  16.214  22.984   7.050
 8891POPC   C4B57490  16.162  23.016   7.350
 8892POPC   NC357491  38.498  32.204   5.550
 8892POPC   PO457492  38.420  32.255   5.850
 8892POPC   GL157493  38.407  32.284   6.150
 8892POPC   GL257494  38.505  32.344   6.150
 8892POPC   C1A57495  38.459  32.216   6.450
 8892POPC   D2A57496  38.492  32.294   6.750
 8892POPC   C3A57497  38.417  32.258   7.050
 8892POPC   C4A57498  38.410  32.280   7.350
 8892POPC   C1B57499  38.568  32.448   6.450
 8892POPC   C2B57500  38.591  32.446   6.750
 8892POPC   C3B57501  38.544  32.438   7.050
 8892POPC   C4B57502  38.590  32.512   7.350
 8893POPC   NC357503  44.654  17.470   5.550
 8893POPC   PO457504  44.633  17.518   5.850
 8893POPC   GL157505  44.709  17.515   6.150
 8893POPC   GL257506  44.811  17.408   6.150
 8893POPC   C1A57507  44.711  17.539   6.450
 8893POPC   D2A57508  44.628  17.472   6.750
 8893POPC   C3A57509  44.624  17.479   7.050
 8893POPC   C4A57510  44.615  17.532   7.350
 8893POPC   C1B57511  44.876  17.421   6.450
 8893POPC   C2B57512  44.876  17.393   6.750
 8893POPC   C3B57513  44.899  17.399   7.050
 8893POPC   C4B57514  44.905  17.347   7.350
 8894POPC   NC357515   8.209   1.232   5.550
 8894POPC   PO457516   8.200   1.220   5.850
 8894POPC   GL157517   8.212   1.219   6.150
 8894POPC   GL257518   8.120   1.169   6.150
 8894POPC   C1A57519   8.212   1.193   6.450
 8894POPC   D2A57520   8.232   1.232   6.750
 8894POPC   C3A57521   8.240   1.191   7.050
 8894POPC   C4A57522   8.222   1.172   7.350
 8894POPC   C1B57523   7.995   1.147   6.450
 8894POPC   C2B57524   7.966   1.117   6.750
 8894POPC   C3B57525   7.947   1.088   7.050
 8894POPC   C4B57526   7.962   1.168   7.350
 8895POPC   NC357527  12.097  38.479   5.550
 8895POPC   PO457528  12.060  38.459   5.850
 8895POPC   GL157529  12.038  38.496   6.150
 8895POPC   GL257530  11.947  38.417   6.150
 8895POPC   C1A57531  12.053  38.429   6.450
 8895POPC   D2A57532  12.116  38.441   6.750
 8895POPC   C3A57533  12.060  38.469   7.050
 8895POPC   C4A57534  12.082  38.408   7.350
 8895POPC   C1B57535  11.890  38.375   6.450
 8895POPC   C2B57536  11.823  38.404   6.750
 8895POPC   C3B57537  11.860  38.350   7.050
 8895POPC   C4B57538  11.850  38.412   7.350
 8896POPC   NC357539  12.085  36.859   5.550
 8896POPC   PO457540  12.068  36.918   5.850
 8896POPC   GL157541  12.072  36.864   6.150
 8896POPC   GL257542  11.933  36.894   6.150
 8896POPC   C1A57543  12.087  36.885   6.450
 8896POPC   D2A57544  12.121  36.915   6.750
 8896POPC   C3A57545  12.109  36.870   7.050
 8896POPC   C4A57546  12.065  36.860   7.350
 8896POPC   C1B57547  11.805  36.914   6.450
 8896POPC   C2B57548  11.830  36.874   6.750
 8896POPC   C3B57549  11.800  36.883   7.050
 8896POPC   C4B57550  11.832  36.920   7.350
 8897POPC   NC357551  28.399  24.513   5.550
 8897POPC   PO457552  28.333  24.446   5.850
 8897POPC   GL157553  28.387  24.475   6.150
 8897POPC   GL257554  28.345  24.619   6.150
 8897POPC   C1A57555  28.352  24.520   6.450
 8897POPC   D2A57556  28.402  24.476   6.750
 8897POPC   C3A57557  28.418  24.457   7.050
 8897POPC   C4A57558  28.361  24.445   7.350
 8897POPC   C1B57559  28.232  24.759   6.450
 8897POPC   C2B57560  28.308  24.686   6.750
 8897POPC   C3B57561  28.222  24.722   7.050
 8897POPC   C4B57562  28.235  24.710   7.350
 8898POPC   NC357563  12.818  43.151   5.550
 8898POPC   PO457564  12.836  43.103   5.850
 8898POPC   GL157565  12.831  43.144   6.150
 8898POPC   GL257566  12.937  43.120   6.150
 8898POPC   C1A57567  12.840  43.072   6.450
 8898POPC   D2A57568  12.818  43.099   6.750
 8898POPC   C3A57569  12.899  43.143   7.050
 8898POPC   C4A57570  12.886  43.123   7.350
 8898POPC   C1B57571  13.074  43.158   6.450
 8898POPC   C2B57572  13.052  43.137   6.750
 8898POPC   C3B57573  13.072  43.152   7.050
 8898POPC   C4B57574  13.081  43.153   7.350
 8899POPC   NC357575  29.152  34.577   5.550
 8899POPC   PO457576  29.122  34.586   5.850
 8899POPC   GL157577  29.192  34.540   6.150
 8899POPC   GL257578  29.218  34.611   6.150
 8899POPC   C1A57579  29.175  34.604   6.450
 8899POPC   D2A57580  29.167  34.606   6.750
 8899POPC   C3A57581  29.129  34.619   7.050
 8899POPC   C4A57582  29.109  34.533   7.350
 8899POPC   C1B57583  29.323  34.696   6.450
 8899POPC   C2B57584  29.386  34.664   6.750
 8899POPC   C3B57585  29.330  34.659   7.050
 8899POPC   C4B57586  29.349  34.684   7.350
 8900POPC   NC357587  35.336   9.793   5.550
 8900POPC   PO457588  35.375   9.774   5.850
 8900POPC   GL157589  35.353   9.728   6.150
 8900POPC   GL257590  35.424   9.826   6.150
 8900POPC   C1A57591  35.358   9.732   6.450
 8900POPC   D2A57592  35.370   9.780   6.750
 8900POPC   C3A57593  35.364   9.719   7.050
 8900POPC   C4A57594  35.331   9.790   7.350
 8900POPC   C1B57595  35.577   9.862   6.450
 8900POPC   C2B57596  35.530   9.825   6.750
 8900POPC   C3B57597  35.589   9.853   7.050
 8900POPC   C4B57598  35.625   9.810   7.350
 8901POPC   NC357599  15.134  19.826   5.550
 8901POPC   PO457600  15.214  19.842   5.850
 8901POPC   GL157601  15.129  19.850   6.150
 8901POPC   GL257602  15.286  19.876   6.150
 8901POPC   C1A57603  15.224  19.837   6.450
 8901POPC   D2A57604  15.130  19.877   6.750
 8901POPC   C3A57605  15.174  19.794   7.050
 8901POPC   C4A57606  15.139  19.839   7.350
 8901POPC   C1B57607  15.384  20.031   6.450
 8901POPC   C2B57608  15.378  19.999   6.750
 8901POPC   C3B57609  15.416  19.961   7.050
 8901POPC   C4B57610  15.377  20.042   7.350
 8902POPC   NC357611  33.000  43.866   5.550
 8902POPC   PO457612  33.053  43.838   5.850
 8902POPC   GL157613  33.017  43.896   6.150
 8902POPC   GL257614  33.141  43.940   6.150
 8902POPC   C1A57615  32.974  43.924   6.450
 8902POPC   D2A57616  33.015  43.903   6.750
 8902POPC   C3A57617  33.046  43.877   7.050
 8902POPC   C4A57618  33.020  43.896   7.350
 8902POPC   C1B57619  33.305  43.970   6.450
 8902POPC   C2B57620  33.291  43.937   6.750
 8902POPC   C3B57621  33.314  43.981   7.050
 8902POPC   C4B57622  33.315  43.928   7.350
 8903POPC   NC357623  41.579  44.699   5.550
 8903POPC   PO457624  41.533  44.660   5.850
 8903POPC   GL157625  41.550  44.641   6.150
 8903POPC   GL257626  41.474  44.784   6.150
 8903POPC   C1A57627  41.540  44.665   6.450
 8903POPC   D2A57628  41.514  44.646   6.750
 8903POPC   C3A57629  41.547  44.690   7.050
 8903POPC   C4A57630  41.530  44.685   7.350
 8903POPC   C1B57631  41.469  44.856   6.450
 8903POPC   C2B57632  41.472  44.902   6.750
 8903POPC   C3B57633  41.489  44.838   7.050
 8903POPC   C4B57634  41.488  44.914   7.350
 8904POPC   NC357635  32.257  39.213   5.550
 8904POPC   PO457636  32.248  39.222   5.850
 8904POPC   GL157637  32.274  39.194   6.150
 8904POPC   GL257638  32.306  39.377   6.150
 8904POPC   C1A57639  32.245  39.246   6.450
 8904POPC   D2A57640  32.294  39.223   6.750
 8904POPC   C3A57641  32.276  39.272   7.050
 8904POPC   C4A57642  32.254  39.207   7.350
 8904POPC   C1B57643  32.247  39.499   6.450
 8904POPC   C2B57644  32.258  39.496   6.750
 8904POPC   C3B57645  32.289  39.456   7.050
 8904POPC   C4B57646  32.309  39.508   7.350
 8905POPC   NC357647  16.725  24.484   5.550
 8905POPC   PO457648  16.745  24.454   5.850
 8905POPC   GL157649  16.745  24.442   6.150
 8905POPC   GL257650  16.791  24.421   6.150
 8905POPC   C1A57651  16.730  24.463   6.450
 8905POPC   D2A57652  16.686  24.524   6.750
 8905POPC   C3A57653  16.715  24.479   7.050
 8905POPC   C4A57654  16.696  24.465   7.350
 8905POPC   C1B57655  16.948  24.407   6.450
 8905POPC   C2B57656  16.979  24.342   6.750
 8905POPC   C3B57657  16.902  24.378   7.050
 8905POPC   C4B57658  16.980  24.369   7.350
 8906POPC   NC357659  29.955  24.495   5.550
 8906POPC   PO457660  29.894  24.484   5.850
 8906POPC   GL157661  29.880  24.521   6.150
 8906POPC   GL257662  29.885  24.632   6.150
 8906POPC   C1A57663  29.889  24.452   6.450
 8906POPC   D2A57664  29.968  24.459   6.750
 8906POPC   C3A57665  29.946  24.507   7.050
 8906POPC   C4A57666  29.910  24.473   7.350
 8906POPC   C1B57667  29.900  24.709   6.450
 8906POPC   C2B57668  29.883  24.787   6.750
 8906POPC   C3B57669  29.892  24.721   7.050
 8906POPC   C4B57670  29.948  24.770   7.350
 8907POPC   NC357671  22.952  43.896   5.550
 8907POPC   PO457672  22.935  43.870   5.850
 8907POPC   GL157673  22.952  43.839   6.150
 8907POPC   GL257674  22.975  43.934   6.150
 8907POPC   C1A57675  22.926  43.879   6.450
 8907POPC   D2A57676  22.985  43.909   6.750
 8907POPC   C3A57677  22.911  43.920   7.050
 8907POPC   C4A57678  22.985  43.918   7.350
 8907POPC   C1B57679  23.047  44.108   6.450
 8907POPC   C2B57680  23.117  44.077   6.750
 8907POPC   C3B57681  23.084  44.096   7.050
 8907POPC   C4B57682  23.129  44.076   7.350
 8908POPC   NC357683  38.495  22.208   5.550
 8908POPC   PO457684  38.424  22.182   5.850
 8908POPC   GL157685  38.433  22.189   6.150
 8908POPC   GL257686  38.467  22.082   6.150
 8908POPC   C1A57687  38.442  22.189   6.450
 8908POPC   D2A57688  38.406  22.137   6.750
 8908POPC   C3A57689  38.468  22.174   7.050
 8908POPC   C4A57690  38.420  22.115   7.350
 8908POPC   C1B57691  38.443  21.929   6.450
 8908POPC   C2B57692  38.432  21.944   6.750
 8908POPC   C3B57693  38.496  21.935   7.050
 8908POPC   C4B57694  38.502  21.879   7.350
 8909POPC   NC357695   5.889  39.260   5.550
 8909POPC   PO457696   5.864  39.202   5.850
 8909POPC   GL157697   5.840  39.250   6.150
 8909POPC   GL257698   5.786  39.323   6.150
 8909POPC   C1A57699   5.841  39.192   6.450
 8909POPC   D2A57700   5.828  39.277   6.750
 8909POPC   C3A57701   5.910  39.236   7.050
 8909POPC   C4A57702   5.862  39.204   7.350
 8909POPC   C1B57703   5.704  39.437   6.450
 8909POPC   C2B57704   5.756  39.464   6.750
 8909POPC   C3B57705   5.733  39.467   7.050
 8909POPC   C4B57706   5.674  39.467   7.350
 8910POPC   NC357707   8.167  37.703   5.550
 8910POPC   PO457708   8.156  37.687   5.850
 8910POPC   GL157709   8.222  37.658   6.150
 8910POPC   GL257710   8.114  37.715   6.150
 8910POPC   C1A57711   8.161  37.685   6.450
 8910POPC   D2A57712   8.221  37.677   6.750
 8910POPC   C3A57713   8.174  37.673   7.050
 8910POPC   C4A57714   8.207  37.638   7.350
 8910POPC   C1B57715   7.972  37.792   6.450
 8910POPC   C2B57716   8.023  37.867   6.750
 8910POPC   C3B57717   8.015  37.796   7.050
 8910POPC   C4B57718   7.979  37.817   7.350
 8911POPC   NC357719   2.738  40.815   5.550
 8911POPC   PO457720   2.734  40.795   5.850
 8911POPC   GL157721   2.798  40.827   6.150
 8911POPC   GL257722   2.850  40.712   6.150
 8911POPC   C1A57723   2.750  40.744   6.450
 8911POPC   D2A57724   2.795  40.739   6.750
 8911POPC   C3A57725   2.778  40.810   7.050
 8911POPC   C4A57726   2.753  40.741   7.350
 8911POPC   C1B57727   2.990  40.735   6.450
 8911POPC   C2B57728   2.999  40.638   6.750
 8911POPC   C3B57729   3.014  40.661   7.050
 8911POPC   C4B57730   2.949  40.731   7.350
 8912POPC   NC357731  14.370   5.123   5.550
 8912POPC   PO457732  14.382   5.142   5.850
 8912POPC   GL157733  14.413   5.045   6.150
 8912POPC   GL257734  14.411   4.935   6.150
 8912POPC   C1A57735  14.393   5.107   6.450
 8912POPC   D2A57736  14.393   5.127   6.750
 8912POPC   C3A57737  14.444   5.123   7.050
 8912POPC   C4A57738  14.447   5.095   7.350
 8912POPC   C1B57739  14.366   4.804   6.450
 8912POPC   C2B57740  14.414   4.876   6.750
 8912POPC   C3B57741  14.413   4.820   7.050
 8912POPC   C4B57742  14.374   4.824   7.350
 8913POPC   NC357743  29.889  43.149   5.550
 8913POPC   PO457744  29.966  43.109   5.850
 8913POPC   GL157745  29.915  43.097   6.150
 8913POPC   GL257746  29.853  43.216   6.150
 8913POPC   C1A57747  29.921  43.156   6.450
 8913POPC   D2A57748  29.906  43.147   6.750
 8913POPC   C3A57749  29.912  43.068   7.050
 8913POPC   C4A57750  29.941  43.153   7.350
 8913POPC   C1B57751  29.697  43.259   6.450
 8913POPC   C2B57752  29.737  43.262   6.750
 8913POPC   C3B57753  29.703  43.327   7.050
 8913POPC   C4B57754  29.775  43.278   7.350
 8914POPC   NC357755  39.231  35.324   5.550
 8914POPC   PO457756  39.263  35.378   5.850
 8914POPC   GL157757  39.272  35.375   6.150
 8914POPC   GL257758  39.170  35.287   6.150
 8914POPC   C1A57759  39.254  35.343   6.450
 8914POPC   D2A57760  39.227  35.308   6.750
 8914POPC   C3A57761  39.185  35.380   7.050
 8914POPC   C4A57762  39.225  35.333   7.350
 8914POPC   C1B57763  39.097  35.151   6.450
 8914POPC   C2B57764  39.090  35.149   6.750
 8914POPC   C3B57765  39.039  35.127   7.050
 8914POPC   C4B57766  39.103  35.149   7.350
 8915POPC   NC357767  14.410  22.148   5.550
 8915POPC   PO457768  14.401  22.146   5.850
 8915POPC   GL157769  14.361  22.160   6.150
 8915POPC   GL257770  14.529  22.221   6.150
 8915POPC   C1A57771  14.369  22.145   6.450
 8915POPC   D2A57772  14.412  22.167   6.750
 8915POPC   C3A57773  14.404  22.128   7.050
 8915POPC   C4A57774  14.368  22.171   7.350
 8915POPC   C1B57775  14.595  22.313   6.450
 8915POPC   C2B57776  14.604  22.323   6.750
 8915POPC   C3B57777  14.598  22.295   7.050
 8915POPC   C4B57778  14.636  22.292   7.350
 8916POPC   NC357779  24.481  33.066   5.550
 8916POPC   PO457780  24.532  33.023   5.850
 8916POPC   GL157781  24.480  33.003   6.150
 8916POPC   GL257782  24.596  32.946   6.150
 8916POPC   C1A57783  24.491  33.056   6.450
 8916POPC   D2A57784  24.505  33.024   6.750
 8916POPC   C3A57785  24.464  33.047   7.050
 8916POPC   C4A57786  24.472  33.056   7.350
 8916POPC   C1B57787  24.588  32.848   6.450
 8916POPC   C2B57788  24.682  32.789   6.750
 8916POPC   C3B57789  24.673  32.789   7.050
 8916POPC   C4B57790  24.594  32.810   7.350
 8917POPC   NC357791  40.010  26.810   5.550
 8917POPC   PO457792  40.010  26.851   5.850
 8917POPC   GL157793  40.038  26.797   6.150
 8917POPC   GL257794  39.880  26.855   6.150
 8917POPC   C1A57795  40.040  26.811   6.450
 8917POPC   D2A57796  39.997  26.814   6.750
 8917POPC   C3A57797  40.041  26.852   7.050
 8917POPC   C4A57798  40.054  26.813   7.350
 8917POPC   C1B57799  39.760  26.905   6.450
 8917POPC   C2B57800  39.752  26.921   6.750
 8917POPC   C3B57801  39.743  26.900   7.050
 8917POPC   C4B57802  39.812  26.847   7.350
 8918POPC   NC357803  10.508  21.342   5.550
 8918POPC   PO457804  10.516  21.363   5.850
 8918POPC   GL157805  10.548  21.337   6.150
 8918POPC   GL257806  10.642  21.482   6.150
 8918POPC   C1A57807  10.545  21.375   6.450
 8918POPC   D2A57808  10.530  21.408   6.750
 8918POPC   C3A57809  10.489  21.346   7.050
 8918POPC   C4A57810  10.537  21.341   7.350
 8918POPC   C1B57811  10.667  21.551   6.450
 8918POPC   C2B57812  10.658  21.601   6.750
 8918POPC   C3B57813  10.661  21.549   7.050
 8918POPC   C4B57814  10.660  21.609   7.350
 8919POPC   NC357815  12.864  43.879   5.550
 8919POPC   PO457816  12.813  43.876   5.850
 8919POPC   GL157817  12.850  43.854   6.150
 8919POPC   GL257818  12.931  43.843   6.150
 8919POPC   C1A57819  12.893  43.916   6.450
 8919POPC   D2A57820  12.872  43.883   6.750
 8919POPC   C3A57821  12.823  43.859   7.050
 8919POPC   C4A57822  12.870  43.917   7.350
 8919POPC   C1B57823  13.123  43.727   6.450
 8919POPC   C2B57824  13.090  43.816   6.750
 8919POPC   C3B57825  13.091  43.794   7.050
 8919POPC   C4B57826  13.043  43.807   7.350
 8920POPC   NC357827  25.245  26.039   5.550
 8920POPC   PO457828  25.255  25.992   5.850
 8920POPC   GL157829  25.258  26.088   6.150
 8920POPC   GL257830  25.225  25.931   6.150
 8920POPC   C1A57831  25.221  26.069   6.450
 8920POPC   D2A57832  25.261  26.068   6.750
 8920POPC   C3A57833  25.221  26.008   7.050
 8920POPC   C4A57834  25.237  25.998   7.350
 8920POPC   C1B57835  25.133  25.812   6.450
 8920POPC   C2B57836  25.101  25.787   6.750
 8920POPC   C3B57837  25.120  25.826   7.050
 8920POPC   C4B57838  25.188  25.782   7.350
 8921POPC   NC357839  40.021  31.518   5.550
 8921POPC   PO457840  40.046  31.501   5.850
 8921POPC   GL157841  39.969  31.472   6.150
 8921POPC   GL257842  39.920  31.535   6.150
 8921POPC   C1A57843  39.985  31.443   6.450
 8921POPC   D2A57844  39.969  31.441   6.750
 8921POPC   C3A57845  40.046  31.425   7.050
 8921POPC   C4A57846  39.969  31.512   7.350
 8921POPC   C1B57847  39.745  31.500   6.450
 8921POPC   C2B57848  39.773  31.579   6.750
 8921POPC   C3B57849  39.769  31.590   7.050
 8921POPC   C4B57850  39.744  31.546   7.350
 8922POPC   NC357851   5.898   8.179   5.550
 8922POPC   PO457852   5.843   8.241   5.850
 8922POPC   GL157853   5.820   8.242   6.150
 8922POPC   GL257854   5.823   8.109   6.150
 8922POPC   C1A57855   5.897   8.240   6.450
 8922POPC   D2A57856   5.897   8.222   6.750
 8922POPC   C3A57857   5.841   8.229   7.050
 8922POPC   C4A57858   5.874   8.204   7.350
 8922POPC   C1B57859   5.855   7.926   6.450
 8922POPC   C2B57860   5.858   7.906   6.750
 8922POPC   C3B57861   5.863   7.942   7.050
 8922POPC   C4B57862   5.877   7.942   7.350
 8923POPC   NC357863  36.937   3.517   5.550
 8923POPC   PO457864  36.854   3.545   5.850
 8923POPC   GL157865  36.881   3.530   6.150
 8923POPC   GL257866  36.744   3.539   6.150
 8923POPC   C1A57867  36.886   3.519   6.450
 8923POPC   D2A57868  36.899   3.510   6.750
 8923POPC   C3A57869  36.864   3.551   7.050
 8923POPC   C4A57870  36.922   3.586   7.350
 8923POPC   C1B57871  36.645   3.533   6.450
 8923POPC   C2B57872  36.637   3.498   6.750
 8923POPC   C3B57873  36.656   3.493   7.050
 8923POPC   C4B57874  36.606   3.549   7.350
 8924POPC   NC357875   5.119  19.861   5.550
 8924POPC   PO457876   5.045  19.837   5.850
 8924POPC   GL157877   5.062  19.854   6.150
 8924POPC   GL257878   5.098  19.745   6.150
 8924POPC   C1A57879   5.050  19.817   6.450
 8924POPC   D2A57880   5.123  19.840   6.750
 8924POPC   C3A57881   5.143  19.878   7.050
 8924POPC   C4A57882   5.116  19.828   7.350
 8924POPC   C1B57883   5.068  19.550   6.450
 8924POPC   C2B57884   5.104  19.631   6.750
 8924POPC   C3B57885   5.064  19.539   7.050
 8924POPC   C4B57886   5.063  19.602   7.350
 8925POPC   NC357887  26.828  36.932   5.550
 8925POPC   PO457888  26.776  36.868   5.850
 8925POPC   GL157889  26.779  36.924   6.150
 8925POPC   GL257890  26.890  36.832   6.150
 8925POPC   C1A57891  26.826  36.858   6.450
 8925POPC   D2A57892  26.855  36.931   6.750
 8925POPC   C3A57893  26.767  36.893   7.050
 8925POPC   C4A57894  26.846  36.864   7.350
 8925POPC   C1B57895  26.945  36.711   6.450
 8925POPC   C2B57896  26.937  36.706   6.750
 8925POPC   C3B57897  26.983  36.760   7.050
 8925POPC   C4B57898  26.936  36.716   7.350
 8926POPC   NC357899  41.564   8.994   5.550
 8926POPC   PO457900  41.570   8.951   5.850
 8926POPC   GL157901  41.522   8.986   6.150
 8926POPC   GL257902  41.502   8.874   6.150
 8926POPC   C1A57903  41.520   8.949   6.450
 8926POPC   D2A57904  41.563   9.022   6.750
 8926POPC   C3A57905  41.542   8.948   7.050
 8926POPC   C4A57906  41.535   9.008   7.350
 8926POPC   C1B57907  41.331   8.811   6.450
 8926POPC   C2B57908  41.341   8.850   6.750
 8926POPC   C3B57909  41.332   8.832   7.050
 8926POPC   C4B57910  41.401   8.816   7.350
 8927POPC   NC357911   8.937  42.314   5.550
 8927POPC   PO457912   8.987  42.299   5.850
 8927POPC   GL157913   9.006  42.350   6.150
 8927POPC   GL257914   8.874  42.357   6.150
 8927POPC   C1A57915   8.939  42.379   6.450
 8927POPC   D2A57916   8.959  42.290   6.750
 8927POPC   C3A57917   9.022  42.322   7.050
 8927POPC   C4A57918   9.012  42.334   7.350
 8927POPC   C1B57919   8.721  42.461   6.450
 8927POPC   C2B57920   8.738  42.454   6.750
 8927POPC   C3B57921   8.802  42.474   7.050
 8927POPC   C4B57922   8.719  42.428   7.350
 8928POPC   NC357923  37.713   8.950   5.550
 8928POPC   PO457924  37.689   8.946   5.850
 8928POPC   GL157925  37.670   8.968   6.150
 8928POPC   GL257926  37.533   9.057   6.150
 8928POPC   C1A57927  37.666   8.979   6.450
 8928POPC   D2A57928  37.728   9.014   6.750
 8928POPC   C3A57929  37.693   8.975   7.050
 8928POPC   C4A57930  37.695   8.958   7.350
 8928POPC   C1B57931  37.465   9.045   6.450
 8928POPC   C2B57932  37.431   9.065   6.750
 8928POPC   C3B57933  37.421   9.066   7.050
 8928POPC   C4B57934  37.419   9.085   7.350
 8929POPC   NC357935   1.963  22.893   5.550
 8929POPC   PO457936   2.022  22.945   5.850
 8929POPC   GL157937   1.986  22.985   6.150
 8929POPC   GL257938   2.100  22.898   6.150
 8929POPC   C1A57939   1.948  22.961   6.450
 8929POPC   D2A57940   2.013  22.901   6.750
 8929POPC   C3A57941   1.988  22.911   7.050
 8929POPC   C4A57942   1.965  22.942   7.350
 8929POPC   C1B57943   2.254  22.796   6.450
 8929POPC   C2B57944   2.178  22.849   6.750
 8929POPC   C3B57945   2.241  22.794   7.050
 8929POPC   C4B57946   2.245  22.782   7.350
 8930POPC   NC357947  22.946  12.875   5.550
 8930POPC   PO457948  22.917  12.843   5.850
 8930POPC   GL157949  22.924  12.821   6.150
 8930POPC   GL257950  22.794  12.790   6.150
 8930POPC   C1A57951  22.889  12.874   6.450
 8930POPC   D2A57952  22.951  12.810   6.750
 8930POPC   C3A57953  22.946  12.895   7.050
 8930POPC   C4A57954  22.913  12.875   7.350
 8930POPC   C1B57955  22.728  12.803   6.450
 8930POPC   C2B57956  22.662  12.786   6.750
 8930POPC   C3B57957  22.712  12.842   7.050
 8930POPC   C4B57958  22.716  12.785   7.350
 8931POPC   NC357959   8.222   3.533   5.550
 8931POPC   PO457960   8.206   3.520   5.850
 8931POPC   GL157961   8.157   3.501   6.150
 8931POPC   GL257962   8.307   3.441   6.150
 8931POPC   C1A57963   8.202   3.554   6.450
 8931POPC   D2A57964   8.178   3.581   6.750
 8931POPC   C3A57965   8.156   3.512   7.050
 8931POPC   C4A57966   8.183   3.584   7.350
 8931POPC   C1B57967   8.420   3.413   6.450
 8931POPC   C2B57968   8.410   3.381   6.750
 8931POPC   C3B57969   8.443   3.416   7.050
 8931POPC   C4B57970   8.446   3.387   7.350
 8932POPC   NC357971  11.325  15.914   5.550
 8932POPC   PO457972  11.266  16.005   5.850
 8932POPC   GL157973  11.276  15.951   6.150
 8932POPC   GL257974  11.166  15.933   6.150
 8932POPC   C1A57975  11.288  15.926   6.450
 8932POPC   D2A57976  11.326  15.956   6.750
 8932POPC   C3A57977  11.282  15.984   7.050
 8932POPC   C4A57978  11.309  15.987   7.350
 8932POPC   C1B57979  11.095  15.891   6.450
 8932POPC   C2B57980  11.067  15.914   6.750
 8932POPC   C3B57981  11.046  15.957   7.050
 8932POPC   C4B57982  11.034  15.987   7.350
 8933POPC   NC357983   5.104  43.076   5.550
 8933POPC   PO457984   5.109  43.122   5.850
 8933POPC   GL157985   5.134  43.139   6.150
 8933POPC   GL257986   5.243  43.086   6.150
 8933POPC   C1A57987   5.068  43.145   6.450
 8933POPC   D2A57988   5.107  43.097   6.750
 8933POPC   C3A57989   5.095  43.083   7.050
 8933POPC   C4A57990   5.132  43.101   7.350
 8933POPC   C1B57991   5.368  43.049   6.450
 8933POPC   C2B57992   5.362  43.050   6.750
 8933POPC   C3B57993   5.312  43.050   7.050
 8933POPC   C4B57994   5.382  43.032   7.350
 8934POPC   NC357995  36.896   2.029   5.550
 8934POPC   PO457996  36.915   1.980   5.850
 8934POPC   GL157997  36.857   2.006   6.150
 8934POPC   GL257998  36.767   2.010   6.150
 8934POPC   C1A57999  36.939   1.963   6.450
 8934POPC   D2A58000  36.902   1.973   6.750
 8934POPC   C3A58001  36.881   1.945   7.050
 8934POPC   C4A58002  36.875   2.002   7.350
 8934POPC   C1B58003  36.719   2.093   6.450
 8934POPC   C2B58004  36.699   2.078   6.750
 8934POPC   C3B58005  36.727   2.118   7.050
 8934POPC   C4B58006  36.721   2.125   7.350
 8935POPC   NC358007   2.014  26.795   5.550
 8935POPC   PO458008   1.978  26.795   5.850
 8935POPC   GL158009   2.012  26.827   6.150
 8935POPC   GL258010   1.892  26.835   6.150
 8935POPC   C1A58011   2.009  26.850   6.450
 8935POPC   D2A58012   2.030  26.800   6.750
 8935POPC   C3A58013   1.994  26.793   7.050
 8935POPC   C4A58014   1.944  26.769   7.350
 8935POPC   C1B58015   1.743  26.976   6.450
 8935POPC   C2B58016   1.719  26.922   6.750
 8935POPC   C3B58017   1.801  26.898   7.050
 8935POPC   C4B58018   1.810  26.923   7.350
 8936POPC   NC358019  33.794  19.855   5.550
 8936POPC   PO458020  33.838  19.821   5.850
 8936POPC   GL158021  33.835  19.847   6.150
 8936POPC   GL258022  33.682  19.795   6.150
 8936POPC   C1A58023  33.804  19.872   6.450
 8936POPC   D2A58024  33.842  19.852   6.750
 8936POPC   C3A58025  33.775  19.816   7.050
 8936POPC   C4A58026  33.833  19.864   7.350
 8936POPC   C1B58027  33.580  19.639   6.450
 8936POPC   C2B58028  33.589  19.636   6.750
 8936POPC   C3B58029  33.610  19.645   7.050
 8936POPC   C4B58030  33.605  19.653   7.350
 8937POPC   NC358031  24.498  17.478   5.550
 8937POPC   PO458032  24.490  17.532   5.850
 8937POPC   GL158033  24.449  17.509   6.150
 8937POPC   GL258034  24.497  17.652   6.150
 8937POPC   C1A58035  24.466  17.535   6.450
 8937POPC   D2A58036  24.444  17.516   6.750
 8937POPC   C3A58037  24.468  17.485   7.050
 8937POPC   C4A58038  24.468  17.522   7.350
 8937POPC   C1B58039  24.597  17.780   6.450
 8937POPC   C2B58040  24.583  17.753   6.750
 8937POPC   C3B58041  24.640  17.711   7.050
 8937POPC   C4B58042  24.573  17.703   7.350
 8938POPC   NC358043  43.071  20.656   5.550
 8938POPC   PO458044  43.082  20.646   5.850
 8938POPC   GL158045  43.085  20.590   6.150
 8938POPC   GL258046  43.076  20.749   6.150
 8938POPC   C1A58047  43.066  20.623   6.450
 8938POPC   D2A58048  43.135  20.642   6.750
 8938POPC   C3A58049  43.159  20.580   7.050
 8938POPC   C4A58050  43.134  20.630   7.350
 8938POPC   C1B58051  43.030  20.902   6.450
 8938POPC   C2B58052  43.041  20.832   6.750
 8938POPC   C3B58053  43.063  20.879   7.050
 8938POPC   C4B58054  43.028  20.842   7.350
 8939POPC   NC358055  39.215  33.065   5.550
 8939POPC   PO458056  39.237  33.062   5.850
 8939POPC   GL158057  39.273  32.985   6.150
 8939POPC   GL258058  39.278  32.905   6.150
 8939POPC   C1A58059  39.244  33.000   6.450
 8939POPC   D2A58060  39.243  33.069   6.750
 8939POPC   C3A58061  39.190  33.013   7.050
 8939POPC   C4A58062  39.229  33.061   7.350
 8939POPC   C1B58063  39.260  32.757   6.450
 8939POPC   C2B58064  39.244  32.782   6.750
 8939POPC   C3B58065  39.196  32.737   7.050
 8939POPC   C4B58066  39.271  32.749   7.350
 8940POPC   NC358067   3.523  37.665   5.550
 8940POPC   PO458068   3.549  37.714   5.850
 8940POPC   GL158069   3.497  37.703   6.150
 8940POPC   GL258070   3.712  37.729   6.150
 8940POPC   C1A58071   3.581  37.722   6.450
 8940POPC   D2A58072   3.520  37.630   6.750
 8940POPC   C3A58073   3.563  37.649   7.050
 8940POPC   C4A58074   3.492  37.666   7.350
 8940POPC   C1B58075   3.827  37.753   6.450
 8940POPC   C2B58076   3.783  37.759   6.750
 8940POPC   C3B58077   3.830  37.713   7.050
 8940POPC   C4B58078   3.769  37.765   7.350
 8941POPC   NC358079   0.481  19.792   5.550
 8941POPC   PO458080   0.419  19.854   5.850
 8941POPC   GL158081   0.450  19.846   6.150
 8941POPC   GL258082   0.592  19.879   6.150
 8941POPC   C1A58083   0.483  19.818   6.450
 8941POPC   D2A58084   0.474  19.823   6.750
 8941POPC   C3A58085   0.413  19.786   7.050
 8941POPC   C4A58086   0.396  19.847   7.350
 8941POPC   C1B58087   0.650  19.906   6.450
 8941POPC   C2B58088   0.689  19.977   6.750
 8941POPC   C3B58089   0.615  19.973   7.050
 8941POPC   C4B58090   0.633  19.966   7.350
 8942POPC   NC358091  16.772  30.716   5.550
 8942POPC   PO458092  16.722  30.725   5.850
 8942POPC   GL158093  16.706  30.738   6.150
 8942POPC   GL258094  16.653  30.624   6.150
 8942POPC   C1A58095  16.741  30.685   6.450
 8942POPC   D2A58096  16.754  30.698   6.750
 8942POPC   C3A58097  16.780  30.722   7.050
 8942POPC   C4A58098  16.770  30.697   7.350
 8942POPC   C1B58099  16.706  30.409   6.450
 8942POPC   C2B58100  16.642  30.432   6.750
 8942POPC   C3B58101  16.680  30.500   7.050
 8942POPC   C4B58102  16.621  30.409   7.350
 8943POPC   NC358103  27.633  12.842   5.550
 8943POPC   PO458104  27.585  12.883   5.850
 8943POPC   GL158105  27.642  12.855   6.150
 8943POPC   GL258106  27.713  12.955   6.150
 8943POPC   C1A58107  27.641  12.892   6.450
 8943POPC   D2A58108  27.549  12.821   6.750
 8943POPC   C3A58109  27.626  12.819   7.050
 8943POPC   C4A58110  27.553  12.837   7.350
 8943POPC   C1B58111  27.794  12.954   6.450
 8943POPC   C2B58112  27.814  13.030   6.750
 8943POPC   C3B58113  27.833  13.024   7.050
 8943POPC   C4B58114  27.781  13.022   7.350
 8944POPC   NC358115  44.647   6.670   5.550
 8944POPC   PO458116  44.710   6.627   5.850
 8944POPC   GL158117  44.690   6.640   6.150
 8944POPC   GL258118  44.614   6.755   6.150
 8944POPC   C1A58119  44.648   6.664   6.450
 8944POPC   D2A58120  44.678   6.597   6.750
 8944POPC   C3A58121  44.694   6.688   7.050
 8944POPC   C4A58122  44.641   6.624   7.350
 8944POPC   C1B58123  44.449   6.845   6.450
 8944POPC   C2B58124  44.446   6.825   6.750
 8944POPC   C3B58125  44.490   6.803   7.050
 8944POPC   C4B58126  44.488   6.787   7.350
 8945POPC   NC358127  26.035  40.763   5.550
 8945POPC   PO458128  26.039  40.827   5.850
 8945POPC   GL158129  26.089  40.825   6.150
 8945POPC   GL258130  25.989  40.895   6.150
 8945POPC   C1A58131  26.054  40.764   6.450
 8945POPC   D2A58132  26.027  40.820   6.750
 8945POPC   C3A58133  26.049  40.821   7.050
 8945POPC   C4A58134  26.054  40.789   7.350
 8945POPC   C1B58135  25.906  41.050   6.450
 8945POPC   C2B58136  25.963  41.008   6.750
 8945POPC   C3B58137  25.963  41.028   7.050
 8945POPC   C4B58138  25.974  40.976   7.350
 8946POPC   NC358139  27.632  31.446   5.550
 8946POPC   PO458140  27.566  31.445   5.850
 8946POPC   GL158141  27.550  31.473   6.150
 8946POPC   GL258142  27.515  31.543   6.150
 8946POPC   C1A58143  27.617  31.477   6.450
 8946POPC   D2A58144  27.543  31.480   6.750
 8946POPC   C3A58145  27.551  31.436   7.050
 8946POPC   C4A58146  27.594  31.431   7.350
 8946POPC   C1B58147  27.391  31.632   6.450
 8946POPC   C2B58148  27.376  31.647   6.750
 8946POPC   C3B58149  27.378  31.671   7.050
 8946POPC   C4B58150  27.439  31.693   7.350
 8947POPC   NC358151  19.065  34.534   5.550
 8947POPC   PO458152  19.021  34.590   5.850
 8947POPC   GL158153  19.035  34.529   6.150
 8947POPC   GL258154  18.984  34.517   6.150
 8947POPC   C1A58155  19.075  34.535   6.450
 8947POPC   D2A58156  19.106  34.602   6.750
 8947POPC   C3A58157  19.059  34.529   7.050
 8947POPC   C4A58158  19.065  34.601   7.350
 8947POPC   C1B58159  18.776  34.538   6.450
 8947POPC   C2B58160  18.798  34.543   6.750
 8947POPC   C3B58161  18.822  34.486   7.050
 8947POPC   C4B58162  18.817  34.474   7.350
 8948POPC   NC358163  43.078   7.378   5.550
 8948POPC   PO458164  43.082   7.403   5.850
 8948POPC   GL158165  43.132   7.406   6.150
 8948POPC   GL258166  43.042   7.350   6.150
 8948POPC   C1A58167  43.112   7.399   6.450
 8948POPC   D2A58168  43.156   7.444   6.750
 8948POPC   C3A58169  43.129   7.452   7.050
 8948POPC   C4A58170  43.089   7.430   7.350
 8948POPC   C1B58171  42.849   7.332   6.450
 8948POPC   C2B58172  42.895   7.328   6.750
 8948POPC   C3B58173  42.895   7.323   7.050
 8948POPC   C4B58174  42.849   7.321   7.350
 8949POPC   NC358175  26.851   3.551   5.550
 8949POPC   PO458176  26.823   3.522   5.850
 8949POPC   GL158177  26.816   3.508   6.150
 8949POPC   GL258178  26.915   3.660   6.150
 8949POPC   C1A58179  26.852   3.496   6.450
 8949POPC   D2A58180  26.855   3.501   6.750
 8949POPC   C3A58181  26.806   3.509   7.050
 8949POPC   C4A58182  26.854   3.568   7.350
 8949POPC   C1B58183  26.913   3.792   6.450
 8949POPC   C2B58184  26.910   3.760   6.750
 8949POPC   C3B58185  26.996   3.799   7.050
 8949POPC   C4B58186  26.910   3.782   7.350
 8950POPC   NC358187   9.743  19.826   5.550
 8950POPC   PO458188   9.756  19.837   5.850
 8950POPC   GL158189   9.770  19.799   6.150
 8950POPC   GL258190   9.897  19.779   6.150
 8950POPC   C1A58191   9.725  19.825   6.450
 8950POPC   D2A58192   9.711  19.819   6.750
 8950POPC   C3A58193   9.699  19.872   7.050
 8950POPC   C4A58194   9.713  19.824   7.350
 8950POPC   C1B58195   9.943  19.752   6.450
 8950POPC   C2B58196   9.917  19.686   6.750
 8950POPC   C3B58197   9.921  19.722   7.050
 8950POPC   C4B58198   9.927  19.700   7.350
 8951POPC   NC358199   4.271  44.664   5.550
 8951POPC   PO458200   4.363  44.656   5.850
 8951POPC   GL158201   4.361  44.694   6.150
 8951POPC   GL258202   4.349  44.712   6.150
 8951POPC   C1A58203   4.334  44.648   6.450
 8951POPC   D2A58204   4.318  44.630   6.750
 8951POPC   C3A58205   4.342  44.630   7.050
 8951POPC   C4A58206   4.337  44.666   7.350
 8951POPC   C1B58207   4.509  44.873   6.450
 8951POPC   C2B58208   4.500  44.884   6.750
 8951POPC   C3B58209   4.465  44.816   7.050
 8951POPC   C4B58210   4.455  44.836   7.350
 8952POPC   NC358211  11.281  10.542   5.550
 8952POPC   PO458212  11.253  10.547   5.850
 8952POPC   GL158213  11.261  10.561   6.150
 8952POPC   GL258214  11.331  10.602   6.150
 8952POPC   C1A58215  11.339  10.523   6.450
 8952POPC   D2A58216  11.320  10.561   6.750
 8952POPC   C3A58217  11.289  10.531   7.050
 8952POPC   C4A58218  11.294  10.489   7.350
 8952POPC   C1B58219  11.449  10.786   6.450
 8952POPC   C2B58220  11.398  10.735   6.750
 8952POPC   C3B58221  11.416  10.788   7.050
 8952POPC   C4B58222  11.386  10.766   7.350
 8953POPC   NC358223  18.244  30.669   5.550
 8953POPC   PO458224  18.255  30.741   5.850
 8953POPC   GL158225  18.294  30.684   6.150
 8953POPC   GL258226  18.259  30.780   6.150
 8953POPC   C1A58227  18.262  30.691   6.450
 8953POPC   D2A58228  18.322  30.704   6.750
 8953POPC   C3A58229  18.258  30.703   7.050
 8953POPC   C4A58230  18.290  30.682   7.350
 8953POPC   C1B58231  18.337  30.978   6.450
 8953POPC   C2B58232  18.292  30.926   6.750
 8953POPC   C3B58233  18.361  30.905   7.050
 8953POPC   C4B58234  18.349  30.909   7.350
 8954POPC   NC358235   4.279   8.230   5.550
 8954POPC   PO458236   4.284   8.212   5.850
 8954POPC   GL158237   4.339   8.243   6.150
 8954POPC   GL258238   4.271   8.358   6.150
 8954POPC   C1A58239   4.284   8.180   6.450
 8954POPC   D2A58240   4.286   8.241   6.750
 8954POPC   C3A58241   4.312   8.158   7.050
 8954POPC   C4A58242   4.296   8.204   7.350
 8954POPC   C1B58243   4.277   8.387   6.450
 8954POPC   C2B58244   4.278   8.477   6.750
 8954POPC   C3B58245   4.193   8.434   7.050
 8954POPC   C4B58246   4.285   8.484   7.350
 8955POPC   NC358247   9.753  31.445   5.550
 8955POPC   PO458248   9.746  31.450   5.850
 8955POPC   GL158249   9.702  31.446   6.150
 8955POPC   GL258250   9.683  31.368   6.150
 8955POPC   C1A58251   9.765  31.492   6.450
 8955POPC   D2A58252   9.760  31.502   6.750
 8955POPC   C3A58253   9.798  31.461   7.050
 8955POPC   C4A58254   9.700  31.500   7.350
 8955POPC   C1B58255   9.613  31.298   6.450
 8955POPC   C2B58256   9.557  31.297   6.750
 8955POPC   C3B58257   9.560  31.325   7.050
 8955POPC   C4B58258   9.631  31.283   7.350
 8956POPC   NC358259  14.383   3.539   5.550
 8956POPC   PO458260  14.419   3.528   5.850
 8956POPC   GL158261  14.401   3.555   6.150
 8956POPC   GL258262  14.338   3.457   6.150
 8956POPC   C1A58263  14.375   3.575   6.450
 8956POPC   D2A58264  14.427   3.528   6.750
 8956POPC   C3A58265  14.396   3.577   7.050
 8956POPC   C4A58266  14.376   3.523   7.350
 8956POPC   C1B58267  14.191   3.350   6.450
 8956POPC   C2B58268  14.216   3.382   6.750
 8956POPC   C3B58269  14.216   3.405   7.050
 8956POPC   C4B58270  14.222   3.405   7.350
 8957POPC   NC358271  21.410  41.595   5.550
 8957POPC   PO458272  21.422  41.600   5.850
 8957POPC   GL158273  21.433  41.529   6.150
 8957POPC   GL258274  21.358  41.727   6.150
 8957POPC   C1A58275  21.415  41.559   6.450
 8957POPC   D2A58276  21.380  41.570   6.750
 8957POPC   C3A58277  21.351  41.553   7.050
 8957POPC   C4A58278  21.406  41.592   7.350
 8957POPC   C1B58279  21.366  41.832   6.450
 8957POPC   C2B58280  21.404  41.803   6.750
 8957POPC   C3B58281  21.373  41.767   7.050
 8957POPC   C4B58282  21.363  41.857   7.350
 8958POPC   NC358283  11.332  36.879   5.550
 8958POPC   PO458284  11.333  36.865   5.850
 8958POPC   GL158285  11.340  36.899   6.150
 8958POPC   GL258286  11.420  36.815   6.150
 8958POPC   C1A58287  11.274  36.863   6.450
 8958POPC   D2A58288  11.264  36.946   6.750
 8958POPC   C3A58289  11.348  36.874   7.050
 8958POPC   C4A58290  11.335  36.914   7.350
 8958POPC   C1B58291  11.462  36.747   6.450
 8958POPC   C2B58292  11.457  36.786   6.750
 8958POPC   C3B58293  11.514  36.784   7.050
 8958POPC   C4B58294  11.537  36.788   7.350
 8959POPC   NC358295  11.334  44.628   5.550
 8959POPC   PO458296  11.303  44.673   5.850
 8959POPC   GL158297  11.265  44.671   6.150
 8959POPC   GL258298  11.431  44.648   6.150
 8959POPC   C1A58299  11.278  44.682   6.450
 8959POPC   D2A58300  11.346  44.709   6.750
 8959POPC   C3A58301  11.316  44.642   7.050
 8959POPC   C4A58302  11.349  44.693   7.350
 8959POPC   C1B58303  11.517  44.586   6.450
 8959POPC   C2B58304  11.533  44.637   6.750
 8959POPC   C3B58305  11.566  44.621   7.050
 8959POPC   C4B58306  11.508  44.587   7.350
 8960POPC   NC358307  15.943  19.860   5.550
 8960POPC   PO458308  15.920  19.839   5.850
 8960POPC   GL158309  15.930  19.830   6.150
 8960POPC   GL258310  16.035  19.832   6.150
 8960POPC   C1A58311  16.000  19.876   6.450
 8960POPC   D2A58312  15.955  19.868   6.750
 8960POPC   C3A58313  15.993  19.795   7.050
 8960POPC   C4A58314  15.931  19.820   7.350
 8960POPC   C1B58315  16.229  19.791   6.450
 8960POPC   C2B58316  16.201  19.878   6.750
 8960POPC   C3B58317  16.205  19.810   7.050
 8960POPC   C4B58318  16.162  19.815   7.350
 8961POPC   NC358319  22.983  29.183   5.550
 8961POPC   PO458320  22.944  29.123   5.850
 8961POPC   GL158321  22.952  29.185   6.150
 8961POPC   GL258322  23.082  29.089   6.150
 8961POPC   C1A58323  22.896  29.155   6.450
 8961POPC   D2A58324  22.951  29.118   6.750
 8961POPC   C3A58325  22.897  29.182   7.050
 8961POPC   C4A58326  22.967  29.188   7.350
 8961POPC   C1B58327  23.136  28.968   6.450
 8961POPC   C2B58328  23.091  29.022   6.750
 8961POPC   C3B58329  23.094  28.971   7.050
 8961POPC   C4B58330  23.172  29.037   7.350
 8962POPC   NC358331  36.901  33.787   5.550
 8962POPC   PO458332  36.952  33.823   5.850
 8962POPC   GL158333  36.939  33.819   6.150
 8962POPC   GL258334  36.811  33.786   6.150
 8962POPC   C1A58335  36.938  33.765   6.450
 8962POPC   D2A58336  36.879  33.760   6.750
 8962POPC   C3A58337  36.895  33.754   7.050
 8962POPC   C4A58338  36.857  33.807   7.350
 8962POPC   C1B58339  36.669  33.792   6.450
 8962POPC   C2B58340  36.649  33.811   6.750
 8962POPC   C3B58341  36.609  33.721   7.050
 8962POPC   C4B58342  36.644  33.777   7.350
 8963POPC   NC358343   4.348  12.097   5.550
 8963POPC   PO458344   4.279  12.049   5.850
 8963POPC   GL158345   4.308  12.108   6.150
 8963POPC   GL258346   4.233  12.073   6.150
 8963POPC   C1A58347   4.340  12.027   6.450
 8963POPC   D2A58348   4.351  12.062   6.750
 8963POPC   C3A58349   4.327  12.034   7.050
 8963POPC   C4A58350   4.278  12.045   7.350
 8963POPC   C1B58351   4.074  12.017   6.450
 8963POPC   C2B58352   4.032  12.024   6.750
 8963POPC   C3B58353   4.098  12.030   7.050
 8963POPC   C4B58354   4.075  11.986   7.350
 8964POPC   NC358355   5.909   7.424   5.550
 8964POPC   PO458356   5.858   7.436   5.850
 8964POPC   GL158357   5.860   7.443   6.150
 8964POPC   GL258358   5.938   7.282   6.150
 8964POPC   C1A58359   5.843   7.378   6.450
 8964POPC   D2A58360   5.897   7.401   6.750
 8964POPC   C3A58361   5.891   7.398   7.050
 8964POPC   C4A58362   5.881   7.376   7.350
 8964POPC   C1B58363   5.951   7.187   6.450
 8964POPC   C2B58364   5.928   7.135   6.750
 8964POPC   C3B58365   5.968   7.151   7.050
 8964POPC   C4B58366   5.902   7.162   7.350
 8965POPC   NC358367   5.141  22.890   5.550
 8965POPC   PO458368   5.056  22.917   5.850
 8965POPC   GL158369   5.135  22.907   6.150
 8965POPC   GL258370   5.013  23.018   6.150
 8965POPC   C1A58371   5.052  22.933   6.450
 8965POPC   D2A58372   5.079  22.961   6.750
 8965POPC   C3A58373   5.075  22.950   7.050
 8965POPC   C4A58374   5.090  22.980   7.350
 8965POPC   C1B58375   4.908  23.088   6.450
 8965POPC   C2B58376   4.906  23.175   6.750
 8965POPC   C3B58377   4.975  23.166   7.050
 8965POPC   C4B58378   4.964  23.175   7.350
 8966POPC   NC358379  35.370  24.463   5.550
 8966POPC   PO458380  35.305  24.446   5.850
 8966POPC   GL158381  35.313  24.505   6.150
 8966POPC   GL258382  35.489  24.438   6.150
 8966POPC   C1A58383  35.303  24.455   6.450
 8966POPC   D2A58384  35.373  24.454   6.750
 8966POPC   C3A58385  35.317  24.530   7.050
 8966POPC   C4A58386  35.359  24.509   7.350
 8966POPC   C1B58387  35.627  24.428   6.450
 8966POPC   C2B58388  35.549  24.421   6.750
 8966POPC   C3B58389  35.577  24.357   7.050
 8966POPC   C4B58390  35.579  24.345   7.350
 8967POPC   NC358391  21.366  29.945   5.550
 8967POPC   PO458392  21.407  29.914   5.850
 8967POPC   GL158393  21.424  29.907   6.150
 8967POPC   GL258394  21.410  30.022   6.150
 8967POPC   C1A58395  21.415  29.922   6.450
 8967POPC   D2A58396  21.350  29.884   6.750
 8967POPC   C3A58397  21.365  29.967   7.050
 8967POPC   C4A58398  21.422  29.957   7.350
 8967POPC   C1B58399  21.506  30.159   6.450
 8967POPC   C2B58400  21.501  30.105   6.750
 8967POPC   C3B58401  21.442  30.151   7.050
 8967POPC   C4B58402  21.534  30.117   7.350
 8968POPC   NC358403  22.906  31.439   5.550
 8968POPC   PO458404  22.974  31.510   5.850
 8968POPC   GL158405  22.934  31.460   6.150
 8968POPC   GL258406  22.874  31.347   6.150
 8968POPC   C1A58407  22.951  31.510   6.450
 8968POPC   D2A58408  22.927  31.493   6.750
 8968POPC   C3A58409  22.910  31.515   7.050
 8968POPC   C4A58410  22.929  31.442   7.350
 8968POPC   C1B58411  22.887  31.208   6.450
 8968POPC   C2B58412  22.855  31.185   6.750
 8968POPC   C3B58413  22.915  31.208   7.050
 8968POPC   C4B58414  22.900  31.261   7.350
 8969POPC   NC358415  33.761  32.217   5.550
 8969POPC   PO458416  33.760  32.219   5.850
 8969POPC   GL158417  33.798  32.199   6.150
 8969POPC   GL258418  33.775  32.112   6.150
 8969POPC   C1A58419  33.831  32.201   6.450
 8969POPC   D2A58420  33.839  32.217   6.750
 8969POPC   C3A58421  33.784  32.245   7.050
 8969POPC   C4A58422  33.792  32.211   7.350
 8969POPC   C1B58423  33.784  31.982   6.450
 8969POPC   C2B58424  33.737  31.952   6.750
 8969POPC   C3B58425  33.794  32.044   7.050
 8969POPC   C4B58426  33.767  32.029   7.350
 8970POPC   NC358427  41.529  29.938   5.550
 8970POPC   PO458428  41.559  29.874   5.850
 8970POPC   GL158429  41.581  29.909   6.150
 8970POPC   GL258430  41.459  29.873   6.150
 8970POPC   C1A58431  41.543  29.958   6.450
 8970POPC   D2A58432  41.597  29.882   6.750
 8970POPC   C3A58433  41.540  29.940   7.050
 8970POPC   C4A58434  41.542  29.888   7.350
 8970POPC   C1B58435  41.299  29.847   6.450
 8970POPC   C2B58436  41.348  29.793   6.750
 8970POPC   C3B58437  41.337  29.860   7.050
 8970POPC   C4B58438  41.301  29.793   7.350
 8971POPC   NC358439  32.266  36.893   5.550
 8971POPC   PO458440  32.262  36.951   5.850
 8971POPC   GL158441  32.198  36.854   6.150
 8971POPC   GL258442  32.169  36.918   6.150
 8971POPC   C1A58443  32.291  36.864   6.450
 8971POPC   D2A58444  32.226  36.870   6.750
 8971POPC   C3A58445  32.269  36.912   7.050
 8971POPC   C4A58446  32.238  36.938   7.350
 8971POPC   C1B58447  32.049  37.010   6.450
 8971POPC   C2B58448  32.058  37.043   6.750
 8971POPC   C3B58449  32.065  37.016   7.050
 8971POPC   C4B58450  32.007  37.014   7.350
 8972POPC   NC358451  43.936  10.501   5.550
 8972POPC   PO458452  43.929  10.495   5.850
 8972POPC   GL158453  43.860  10.511   6.150
 8972POPC   GL258454  43.725  10.532   6.150
 8972POPC   C1A58455  43.910  10.543   6.450
 8972POPC   D2A58456  43.860  10.525   6.750
 8972POPC   C3A58457  43.842  10.482   7.050
 8972POPC   C4A58458  43.878  10.475   7.350
 8972POPC   C1B58459  43.649  10.526   6.450
 8972POPC   C2B58460  43.646  10.521   6.750
 8972POPC   C3B58461  43.656  10.482   7.050
 8972POPC   C4B58462  43.684  10.502   7.350
 8973POPC   NC358463  10.527   4.354   5.550
 8973POPC   PO458464  10.543   4.333   5.850
 8973POPC   GL158465  10.537   4.294   6.150
 8973POPC   GL258466  10.471   4.373   6.150
 8973POPC   C1A58467  10.534   4.317   6.450
 8973POPC   D2A58468  10.545   4.288   6.750
 8973POPC   C3A58469  10.527   4.333   7.050
 8973POPC   C4A58470  10.574   4.304   7.350
 8973POPC   C1B58471  10.335   4.551   6.450
 8973POPC   C2B58472  10.397   4.515   6.750
 8973POPC   C3B58473  10.389   4.508   7.050
 8973POPC   C4B58474  10.398   4.507   7.350
 8974POPC   NC358475   2.033  16.760   5.550
 8974POPC   PO458476   1.941  16.724   5.850
 8974POPC   GL158477   1.955  16.776   6.150
 8974POPC   GL258478   1.894  16.680   6.150
 8974POPC   C1A58479   1.986  16.697   6.450
 8974POPC   D2A58480   2.033  16.733   6.750
 8974POPC   C3A58481   2.035  16.704   7.050
 8974POPC   C4A58482   2.018  16.777   7.350
 8974POPC   C1B58483   1.734  16.702   6.450
 8974POPC   C2B58484   1.725  16.655   6.750
 8974POPC   C3B58485   1.734  16.657   7.050
 8974POPC   C4B58486   1.772  16.624   7.350
 8975POPC   NC358487  33.067  26.021   5.550
 8975POPC   PO458488  33.063  26.013   5.850
 8975POPC   GL158489  33.066  26.017   6.150
 8975POPC   GL258490  33.007  26.168   6.150
 8975POPC   C1A58491  33.048  26.012   6.450
 8975POPC   D2A58492  32.993  26.022   6.750
 8975POPC   C3A58493  32.989  26.065   7.050
 8975POPC   C4A58494  33.013  26.002   7.350
 8975POPC   C1B58495  32.980  26.270   6.450
 8975POPC   C2B58496  32.963  26.309   6.750
 8975POPC   C3B58497  32.993  26.315   7.050
 8975POPC   C4B58498  32.966  26.303   7.350
 8976POPC   NC358499  34.534  35.363   5.550
 8976POPC   PO458500  34.625  35.345   5.850
 8976POPC   GL158501  34.544  35.308   6.150
 8976POPC   GL258502  34.543  35.249   6.150
 8976POPC   C1A58503  34.544  35.392   6.450
 8976POPC   D2A58504  34.616  35.318   6.750
 8976POPC   C3A58505  34.604  35.349   7.050
 8976POPC   C4A58506  34.536  35.305   7.350
 8976POPC   C1B58507  34.467  35.122   6.450
 8976POPC   C2B58508  34.496  35.120   6.750
 8976POPC   C3B58509  34.483  35.163   7.050
 8976POPC   C4B58510  34.485  35.111   7.350
 8977POPC   NC358511  22.207  40.773   5.550
 8977POPC   PO458512  22.151  40.817   5.850
 8977POPC   GL158513  22.170  40.823   6.150
 8977POPC   GL258514  22.189  40.712   6.150
 8977POPC   C1A58515  22.127  40.774   6.450
 8977POPC   D2A58516  22.170  40.810   6.750
 8977POPC   C3A58517  22.114  40.741   7.050
 8977POPC   C4A58518  22.188  40.783   7.350
 8977POPC   C1B58519  22.301  40.581   6.450
 8977POPC   C2B58520  22.261  40.611   6.750
 8977POPC   C3B58521  22.305  40.606   7.050
 8977POPC   C4B58522  22.250  40.522   7.350
 8978POPC   NC358523  44.675  22.161   5.550
 8978POPC   PO458524  44.684  22.148   5.850
 8978POPC   GL158525  44.679  22.188   6.150
 8978POPC   GL258526  44.575  22.261   6.150
 8978POPC   C1A58527  44.653  22.183   6.450
 8978POPC   D2A58528  44.660  22.151   6.750
 8978POPC   C3A58529  44.614  22.148   7.050
 8978POPC   C4A58530  44.646  22.121   7.350
 8978POPC   C1B58531  44.544  22.376   6.450
 8978POPC   C2B58532  44.556  22.387   6.750
 8978POPC   C3B58533  44.533  22.395   7.050
 8978POPC   C4B58534  44.565  22.393   7.350
 8979POPC   NC358535   5.048   1.991   5.550
 8979POPC   PO458536   5.044   1.985   5.850
 8979POPC   GL158537   5.077   2.021   6.150
 8979POPC   GL258538   5.071   1.924   6.150
 8979POPC   C1A58539   5.071   1.982   6.450
 8979POPC   D2A58540   5.068   2.016   6.750
 8979POPC   C3A58541   5.093   2.036   7.050
 8979POPC   C4A58542   5.132   1.978   7.350
 8979POPC   C1B58543   5.004   1.755   6.450
 8979POPC   C2B58544   4.926   1.728   6.750
 8979POPC   C3B58545   4.995   1.811   7.050
 8979POPC   C4B58546   5.005   1.794   7.350
 8980POPC   NC358547   8.971  43.901   5.550
 8980POPC   PO458548   8.939  43.916   5.850
 8980POPC   GL158549   8.987  43.907   6.150
 8980POPC   GL258550   8.981  43.774   6.150
 8980POPC   C1A58551   8.971  43.886   6.450
 8980POPC   D2A58552   8.969  43.851   6.750
 8980POPC   C3A58553   8.986  43.911   7.050
 8980POPC   C4A58554   8.941  43.918   7.350
 8980POPC   C1B58555   9.008  43.620   6.450
 8980POPC   C2B58556   8.987  43.693   6.750
 8980POPC   C3B58557   9.029  43.688   7.050
 8980POPC   C4B58558   9.020  43.694   7.350
 8981POPC   NC358559  21.357  22.934   5.550
 8981POPC   PO458560  21.431  22.986   5.850
 8981POPC   GL158561  21.428  22.889   6.150
 8981POPC   GL258562  21.367  22.800   6.150
 8981POPC   C1A58563  21.417  22.895   6.450
 8981POPC   D2A58564  21.339  22.910   6.750
 8981POPC   C3A58565  21.399  22.980   7.050
 8981POPC   C4A58566  21.418  22.934   7.350
 8981POPC   C1B58567  21.380  22.712   6.450
 8981POPC   C2B58568  21.455  22.655   6.750
 8981POPC   C3B58569  21.391  22.648   7.050
 8981POPC   C4B58570  21.396  22.647   7.350
 8982POPC   NC358571  41.596  20.608   5.550
 8982POPC   PO458572  41.543  20.655   5.850
 8982POPC   GL158573  41.604  20.648   6.150
 8982POPC   GL258574  41.469  20.564   6.150
 8982POPC   C1A58575  41.587  20.586   6.450
 8982POPC   D2A58576  41.566  20.576   6.750
 8982POPC   C3A58577  41.571  20.566   7.050
 8982POPC   C4A58578  41.552  20.580   7.350
 8982POPC   C1B58579  41.302  20.541   6.450
 8982POPC   C2B58580  41.317  20.494   6.750
 8982POPC   C3B58581  41.349  20.491   7.050
 8982POPC   C4B58582  41.300  20.506   7.350
 8983POPC   NC358583  14.364  15.203   5.550
 8983POPC   PO458584  14.415  15.184   5.850
 8983POPC   GL158585  14.417  15.145   6.150
 8983POPC   GL258586  14.492  15.252   6.150
 8983POPC   C1A58587  14.409  15.206   6.450
 8983POPC   D2A58588  14.400  15.227   6.750
 8983POPC   C3A58589  14.382  15.192   7.050
 8983POPC   C4A58590  14.370  15.169   7.350
 8983POPC   C1B58591  14.598  15.291   6.450
 8983POPC   C2B58592  14.675  15.208   6.750
 8983POPC   C3B58593  14.665  15.246   7.050
 8983POPC   C4B58594  14.641  15.216   7.350
 8984POPC   NC358595  28.380  41.580   5.550
 8984POPC   PO458596  28.368  41.541   5.850
 8984POPC   GL158597  28.353  41.559   6.150
 8984POPC   GL258598  28.305  41.670   6.150
 8984POPC   C1A58599  28.394  41.607   6.450
 8984POPC   D2A58600  28.406  41.542   6.750
 8984POPC   C3A58601  28.341  41.571   7.050
 8984POPC   C4A58602  28.337  41.605   7.350
 8984POPC   C1B58603  28.380  41.826   6.450
 8984POPC   C2B58604  28.337  41.850   6.750
 8984POPC   C3B58605  28.384  41.847   7.050
 8984POPC   C4B58606  28.303  41.760   7.350
 8985POPC   NC358607  32.296  12.864   5.550
 8985POPC   PO458608  32.240  12.851   5.850
 8985POPC   GL158609  32.247  12.892   6.150
 8985POPC   GL258610  32.296  12.977   6.150
 8985POPC   C1A58611  32.288  12.829   6.450
 8985POPC   D2A58612  32.243  12.865   6.750
 8985POPC   C3A58613  32.221  12.816   7.050
 8985POPC   C4A58614  32.286  12.886   7.350
 8985POPC   C1B58615  32.468  13.034   6.450
 8985POPC   C2B58616  32.412  12.990   6.750
 8985POPC   C3B58617  32.403  13.044   7.050
 8985POPC   C4B58618  32.415  13.008   7.350
 8986POPC   NC358619  28.389  39.253   5.550
 8986POPC   PO458620  28.342  39.185   5.850
 8986POPC   GL158621  28.392  39.240   6.150
 8986POPC   GL258622  28.444  39.073   6.150
 8986POPC   C1A58623  28.395  39.217   6.450
 8986POPC   D2A58624  28.411  39.204   6.750
 8986POPC   C3A58625  28.376  39.218   7.050
 8986POPC   C4A58626  28.371  39.251   7.350
 8986POPC   C1B58627  28.480  38.998   6.450
 8986POPC   C2B58628  28.482  38.983   6.750
 8986POPC   C3B58629  28.414  39.041   7.050
 8986POPC   C4B58630  28.449  39.013   7.350
 8987POPC   NC358631  41.567   5.867   5.550
 8987POPC   PO458632  41.582   5.908   5.850
 8987POPC   GL158633  41.586   5.855   6.150
 8987POPC   GL258634  41.440   5.764   6.150
 8987POPC   C1A58635  41.518   5.893   6.450
 8987POPC   D2A58636  41.552   5.839   6.750
 8987POPC   C3A58637  41.606   5.890   7.050
 8987POPC   C4A58638  41.551   5.882   7.350
 8987POPC   C1B58639  41.447   5.722   6.450
 8987POPC   C2B58640  41.391   5.644   6.750
 8987POPC   C3B58641  41.406   5.652   7.050
 8987POPC   C4B58642  41.364   5.698   7.350
 8988POPC   NC358643   7.398  24.492   5.550
 8988POPC   PO458644   7.464  24.521   5.850
 8988POPC   GL158645   7.414  24.484   6.150
 8988POPC   GL258646   7.297  24.415   6.150
 8988POPC   C1A58647   7.432  24.539   6.450
 8988POPC   D2A58648   7.434  24.504   6.750
 8988POPC   C3A58649   7.423  24.525   7.050
 8988POPC   C4A58650   7.408  24.517   7.350
 8988POPC   C1B58651   7.262  24.291   6.450
 8988POPC   C2B58652   7.238  24.333   6.750
 8988POPC   C3B58653   7.282  24.367   7.050
 8988POPC   C4B58654   7.272  24.334   7.350
 8989POPC   NC358655  38.445   7.441   5.550
 8989POPC   PO458656  38.488   7.447   5.850
 8989POPC   GL158657  38.482   7.413   6.150
 8989POPC   GL258658  38.590   7.451   6.150
 8989POPC   C1A58659  38.471   7.450   6.450
 8989POPC   D2A58660  38.499   7.429   6.750
 8989POPC   C3A58661  38.465   7.446   7.050
 8989POPC   C4A58662  38.418   7.378   7.350
 8989POPC   C1B58663  38.684   7.514   6.450
 8989POPC   C2B58664  38.658   7.570   6.750
 8989POPC   C3B58665  38.654   7.543   7.050
 8989POPC   C4B58666  38.679   7.536   7.350
 8990POPC   NC358667  15.227  17.556   5.550
 8990POPC   PO458668  15.170  17.516   5.850
 8990POPC   GL158669  15.189  17.509   6.150
 8990POPC   GL258670  15.294  17.412   6.150
 8990POPC   C1A58671  15.152  17.512   6.450
 8990POPC   D2A58672  15.161  17.479   6.750
 8990POPC   C3A58673  15.162  17.553   7.050
 8990POPC   C4A58674  15.143  17.555   7.350
 8990POPC   C1B58675  15.413  17.362   6.450
 8990POPC   C2B58676  15.409  17.319   6.750
 8990POPC   C3B58677  15.378  17.381   7.050
 8990POPC   C4B58678  15.414  17.408   7.350
 8991POPC   NC358679  13.613  22.947   5.550
 8991POPC   PO458680  13.649  22.890   5.850
 8991POPC   GL158681  13.628  22.918   6.150
 8991POPC   GL258682  13.726  22.887   6.150
 8991POPC   C1A58683  13.631  22.980   6.450
 8991POPC   D2A58684  13.621  22.910   6.750
 8991POPC   C3A58685  13.598  22.899   7.050
 8991POPC   C4A58686  13.597  22.899   7.350
 8991POPC   C1B58687  13.828  22.742   6.450
 8991POPC   C2B58688  13.820  22.835   6.750
 8991POPC   C3B58689  13.851  22.809   7.050
 8991POPC   C4B58690  13.839  22.780   7.350
 8992POPC   NC358691  12.121  17.536   5.550
 8992POPC   PO458692  12.036  17.476   5.850
 8992POPC   GL158693  12.067  17.528   6.150
 8992POPC   GL258694  12.001  17.617   6.150
 8992POPC   C1A58695  12.043  17.551   6.450
 8992POPC   D2A58696  12.090  17.464   6.750
 8992POPC   C3A58697  12.109  17.506   7.050
 8992POPC   C4A58698  12.069  17.537   7.350
 8992POPC   C1B58699  11.841  17.680   6.450
 8992POPC   C2B58700  11.854  17.598   6.750
 8992POPC   C3B58701  11.899  17.613   7.050
 8992POPC   C4B58702  11.822  17.601   7.350
 8993POPC   NC358703  29.883  38.459   5.550
 8993POPC   PO458704  29.932  38.454   5.850
 8993POPC   GL158705  29.897  38.436   6.150
 8993POPC   GL258706  29.815  38.492   6.150
 8993POPC   C1A58707  29.897  38.456   6.450
 8993POPC   D2A58708  29.960  38.479   6.750
 8993POPC   C3A58709  29.908  38.464   7.050
 8993POPC   C4A58710  29.894  38.496   7.350
 8993POPC   C1B58711  29.689  38.488   6.450
 8993POPC   C2B58712  29.705  38.444   6.750
 8993POPC   C3B58713  29.633  38.511   7.050
 8993POPC   C4B58714  29.676  38.437   7.350
 8994POPC   NC358715  31.431  43.159   5.550
 8994POPC   PO458716  31.469  43.124   5.850
 8994POPC   GL158717  31.521  43.088   6.150
 8994POPC   GL258718  31.575  43.045   6.150
 8994POPC   C1A58719  31.482  43.102   6.450
 8994POPC   D2A58720  31.521  43.112   6.750
 8994POPC   C3A58721  31.426  43.133   7.050
 8994POPC   C4A58722  31.438  43.154   7.350
 8994POPC   C1B58723  31.668  42.969   6.450
 8994POPC   C2B58724  31.640  42.933   6.750
 8994POPC   C3B58725  31.654  42.959   7.050
 8994POPC   C4B58726  31.722  42.980   7.350
 8995POPC   NC358727   9.743   8.952   5.550
 8995POPC   PO458728   9.763   8.949   5.850
 8995POPC   GL158729   9.731   9.002   6.150
 8995POPC   GL258730   9.667   8.909   6.150
 8995POPC   C1A58731   9.773   8.933   6.450
 8995POPC   D2A58732   9.793   9.004   6.750
 8995POPC   C3A58733   9.730   9.021   7.050
 8995POPC   C4A58734   9.798   8.957   7.350
 8995POPC   C1B58735   9.636   8.795   6.450
 8995POPC   C2B58736   9.615   8.753   6.750
 8995POPC   C3B58737   9.654   8.746   7.050
 8995POPC   C4B58738   9.610   8.768   7.350
 8996POPC   NC358739  13.655  26.053   5.550
 8996POPC   PO458740  13.644  26.047   5.850
 8996POPC   GL158741  13.593  26.047   6.150
 8996POPC   GL258742  13.540  26.099   6.150
 8996POPC   C1A58743  13.637  26.005   6.450
 8996POPC   D2A58744  13.584  26.045   6.750
 8996POPC   C3A58745  13.587  26.019   7.050
 8996POPC   C4A58746  13.597  26.019   7.350
 8996POPC   C1B58747  13.413  26.190   6.450
 8996POPC   C2B58748  13.456  26.216   6.750
 8996POPC   C3B58749  13.451  26.215   7.050
 8996POPC   C4B58750  13.459  26.157   7.350
 8997POPC   NC358751   9.014  37.706   5.550
 8997POPC   PO458752   8.990  37.649   5.850
 8997POPC   GL158753   8.928  37.716   6.150
 8997POPC   GL258754   9.103  37.662   6.150
 8997POPC   C1A58755   8.950  37.719   6.450
 8997POPC   D2A58756   8.943  37.712   6.750
 8997POPC   C3A58757   9.004  37.662   7.050
 8997POPC   C4A58758   8.953  37.686   7.350
 8997POPC   C1B58759   9.196  37.568   6.450
 8997POPC   C2B58760   9.234  37.550   6.750
 8997POPC   C3B58761   9.217  37.550   7.050
 8997POPC   C4B58762   9.177  37.545   7.350
 8998POPC   NC358763  22.149  42.358   5.550
 8998POPC   PO458764  22.126  42.374   5.850
 8998POPC   GL158765  22.203  42.316   6.150
 8998POPC   GL258766  22.208  42.477   6.150
 8998POPC   C1A58767  22.144  42.316   6.450
 8998POPC   D2A58768  22.203  42.330   6.750
 8998POPC   C3A58769  22.193  42.378   7.050
 8998POPC   C4A58770  22.114  42.340   7.350
 8998POPC   C1B58771  22.306  42.556   6.450
 8998POPC   C2B58772  22.255  42.512   6.750
 8998POPC   C3B58773  22.230  42.591   7.050
 8998POPC   C4B58774  22.239  42.542   7.350
 8999POPC   NC358775  26.031  36.861   5.550
 8999POPC   PO458776  26.028  36.874   5.850
 8999POPC   GL158777  26.030  36.855   6.150
 8999POPC   GL258778  25.870  36.916   6.150
 8999POPC   C1A58779  26.048  36.917   6.450
 8999POPC   D2A58780  26.072  36.928   6.750
 8999POPC   C3A58781  26.023  36.914   7.050
 8999POPC   C4A58782  26.031  36.950   7.350
 8999POPC   C1B58783  25.753  36.902   6.450
 8999POPC   C2B58784  25.763  36.907   6.750
 8999POPC   C3B58785  25.796  36.940   7.050
 8999POPC   C4B58786  25.765  36.893   7.350
 9000POPC   NC358787  10.567   7.468   5.550
 9000POPC   PO458788  10.536   7.419   5.850
 9000POPC   GL158789  10.560   7.397   6.150
 9000POPC   GL258790  10.394   7.350   6.150
 9000POPC   C1A58791  10.511   7.381   6.450
 9000POPC   D2A58792  10.566   7.383   6.750
 9000POPC   C3A58793  10.490   7.374   7.050
 9000POPC   C4A58794  10.497   7.454   7.350
 9000POPC   C1B58795  10.320   7.356   6.450
 9000POPC   C2B58796  10.300   7.302   6.750
 9000POPC   C3B58797  10.330   7.394   7.050
 9000POPC   C4B58798  10.313   7.389   7.350
 9001POPC   NC358799   5.899  17.511   5.550
 9001POPC   PO458800   5.856  17.522   5.850
 9001POPC   GL158801   5.839  17.509   6.150
 9001POPC   GL258802   5.965  17.400   6.150
 9001POPC   C1A58803   5.869  17.468   6.450
 9001POPC   D2A58804   5.881  17.539   6.750
 9001POPC   C3A58805   5.841  17.520   7.050
 9001POPC   C4A58806   5.910  17.486   7.350
 9001POPC   C1B58807   6.041  17.414   6.450
 9001POPC   C2B58808   6.055  17.402   6.750
 9001POPC   C3B58809   6.039  17.419   7.050
 9001POPC   C4B58810   6.082  17.395   7.350
 9002POPC   NC358811  15.994  26.040   5.550
 9002POPC   PO458812  15.924  26.082   5.850
 9002POPC   GL158813  15.924  26.073   6.150
 9002POPC   GL258814  16.007  26.117   6.150
 9002POPC   C1A58815  16.001  26.075   6.450
 9002POPC   D2A58816  15.974  26.031   6.750
 9002POPC   C3A58817  15.920  26.051   7.050
 9002POPC   C4A58818  15.921  26.046   7.350
 9002POPC   C1B58819  15.995  26.259   6.450
 9002POPC   C2B58820  15.998  26.299   6.750
 9002POPC   C3B58821  16.013  26.257   7.050
 9002POPC   C4B58822  16.017  26.318   7.350
 9003POPC   NC358823  17.520  41.566   5.550
 9003POPC   PO458824  17.489  41.556   5.850
 9003POPC   GL158825  17.519  41.585   6.150
 9003POPC   GL258826  17.597  41.668   6.150
 9003POPC   C1A58827  17.541  41.529   6.450
 9003POPC   D2A58828  17.534  41.578   6.750
 9003POPC   C3A58829  17.504  41.582   7.050
 9003POPC   C4A58830  17.486  41.604   7.350
 9003POPC   C1B58831  17.666  41.764   6.450
 9003POPC   C2B58832  17.592  41.726   6.750
 9003POPC   C3B58833  17.586  41.726   7.050
 9003POPC   C4B58834  17.623  41.797   7.350
 9004POPC   NC358835  36.913  28.399   5.550
 9004POPC   PO458836  36.866  28.358   5.850
 9004POPC   GL158837  36.884  28.321   6.150
 9004POPC   GL258838  36.884  28.497   6.150
 9004POPC   C1A58839  36.864  28.336   6.450
 9004POPC   D2A58840  36.890  28.417   6.750
 9004POPC   C3A58841  36.876  28.398   7.050
 9004POPC   C4A58842  36.918  28.335   7.350
 9004POPC   C1B58843  36.870  28.624   6.450
 9004POPC   C2B58844  36.848  28.651   6.750
 9004POPC   C3B58845  36.874  28.580   7.050
 9004POPC   C4B58846  36.865  28.586   7.350
 9005POPC   NC358847  12.837   9.772   5.550
 9005POPC   PO458848  12.885   9.726   5.850
 9005POPC   GL158849  12.821   9.777   6.150
 9005POPC   GL258850  12.921   9.855   6.150
 9005POPC   C1A58851  12.832   9.743   6.450
 9005POPC   D2A58852  12.898   9.781   6.750
 9005POPC   C3A58853  12.834   9.763   7.050
 9005POPC   C4A58854  12.803   9.717   7.350
 9005POPC   C1B58855  12.936   9.972   6.450
 9005POPC   C2B58856  12.957   9.964   6.750
 9005POPC   C3B58857  12.978   9.975   7.050
 9005POPC   C4B58858  12.931   9.984   7.350
 9006POPC   NC358859  36.144  14.372   5.550
 9006POPC   PO458860  36.132  14.448   5.850
 9006POPC   GL158861  36.083  14.412   6.150
 9006POPC   GL258862  36.009  14.447   6.150
 9006POPC   C1A58863  36.114  14.376   6.450
 9006POPC   D2A58864  36.090  14.375   6.750
 9006POPC   C3A58865  36.134  14.425   7.050
 9006POPC   C4A58866  36.125  14.359   7.350
 9006POPC   C1B58867  35.937  14.533   6.450
 9006POPC   C2B58868  35.937  14.550   6.750
 9006POPC   C3B58869  35.920  14.484   7.050
 9006POPC   C4B58870  35.899  14.546   7.350
 9007POPC   NC358871  43.910   5.861   5.550
 9007POPC   PO458872  43.839   5.878   5.850
 9007POPC   GL158873  43.898   5.872   6.150
 9007POPC   GL258874  43.839   5.790   6.150
 9007POPC   C1A58875  43.904   5.900   6.450
 9007POPC   D2A58876  43.915   5.860   6.750
 9007POPC   C3A58877  43.895   5.914   7.050
 9007POPC   C4A58878  43.872   5.857   7.350
 9007POPC   C1B58879  43.896   5.652   6.450
 9007POPC   C2B58880  43.868   5.603   6.750
 9007POPC   C3B58881  43.910   5.646   7.050
 9007POPC   C4B58882  43.836   5.596   7.350
 9008POPC   NC358883  29.149  20.649   5.550
 9008POPC   PO458884  29.116  20.579   5.850
 9008POPC   GL158885  29.109  20.588   6.150
 9008POPC   GL258886  29.177  20.763   6.150
 9008POPC   C1A58887  29.163  20.577   6.450
 9008POPC   D2A58888  29.191  20.654   6.750
 9008POPC   C3A58889  29.141  20.571   7.050
 9008POPC   C4A58890  29.137  20.642   7.350
 9008POPC   C1B58891  29.214  20.841   6.450
 9008POPC   C2B58892  29.233  20.890   6.750
 9008POPC   C3B58893  29.167  20.863   7.050
 9008POPC   C4B58894  29.158  20.842   7.350
 9009POPC   NC358895  42.383   5.912   5.550
 9009POPC   PO458896  42.350   5.842   5.850
 9009POPC   GL158897  42.327   5.906   6.150
 9009POPC   GL258898  42.312   5.950   6.150
 9009POPC   C1A58899  42.285   5.899   6.450
 9009POPC   D2A58900  42.335   5.819   6.750
 9009POPC   C3A58901  42.347   5.916   7.050
 9009POPC   C4A58902  42.319   5.871   7.350
 9009POPC   C1B58903  42.209   6.129   6.450
 9009POPC   C2B58904  42.199   6.126   6.750
 9009POPC   C3B58905  42.238   6.134   7.050
 9009POPC   C4B58906  42.242   6.116   7.350
 9010POPC   NC358907   3.568   8.179   5.550
 9010POPC   PO458908   3.522   8.155   5.850
 9010POPC   GL158909   3.503   8.246   6.150
 9010POPC   GL258910   3.401   8.208   6.150
 9010POPC   C1A58911   3.590   8.214   6.450
 9010POPC   D2A58912   3.536   8.187   6.750
 9010POPC   C3A58913   3.567   8.245   7.050
 9010POPC   C4A58914   3.590   8.191   7.350
 9010POPC   C1B58915   3.328   8.234   6.450
 9010POPC   C2B58916   3.319   8.307   6.750
 9010POPC   C3B58917   3.306   8.298   7.050
 9010POPC   C4B58918   3.298   8.260   7.350
 9011POPC   NC358919   1.239  26.017   5.550
 9011POPC   PO458920   1.248  26.027   5.850
 9011POPC   GL158921   1.189  26.015   6.150
 9011POPC   GL258922   1.270  25.927   6.150
 9011POPC   C1A58923   1.256  26.087   6.450
 9011POPC   D2A58924   1.262  26.062   6.750
 9011POPC   C3A58925   1.223  26.011   7.050
 9011POPC   C4A58926   1.237  26.037   7.350
 9011POPC   C1B58927   1.204  25.819   6.450
 9011POPC   C2B58928   1.292  25.749   6.750
 9011POPC   C3B58929   1.201  25.820   7.050
 9011POPC   C4B58930   1.246  25.800   7.350
 9012POPC   NC358931  40.751  36.090   5.550
 9012POPC   PO458932  40.822  36.154   5.850
 9012POPC   GL158933  40.784  36.085   6.150
 9012POPC   GL258934  40.717  36.024   6.150
 9012POPC   C1A58935  40.803  36.091   6.450
 9012POPC   D2A58936  40.810  36.155   6.750
 9012POPC   C3A58937  40.788  36.155   7.050
 9012POPC   C4A58938  40.803  36.149   7.350
 9012POPC   C1B58939  40.693  35.896   6.450
 9012POPC   C2B58940  40.701  35.878   6.750
 9012POPC   C3B58941  40.666  35.928   7.050
 9012POPC   C4B58942  40.688  35.852   7.350
 9013POPC   NC358943  17.501   2.720   5.550
 9013POPC   PO458944  17.516   2.770   5.850
 9013POPC   GL158945  17.470   2.796   6.150
 9013POPC   GL258946  17.585   2.909   6.150
 9013POPC   C1A58947  17.476   2.742   6.450
 9013POPC   D2A58948  17.473   2.752   6.750
 9013POPC   C3A58949  17.511   2.725   7.050
 9013POPC   C4A58950  17.544   2.723   7.350
 9013POPC   C1B58951  17.691   2.991   6.450
 9013POPC   C2B58952  17.631   2.942   6.750
 9013POPC   C3B58953  17.623   2.922   7.050
 9013POPC   C4B58954  17.696   2.964   7.350
 9014POPC   NC358955  27.598   1.969   5.550
 9014POPC   PO458956  27.641   1.995   5.850
 9014POPC   GL158957  27.563   2.024   6.150
 9014POPC   GL258958  27.555   2.112   6.150
 9014POPC   C1A58959  27.572   2.006   6.450
 9014POPC   D2A58960  27.549   1.970   6.750
 9014POPC   C3A58961  27.640   2.029   7.050
 9014POPC   C4A58962  27.557   1.959   7.350
 9014POPC   C1B58963  27.539   2.257   6.450
 9014POPC   C2B58964  27.617   2.257   6.750
 9014POPC   C3B58965  27.577   2.238   7.050
 9014POPC   C4B58966  27.588   2.273   7.350
 9015POPC   NC358967  33.798  34.602   5.550
 9015POPC   PO458968  33.817  34.555   5.850
 9015POPC   GL158969  33.783  34.569   6.150
 9015POPC   GL258970  33.894  34.561   6.150
 9015POPC   C1A58971  33.752  34.560   6.450
 9015POPC   D2A58972  33.806  34.538   6.750
 9015POPC   C3A58973  33.782  34.565   7.050
 9015POPC   C4A58974  33.755  34.620   7.350
 9015POPC   C1B58975  34.007  34.456   6.450
 9015POPC   C2B58976  33.988  34.491   6.750
 9015POPC   C3B58977  34.037  34.462   7.050
 9015POPC   C4B58978  34.063  34.460   7.350
 9016POPC   NC358979  33.015  35.340   5.550
 9016POPC   PO458980  33.004  35.306   5.850
 9016POPC   GL158981  32.983  35.395   6.150
 9016POPC   GL258982  32.945  35.259   6.150
 9016POPC   C1A58983  33.018  35.366   6.450
 9016POPC   D2A58984  33.061  35.340   6.750
 9016POPC   C3A58985  33.010  35.396   7.050
 9016POPC   C4A58986  33.007  35.308   7.350
 9016POPC   C1B58987  32.820  35.216   6.450
 9016POPC   C2B58988  32.861  35.218   6.750
 9016POPC   C3B58989  32.845  35.154   7.050
 9016POPC   C4B58990  32.824  35.187   7.350
 9017POPC   NC358991  15.918  13.585   5.550
 9017POPC   PO458992  15.971  13.603   5.850
 9017POPC   GL158993  15.998  13.599   6.150
 9017POPC   GL258994  15.952  13.463   6.150
 9017POPC   C1A58995  15.964  13.629   6.450
 9017POPC   D2A58996  15.962  13.676   6.750
 9017POPC   C3A58997  15.967  13.652   7.050
 9017POPC   C4A58998  15.940  13.669   7.350
 9017POPC   C1B58999  15.850  13.381   6.450
 9017POPC   C2B59000  15.859  13.424   6.750
 9017POPC   C3B59001  15.926  13.431   7.050
 9017POPC   C4B59002  15.871  13.406   7.350
 9018POPC   NC359003  39.961  36.122   5.550
 9018POPC   PO459004  39.996  36.117   5.850
 9018POPC   GL159005  40.045  36.163   6.150
 9018POPC   GL259006  39.996  36.228   6.150
 9018POPC   C1A59007  40.056  36.117   6.450
 9018POPC   D2A59008  40.035  36.143   6.750
 9018POPC   C3A59009  39.962  36.115   7.050
 9018POPC   C4A59010  40.040  36.080   7.350
 9018POPC   C1B59011  39.933  36.404   6.450
 9018POPC   C2B59012  39.900  36.331   6.750
 9018POPC   C3B59013  39.910  36.332   7.050
 9018POPC   C4B59014  39.943  36.336   7.350
 9019POPC   NC359015  15.164   5.879   5.550
 9019POPC   PO459016  15.141   5.825   5.850
 9019POPC   GL159017  15.130   5.864   6.150
 9019POPC   GL259018  15.308   5.822   6.150
 9019POPC   C1A59019  15.169   5.852   6.450
 9019POPC   D2A59020  15.167   5.824   6.750
 9019POPC   C3A59021  15.187   5.916   7.050
 9019POPC   C4A59022  15.165   5.847   7.350
 9019POPC   C1B59023  15.442   5.813   6.450
 9019POPC   C2B59024  15.437   5.884   6.750
 9019POPC   C3B59025  15.448   5.894   7.050
 9019POPC   C4B59026  15.446   5.884   7.350
 9020POPC   NC359027  13.658  10.515   5.550
 9020POPC   PO459028  13.663  10.547   5.850
 9020POPC   GL159029  13.641  10.494   6.150
 9020POPC   GL259030  13.780  10.512   6.150
 9020POPC   C1A59031  13.642  10.478   6.450
 9020POPC   D2A59032  13.627  10.552   6.750
 9020POPC   C3A59033  13.645  10.498   7.050
 9020POPC   C4A59034  13.641  10.504   7.350
 9020POPC   C1B59035  13.881  10.374   6.450
 9020POPC   C2B59036  13.865  10.415   6.750
 9020POPC   C3B59037  13.865  10.453   7.050
 9020POPC   C4B59038  13.805  10.432   7.350
 9021POPC   NC359039  12.876  28.362   5.550
 9021POPC   PO459040  12.815  28.323   5.850
 9021POPC   GL159041  12.869  28.359   6.150
 9021POPC   GL259042  13.002  28.424   6.150
 9021POPC   C1A59043  12.873  28.374   6.450
 9021POPC   D2A59044  12.831  28.375   6.750
 9021POPC   C3A59045  12.829  28.342   7.050
 9021POPC   C4A59046  12.834  28.398   7.350
 9021POPC   C1B59047  13.114  28.470   6.450
 9021POPC   C2B59048  13.105  28.416   6.750
 9021POPC   C3B59049  13.049  28.407   7.050
 9021POPC   C4B59050  13.109  28.475   7.350
 9022POPC   NC359051  36.945  37.634   5.550
 9022POPC   PO459052  36.898  37.637   5.850
 9022POPC   GL159053  36.910  37.676   6.150
 9022POPC   GL259054  36.837  37.751   6.150
 9022POPC   C1A59055  36.930  37.712   6.450
 9022POPC   D2A59056  36.877  37.712   6.750
 9022POPC   C3A59057  36.907  37.686   7.050
 9022POPC   C4A59058  36.926  37.647   7.350
 9022POPC   C1B59059  36.692  37.749   6.450
 9022POPC   C2B59060  36.709  37.755   6.750
 9022POPC   C3B59061  36.672  37.825   7.050
 9022POPC   C4B59062  36.627  37.804   7.350
 9023POPC   NC359063  39.991  23.671   5.550
 9023POPC   PO459064  40.055  23.763   5.850
 9023POPC   GL159065  40.000  23.691   6.150
 9023POPC   GL259066  40.068  23.646   6.150
 9023POPC   C1A59067  40.047  23.754   6.450
 9023POPC   D2A59068  39.974  23.667   6.750
 9023POPC   C3A59069  40.025  23.687   7.050
 9023POPC   C4A59070  39.962  23.725   7.350
 9023POPC   C1B59071  40.171  23.557   6.450
 9023POPC   C2B59072  40.177  23.532   6.750
 9023POPC   C3B59073  40.206  23.542   7.050
 9023POPC   C4B59074  40.252  23.520   7.350
 9024POPC   NC359075  36.928  43.077   5.550
 9024POPC   PO459076  36.903  43.085   5.850
 9024POPC   GL159077  36.856  43.099   6.150
 9024POPC   GL259078  36.936  42.943   6.150
 9024POPC   C1A59079  36.930  43.144   6.450
 9024POPC   D2A59080  36.947  43.101   6.750
 9024POPC   C3A59081  36.874  43.125   7.050
 9024POPC   C4A59082  36.919  43.093   7.350
 9024POPC   C1B59083  36.964  42.825   6.450
 9024POPC   C2B59084  36.928  42.905   6.750
 9024POPC   C3B59085  36.961  42.849   7.050
 9024POPC   C4B59086  36.954  42.895   7.350
 9025POPC   NC359087  43.837   0.462   5.550
 9025POPC   PO459088  43.879   0.399   5.850
 9025POPC   GL159089  43.839   0.434   6.150
 9025POPC   GL259090  43.736   0.440   6.150
 9025POPC   C1A59091  43.914   0.399   6.450
 9025POPC   D2A59092  43.877   0.419   6.750
 9025POPC   C3A59093  43.912   0.399   7.050
 9025POPC   C4A59094  43.885   0.467   7.350
 9025POPC   C1B59095  43.621   0.486   6.450
 9025POPC   C2B59096  43.659   0.444   6.750
 9025POPC   C3B59097  43.669   0.395   7.050
 9025POPC   C4B59098  43.623   0.387   7.350
 9026POPC   NC359099  22.151   1.208   5.550
 9026POPC   PO459100  22.165   1.192   5.850
 9026POPC   GL159101  22.172   1.200   6.150
 9026POPC   GL259102  22.231   1.309   6.150
 9026POPC   C1A59103  22.206   1.179   6.450
 9026POPC   D2A59104  22.201   1.164   6.750
 9026POPC   C3A59105  22.185   1.221   7.050
 9026POPC   C4A59106  22.192   1.173   7.350
 9026POPC   C1B59107  22.261   1.457   6.450
 9026POPC   C2B59108  22.209   1.504   6.750
 9026POPC   C3B59109  22.202   1.433   7.050
 9026POPC   C4B59110  22.197   1.410   7.350
 9027POPC   NC359111  32.247  29.189   5.550
 9027POPC   PO459112  32.230  29.174   5.850
 9027POPC   GL159113  32.241  29.096   6.150
 9027POPC   GL259114  32.173  29.028   6.150
 9027POPC   C1A59115  32.211  29.103   6.450
 9027POPC   D2A59116  32.240  29.165   6.750
 9027POPC   C3A59117  32.254  29.102   7.050
 9027POPC   C4A59118  32.238  29.153   7.350
 9027POPC   C1B59119  32.159  28.881   6.450
 9027POPC   C2B59120  32.207  28.944   6.750
 9027POPC   C3B59121  32.205  28.919   7.050
 9027POPC   C4B59122  32.171  28.949   7.350
 9028POPC   NC359123  22.124  29.121   5.550
 9028POPC   PO459124  22.197  29.122   5.850
 9028POPC   GL159125  22.208  29.146   6.150
 9028POPC   GL259126  22.323  29.152   6.150
 9028POPC   C1A59127  22.138  29.170   6.450
 9028POPC   D2A59128  22.138  29.104   6.750
 9028POPC   C3A59129  22.171  29.165   7.050
 9028POPC   C4A59130  22.136  29.145   7.350
 9028POPC   C1B59131  22.450  29.092   6.450
 9028POPC   C2B59132  22.411  29.058   6.750
 9028POPC   C3B59133  22.450  29.123   7.050
 9028POPC   C4B59134  22.399  29.134   7.350
 9029POPC   NC359135   4.300  26.787   5.550
 9029POPC   PO459136   4.317  26.848   5.850
 9029POPC   GL159137   4.270  26.809   6.150
 9029POPC   GL259138   4.244  26.775   6.150
 9029POPC   C1A59139   4.328  26.826   6.450
 9029POPC   D2A59140   4.320  26.857   6.750
 9029POPC   C3A59141   4.319  26.792   7.050
 9029POPC   C4A59142   4.287  26.824   7.350
 9029POPC   C1B59143   4.091  26.767   6.450
 9029POPC   C2B59144   4.068  26.774   6.750
 9029POPC   C3B59145   4.114  26.807   7.050
 9029POPC   C4B59146   4.084  26.772   7.350
 9030POPC   NC359147  18.285  43.103   5.550
 9030POPC   PO459148  18.281  43.106   5.850
 9030POPC   GL159149  18.289  43.159   6.150
 9030POPC   GL259150  18.236  43.073   6.150
 9030POPC   C1A59151  18.330  43.096   6.450
 9030POPC   D2A59152  18.326  43.126   6.750
 9030POPC   C3A59153  18.234  43.141   7.050
 9030POPC   C4A59154  18.235  43.096   7.350
 9030POPC   C1B59155  18.108  42.975   6.450
 9030POPC   C2B59156  18.147  42.927   6.750
 9030POPC   C3B59157  18.116  42.929   7.050
 9030POPC   C4B59158  18.098  42.910   7.350
 9031POPC   NC359159  36.174  39.242   5.550
 9031POPC   PO459160  36.090  39.250   5.850
 9031POPC   GL159161  36.120  39.222   6.150
 9031POPC   GL259162  36.138  39.157   6.150
 9031POPC   C1A59163  36.110  39.195   6.450
 9031POPC   D2A59164  36.120  39.198   6.750
 9031POPC   C3A59165  36.134  39.264   7.050
 9031POPC   C4A59166  36.101  39.249   7.350
 9031POPC   C1B59167  36.266  38.976   6.450
 9031POPC   C2B59168  36.183  39.015   6.750
 9031POPC   C3B59169  36.209  39.044   7.050
 9031POPC   C4B59170  36.243  39.024   7.350
 9032POPC   NC359171  10.508   8.219   5.550
 9032POPC   PO459172  10.521   8.205   5.850
 9032POPC   GL159173  10.509   8.244   6.150
 9032POPC   GL259174  10.492   8.343   6.150
 9032POPC   C1A59175  10.510   8.161   6.450
 9032POPC   D2A59176  10.545   8.160   6.750
 9032POPC   C3A59177  10.535   8.190   7.050
 9032POPC   C4A59178  10.565   8.162   7.350
 9032POPC   C1B59179  10.518   8.495   6.450
 9032POPC   C2B59180  10.560   8.486   6.750
 9032POPC   C3B59181  10.505   8.475   7.050
 9032POPC   C4B59182  10.567   8.421   7.350
 9033POPC   NC359183   2.737  23.683   5.550
 9033POPC   PO459184   2.743  23.737   5.850
 9033POPC   GL159185   2.813  23.674   6.150
 9033POPC   GL259186   2.870  23.841   6.150
 9033POPC   C1A59187   2.753  23.695   6.450
 9033POPC   D2A59188   2.788  23.696   6.750
 9033POPC   C3A59189   2.783  23.728   7.050
 9033POPC   C4A59190   2.736  23.713   7.350
 9033POPC   C1B59191   2.883  23.876   6.450
 9033POPC   C2B59192   2.957  23.872   6.750
 9033POPC   C3B59193   2.944  23.895   7.050
 9033POPC   C4B59194   2.889  23.943   7.350
 9034POPC   NC359195   1.177  24.521   5.550
 9034POPC   PO459196   1.179  24.460   5.850
 9034POPC   GL159197   1.224  24.457   6.150
 9034POPC   GL259198   1.325  24.364   6.150
 9034POPC   C1A59199   1.215  24.462   6.450
 9034POPC   D2A59200   1.200  24.532   6.750
 9034POPC   C3A59201   1.263  24.452   7.050
 9034POPC   C4A59202   1.218  24.492   7.350
 9034POPC   C1B59203   1.318  24.283   6.450
 9034POPC   C2B59204   1.311  24.241   6.750
 9034POPC   C3B59205   1.392  24.287   7.050
 9034POPC   C4B59206   1.375  24.308   7.350
 9035POPC   NC359207  26.793  26.025   5.550
 9035POPC   PO459208  26.804  26.038   5.850
 9035POPC   GL159209  26.836  26.078   6.150
 9035POPC   GL259210  26.948  25.978   6.150
 9035POPC   C1A59211  26.842  26.077   6.450
 9035POPC   D2A59212  26.857  26.054   6.750
 9035POPC   C3A59213  26.796  26.085   7.050
 9035POPC   C4A59214  26.795  26.070   7.350
 9035POPC   C1B59215  26.971  25.870   6.450
 9035POPC   C2B59216  26.998  25.827   6.750
 9035POPC   C3B59217  26.976  25.909   7.050
 9035POPC   C4B59218  27.004  25.872   7.350
 9036POPC   NC359219  36.134  44.623   5.550
 9036POPC   PO459220  36.091  44.692   5.850
 9036POPC   GL159221  36.174  44.639   6.150
 9036POPC   GL259222  36.189  44.608   6.150
 9036POPC   C1A59223  36.110  44.638   6.450
 9036POPC   D2A59224  36.083  44.668   6.750
 9036POPC   C3A59225  36.086  44.663   7.050
 9036POPC   C4A59226  36.091  44.693   7.350
 9036POPC   C1B59227  36.277  44.492   6.450
 9036POPC   C2B59228  36.268  44.463   6.750
 9036POPC   C3B59229  36.329  44.518   7.050
 9036POPC   C4B59230  36.257  44.496   7.350
 9037POPC   NC359231   0.458  13.630   5.550
 9037POPC   PO459232   0.389  13.664   5.850
 9037POPC   GL159233   0.479  13.599   6.150
 9037POPC   GL259234   0.397  13.716   6.150
 9037POPC   C1A59235   0.411  13.611   6.450
 9037POPC   D2A59236   0.442  13.626   6.750
 9037POPC   C3A59237   0.486  13.594   7.050
 9037POPC   C4A59238   0.413  13.664   7.350
 9037POPC   C1B59239   0.377  13.882   6.450
 9037POPC   C2B59240   0.453  13.926   6.750
 9037POPC   C3B59241   0.464  13.898   7.050
 9037POPC   C4B59242   0.472  13.832   7.350
 9038POPC   NC359243  25.216  20.583   5.550
 9038POPC   PO459244  25.251  20.566   5.850
 9038POPC   GL159245  25.236  20.617   6.150
 9038POPC   GL259246  25.347  20.548   6.150
 9038POPC   C1A59247  25.226  20.620   6.450
 9038POPC   D2A59248  25.241  20.561   6.750
 9038POPC   C3A59249  25.246  20.583   7.050
 9038POPC   C4A59250  25.228  20.579   7.350
 9038POPC   C1B59251  25.363  20.422   6.450
 9038POPC   C2B59252  25.426  20.371   6.750
 9038POPC   C3B59253  25.404  20.415   7.050
 9038POPC   C4B59254  25.444  20.368   7.350
 9039POPC   NC359255   9.758   9.779   5.550
 9039POPC   PO459256   9.754   9.720   5.850
 9039POPC   GL159257   9.712   9.729   6.150
 9039POPC   GL259258   9.709   9.866   6.150
 9039POPC   C1A59259   9.760   9.699   6.450
 9039POPC   D2A59260   9.787   9.771   6.750
 9039POPC   C3A59261   9.747   9.741   7.050
 9039POPC   C4A59262   9.771   9.742   7.350
 9039POPC   C1B59263   9.783   9.994   6.450
 9039POPC   C2B59264   9.763   9.969   6.750
 9039POPC   C3B59265   9.758  10.035   7.050
 9039POPC   C4B59266   9.699  10.025   7.350
 9040POPC   NC359267   3.550  25.232   5.550
 9040POPC   PO459268   3.533  25.246   5.850
 9040POPC   GL159269   3.515  25.266   6.150
 9040POPC   GL259270   3.623  25.204   6.150
 9040POPC   C1A59271   3.550  25.226   6.450
 9040POPC   D2A59272   3.524  25.226   6.750
 9040POPC   C3A59273   3.566  25.234   7.050
 9040POPC   C4A59274   3.496  25.230   7.350
 9040POPC   C1B59275   3.779  25.079   6.450
 9040POPC   C2B59276   3.737  25.086   6.750
 9040POPC   C3B59277   3.703  25.155   7.050
 9040POPC   C4B59278   3.725  25.169   7.350
 9041POPC   NC359279  34.620  10.532   5.550
 9041POPC   PO459280  34.564  10.522   5.850
 9041POPC   GL159281  34.569  10.478   6.150
 9041POPC   GL259282  34.733  10.575   6.150
 9041POPC   C1A59283  34.587  10.497   6.450
 9041POPC   D2A59284  34.551  10.559   6.750
 9041POPC   C3A59285  34.596  10.514   7.050
 9041POPC   C4A59286  34.552  10.484   7.350
 9041POPC   C1B59287  34.769  10.644   6.450
 9041POPC   C2B59288  34.805  10.650   6.750
 9041POPC   C3B59289  34.771  10.624   7.050
 9041POPC   C4B59290  34.814  10.652   7.350
 9042POPC   NC359291  38.459  43.845   5.550
 9042POPC   PO459292  38.447  43.852   5.850
 9042POPC   GL159293  38.466  43.891   6.150
 9042POPC   GL259294  38.570  43.844   6.150
 9042POPC   C1A59295  38.454  43.898   6.450
 9042POPC   D2A59296  38.448  43.890   6.750
 9042POPC   C3A59297  38.445  43.904   7.050
 9042POPC   C4A59298  38.491  43.883   7.350
 9042POPC   C1B59299  38.664  43.749   6.450
 9042POPC   C2B59300  38.657  43.785   6.750
 9042POPC   C3B59301  38.656  43.722   7.050
 9042POPC   C4B59302  38.654  43.734   7.350
 9043POPC   NC359303   6.671  24.446   5.550
 9043POPC   PO459304   6.662  24.465   5.850
 9043POPC   GL159305   6.621  24.509   6.150
 9043POPC   GL259306   6.697  24.357   6.150
 9043POPC   C1A59307   6.683  24.450   6.450
 9043POPC   D2A59308   6.656  24.535   6.750
 9043POPC   C3A59309   6.614  24.454   7.050
 9043POPC   C4A59310   6.645  24.453   7.350
 9043POPC   C1B59311   6.664  24.206   6.450
 9043POPC   C2B59312   6.667  24.247   6.750
 9043POPC   C3B59313   6.683  24.216   7.050
 9043POPC   C4B59314   6.744  24.276   7.350
 9044POPC   NC359315  19.082  23.680   5.550
 9044POPC   PO459316  19.090  23.684   5.850
 9044POPC   GL159317  19.097  23.735   6.150
 9044POPC   GL259318  18.966  23.628   6.150
 9044POPC   C1A59319  19.037  23.700   6.450
 9044POPC   D2A59320  19.019  23.686   6.750
 9044POPC   C3A59321  19.024  23.758   7.050
 9044POPC   C4A59322  19.104  23.694   7.350
 9044POPC   C1B59323  18.862  23.602   6.450
 9044POPC   C2B59324  18.814  23.527   6.750
 9044POPC   C3B59325  18.831  23.586   7.050
 9044POPC   C4B59326  18.808  23.545   7.350
 9045POPC   NC359327   8.966   4.350   5.550
 9045POPC   PO459328   8.931   4.315   5.850
 9045POPC   GL159329   8.948   4.278   6.150
 9045POPC   GL259330   8.883   4.328   6.150
 9045POPC   C1A59331   8.995   4.364   6.450
 9045POPC   D2A59332   8.967   4.302   6.750
 9045POPC   C3A59333   8.944   4.353   7.050
 9045POPC   C4A59334   8.925   4.326   7.350
 9045POPC   C1B59335   8.770   4.365   6.450
 9045POPC   C2B59336   8.742   4.381   6.750
 9045POPC   C3B59337   8.719   4.411   7.050
 9045POPC   C4B59338   8.713   4.444   7.350
 9046POPC   NC359339  10.508  31.437   5.550
 9046POPC   PO459340  10.482  31.493   5.850
 9046POPC   GL159341  10.538  31.456   6.150
 9046POPC   GL259342  10.382  31.364   6.150
 9046POPC   C1A59343  10.483  31.423   6.450
 9046POPC   D2A59344  10.529  31.462   6.750
 9046POPC   C3A59345  10.519  31.462   7.050
 9046POPC   C4A59346  10.520  31.482   7.350
 9046POPC   C1B59347  10.332  31.360   6.450
 9046POPC   C2B59348  10.298  31.309   6.750
 9046POPC   C3B59349  10.283  31.360   7.050
 9046POPC   C4B59350  10.262  31.363   7.350
 9047POPC   NC359351  43.849  16.752   5.550
 9047POPC   PO459352  43.914  16.729   5.850
 9047POPC   GL159353  43.876  16.764   6.150
 9047POPC   GL259354  43.793  16.708   6.150
 9047POPC   C1A59355  43.927  16.761   6.450
 9047POPC   D2A59356  43.894  16.730   6.750
 9047POPC   C3A59357  43.922  16.690   7.050
 9047POPC   C4A59358  43.877  16.762   7.350
 9047POPC   C1B59359  43.631  16.689   6.450
 9047POPC   C2B59360  43.623  16.661   6.750
 9047POPC   C3B59361  43.634  16.623   7.050
 9047POPC   C4B59362  43.611  16.700   7.350
 9048POPC   NC359363  33.764  43.159   5.550
 9048POPC   PO459364  33.756  43.106   5.850
 9048POPC   GL159365  33.834  43.097   6.150
 9048POPC   GL259366  33.855  42.969   6.150
 9048POPC   C1A59367  33.786  43.082   6.450
 9048POPC   D2A59368  33.844  43.073   6.750
 9048POPC   C3A59369  33.776  43.085   7.050
 9048POPC   C4A59370  33.811  43.127   7.350
 9048POPC   C1B59371  33.800  42.860   6.450
 9048POPC   C2B59372  33.842  42.906   6.750
 9048POPC   C3B59373  33.823  42.870   7.050
 9048POPC   C4B59374  33.804  42.835   7.350
 9049POPC   NC359375  44.702  14.432   5.550
 9049POPC   PO459376  44.617  14.388   5.850
 9049POPC   GL159377  44.644  14.448   6.150
 9049POPC   GL259378  44.756  14.246   6.150
 9049POPC   C1A59379  44.707  14.443   6.450
 9049POPC   D2A59380  44.703  14.400   6.750
 9049POPC   C3A59381  44.621  14.379   7.050
 9049POPC   C4A59382  44.625  14.399   7.350
 9049POPC   C1B59383  44.738  14.220   6.450
 9049POPC   C2B59384  44.754  14.192   6.750
 9049POPC   C3B59385  44.780  14.158   7.050
 9049POPC   C4B59386  44.805  14.168   7.350
 9050POPC   NC359387  39.279  31.513   5.550
 9050POPC   PO459388  39.233  31.425   5.850
 9050POPC   GL159389  39.207  31.463   6.150
 9050POPC   GL259390  39.121  31.545   6.150
 9050POPC   C1A59391  39.276  31.513   6.450
 9050POPC   D2A59392  39.230  31.438   6.750
 9050POPC   C3A59393  39.195  31.431   7.050
 9050POPC   C4A59394  39.234  31.427   7.350
 9050POPC   C1B59395  39.033  31.702   6.450
 9050POPC   C2B59396  39.074  31.635   6.750
 9050POPC   C3B59397  39.078  31.629   7.050
 9050POPC   C4B59398  39.023  31.649   7.350
 9051POPC   NC359399  30.657  41.562   5.550
 9051POPC   PO459400  30.683  41.566   5.850
 9051POPC   GL159401  30.649  41.554   6.150
 9051POPC   GL259402  30.696  41.433   6.150
 9051POPC   C1A59403  30.725  41.526   6.450
 9051POPC   D2A59404  30.720  41.559   6.750
 9051POPC   C3A59405  30.721  41.525   7.050
 9051POPC   C4A59406  30.729  41.596   7.350
 9051POPC   C1B59407  30.619  41.312   6.450
 9051POPC   C2B59408  30.605  41.334   6.750
 9051POPC   C3B59409  30.620  41.366   7.050
 9051POPC   C4B59410  30.572  41.341   7.350
 9052POPC   NC359411  22.934  38.451   5.550
 9052POPC   PO459412  22.928  38.495   5.850
 9052POPC   GL159413  22.942  38.486   6.150
 9052POPC   GL259414  22.891  38.301   6.150
 9052POPC   C1A59415  22.965  38.475   6.450
 9052POPC   D2A59416  22.897  38.410   6.750
 9052POPC   C3A59417  22.968  38.469   7.050
 9052POPC   C4A59418  22.929  38.476   7.350
 9052POPC   C1B59419  22.915  38.239   6.450
 9052POPC   C2B59420  22.831  38.196   6.750
 9052POPC   C3B59421  22.829  38.205   7.050
 9052POPC   C4B59422  22.901  38.172   7.350
 9053POPC   NC359423  15.223  26.040   5.550
 9053POPC   PO459424  15.160  26.087   5.850
 9053POPC   GL159425  15.185  26.020   6.150
 9053POPC   GL259426  15.107  26.001   6.150
 9053POPC   C1A59427  15.216  26.003   6.450
 9053POPC   D2A59428  15.169  26.068   6.750
 9053POPC   C3A59429  15.171  26.034   7.050
 9053POPC   C4A59430  15.214  25.999   7.350
 9053POPC   C1B59431  14.991  25.831   6.450
 9053POPC   C2B59432  15.018  25.824   6.750
 9053POPC   C3B59433  15.000  25.854   7.050
 9053POPC   C4B59434  14.954  25.824   7.350
 9054POPC   NC359435   5.871  42.335   5.550
 9054POPC   PO459436   5.895  42.313   5.850
 9054POPC   GL159437   5.889  42.338   6.150
 9054POPC   GL259438   5.991  42.278   6.150
 9054POPC   C1A59439   5.867  42.384   6.450
 9054POPC   D2A59440   5.914  42.382   6.750
 9054POPC   C3A59441   5.916  42.381   7.050
 9054POPC   C4A59442   5.845  42.357   7.350
 9054POPC   C1B59443   6.100  42.244   6.450
 9054POPC   C2B59444   6.087  42.286   6.750
 9054POPC   C3B59445   6.118  42.207   7.050
 9054POPC   C4B59446   6.123  42.255   7.350
 9055POPC   NC359447   3.537  12.035   5.550
 9055POPC   PO459448   3.515  12.055   5.850
 9055POPC   GL159449   3.525  12.116   6.150
 9055POPC   GL259450   3.415  11.952   6.150
 9055POPC   C1A59451   3.506  12.115   6.450
 9055POPC   D2A59452   3.556  12.032   6.750
 9055POPC   C3A59453   3.534  12.072   7.050
 9055POPC   C4A59454   3.590  12.086   7.350
 9055POPC   C1B59455   3.358  11.878   6.450
 9055POPC   C2B59456   3.384  11.866   6.750
 9055POPC   C3B59457   3.357  11.938   7.050
 9055POPC   C4B59458   3.360  11.963   7.350
 9056POPC   NC359459  12.119  28.361   5.550
 9056POPC   PO459460  12.125  28.373   5.850
 9056POPC   GL159461  12.089  28.354   6.150
 9056POPC   GL259462  11.973  28.356   6.150
 9056POPC   C1A59463  12.049  28.368   6.450
 9056POPC   D2A59464  12.052  28.331   6.750
 9056POPC   C3A59465  12.066  28.369   7.050
 9056POPC   C4A59466  12.029  28.411   7.350
 9056POPC   C1B59467  11.865  28.219   6.450
 9056POPC   C2B59468  11.871  28.292   6.750
 9056POPC   C3B59469  11.867  28.280   7.050
 9056POPC   C4B59470  11.835  28.279   7.350
 9057POPC   NC359471  39.221  36.118   5.550
 9057POPC   PO459472  39.183  36.083   5.850
 9057POPC   GL159473  39.268  36.080   6.150
 9057POPC   GL259474  39.358  36.030   6.150
 9057POPC   C1A59475  39.199  36.150   6.450
 9057POPC   D2A59476  39.257  36.151   6.750
 9057POPC   C3A59477  39.240  36.103   7.050
 9057POPC   C4A59478  39.245  36.176   7.350
 9057POPC   C1B59479  39.427  35.968   6.450
 9057POPC   C2B59480  39.477  36.025   6.750
 9057POPC   C3B59481  39.484  36.008   7.050
 9057POPC   C4B59482  39.410  36.028   7.350
 9058POPC   NC359483   9.710  21.398   5.550
 9058POPC   PO459484   9.795  21.378   5.850
 9058POPC   GL159485   9.766  21.369   6.150
 9058POPC   GL259486   9.781  21.495   6.150
 9058POPC   C1A59487   9.776  21.416   6.450
 9058POPC   D2A59488   9.769  21.363   6.750
 9058POPC   C3A59489   9.797  21.410   7.050
 9058POPC   C4A59490   9.739  21.346   7.350
 9058POPC   C1B59491   9.807  21.592   6.450
 9058POPC   C2B59492   9.849  21.663   6.750
 9058POPC   C3B59493   9.793  21.579   7.050
 9058POPC   C4B59494   9.842  21.619   7.350
 9059POPC   NC359495   1.175  18.312   5.550
 9059POPC   PO459496   1.237  18.260   5.850
 9059POPC   GL159497   1.228  18.282   6.150
 9059POPC   GL259498   1.153  18.227   6.150
 9059POPC   C1A59499   1.214  18.289   6.450
 9059POPC   D2A59500   1.239  18.310   6.750
 9059POPC   C3A59501   1.170  18.301   7.050
 9059POPC   C4A59502   1.198  18.296   7.350
 9059POPC   C1B59503   1.014  18.097   6.450
 9059POPC   C2B59504   1.045  18.145   6.750
 9059POPC   C3B59505   1.074  18.089   7.050
 9059POPC   C4B59506   1.041  18.109   7.350
 9060POPC   NC359507  13.613   8.165   5.550
 9060POPC   PO459508  13.665   8.228   5.850
 9060POPC   GL159509  13.666   8.206   6.150
 9060POPC   GL259510  13.769   8.233   6.150
 9060POPC   C1A59511  13.648   8.188   6.450
 9060POPC   D2A59512  13.671   8.228   6.750
 9060POPC   C3A59513  13.622   8.190   7.050
 9060POPC   C4A59514  13.606   8.231   7.350
 9060POPC   C1B59515  13.826   8.333   6.450
 9060POPC   C2B59516  13.875   8.316   6.750
 9060POPC   C3B59517  13.864   8.307   7.050
 9060POPC   C4B59518  13.841   8.316   7.350
 9061POPC   NC359519   2.784  21.428   5.550
 9061POPC   PO459520   2.772  21.367   5.850
 9061POPC   GL159521   2.761  21.422   6.150
 9061POPC   GL259522   2.752  21.483   6.150
 9061POPC   C1A59523   2.727  21.373   6.450
 9061POPC   D2A59524   2.752  21.383   6.750
 9061POPC   C3A59525   2.738  21.343   7.050
 9061POPC   C4A59526   2.774  21.342   7.350
 9061POPC   C1B59527   2.814  21.646   6.450
 9061POPC   C2B59528   2.762  21.630   6.750
 9061POPC   C3B59529   2.787  21.665   7.050
 9061POPC   C4B59530   2.792  21.619   7.350
 9062POPC   NC359531   2.717  19.883   5.550
 9062POPC   PO459532   2.770  19.815   5.850
 9062POPC   GL159533   2.737  19.854   6.150
 9062POPC   GL259534   2.757  19.961   6.150
 9062POPC   C1A59535   2.728  19.813   6.450
 9062POPC   D2A59536   2.721  19.852   6.750
 9062POPC   C3A59537   2.736  19.840   7.050
 9062POPC   C4A59538   2.725  19.871   7.350
 9062POPC   C1B59539   2.770  20.035   6.450
 9062POPC   C2B59540   2.715  20.037   6.750
 9062POPC   C3B59541   2.773  20.079   7.050
 9062POPC   C4B59542   2.758  20.113   7.350
 9063POPC   NC359543  36.908  29.954   5.550
 9063POPC   PO459544  36.917  29.879   5.850
 9063POPC   GL159545  36.894  29.946   6.150
 9063POPC   GL259546  36.859  29.772   6.150
 9063POPC   C1A59547  36.866  29.963   6.450
 9063POPC   D2A59548  36.866  29.923   6.750
 9063POPC   C3A59549  36.878  29.920   7.050
 9063POPC   C4A59550  36.892  29.904   7.350
 9063POPC   C1B59551  36.853  29.676   6.450
 9063POPC   C2B59552  36.850  29.693   6.750
 9063POPC   C3B59553  36.911  29.624   7.050
 9063POPC   C4B59554  36.927  29.706   7.350
 9064POPC   NC359555  43.934  43.095   5.550
 9064POPC   PO459556  43.909  43.062   5.850
 9064POPC   GL159557  43.917  43.061   6.150
 9064POPC   GL259558  43.727  43.193   6.150
 9064POPC   C1A59559  43.923  43.116   6.450
 9064POPC   D2A59560  43.888  43.132   6.750
 9064POPC   C3A59561  43.909  43.064   7.050
 9064POPC   C4A59562  43.859  43.064   7.350
 9064POPC   C1B59563  43.605  43.201   6.450
 9064POPC   C2B59564  43.609  43.188   6.750
 9064POPC   C3B59565  43.630  43.187   7.050
 9064POPC   C4B59566  43.617  43.170   7.350
 9065POPC   NC359567   2.770  17.479   5.550
 9065POPC   PO459568   2.723  17.515   5.850
 9065POPC   GL159569   2.805  17.477   6.150
 9065POPC   GL259570   2.683  17.525   6.150
 9065POPC   C1A59571   2.767  17.467   6.450
 9065POPC   D2A59572   2.808  17.533   6.750
 9065POPC   C3A59573   2.786  17.534   7.050
 9065POPC   C4A59574   2.731  17.549   7.350
 9065POPC   C1B59575   2.523  17.539   6.450
 9065POPC   C2B59576   2.483  17.517   6.750
 9065POPC   C3B59577   2.473  17.541   7.050
 9065POPC   C4B59578   2.528  17.491   7.350
 9066POPC   NC359579  32.278  26.776   5.550
 9066POPC   PO459580  32.219  26.778   5.850
 9066POPC   GL159581  32.258  26.841   6.150
 9066POPC   GL259582  32.209  26.879   6.150
 9066POPC   C1A59583  32.216  26.798   6.450
 9066POPC   D2A59584  32.232  26.804   6.750
 9066POPC   C3A59585  32.213  26.807   7.050
 9066POPC   C4A59586  32.205  26.770   7.350
 9066POPC   C1B59587  32.098  27.001   6.450
 9066POPC   C2B59588  32.086  27.034   6.750
 9066POPC   C3B59589  32.075  27.019   7.050
 9066POPC   C4B59590  32.040  27.015   7.350
 9067POPC   NC359591  15.222  40.796   5.550
 9067POPC   PO459592  15.133  40.800   5.850
 9067POPC   GL159593  15.207  40.791   6.150
 9067POPC   GL259594  15.125  40.885   6.150
 9067POPC   C1A59595  15.176  40.821   6.450
 9067POPC   D2A59596  15.199  40.787   6.750
 9067POPC   C3A59597  15.152  40.769   7.050
 9067POPC   C4A59598  15.159  40.824   7.350
 9067POPC   C1B59599  15.067  41.013   6.450
 9067POPC   C2B59600  15.045  41.039   6.750
 9067POPC   C3B59601  15.053  40.992   7.050
 9067POPC   C4B59602  15.022  40.994   7.350
 9068POPC   NC359603   7.413  25.269   5.550
 9068POPC   PO459604   7.430  25.252   5.850
 9068POPC   GL159605   7.414  25.218   6.150
 9068POPC   GL259606   7.418  25.187   6.150
 9068POPC   C1A59607   7.469  25.259   6.450
 9068POPC   D2A59608   7.418  25.225   6.750
 9068POPC   C3A59609   7.399  25.304   7.050
 9068POPC   C4A59610   7.449  25.252   7.350
 9068POPC   C1B59611   7.477  25.051   6.450
 9068POPC   C2B59612   7.540  25.065   6.750
 9068POPC   C3B59613   7.551  25.064   7.050
 9068POPC   C4B59614   7.533  25.078   7.350
 9069POPC   NC359615  39.968  43.904   5.550
 9069POPC   PO459616  40.057  43.880   5.850
 9069POPC   GL159617  39.966  43.876   6.150
 9069POPC   GL259618  40.059  43.732   6.150
 9069POPC   C1A59619  40.037  43.905   6.450
 9069POPC   D2A59620  39.969  43.930   6.750
 9069POPC   C3A59621  39.980  43.920   7.050
 9069POPC   C4A59622  40.011  43.901   7.350
 9069POPC   C1B59623  40.096  43.614   6.450
 9069POPC   C2B59624  40.114  43.599   6.750
 9069POPC   C3B59625  40.108  43.652   7.050
 9069POPC   C4B59626  40.100  43.656   7.350
 9070POPC   NC359627  24.525   8.944   5.550
 9070POPC   PO459628  24.526   9.005   5.850
 9070POPC   GL159629  24.441   9.006   6.150
 9070POPC   GL259630  24.558   8.872   6.150
 9070POPC   C1A59631  24.502   8.938   6.450
 9070POPC   D2A59632  24.536   8.963   6.750
 9070POPC   C3A59633  24.509   8.985   7.050
 9070POPC   C4A59634  24.472   8.990   7.350
 9070POPC   C1B59635  24.510   8.705   6.450
 9070POPC   C2B59636  24.523   8.704   6.750
 9070POPC   C3B59637  24.582   8.768   7.050
 9070POPC   C4B59638  24.493   8.725   7.350
 9071POPC   NC359639  12.859   8.183   5.550
 9071POPC   PO459640  12.843   8.237   5.850
 9071POPC   GL159641  12.811   8.147   6.150
 9071POPC   GL259642  12.827   8.074   6.150
 9071POPC   C1A59643  12.803   8.176   6.450
 9071POPC   D2A59644  12.869   8.159   6.750
 9071POPC   C3A59645  12.890   8.155   7.050
 9071POPC   C4A59646  12.806   8.223   7.350
 9071POPC   C1B59647  12.841   7.957   6.450
 9071POPC   C2B59648  12.849   7.951   6.750
 9071POPC   C3B59649  12.823   7.959   7.050
 9071POPC   C4B59650  12.843   7.909   7.350
 9072POPC   NC359651  15.208   8.240   5.550
 9072POPC   PO459652  15.190   8.168   5.850
 9072POPC   GL159653  15.167   8.177   6.150
 9072POPC   GL259654  15.115   8.169   6.150
 9072POPC   C1A59655  15.154   8.172   6.450
 9072POPC   D2A59656  15.169   8.205   6.750
 9072POPC   C3A59657  15.176   8.161   7.050
 9072POPC   C4A59658  15.200   8.180   7.350
 9072POPC   C1B59659  15.006   8.081   6.450
 9072POPC   C2B59660  15.005   8.033   6.750
 9072POPC   C3B59661  14.974   8.018   7.050
 9072POPC   C4B59662  14.969   8.037   7.350
 9073POPC   NC359663   1.949  41.570   5.550
 9073POPC   PO459664   2.011  41.540   5.850
 9073POPC   GL159665   1.954  41.565   6.150
 9073POPC   GL259666   2.097  41.458   6.150
 9073POPC   C1A59667   1.979  41.579   6.450
 9073POPC   D2A59668   2.008  41.540   6.750
 9073POPC   C3A59669   2.032  41.585   7.050
 9073POPC   C4A59670   2.030  41.520   7.350
 9073POPC   C1B59671   2.173  41.402   6.450
 9073POPC   C2B59672   2.219  41.449   6.750
 9073POPC   C3B59673   2.244  41.466   7.050
 9073POPC   C4B59674   2.217  41.473   7.350
 9074POPC   NC359675  26.834  24.490   5.550
 9074POPC   PO459676  26.861  24.471   5.850
 9074POPC   GL159677  26.786  24.452   6.150
 9074POPC   GL259678  26.736  24.591   6.150
 9074POPC   C1A59679  26.806  24.478   6.450
 9074POPC   D2A59680  26.849  24.459   6.750
 9074POPC   C3A59681  26.843  24.507   7.050
 9074POPC   C4A59682  26.772  24.525   7.350
 9074POPC   C1B59683  26.659  24.667   6.450
 9074POPC   C2B59684  26.663  24.619   6.750
 9074POPC   C3B59685  26.599  24.611   7.050
 9074POPC   C4B59686  26.596  24.686   7.350
 9075POPC   NC359687  19.821  24.487   5.550
 9075POPC   PO459688  19.815  24.449   5.850
 9075POPC   GL159689  19.847  24.454   6.150
 9075POPC   GL259690  19.975  24.581   6.150
 9075POPC   C1A59691  19.836  24.520   6.450
 9075POPC   D2A59692  19.826  24.475   6.750
 9075POPC   C3A59693  19.816  24.516   7.050
 9075POPC   C4A59694  19.880  24.535   7.350
 9075POPC   C1B59695  20.093  24.582   6.450
 9075POPC   C2B59696  20.056  24.554   6.750
 9075POPC   C3B59697  20.076  24.541   7.050
 9075POPC   C4B59698  20.075  24.622   7.350
 9076POPC   NC359699  32.222  26.028   5.550
 9076POPC   PO459700  32.226  26.050   5.850
 9076POPC   GL159701  32.248  26.071   6.150
 9076POPC   GL259702  32.289  25.952   6.150
 9076POPC   C1A59703  32.295  26.033   6.450
 9076POPC   D2A59704  32.295  26.077   6.750
 9076POPC   C3A59705  32.263  26.022   7.050
 9076POPC   C4A59706  32.275  26.075   7.350
 9076POPC   C1B59707  32.273  25.774   6.450
 9076POPC   C2B59708  32.276  25.823   6.750
 9076POPC   C3B59709  32.276  25.813   7.050
 9076POPC   C4B59710  32.258  25.837   7.350
 9077POPC   NC359711  31.468   9.701   5.550
 9077POPC   PO459712  31.441   9.737   5.850
 9077POPC   GL159713  31.441   9.726   6.150
 9077POPC   GL259714  31.430   9.591   6.150
 9077POPC   C1A59715  31.476   9.756   6.450
 9077POPC   D2A59716  31.466   9.753   6.750
 9077POPC   C3A59717  31.479   9.730   7.050
 9077POPC   C4A59718  31.430   9.788   7.350
 9077POPC   C1B59719  31.425   9.538   6.450
 9077POPC   C2B59720  31.460   9.497   6.750
 9077POPC   C3B59721  31.421   9.523   7.050
 9077POPC   C4B59722  31.426   9.531   7.350
 9078POPC   NC359723  16.756  29.954   5.550
 9078POPC   PO459724  16.759  29.934   5.850
 9078POPC   GL159725  16.741  29.878   6.150
 9078POPC   GL259726  16.878  29.924   6.150
 9078POPC   C1A59727  16.692  29.969   6.450
 9078POPC   D2A59728  16.752  29.962   6.750
 9078POPC   C3A59729  16.721  29.879   7.050
 9078POPC   C4A59730  16.698  29.877   7.350
 9078POPC   C1B59731  16.943  29.947   6.450
 9078POPC   C2B59732  16.989  29.877   6.750
 9078POPC   C3B59733  16.948  29.881   7.050
 9078POPC   C4B59734  16.939  29.936   7.350
 9079POPC   NC359735   1.949  32.217   5.550
 9079POPC   PO459736   1.943  32.282   5.850
 9079POPC   GL159737   2.029  32.222   6.150
 9079POPC   GL259738   1.901  32.139   6.150
 9079POPC   C1A59739   1.977  32.236   6.450
 9079POPC   D2A59740   1.985  32.220   6.750
 9079POPC   C3A59741   2.007  32.217   7.050
 9079POPC   C4A59742   1.984  32.290   7.350
 9079POPC   C1B59743   1.832  32.057   6.450
 9079POPC   C2B59744   1.792  32.075   6.750
 9079POPC   C3B59745   1.818  32.057   7.050
 9079POPC   C4B59746   1.743  32.080   7.350
 9080POPC   NC359747  19.869  29.907   5.550
 9080POPC   PO459748  19.869  29.896   5.850
 9080POPC   GL159749  19.797  29.904   6.150
 9080POPC   GL259750  19.989  29.836   6.150
 9080POPC   C1A59751  19.843  29.880   6.450
 9080POPC   D2A59752  19.856  29.892   6.750
 9080POPC   C3A59753  19.881  29.879   7.050
 9080POPC   C4A59754  19.828  29.901   7.350
 9080POPC   C1B59755  20.057  29.832   6.450
 9080POPC   C2B59756  20.068  29.818   6.750
 9080POPC   C3B59757  20.051  29.828   7.050
 9080POPC   C4B59758  20.084  29.875   7.350
 9081POPC   NC359759  43.902   2.810   5.550
 9081POPC   PO459760  43.856   2.781   5.850
 9081POPC   GL159761  43.871   2.809   6.150
 9081POPC   GL259762  43.811   2.784   6.150
 9081POPC   C1A59763  43.933   2.740   6.450
 9081POPC   D2A59764  43.872   2.814   6.750
 9081POPC   C3A59765  43.854   2.726   7.050
 9081POPC   C4A59766  43.897   2.808   7.350
 9081POPC   C1B59767  43.622   2.797   6.450
 9081POPC   C2B59768  43.637   2.794   6.750
 9081POPC   C3B59769  43.674   2.807   7.050
 9081POPC   C4B59770  43.647   2.872   7.350
 9082POPC   NC359771  43.062  33.003   5.550
 9082POPC   PO459772  43.139  32.980   5.850
 9082POPC   GL159773  43.156  33.032   6.150
 9082POPC   GL259774  43.243  33.101   6.150
 9082POPC   C1A59775  43.114  32.998   6.450
 9082POPC   D2A59776  43.142  33.009   6.750
 9082POPC   C3A59777  43.128  33.014   7.050
 9082POPC   C4A59778  43.082  32.980   7.350
 9082POPC   C1B59779  43.277  33.149   6.450
 9082POPC   C2B59780  43.298  33.124   6.750
 9082POPC   C3B59781  43.316  33.155   7.050
 9082POPC   C4B59782  43.334  33.177   7.350
 9083POPC   NC359783  10.525  40.040   5.550
 9083POPC   PO459784  10.542  39.959   5.850
 9083POPC   GL159785  10.535  40.056   6.150
 9083POPC   GL259786  10.552  39.836   6.150
 9083POPC   C1A59787  10.544  39.999   6.450
 9083POPC   D2A59788  10.485  39.962   6.750
 9083POPC   C3A59789  10.512  40.020   7.050
 9083POPC   C4A59790  10.521  39.982   7.350
 9083POPC   C1B59791  10.553  39.775   6.450
 9083POPC   C2B59792  10.564  39.772   6.750
 9083POPC   C3B59793  10.481  39.796   7.050
 9083POPC   C4B59794  10.546  39.766   7.350
 9084POPC   NC359795  37.677  42.362   5.550
 9084POPC   PO459796  37.719  42.346   5.850
 9084POPC   GL159797  37.667  42.324   6.150
 9084POPC   GL259798  37.550  42.378   6.150
 9084POPC   C1A59799  37.654  42.352   6.450
 9084POPC   D2A59800  37.693  42.368   6.750
 9084POPC   C3A59801  37.689  42.333   7.050
 9084POPC   C4A59802  37.664  42.375   7.350
 9084POPC   C1B59803  37.400  42.400   6.450
 9084POPC   C2B59804  37.403  42.404   6.750
 9084POPC   C3B59805  37.475  42.332   7.050
 9084POPC   C4B59806  37.405  42.361   7.350
 9085POPC   NC359807  20.580  34.599   5.550
 9085POPC   PO459808  20.651  34.545   5.850
 9085POPC   GL159809  20.589  34.598   6.150
 9085POPC   GL259810  20.702  34.544   6.150
 9085POPC   C1A59811  20.571  34.541   6.450
 9085POPC   D2A59812  20.642  34.535   6.750
 9085POPC   C3A59813  20.651  34.608   7.050
 9085POPC   C4A59814  20.639  34.611   7.350
 9085POPC   C1B59815  20.823  34.416   6.450
 9085POPC   C2B59816  20.779  34.414   6.750
 9085POPC   C3B59817  20.784  34.472   7.050
 9085POPC   C4B59818  20.816  34.435   7.350
 9086POPC   NC359819  11.253   9.723   5.550
 9086POPC   PO459820  11.337   9.742   5.850
 9086POPC   GL159821  11.285   9.723   6.150
 9086POPC   GL259822  11.177   9.807   6.150
 9086POPC   C1A59823  11.331   9.786   6.450
 9086POPC   D2A59824  11.325   9.762   6.750
 9086POPC   C3A59825  11.289   9.752   7.050
 9086POPC   C4A59826  11.307   9.714   7.350
 9086POPC   C1B59827  11.095   9.838   6.450
 9086POPC   C2B59828  11.064   9.856   6.750
 9086POPC   C3B59829  11.015   9.801   7.050
 9086POPC   C4B59830  11.087   9.783   7.350
 9087POPC   NC359831  11.312  34.621   5.550
 9087POPC   PO459832  11.340  34.609   5.850
 9087POPC   GL159833  11.344  34.551   6.150
 9087POPC   GL259834  11.182  34.604   6.150
 9087POPC   C1A59835  11.349  34.550   6.450
 9087POPC   D2A59836  11.307  34.552   6.750
 9087POPC   C3A59837  11.253  34.575   7.050
 9087POPC   C4A59838  11.278  34.613   7.350
 9087POPC   C1B59839  11.063  34.578   6.450
 9087POPC   C2B59840  11.051  34.616   6.750
 9087POPC   C3B59841  11.061  34.546   7.050
 9087POPC   C4B59842  11.035  34.630   7.350
 9088POPC   NC359843  16.738   3.563   5.550
 9088POPC   PO459844  16.759   3.549   5.850
 9088POPC   GL159845  16.707   3.572   6.150
 9088POPC   GL259846  16.677   3.690   6.150
 9088POPC   C1A59847  16.720   3.538   6.450
 9088POPC   D2A59848  16.731   3.572   6.750
 9088POPC   C3A59849  16.681   3.526   7.050
 9088POPC   C4A59850  16.748   3.527   7.350
 9088POPC   C1B59851  16.653   3.774   6.450
 9088POPC   C2B59852  16.653   3.828   6.750
 9088POPC   C3B59853  16.685   3.790   7.050
 9088POPC   C4B59854  16.655   3.765   7.350
 9089POPC   NC359855  13.624  23.720   5.550
 9089POPC   PO459856  13.670  23.712   5.850
 9089POPC   GL159857  13.609  23.729   6.150
 9089POPC   GL259858  13.652  23.823   6.150
 9089POPC   C1A59859  13.668  23.687   6.450
 9089POPC   D2A59860  13.623  23.755   6.750
 9089POPC   C3A59861  13.614  23.728   7.050
 9089POPC   C4A59862  13.647  23.752   7.350
 9089POPC   C1B59863  13.698  23.933   6.450
 9089POPC   C2B59864  13.653  23.990   6.750
 9089POPC   C3B59865  13.621  23.949   7.050
 9089POPC   C4B59866  13.639  24.010   7.350
 9090POPC   NC359867   4.365  34.546   5.550
 9090POPC   PO459868   4.298  34.535   5.850
 9090POPC   GL159869   4.298  34.580   6.150
 9090POPC   GL259870   4.197  34.507   6.150
 9090POPC   C1A59871   4.327  34.542   6.450
 9090POPC   D2A59872   4.342  34.569   6.750
 9090POPC   C3A59873   4.330  34.620   7.050
 9090POPC   C4A59874   4.292  34.572   7.350
 9090POPC   C1B59875   4.144  34.394   6.450
 9090POPC   C2B59876   4.156  34.396   6.750
 9090POPC   C3B59877   4.135  34.448   7.050
 9090POPC   C4B59878   4.104  34.386   7.350
 9091POPC   NC359879  10.556  25.279   5.550
 9091POPC   PO459880  10.529  25.249   5.850
 9091POPC   GL159881  10.569  25.260   6.150
 9091POPC   GL259882  10.606  25.270   6.150
 9091POPC   C1A59883  10.562  25.237   6.450
 9091POPC   D2A59884  10.520  25.302   6.750
 9091POPC   C3A59885  10.536  25.267   7.050
 9091POPC   C4A59886  10.498  25.262   7.350
 9091POPC   C1B59887  10.774  25.259   6.450
 9091POPC   C2B59888  10.742  25.188   6.750
 9091POPC   C3B59889  10.801  25.219   7.050
 9091POPC   C4B59890  10.729  25.253   7.350
 9092POPC   NC359891  39.195  39.210   5.550
 9092POPC   PO459892  39.253  39.185   5.850
 9092POPC   GL159893  39.213  39.217   6.150
 9092POPC   GL259894  39.398  39.260   6.150
 9092POPC   C1A59895  39.225  39.275   6.450
 9092POPC   D2A59896  39.277  39.220   6.750
 9092POPC   C3A59897  39.230  39.280   7.050
 9092POPC   C4A59898  39.261  39.269   7.350
 9092POPC   C1B59899  39.435  39.169   6.450
 9092POPC   C2B59900  39.513  39.192   6.750
 9092POPC   C3B59901  39.485  39.166   7.050
 9092POPC   C4B59902  39.472  39.159   7.350
 9093POPC   NC359903  33.847  44.710   5.550
 9093POPC   PO459904  33.795  44.667   5.850
 9093POPC   GL159905  33.790  44.677   6.150
 9093POPC   GL259906  33.883  44.563   6.150
 9093POPC   C1A59907  33.794  44.685   6.450
 9093POPC   D2A59908  33.827  44.699   6.750
 9093POPC   C3A59909  33.769  44.697   7.050
 9093POPC   C4A59910  33.805  44.707   7.350
 9093POPC   C1B59911  33.963  44.460   6.450
 9093POPC   C2B59912  33.959  44.461   6.750
 9093POPC   C3B59913  33.996  44.528   7.050
 9093POPC   C4B59914  33.964  44.505   7.350
 9094POPC   NC359915  26.791  15.227   5.550
 9094POPC   PO459916  26.809  15.129   5.850
 9094POPC   GL159917  26.824  15.213   6.150
 9094POPC   GL259918  26.793  15.308   6.150
 9094POPC   C1A59919  26.807  15.136   6.450
 9094POPC   D2A59920  26.772  15.196   6.750
 9094POPC   C3A59921  26.825  15.187   7.050
 9094POPC   C4A59922  26.776  15.132   7.350
 9094POPC   C1B59923  26.785  15.477   6.450
 9094POPC   C2B59924  26.801  15.406   6.750
 9094POPC   C3B59925  26.771  15.394   7.050
 9094POPC   C4B59926  26.777  15.445   7.350
 9095POPC   NC359927  40.022  33.771   5.550
 9095POPC   PO459928  39.997  33.808   5.850
 9095POPC   GL159929  40.015  33.776   6.150
 9095POPC   GL259930  40.164  33.840   6.150
 9095POPC   C1A59931  39.982  33.767   6.450
 9095POPC   D2A59932  39.978  33.778   6.750
 9095POPC   C3A59933  39.968  33.770   7.050
 9095POPC   C4A59934  40.013  33.835   7.350
 9095POPC   C1B59935  40.290  33.777   6.450
 9095POPC   C2B59936  40.249  33.826   6.750
 9095POPC   C3B59937  40.298  33.742   7.050
 9095POPC   C4B59938  40.301  33.744   7.350
 9096POPC   NC359939  40.762  26.833   5.550
 9096POPC   PO459940  40.733  26.781   5.850
 9096POPC   GL159941  40.769  26.775   6.150
 9096POPC   GL259942  40.795  26.678   6.150
 9096POPC   C1A59943  40.740  26.867   6.450
 9096POPC   D2A59944  40.801  26.823   6.750
 9096POPC   C3A59945  40.748  26.778   7.050
 9096POPC   C4A59946  40.785  26.799   7.350
 9096POPC   C1B59947  40.758  26.551   6.450
 9096POPC   C2B59948  40.837  26.536   6.750
 9096POPC   C3B59949  40.816  26.615   7.050
 9096POPC   C4B59950  40.764  26.530   7.350
 9097POPC   NC359951  38.407   9.728   5.550
 9097POPC   PO459952  38.444   9.732   5.850
 9097POPC   GL159953  38.452   9.765   6.150
 9097POPC   GL259954  38.560   9.675   6.150
 9097POPC   C1A59955  38.417   9.708   6.450
 9097POPC   D2A59956  38.409   9.712   6.750
 9097POPC   C3A59957  38.428   9.748   7.050
 9097POPC   C4A59958  38.408   9.778   7.350
 9097POPC   C1B59959  38.564   9.511   6.450
 9097POPC   C2B59960  38.610   9.561   6.750
 9097POPC   C3B59961  38.578   9.569   7.050
 9097POPC   C4B59962  38.618   9.539   7.350
 9098POPC   NC359963  10.527  26.078   5.550
 9098POPC   PO459964  10.528  26.056   5.850
 9098POPC   GL159965  10.563  26.090   6.150
 9098POPC   GL259966  10.451  25.977   6.150
 9098POPC   C1A59967  10.517  26.048   6.450
 9098POPC   D2A59968  10.524  26.030   6.750
 9098POPC   C3A59969  10.536  26.082   7.050
 9098POPC   C4A59970  10.566  26.079   7.350
 9098POPC   C1B59971  10.323  25.959   6.450
 9098POPC   C2B59972  10.257  25.955   6.750
 9098POPC   C3B59973  10.299  26.026   7.050
 9098POPC   C4B59974  10.275  26.018   7.350
 9099POPC   NC359975  38.504  39.218   5.550
 9099POPC   PO459976  38.422  39.204   5.850
 9099POPC   GL159977  38.442  39.201   6.150
 9099POPC   GL259978  38.574  39.226   6.150
 9099POPC   C1A59979  38.491  39.214   6.450
 9099POPC   D2A59980  38.451  39.221   6.750
 9099POPC   C3A59981  38.478  39.232   7.050
 9099POPC   C4A59982  38.459  39.213   7.350
 9099POPC   C1B59983  38.729  39.097   6.450
 9099POPC   C2B59984  38.651  39.149   6.750
 9099POPC   C3B59985  38.643  39.122   7.050
 9099POPC   C4B59986  38.641  39.125   7.350
 9100POPC   NC359987   2.034  33.021   5.550
 9100POPC   PO459988   1.976  33.039   5.850
 9100POPC   GL159989   2.032  33.045   6.150
 9100POPC   GL259990   2.122  33.102   6.150
 9100POPC   C1A59991   2.032  33.011   6.450
 9100POPC   D2A59992   1.957  33.072   6.750
 9100POPC   C3A59993   2.021  33.028   7.050
 9100POPC   C4A59994   1.958  33.072   7.350
 9100POPC   C1B59995   2.253  33.069   6.450
 9100POPC   C2B59996   2.269  33.050   6.750
 9100POPC   C3B59997   2.234  33.072   7.050
 9100POPC   C4B59998   2.260  33.064   7.350
 9101POPC   NC359999   9.022  30.676   5.550
 9101POPC   PO460000   9.019  30.692   5.850
 9101POPC   GL160001   8.986  30.731   6.150
 9101POPC   GL260002   9.056  30.711   6.150
 9101POPC   C1A60003   8.962  30.734   6.450
 9101POPC   D2A60004   8.986  30.656   6.750
 9101POPC   C3A60005   8.987  30.675   7.050
 9101POPC   C4A60006   8.988  30.653   7.350
 9101POPC   C1B60007   9.246  30.781   6.450
 9101POPC   C2B60008   9.212  30.702   6.750
 9101POPC   C3B60009   9.185  30.693   7.050
 9101POPC   C4B60010   9.195  30.691   7.350
 9102POPC   NC360011  16.762   7.456   5.550
 9102POPC   PO460012  16.775   7.384   5.850
 9102POPC   GL160013  16.713   7.405   6.150
 9102POPC   GL260014  16.820   7.436   6.150
 9102POPC   C1A60015  16.698   7.403   6.450
 9102POPC   D2A60016  16.730   7.441   6.750
 9102POPC   C3A60017  16.726   7.432   7.050
 9102POPC   C4A60018  16.758   7.460   7.350
 9102POPC   C1B60019  16.955   7.505   6.450
 9102POPC   C2B60020  16.968   7.491   6.750
 9102POPC   C3B60021  16.970   7.527   7.050
 9102POPC   C4B60022  17.005   7.469   7.350
 9103POPC   NC360023  16.729   4.268   5.550
 9103POPC   PO460024  16.763   4.364   5.850
 9103POPC   GL160025  16.753   4.342   6.150
 9103POPC   GL260026  16.753   4.231   6.150
 9103POPC   C1A60027  16.749   4.320   6.450
 9103POPC   D2A60028  16.709   4.316   6.750
 9103POPC   C3A60029  16.707   4.270   7.050
 9103POPC   C4A60030  16.697   4.276   7.350
 9103POPC   C1B60031  16.678   4.050   6.450
 9103POPC   C2B60032  16.760   4.065   6.750
 9103POPC   C3B60033  16.718   4.025   7.050
 9103POPC   C4B60034  16.735   4.056   7.350
 9104POPC   NC360035   4.362  17.472   5.550
 9104POPC   PO460036   4.325  17.469   5.850
 9104POPC   GL160037   4.294  17.546   6.150
 9104POPC   GL260038   4.245  17.478   6.150
 9104POPC   C1A60039   4.297  17.473   6.450
 9104POPC   D2A60040   4.307  17.510   6.750
 9104POPC   C3A60041   4.276  17.550   7.050
 9104POPC   C4A60042   4.291  17.485   7.350
 9104POPC   C1B60043   4.075  17.395   6.450
 9104POPC   C2B60044   4.114  17.403   6.750
 9104POPC   C3B60045   4.136  17.402   7.050
 9104POPC   C4B60046   4.054  17.411   7.350
 9105POPC   NC360047  28.378  28.359   5.550
 9105POPC   PO460048  28.344  28.325   5.850
 9105POPC   GL160049  28.416  28.368   6.150
 9105POPC   GL260050  28.298  28.313   6.150
 9105POPC   C1A60051  28.398  28.391   6.450
 9105POPC   D2A60052  28.359  28.364   6.750
 9105POPC   C3A60053  28.360  28.387   7.050
 9105POPC   C4A60054  28.412  28.378   7.350
 9105POPC   C1B60055  28.157  28.235   6.450
 9105POPC   C2B60056  28.172  28.203   6.750
 9105POPC   C3B60057  28.151  28.203   7.050
 9105POPC   C4B60058  28.202  28.231   7.350
 9106POPC   NC360059  36.938  25.998   5.550
 9106POPC   PO460060  36.887  26.010   5.850
 9106POPC   GL160061  36.900  26.045   6.150
 9106POPC   GL260062  36.958  26.130   6.150
 9106POPC   C1A60063  36.881  26.033   6.450
 9106POPC   D2A60064  36.860  25.994   6.750
 9106POPC   C3A60065  36.855  26.061   7.050
 9106POPC   C4A60066  36.889  26.001   7.350
 9106POPC   C1B60067  37.062  26.196   6.450
 9106POPC   C2B60068  37.098  26.187   6.750
 9106POPC   C3B60069  37.097  26.197   7.050
 9106POPC   C4B60070  37.091  26.160   7.350
 9107POPC   NC360071   7.407  43.932   5.550
 9107POPC   PO460072   7.425  43.903   5.850
 9107POPC   GL160073   7.465  43.908   6.150
 9107POPC   GL260074   7.379  43.781   6.150
 9107POPC   C1A60075   7.456  43.847   6.450
 9107POPC   D2A60076   7.460  43.875   6.750
 9107POPC   C3A60077   7.382  43.852   7.050
 9107POPC   C4A60078   7.414  43.882   7.350
 9107POPC   C1B60079   7.309  43.679   6.450
 9107POPC   C2B60080   7.280  43.634   6.750
 9107POPC   C3B60081   7.332  43.639   7.050
 9107POPC   C4B60082   7.287  43.658   7.350
 9108POPC   NC360083   5.123  26.866   5.550
 9108POPC   PO460084   5.060  26.779   5.850
 9108POPC   GL160085   5.134  26.779   6.150
 9108POPC   GL260086   5.200  26.872   6.150
 9108POPC   C1A60087   5.062  26.855   6.450
 9108POPC   D2A60088   5.139  26.770   6.750
 9108POPC   C3A60089   5.045  26.789   7.050
 9108POPC   C4A60090   5.142  26.786   7.350
 9108POPC   C1B60091   5.330  26.799   6.450
 9108POPC   C2B60092   5.292  26.890   6.750
 9108POPC   C3B60093   5.375  26.856   7.050
 9108POPC   C4B60094   5.385  26.880   7.350
 9109POPC   NC360095  15.144  31.521   5.550
 9109POPC   PO460096  15.207  31.445   5.850
 9109POPC   GL160097  15.137  31.507   6.150
 9109POPC   GL260098  15.079  31.568   6.150
 9109POPC   C1A60099  15.130  31.431   6.450
 9109POPC   D2A60100  15.222  31.502   6.750
 9109POPC   C3A60101  15.161  31.501   7.050
 9109POPC   C4A60102  15.212  31.496   7.350
 9109POPC   C1B60103  15.035  31.695   6.450
 9109POPC   C2B60104  15.077  31.706   6.750
 9109POPC   C3B60105  15.069  31.634   7.050
 9109POPC   C4B60106  14.988  31.697   7.350
 9110POPC   NC360107  29.151  27.549   5.550
 9110POPC   PO460108  29.131  27.555   5.850
 9110POPC   GL160109  29.103  27.640   6.150
 9110POPC   GL260110  29.044  27.557   6.150
 9110POPC   C1A60111  29.165  27.553   6.450
 9110POPC   D2A60112  29.167  27.576   6.750
 9110POPC   C3A60113  29.115  27.643   7.050
 9110POPC   C4A60114  29.190  27.552   7.350
 9110POPC   C1B60115  28.907  27.388   6.450
 9110POPC   C2B60116  28.991  27.411   6.750
 9110POPC   C3B60117  28.969  27.424   7.050
 9110POPC   C4B60118  28.947  27.404   7.350
 9111POPC   NC360119  24.497  22.948   5.550
 9111POPC   PO460120  24.522  22.901   5.850
 9111POPC   GL160121  24.508  22.921   6.150
 9111POPC   GL260122  24.434  23.017   6.150
 9111POPC   C1A60123  24.463  22.951   6.450
 9111POPC   D2A60124  24.506  22.935   6.750
 9111POPC   C3A60125  24.510  22.931   7.050
 9111POPC   C4A60126  24.509  22.943   7.350
 9111POPC   C1B60127  24.356  23.144   6.450
 9111POPC   C2B60128  24.432  23.173   6.750
 9111POPC   C3B60129  24.344  23.118   7.050
 9111POPC   C4B60130  24.333  23.211   7.350
 9112POPC   NC360131  22.955  15.229   5.550
 9112POPC   PO460132  22.958  15.184   5.850
 9112POPC   GL160133  22.912  15.156   6.150
 9112POPC   GL260134  23.026  15.148   6.150
 9112POPC   C1A60135  22.891  15.166   6.450
 9112POPC   D2A60136  22.947  15.158   6.750
 9112POPC   C3A60137  22.941  15.174   7.050
 9112POPC   C4A60138  22.927  15.169   7.350
 9112POPC   C1B60139  23.114  15.051   6.450
 9112POPC   C2B60140  23.116  15.109   6.750
 9112POPC   C3B60141  23.180  15.074   7.050
 9112POPC   C4B60142  23.145  15.098   7.350
 9113POPC   NC360143  15.913  29.168   5.550
 9113POPC   PO460144  15.980  29.158   5.850
 9113POPC   GL160145  15.985  29.154   6.150
 9113POPC   GL260146  16.092  29.217   6.150
 9113POPC   C1A60147  15.926  29.171   6.450
 9113POPC   D2A60148  15.994  29.127   6.750
 9113POPC   C3A60149  15.969  29.165   7.050
 9113POPC   C4A60150  15.990  29.124   7.350
 9113POPC   C1B60151  16.180  29.197   6.450
 9113POPC   C2B60152  16.212  29.242   6.750
 9113POPC   C3B60153  16.225  29.290   7.050
 9113POPC   C4B60154  16.147  29.204   7.350
 9114POPC   NC360155   9.766  27.576   5.550
 9114POPC   PO460156   9.792  27.547   5.850
 9114POPC   GL160157   9.728  27.615   6.150
 9114POPC   GL260158   9.657  27.643   6.150
 9114POPC   C1A60159   9.704  27.576   6.450
 9114POPC   D2A60160   9.726  27.634   6.750
 9114POPC   C3A60161   9.797  27.596   7.050
 9114POPC   C4A60162   9.732  27.589   7.350
 9114POPC   C1B60163   9.505  27.757   6.450
 9114POPC   C2B60164   9.550  27.767   6.750
 9114POPC   C3B60165   9.523  27.782   7.050
 9114POPC   C4B60166   9.551  27.696   7.350
 9115POPC   NC360167  40.812  12.809   5.550
 9115POPC   PO460168  40.751  12.851   5.850
 9115POPC   GL160169  40.750  12.810   6.150
 9115POPC   GL260170  40.843  12.715   6.150
 9115POPC   C1A60171  40.812  12.887   6.450
 9115POPC   D2A60172  40.778  12.894   6.750
 9115POPC   C3A60173  40.770  12.845   7.050
 9115POPC   C4A60174  40.822  12.808   7.350
 9115POPC   C1B60175  40.876  12.598   6.450
 9115POPC   C2B60176  40.870  12.587   6.750
 9115POPC   C3B60177  40.906  12.619   7.050
 9115POPC   C4B60178  40.875  12.569   7.350
 9116POPC   NC360179  36.173  28.370   5.550
 9116POPC   PO460180  36.161  28.414   5.850
 9116POPC   GL160181  36.158  28.379   6.150
 9116POPC   GL260182  36.207  28.380   6.150
 9116POPC   C1A60183  36.156  28.398   6.450
 9116POPC   D2A60184  36.113  28.320   6.750
 9116POPC   C3A60185  36.126  28.391   7.050
 9116POPC   C4A60186  36.099  28.404   7.350
 9116POPC   C1B60187  36.351  28.456   6.450
 9116POPC   C2B60188  36.352  28.451   6.750
 9116POPC   C3B60189  36.350  28.457   7.050
 9116POPC   C4B60190  36.398  28.422   7.350
 9117POPC   NC360191  39.238  38.486   5.550
 9117POPC   PO460192  39.190  38.431   5.850
 9117POPC   GL160193  39.211  38.477   6.150
 9117POPC   GL260194  39.371  38.490   6.150
 9117POPC   C1A60195  39.198  38.443   6.450
 9117POPC   D2A60196  39.203  38.424   6.750
 9117POPC   C3A60197  39.249  38.502   7.050
 9117POPC   C4A60198  39.263  38.505   7.350
 9117POPC   C1B60199  39.446  38.542   6.450
 9117POPC   C2B60200  39.467  38.634   6.750
 9117POPC   C3B60201  39.403  38.592   7.050
 9117POPC   C4B60202  39.478  38.631   7.350
 9118POPC   NC360203  12.869  26.865   5.550
 9118POPC   PO460204  12.844  26.779   5.850
 9118POPC   GL160205  12.821  26.843   6.150
 9118POPC   GL260206  12.710  26.791   6.150
 9118POPC   C1A60207  12.804  26.770   6.450
 9118POPC   D2A60208  12.877  26.794   6.750
 9118POPC   C3A60209  12.814  26.846   7.050
 9118POPC   C4A60210  12.862  26.808   7.350
 9118POPC   C1B60211  12.661  26.686   6.450
 9118POPC   C2B60212  12.662  26.647   6.750
 9118POPC   C3B60213  12.600  26.682   7.050
 9118POPC   C4B60214  12.641  26.723   7.350
 9119POPC   NC360215  41.598  40.026   5.550
 9119POPC   PO460216  41.568  40.021   5.850
 9119POPC   GL160217  41.590  39.967   6.150
 9119POPC   GL260218  41.638  40.136   6.150
 9119POPC   C1A60219  41.603  40.029   6.450
 9119POPC   D2A60220  41.549  39.986   6.750
 9119POPC   C3A60221  41.536  40.007   7.050
 9119POPC   C4A60222  41.511  40.016   7.350
 9119POPC   C1B60223  41.736  40.191   6.450
 9119POPC   C2B60224  41.690  40.242   6.750
 9119POPC   C3B60225  41.690  40.173   7.050
 9119POPC   C4B60226  41.667  40.161   7.350
 9120POPC   NC360227  12.121  43.067   5.550
 9120POPC   PO460228  12.113  43.097   5.850
 9120POPC   GL160229  12.124  43.085   6.150
 9120POPC   GL260230  11.901  43.103   6.150
 9120POPC   C1A60231  12.083  43.107   6.450
 9120POPC   D2A60232  12.123  43.061   6.750
 9120POPC   C3A60233  12.064  43.063   7.050
 9120POPC   C4A60234  12.084  43.152   7.350
 9120POPC   C1B60235  11.838  43.088   6.450
 9120POPC   C2B60236  11.779  43.117   6.750
 9120POPC   C3B60237  11.809  43.153   7.050
 9120POPC   C4B60238  11.823  43.129   7.350
 9121POPC   NC360239  43.903   5.067   5.550
 9121POPC   PO460240  43.890   5.126   5.850
 9121POPC   GL160241  43.874   5.094   6.150
 9121POPC   GL260242  43.899   5.023   6.150
 9121POPC   C1A60243  43.932   5.092   6.450
 9121POPC   D2A60244  43.933   5.066   6.750
 9121POPC   C3A60245  43.907   5.067   7.050
 9121POPC   C4A60246  43.853   5.109   7.350
 9121POPC   C1B60247  43.935   4.823   6.450
 9121POPC   C2B60248  43.940   4.811   6.750
 9121POPC   C3B60249  43.971   4.867   7.050
 9121POPC   C4B60250  43.976   4.904   7.350
 9122POPC   NC360251  25.216  36.937   5.550
 9122POPC   PO460252  25.273  36.904   5.850
 9122POPC   GL160253  25.302  36.879   6.150
 9122POPC   GL260254  25.286  36.783   6.150
 9122POPC   C1A60255  25.291  36.889   6.450
 9122POPC   D2A60256  25.303  36.902   6.750
 9122POPC   C3A60257  25.254  36.881   7.050
 9122POPC   C4A60258  25.245  36.877   7.350
 9122POPC   C1B60259  25.399  36.663   6.450
 9122POPC   C2B60260  25.374  36.710   6.750
 9122POPC   C3B60261  25.375  36.652   7.050
 9122POPC   C4B60262  25.371  36.705   7.350
 9123POPC   NC360263  43.112  36.910   5.550
 9123POPC   PO460264  43.134  36.937   5.850
 9123POPC   GL160265  43.078  36.910   6.150
 9123POPC   GL260266  43.135  36.977   6.150
 9123POPC   C1A60267  43.094  36.877   6.450
 9123POPC   D2A60268  43.103  36.937   6.750
 9123POPC   C3A60269  43.089  36.932   7.050
 9123POPC   C4A60270  43.074  36.945   7.350
 9123POPC   C1B60271  43.167  37.099   6.450
 9123POPC   C2B60272  43.241  37.122   6.750
 9123POPC   C3B60273  43.247  37.119   7.050
 9123POPC   C4B60274  43.163  37.118   7.350
 9124POPC   NC360275   3.500  26.776   5.550
 9124POPC   PO460276   3.574  26.822   5.850
 9124POPC   GL160277   3.574  26.854   6.150
 9124POPC   GL260278   3.634  26.728   6.150
 9124POPC   C1A60279   3.493  26.850   6.450
 9124POPC   D2A60280   3.569  26.777   6.750
 9124POPC   C3A60281   3.584  26.809   7.050
 9124POPC   C4A60282   3.511  26.793   7.350
 9124POPC   C1B60283   3.655  26.589   6.450
 9124POPC   C2B60284   3.669  26.591   6.750
 9124POPC   C3B60285   3.628  26.590   7.050
 9124POPC   C4B60286   3.627  26.581   7.350
 9125POPC   NC360287  42.368   6.623   5.550
 9125POPC   PO460288  42.369   6.619   5.850
 9125POPC   GL160289  42.294   6.631   6.150
 9125POPC   GL260290  42.179   6.743   6.150
 9125POPC   C1A60291  42.346   6.605   6.450
 9125POPC   D2A60292  42.291   6.676   6.750
 9125POPC   C3A60293  42.302   6.653   7.050
 9125POPC   C4A60294  42.311   6.637   7.350
 9125POPC   C1B60295  42.071   6.751   6.450
 9125POPC   C2B60296  42.140   6.803   6.750
 9125POPC   C3B60297  42.085   6.765   7.050
 9125POPC   C4B60298  42.146   6.780   7.350
 9126POPC   NC360299  34.613  13.585   5.550
 9126POPC   PO460300  34.592  13.631   5.850
 9126POPC   GL160301  34.535  13.677   6.150
 9126POPC   GL260302  34.544  13.744   6.150
 9126POPC   C1A60303  34.596  13.676   6.450
 9126POPC   D2A60304  34.620  13.646   6.750
 9126POPC   C3A60305  34.605  13.632   7.050
 9126POPC   C4A60306  34.581  13.671   7.350
 9126POPC   C1B60307  34.407  13.858   6.450
 9126POPC   C2B60308  34.433  13.858   6.750
 9126POPC   C3B60309  34.427  13.811   7.050
 9126POPC   C4B60310  34.448  13.869   7.350
 9127POPC   NC360311  29.966   5.048   5.550
 9127POPC   PO460312  29.963   5.073   5.850
 9127POPC   GL160313  29.883   5.130   6.150
 9127POPC   GL260314  29.891   5.235   6.150
 9127POPC   C1A60315  29.888   5.094   6.450
 9127POPC   D2A60316  29.952   5.102   6.750
 9127POPC   C3A60317  29.898   5.092   7.050
 9127POPC   C4A60318  29.911   5.118   7.350
 9127POPC   C1B60319  29.918   5.358   6.450
 9127POPC   C2B60320  29.941   5.322   6.750
 9127POPC   C3B60321  29.974   5.371   7.050
 9127POPC   C4B60322  29.957   5.369   7.350
 9128POPC   NC360323  15.977  12.836   5.550
 9128POPC   PO460324  15.973  12.821   5.850
 9128POPC   GL160325  15.941  12.844   6.150
 9128POPC   GL260326  16.057  12.787   6.150
 9128POPC   C1A60327  15.925  12.827   6.450
 9128POPC   D2A60328  15.928  12.868   6.750
 9128POPC   C3A60329  15.965  12.889   7.050
 9128POPC   C4A60330  15.969  12.843   7.350
 9128POPC   C1B60331  16.094  12.685   6.450
 9128POPC   C2B60332  16.053  12.661   6.750
 9128POPC   C3B60333  16.084  12.685   7.050
 9128POPC   C4B60334  16.124  12.654   7.350
 9129POPC   NC360335  29.106  29.944   5.550
 9129POPC   PO460336  29.135  29.931   5.850
 9129POPC   GL160337  29.118  29.893   6.150
 9129POPC   GL260338  29.301  29.972   6.150
 9129POPC   C1A60339  29.096  29.929   6.450
 9129POPC   D2A60340  29.185  29.879   6.750
 9129POPC   C3A60341  29.170  29.956   7.050
 9129POPC   C4A60342  29.110  29.881   7.350
 9129POPC   C1B60343  29.430  29.899   6.450
 9129POPC   C2B60344  29.431  29.893   6.750
 9129POPC   C3B60345  29.442  29.955   7.050
 9129POPC   C4B60346  29.417  29.887   7.350
 9130POPC   NC360347  44.623  12.827   5.550
 9130POPC   PO460348  44.614  12.820   5.850
 9130POPC   GL160349  44.637  12.872   6.150
 9130POPC   GL260350  44.587  12.835   6.150
 9130POPC   C1A60351  44.662  12.831   6.450
 9130POPC   D2A60352  44.672  12.879   6.750
 9130POPC   C3A60353  44.684  12.862   7.050
 9130POPC   C4A60354  44.685  12.852   7.350
 9130POPC   C1B60355  44.461  12.884   6.450
 9130POPC   C2B60356  44.396  12.900   6.750
 9130POPC   C3B60357  44.414  12.928   7.050
 9130POPC   C4B60358  44.407  12.937   7.350
 9131POPC   NC360359  26.047  27.567   5.550
 9131POPC   PO460360  26.014  27.617   5.850
 9131POPC   GL160361  26.070  27.560   6.150
 9131POPC   GL260362  25.953  27.717   6.150
 9131POPC   C1A60363  26.025  27.553   6.450
 9131POPC   D2A60364  26.000  27.633   6.750
 9131POPC   C3A60365  25.998  27.591   7.050
 9131POPC   C4A60366  26.063  27.640   7.350
 9131POPC   C1B60367  25.925  27.826   6.450
 9131POPC   C2B60368  25.935  27.821   6.750
 9131POPC   C3B60369  25.904  27.764   7.050
 9131POPC   C4B60370  25.873  27.811   7.350
 9132POPC   NC360371   7.464   1.224   5.550
 9132POPC   PO460372   7.470   1.168   5.850
 9132POPC   GL160373   7.401   1.235   6.150
 9132POPC   GL260374   7.330   1.102   6.150
 9132POPC   C1A60375   7.403   1.255   6.450
 9132POPC   D2A60376   7.456   1.224   6.750
 9132POPC   C3A60377   7.378   1.257   7.050
 9132POPC   C4A60378   7.391   1.198   7.350
 9132POPC   C1B60379   7.276   1.056   6.450
 9132POPC   C2B60380   7.288   1.002   6.750
 9132POPC   C3B60381   7.280   1.079   7.050
 9132POPC   C4B60382   7.207   1.076   7.350
 9133POPC   NC360383   8.241  28.384   5.550
 9133POPC   PO460384   8.218  28.346   5.850
 9133POPC   GL160385   8.192  28.333   6.150
 9133POPC   GL260386   8.310  28.375   6.150
 9133POPC   C1A60387   8.193  28.395   6.450
 9133POPC   D2A60388   8.176  28.385   6.750
 9133POPC   C3A60389   8.175  28.344   7.050
 9133POPC   C4A60390   8.157  28.387   7.350
 9133POPC   C1B60391   8.400  28.362   6.450
 9133POPC   C2B60392   8.437  28.407   6.750
 9133POPC   C3B60393   8.416  28.382   7.050
 9133POPC   C4B60394   8.467  28.447   7.350
 9134POPC   NC360395  33.837   5.115   5.550
 9134POPC   PO460396  33.819   5.102   5.850
 9134POPC   GL160397  33.775   5.079   6.150
 9134POPC   GL260398  33.884   5.079   6.150
 9134POPC   C1A60399  33.771   5.110   6.450
 9134POPC   D2A60400  33.751   5.142   6.750
 9134POPC   C3A60401  33.810   5.080   7.050
 9134POPC   C4A60402  33.773   5.059   7.350
 9134POPC   C1B60403  34.058   5.006   6.450
 9134POPC   C2B60404  34.037   4.980   6.750
 9134POPC   C3B60405  34.053   5.007   7.050
 9134POPC   C4B60406  34.006   4.996   7.350
 9135POPC   NC360407  27.581   3.536   5.550
 9135POPC   PO460408  27.619   3.566   5.850
 9135POPC   GL160409  27.602   3.523   6.150
 9135POPC   GL260410  27.687   3.574   6.150
 9135POPC   C1A60411  27.590   3.537   6.450
 9135POPC   D2A60412  27.627   3.527   6.750
 9135POPC   C3A60413  27.593   3.503   7.050
 9135POPC   C4A60414  27.610   3.535   7.350
 9135POPC   C1B60415  27.873   3.561   6.450
 9135POPC   C2B60416  27.832   3.590   6.750
 9135POPC   C3B60417  27.802   3.536   7.050
 9135POPC   C4B60418  27.793   3.492   7.350
 9136POPC   NC360419  38.495  44.658   5.550
 9136POPC   PO460420  38.412  44.693   5.850
 9136POPC   GL160421  38.409  44.677   6.150
 9136POPC   GL260422  38.485  44.572   6.150
 9136POPC   C1A60423  38.504  44.704   6.450
 9136POPC   D2A60424  38.489  44.651   6.750
 9136POPC   C3A60425  38.419  44.682   7.050
 9136POPC   C4A60426  38.441  44.672   7.350
 9136POPC   C1B60427  38.579  44.394   6.450
 9136POPC   C2B60428  38.545  44.398   6.750
 9136POPC   C3B60429  38.580  44.417   7.050
 9136POPC   C4B60430  38.612  44.485   7.350
 9137POPC   NC360431  13.671  29.164   5.550
 9137POPC   PO460432  13.595  29.188   5.850
 9137POPC   GL160433  13.633  29.120   6.150
 9137POPC   GL260434  13.541  29.194   6.150
 9137POPC   C1A60435  13.643  29.182   6.450
 9137POPC   D2A60436  13.594  29.147   6.750
 9137POPC   C3A60437  13.614  29.191   7.050
 9137POPC   C4A60438  13.605  29.144   7.350
 9137POPC   C1B60439  13.436  29.355   6.450
 9137POPC   C2B60440  13.490  29.319   6.750
 9137POPC   C3B60441  13.460  29.330   7.050
 9137POPC   C4B60442  13.448  29.308   7.350
 9138POPC   NC360443   9.009   6.660   5.550
 9138POPC   PO460444   9.013   6.681   5.850
 9138POPC   GL160445   8.970   6.648   6.150
 9138POPC   GL260446   9.033   6.763   6.150
 9138POPC   C1A60447   8.971   6.621   6.450
 9138POPC   D2A60448   8.927   6.645   6.750
 9138POPC   C3A60449   8.975   6.663   7.050
 9138POPC   C4A60450   9.007   6.665   7.350
 9138POPC   C1B60451   9.062   6.865   6.450
 9138POPC   C2B60452   9.107   6.849   6.750
 9138POPC   C3B60453   9.109   6.883   7.050
 9138POPC   C4B60454   9.092   6.869   7.350
 9139POPC   NC360455  39.205  42.287   5.550
 9139POPC   PO460456  39.224  42.327   5.850
 9139POPC   GL160457  39.272  42.364   6.150
 9139POPC   GL260458  39.136  42.211   6.150
 9139POPC   C1A60459  39.184  42.349   6.450
 9139POPC   D2A60460  39.187  42.367   6.750
 9139POPC   C3A60461  39.269  42.298   7.050
 9139POPC   C4A60462  39.186  42.302   7.350
 9139POPC   C1B60463  38.999  42.167   6.450
 9139POPC   C2B60464  39.006  42.187   6.750
 9139POPC   C3B60465  39.094  42.195   7.050
 9139POPC   C4B60466  39.029  42.139   7.350
 9140POPC   NC360467  32.243   6.623   5.550
 9140POPC   PO460468  32.256   6.667   5.850
 9140POPC   GL160469  32.295   6.630   6.150
 9140POPC   GL260470  32.242   6.479   6.150
 9140POPC   C1A60471  32.234   6.667   6.450
 9140POPC   D2A60472  32.204   6.618   6.750
 9140POPC   C3A60473  32.217   6.654   7.050
 9140POPC   C4A60474  32.239   6.644   7.350
 9140POPC   C1B60475  32.373   6.360   6.450
 9140POPC   C2B60476  32.363   6.452   6.750
 9140POPC   C3B60477  32.298   6.440   7.050
 9140POPC   C4B60478  32.376   6.424   7.350
 9141POPC   NC360479  33.007  32.284   5.550
 9141POPC   PO460480  33.069  32.248   5.850
 9141POPC   GL160481  33.035  32.266   6.150
 9141POPC   GL260482  33.152  32.353   6.150
 9141POPC   C1A60483  33.009  32.207   6.450
 9141POPC   D2A60484  33.034  32.257   6.750
 9141POPC   C3A60485  33.052  32.268   7.050
 9141POPC   C4A60486  33.041  32.256   7.350
 9141POPC   C1B60487  33.184  32.391   6.450
 9141POPC   C2B60488  33.209  32.405   6.750
 9141POPC   C3B60489  33.231  32.374   7.050
 9141POPC   C4B60490  33.233  32.388   7.350
 9142POPC   NC360491   2.757  15.185   5.550
 9142POPC   PO460492   2.758  15.159   5.850
 9142POPC   GL160493   2.775  15.204   6.150
 9142POPC   GL260494   2.768  15.349   6.150
 9142POPC   C1A60495   2.803  15.141   6.450
 9142POPC   D2A60496   2.791  15.171   6.750
 9142POPC   C3A60497   2.786  15.141   7.050
 9142POPC   C4A60498   2.815  15.183   7.350
 9142POPC   C1B60499   2.681  15.453   6.450
 9142POPC   C2B60500   2.664  15.384   6.750
 9142POPC   C3B60501   2.697  15.379   7.050
 9142POPC   C4B60502   2.740  15.374   7.350
 9143POPC   NC360503  26.057  28.384   5.550
 9143POPC   PO460504  26.075  28.393   5.850
 9143POPC   GL160505  26.051  28.383   6.150
 9143POPC   GL260506  26.154  28.417   6.150
 9143POPC   C1A60507  26.025  28.389   6.450
 9143POPC   D2A60508  26.076  28.414   6.750
 9143POPC   C3A60509  26.019  28.347   7.050
 9143POPC   C4A60510  26.069  28.412   7.350
 9143POPC   C1B60511  26.326  28.349   6.450
 9143POPC   C2B60512  26.278  28.337   6.750
 9143POPC   C3B60513  26.275  28.410   7.050
 9143POPC   C4B60514  26.286  28.366   7.350
 9144POPC   NC360515   2.001  10.520   5.550
 9144POPC   PO460516   2.009  10.514   5.850
 9144POPC   GL160517   1.983  10.537   6.150
 9144POPC   GL260518   1.914  10.641   6.150
 9144POPC   C1A60519   1.997  10.568   6.450
 9144POPC   D2A60520   1.943  10.488   6.750
 9144POPC   C3A60521   2.038  10.512   7.050
 9144POPC   C4A60522   1.978  10.561   7.350
 9144POPC   C1B60523   1.815  10.733   6.450
 9144POPC   C2B60524   1.859  10.698   6.750
 9144POPC   C3B60525   1.785  10.728   7.050
 9144POPC   C4B60526   1.837  10.721   7.350
 9145POPC   NC360527   1.962  19.831   5.550
 9145POPC   PO460528   1.990  19.849   5.850
 9145POPC   GL160529   1.942  19.790   6.150
 9145POPC   GL260530   2.024  19.716   6.150
 9145POPC   C1A60531   1.985  19.869   6.450
 9145POPC   D2A60532   1.968  19.855   6.750
 9145POPC   C3A60533   1.957  19.836   7.050
 9145POPC   C4A60534   2.031  19.861   7.350
 9145POPC   C1B60535   2.014  19.592   6.450
 9145POPC   C2B60536   1.951  19.628   6.750
 9145POPC   C3B60537   1.972  19.552   7.050
 9145POPC   C4B60538   1.967  19.540   7.350
 9146POPC   NC360539  25.237  33.829   5.550
 9146POPC   PO460540  25.218  33.827   5.850
 9146POPC   GL160541  25.300  33.773   6.150
 9146POPC   GL260542  25.344  33.704   6.150
 9146POPC   C1A60543  25.299  33.769   6.450
 9146POPC   D2A60544  25.300  33.753   6.750
 9146POPC   C3A60545  25.283  33.787   7.050
 9146POPC   C4A60546  25.222  33.815   7.350
 9146POPC   C1B60547  25.455  33.731   6.450
 9146POPC   C2B60548  25.470  33.653   6.750
 9146POPC   C3B60549  25.523  33.689   7.050
 9146POPC   C4B60550  25.442  33.733   7.350
 9147POPC   NC360551  36.130  27.622   5.550
 9147POPC   PO460552  36.134  27.608   5.850
 9147POPC   GL160553  36.129  27.549   6.150
 9147POPC   GL260554  36.110  27.461   6.150
 9147POPC   C1A60555  36.117  27.571   6.450
 9147POPC   D2A60556  36.106  27.637   6.750
 9147POPC   C3A60557  36.108  27.622   7.050
 9147POPC   C4A60558  36.154  27.609   7.350
 9147POPC   C1B60559  36.135  27.394   6.450
 9147POPC   C2B60560  36.205  27.329   6.750
 9147POPC   C3B60561  36.225  27.370   7.050
 9147POPC   C4B60562  36.157  27.369   7.350
 9148POPC   NC360563   0.410  11.294   5.550
 9148POPC   PO460564   0.471  11.270   5.850
 9148POPC   GL160565   0.436  11.316   6.150
 9148POPC   GL260566   0.495  11.364   6.150
 9148POPC   C1A60567   0.426  11.341   6.450
 9148POPC   D2A60568   0.412  11.333   6.750
 9148POPC   C3A60569   0.466  11.292   7.050
 9148POPC   C4A60570   0.425  11.338   7.350
 9148POPC   C1B60571   0.685  11.450   6.450
 9148POPC   C2B60572   0.627  11.475   6.750
 9148POPC   C3B60573   0.650  11.416   7.050
 9148POPC   C4B60574   0.599  11.393   7.350
 9149POPC   NC360575  23.750   5.836   5.550
 9149POPC   PO460576  23.704   5.861   5.850
 9149POPC   GL160577  23.760   5.873   6.150
 9149POPC   GL260578  23.838   5.788   6.150
 9149POPC   C1A60579  23.732   5.917   6.450
 9149POPC   D2A60580  23.702   5.834   6.750
 9149POPC   C3A60581  23.737   5.845   7.050
 9149POPC   C4A60582  23.709   5.910   7.350
 9149POPC   C1B60583  23.856   5.732   6.450
 9149POPC   C2B60584  23.929   5.718   6.750
 9149POPC   C3B60585  23.882   5.687   7.050
 9149POPC   C4B60586  23.866   5.708   7.350
 9150POPC   NC360587  16.002  24.500   5.550
 9150POPC   PO460588  15.952  24.478   5.850
 9150POPC   GL160589  15.963  24.508   6.150
 9150POPC   GL260590  15.907  24.568   6.150
 9150POPC   C1A60591  15.921  24.507   6.450
 9150POPC   D2A60592  15.942  24.506   6.750
 9150POPC   C3A60593  15.965  24.484   7.050
 9150POPC   C4A60594  16.002  24.453   7.350
 9150POPC   C1B60595  15.911  24.746   6.450
 9150POPC   C2B60596  15.896  24.771   6.750
 9150POPC   C3B60597  15.965  24.784   7.050
 9150POPC   C4B60598  15.970  24.701   7.350
 9151POPC   NC360599  24.445  36.122   5.550
 9151POPC   PO460600  24.459  36.085   5.850
 9151POPC   GL160601  24.442  36.108   6.150
 9151POPC   GL260602  24.496  36.025   6.150
 9151POPC   C1A60603  24.477  36.169   6.450
 9151POPC   D2A60604  24.504  36.140   6.750
 9151POPC   C3A60605  24.472  36.149   7.050
 9151POPC   C4A60606  24.526  36.164   7.350
 9151POPC   C1B60607  24.556  35.853   6.450
 9151POPC   C2B60608  24.610  35.928   6.750
 9151POPC   C3B60609  24.548  35.933   7.050
 9151POPC   C4B60610  24.590  35.874   7.350
 9152POPC   NC360611   4.301  27.581   5.550
 9152POPC   PO460612   4.345  27.560   5.850
 9152POPC   GL160613   4.309  27.567   6.150
 9152POPC   GL260614   4.404  27.708   6.150
 9152POPC   C1A60615   4.286  27.630   6.450
 9152POPC   D2A60616   4.348  27.630   6.750
 9152POPC   C3A60617   4.277  27.609   7.050
 9152POPC   C4A60618   4.360  27.550   7.350
 9152POPC   C1B60619   4.480  27.761   6.450
 9152POPC   C2B60620   4.473  27.809   6.750
 9152POPC   C3B60621   4.479  27.781   7.050
 9152POPC   C4B60622   4.442  27.781   7.350
 9153POPC   NC360623  15.998   0.428   5.550
 9153POPC   PO460624  15.916   0.397   5.850
 9153POPC   GL160625  15.934   0.412   6.150
 9153POPC   GL260626  16.034   0.498   6.150
 9153POPC   C1A60627  15.991   0.390   6.450
 9153POPC   D2A60628  15.943   0.407   6.750
 9153POPC   C3A60629  15.935   0.465   7.050
 9153POPC   C4A60630  15.952   0.455   7.350
 9153POPC   C1B60631  16.241   0.468   6.450
 9153POPC   C2B60632  16.247   0.502   6.750
 9153POPC   C3B60633  16.163   0.449   7.050
 9153POPC   C4B60634  16.217   0.512   7.350
 9154POPC   NC360635   4.315   5.133   5.550
 9154POPC   PO460636   4.327   5.137   5.850
 9154POPC   GL160637   4.301   5.079   6.150
 9154POPC   GL260638   4.276   5.165   6.150
 9154POPC   C1A60639   4.282   5.052   6.450
 9154POPC   D2A60640   4.292   5.078   6.750
 9154POPC   C3A60641   4.359   5.112   7.050
 9154POPC   C4A60642   4.366   5.142   7.350
 9154POPC   C1B60643   4.205   5.323   6.450
 9154POPC   C2B60644   4.176   5.320   6.750
 9154POPC   C3B60645   4.182   5.273   7.050
 9154POPC   C4B60646   4.213   5.273   7.350
 9155POPC   NC360647   2.803  12.095   5.550
 9155POPC   PO460648   2.755  12.058   5.850
 9155POPC   GL160649   2.723  12.089   6.150
 9155POPC   GL260650   2.654  11.989   6.150
 9155POPC   C1A60651   2.785  12.044   6.450
 9155POPC   D2A60652   2.749  12.121   6.750
 9155POPC   C3A60653   2.754  12.033   7.050
 9155POPC   C4A60654   2.749  12.070   7.350
 9155POPC   C1B60655   2.629  11.904   6.450
 9155POPC   C2B60656   2.651  11.883   6.750
 9155POPC   C3B60657   2.583  11.903   7.050
 9155POPC   C4B60658   2.644  11.884   7.350
 9156POPC   NC360659  15.183  19.066   5.550
 9156POPC   PO460660  15.219  19.061   5.850
 9156POPC   GL160661  15.167  19.018   6.150
 9156POPC   GL260662  15.093  18.926   6.150
 9156POPC   C1A60663  15.223  19.036   6.450
 9156POPC   D2A60664  15.157  19.064   6.750
 9156POPC   C3A60665  15.158  19.042   7.050
 9156POPC   C4A60666  15.155  19.096   7.350
 9156POPC   C1B60667  15.003  18.846   6.450
 9156POPC   C2B60668  15.065  18.818   6.750
 9156POPC   C3B60669  15.046  18.885   7.050
 9156POPC   C4B60670  15.071  18.840   7.350
 9157POPC   NC360671  11.308  29.926   5.550
 9157POPC   PO460672  11.254  29.950   5.850
 9157POPC   GL160673  11.287  29.938   6.150
 9157POPC   GL260674  11.208  29.828   6.150
 9157POPC   C1A60675  11.260  29.919   6.450
 9157POPC   D2A60676  11.289  29.960   6.750
 9157POPC   C3A60677  11.327  29.949   7.050
 9157POPC   C4A60678  11.316  29.900   7.350
 9157POPC   C1B60679  11.155  29.749   6.450
 9157POPC   C2B60680  11.148  29.706   6.750
 9157POPC   C3B60681  11.165  29.753   7.050
 9157POPC   C4B60682  11.122  29.773   7.350
 9158POPC   NC360683  40.751  24.531   5.550
 9158POPC   PO460684  40.798  24.498   5.850
 9158POPC   GL160685  40.765  24.457   6.150
 9158POPC   GL260686  40.841  24.587   6.150
 9158POPC   C1A60687  40.764  24.496   6.450
 9158POPC   D2A60688  40.786  24.483   6.750
 9158POPC   C3A60689  40.783  24.470   7.050
 9158POPC   C4A60690  40.831  24.534   7.350
 9158POPC   C1B60691  40.923  24.712   6.450
 9158POPC   C2B60692  40.913  24.653   6.750
 9158POPC   C3B60693  40.936  24.652   7.050
 9158POPC   C4B60694  40.886  24.681   7.350
 9159POPC   NC360695  21.422   3.558   5.550
 9159POPC   PO460696  21.343   3.499   5.850
 9159POPC   GL160697  21.431   3.566   6.150
 9159POPC   GL260698  21.473   3.475   6.150
 9159POPC   C1A60699  21.352   3.512   6.450
 9159POPC   D2A60700  21.421   3.541   6.750
 9159POPC   C3A60701  21.412   3.576   7.050
 9159POPC   C4A60702  21.356   3.497   7.350
 9159POPC   C1B60703  21.642   3.414   6.450
 9159POPC   C2B60704  21.578   3.452   6.750
 9159POPC   C3B60705  21.569   3.462   7.050
 9159POPC   C4B60706  21.567   3.387   7.350
 9160POPC   NC360707   4.270  23.693   5.550
 9160POPC   PO460708   4.283  23.671   5.850
 9160POPC   GL160709   4.301  23.753   6.150
 9160POPC   GL260710   4.457  23.678   6.150
 9160POPC   C1A60711   4.338  23.752   6.450
 9160POPC   D2A60712   4.298  23.696   6.750
 9160POPC   C3A60713   4.301  23.680   7.050
 9160POPC   C4A60714   4.303  23.714   7.350
 9160POPC   C1B60715   4.582  23.684   6.450
 9160POPC   C2B60716   4.592  23.682   6.750
 9160POPC   C3B60717   4.566  23.654   7.050
 9160POPC   C4B60718   4.541  23.612   7.350
 9161POPC   NC360719  44.685  39.977   5.550
 9161POPC   PO460720  44.669  40.030   5.850
 9161POPC   GL160721  44.681  40.050   6.150
 9161POPC   GL260722  44.626  40.073   6.150
 9161POPC   C1A60723  44.671  39.995   6.450
 9161POPC   D2A60724  44.682  40.035   6.750
 9161POPC   C3A60725  44.622  40.026   7.050
 9161POPC   C4A60726  44.671  39.997   7.350
 9161POPC   C1B60727  44.495  40.207   6.450
 9161POPC   C2B60728  44.510  40.245   6.750
 9161POPC   C3B60729  44.552  40.215   7.050
 9161POPC   C4B60730  44.540  40.176   7.350
 9162POPC   NC360731  34.589   4.335   5.550
 9162POPC   PO460732  34.564   4.335   5.850
 9162POPC   GL160733  34.594   4.351   6.150
 9162POPC   GL260734  34.501   4.208   6.150
 9162POPC   C1A60735  34.606   4.320   6.450
 9162POPC   D2A60736  34.610   4.355   6.750
 9162POPC   C3A60737  34.551   4.306   7.050
 9162POPC   C4A60738  34.558   4.299   7.350
 9162POPC   C1B60739  34.447   4.123   6.450
 9162POPC   C2B60740  34.441   4.086   6.750
 9162POPC   C3B60741  34.413   4.148   7.050
 9162POPC   C4B60742  34.403   4.115   7.350
 9163POPC   NC360743  32.215  38.427   5.550
 9163POPC   PO460744  32.212  38.409   5.850
 9163POPC   GL160745  32.256  38.458   6.150
 9163POPC   GL260746  32.139  38.315   6.150
 9163POPC   C1A60747  32.248  38.502   6.450
 9163POPC   D2A60748  32.218  38.406   6.750
 9163POPC   C3A60749  32.233  38.481   7.050
 9163POPC   C4A60750  32.275  38.502   7.350
 9163POPC   C1B60751  32.113  38.224   6.450
 9163POPC   C2B60752  32.082  38.274   6.750
 9163POPC   C3B60753  32.069  38.266   7.050
 9163POPC   C4B60754  32.062  38.295   7.350
 9164POPC   NC360755  39.971  13.648   5.550
 9164POPC   PO460756  40.017  13.637   5.850
 9164POPC   GL160757  39.992  13.615   6.150
 9164POPC   GL260758  39.915  13.471   6.150
 9164POPC   C1A60759  40.045  13.632   6.450
 9164POPC   D2A60760  39.997  13.624   6.750
 9164POPC   C3A60761  39.981  13.655   7.050
 9164POPC   C4A60762  39.978  13.670   7.350
 9164POPC   C1B60763  39.901  13.426   6.450
 9164POPC   C2B60764  39.938  13.384   6.750
 9164POPC   C3B60765  39.857  13.420   7.050
 9164POPC   C4B60766  39.855  13.370   7.350
 9165POPC   NC360767  12.093  16.747   5.550
 9165POPC   PO460768  12.030  16.757   5.850
 9165POPC   GL160769  12.081  16.709   6.150
 9165POPC   GL260770  12.180  16.790   6.150
 9165POPC   C1A60771  12.107  16.701   6.450
 9165POPC   D2A60772  12.035  16.752   6.750
 9165POPC   C3A60773  12.122  16.736   7.050
 9165POPC   C4A60774  12.077  16.694   7.350
 9165POPC   C1B60775  12.212  16.910   6.450
 9165POPC   C2B60776  12.184  16.931   6.750
 9165POPC   C3B60777  12.171  16.975   7.050
 9165POPC   C4B60778  12.228  16.966   7.350
 9166POPC   NC360779  19.844  25.261   5.550
 9166POPC   PO460780  19.877  25.306   5.850
 9166POPC   GL160781  19.821  25.254   6.150
 9166POPC   GL260782  19.737  25.318   6.150
 9166POPC   C1A60783  19.843  25.270   6.450
 9166POPC   D2A60784  19.820  25.239   6.750
 9166POPC   C3A60785  19.825  25.227   7.050
 9166POPC   C4A60786  19.849  25.305   7.350
 9166POPC   C1B60787  19.557  25.351   6.450
 9166POPC   C2B60788  19.549  25.295   6.750
 9166POPC   C3B60789  19.566  25.321   7.050
 9166POPC   C4B60790  19.583  25.367   7.350
 9167POPC   NC360791   8.218  25.295   5.550
 9167POPC   PO460792   8.204  25.304   5.850
 9167POPC   GL160793   8.180  25.301   6.150
 9167POPC   GL260794   8.277  25.163   6.150
 9167POPC   C1A60795   8.173  25.265   6.450
 9167POPC   D2A60796   8.178  25.263   6.750
 9167POPC   C3A60797   8.175  25.289   7.050
 9167POPC   C4A60798   8.169  25.218   7.350
 9167POPC   C1B60799   8.291  25.033   6.450
 9167POPC   C2B60800   8.333  24.998   6.750
 9167POPC   C3B60801   8.308  25.087   7.050
 9167POPC   C4B60802   8.302  25.036   7.350
 9168POPC   NC360803  39.957  22.166   5.550
 9168POPC   PO460804  39.981  22.166   5.850
 9168POPC   GL160805  40.039  22.135   6.150
 9168POPC   GL260806  40.075  22.009   6.150
 9168POPC   C1A60807  40.026  22.141   6.450
 9168POPC   D2A60808  39.993  22.148   6.750
 9168POPC   C3A60809  39.970  22.202   7.050
 9168POPC   C4A60810  39.962  22.186   7.350
 9168POPC   C1B60811  40.127  21.947   6.450
 9168POPC   C2B60812  40.105  21.914   6.750
 9168POPC   C3B60813  40.130  21.934   7.050
 9168POPC   C4B60814  40.151  21.924   7.350
 9169POPC   NC360815  34.552  19.092   5.550
 9169POPC   PO460816  34.581  19.076   5.850
 9169POPC   GL160817  34.529  19.029   6.150
 9169POPC   GL260818  34.521  18.975   6.150
 9169POPC   C1A60819  34.537  19.046   6.450
 9169POPC   D2A60820  34.575  19.061   6.750
 9169POPC   C3A60821  34.610  19.045   7.050
 9169POPC   C4A60822  34.558  19.010   7.350
 9169POPC   C1B60823  34.396  18.887   6.450
 9169POPC   C2B60824  34.447  18.883   6.750
 9169POPC   C3B60825  34.412  18.877   7.050
 9169POPC   C4B60826  34.395  18.875   7.350
 9170POPC   NC360827  35.337  35.331   5.550
 9170POPC   PO460828  35.330  35.353   5.850
 9170POPC   GL160829  35.314  35.330   6.150
 9170POPC   GL260830  35.273  35.395   6.150
 9170POPC   C1A60831  35.399  35.376   6.450
 9170POPC   D2A60832  35.316  35.349   6.750
 9170POPC   C3A60833  35.386  35.360   7.050
 9170POPC   C4A60834  35.392  35.379   7.350
 9170POPC   C1B60835  35.159  35.477   6.450
 9170POPC   C2B60836  35.113  35.475   6.750
 9170POPC   C3B60837  35.148  35.458   7.050
 9170POPC   C4B60838  35.124  35.433   7.350
 9171POPC   NC360839  29.967  31.443   5.550
 9171POPC   PO460840  29.903  31.492   5.850
 9171POPC   GL160841  29.881  31.460   6.150
 9171POPC   GL260842  29.867  31.545   6.150
 9171POPC   C1A60843  29.935  31.475   6.450
 9171POPC   D2A60844  29.957  31.433   6.750
 9171POPC   C3A60845  29.894  31.440   7.050
 9171POPC   C4A60846  29.969  31.511   7.350
 9171POPC   C1B60847  29.855  31.741   6.450
 9171POPC   C2B60848  29.852  31.690   6.750
 9171POPC   C3B60849  29.878  31.730   7.050
 9171POPC   C4B60850  29.882  31.686   7.350
 9172POPC   NC360851  29.099  28.360   5.550
 9172POPC   PO460852  29.189  28.333   5.850
 9172POPC   GL160853  29.100  28.398   6.150
 9172POPC   GL260854  29.131  28.478   6.150
 9172POPC   C1A60855  29.127  28.326   6.450
 9172POPC   D2A60856  29.126  28.358   6.750
 9172POPC   C3A60857  29.143  28.377   7.050
 9172POPC   C4A60858  29.108  28.358   7.350
 9172POPC   C1B60859  29.130  28.582   6.450
 9172POPC   C2B60860  29.092  28.582   6.750
 9172POPC   C3B60861  29.106  28.614   7.050
 9172POPC   C4B60862  29.053  28.578   7.350
 9173POPC   NC360863  31.517  36.908   5.550
 9173POPC   PO460864  31.514  36.927   5.850
 9173POPC   GL160865  31.472  36.916   6.150
 9173POPC   GL260866  31.393  36.980   6.150
 9173POPC   C1A60867  31.492  36.916   6.450
 9173POPC   D2A60868  31.427  36.917   6.750
 9173POPC   C3A60869  31.479  36.903   7.050
 9173POPC   C4A60870  31.502  36.925   7.350
 9173POPC   C1B60871  31.367  37.121   6.450
 9173POPC   C2B60872  31.374  37.126   6.750
 9173POPC   C3B60873  31.327  37.144   7.050
 9173POPC   C4B60874  31.322  37.080   7.350
 9174POPC   NC360875  12.115  35.346   5.550
 9174POPC   PO460876  12.095  35.387   5.850
 9174POPC   GL160877  12.074  35.323   6.150
 9174POPC   GL260878  12.175  35.291   6.150
 9174POPC   C1A60879  12.108  35.361   6.450
 9174POPC   D2A60880  12.090  35.371   6.750
 9174POPC   C3A60881  12.112  35.326   7.050
 9174POPC   C4A60882  12.059  35.373   7.350
 9174POPC   C1B60883  12.362  35.256   6.450
 9174POPC   C2B60884  12.310  35.316   6.750
 9174POPC   C3B60885  12.328  35.314   7.050
 9174POPC   C4B60886  12.358  35.273   7.350
 9175POPC   NC360887  10.540   2.814   5.550
 9175POPC   PO460888  10.552   2.723   5.850
 9175POPC   GL160889  10.517   2.795   6.150
 9175POPC   GL260890  10.613   2.811   6.150
 9175POPC   C1A60891  10.478   2.732   6.450
 9175POPC   D2A60892  10.522   2.797   6.750
 9175POPC   C3A60893  10.499   2.736   7.050
 9175POPC   C4A60894  10.499   2.729   7.350
 9175POPC   C1B60895  10.751   2.761   6.450
 9175POPC   C2B60896  10.785   2.748   6.750
 9175POPC   C3B60897  10.823   2.789   7.050
 9175POPC   C4B60898  10.795   2.789   7.350
 9176POPC   NC360899   1.262  22.977   5.550
 9176POPC   PO460900   1.253  22.913   5.850
 9176POPC   GL160901   1.188  22.962   6.150
 9176POPC   GL260902   1.188  22.833   6.150
 9176POPC   C1A60903   1.176  22.911   6.450
 9176POPC   D2A60904   1.198  22.910   6.750
 9176POPC   C3A60905   1.166  22.896   7.050
 9176POPC   C4A60906   1.209  22.899   7.350
 9176POPC   C1B60907   1.076  22.721   6.450
 9176POPC   C2B60908   1.081  22.690   6.750
 9176POPC   C3B60909   1.139  22.743   7.050
 9176POPC   C4B60910   1.123  22.736   7.350
 9177POPC   NC360911  33.797   3.570   5.550
 9177POPC   PO460912  33.768   3.515   5.850
 9177POPC   GL160913  33.812   3.569   6.150
 9177POPC   GL260914  33.695   3.605   6.150
 9177POPC   C1A60915  33.786   3.499   6.450
 9177POPC   D2A60916  33.763   3.504   6.750
 9177POPC   C3A60917  33.754   3.510   7.050
 9177POPC   C4A60918  33.798   3.516   7.350
 9177POPC   C1B60919  33.642   3.692   6.450
 9177POPC   C2B60920  33.624   3.667   6.750
 9177POPC   C3B60921  33.620   3.689   7.050
 9177POPC   C4B60922  33.585   3.686   7.350
 9178POPC   NC360923  21.371  29.179   5.550
 9178POPC   PO460924  21.375  29.167   5.850
 9178POPC   GL160925  21.347  29.181   6.150
 9178POPC   GL260926  21.448  29.192   6.150
 9178POPC   C1A60927  21.427  29.179   6.450
 9178POPC   D2A60928  21.356  29.102   6.750
 9178POPC   C3A60929  21.431  29.174   7.050
 9178POPC   C4A60930  21.378  29.105   7.350
 9178POPC   C1B60931  21.614  29.332   6.450
 9178POPC   C2B60932  21.529  29.264   6.750
 9178POPC   C3B60933  21.571  29.360   7.050
 9178POPC   C4B60934  21.561  29.356   7.350
 9179POPC   NC360935  14.379  29.968   5.550
 9179POPC   PO460936  14.378  29.889   5.850
 9179POPC   GL160937  14.411  29.929   6.150
 9179POPC   GL260938  14.438  29.822   6.150
 9179POPC   C1A60939  14.384  29.898   6.450
 9179POPC   D2A60940  14.404  29.873   6.750
 9179POPC   C3A60941  14.400  29.956   7.050
 9179POPC   C4A60942  14.408  29.871   7.350
 9179POPC   C1B60943  14.577  29.725   6.450
 9179POPC   C2B60944  14.538  29.681   6.750
 9179POPC   C3B60945  14.527  29.766   7.050
 9179POPC   C4B60946  14.547  29.726   7.350
 9180POPC   NC360947  16.770  22.924   5.550
 9180POPC   PO460948  16.698  22.942   5.850
 9180POPC   GL160949  16.688  22.889   6.150
 9180POPC   GL260950  16.677  22.824   6.150
 9180POPC   C1A60951  16.707  22.898   6.450
 9180POPC   D2A60952  16.756  22.979   6.750
 9180POPC   C3A60953  16.722  22.895   7.050
 9180POPC   C4A60954  16.710  22.979   7.350
 9180POPC   C1B60955  16.669  22.717   6.450
 9180POPC   C2B60956  16.663  22.686   6.750
 9180POPC   C3B60957  16.678  22.703   7.050
 9180POPC   C4B60958  16.592  22.692   7.350
 9181POPC   NC360959  23.695  30.717   5.550
 9181POPC   PO460960  23.680  30.712   5.850
 9181POPC   GL160961  23.729  30.725   6.150
 9181POPC   GL260962  23.595  30.712   6.150
 9181POPC   C1A60963  23.693  30.689   6.450
 9181POPC   D2A60964  23.730  30.650   6.750
 9181POPC   C3A60965  23.688  30.667   7.050
 9181POPC   C4A60966  23.681  30.708   7.350
 9181POPC   C1B60967  23.433  30.775   6.450
 9181POPC   C2B60968  23.434  30.701   6.750
 9181POPC   C3B60969  23.496  30.693   7.050
 9181POPC   C4B60970  23.475  30.729   7.350
 9182POPC   NC360971   5.070  14.397   5.550
 9182POPC   PO460972   5.129  14.387   5.850
 9182POPC   GL160973   5.072  14.368   6.150
 9182POPC   GL260974   5.093  14.304   6.150
 9182POPC   C1A60975   5.076  14.421   6.450
 9182POPC   D2A60976   5.090  14.359   6.750
 9182POPC   C3A60977   5.064  14.430   7.050
 9182POPC   C4A60978   5.073  14.364   7.350
 9182POPC   C1B60979   5.154  14.113   6.450
 9182POPC   C2B60980   5.115  14.136   6.750
 9182POPC   C3B60981   5.094  14.185   7.050
 9182POPC   C4B60982   5.134  14.141   7.350
 9183POPC   NC360983  11.312  21.428   5.550
 9183POPC   PO460984  11.299  21.401   5.850
 9183POPC   GL160985  11.300  21.371   6.150
 9183POPC   GL260986  11.172  21.486   6.150
 9183POPC   C1A60987  11.253  21.409   6.450
 9183POPC   D2A60988  11.292  21.379   6.750
 9183POPC   C3A60989  11.271  21.408   7.050
 9183POPC   C4A60990  11.334  21.377   7.350
 9183POPC   C1B60991  11.121  21.521   6.450
 9183POPC   C2B60992  11.109  21.564   6.750
 9183POPC   C3B60993  11.116  21.528   7.050
 9183POPC   C4B60994  11.062  21.571   7.350
 9184POPC   NC360995  15.130  35.324   5.550
 9184POPC   PO460996  15.227  35.331   5.850
 9184POPC   GL160997  15.218  35.321   6.150
 9184POPC   GL260998  15.072  35.313   6.150
 9184POPC   C1A60999  15.185  35.379   6.450
 9184POPC   D2A61000  15.182  35.345   6.750
 9184POPC   C3A61001  15.225  35.395   7.050
 9184POPC   C4A61002  15.151  35.360   7.350
 9184POPC   C1B61003  14.988  35.226   6.450
 9184POPC   C2B61004  15.017  35.167   6.750
 9184POPC   C3B61005  14.939  35.214   7.050
 9184POPC   C4B61006  14.954  35.216   7.350
 9185POPC   NC361007  36.916  19.009   5.550
 9185POPC   PO461008  36.901  19.072   5.850
 9185POPC   GL161009  36.870  19.077   6.150
 9185POPC   GL261010  36.921  18.952   6.150
 9185POPC   C1A61011  36.878  19.035   6.450
 9185POPC   D2A61012  36.930  19.094   6.750
 9185POPC   C3A61013  36.876  19.058   7.050
 9185POPC   C4A61014  36.921  19.060   7.350
 9185POPC   C1B61015  36.981  18.863   6.450
 9185POPC   C2B61016  36.938  18.834   6.750
 9185POPC   C3B61017  36.971  18.838   7.050
 9185POPC   C4B61018  36.925  18.851   7.350
 9186POPC   NC361019   5.910  23.702   5.550
 9186POPC   PO461020   5.880  23.749   5.850
 9186POPC   GL161021   5.904  23.668   6.150
 9186POPC   GL261022   5.835  23.838   6.150
 9186POPC   C1A61023   5.902  23.664   6.450
 9186POPC   D2A61024   5.831  23.726   6.750
 9186POPC   C3A61025   5.908  23.743   7.050
 9186POPC   C4A61026   5.826  23.711   7.350
 9186POPC   C1B61027   5.824  23.948   6.450
 9186POPC   C2B61028   5.815  23.938   6.750
 9186POPC   C3B61029   5.907  23.992   7.050
 9186POPC   C4B61030   5.854  23.974   7.350
 9187POPC   NC361031  31.502  28.319   5.550
 9187POPC   PO461032  31.471  28.387   5.850
 9187POPC   GL161033  31.443  28.323   6.150
 9187POPC   GL261034  31.400  28.444   6.150
 9187POPC   C1A61035  31.423  28.322   6.450
 9187POPC   D2A61036  31.471  28.409   6.750
 9187POPC   C3A61037  31.450  28.333   7.050
 9187POPC   C4A61038  31.451  28.376   7.350
 9187POPC   C1B61039  31.398  28.587   6.450
 9187POPC   C2B61040  31.367  28.594   6.750
 9187POPC   C3B61041  31.388  28.613   7.050
 9187POPC   C4B61042  31.401  28.643   7.350
 9188POPC   NC361043  29.966  35.380   5.550
 9188POPC   PO461044  29.947  35.398   5.850
 9188POPC   GL161045  29.887  35.308   6.150
 9188POPC   GL261046  30.093  35.303   6.150
 9188POPC   C1A61047  29.905  35.315   6.450
 9188POPC   D2A61048  29.907  35.383   6.750
 9188POPC   C3A61049  29.959  35.305   7.050
 9188POPC   C4A61050  29.889  35.321   7.350
 9188POPC   C1B61051  30.148  35.303   6.450
 9188POPC   C2B61052  30.180  35.275   6.750
 9188POPC   C3B61053  30.196  35.279   7.050
 9188POPC   C4B61054  30.179  35.368   7.350
 9189POPC   NC361055   4.305   0.411   5.550
 9189POPC   PO461056   4.334   0.433   5.850
 9189POPC   GL161057   4.366   0.435   6.150
 9189POPC   GL261058   4.392   0.504   6.150
 9189POPC   C1A61059   4.281   0.397   6.450
 9189POPC   D2A61060   4.345   0.442   6.750
 9189POPC   C3A61061   4.343   0.463   7.050
 9189POPC   C4A61062   4.360   0.435   7.350
 9189POPC   C1B61063   4.575   0.558   6.450
 9189POPC   C2B61064   4.499   0.513   6.750
 9189POPC   C3B61065   4.558   0.588   7.050
 9189POPC   C4B61066   4.553   0.554   7.350
 9190POPC   NC361067  20.613  31.438   5.550
 9190POPC   PO461068  20.616  31.446   5.850
 9190POPC   GL161069  20.656  31.507   6.150
 9190POPC   GL261070  20.578  31.376   6.150
 9190POPC   C1A61071  20.602  31.429   6.450
 9190POPC   D2A61072  20.650  31.437   6.750
 9190POPC   C3A61073  20.604  31.469   7.050
 9190POPC   C4A61074  20.633  31.484   7.350
 9190POPC   C1B61075  20.579  31.230   6.450
 9190POPC   C2B61076  20.538  31.187   6.750
 9190POPC   C3B61077  20.581  31.191   7.050
 9190POPC   C4B61078  20.546  31.185   7.350
 9191POPC   NC361079  39.996  36.939   5.550
 9191POPC   PO461080  40.022  36.870   5.850
 9191POPC   GL161081  39.966  36.918   6.150
 9191POPC   GL261082  39.854  36.972   6.150
 9191POPC   C1A61083  40.045  36.952   6.450
 9191POPC   D2A61084  40.057  36.872   6.750
 9191POPC   C3A61085  40.003  36.888   7.050
 9191POPC   C4A61086  39.975  36.935   7.350
 9191POPC   C1B61087  39.802  36.956   6.450
 9191POPC   C2B61088  39.740  36.964   6.750
 9191POPC   C3B61089  39.747  36.973   7.050
 9191POPC   C4B61090  39.749  36.983   7.350
 9192POPC   NC361091   7.468  36.096   5.550
 9192POPC   PO461092   7.452  36.149   5.850
 9192POPC   GL161093   7.397  36.170   6.150
 9192POPC   GL261094   7.365  36.028   6.150
 9192POPC   C1A61095   7.397  36.161   6.450
 9192POPC   D2A61096   7.422  36.103   6.750
 9192POPC   C3A61097   7.466  36.132   7.050
 9192POPC   C4A61098   7.442  36.168   7.350
 9192POPC   C1B61099   7.257  35.909   6.450
 9192POPC   C2B61100   7.295  35.923   6.750
 9192POPC   C3B61101   7.321  35.944   7.050
 9192POPC   C4B61102   7.264  35.967   7.350
 9193POPC   NC361103  36.952  33.069   5.550
 9193POPC   PO461104  36.929  33.009   5.850
 9193POPC   GL161105  36.860  33.018   6.150
 9193POPC   GL261106  36.965  32.947   6.150
 9193POPC   C1A61107  36.873  32.981   6.450
 9193POPC   D2A61108  36.917  32.983   6.750
 9193POPC   C3A61109  36.898  33.008   7.050
 9193POPC   C4A61110  36.875  33.054   7.350
 9193POPC   C1B61111  37.100  32.802   6.450
 9193POPC   C2B61112  37.070  32.884   6.750
 9193POPC   C3B61113  37.078  32.809   7.050
 9193POPC   C4B61114  37.090  32.885   7.350
 9194POPC   NC361115  26.002  12.861   5.550
 9194POPC   PO461116  26.018  12.865   5.850
 9194POPC   GL161117  26.063  12.888   6.150
 9194POPC   GL261118  26.121  12.716   6.150
 9194POPC   C1A61119  26.026  12.858   6.450
 9194POPC   D2A61120  26.046  12.898   6.750
 9194POPC   C3A61121  26.053  12.817   7.050
 9194POPC   C4A61122  26.039  12.817   7.350
 9194POPC   C1B61123  26.121  12.613   6.450
 9194POPC   C2B61124  26.119  12.649   6.750
 9194POPC   C3B61125  26.148  12.596   7.050
 9194POPC   C4B61126  26.169  12.603   7.350
 9195POPC   NC361127   4.269  20.597   5.550
 9195POPC   PO461128   4.340  20.609   5.850
 9195POPC   GL161129   4.362  20.658   6.150
 9195POPC   GL261130   4.208  20.639   6.150
 9195POPC   C1A61131   4.332  20.576   6.450
 9195POPC   D2A61132   4.315  20.599   6.750
 9195POPC   C3A61133   4.356  20.599   7.050
 9195POPC   C4A61134   4.338  20.563   7.350
 9195POPC   C1B61135   4.126  20.757   6.450
 9195POPC   C2B61136   4.122  20.744   6.750
 9195POPC   C3B61137   4.093  20.755   7.050
 9195POPC   C4B61138   4.154  20.756   7.350
 9196POPC   NC361139   5.918  25.263   5.550
 9196POPC   PO461140   5.900  25.305   5.850
 9196POPC   GL161141   5.845  25.302   6.150
 9196POPC   GL261142   5.723  25.275   6.150
 9196POPC   C1A61143   5.897  25.222   6.450
 9196POPC   D2A61144   5.897  25.263   6.750
 9196POPC   C3A61145   5.895  25.225   7.050
 9196POPC   C4A61146   5.886  25.257   7.350
 9196POPC   C1B61147   5.600  25.315   6.450
 9196POPC   C2B61148   5.648  25.334   6.750
 9196POPC   C3B61149   5.656  25.259   7.050
 9196POPC   C4B61150   5.614  25.319   7.350
 9197POPC   NC361151  37.701   5.110   5.550
 9197POPC   PO461152  37.671   5.122   5.850
 9197POPC   GL161153  37.662   5.129   6.150
 9197POPC   GL261154  37.665   5.204   6.150
 9197POPC   C1A61155  37.694   5.100   6.450
 9197POPC   D2A61156  37.670   5.099   6.750
 9197POPC   C3A61157  37.680   5.135   7.050
 9197POPC   C4A61158  37.721   5.126   7.350
 9197POPC   C1B61159  37.636   5.320   6.450
 9197POPC   C2B61160  37.627   5.343   6.750
 9197POPC   C3B61161  37.635   5.389   7.050
 9197POPC   C4B61162  37.690   5.313   7.350
 9198POPC   NC361163   1.959  22.195   5.550
 9198POPC   PO461164   1.954  22.150   5.850
 9198POPC   GL161165   1.982  22.114   6.150
 9198POPC   GL261166   1.933  22.326   6.150
 9198POPC   C1A61167   2.022  22.199   6.450
 9198POPC   D2A61168   1.983  22.186   6.750
 9198POPC   C3A61169   2.002  22.121   7.050
 9198POPC   C4A61170   1.983  22.137   7.350
 9198POPC   C1B61171   1.920  22.368   6.450
 9198POPC   C2B61172   1.942  22.429   6.750
 9198POPC   C3B61173   1.914  22.422   7.050
 9198POPC   C4B61174   1.961  22.434   7.350
 9199POPC   NC361175  26.836   9.712   5.550
 9199POPC   PO461176  26.860   9.798   5.850
 9199POPC   GL161177  26.834   9.720   6.150
 9199POPC   GL261178  26.862   9.645   6.150
 9199POPC   C1A61179  26.838   9.769   6.450
 9199POPC   D2A61180  26.840   9.764   6.750
 9199POPC   C3A61181  26.831   9.760   7.050
 9199POPC   C4A61182  26.828   9.713   7.350
 9199POPC   C1B61183  26.784   9.510   6.450
 9199POPC   C2B61184  26.857   9.517   6.750
 9199POPC   C3B61185  26.801   9.490   7.050
 9199POPC   C4B61186  26.786   9.464   7.350
 9200POPC   NC361187  28.333   1.978   5.550
 9200POPC   PO461188  28.406   1.969   5.850
 9200POPC   GL161189  28.388   2.032   6.150
 9200POPC   GL261190  28.469   2.047   6.150
 9200POPC   C1A61191  28.405   1.976   6.450
 9200POPC   D2A61192  28.326   2.021   6.750
 9200POPC   C3A61193  28.410   1.961   7.050
 9200POPC   C4A61194  28.396   1.992   7.350
 9200POPC   C1B61195  28.578   2.104   6.450
 9200POPC   C2B61196  28.595   2.145   6.750
 9200POPC   C3B61197  28.615   2.100   7.050
 9200POPC   C4B61198  28.592   2.085   7.350
 9201POPC   NC361199  44.663  33.074   5.550
 9201POPC   PO461200  44.669  33.040   5.850
 9201POPC   GL161201  44.618  32.997   6.150
 9201POPC   GL261202  44.536  33.052   6.150
 9201POPC   C1A61203  44.673  33.057   6.450
 9201POPC   D2A61204  44.698  33.049   6.750
 9201POPC   C3A61205  44.645  32.986   7.050
 9201POPC   C4A61206  44.690  33.051   7.350
 9201POPC   C1B61207  44.375  32.974   6.450
 9201POPC   C2B61208  44.419  32.974   6.750
 9201POPC   C3B61209  44.440  32.963   7.050
 9201POPC   C4B61210  44.417  33.029   7.350
 9202POPC   NC361211  13.637  15.137   5.550
 9202POPC   PO461212  13.599  15.194   5.850
 9202POPC   GL161213  13.647  15.179   6.150
 9202POPC   GL261214  13.648  15.270   6.150
 9202POPC   C1A61215  13.616  15.209   6.450
 9202POPC   D2A61216  13.583  15.137   6.750
 9202POPC   C3A61217  13.636  15.152   7.050
 9202POPC   C4A61218  13.638  15.149   7.350
 9202POPC   C1B61219  13.657  15.369   6.450
 9202POPC   C2B61220  13.725  15.387   6.750
 9202POPC   C3B61221  13.744  15.394   7.050
 9202POPC   C4B61222  13.675  15.408   7.350
 9203POPC   NC361223  12.095  43.859   5.550
 9203POPC   PO461224  12.070  43.863   5.850
 9203POPC   GL161225  12.034  43.841   6.150
 9203POPC   GL261226  12.146  43.977   6.150
 9203POPC   C1A61227  12.068  43.845   6.450
 9203POPC   D2A61228  12.123  43.845   6.750
 9203POPC   C3A61229  12.052  43.916   7.050
 9203POPC   C4A61230  12.061  43.873   7.350
 9203POPC   C1B61231  12.309  44.005   6.450
 9203POPC   C2B61232  12.278  44.002   6.750
 9203POPC   C3B61233  12.281  43.987   7.050
 9203POPC   C4B61234  12.304  43.999   7.350
 9204POPC   NC361235  34.592  39.991   5.550
 9204POPC   PO461236  34.538  39.985   5.850
 9204POPC   GL161237  34.594  40.017   6.150
 9204POPC   GL261238  34.647  39.985   6.150
 9204POPC   C1A61239  34.533  39.960   6.450
 9204POPC   D2A61240  34.545  39.998   6.750
 9204POPC   C3A61241  34.527  40.038   7.050
 9204POPC   C4A61242  34.605  40.056   7.350
 9204POPC   C1B61243  34.784  39.867   6.450
 9204POPC   C2B61244  34.826  39.851   6.750
 9204POPC   C3B61245  34.749  39.884   7.050
 9204POPC   C4B61246  34.770  39.854   7.350
 9205POPC   NC361247  27.617   5.060   5.550
 9205POPC   PO461248  27.591   5.092   5.850
 9205POPC   GL161249  27.576   5.056   6.150
 9205POPC   GL261250  27.507   5.183   6.150
 9205POPC   C1A61251  27.620   5.122   6.450
 9205POPC   D2A61252  27.620   5.110   6.750
 9205POPC   C3A61253  27.565   5.128   7.050
 9205POPC   C4A61254  27.601   5.079   7.350
 9205POPC   C1B61255  27.343   5.282   6.450
 9205POPC   C2B61256  27.383   5.226   6.750
 9205POPC   C3B61257  27.426   5.286   7.050
 9205POPC   C4B61258  27.425   5.259   7.350
 9206POPC   NC361259  15.165  16.732   5.550
 9206POPC   PO461260  15.144  16.684   5.850
 9206POPC   GL161261  15.157  16.744   6.150
 9206POPC   GL261262  15.123  16.572   6.150
 9206POPC   C1A61263  15.212  16.722   6.450
 9206POPC   D2A61264  15.179  16.707   6.750
 9206POPC   C3A61265  15.147  16.712   7.050
 9206POPC   C4A61266  15.187  16.778   7.350
 9206POPC   C1B61267  15.110  16.504   6.450
 9206POPC   C2B61268  15.147  16.506   6.750
 9206POPC   C3B61269  15.131  16.507   7.050
 9206POPC   C4B61270  15.086  16.442   7.350
 9207POPC   NC361271  36.148   4.322   5.550
 9207POPC   PO461272  36.114   4.335   5.850
 9207POPC   GL161273  36.103   4.313   6.150
 9207POPC   GL261274  36.053   4.385   6.150
 9207POPC   C1A61275  36.091   4.287   6.450
 9207POPC   D2A61276  36.166   4.335   6.750
 9207POPC   C3A61277  36.083   4.346   7.050
 9207POPC   C4A61278  36.088   4.310   7.350
 9207POPC   C1B61279  35.961   4.573   6.450
 9207POPC   C2B61280  35.984   4.528   6.750
 9207POPC   C3B61281  35.979   4.579   7.050
 9207POPC   C4B61282  36.051   4.506   7.350
 9208POPC   NC361283   3.515  23.667   5.550
 9208POPC   PO461284   3.510  23.731   5.850
 9208POPC   GL161285   3.510  23.728   6.150
 9208POPC   GL261286   3.401  23.696   6.150
 9208POPC   C1A61287   3.581  23.698   6.450
 9208POPC   D2A61288   3.587  23.706   6.750
 9208POPC   C3A61289   3.534  23.673   7.050
 9208POPC   C4A61290   3.511  23.715   7.350
 9208POPC   C1B61291   3.275  23.728   6.450
 9208POPC   C2B61292   3.323  23.715   6.750
 9208POPC   C3B61293   3.279  23.738   7.050
 9208POPC   C4B61294   3.323  23.710   7.350
 9209POPC   NC361295  25.254  39.231   5.550
 9209POPC   PO461296  25.303  39.262   5.850
 9209POPC   GL161297  25.230  39.268   6.150
 9209POPC   GL261298  25.247  39.349   6.150
 9209POPC   C1A61299  25.310  39.252   6.450
 9209POPC   D2A61300  25.248  39.205   6.750
 9209POPC   C3A61301  25.295  39.271   7.050
 9209POPC   C4A61302  25.281  39.223   7.350
 9209POPC   C1B61303  25.245  39.489   6.450
 9209POPC   C2B61304  25.268  39.506   6.750
 9209POPC   C3B61305  25.307  39.496   7.050
 9209POPC   C4B61306  25.260  39.515   7.350
 9210POPC   NC361307  41.556   6.633   5.550
 9210POPC   PO461308  41.552   6.600   5.850
 9210POPC   GL161309  41.566   6.680   6.150
 9210POPC   GL261310  41.467   6.766   6.150
 9210POPC   C1A61311  41.521   6.631   6.450
 9210POPC   D2A61312  41.596   6.617   6.750
 9210POPC   C3A61313  41.568   6.680   7.050
 9210POPC   C4A61314  41.535   6.642   7.350
 9210POPC   C1B61315  41.362   6.836   6.450
 9210POPC   C2B61316  41.395   6.833   6.750
 9210POPC   C3B61317  41.408   6.830   7.050
 9210POPC   C4B61318  41.410   6.778   7.350
 9211POPC   NC361319   8.982  22.171   5.550
 9211POPC   PO461320   8.952  22.137   5.850
 9211POPC   GL161321   8.973  22.119   6.150
 9211POPC   GL261322   9.018  22.061   6.150
 9211POPC   C1A61323   8.972  22.155   6.450
 9211POPC   D2A61324   8.974  22.117   6.750
 9211POPC   C3A61325   8.943  22.207   7.050
 9211POPC   C4A61326   8.965  22.203   7.350
 9211POPC   C1B61327   9.037  21.893   6.450
 9211POPC   C2B61328   9.040  21.954   6.750
 9211POPC   C3B61329   8.991  21.947   7.050
 9211POPC   C4B61330   9.003  21.951   7.350
 9212POPC   NC361331  37.660  28.326   5.550
 9212POPC   PO461332  37.723  28.373   5.850
 9212POPC   GL161333  37.653  28.370   6.150
 9212POPC   GL261334  37.723  28.509   6.150
 9212POPC   C1A61335  37.643  28.341   6.450
 9212POPC   D2A61336  37.680  28.388   6.750
 9212POPC   C3A61337  37.640  28.341   7.050
 9212POPC   C4A61338  37.677  28.329   7.350
 9212POPC   C1B61339  37.710  28.660   6.450
 9212POPC   C2B61340  37.732  28.609   6.750
 9212POPC   C3B61341  37.734  28.624   7.050
 9212POPC   C4B61342  37.706  28.600   7.350
 9213POPC   NC361343  17.501  25.255   5.550
 9213POPC   PO461344  17.515  25.253   5.850
 9213POPC   GL161345  17.516  25.220   6.150
 9213POPC   GL261346  17.517  25.359   6.150
 9213POPC   C1A61347  17.489  25.217   6.450
 9213POPC   D2A61348  17.532  25.260   6.750
 9213POPC   C3A61349  17.476  25.248   7.050
 9213POPC   C4A61350  17.509  25.308   7.350
 9213POPC   C1B61351  17.573  25.476   6.450
 9213POPC   C2B61352  17.556  25.499   6.750
 9213POPC   C3B61353  17.497  25.526   7.050
 9213POPC   C4B61354  17.532  25.543   7.350
 9214POPC   NC361355  36.908   9.723   5.550
 9214POPC   PO461356  36.859   9.721   5.850
 9214POPC   GL161357  36.860   9.717   6.150
 9214POPC   GL261358  36.819   9.892   6.150
 9214POPC   C1A61359  36.951   9.773   6.450
 9214POPC   D2A61360  36.865   9.748   6.750
 9214POPC   C3A61361  36.946   9.717   7.050
 9214POPC   C4A61362  36.897   9.773   7.350
 9214POPC   C1B61363  36.797   9.982   6.450
 9214POPC   C2B61364  36.818   9.935   6.750
 9214POPC   C3B61365  36.815  10.028   7.050
 9214POPC   C4B61366  36.853   9.938   7.350
 9215POPC   NC361367  29.939  25.303   5.550
 9215POPC   PO461368  29.960  25.310   5.850
 9215POPC   GL161369  29.959  25.267   6.150
 9215POPC   GL261370  29.995  25.389   6.150
 9215POPC   C1A61371  29.953  25.258   6.450
 9215POPC   D2A61372  29.922  25.220   6.750
 9215POPC   C3A61373  29.948  25.288   7.050
 9215POPC   C4A61374  29.946  25.279   7.350
 9215POPC   C1B61375  30.098  25.467   6.450
 9215POPC   C2B61376  30.096  25.454   6.750
 9215POPC   C3B61377  30.066  25.463   7.050
 9215POPC   C4B61378  30.052  25.507   7.350
 9216POPC   NC361379  22.949  44.695   5.550
 9216POPC   PO461380  22.892  44.684   5.850
 9216POPC   GL161381  22.934  44.634   6.150
 9216POPC   GL261382  22.786  44.737   6.150
 9216POPC   C1A61383  22.894  44.663   6.450
 9216POPC   D2A61384  22.982  44.625   6.750
 9216POPC   C3A61385  22.899  44.633   7.050
 9216POPC   C4A61386  22.987  44.618   7.350
 9216POPC   C1B61387  22.740  44.839   6.450
 9216POPC   C2B61388  22.759  44.830   6.750
 9216POPC   C3B61389  22.704  44.793   7.050
 9216POPC   C4B61390  22.751  44.766   7.350
 9217POPC   NC361391  39.233   5.102   5.550
 9217POPC   PO461392  39.213   5.131   5.850
 9217POPC   GL161393  39.227   5.128   6.150
 9217POPC   GL261394  39.312   5.169   6.150
 9217POPC   C1A61395  39.263   5.053   6.450
 9217POPC   D2A61396  39.192   5.071   6.750
 9217POPC   C3A61397  39.281   5.084   7.050
 9217POPC   C4A61398  39.221   5.059   7.350
 9217POPC   C1B61399  39.278   5.306   6.450
 9217POPC   C2B61400  39.322   5.369   6.750
 9217POPC   C3B61401  39.355   5.293   7.050
 9217POPC   C4B61402  39.322   5.307   7.350
 9218POPC   NC361403  29.926   2.005   5.550
 9218POPC   PO461404  29.904   2.013   5.850
 9218POPC   GL161405  29.962   2.011   6.150
 9218POPC   GL261406  30.061   1.905   6.150
 9218POPC   C1A61407  29.898   1.978   6.450
 9218POPC   D2A61408  29.934   1.964   6.750
 9218POPC   C3A61409  29.910   2.036   7.050
 9218POPC   C4A61410  29.926   2.037   7.350
 9218POPC   C1B61411  30.169   1.840   6.450
 9218POPC   C2B61412  30.169   1.857   6.750
 9218POPC   C3B61413  30.096   1.881   7.050
 9218POPC   C4B61414  30.141   1.906   7.350
 9219POPC   NC361415  29.945  19.834   5.550
 9219POPC   PO461416  29.895  19.835   5.850
 9219POPC   GL161417  29.955  19.811   6.150
 9219POPC   GL261418  29.839  19.888   6.150
 9219POPC   C1A61419  29.923  19.835   6.450
 9219POPC   D2A61420  29.895  19.840   6.750
 9219POPC   C3A61421  29.964  19.789   7.050
 9219POPC   C4A61422  29.943  19.841   7.350
 9219POPC   C1B61423  29.750  20.078   6.450
 9219POPC   C2B61424  29.776  20.014   6.750
 9219POPC   C3B61425  29.758  20.013   7.050
 9219POPC   C4B61426  29.785  20.001   7.350
 9220POPC   NC361427  27.613  15.178   5.550
 9220POPC   PO461428  27.559  15.171   5.850
 9220POPC   GL161429  27.584  15.136   6.150
 9220POPC   GL261430  27.528  15.112   6.150
 9220POPC   C1A61431  27.629  15.158   6.450
 9220POPC   D2A61432  27.543  15.146   6.750
 9220POPC   C3A61433  27.602  15.177   7.050
 9220POPC   C4A61434  27.575  15.139   7.350
 9220POPC   C1B61435  27.478  14.988   6.450
 9220POPC   C2B61436  27.406  14.981   6.750
 9220POPC   C3B61437  27.455  15.015   7.050
 9220POPC   C4B61438  27.429  14.959   7.350
 9221POPC   NC361439  26.031  18.255   5.550
 9221POPC   PO461440  26.063  18.294   5.850
 9221POPC   GL161441  26.076  18.331   6.150
 9221POPC   GL261442  25.981  18.446   6.150
 9221POPC   C1A61443  26.044  18.264   6.450
 9221POPC   D2A61444  26.089  18.260   6.750
 9221POPC   C3A61445  26.042  18.268   7.050
 9221POPC   C4A61446  26.024  18.282   7.350
 9221POPC   C1B61447  25.928  18.494   6.450
 9221POPC   C2B61448  25.915  18.549   6.750
 9221POPC   C3B61449  25.929  18.552   7.050
 9221POPC   C4B61450  25.983  18.538   7.350
 9222POPC   NC361451  24.494   3.514   5.550
 9222POPC   PO461452  24.488   3.500   5.850
 9222POPC   GL161453  24.511   3.523   6.150
 9222POPC   GL261454  24.490   3.392   6.150
 9222POPC   C1A61455  24.493   3.511   6.450
 9222POPC   D2A61456  24.506   3.562   6.750
 9222POPC   C3A61457  24.527   3.588   7.050
 9222POPC   C4A61458  24.538   3.523   7.350
 9222POPC   C1B61459  24.542   3.339   6.450
 9222POPC   C2B61460  24.590   3.314   6.750
 9222POPC   C3B61461  24.601   3.340   7.050
 9222POPC   C4B61462  24.595   3.261   7.350
 9223POPC   NC361463  19.869  31.469   5.550
 9223POPC   PO461464  19.823  31.510   5.850
 9223POPC   GL161465  19.878  31.455   6.150
 9223POPC   GL261466  19.845  31.554   6.150
 9223POPC   C1A61467  19.809  31.518   6.450
 9223POPC   D2A61468  19.838  31.514   6.750
 9223POPC   C3A61469  19.855  31.454   7.050
 9223POPC   C4A61470  19.859  31.519   7.350
 9223POPC   C1B61471  19.870  31.768   6.450
 9223POPC   C2B61472  19.873  31.732   6.750
 9223POPC   C3B61473  19.914  31.716   7.050
 9223POPC   C4B61474  19.863  31.685   7.350
 9224POPC   NC361475  15.948  44.691   5.550
 9224POPC   PO461476  15.960  44.637   5.850
 9224POPC   GL161477  15.949  44.626   6.150
 9224POPC   GL261478  15.904  44.614   6.150
 9224POPC   C1A61479  15.959  44.676   6.450
 9224POPC   D2A61480  16.003  44.704   6.750
 9224POPC   C3A61481  15.956  44.636   7.050
 9224POPC   C4A61482  15.996  44.701   7.350
 9224POPC   C1B61483  15.770  44.543   6.450
 9224POPC   C2B61484  15.724  44.522   6.750
 9224POPC   C3B61485  15.774  44.513   7.050
 9224POPC   C4B61486  15.786  44.535   7.350
 9225POPC   NC361487  25.314   5.084   5.550
 9225POPC   PO461488  25.289   5.079   5.850
 9225POPC   GL161489  25.298   5.137   6.150
 9225POPC   GL261490  25.345   5.097   6.150
 9225POPC   C1A61491  25.234   5.075   6.450
 9225POPC   D2A61492  25.280   5.084   6.750
 9225POPC   C3A61493  25.223   5.105   7.050
 9225POPC   C4A61494  25.268   5.098   7.350
 9225POPC   C1B61495  25.461   5.148   6.450
 9225POPC   C2B61496  25.481   5.164   6.750
 9225POPC   C3B61497  25.540   5.187   7.050
 9225POPC   C4B61498  25.480   5.216   7.350
 9226POPC   NC361499   4.294   2.811   5.550
 9226POPC   PO461500   4.301   2.735   5.850
 9226POPC   GL161501   4.291   2.735   6.150
 9226POPC   GL261502   4.245   2.709   6.150
 9226POPC   C1A61503   4.355   2.760   6.450
 9226POPC   D2A61504   4.303   2.721   6.750
 9226POPC   C3A61505   4.335   2.741   7.050
 9226POPC   C4A61506   4.308   2.769   7.350
 9226POPC   C1B61507   4.070   2.621   6.450
 9226POPC   C2B61508   4.054   2.653   6.750
 9226POPC   C3B61509   4.054   2.644   7.050
 9226POPC   C4B61510   4.075   2.667   7.350
 9227POPC   NC361511  40.750   8.168   5.550
 9227POPC   PO461512  40.804   8.242   5.850
 9227POPC   GL161513  40.753   8.241   6.150
 9227POPC   GL261514  40.844   8.303   6.150
 9227POPC   C1A61515  40.802   8.218   6.450
 9227POPC   D2A61516  40.825   8.179   6.750
 9227POPC   C3A61517  40.751   8.241   7.050
 9227POPC   C4A61518  40.742   8.153   7.350
 9227POPC   C1B61519  40.979   8.339   6.450
 9227POPC   C2B61520  40.944   8.353   6.750
 9227POPC   C3B61521  40.930   8.399   7.050
 9227POPC   C4B61522  40.997   8.339   7.350
 9228POPC   NC361523  31.443  40.056   5.550
 9228POPC   PO461524  31.470  40.000   5.850
 9228POPC   GL161525  31.444  39.961   6.150
 9228POPC   GL261526  31.429  40.080   6.150
 9228POPC   C1A61527  31.472  39.989   6.450
 9228POPC   D2A61528  31.493  40.014   6.750
 9228POPC   C3A61529  31.426  40.045   7.050
 9228POPC   C4A61530  31.425  40.030   7.350
 9228POPC   C1B61531  31.294  40.202   6.450
 9228POPC   C2B61532  31.271  40.192   6.750
 9228POPC   C3B61533  31.278  40.182   7.050
 9228POPC   C4B61534  31.296  40.221   7.350
 9229POPC   NC361535  28.370  34.577   5.550
 9229POPC   PO461536  28.380  34.575   5.850
 9229POPC   GL161537  28.383  34.624   6.150
 9229POPC   GL261538  28.480  34.659   6.150
 9229POPC   C1A61539  28.395  34.533   6.450
 9229POPC   D2A61540  28.380  34.554   6.750
 9229POPC   C3A61541  28.320  34.535   7.050
 9229POPC   C4A61542  28.347  34.600   7.350
 9229POPC   C1B61543  28.481  34.822   6.450
 9229POPC   C2B61544  28.474  34.789   6.750
 9229POPC   C3B61545  28.550  34.787   7.050
 9229POPC   C4B61546  28.495  34.759   7.350
 9230POPC   NC361547  28.401  31.511   5.550
 9230POPC   PO461548  28.412  31.431   5.850
 9230POPC   GL161549  28.319  31.437   6.150
 9230POPC   GL261550  28.292  31.489   6.150
 9230POPC   C1A61551  28.350  31.501   6.450
 9230POPC   D2A61552  28.344  31.504   6.750
 9230POPC   C3A61553  28.406  31.463   7.050
 9230POPC   C4A61554  28.367  31.478   7.350
 9230POPC   C1B61555  28.166  31.497   6.450
 9230POPC   C2B61556  28.139  31.464   6.750
 9230POPC   C3B61557  28.087  31.485   7.050
 9230POPC   C4B61558  28.122  31.544   7.350
 9231POPC   NC361559   9.720  22.983   5.550
 9231POPC   PO461560   9.769  22.906   5.850
 9231POPC   GL161561   9.728  22.893   6.150
 9231POPC   GL261562   9.622  22.865   6.150
 9231POPC   C1A61563   9.721  22.976   6.450
 9231POPC   D2A61564   9.733  22.983   6.750
 9231POPC   C3A61565   9.711  22.923   7.050
 9231POPC   C4A61566   9.773  22.947   7.350
 9231POPC   C1B61567   9.546  22.860   6.450
 9231POPC   C2B61568   9.497  22.768   6.750
 9231POPC   C3B61569   9.547  22.765   7.050
 9231POPC   C4B61570   9.512  22.770   7.350
 9232POPC   NC361571   7.463  44.663   5.550
 9232POPC   PO461572   7.428  44.626   5.850
 9232POPC   GL161573   7.408  44.632   6.150
 9232POPC   GL261574   7.490  44.779   6.150
 9232POPC   C1A61575   7.408  44.692   6.450
 9232POPC   D2A61576   7.448  44.616   6.750
 9232POPC   C3A61577   7.464  44.642   7.050
 9232POPC   C4A61578   7.389  44.672   7.350
 9232POPC   C1B61579   7.547  44.860   6.450
 9232POPC   C2B61580   7.550  44.900   6.750
 9232POPC   C3B61581   7.547  44.914   7.050
 9232POPC   C4B61582   7.516  44.938   7.350
 9233POPC   NC361583  26.857  40.799   5.550
 9233POPC   PO461584  26.840  40.767   5.850
 9233POPC   GL161585  26.822  40.742   6.150
 9233POPC   GL261586  26.722  40.729   6.150
 9233POPC   C1A61587  26.768  40.763   6.450
 9233POPC   D2A61588  26.776  40.780   6.750
 9233POPC   C3A61589  26.805  40.811   7.050
 9233POPC   C4A61590  26.773  40.823   7.350
 9233POPC   C1B61591  26.569  40.701   6.450
 9233POPC   C2B61592  26.570  40.727   6.750
 9233POPC   C3B61593  26.529  40.698   7.050
 9233POPC   C4B61594  26.592  40.732   7.350
 9234POPC   NC361595  21.412  28.355   5.550
 9234POPC   PO461596  21.407  28.329   5.850
 9234POPC   GL161597  21.431  28.352   6.150
 9234POPC   GL261598  21.281  28.395   6.150
 9234POPC   C1A61599  21.362  28.368   6.450
 9234POPC   D2A61600  21.364  28.358   6.750
 9234POPC   C3A61601  21.388  28.322   7.050
 9234POPC   C4A61602  21.414  28.330   7.350
 9234POPC   C1B61603  21.113  28.402   6.450
 9234POPC   C2B61604  21.130  28.436   6.750
 9234POPC   C3B61605  21.121  28.434   7.050
 9234POPC   C4B61606  21.170  28.393   7.350
 9235POPC   NC361607  12.847   0.466   5.550
 9235POPC   PO461608  12.887   0.403   5.850
 9235POPC   GL161609  12.822   0.435   6.150
 9235POPC   GL261610  12.816   0.565   6.150
 9235POPC   C1A61611  12.874   0.430   6.450
 9235POPC   D2A61612  12.878   0.479   6.750
 9235POPC   C3A61613  12.824   0.434   7.050
 9235POPC   C4A61614  12.826   0.430   7.350
 9235POPC   C1B61615  12.692   0.683   6.450
 9235POPC   C2B61616  12.689   0.648   6.750
 9235POPC   C3B61617  12.683   0.655   7.050
 9235POPC   C4B61618  12.704   0.633   7.350
 9236POPC   NC361619   7.379  29.132   5.550
 9236POPC   PO461620   7.390  29.106   5.850
 9236POPC   GL161621   7.383  29.108   6.150
 9236POPC   GL261622   7.299  29.188   6.150
 9236POPC   C1A61623   7.416  29.178   6.450
 9236POPC   D2A61624   7.467  29.192   6.750
 9236POPC   C3A61625   7.393  29.186   7.050
 9236POPC   C4A61626   7.419  29.144   7.350
 9236POPC   C1B61627   7.197  29.265   6.450
 9236POPC   C2B61628   7.241  29.313   6.750
 9236POPC   C3B61629   7.229  29.247   7.050
 9236POPC   C4B61630   7.171  29.315   7.350
 9237POPC   NC361631  39.260  12.863   5.550
 9237POPC   PO461632  39.252  12.844   5.850
 9237POPC   GL161633  39.195  12.804   6.150
 9237POPC   GL261634  39.143  12.901   6.150
 9237POPC   C1A61635  39.219  12.843   6.450
 9237POPC   D2A61636  39.244  12.817   6.750
 9237POPC   C3A61637  39.186  12.870   7.050
 9237POPC   C4A61638  39.253  12.810   7.350
 9237POPC   C1B61639  38.936  12.850   6.450
 9237POPC   C2B61640  38.950  12.946   6.750
 9237POPC   C3B61641  38.942  12.938   7.050
 9237POPC   C4B61642  38.943  12.857   7.350
 9238POPC   NC361643  39.278  36.862   5.550
 9238POPC   PO461644  39.210  36.896   5.850
 9238POPC   GL161645  39.277  36.908   6.150
 9238POPC   GL261646  39.375  36.857   6.150
 9238POPC   C1A61647  39.225  36.883   6.450
 9238POPC   D2A61648  39.232  36.952   6.750
 9238POPC   C3A61649  39.250  36.921   7.050
 9238POPC   C4A61650  39.196  36.863   7.350
 9238POPC   C1B61651  39.510  36.848   6.450
 9238POPC   C2B61652  39.477  36.856   6.750
 9238POPC   C3B61653  39.433  36.838   7.050
 9238POPC   C4B61654  39.476  36.908   7.350
 9239POPC   NC361655  19.878   1.953   5.550
 9239POPC   PO461656  19.864   1.984   5.850
 9239POPC   GL161657  19.815   1.972   6.150
 9239POPC   GL261658  19.760   1.932   6.150
 9239POPC   C1A61659  19.790   2.036   6.450
 9239POPC   D2A61660  19.821   2.020   6.750
 9239POPC   C3A61661  19.865   1.988   7.050
 9239POPC   C4A61662  19.857   2.004   7.350
 9239POPC   C1B61663  19.593   1.843   6.450
 9239POPC   C2B61664  19.605   1.846   6.750
 9239POPC   C3B61665  19.639   1.861   7.050
 9239POPC   C4B61666  19.638   1.887   7.350
 9240POPC   NC361667  10.544  44.620   5.550
 9240POPC   PO461668  10.516  44.677   5.850
 9240POPC   GL161669  10.478  44.678   6.150
 9240POPC   GL261670  10.466  44.569   6.150
 9240POPC   C1A61671  10.537  44.688   6.450
 9240POPC   D2A61672  10.476  44.620   6.750
 9240POPC   C3A61673  10.549  44.679   7.050
 9240POPC   C4A61674  10.513  44.699   7.350
 9240POPC   C1B61675  10.464  44.438   6.450
 9240POPC   C2B61676  10.473  44.475   6.750
 9240POPC   C3B61677  10.425  44.380   7.050
 9240POPC   C4B61678  10.489  44.407   7.350
 9241POPC   NC361679   1.997  40.023   5.550
 9241POPC   PO461680   2.009  40.024   5.850
 9241POPC   GL161681   1.996  40.046   6.150
 9241POPC   GL261682   1.836  39.976   6.150
 9241POPC   C1A61683   1.956  39.971   6.450
 9241POPC   D2A61684   2.003  40.026   6.750
 9241POPC   C3A61685   2.008  40.002   7.050
 9241POPC   C4A61686   2.022  40.030   7.350
 9241POPC   C1B61687   1.726  39.933   6.450
 9241POPC   C2B61688   1.764  39.938   6.750
 9241POPC   C3B61689   1.707  39.976   7.050
 9241POPC   C4B61690   1.761  39.959   7.350
 9242POPC   NC361691   9.011  43.079   5.550
 9242POPC   PO461692   8.957  43.125   5.850
 9242POPC   GL161693   8.944  43.121   6.150
 9242POPC   GL261694   9.023  43.165   6.150
 9242POPC   C1A61695   9.020  43.127   6.450
 9242POPC   D2A61696   8.948  43.147   6.750
 9242POPC   C3A61697   8.975  43.104   7.050
 9242POPC   C4A61698   8.992  43.072   7.350
 9242POPC   C1B61699   9.147  43.287   6.450
 9242POPC   C2B61700   9.101  43.268   6.750
 9242POPC   C3B61701   9.145  43.320   7.050
 9242POPC   C4B61702   9.070  43.285   7.350
 9243POPC   NC361703  20.657  25.287   5.550
 9243POPC   PO461704  20.570  25.298   5.850
 9243POPC   GL161705  20.583  25.272   6.150
 9243POPC   GL261706  20.703  25.217   6.150
 9243POPC   C1A61707  20.591  25.271   6.450
 9243POPC   D2A61708  20.587  25.256   6.750
 9243POPC   C3A61709  20.585  25.217   7.050
 9243POPC   C4A61710  20.588  25.304   7.350
 9243POPC   C1B61711  20.775  25.100   6.450
 9243POPC   C2B61712  20.772  25.122   6.750
 9243POPC   C3B61713  20.837  25.124   7.050
 9243POPC   C4B61714  20.768  25.114   7.350
 9244POPC   NC361715  44.612  20.633   5.550
 9244POPC   PO461716  44.709  20.617   5.850
 9244POPC   GL161717  44.694  20.592   6.150
 9244POPC   GL261718  44.773  20.479   6.150
 9244POPC   C1A61719  44.704  20.624   6.450
 9244POPC   D2A61720  44.639  20.561   6.750
 9244POPC   C3A61721  44.683  20.648   7.050
 9244POPC   C4A61722  44.679  20.651   7.350
 9244POPC   C1B61723  44.885  20.468   6.450
 9244POPC   C2B61724  44.898  20.397   6.750
 9244POPC   C3B61725  44.876  20.461   7.050
 9244POPC   C4B61726  44.896  20.474   7.350
 9245POPC   NC361727   6.692  13.675   5.550
 9245POPC   PO461728   6.670  13.588   5.850
 9245POPC   GL161729   6.651  13.594   6.150
 9245POPC   GL261730   6.664  13.488   6.150
 9245POPC   C1A61731   6.687  13.676   6.450
 9245POPC   D2A61732   6.675  13.631   6.750
 9245POPC   C3A61733   6.687  13.587   7.050
 9245POPC   C4A61734   6.642  13.666   7.350
 9245POPC   C1B61735   6.609  13.344   6.450
 9245POPC   C2B61736   6.673  13.393   6.750
 9245POPC   C3B61737   6.683  13.410   7.050
 9245POPC   C4B61738   6.612  13.348   7.350
 9246POPC   NC361739   6.618  32.208   5.550
 9246POPC   PO461740   6.654  32.228   5.850
 9246POPC   GL161741   6.601  32.294   6.150
 9246POPC   GL261742   6.757  32.367   6.150
 9246POPC   C1A61743   6.639  32.225   6.450
 9246POPC   D2A61744   6.612  32.200   6.750
 9246POPC   C3A61745   6.651  32.206   7.050
 9246POPC   C4A61746   6.643  32.198   7.350
 9246POPC   C1B61747   6.859  32.441   6.450
 9246POPC   C2B61748   6.824  32.448   6.750
 9246POPC   C3B61749   6.879  32.440   7.050
 9246POPC   C4B61750   6.879  32.450   7.350
 9247POPC   NC361751  17.552  12.073   5.550
 9247POPC   PO461752  17.467  12.084   5.850
 9247POPC   GL161753  17.520  12.112   6.150
 9247POPC   GL261754  17.465  12.160   6.150
 9247POPC   C1A61755  17.481  12.060   6.450
 9247POPC   D2A61756  17.502  12.122   6.750
 9247POPC   C3A61757  17.550  12.063   7.050
 9247POPC   C4A61758  17.505  12.059   7.350
 9247POPC   C1B61759  17.478  12.363   6.450
 9247POPC   C2B61760  17.438  12.338   6.750
 9247POPC   C3B61761  17.460  12.355   7.050
 9247POPC   C4B61762  17.522  12.281   7.350
 9248POPC   NC361763   4.335  38.472   5.550
 9248POPC   PO461764   4.327  38.439   5.850
 9248POPC   GL161765   4.305  38.475   6.150
 9248POPC   GL261766   4.241  38.494   6.150
 9248POPC   C1A61767   4.342  38.456   6.450
 9248POPC   D2A61768   4.365  38.412   6.750
 9248POPC   C3A61769   4.351  38.414   7.050
 9248POPC   C4A61770   4.314  38.411   7.350
 9248POPC   C1B61771   4.094  38.558   6.450
 9248POPC   C2B61772   4.080  38.581   6.750
 9248POPC   C3B61773   4.090  38.597   7.050
 9248POPC   C4B61774   4.091  38.590   7.350
 9249POPC   NC361775  32.270   3.534   5.550
 9249POPC   PO461776  32.217   3.591   5.850
 9249POPC   GL161777  32.256   3.513   6.150
 9249POPC   GL261778  32.360   3.519   6.150
 9249POPC   C1A61779  32.279   3.583   6.450
 9249POPC   D2A61780  32.253   3.537   6.750
 9249POPC   C3A61781  32.281   3.492   7.050
 9249POPC   C4A61782  32.281   3.549   7.350
 9249POPC   C1B61783  32.468   3.562   6.450
 9249POPC   C2B61784  32.476   3.527   6.750
 9249POPC   C3B61785  32.454   3.560   7.050
 9249POPC   C4B61786  32.466   3.544   7.350
 9250POPC   NC361787   0.401  23.674   5.550
 9250POPC   PO461788   0.444  23.730   5.850
 9250POPC   GL161789   0.487  23.761   6.150
 9250POPC   GL261790   0.526  23.577   6.150
 9250POPC   C1A61791   0.394  23.676   6.450
 9250POPC   D2A61792   0.400  23.667   6.750
 9250POPC   C3A61793   0.460  23.700   7.050
 9250POPC   C4A61794   0.423  23.677   7.350
 9250POPC   C1B61795   0.553  23.476   6.450
 9250POPC   C2B61796   0.586  23.483   6.750
 9250POPC   C3B61797   0.518  23.496   7.050
 9250POPC   C4B61798   0.554  23.461   7.350
 9251POPC   NC361799   6.628  21.399   5.550
 9251POPC   PO461800   6.624  21.405   5.850
 9251POPC   GL161801   6.630  21.363   6.150
 9251POPC   GL261802   6.760  21.447   6.150
 9251POPC   C1A61803   6.633  21.400   6.450
 9251POPC   D2A61804   6.617  21.377   6.750
 9251POPC   C3A61805   6.630  21.354   7.050
 9251POPC   C4A61806   6.676  21.414   7.350
 9251POPC   C1B61807   6.848  21.469   6.450
 9251POPC   C2B61808   6.875  21.474   6.750
 9251POPC   C3B61809   6.907  21.455   7.050
 9251POPC   C4B61810   6.884  21.399   7.350
 9252POPC   NC361811  26.829  19.081   5.550
 9252POPC   PO461812  26.807  19.074   5.850
 9252POPC   GL161813  26.806  19.073   6.150
 9252POPC   GL261814  26.807  18.936   6.150
 9252POPC   C1A61815  26.796  19.055   6.450
 9252POPC   D2A61816  26.841  19.058   6.750
 9252POPC   C3A61817  26.802  19.057   7.050
 9252POPC   C4A61818  26.773  19.096   7.350
 9252POPC   C1B61819  26.865  18.804   6.450
 9252POPC   C2B61820  26.909  18.857   6.750
 9252POPC   C3B61821  26.919  18.839   7.050
 9252POPC   C4B61822  26.825  18.814   7.350
 9253POPC   NC361823  18.331  15.161   5.550
 9253POPC   PO461824  18.313  15.217   5.850
 9253POPC   GL161825  18.331  15.227   6.150
 9253POPC   GL261826  18.254  15.347   6.150
 9253POPC   C1A61827  18.281  15.169   6.450
 9253POPC   D2A61828  18.271  15.144   6.750
 9253POPC   C3A61829  18.303  15.150   7.050
 9253POPC   C4A61830  18.275  15.174   7.350
 9253POPC   C1B61831  18.311  15.478   6.450
 9253POPC   C2B61832  18.306  15.452   6.750
 9253POPC   C3B61833  18.303  15.449   7.050
 9253POPC   C4B61834  18.261  15.465   7.350
 9254POPC   NC361835  25.300   2.798   5.550
 9254POPC   PO461836  25.225   2.758   5.850
 9254POPC   GL161837  25.233   2.811   6.150
 9254POPC   GL261838  25.388   2.767   6.150
 9254POPC   C1A61839  25.298   2.769   6.450
 9254POPC   D2A61840  25.283   2.759   6.750
 9254POPC   C3A61841  25.228   2.759   7.050
 9254POPC   C4A61842  25.260   2.734   7.350
 9254POPC   C1B61843  25.482   2.731   6.450
 9254POPC   C2B61844  25.496   2.732   6.750
 9254POPC   C3B61845  25.564   2.756   7.050
 9254POPC   C4B61846  25.506   2.759   7.350
 9255POPC   NC361847  14.413   2.001   5.550
 9255POPC   PO461848  14.424   2.039   5.850
 9255POPC   GL161849  14.357   1.989   6.150
 9255POPC   GL261850  14.460   2.130   6.150
 9255POPC   C1A61851  14.397   2.015   6.450
 9255POPC   D2A61852  14.452   1.974   6.750
 9255POPC   C3A61853  14.404   2.004   7.050
 9255POPC   C4A61854  14.386   1.942   7.350
 9255POPC   C1B61855  14.464   2.208   6.450
 9255POPC   C2B61856  14.470   2.258   6.750
 9255POPC   C3B61857  14.440   2.220   7.050
 9255POPC   C4B61858  14.422   2.254   7.350
 9256POPC   NC361859  18.291  17.553   5.550
 9256POPC   PO461860  18.281  17.520   5.850
 9256POPC   GL161861  18.248  17.522   6.150
 9256POPC   GL261862  18.122  17.505   6.150
 9256POPC   C1A61863  18.277  17.510   6.450
 9256POPC   D2A61864  18.305  17.511   6.750
 9256POPC   C3A61865  18.250  17.473   7.050
 9256POPC   C4A61866  18.262  17.521   7.350
 9256POPC   C1B61867  18.090  17.475   6.450
 9256POPC   C2B61868  18.084  17.417   6.750
 9256POPC   C3B61869  18.009  17.388   7.050
 9256POPC   C4B61870  17.996  17.394   7.350
 9257POPC   NC361871  36.175  38.425   5.550
 9257POPC   PO461872  36.175  38.459   5.850
 9257POPC   GL161873  36.086  38.473   6.150
 9257POPC   GL261874  36.202  38.567   6.150
 9257POPC   C1A61875  36.173  38.418   6.450
 9257POPC   D2A61876  36.103  38.489   6.750
 9257POPC   C3A61877  36.149  38.494   7.050
 9257POPC   C4A61878  36.150  38.473   7.350
 9257POPC   C1B61879  36.184  38.675   6.450
 9257POPC   C2B61880  36.196  38.690   6.750
 9257POPC   C3B61881  36.182  38.715   7.050
 9257POPC   C4B61882  36.234  38.735   7.350
 9258POPC   NC361883  27.605  20.605   5.550
 9258POPC   PO461884  27.639  20.592   5.850
 9258POPC   GL161885  27.557  20.588   6.150
 9258POPC   GL261886  27.529  20.498   6.150
 9258POPC   C1A61887  27.607  20.614   6.450
 9258POPC   D2A61888  27.559  20.577   6.750
 9258POPC   C3A61889  27.603  20.563   7.050
 9258POPC   C4A61890  27.588  20.569   7.350
 9258POPC   C1B61891  27.411  20.440   6.450
 9258POPC   C2B61892  27.354  20.448   6.750
 9258POPC   C3B61893  27.367  20.466   7.050
 9258POPC   C4B61894  27.446  20.428   7.350
 9259POPC   NC361895   8.219  19.843   5.550
 9259POPC   PO461896   8.175  19.842   5.850
 9259POPC   GL161897   8.224  19.882   6.150
 9259POPC   GL261898   8.096  19.833   6.150
 9259POPC   C1A61899   8.207  19.835   6.450
 9259POPC   D2A61900   8.242  19.797   6.750
 9259POPC   C3A61901   8.175  19.817   7.050
 9259POPC   C4A61902   8.212  19.878   7.350
 9259POPC   C1B61903   7.984  19.839   6.450
 9259POPC   C2B61904   7.987  19.900   6.750
 9259POPC   C3B61905   7.909  19.859   7.050
 9259POPC   C4B61906   7.960  19.885   7.350
 9260POPC   NC361907   1.211  10.522   5.550
 9260POPC   PO461908   1.212  10.510   5.850
 9260POPC   GL161909   1.199  10.572   6.150
 9260POPC   GL261910   1.207  10.364   6.150
 9260POPC   C1A61911   1.233  10.497   6.450
 9260POPC   D2A61912   1.234  10.554   6.750
 9260POPC   C3A61913   1.241  10.557   7.050
 9260POPC   C4A61914   1.169  10.493   7.350
 9260POPC   C1B61915   1.229  10.263   6.450
 9260POPC   C2B61916   1.189  10.307   6.750
 9260POPC   C3B61917   1.237  10.310   7.050
 9260POPC   C4B61918   1.217  10.293   7.350
 9261POPC   NC361919  28.385  42.310   5.550
 9261POPC   PO461920  28.347  42.294   5.850
 9261POPC   GL161921  28.378  42.307   6.150
 9261POPC   GL261922  28.361  42.172   6.150
 9261POPC   C1A61923  28.333  42.308   6.450
 9261POPC   D2A61924  28.410  42.326   6.750
 9261POPC   C3A61925  28.358  42.313   7.050
 9261POPC   C4A61926  28.369  42.307   7.350
 9261POPC   C1B61927  28.398  42.089   6.450
 9261POPC   C2B61928  28.455  42.105   6.750
 9261POPC   C3B61929  28.402  42.126   7.050
 9261POPC   C4B61930  28.374  42.063   7.350
 9262POPC   NC361931   6.635  42.311   5.550
 9262POPC   PO461932   6.652  42.376   5.850
 9262POPC   GL161933   6.687  42.356   6.150
 9262POPC   GL261934   6.473  42.309   6.150
 9262POPC   C1A61935   6.640  42.319   6.450
 9262POPC   D2A61936   6.682  42.346   6.750
 9262POPC   C3A61937   6.635  42.311   7.050
 9262POPC   C4A61938   6.596  42.336   7.350
 9262POPC   C1B61939   6.410  42.282   6.450
 9262POPC   C2B61940   6.356  42.286   6.750
 9262POPC   C3B61941   6.400  42.348   7.050
 9262POPC   C4B61942   6.393  42.280   7.350
 9263POPC   NC361943  37.658  38.500   5.550
 9263POPC   PO461944  37.648  38.435   5.850
 9263POPC   GL161945  37.687  38.487   6.150
 9263POPC   GL261946  37.799  38.552   6.150
 9263POPC   C1A61947  37.695  38.436   6.450
 9263POPC   D2A61948  37.673  38.440   6.750
 9263POPC   C3A61949  37.664  38.485   7.050
 9263POPC   C4A61950  37.679  38.426   7.350
 9263POPC   C1B61951  37.859  38.591   6.450
 9263POPC   C2B61952  37.822  38.672   6.750
 9263POPC   C3B61953  37.849  38.619   7.050
 9263POPC   C4B61954  37.860  38.682   7.350
 9264POPC   NC361955  26.826  17.468   5.550
 9264POPC   PO461956  26.857  17.509   5.850
 9264POPC   GL161957  26.796  17.532   6.150
 9264POPC   GL261958  26.751  17.441   6.150
 9264POPC   C1A61959  26.794  17.534   6.450
 9264POPC   D2A61960  26.815  17.470   6.750
 9264POPC   C3A61961  26.858  17.534   7.050
 9264POPC   C4A61962  26.809  17.523   7.350
 9264POPC   C1B61963  26.596  17.367   6.450
 9264POPC   C2B61964  26.623  17.355   6.750
 9264POPC   C3B61965  26.610  17.339   7.050
 9264POPC   C4B61966  26.553  17.422   7.350
 9265POPC   NC361967  44.687  15.915   5.550
 9265POPC   PO461968  44.653  15.992   5.850
 9265POPC   GL161969  44.639  16.001   6.150
 9265POPC   GL261970  44.539  15.819   6.150
 9265POPC   C1A61971  44.650  15.983   6.450
 9265POPC   D2A61972  44.710  15.984   6.750
 9265POPC   C3A61973  44.631  15.954   7.050
 9265POPC   C4A61974  44.651  15.919   7.350
 9265POPC   C1B61975  44.469  15.735   6.450
 9265POPC   C2B61976  44.539  15.763   6.750
 9265POPC   C3B61977  44.482  15.753   7.050
 9265POPC   C4B61978  44.543  15.787   7.350
 9266POPC   NC361979  29.902  29.131   5.550
 9266POPC   PO461980  29.889  29.179   5.850
 9266POPC   GL161981  29.905  29.121   6.150
 9266POPC   GL261982  29.951  29.062   6.150
 9266POPC   C1A61983  29.947  29.121   6.450
 9266POPC   D2A61984  29.959  29.153   6.750
 9266POPC   C3A61985  29.926  29.152   7.050
 9266POPC   C4A61986  29.947  29.186   7.350
 9266POPC   C1B61987  30.038  28.944   6.450
 9266POPC   C2B61988  30.080  28.933   6.750
 9266POPC   C3B61989  30.087  28.976   7.050
 9266POPC   C4B61990  30.064  28.942   7.350
 9267POPC   NC361991  28.416   1.207   5.550
 9267POPC   PO461992  28.393   1.196   5.850
 9267POPC   GL161993  28.361   1.226   6.150
 9267POPC   GL261994  28.443   1.120   6.150
 9267POPC   C1A61995  28.338   1.239   6.450
 9267POPC   D2A61996  28.370   1.195   6.750
 9267POPC   C3A61997  28.400   1.217   7.050
 9267POPC   C4A61998  28.363   1.234   7.350
 9267POPC   C1B61999  28.522   0.970   6.450
 9267POPC   C2B62000  28.443   0.950   6.750
 9267POPC   C3B62001  28.498   0.999   7.050
 9267POPC   C4B62002  28.471   1.011   7.350
 9268POPC   NC362003   3.512  22.120   5.550
 9268POPC   PO462004   3.565  22.191   5.850
 9268POPC   GL162005   3.522  22.182   6.150
 9268POPC   GL262006   3.530  22.247   6.150
 9268POPC   C1A62007   3.535  22.140   6.450
 9268POPC   D2A62008   3.510  22.201   6.750
 9268POPC   C3A62009   3.510  22.207   7.050
 9268POPC   C4A62010   3.560  22.154   7.350
 9268POPC   C1B62011   3.581  22.445   6.450
 9268POPC   C2B62012   3.613  22.428   6.750
 9268POPC   C3B62013   3.536  22.362   7.050
 9268POPC   C4B62014   3.609  22.452   7.350
 9269POPC   NC362015  26.847  23.698   5.550
 9269POPC   PO462016  26.809  23.729   5.850
 9269POPC   GL162017  26.784  23.738   6.150
 9269POPC   GL262018  26.844  23.798   6.150
 9269POPC   C1A62019  26.860  23.748   6.450
 9269POPC   D2A62020  26.822  23.756   6.750
 9269POPC   C3A62021  26.866  23.720   7.050
 9269POPC   C4A62022  26.837  23.692   7.350
 9269POPC   C1B62023  26.875  23.999   6.450
 9269POPC   C2B62024  26.870  23.982   6.750
 9269POPC   C3B62025  26.834  23.924   7.050
 9269POPC   C4B62026  26.848  23.938   7.350
 9270POPC   NC362027  43.149  22.914   5.550
 9270POPC   PO462028  43.088  22.960   5.850
 9270POPC   GL162029  43.137  22.978   6.150
 9270POPC   GL262030  43.236  23.061   6.150
 9270POPC   C1A62031  43.065  22.961   6.450
 9270POPC   D2A62032  43.128  22.920   6.750
 9270POPC   C3A62033  43.094  22.963   7.050
 9270POPC   C4A62034  43.109  22.907   7.350
 9270POPC   C1B62035  43.288  23.156   6.450
 9270POPC   C2B62036  43.328  23.151   6.750
 9270POPC   C3B62037  43.331  23.106   7.050
 9270POPC   C4B62038  43.286  23.083   7.350
 9271POPC   NC362039  18.285  44.667   5.550
 9271POPC   PO462040  18.241  44.654   5.850
 9271POPC   GL162041  18.249  44.652   6.150
 9271POPC   GL262042  18.213  44.666   6.150
 9271POPC   C1A62043  18.292  44.619   6.450
 9271POPC   D2A62044  18.325  44.688   6.750
 9271POPC   C3A62045  18.288  44.615   7.050
 9271POPC   C4A62046  18.283  44.687   7.350
 9271POPC   C1B62047  18.093  44.554   6.450
 9271POPC   C2B62048  18.026  44.536   6.750
 9271POPC   C3B62049  18.071  44.562   7.050
 9271POPC   C4B62050  18.085  44.557   7.350
 9272POPC   NC362051   0.436  22.906   5.550
 9272POPC   PO462052   0.478  22.935   5.850
 9272POPC   GL162053   0.411  22.929   6.150
 9272POPC   GL262054   0.385  23.081   6.150
 9272POPC   C1A62055   0.455  22.900   6.450
 9272POPC   D2A62056   0.407  22.902   6.750
 9272POPC   C3A62057   0.391  22.945   7.050
 9272POPC   C4A62058   0.440  22.931   7.350
 9272POPC   C1B62059   0.273  23.118   6.450
 9272POPC   C2B62060   0.351  23.117   6.750
 9272POPC   C3B62061   0.300  23.197   7.050
 9272POPC   C4B62062   0.289  23.196   7.350
 9273POPC   NC362063  15.944   1.233   5.550
 9273POPC   PO462064  15.991   1.243   5.850
 9273POPC   GL162065  15.992   1.211   6.150
 9273POPC   GL262066  16.085   1.276   6.150
 9273POPC   C1A62067  15.983   1.240   6.450
 9273POPC   D2A62068  15.960   1.204   6.750
 9273POPC   C3A62069  15.953   1.201   7.050
 9273POPC   C4A62070  15.942   1.171   7.350
 9273POPC   C1B62071  16.200   1.261   6.450
 9273POPC   C2B62072  16.227   1.282   6.750
 9273POPC   C3B62073  16.193   1.266   7.050
 9273POPC   C4B62074  16.196   1.300   7.350
 9274POPC   NC362075  16.710  27.602   5.550
 9274POPC   PO462076  16.702  27.600   5.850
 9274POPC   GL162077  16.735  27.569   6.150
 9274POPC   GL262078  16.674  27.741   6.150
 9274POPC   C1A62079  16.684  27.629   6.450
 9274POPC   D2A62080  16.755  27.582   6.750
 9274POPC   C3A62081  16.703  27.642   7.050
 9274POPC   C4A62082  16.732  27.551   7.350
 9274POPC   C1B62083  16.669  27.788   6.450
 9274POPC   C2B62084  16.590  27.816   6.750
 9274POPC   C3B62085  16.604  27.855   7.050
 9274POPC   C4B62086  16.614  27.776   7.350
 9275POPC   NC362087  43.887   7.378   5.550
 9275POPC   PO462088  43.845   7.470   5.850
 9275POPC   GL162089  43.842   7.446   6.150
 9275POPC   GL262090  43.994   7.515   6.150
 9275POPC   C1A62091  43.838   7.463   6.450
 9275POPC   D2A62092  43.896   7.417   6.750
 9275POPC   C3A62093  43.895   7.391   7.050
 9275POPC   C4A62094  43.931   7.394   7.350
 9275POPC   C1B62095  44.061   7.622   6.450
 9275POPC   C2B62096  44.037   7.636   6.750
 9275POPC   C3B62097  44.073   7.655   7.050
 9275POPC   C4B62098  44.018   7.629   7.350
 9276POPC   NC362099  34.614  19.828   5.550
 9276POPC   PO462100  34.576  19.815   5.850
 9276POPC   GL162101  34.594  19.797   6.150
 9276POPC   GL262102  34.678  19.924   6.150
 9276POPC   C1A62103  34.533  19.823   6.450
 9276POPC   D2A62104  34.600  19.817   6.750
 9276POPC   C3A62105  34.560  19.823   7.050
 9276POPC   C4A62106  34.583  19.838   7.350
 9276POPC   C1B62107  34.713  20.042   6.450
 9276POPC   C2B62108  34.738  20.004   6.750
 9276POPC   C3B62109  34.790  20.053   7.050
 9276POPC   C4B62110  34.720  19.983   7.350
 9277POPC   NC362111   4.304   7.454   5.550
 9277POPC   PO462112   4.312   7.459   5.850
 9277POPC   GL162113   4.318   7.458   6.150
 9277POPC   GL262114   4.372   7.322   6.150
 9277POPC   C1A62115   4.283   7.371   6.450
 9277POPC   D2A62116   4.309   7.393   6.750
 9277POPC   C3A62117   4.269   7.424   7.050
 9277POPC   C4A62118   4.338   7.376   7.350
 9277POPC   C1B62119   4.401   7.203   6.450
 9277POPC   C2B62120   4.423   7.225   6.750
 9277POPC   C3B62121   4.372   7.188   7.050
 9277POPC   C4B62122   4.394   7.195   7.350
 9278POPC   NC362123  17.519  19.788   5.550
 9278POPC   PO462124  17.481  19.826   5.850
 9278POPC   GL162125  17.487  19.841   6.150
 9278POPC   GL262126  17.500  19.948   6.150
 9278POPC   C1A62127  17.498  19.789   6.450
 9278POPC   D2A62128  17.469  19.815   6.750
 9278POPC   C3A62129  17.478  19.859   7.050
 9278POPC   C4A62130  17.473  19.804   7.350
 9278POPC   C1B62131  17.595  20.021   6.450
 9278POPC   C2B62132  17.555  20.083   6.750
 9278POPC   C3B62133  17.633  20.089   7.050
 9278POPC   C4B62134  17.576  20.097   7.350
 9279POPC   NC362135  15.154  40.031   5.550
 9279POPC   PO462136  15.176  39.969   5.850
 9279POPC   GL162137  15.208  40.033   6.150
 9279POPC   GL262138  15.062  40.003   6.150
 9279POPC   C1A62139  15.205  40.031   6.450
 9279POPC   D2A62140  15.163  40.034   6.750
 9279POPC   C3A62141  15.164  39.975   7.050
 9279POPC   C4A62142  15.142  39.993   7.350
 9279POPC   C1B62143  14.970  40.028   6.450
 9279POPC   C2B62144  14.935  39.981   6.750
 9279POPC   C3B62145  14.913  40.028   7.050
 9279POPC   C4B62146  14.929  39.979   7.350
 9280POPC   NC362147  23.733  43.146   5.550
 9280POPC   PO462148  23.676  43.090   5.850
 9280POPC   GL162149  23.755  43.109   6.150
 9280POPC   GL262150  23.769  42.989   6.150
 9280POPC   C1A62151  23.680  43.106   6.450
 9280POPC   D2A62152  23.697  43.106   6.750
 9280POPC   C3A62153  23.693  43.061   7.050
 9280POPC   C4A62154  23.708  43.087   7.350
 9280POPC   C1B62155  23.776  42.878   6.450
 9280POPC   C2B62156  23.699  42.863   6.750
 9280POPC   C3B62157  23.783  42.834   7.050
 9280POPC   C4B62158  23.790  42.887   7.350
 9281POPC   NC362159  28.361   5.047   5.550
 9281POPC   PO462160  28.382   5.065   5.850
 9281POPC   GL162161  28.409   5.120   6.150
 9281POPC   GL262162  28.294   5.061   6.150
 9281POPC   C1A62163  28.329   5.115   6.450
 9281POPC   D2A62164  28.384   5.113   6.750
 9281POPC   C3A62165  28.390   5.068   7.050
 9281POPC   C4A62166  28.353   5.130   7.350
 9281POPC   C1B62167  28.086   5.003   6.450
 9281POPC   C2B62168  28.155   5.013   6.750
 9281POPC   C3B62169  28.149   5.012   7.050
 9281POPC   C4B62170  28.178   5.045   7.350
 9282POPC   NC362171   3.525  30.648   5.550
 9282POPC   PO462172   3.539  30.715   5.850
 9282POPC   GL162173   3.515  30.739   6.150
 9282POPC   GL262174   3.552  30.802   6.150
 9282POPC   C1A62175   3.501  30.697   6.450
 9282POPC   D2A62176   3.542  30.704   6.750
 9282POPC   C3A62177   3.536  30.680   7.050
 9282POPC   C4A62178   3.563  30.698   7.350
 9282POPC   C1B62179   3.502  30.901   6.450
 9282POPC   C2B62180   3.485  30.978   6.750
 9282POPC   C3B62181   3.522  30.971   7.050
 9282POPC   C4B62182   3.534  30.951   7.350
 9283POPC   NC362183   4.316  43.093   5.550
 9283POPC   PO462184   4.285  43.137   5.850
 9283POPC   GL162185   4.363  43.156   6.150
 9283POPC   GL262186   4.306  43.197   6.150
 9283POPC   C1A62187   4.268  43.126   6.450
 9283POPC   D2A62188   4.359  43.094   6.750
 9283POPC   C3A62189   4.294  43.070   7.050
 9283POPC   C4A62190   4.316  43.121   7.350
 9283POPC   C1B62191   4.274  43.364   6.450
 9283POPC   C2B62192   4.237  43.387   6.750
 9283POPC   C3B62193   4.241  43.325   7.050
 9283POPC   C4B62194   4.240  43.348   7.350
 9284POPC   NC362195  17.488   0.467   5.550
 9284POPC   PO462196  17.514   0.392   5.850
 9284POPC   GL162197  17.471   0.481   6.150
 9284POPC   GL262198  17.399   0.482   6.150
 9284POPC   C1A62199  17.475   0.426   6.450
 9284POPC   D2A62200  17.500   0.438   6.750
 9284POPC   C3A62201  17.477   0.470   7.050
 9284POPC   C4A62202  17.458   0.424   7.350
 9284POPC   C1B62203  17.268   0.491   6.450
 9284POPC   C2B62204  17.297   0.470   6.750
 9284POPC   C3B62205  17.248   0.554   7.050
 9284POPC   C4B62206  17.226   0.481   7.350
 9285POPC   NC362207  38.449   5.824   5.550
 9285POPC   PO462208  38.481   5.857   5.850
 9285POPC   GL162209  38.488   5.857   6.150
 9285POPC   GL262210  38.344   5.943   6.150
 9285POPC   C1A62211  38.472   5.908   6.450
 9285POPC   D2A62212  38.442   5.861   6.750
 9285POPC   C3A62213  38.492   5.842   7.050
 9285POPC   C4A62214  38.482   5.861   7.350
 9285POPC   C1B62215  38.374   6.107   6.450
 9285POPC   C2B62216  38.349   6.097   6.750
 9285POPC   C3B62217  38.373   6.056   7.050
 9285POPC   C4B62218  38.306   6.051   7.350
 9286POPC   NC362219  19.100  12.831   5.550
 9286POPC   PO462220  19.104  12.843   5.850
 9286POPC   GL162221  19.086  12.823   6.150
 9286POPC   GL262222  19.012  12.772   6.150
 9286POPC   C1A62223  19.055  12.802   6.450
 9286POPC   D2A62224  19.036  12.892   6.750
 9286POPC   C3A62225  19.070  12.857   7.050
 9286POPC   C4A62226  19.033  12.897   7.350
 9286POPC   C1B62227  18.911  12.641   6.450
 9286POPC   C2B62228  18.945  12.617   6.750
 9286POPC   C3B62229  18.935  12.640   7.050
 9286POPC   C4B62230  18.942  12.628   7.350
 9287POPC   NC362231  24.454  23.689   5.550
 9287POPC   PO462232  24.534  23.728   5.850
 9287POPC   GL162233  24.448  23.754   6.150
 9287POPC   GL262234  24.536  23.568   6.150
 9287POPC   C1A62235  24.510  23.711   6.450
 9287POPC   D2A62236  24.534  23.707   6.750
 9287POPC   C3A62237  24.496  23.709   7.050
 9287POPC   C4A62238  24.507  23.733   7.350
 9287POPC   C1B62239  24.603  23.441   6.450
 9287POPC   C2B62240  24.564  23.520   6.750
 9287POPC   C3B62241  24.585  23.529   7.050
 9287POPC   C4B62242  24.635  23.482   7.350
 9288POPC   NC362243   0.473  43.921   5.550
 9288POPC   PO462244   0.434  43.896   5.850
 9288POPC   GL162245   0.488  43.855   6.150
 9288POPC   GL262246   0.468  44.050   6.150
 9288POPC   C1A62247   0.486  43.884   6.450
 9288POPC   D2A62248   0.408  43.842   6.750
 9288POPC   C3A62249   0.456  43.929   7.050
 9288POPC   C4A62250   0.410  43.877   7.350
 9288POPC   C1B62251   0.503  44.114   6.450
 9288POPC   C2B62252   0.503  44.133   6.750
 9288POPC   C3B62253   0.483  44.105   7.050
 9288POPC   C4B62254   0.520  44.133   7.350
 9289POPC   NC362255  37.679  12.879   5.550
 9289POPC   PO462256  37.709  12.868   5.850
 9289POPC   GL162257  37.671  12.836   6.150
 9289POPC   GL262258  37.740  12.987   6.150
 9289POPC   C1A62259  37.706  12.901   6.450
 9289POPC   D2A62260  37.641  12.847   6.750
 9289POPC   C3A62261  37.695  12.871   7.050
 9289POPC   C4A62262  37.715  12.881   7.350
 9289POPC   C1B62263  37.742  13.065   6.450
 9289POPC   C2B62264  37.727  13.105   6.750
 9289POPC   C3B62265  37.700  13.122   7.050
 9289POPC   C4B62266  37.736  13.131   7.350
 9290POPC   NC362267   4.283  15.192   5.550
 9290POPC   PO462268   4.347  15.185   5.850
 9290POPC   GL162269   4.290  15.174   6.150
 9290POPC   GL262270   4.202  15.298   6.150
 9290POPC   C1A62271   4.281  15.210   6.450
 9290POPC   D2A62272   4.308  15.183   6.750
 9290POPC   C3A62273   4.287  15.225   7.050
 9290POPC   C4A62274   4.344  15.180   7.350
 9290POPC   C1B62275   4.138  15.425   6.450
 9290POPC   C2B62276   4.175  15.384   6.750
 9290POPC   C3B62277   4.156  15.367   7.050
 9290POPC   C4B62278   4.181  15.399   7.350
 9291POPC   NC362279  18.281  41.546   5.550
 9291POPC   PO462280  18.263  41.597   5.850
 9291POPC   GL162281  18.304  41.516   6.150
 9291POPC   GL262282  18.187  41.483   6.150
 9291POPC   C1A62283  18.303  41.541   6.450
 9291POPC   D2A62284  18.323  41.562   6.750
 9291POPC   C3A62285  18.294  41.546   7.050
 9291POPC   C4A62286  18.282  41.518   7.350
 9291POPC   C1B62287  18.189  41.363   6.450
 9291POPC   C2B62288  18.145  41.292   6.750
 9291POPC   C3B62289  18.164  41.303   7.050
 9291POPC   C4B62290  18.235  41.346   7.350
 9292POPC   NC362291  29.962   3.530   5.550
 9292POPC   PO462292  29.946   3.512   5.850
 9292POPC   GL162293  29.915   3.511   6.150
 9292POPC   GL262294  30.086   3.478   6.150
 9292POPC   C1A62295  29.958   3.554   6.450
 9292POPC   D2A62296  29.958   3.577   6.750
 9292POPC   C3A62297  29.970   3.589   7.050
 9292POPC   C4A62298  29.915   3.562   7.350
 9292POPC   C1B62299  30.147   3.457   6.450
 9292POPC   C2B62300  30.127   3.454   6.750
 9292POPC   C3B62301  30.175   3.459   7.050
 9292POPC   C4B62302  30.126   3.450   7.350
 9293POPC   NC362303   2.743  38.468   5.550
 9293POPC   PO462304   2.774  38.460   5.850
 9293POPC   GL162305   2.759  38.433   6.150
 9293POPC   GL262306   2.661  38.533   6.150
 9293POPC   C1A62307   2.796  38.469   6.450
 9293POPC   D2A62308   2.762  38.472   6.750
 9293POPC   C3A62309   2.774  38.505   7.050
 9293POPC   C4A62310   2.736  38.466   7.350
 9293POPC   C1B62311   2.671  38.662   6.450
 9293POPC   C2B62312   2.610  38.619   6.750
 9293POPC   C3B62313   2.614  38.709   7.050
 9293POPC   C4B62314   2.654  38.617   7.350
 9294POPC   NC362315  42.382  11.289   5.550
 9294POPC   PO462316  42.349  11.319   5.850
 9294POPC   GL162317  42.329  11.338   6.150
 9294POPC   GL262318  42.285  11.424   6.150
 9294POPC   C1A62319  42.286  11.339   6.450
 9294POPC   D2A62320  42.360  11.254   6.750
 9294POPC   C3A62321  42.359  11.266   7.050
 9294POPC   C4A62322  42.346  11.326   7.350
 9294POPC   C1B62323  42.271  11.538   6.450
 9294POPC   C2B62324  42.276  11.553   6.750
 9294POPC   C3B62325  42.287  11.566   7.050
 9294POPC   C4B62326  42.273  11.498   7.350
 9295POPC   NC362327  43.090   0.410   5.550
 9295POPC   PO462328  43.118   0.445   5.850
 9295POPC   GL162329  43.145   0.436   6.150
 9295POPC   GL262330  43.093   0.365   6.150
 9295POPC   C1A62331  43.155   0.480   6.450
 9295POPC   D2A62332  43.108   0.480   6.750
 9295POPC   C3A62333  43.087   0.439   7.050
 9295POPC   C4A62334  43.144   0.455   7.350
 9295POPC   C1B62335  42.972   0.208   6.450
 9295POPC   C2B62336  43.058   0.206   6.750
 9295POPC   C3B62337  43.006   0.172   7.050
 9295POPC   C4B62338  42.988   0.208   7.350
 9296POPC   NC362339  43.127  15.949   5.550
 9296POPC   PO462340  43.104  15.971   5.850
 9296POPC   GL162341  43.064  15.934   6.150
 9296POPC   GL262342  43.035  16.106   6.150
 9296POPC   C1A62343  43.070  15.942   6.450
 9296POPC   D2A62344  43.070  15.973   6.750
 9296POPC   C3A62345  43.145  16.003   7.050
 9296POPC   C4A62346  43.090  15.907   7.350
 9296POPC   C1B62347  43.070  16.152   6.450
 9296POPC   C2B62348  43.038  16.223   6.750
 9296POPC   C3B62349  42.990  16.149   7.050
 9296POPC   C4B62350  43.046  16.228   7.350
 9297POPC   NC362351   6.669  20.582   5.550
 9297POPC   PO462352   6.596  20.632   5.850
 9297POPC   GL162353   6.684  20.561   6.150
 9297POPC   GL262354   6.523  20.572   6.150
 9297POPC   C1A62355   6.685  20.591   6.450
 9297POPC   D2A62356   6.616  20.609   6.750
 9297POPC   C3A62357   6.647  20.584   7.050
 9297POPC   C4A62358   6.605  20.596   7.350
 9297POPC   C1B62359   6.408  20.521   6.450
 9297POPC   C2B62360   6.415  20.514   6.750
 9297POPC   C3B62361   6.390  20.553   7.050
 9297POPC   C4B62362   6.414  20.562   7.350
 9298POPC   NC362363   8.970  25.314   5.550
 9298POPC   PO462364   8.959  25.240   5.850
 9298POPC   GL162365   8.944  25.241   6.150
 9298POPC   GL262366   8.860  25.330   6.150
 9298POPC   C1A62367   8.959  25.279   6.450
 9298POPC   D2A62368   8.943  25.243   6.750
 9298POPC   C3A62369   9.010  25.219   7.050
 9298POPC   C4A62370   8.965  25.250   7.350
 9298POPC   C1B62371   8.741  25.346   6.450
 9298POPC   C2B62372   8.765  25.344   6.750
 9298POPC   C3B62373   8.790  25.420   7.050
 9298POPC   C4B62374   8.733  25.431   7.350
 9299POPC   NC362375  11.295  19.832   5.550
 9299POPC   PO462376  11.298  19.855   5.850
 9299POPC   GL162377  11.325  19.859   6.150
 9299POPC   GL262378  11.202  19.797   6.150
 9299POPC   C1A62379  11.269  19.823   6.450
 9299POPC   D2A62380  11.333  19.829   6.750
 9299POPC   C3A62381  11.322  19.794   7.050
 9299POPC   C4A62382  11.299  19.871   7.350
 9299POPC   C1B62383  11.033  19.729   6.450
 9299POPC   C2B62384  11.034  19.721   6.750
 9299POPC   C3B62385  11.083  19.718   7.050
 9299POPC   C4B62386  11.056  19.805   7.350
 9300POPC   NC362387   8.153  29.163   5.550
 9300POPC   PO462388   8.182  29.115   5.850
 9300POPC   GL162389   8.222  29.179   6.150
 9300POPC   GL262390   8.274  29.154   6.150
 9300POPC   C1A62391   8.183  29.106   6.450
 9300POPC   D2A62392   8.161  29.181   6.750
 9300POPC   C3A62393   8.235  29.168   7.050
 9300POPC   C4A62394   8.154  29.148   7.350
 9300POPC   C1B62395   8.409  29.161   6.450
 9300POPC   C2B62396   8.430  29.137   6.750
 9300POPC   C3B62397   8.436  29.146   7.050
 9300POPC   C4B62398   8.439  29.127   7.350
 9301POPC   NC362399  42.291  21.402   5.550
 9301POPC   PO462400  42.371  21.388   5.850
 9301POPC   GL162401  42.343  21.377   6.150
 9301POPC   GL262402  42.444  21.285   6.150
 9301POPC   C1A62403  42.379  21.413   6.450
 9301POPC   D2A62404  42.361  21.340   6.750
 9301POPC   C3A62405  42.332  21.389   7.050
 9301POPC   C4A62406  42.373  21.345   7.350
 9301POPC   C1B62407  42.564  21.223   6.450
 9301POPC   C2B62408  42.528  21.178   6.750
 9301POPC   C3B62409  42.572  21.205   7.050
 9301POPC   C4B62410  42.477  21.258   7.350
 9302POPC   NC362411  27.546   9.789   5.550
 9302POPC   PO462412  27.577   9.723   5.850
 9302POPC   GL162413  27.606   9.747   6.150
 9302POPC   GL262414  27.684   9.820   6.150
 9302POPC   C1A62415  27.559   9.711   6.450
 9302POPC   D2A62416  27.570   9.745   6.750
 9302POPC   C3A62417  27.548   9.763   7.050
 9302POPC   C4A62418  27.600   9.738   7.350
 9302POPC   C1B62419  27.782   9.864   6.450
 9302POPC   C2B62420  27.776   9.867   6.750
 9302POPC   C3B62421  27.848   9.818   7.050
 9302POPC   C4B62422  27.812   9.893   7.350
 9303POPC   NC362423   3.552  40.754   5.550
 9303POPC   PO462424   3.513  40.798   5.850
 9303POPC   GL162425   3.583  40.779   6.150
 9303POPC   GL262426   3.414  40.785   6.150
 9303POPC   C1A62427   3.572  40.756   6.450
 9303POPC   D2A62428   3.576  40.738   6.750
 9303POPC   C3A62429   3.529  40.787   7.050
 9303POPC   C4A62430   3.523  40.738   7.350
 9303POPC   C1B62431   3.302  40.794   6.450
 9303POPC   C2B62432   3.257  40.784   6.750
 9303POPC   C3B62433   3.253  40.848   7.050
 9303POPC   C4B62434   3.306  40.840   7.350
 9304POPC   NC362435   2.724  18.304   5.550
 9304POPC   PO462436   2.731  18.273   5.850
 9304POPC   GL162437   2.780  18.258   6.150
 9304POPC   GL262438   2.597  18.274   6.150
 9304POPC   C1A62439   2.716  18.262   6.450
 9304POPC   D2A62440   2.784  18.275   6.750
 9304POPC   C3A62441   2.751  18.249   7.050
 9304POPC   C4A62442   2.797  18.314   7.350
 9304POPC   C1B62443   2.508  18.215   6.450
 9304POPC   C2B62444   2.508  18.280   6.750
 9304POPC   C3B62445   2.474  18.205   7.050
 9304POPC   C4B62446   2.498  18.225   7.350
 9305POPC   NC362447  16.003  41.543   5.550
 9305POPC   PO462448  15.915  41.548   5.850
 9305POPC   GL162449  16.001  41.572   6.150
 9305POPC   GL262450  15.807  41.495   6.150
 9305POPC   C1A62451  16.003  41.591   6.450
 9305POPC   D2A62452  15.940  41.577   6.750
 9305POPC   C3A62453  16.005  41.515   7.050
 9305POPC   C4A62454  15.915  41.552   7.350
 9305POPC   C1B62455  15.699  41.461   6.450
 9305POPC   C2B62456  15.741  41.469   6.750
 9305POPC   C3B62457  15.757  41.470   7.050
 9305POPC   C4B62458  15.759  41.485   7.350
 9306POPC   NC362459  28.348  22.913   5.550
 9306POPC   PO462460  28.402  22.972   5.850
 9306POPC   GL162461  28.351  22.985   6.150
 9306POPC   GL262462  28.482  22.878   6.150
 9306POPC   C1A62463  28.377  22.899   6.450
 9306POPC   D2A62464  28.355  22.910   6.750
 9306POPC   C3A62465  28.373  22.913   7.050
 9306POPC   C4A62466  28.411  22.959   7.350
 9306POPC   C1B62467  28.527  22.736   6.450
 9306POPC   C2B62468  28.531  22.814   6.750
 9306POPC   C3B62469  28.565  22.801   7.050
 9306POPC   C4B62470  28.585  22.812   7.350
 9307POPC   NC362471  19.804  19.801   5.550
 9307POPC   PO462472  19.884  19.841   5.850
 9307POPC   GL162473  19.844  19.833   6.150
 9307POPC   GL262474  19.865  19.749   6.150
 9307POPC   C1A62475  19.786  19.824   6.450
 9307POPC   D2A62476  19.847  19.876   6.750
 9307POPC   C3A62477  19.829  19.799   7.050
 9307POPC   C4A62478  19.841  19.841   7.350
 9307POPC   C1B62479  19.881  19.563   6.450
 9307POPC   C2B62480  19.827  19.544   6.750
 9307POPC   C3B62481  19.919  19.573   7.050
 9307POPC   C4B62482  19.903  19.557   7.350
 9308POPC   NC362483  15.144  29.894   5.550
 9308POPC   PO462484  15.141  29.908   5.850
 9308POPC   GL162485  15.184  29.966   6.150
 9308POPC   GL262486  15.253  29.923   6.150
 9308POPC   C1A62487  15.182  29.892   6.450
 9308POPC   D2A62488  15.228  29.927   6.750
 9308POPC   C3A62489  15.165  29.950   7.050
 9308POPC   C4A62490  15.175  29.894   7.350
 9308POPC   C1B62491  15.434  30.047   6.450
 9308POPC   C2B62492  15.456  29.996   6.750
 9308POPC   C3B62493  15.429  29.995   7.050
 9308POPC   C4B62494  15.440  30.019   7.350
 9309POPC   NC362495  32.243  32.237   5.550
 9309POPC   PO462496  32.218  32.285   5.850
 9309POPC   GL162497  32.240  32.231   6.150
 9309POPC   GL262498  32.204  32.420   6.150
 9309POPC   C1A62499  32.204  32.259   6.450
 9309POPC   D2A62500  32.286  32.218   6.750
 9309POPC   C3A62501  32.243  32.233   7.050
 9309POPC   C4A62502  32.234  32.271   7.350
 9309POPC   C1B62503  32.212  32.530   6.450
 9309POPC   C2B62504  32.227  32.455   6.750
 9309POPC   C3B62505  32.273  32.501   7.050
 9309POPC   C4B62506  32.207  32.503   7.350
 9310POPC   NC362507  29.097   8.195   5.550
 9310POPC   PO462508  29.116   8.154   5.850
 9310POPC   GL162509  29.118   8.237   6.150
 9310POPC   GL262510  29.040   8.264   6.150
 9310POPC   C1A62511  29.098   8.245   6.450
 9310POPC   D2A62512  29.176   8.211   6.750
 9310POPC   C3A62513  29.133   8.207   7.050
 9310POPC   C4A62514  29.121   8.187   7.350
 9310POPC   C1B62515  29.015   8.344   6.450
 9310POPC   C2B62516  28.949   8.419   6.750
 9310POPC   C3B62517  28.938   8.388   7.050
 9310POPC   C4B62518  28.986   8.334   7.350
 9311POPC   NC362519  33.006  22.906   5.550
 9311POPC   PO462520  33.021  22.905   5.850
 9311POPC   GL162521  33.053  22.895   6.150
 9311POPC   GL262522  33.006  22.868   6.150
 9311POPC   C1A62523  33.032  22.964   6.450
 9311POPC   D2A62524  32.993  22.963   6.750
 9311POPC   C3A62525  33.018  22.979   7.050
 9311POPC   C4A62526  32.979  22.984   7.350
 9311POPC   C1B62527  32.881  22.751   6.450
 9311POPC   C2B62528  32.915  22.669   6.750
 9311POPC   C3B62529  32.941  22.700   7.050
 9311POPC   C4B62530  32.863  22.707   7.350
 9312POPC   NC362531   4.356   9.797   5.550
 9312POPC   PO462532   4.339   9.768   5.850
 9312POPC   GL162533   4.322   9.764   6.150
 9312POPC   GL262534   4.342   9.657   6.150
 9312POPC   C1A62535   4.281   9.797   6.450
 9312POPC   D2A62536   4.330   9.736   6.750
 9312POPC   C3A62537   4.282   9.736   7.050
 9312POPC   C4A62538   4.283   9.721   7.350
 9312POPC   C1B62539   4.410   9.503   6.450
 9312POPC   C2B62540   4.445   9.510   6.750
 9312POPC   C3B62541   4.447   9.504   7.050
 9312POPC   C4B62542   4.387   9.485   7.350
 9313POPC   NC362543   6.598  32.992   5.550
 9313POPC   PO462544   6.664  33.053   5.850
 9313POPC   GL162545   6.693  33.045   6.150
 9313POPC   GL262546   6.709  32.869   6.150
 9313POPC   C1A62547   6.638  33.005   6.450
 9313POPC   D2A62548   6.598  33.044   6.750
 9313POPC   C3A62549   6.694  33.003   7.050
 9313POPC   C4A62550   6.684  33.030   7.350
 9313POPC   C1B62551   6.751  32.813   6.450
 9313POPC   C2B62552   6.754  32.816   6.750
 9313POPC   C3B62553   6.735  32.774   7.050
 9313POPC   C4B62554   6.762  32.817   7.350
 9314POPC   NC362555  35.352  43.127   5.550
 9314POPC   PO462556  35.333  43.138   5.850
 9314POPC   GL162557  35.386  43.105   6.150
 9314POPC   GL262558  35.484  43.066   6.150
 9314POPC   C1A62559  35.345  43.108   6.450
 9314POPC   D2A62560  35.332  43.074   6.750
 9314POPC   C3A62561  35.303  43.074   7.050
 9314POPC   C4A62562  35.400  43.117   7.350
 9314POPC   C1B62563  35.596  43.086   6.450
 9314POPC   C2B62564  35.557  43.076   6.750
 9314POPC   C3B62565  35.639  43.149   7.050
 9314POPC   C4B62566  35.576  43.102   7.350
 9315POPC   NC362567  36.906  12.119   5.550
 9315POPC   PO462568  36.946  12.058   5.850
 9315POPC   GL162569  36.900  12.044   6.150
 9315POPC   GL262570  37.064  12.010   6.150
 9315POPC   C1A62571  36.940  12.109   6.450
 9315POPC   D2A62572  36.939  12.028   6.750
 9315POPC   C3A62573  36.947  12.093   7.050
 9315POPC   C4A62574  36.862  12.067   7.350
 9315POPC   C1B62575  37.147  11.973   6.450
 9315POPC   C2B62576  37.146  11.996   6.750
 9315POPC   C3B62577  37.169  12.026   7.050
 9315POPC   C4B62578  37.095  11.957   7.350
 9316POPC   NC362579  11.303   6.660   5.550
 9316POPC   PO462580  11.268   6.676   5.850
 9316POPC   GL162581  11.267   6.630   6.150
 9316POPC   GL262582  11.382   6.605   6.150
 9316POPC   C1A62583  11.256   6.630   6.450
 9316POPC   D2A62584  11.319   6.650   6.750
 9316POPC   C3A62585  11.296   6.605   7.050
 9316POPC   C4A62586  11.345   6.609   7.350
 9316POPC   C1B62587  11.503   6.530   6.450
 9316POPC   C2B62588  11.491   6.529   6.750
 9316POPC   C3B62589  11.565   6.580   7.050
 9316POPC   C4B62590  11.544   6.548   7.350
 9317POPC   NC362591  26.063   9.003   5.550
 9317POPC   PO462592  26.045   9.001   5.850
 9317POPC   GL162593  26.044   8.952   6.150
 9317POPC   GL262594  26.151   9.054   6.150
 9317POPC   C1A62595  26.075   8.951   6.450
 9317POPC   D2A62596  26.089   8.977   6.750
 9317POPC   C3A62597  26.058   8.970   7.050
 9317POPC   C4A62598  26.045   8.966   7.350
 9317POPC   C1B62599  26.235   9.049   6.450
 9317POPC   C2B62600  26.275   9.045   6.750
 9317POPC   C3B62601  26.313   9.030   7.050
 9317POPC   C4B62602  26.280   9.023   7.350
 9318POPC   NC362603  20.656   4.290   5.550
 9318POPC   PO462604  20.652   4.317   5.850
 9318POPC   GL162605  20.648   4.306   6.150
 9318POPC   GL262606  20.762   4.245   6.150
 9318POPC   C1A62607  20.636   4.292   6.450
 9318POPC   D2A62608  20.624   4.326   6.750
 9318POPC   C3A62609  20.599   4.303   7.050
 9318POPC   C4A62610  20.604   4.349   7.350
 9318POPC   C1B62611  20.856   4.177   6.450
 9318POPC   C2B62612  20.776   4.169   6.750
 9318POPC   C3B62613  20.800   4.229   7.050
 9318POPC   C4B62614  20.838   4.213   7.350
 9319POPC   NC362615  22.890   8.987   5.550
 9319POPC   PO462616  22.975   8.939   5.850
 9319POPC   GL162617  22.960   8.927   6.150
 9319POPC   GL262618  22.771   8.960   6.150
 9319POPC   C1A62619  22.899   9.011   6.450
 9319POPC   D2A62620  22.926   8.952   6.750
 9319POPC   C3A62621  22.977   8.947   7.050
 9319POPC   C4A62622  22.920   8.946   7.350
 9319POPC   C1B62623  22.652   8.989   6.450
 9319POPC   C2B62624  22.710   8.965   6.750
 9319POPC   C3B62625  22.737   8.966   7.050
 9319POPC   C4B62626  22.732   9.014   7.350
 9320POPC   NC362627  36.098  40.760   5.550
 9320POPC   PO462628  36.088  40.785   5.850
 9320POPC   GL162629  36.117  40.738   6.150
 9320POPC   GL262630  36.040  40.904   6.150
 9320POPC   C1A62631  36.128  40.824   6.450
 9320POPC   D2A62632  36.155  40.781   6.750
 9320POPC   C3A62633  36.126  40.748   7.050
 9320POPC   C4A62634  36.112  40.814   7.350
 9320POPC   C1B62635  35.964  40.968   6.450
 9320POPC   C2B62636  35.959  40.950   6.750
 9320POPC   C3B62637  35.952  41.015   7.050
 9320POPC   C4B62638  35.953  40.953   7.350
 9321POPC   NC362639  43.929  26.850   5.550
 9321POPC   PO462640  43.873  26.812   5.850
 9321POPC   GL162641  43.931  26.791   6.150
 9321POPC   GL262642  43.869  26.678   6.150
 9321POPC   C1A62643  43.904  26.826   6.450
 9321POPC   D2A62644  43.839  26.857   6.750
 9321POPC   C3A62645  43.839  26.804   7.050
 9321POPC   C4A62646  43.912  26.845   7.350
 9321POPC   C1B62647  43.798  26.605   6.450
 9321POPC   C2B62648  43.770  26.565   6.750
 9321POPC   C3B62649  43.771  26.570   7.050
 9321POPC   C4B62650  43.823  26.585   7.350
 9322POPC   NC362651  32.983  43.154   5.550
 9322POPC   PO462652  32.975  43.144   5.850
 9322POPC   GL162653  33.061  43.079   6.150
 9322POPC   GL262654  32.967  42.980   6.150
 9322POPC   C1A62655  33.039  43.086   6.450
 9322POPC   D2A62656  33.005  43.099   6.750
 9322POPC   C3A62657  33.051  43.138   7.050
 9322POPC   C4A62658  32.995  43.129   7.350
 9322POPC   C1B62659  32.889  42.937   6.450
 9322POPC   C2B62660  32.909  42.930   6.750
 9322POPC   C3B62661  32.903  42.856   7.050
 9322POPC   C4B62662  32.946  42.864   7.350
 9323POPC   NC362663  36.085   5.081   5.550
 9323POPC   PO462664  36.084   5.104   5.850
 9323POPC   GL162665  36.134   5.113   6.150
 9323POPC   GL262666  36.248   5.092   6.150
 9323POPC   C1A62667  36.147   5.090   6.450
 9323POPC   D2A62668  36.113   5.087   6.750
 9323POPC   C3A62669  36.156   5.090   7.050
 9323POPC   C4A62670  36.174   5.064   7.350
 9323POPC   C1B62671  36.410   5.178   6.450
 9323POPC   C2B62672  36.402   5.225   6.750
 9323POPC   C3B62673  36.371   5.154   7.050
 9323POPC   C4B62674  36.386   5.145   7.350
 9324POPC   NC362675  33.763   8.212   5.550
 9324POPC   PO462676  33.754   8.190   5.850
 9324POPC   GL162677  33.840   8.178   6.150
 9324POPC   GL262678  33.666   8.188   6.150
 9324POPC   C1A62679  33.752   8.203   6.450
 9324POPC   D2A62680  33.829   8.186   6.750
 9324POPC   C3A62681  33.790   8.161   7.050
 9324POPC   C4A62682  33.801   8.224   7.350
 9324POPC   C1B62683  33.509   8.134   6.450
 9324POPC   C2B62684  33.583   8.150   6.750
 9324POPC   C3B62685  33.590   8.145   7.050
 9324POPC   C4B62686  33.513   8.207   7.350
 9325POPC   NC362687  35.401  41.556   5.550
 9325POPC   PO462688  35.401  41.545   5.850
 9325POPC   GL162689  35.308  41.543   6.150
 9325POPC   GL262690  35.442  41.550   6.150
 9325POPC   C1A62691  35.328  41.539   6.450
 9325POPC   D2A62692  35.310  41.567   6.750
 9325POPC   C3A62693  35.362  41.607   7.050
 9325POPC   C4A62694  35.357  41.604   7.350
 9325POPC   C1B62695  35.612  41.487   6.450
 9325POPC   C2B62696  35.581  41.446   6.750
 9325POPC   C3B62697  35.607  41.461   7.050
 9325POPC   C4B62698  35.600  41.457   7.350
 9326POPC   NC362699   4.352   3.564   5.550
 9326POPC   PO462700   4.287   3.544   5.850
 9326POPC   GL162701   4.348   3.550   6.150
 9326POPC   GL262702   4.342   3.663   6.150
 9326POPC   C1A62703   4.316   3.559   6.450
 9326POPC   D2A62704   4.337   3.530   6.750
 9326POPC   C3A62705   4.355   3.506   7.050
 9326POPC   C4A62706   4.291   3.526   7.350
 9326POPC   C1B62707   4.296   3.757   6.450
 9326POPC   C2B62708   4.305   3.831   6.750
 9326POPC   C3B62709   4.365   3.794   7.050
 9326POPC   C4B62710   4.371   3.793   7.350
 9327POPC   NC362711  28.329  23.737   5.550
 9327POPC   PO462712  28.338  23.719   5.850
 9327POPC   GL162713  28.354  23.735   6.150
 9327POPC   GL262714  28.465  23.659   6.150
 9327POPC   C1A62715  28.350  23.736   6.450
 9327POPC   D2A62716  28.371  23.665   6.750
 9327POPC   C3A62717  28.392  23.668   7.050
 9327POPC   C4A62718  28.375  23.685   7.350
 9327POPC   C1B62719  28.530  23.509   6.450
 9327POPC   C2B62720  28.524  23.586   6.750
 9327POPC   C3B62721  28.517  23.525   7.050
 9327POPC   C4B62722  28.506  23.542   7.350
 9328POPC   NC362723  14.357  12.114   5.550
 9328POPC   PO462724  14.386  12.054   5.850
 9328POPC   GL162725  14.370  12.100   6.150
 9328POPC   GL262726  14.571  12.045   6.150
 9328POPC   C1A62727  14.389  12.055   6.450
 9328POPC   D2A62728  14.441  12.096   6.750
 9328POPC   C3A62729  14.445  12.113   7.050
 9328POPC   C4A62730  14.393  12.048   7.350
 9328POPC   C1B62731  14.618  12.149   6.450
 9328POPC   C2B62732  14.662  12.056   6.750
 9328POPC   C3B62733  14.603  12.089   7.050
 9328POPC   C4B62734  14.678  12.087   7.350
 9329POPC   NC362735   4.340  16.697   5.550
 9329POPC   PO462736   4.357  16.711   5.850
 9329POPC   GL162737   4.313  16.751   6.150
 9329POPC   GL262738   4.414  16.823   6.150
 9329POPC   C1A62739   4.352  16.681   6.450
 9329POPC   D2A62740   4.364  16.702   6.750
 9329POPC   C3A62741   4.299  16.764   7.050
 9329POPC   C4A62742   4.355  16.770   7.350
 9329POPC   C1B62743   4.551  16.843   6.450
 9329POPC   C2B62744   4.519  16.916   6.750
 9329POPC   C3B62745   4.527  16.878   7.050
 9329POPC   C4B62746   4.501  16.851   7.350
 9330POPC   NC362747  43.152  13.595   5.550
 9330POPC   PO462748  43.076  13.610   5.850
 9330POPC   GL162749  43.154  13.609   6.150
 9330POPC   GL262750  43.053  13.507   6.150
 9330POPC   C1A62751  43.095  13.630   6.450
 9330POPC   D2A62752  43.121  13.638   6.750
 9330POPC   C3A62753  43.110  13.638   7.050
 9330POPC   C4A62754  43.145  13.639   7.350
 9330POPC   C1B62755  43.038  13.366   6.450
 9330POPC   C2B62756  43.000  13.337   6.750
 9330POPC   C3B62757  43.030  13.398   7.050
 9330POPC   C4B62758  43.028  13.422   7.350
 9331POPC   NC362759  29.959  11.329   5.550
 9331POPC   PO462760  29.959  11.319   5.850
 9331POPC   GL162761  29.893  11.291   6.150
 9331POPC   GL262762  30.055  11.384   6.150
 9331POPC   C1A62763  29.963  11.251   6.450
 9331POPC   D2A62764  29.872  11.344   6.750
 9331POPC   C3A62765  29.892  11.307   7.050
 9331POPC   C4A62766  29.955  11.272   7.350
 9331POPC   C1B62767  30.074  11.520   6.450
 9331POPC   C2B62768  30.060  11.470   6.750
 9331POPC   C3B62769  30.131  11.452   7.050
 9331POPC   C4B62770  30.084  11.507   7.350
 9332POPC   NC362771  37.683   7.471   5.550
 9332POPC   PO462772  37.634   7.379   5.850
 9332POPC   GL162773  37.698   7.376   6.150
 9332POPC   GL262774  37.817   7.434   6.150
 9332POPC   C1A62775  37.646   7.442   6.450
 9332POPC   D2A62776  37.681   7.384   6.750
 9332POPC   C3A62777  37.634   7.398   7.050
 9332POPC   C4A62778  37.677   7.381   7.350
 9332POPC   C1B62779  37.888   7.311   6.450
 9332POPC   C2B62780  37.878   7.302   6.750
 9332POPC   C3B62781  37.919   7.372   7.050
 9332POPC   C4B62782  37.877   7.317   7.350
 9333POPC   NC362783  37.710  36.134   5.550
 9333POPC   PO462784  37.688  36.129   5.850
 9333POPC   GL162785  37.674  36.136   6.150
 9333POPC   GL262786  37.536  36.165   6.150
 9333POPC   C1A62787  37.685  36.120   6.450
 9333POPC   D2A62788  37.710  36.125   6.750
 9333POPC   C3A62789  37.678  36.173   7.050
 9333POPC   C4A62790  37.718  36.142   7.350
 9333POPC   C1B62791  37.413  36.165   6.450
 9333POPC   C2B62792  37.452  36.204   6.750
 9333POPC   C3B62793  37.487  36.235   7.050
 9333POPC   C4B62794  37.453  36.196   7.350
 9334POPC   NC362795  27.633  18.331   5.550
 9334POPC   PO462796  27.617  18.259   5.850
 9334POPC   GL162797  27.635  18.330   6.150
 9334POPC   GL262798  27.474  18.286   6.150
 9334POPC   C1A62799  27.597  18.329   6.450
 9334POPC   D2A62800  27.627  18.262   6.750
 9334POPC   C3A62801  27.596  18.279   7.050
 9334POPC   C4A62802  27.643  18.263   7.350
 9334POPC   C1B62803  27.342  18.379   6.450
 9334POPC   C2B62804  27.375  18.375   6.750
 9334POPC   C3B62805  27.352  18.349   7.050
 9334POPC   C4B62806  27.372  18.403   7.350
 9335POPC   NC362807  23.744   5.118   5.550
 9335POPC   PO462808  23.699   5.112   5.850
 9335POPC   GL162809  23.729   5.126   6.150
 9335POPC   GL262810  23.582   5.213   6.150
 9335POPC   C1A62811  23.697   5.129   6.450
 9335POPC   D2A62812  23.748   5.127   6.750
 9335POPC   C3A62813  23.681   5.049   7.050
 9335POPC   C4A62814  23.752   5.054   7.350
 9335POPC   C1B62815  23.519   5.272   6.450
 9335POPC   C2B62816  23.537   5.268   6.750
 9335POPC   C3B62817  23.539   5.226   7.050
 9335POPC   C4B62818  23.519   5.249   7.350
 9336POPC   NC362819  12.034  39.235   5.550
 9336POPC   PO462820  12.124  39.279   5.850
 9336POPC   GL162821  12.026  39.261   6.150
 9336POPC   GL262822  12.130  39.269   6.150
 9336POPC   C1A62823  12.039  39.194   6.450
 9336POPC   D2A62824  12.089  39.199   6.750
 9336POPC   C3A62825  12.085  39.243   7.050
 9336POPC   C4A62826  12.117  39.224   7.350
 9336POPC   C1B62827  12.235  39.366   6.450
 9336POPC   C2B62828  12.294  39.389   6.750
 9336POPC   C3B62829  12.252  39.369   7.050
 9336POPC   C4B62830  12.282  39.341   7.350
 9337POPC   NC362831  32.202   2.737   5.550
 9337POPC   PO462832  32.259   2.805   5.850
 9337POPC   GL162833  32.201   2.751   6.150
 9337POPC   GL262834  32.138   2.667   6.150
 9337POPC   C1A62835  32.287   2.745   6.450
 9337POPC   D2A62836  32.226   2.778   6.750
 9337POPC   C3A62837  32.244   2.763   7.050
 9337POPC   C4A62838  32.262   2.777   7.350
 9337POPC   C1B62839  32.110   2.570   6.450
 9337POPC   C2B62840  32.036   2.607   6.750
 9337POPC   C3B62841  32.094   2.537   7.050
 9337POPC   C4B62842  32.062   2.618   7.350
 9338POPC   NC362843  26.819  33.803   5.550
 9338POPC   PO462844  26.860  33.755   5.850
 9338POPC   GL162845  26.773  33.797   6.150
 9338POPC   GL262846  26.877  33.897   6.150
 9338POPC   C1A62847  26.804  33.767   6.450
 9338POPC   D2A62848  26.844  33.800   6.750
 9338POPC   C3A62849  26.779  33.751   7.050
 9338POPC   C4A62850  26.851  33.825   7.350
 9338POPC   C1B62851  26.837  34.007   6.450
 9338POPC   C2B62852  26.881  34.014   6.750
 9338POPC   C3B62853  26.837  34.046   7.050
 9338POPC   C4B62854  26.907  34.039   7.350
 9339POPC   NC362855  33.779  10.529   5.550
 9339POPC   PO462856  33.820  10.542   5.850
 9339POPC   GL162857  33.788  10.511   6.150
 9339POPC   GL262858  33.865  10.620   6.150
 9339POPC   C1A62859  33.782  10.515   6.450
 9339POPC   D2A62860  33.829  10.556   6.750
 9339POPC   C3A62861  33.839  10.491   7.050
 9339POPC   C4A62862  33.823  10.481   7.350
 9339POPC   C1B62863  33.945  10.643   6.450
 9339POPC   C2B62864  33.998  10.651   6.750
 9339POPC   C3B62865  33.991  10.691   7.050
 9339POPC   C4B62866  34.010  10.655   7.350
 9340POPC   NC362867   8.949  22.965   5.550
 9340POPC   PO462868   8.975  22.968   5.850
 9340POPC   GL162869   8.992  22.972   6.150
 9340POPC   GL262870   9.063  22.946   6.150
 9340POPC   C1A62871   9.015  22.979   6.450
 9340POPC   D2A62872   8.981  22.938   6.750
 9340POPC   C3A62873   8.948  22.944   7.050
 9340POPC   C4A62874   8.943  22.918   7.350
 9340POPC   C1B62875   9.236  22.953   6.450
 9340POPC   C2B62876   9.240  22.986   6.750
 9340POPC   C3B62877   9.247  22.949   7.050
 9340POPC   C4B62878   9.252  22.978   7.350
 9341POPC   NC362879   9.699  42.338   5.550
 9341POPC   PO462880   9.794  42.347   5.850
 9341POPC   GL162881   9.767  42.290   6.150
 9341POPC   GL262882   9.638  42.434   6.150
 9341POPC   C1A62883   9.760  42.371   6.450
 9341POPC   D2A62884   9.789  42.301   6.750
 9341POPC   C3A62885   9.735  42.331   7.050
 9341POPC   C4A62886   9.745  42.291   7.350
 9341POPC   C1B62887   9.495  42.443   6.450
 9341POPC   C2B62888   9.512  42.481   6.750
 9341POPC   C3B62889   9.518  42.414   7.050
 9341POPC   C4B62890   9.482  42.481   7.350
 9342POPC   NC362891  36.933  39.243   5.550
 9342POPC   PO462892  36.918  39.219   5.850
 9342POPC   GL162893  36.929  39.217   6.150
 9342POPC   GL262894  36.800  39.145   6.150
 9342POPC   C1A62895  36.880  39.255   6.450
 9342POPC   D2A62896  36.912  39.213   6.750
 9342POPC   C3A62897  36.877  39.257   7.050
 9342POPC   C4A62898  36.882  39.197   7.350
 9342POPC   C1B62899  36.671  39.161   6.450
 9342POPC   C2B62900  36.696  39.082   6.750
 9342POPC   C3B62901  36.693  39.100   7.050
 9342POPC   C4B62902  36.648  39.116   7.350
 9343POPC   NC362903   9.753  19.042   5.550
 9343POPC   PO462904   9.744  19.037   5.850
 9343POPC   GL162905   9.700  19.075   6.150
 9343POPC   GL262906   9.881  19.107   6.150
 9343POPC   C1A62907   9.713  19.057   6.450
 9343POPC   D2A62908   9.742  19.040   6.750
 9343POPC   C3A62909   9.789  19.027   7.050
 9343POPC   C4A62910   9.757  19.032   7.350
 9343POPC   C1B62911   9.941  19.178   6.450
 9343POPC   C2B62912   9.922  19.219   6.750
 9343POPC   C3B62913   9.992  19.169   7.050
 9343POPC   C4B62914   9.945  19.223   7.350
 9344POPC   NC362915  43.068  32.269   5.550
 9344POPC   PO462916  43.079  32.283   5.850
 9344POPC   GL162917  43.068  32.265   6.150
 9344POPC   GL262918  43.250  32.232   6.150
 9344POPC   C1A62919  43.136  32.212   6.450
 9344POPC   D2A62920  43.105  32.218   6.750
 9344POPC   C3A62921  43.068  32.243   7.050
 9344POPC   C4A62922  43.086  32.204   7.350
 9344POPC   C1B62923  43.337  32.224   6.450
 9344POPC   C2B62924  43.323  32.228   6.750
 9344POPC   C3B62925  43.339  32.196   7.050
 9344POPC   C4B62926  43.409  32.293   7.350
 9345POPC   NC362927  15.182  11.274   5.550
 9345POPC   PO462928  15.203  11.269   5.850
 9345POPC   GL162929  15.172  11.307   6.150
 9345POPC   GL262930  15.145  11.447   6.150
 9345POPC   C1A62931  15.138  11.256   6.450
 9345POPC   D2A62932  15.201  11.260   6.750
 9345POPC   C3A62933  15.194  11.318   7.050
 9345POPC   C4A62934  15.187  11.279   7.350
 9345POPC   C1B62935  15.188  11.526   6.450
 9345POPC   C2B62936  15.141  11.546   6.750
 9345POPC   C3B62937  15.230  11.567   7.050
 9345POPC   C4B62938  15.179  11.510   7.350
 9346POPC   NC362939  28.366  21.355   5.550
 9346POPC   PO462940  28.348  21.345   5.850
 9346POPC   GL162941  28.333  21.418   6.150
 9346POPC   GL262942  28.259  21.322   6.150
 9346POPC   C1A62943  28.385  21.393   6.450
 9346POPC   D2A62944  28.378  21.433   6.750
 9346POPC   C3A62945  28.332  21.429   7.050
 9346POPC   C4A62946  28.374  21.393   7.350
 9346POPC   C1B62947  28.156  21.348   6.450
 9346POPC   C2B62948  28.077  21.325   6.750
 9346POPC   C3B62949  28.143  21.325   7.050
 9346POPC   C4B62950  28.096  21.380   7.350
 9347POPC   NC362951  29.118  39.275   5.550
 9347POPC   PO462952  29.180  39.231   5.850
 9347POPC   GL162953  29.145  39.196   6.150
 9347POPC   GL262954  29.276  39.156   6.150
 9347POPC   C1A62955  29.183  39.244   6.450
 9347POPC   D2A62956  29.133  39.280   6.750
 9347POPC   C3A62957  29.128  39.250   7.050
 9347POPC   C4A62958  29.186  39.198   7.350
 9347POPC   C1B62959  29.385  39.139   6.450
 9347POPC   C2B62960  29.344  39.092   6.750
 9347POPC   C3B62961  29.412  39.101   7.050
 9347POPC   C4B62962  29.323  39.142   7.350
 9348POPC   NC362963   7.422  40.759   5.550
 9348POPC   PO462964   7.461  40.766   5.850
 9348POPC   GL162965   7.443  40.799   6.150
 9348POPC   GL262966   7.305  40.690   6.150
 9348POPC   C1A62967   7.461  40.777   6.450
 9348POPC   D2A62968   7.447  40.823   6.750
 9348POPC   C3A62969   7.434  40.750   7.050
 9348POPC   C4A62970   7.445  40.813   7.350
 9348POPC   C1B62971   7.229  40.565   6.450
 9348POPC   C2B62972   7.217  40.567   6.750
 9348POPC   C3B62973   7.279  40.562   7.050
 9348POPC   C4B62974   7.271  40.650   7.350
 9349POPC   NC362975  11.281   1.999   5.550
 9349POPC   PO462976  11.264   2.018   5.850
 9349POPC   GL162977  11.349   2.036   6.150
 9349POPC   GL262978  11.399   1.916   6.150
 9349POPC   C1A62979  11.280   1.984   6.450
 9349POPC   D2A62980  11.286   1.973   6.750
 9349POPC   C3A62981  11.298   1.951   7.050
 9349POPC   C4A62982  11.343   1.946   7.350
 9349POPC   C1B62983  11.510   1.844   6.450
 9349POPC   C2B62984  11.486   1.851   6.750
 9349POPC   C3B62985  11.525   1.880   7.050
 9349POPC   C4B62986  11.538   1.860   7.350
 9350POPC   NC362987  40.788  23.703   5.550
 9350POPC   PO462988  40.830  23.739   5.850
 9350POPC   GL162989  40.824  23.687   6.150
 9350POPC   GL262990  40.619  23.676   6.150
 9350POPC   C1A62991  40.774  23.753   6.450
 9350POPC   D2A62992  40.809  23.755   6.750
 9350POPC   C3A62993  40.832  23.709   7.050
 9350POPC   C4A62994  40.822  23.736   7.350
 9350POPC   C1B62995  40.520  23.578   6.450
 9350POPC   C2B62996  40.556  23.609   6.750
 9350POPC   C3B62997  40.544  23.658   7.050
 9350POPC   C4B62998  40.538  23.604   7.350
 9351POPC   NC362999  15.168  21.395   5.550
 9351POPC   PO463000  15.200  21.425   5.850
 9351POPC   GL163001  15.211  21.406   6.150
 9351POPC   GL263002  15.100  21.336   6.150
 9351POPC   C1A63003  15.151  21.429   6.450
 9351POPC   D2A63004  15.181  21.431   6.750
 9351POPC   C3A63005  15.206  21.356   7.050
 9351POPC   C4A63006  15.183  21.398   7.350
 9351POPC   C1B63007  15.010  21.306   6.450
 9351POPC   C2B63008  14.953  21.297   6.750
 9351POPC   C3B63009  14.941  21.247   7.050
 9351POPC   C4B63010  14.985  21.296   7.350
 9352POPC   NC363011  21.433  13.671   5.550
 9352POPC   PO463012  21.412  13.639   5.850
 9352POPC   GL163013  21.404  13.645   6.150
 9352POPC   GL263014  21.381  13.700   6.150
 9352POPC   C1A63015  21.430  13.648   6.450
 9352POPC   D2A63016  21.355  13.578   6.750
 9352POPC   C3A63017  21.400  13.630   7.050
 9352POPC   C4A63018  21.430  13.653   7.350
 9352POPC   C1B63019  21.408  13.825   6.450
 9352POPC   C2B63020  21.477  13.862   6.750
 9352POPC   C3B63021  21.447  13.842   7.050
 9352POPC   C4B63022  21.389  13.870   7.350
 9353POPC   NC363023  39.961  43.066   5.550
 9353POPC   PO463024  39.988  43.085   5.850
 9353POPC   GL163025  40.024  43.080   6.150
 9353POPC   GL263026  39.912  43.013   6.150
 9353POPC   C1A63027  40.030  43.136   6.450
 9353POPC   D2A63028  40.030  43.081   6.750
 9353POPC   C3A63029  40.021  43.075   7.050
 9353POPC   C4A63030  40.019  43.067   7.350
 9353POPC   C1B63031  39.882  42.876   6.450
 9353POPC   C2B63032  39.877  42.866   6.750
 9353POPC   C3B63033  39.901  42.885   7.050
 9353POPC   C4B63034  39.914  42.852   7.350
 9354POPC   NC363035   8.169   9.733   5.550
 9354POPC   PO463036   8.221   9.781   5.850
 9354POPC   GL163037   8.167   9.747   6.150
 9354POPC   GL263038   8.211   9.629   6.150
 9354POPC   C1A63039   8.169   9.745   6.450
 9354POPC   D2A63040   8.195   9.711   6.750
 9354POPC   C3A63041   8.191   9.764   7.050
 9354POPC   C4A63042   8.200   9.736   7.350
 9354POPC   C1B63043   8.256   9.526   6.450
 9354POPC   C2B63044   8.257   9.547   6.750
 9354POPC   C3B63045   8.223   9.466   7.050
 9354POPC   C4B63046   8.270   9.528   7.350
 9355POPC   NC363047  37.633  36.898   5.550
 9355POPC   PO463048  37.718  36.868   5.850
 9355POPC   GL163049  37.682  36.904   6.150
 9355POPC   GL263050  37.603  36.826   6.150
 9355POPC   C1A63051  37.669  36.898   6.450
 9355POPC   D2A63052  37.694  36.927   6.750
 9355POPC   C3A63053  37.695  36.868   7.050
 9355POPC   C4A63054  37.678  36.939   7.350
 9355POPC   C1B63055  37.439  36.763   6.450
 9355POPC   C2B63056  37.422  36.799   6.750
 9355POPC   C3B63057  37.478  36.782   7.050
 9355POPC   C4B63058  37.437  36.730   7.350
 9356POPC   NC363059  25.239  12.061   5.550
 9356POPC   PO463060  25.247  12.090   5.850
 9356POPC   GL163061  25.252  12.052   6.150
 9356POPC   GL263062  25.220  11.936   6.150
 9356POPC   C1A63063  25.283  12.084   6.450
 9356POPC   D2A63064  25.228  12.052   6.750
 9356POPC   C3A63065  25.279  12.123   7.050
 9356POPC   C4A63066  25.257  12.031   7.350
 9356POPC   C1B63067  25.070  11.847   6.450
 9356POPC   C2B63068  25.080  11.845   6.750
 9356POPC   C3B63069  25.131  11.880   7.050
 9356POPC   C4B63070  25.113  11.921   7.350
 9357POPC   NC363071  40.805  29.937   5.550
 9357POPC   PO463072  40.784  29.954   5.850
 9357POPC   GL163073  40.762  29.970   6.150
 9357POPC   GL263074  40.682  29.991   6.150
 9357POPC   C1A63075  40.766  29.888   6.450
 9357POPC   D2A63076  40.784  29.923   6.750
 9357POPC   C3A63077  40.741  29.910   7.050
 9357POPC   C4A63078  40.786  29.936   7.350
 9357POPC   C1B63079  40.577  30.106   6.450
 9357POPC   C2B63080  40.585  30.082   6.750
 9357POPC   C3B63081  40.609  30.158   7.050
 9357POPC   C4B63082  40.576  30.070   7.350
 9358POPC   NC363083  30.685  34.592   5.550
 9358POPC   PO463084  30.675  34.567   5.850
 9358POPC   GL163085  30.723  34.550   6.150
 9358POPC   GL263086  30.548  34.485   6.150
 9358POPC   C1A63087  30.658  34.570   6.450
 9358POPC   D2A63088  30.679  34.613   6.750
 9358POPC   C3A63089  30.677  34.537   7.050
 9358POPC   C4A63090  30.718  34.625   7.350
 9358POPC   C1B63091  30.429  34.452   6.450
 9358POPC   C2B63092  30.448  34.454   6.750
 9358POPC   C3B63093  30.509  34.535   7.050
 9358POPC   C4B63094  30.436  34.485   7.350
 9359POPC   NC363095  19.833   1.190   5.550
 9359POPC   PO463096  19.786   1.204   5.850
 9359POPC   GL163097  19.808   1.213   6.150
 9359POPC   GL263098  19.795   1.112   6.150
 9359POPC   C1A63099  19.874   1.202   6.450
 9359POPC   D2A63100  19.824   1.168   6.750
 9359POPC   C3A63101  19.835   1.209   7.050
 9359POPC   C4A63102  19.866   1.246   7.350
 9359POPC   C1B63103  19.845   0.983   6.450
 9359POPC   C2B63104  19.789   0.984   6.750
 9359POPC   C3B63105  19.777   1.006   7.050
 9359POPC   C4B63106  19.853   0.917   7.350
 9360POPC   NC363107  36.903  41.557   5.550
 9360POPC   PO463108  36.893  41.533   5.850
 9360POPC   GL163109  36.934  41.524   6.150
 9360POPC   GL263110  36.977  41.708   6.150
 9360POPC   C1A63111  36.952  41.595   6.450
 9360POPC   D2A63112  36.875  41.509   6.750
 9360POPC   C3A63113  36.908  41.530   7.050
 9360POPC   C4A63114  36.858  41.532   7.350
 9360POPC   C1B63115  37.001  41.750   6.450
 9360POPC   C2B63116  36.991  41.808   6.750
 9360POPC   C3B63117  37.072  41.810   7.050
 9360POPC   C4B63118  37.023  41.819   7.350
 9361POPC   NC363119   5.824  15.935   5.550
 9361POPC   PO463120   5.853  15.991   5.850
 9361POPC   GL163121   5.860  15.992   6.150
 9361POPC   GL263122   5.744  15.877   6.150
 9361POPC   C1A63123   5.881  15.932   6.450
 9361POPC   D2A63124   5.832  15.937   6.750
 9361POPC   C3A63125   5.873  15.995   7.050
 9361POPC   C4A63126   5.913  15.968   7.350
 9361POPC   C1B63127   5.657  15.818   6.450
 9361POPC   C2B63128   5.680  15.789   6.750
 9361POPC   C3B63129   5.707  15.802   7.050
 9361POPC   C4B63130   5.641  15.858   7.350
 9362POPC   NC363131  12.033  19.865   5.550
 9362POPC   PO463132  12.079  19.797   5.850
 9362POPC   GL163133  12.053  19.829   6.150
 9362POPC   GL263134  12.034  19.914   6.150
 9362POPC   C1A63135  12.056  19.831   6.450
 9362POPC   D2A63136  12.091  19.857   6.750
 9362POPC   C3A63137  12.113  19.862   7.050
 9362POPC   C4A63138  12.060  19.811   7.350
 9362POPC   C1B63139  11.999  20.054   6.450
 9362POPC   C2B63140  11.901  20.004   6.750
 9362POPC   C3B63141  11.997  20.096   7.050
 9362POPC   C4B63142  11.985  20.002   7.350
 9363POPC   NC363143  29.875   0.484   5.550
 9363POPC   PO463144  29.885   0.430   5.850
 9363POPC   GL163145  29.946   0.416   6.150
 9363POPC   GL263146  29.759   0.380   6.150
 9363POPC   C1A63147  29.945   0.484   6.450
 9363POPC   D2A63148  29.880   0.451   6.750
 9363POPC   C3A63149  29.897   0.452   7.050
 9363POPC   C4A63150  29.888   0.407   7.350
 9363POPC   C1B63151  29.725   0.345   6.450
 9363POPC   C2B63152  29.640   0.349   6.750
 9363POPC   C3B63153  29.732   0.331   7.050
 9363POPC   C4B63154  29.637   0.404   7.350
 9364POPC   NC363155  33.042  15.149   5.550
 9364POPC   PO463156  32.981  15.188   5.850
 9364POPC   GL163157  33.019  15.137   6.150
 9364POPC   GL263158  33.139  15.300   6.150
 9364POPC   C1A63159  32.975  15.200   6.450
 9364POPC   D2A63160  32.978  15.209   6.750
 9364POPC   C3A63161  33.070  15.205   7.050
 9364POPC   C4A63162  32.995  15.136   7.350
 9364POPC   C1B63163  33.168  15.327   6.450
 9364POPC   C2B63164  33.153  15.370   6.750
 9364POPC   C3B63165  33.155  15.382   7.050
 9364POPC   C4B63166  33.164  15.356   7.350
 9365POPC   NC363167  14.395   6.659   5.550
 9365POPC   PO463168  14.423   6.604   5.850
 9365POPC   GL163169  14.370   6.603   6.150
 9365POPC   GL263170  14.464   6.755   6.150
 9365POPC   C1A63171  14.419   6.684   6.450
 9365POPC   D2A63172  14.405   6.611   6.750
 9365POPC   C3A63173  14.408   6.687   7.050
 9365POPC   C4A63174  14.394   6.624   7.350
 9365POPC   C1B63175  14.533   6.847   6.450
 9365POPC   C2B63176  14.594   6.864   6.750
 9365POPC   C3B63177  14.582   6.783   7.050
 9365POPC   C4B63178  14.539   6.867   7.350
 9366POPC   NC363179  14.366  28.352   5.550
 9366POPC   PO463180  14.439  28.355   5.850
 9366POPC   GL163181  14.436  28.341   6.150
 9366POPC   GL263182  14.383  28.470   6.150
 9366POPC   C1A63183  14.360  28.349   6.450
 9366POPC   D2A63184  14.438  28.387   6.750
 9366POPC   C3A63185  14.385  28.361   7.050
 9366POPC   C4A63186  14.364  28.353   7.350
 9366POPC   C1B63187  14.312  28.574   6.450
 9366POPC   C2B63188  14.327  28.566   6.750
 9366POPC   C3B63189  14.350  28.572   7.050
 9366POPC   C4B63190  14.362  28.565   7.350
 9367POPC   NC363191  36.096  13.621   5.550
 9367POPC   PO463192  36.162  13.609   5.850
 9367POPC   GL163193  36.133  13.624   6.150
 9367POPC   GL263194  36.153  13.724   6.150
 9367POPC   C1A63195  36.139  13.579   6.450
 9367POPC   D2A63196  36.114  13.650   6.750
 9367POPC   C3A63197  36.148  13.637   7.050
 9367POPC   C4A63198  36.105  13.612   7.350
 9367POPC   C1B63199  36.143  13.906   6.450
 9367POPC   C2B63200  36.140  13.897   6.750
 9367POPC   C3B63201  36.079  13.904   7.050
 9367POPC   C4B63202  36.127  13.868   7.350
 9368POPC   NC363203  31.468  38.475   5.550
 9368POPC   PO463204  31.461  38.425   5.850
 9368POPC   GL163205  31.425  38.444   6.150
 9368POPC   GL263206  31.372  38.560   6.150
 9368POPC   C1A63207  31.456  38.500   6.450
 9368POPC   D2A63208  31.426  38.446   6.750
 9368POPC   C3A63209  31.518  38.458   7.050
 9368POPC   C4A63210  31.471  38.405   7.350
 9368POPC   C1B63211  31.290  38.633   6.450
 9368POPC   C2B63212  31.349  38.677   6.750
 9368POPC   C3B63213  31.296  38.648   7.050
 9368POPC   C4B63214  31.343  38.652   7.350
 9369POPC   NC363215   4.336  25.288   5.550
 9369POPC   PO463216   4.306  25.313   5.850
 9369POPC   GL163217   4.270  25.296   6.150
 9369POPC   GL263218   4.311  25.146   6.150
 9369POPC   C1A63219   4.361  25.295   6.450
 9369POPC   D2A63220   4.337  25.269   6.750
 9369POPC   C3A63221   4.315  25.259   7.050
 9369POPC   C4A63222   4.277  25.251   7.350
 9369POPC   C1B63223   4.380  25.057   6.450
 9369POPC   C2B63224   4.327  25.028   6.750
 9369POPC   C3B63225   4.339  25.008   7.050
 9369POPC   C4B63226   4.369  25.015   7.350
 9370POPC   NC363227   8.156  40.035   5.550
 9370POPC   PO463228   8.158  39.963   5.850
 9370POPC   GL163229   8.209  39.962   6.150
 9370POPC   GL263230   8.178  40.084   6.150
 9370POPC   C1A63231   8.171  39.962   6.450
 9370POPC   D2A63232   8.177  39.981   6.750
 9370POPC   C3A63233   8.196  40.049   7.050
 9370POPC   C4A63234   8.151  40.039   7.350
 9370POPC   C1B63235   8.113  40.229   6.450
 9370POPC   C2B63236   8.137  40.245   6.750
 9370POPC   C3B63237   8.182  40.259   7.050
 9370POPC   C4B63238   8.211  40.251   7.350
 9371POPC   NC363239  26.768  44.695   5.550
 9371POPC   PO463240  26.834  44.644   5.850
 9371POPC   GL163241  26.819  44.623   6.150
 9371POPC   GL263242  26.943  44.731   6.150
 9371POPC   C1A63243  26.807  44.630   6.450
 9371POPC   D2A63244  26.801  44.625   6.750
 9371POPC   C3A63245  26.867  44.672   7.050
 9371POPC   C4A63246  26.800  44.689   7.350
 9371POPC   C1B63247  26.958  44.840   6.450
 9371POPC   C2B63248  26.952  44.862   6.750
 9371POPC   C3B63249  26.986  44.852   7.050
 9371POPC   C4B63250  26.935  44.882   7.350
 9372POPC   NC363251  23.699  32.240   5.550
 9372POPC   PO463252  23.689  32.276   5.850
 9372POPC   GL163253  23.667  32.274   6.150
 9372POPC   GL263254  23.603  32.242   6.150
 9372POPC   C1A63255  23.722  32.263   6.450
 9372POPC   D2A63256  23.762  32.255   6.750
 9372POPC   C3A63257  23.690  32.277   7.050
 9372POPC   C4A63258  23.751  32.254   7.350
 9372POPC   C1B63259  23.472  32.177   6.450
 9372POPC   C2B63260  23.468  32.222   6.750
 9372POPC   C3B63261  23.504  32.174   7.050
 9372POPC   C4B63262  23.424  32.194   7.350
 9373POPC   NC363263  34.577   1.955   5.550
 9373POPC   PO463264  34.559   1.950   5.850
 9373POPC   GL163265  34.566   2.012   6.150
 9373POPC   GL263266  34.559   1.908   6.150
 9373POPC   C1A63267  34.597   2.022   6.450
 9373POPC   D2A63268  34.535   1.985   6.750
 9373POPC   C3A63269  34.616   1.986   7.050
 9373POPC   C4A63270  34.587   2.016   7.350
 9373POPC   C1B63271  34.482   1.734   6.450
 9373POPC   C2B63272  34.521   1.731   6.750
 9373POPC   C3B63273  34.505   1.732   7.050
 9373POPC   C4B63274  34.489   1.773   7.350
 9374POPC   NC363275  23.735  41.528   5.550
 9374POPC   PO463276  23.725  41.519   5.850
 9374POPC   GL163277  23.745  41.538   6.150
 9374POPC   GL263278  23.788  41.502   6.150
 9374POPC   C1A63279  23.743  41.521   6.450
 9374POPC   D2A63280  23.739  41.582   6.750
 9374POPC   C3A63281  23.761  41.579   7.050
 9374POPC   C4A63282  23.713  41.516   7.350
 9374POPC   C1B63283  23.884  41.389   6.450
 9374POPC   C2B63284  23.921  41.464   6.750
 9374POPC   C3B63285  23.886  41.448   7.050
 9374POPC   C4B63286  23.876  41.376   7.350
 9375POPC   NC363287  26.846  13.580   5.550
 9375POPC   PO463288  26.867  13.651   5.850
 9375POPC   GL163289  26.840  13.589   6.150
 9375POPC   GL263290  26.911  13.628   6.150
 9375POPC   C1A63291  26.789  13.614   6.450
 9375POPC   D2A63292  26.823  13.647   6.750
 9375POPC   C3A63293  26.796  13.651   7.050
 9375POPC   C4A63294  26.802  13.617   7.350
 9375POPC   C1B63295  27.084  13.690   6.450
 9375POPC   C2B63296  27.054  13.700   6.750
 9375POPC   C3B63297  27.028  13.707   7.050
 9375POPC   C4B63298  27.018  13.692   7.350
 9376POPC   NC363299  18.239  14.412   5.550
 9376POPC   PO463300  18.292  14.364   5.850
 9376POPC   GL163301  18.265  14.406   6.150
 9376POPC   GL263302  18.385  14.291   6.150
 9376POPC   C1A63303  18.319  14.394   6.450
 9376POPC   D2A63304  18.239  14.409   6.750
 9376POPC   C3A63305  18.324  14.402   7.050
 9376POPC   C4A63306  18.312  14.407   7.350
 9376POPC   C1B63307  18.522  14.235   6.450
 9376POPC   C2B63308  18.428  14.255   6.750
 9376POPC   C3B63309  18.521  14.250   7.050
 9376POPC   C4B63310  18.510  14.292   7.350
 9377POPC   NC363311  40.778   6.676   5.550
 9377POPC   PO463312  40.782   6.613   5.850
 9377POPC   GL163313  40.824   6.676   6.150
 9377POPC   GL263314  40.917   6.598   6.150
 9377POPC   C1A63315  40.740   6.627   6.450
 9377POPC   D2A63316  40.775   6.663   6.750
 9377POPC   C3A63317  40.809   6.608   7.050
 9377POPC   C4A63318  40.746   6.668   7.350
 9377POPC   C1B63319  40.909   6.482   6.450
 9377POPC   C2B63320  40.990   6.432   6.750
 9377POPC   C3B63321  40.991   6.468   7.050
 9377POPC   C4B63322  40.938   6.502   7.350
 9378POPC   NC363323   4.348  13.668   5.550
 9378POPC   PO463324   4.313  13.620   5.850
 9378POPC   GL163325   4.366  13.636   6.150
 9378POPC   GL263326   4.272  13.690   6.150
 9378POPC   C1A63327   4.335  13.655   6.450
 9378POPC   D2A63328   4.292  13.675   6.750
 9378POPC   C3A63329   4.326  13.591   7.050
 9378POPC   C4A63330   4.292  13.610   7.350
 9378POPC   C1B63331   4.155  13.747   6.450
 9378POPC   C2B63332   4.089  13.824   6.750
 9378POPC   C3B63333   4.152  13.836   7.050
 9378POPC   C4B63334   4.150  13.800   7.350
 9379POPC   NC363335  12.838  18.240   5.550
 9379POPC   PO463336  12.863  18.279   5.850
 9379POPC   GL163337  12.849  18.317   6.150
 9379POPC   GL263338  12.901  18.426   6.150
 9379POPC   C1A63339  12.818  18.283   6.450
 9379POPC   D2A63340  12.843  18.237   6.750
 9379POPC   C3A63341  12.878  18.266   7.050
 9379POPC   C4A63342  12.818  18.264   7.350
 9379POPC   C1B63343  12.935  18.549   6.450
 9379POPC   C2B63344  12.887  18.487   6.750
 9379POPC   C3B63345  12.916  18.569   7.050
 9379POPC   C4B63346  12.907  18.507   7.350
 9380POPC   NC363347  32.988   1.986   5.550
 9380POPC   PO463348  33.000   1.967   5.850
 9380POPC   GL163349  33.015   2.026   6.150
 9380POPC   GL263350  33.129   2.078   6.150
 9380POPC   C1A63351  33.008   1.982   6.450
 9380POPC   D2A63352  33.014   2.032   6.750
 9380POPC   C3A63353  33.055   1.998   7.050
 9380POPC   C4A63354  33.010   1.997   7.350
 9380POPC   C1B63355  33.283   2.055   6.450
 9380POPC   C2B63356  33.246   2.051   6.750
 9380POPC   C3B63357  33.220   2.112   7.050
 9380POPC   C4B63358  33.273   2.067   7.350
 9381POPC   NC363359   6.694  29.127   5.550
 9381POPC   PO463360   6.670  29.137   5.850
 9381POPC   GL163361   6.620  29.127   6.150
 9381POPC   GL263362   6.577  29.254   6.150
 9381POPC   C1A63363   6.618  29.137   6.450
 9381POPC   D2A63364   6.662  29.128   6.750
 9381POPC   C3A63365   6.684  29.153   7.050
 9381POPC   C4A63366   6.670  29.176   7.350
 9381POPC   C1B63367   6.476  29.361   6.450
 9381POPC   C2B63368   6.535  29.393   6.750
 9381POPC   C3B63369   6.452  29.355   7.050
 9381POPC   C4B63370   6.510  29.330   7.350
 9382POPC   NC363371  11.332  22.900   5.550
 9382POPC   PO463372  11.323  22.907   5.850
 9382POPC   GL163373  11.332  22.949   6.150
 9382POPC   GL263374  11.277  23.017   6.150
 9382POPC   C1A63375  11.324  22.932   6.450
 9382POPC   D2A63376  11.294  22.951   6.750
 9382POPC   C3A63377  11.304  22.951   7.050
 9382POPC   C4A63378  11.274  22.956   7.350
 9382POPC   C1B63379  11.163  23.171   6.450
 9382POPC   C2B63380  11.209  23.180   6.750
 9382POPC   C3B63381  11.191  23.129   7.050
 9382POPC   C4B63382  11.167  23.204   7.350
 9383POPC   NC363383  39.960  30.681   5.550
 9383POPC   PO463384  39.993  30.701   5.850
 9383POPC   GL163385  39.982  30.669   6.150
 9383POPC   GL263386  40.084  30.731   6.150
 9383POPC   C1A63387  40.043  30.733   6.450
 9383POPC   D2A63388  40.019  30.717   6.750
 9383POPC   C3A63389  39.980  30.745   7.050
 9383POPC   C4A63390  40.032  30.692   7.350
 9383POPC   C1B63391  40.282  30.730   6.450
 9383POPC   C2B63392  40.261  30.754   6.750
 9383POPC   C3B63393  40.245  30.751   7.050
 9383POPC   C4B63394  40.236  30.759   7.350
 9384POPC   NC363395  39.228  32.242   5.550
 9384POPC   PO463396  39.217  32.201   5.850
 9384POPC   GL163397  39.275  32.251   6.150
 9384POPC   GL263398  39.380  32.219   6.150
 9384POPC   C1A63399  39.240  32.211   6.450
 9384POPC   D2A63400  39.241  32.270   6.750
 9384POPC   C3A63401  39.228  32.206   7.050
 9384POPC   C4A63402  39.277  32.225   7.350
 9384POPC   C1B63403  39.500  32.226   6.450
 9384POPC   C2B63404  39.441  32.270   6.750
 9384POPC   C3B63405  39.449  32.221   7.050
 9384POPC   C4B63406  39.464  32.225   7.350
 9385POPC   NC363407  19.814  28.409   5.550
 9385POPC   PO463408  19.831  28.370   5.850
 9385POPC   GL163409  19.837  28.321   6.150
 9385POPC   GL263410  19.816  28.300   6.150
 9385POPC   C1A63411  19.824  28.339   6.450
 9385POPC   D2A63412  19.808  28.398   6.750
 9385POPC   C3A63413  19.802  28.397   7.050
 9385POPC   C4A63414  19.791  28.397   7.350
 9385POPC   C1B63415  19.756  28.120   6.450
 9385POPC   C2B63416  19.688  28.119   6.750
 9385POPC   C3B63417  19.725  28.122   7.050
 9385POPC   C4B63418  19.747  28.157   7.350
 9386POPC   NC363419  15.920  30.699   5.550
 9386POPC   PO463420  15.991  30.701   5.850
 9386POPC   GL163421  15.924  30.660   6.150
 9386POPC   GL263422  15.993  30.858   6.150
 9386POPC   C1A63423  15.947  30.694   6.450
 9386POPC   D2A63424  15.938  30.733   6.750
 9386POPC   C3A63425  15.950  30.731   7.050
 9386POPC   C4A63426  15.944  30.719   7.350
 9386POPC   C1B63427  16.060  30.958   6.450
 9386POPC   C2B63428  15.988  30.909   6.750
 9386POPC   C3B63429  16.009  30.900   7.050
 9386POPC   C4B63430  16.081  30.913   7.350
 9387POPC   NC363431   5.875  33.002   5.550
 9387POPC   PO463432   5.829  33.054   5.850
 9387POPC   GL163433   5.848  32.989   6.150
 9387POPC   GL263434   5.721  32.990   6.150
 9387POPC   C1A63435   5.879  33.030   6.450
 9387POPC   D2A63436   5.880  33.072   6.750
 9387POPC   C3A63437   5.857  32.980   7.050
 9387POPC   C4A63438   5.887  33.040   7.350
 9387POPC   C1B63439   5.619  32.999   6.450
 9387POPC   C2B63440   5.611  33.033   6.750
 9387POPC   C3B63441   5.602  33.026   7.050
 9387POPC   C4B63442   5.667  33.044   7.350
 9388POPC   NC363443  17.495   8.191   5.550
 9388POPC   PO463444  17.525   8.167   5.850
 9388POPC   GL163445  17.462   8.168   6.150
 9388POPC   GL263446  17.649   8.108   6.150
 9388POPC   C1A63447  17.480   8.246   6.450
 9388POPC   D2A63448  17.473   8.154   6.750
 9388POPC   C3A63449  17.528   8.169   7.050
 9388POPC   C4A63450  17.461   8.219   7.350
 9388POPC   C1B63451  17.710   8.109   6.450
 9388POPC   C2B63452  17.676   8.080   6.750
 9388POPC   C3B63453  17.763   8.039   7.050
 9388POPC   C4B63454  17.731   8.067   7.350
 9389POPC   NC363455   8.219   9.017   5.550
 9389POPC   PO463456   8.173   8.973   5.850
 9389POPC   GL163457   8.164   8.945   6.150
 9389POPC   GL263458   8.180   8.832   6.150
 9389POPC   C1A63459   8.203   8.985   6.450
 9389POPC   D2A63460   8.159   8.956   6.750
 9389POPC   C3A63461   8.215   8.968   7.050
 9389POPC   C4A63462   8.221   9.011   7.350
 9389POPC   C1B63463   8.205   8.746   6.450
 9389POPC   C2B63464   8.180   8.676   6.750
 9389POPC   C3B63465   8.238   8.773   7.050
 9389POPC   C4B63466   8.248   8.753   7.350
 9390POPC   NC363467  32.235  34.620   5.550
 9390POPC   PO463468  32.252  34.528   5.850
 9390POPC   GL163469  32.208  34.610   6.150
 9390POPC   GL263470  32.366  34.616   6.150
 9390POPC   C1A63471  32.267  34.587   6.450
 9390POPC   D2A63472  32.204  34.534   6.750
 9390POPC   C3A63473  32.203  34.621   7.050
 9390POPC   C4A63474  32.207  34.577   7.350
 9390POPC   C1B63475  32.499  34.630   6.450
 9390POPC   C2B63476  32.463  34.548   6.750
 9390POPC   C3B63477  32.490  34.553   7.050
 9390POPC   C4B63478  32.511  34.559   7.350
 9391POPC   NC363479  22.204  25.230   5.550
 9391POPC   PO463480  22.197  25.242   5.850
 9391POPC   GL163481  22.131  25.261   6.150
 9391POPC   GL263482  22.163  25.412   6.150
 9391POPC   C1A63483  22.121  25.308   6.450
 9391POPC   D2A63484  22.160  25.219   6.750
 9391POPC   C3A63485  22.119  25.251   7.050
 9391POPC   C4A63486  22.117  25.296   7.350
 9391POPC   C1B63487  22.130  25.555   6.450
 9391POPC   C2B63488  22.109  25.559   6.750
 9391POPC   C3B63489  22.098  25.479   7.050
 9391POPC   C4B63490  22.090  25.545   7.350
 9392POPC   NC363491  11.308   8.209   5.550
 9392POPC   PO463492  11.341   8.172   5.850
 9392POPC   GL163493  11.259   8.191   6.150
 9392POPC   GL263494  11.403   8.309   6.150
 9392POPC   C1A63495  11.331   8.160   6.450
 9392POPC   D2A63496  11.301   8.243   6.750
 9392POPC   C3A63497  11.262   8.161   7.050
 9392POPC   C4A63498  11.285   8.213   7.350
 9392POPC   C1B63499  11.467   8.405   6.450
 9392POPC   C2B63500  11.453   8.359   6.750
 9392POPC   C3B63501  11.464   8.341   7.050
 9392POPC   C4B63502  11.517   8.348   7.350
 9393POPC   NC363503  27.617  29.123   5.550
 9393POPC   PO463504  27.614  29.108   5.850
 9393POPC   GL163505  27.574  29.122   6.150
 9393POPC   GL263506  27.434  29.162   6.150
 9393POPC   C1A63507  27.608  29.133   6.450
 9393POPC   D2A63508  27.590  29.121   6.750
 9393POPC   C3A63509  27.550  29.116   7.050
 9393POPC   C4A63510  27.620  29.151   7.350
 9393POPC   C1B63511  27.384  29.231   6.450
 9393POPC   C2B63512  27.356  29.198   6.750
 9393POPC   C3B63513  27.321  29.266   7.050
 9393POPC   C4B63514  27.392  29.241   7.350
 9394POPC   NC363515  15.213  12.104   5.550
 9394POPC   PO463516  15.161  12.061   5.850
 9394POPC   GL163517  15.176  12.075   6.150
 9394POPC   GL263518  15.063  12.147   6.150
 9394POPC   C1A63519  15.224  12.100   6.450
 9394POPC   D2A63520  15.172  12.074   6.750
 9394POPC   C3A63521  15.140  12.066   7.050
 9394POPC   C4A63522  15.172  12.114   7.350
 9394POPC   C1B63523  15.044  12.260   6.450
 9394POPC   C2B63524  15.032  12.233   6.750
 9394POPC   C3B63525  14.985  12.269   7.050
 9394POPC   C4B63526  15.028  12.238   7.350
 9395POPC   NC363527  33.056  12.032   5.550
 9395POPC   PO463528  33.051  12.076   5.850
 9395POPC   GL163529  33.045  12.059   6.150
 9395POPC   GL263530  33.076  12.248   6.150
 9395POPC   C1A63531  33.066  12.083   6.450
 9395POPC   D2A63532  33.056  12.066   6.750
 9395POPC   C3A63533  33.045  12.088   7.050
 9395POPC   C4A63534  33.018  12.046   7.350
 9395POPC   C1B63535  33.080  12.341   6.450
 9395POPC   C2B63536  33.007  12.283   6.750
 9395POPC   C3B63537  33.032  12.328   7.050
 9395POPC   C4B63538  33.044  12.331   7.350
 9396POPC   NC363539  30.669  22.148   5.550
 9396POPC   PO463540  30.680  22.139   5.850
 9396POPC   GL163541  30.716  22.197   6.150
 9396POPC   GL263542  30.822  22.113   6.150
 9396POPC   C1A63543  30.652  22.181   6.450
 9396POPC   D2A63544  30.732  22.171   6.750
 9396POPC   C3A63545  30.666  22.186   7.050
 9396POPC   C4A63546  30.692  22.169   7.350
 9396POPC   C1B63547  30.917  22.173   6.450
 9396POPC   C2B63548  30.912  22.201   6.750
 9396POPC   C3B63549  30.980  22.145   7.050
 9396POPC   C4B63550  30.940  22.168   7.350
 9397POPC   NC363551  35.384   1.187   5.550
 9397POPC   PO463552  35.385   1.215   5.850
 9397POPC   GL163553  35.329   1.168   6.150
 9397POPC   GL263554  35.273   1.165   6.150
 9397POPC   C1A63555  35.393   1.226   6.450
 9397POPC   D2A63556  35.371   1.187   6.750
 9397POPC   C3A63557  35.325   1.170   7.050
 9397POPC   C4A63558  35.378   1.182   7.350
 9397POPC   C1B63559  35.074   1.167   6.450
 9397POPC   C2B63560  35.100   1.161   6.750
 9397POPC   C3B63561  35.144   1.156   7.050
 9397POPC   C4B63562  35.076   1.171   7.350
 9398POPC   NC363563  35.334  34.619   5.550
 9398POPC   PO463564  35.361  34.566   5.850
 9398POPC   GL163565  35.368  34.597   6.150
 9398POPC   GL263566  35.466  34.697   6.150
 9398POPC   C1A63567  35.313  34.589   6.450
 9398POPC   D2A63568  35.353  34.604   6.750
 9398POPC   C3A63569  35.320  34.622   7.050
 9398POPC   C4A63570  35.334  34.613   7.350
 9398POPC   C1B63571  35.472  34.753   6.450
 9398POPC   C2B63572  35.512  34.824   6.750
 9398POPC   C3B63573  35.442  34.796   7.050
 9398POPC   C4B63574  35.437  34.809   7.350
 9399POPC   NC363575  36.890  13.602   5.550
 9399POPC   PO463576  36.864  13.660   5.850
 9399POPC   GL163577  36.859  13.671   6.150
 9399POPC   GL263578  36.973  13.665   6.150
 9399POPC   C1A63579  36.906  13.672   6.450
 9399POPC   D2A63580  36.892  13.636   6.750
 9399POPC   C3A63581  36.861  13.608   7.050
 9399POPC   C4A63582  36.864  13.585   7.350
 9399POPC   C1B63583  37.080  13.771   6.450
 9399POPC   C2B63584  37.161  13.759   6.750
 9399POPC   C3B63585  37.114  13.754   7.050
 9399POPC   C4B63586  37.083  13.769   7.350
 9400POPC   NC363587   8.151  21.414   5.550
 9400POPC   PO463588   8.163  21.355   5.850
 9400POPC   GL163589   8.231  21.390   6.150
 9400POPC   GL263590   8.111  21.451   6.150
 9400POPC   C1A63591   8.190  21.397   6.450
 9400POPC   D2A63592   8.154  21.385   6.750
 9400POPC   C3A63593   8.168  21.434   7.050
 9400POPC   C4A63594   8.230  21.351   7.350
 9400POPC   C1B63595   8.000  21.470   6.450
 9400POPC   C2B63596   7.992  21.495   6.750
 9400POPC   C3B63597   7.939  21.446   7.050
 9400POPC   C4B63598   7.967  21.474   7.350
 9401POPC   NC363599   5.891  12.049   5.550
 9401POPC   PO463600   5.864  12.088   5.850
 9401POPC   GL163601   5.827  12.032   6.150
 9401POPC   GL263602   5.736  12.066   6.150
 9401POPC   C1A63603   5.854  12.042   6.450
 9401POPC   D2A63604   5.897  12.047   6.750
 9401POPC   C3A63605   5.829  12.087   7.050
 9401POPC   C4A63606   5.834  12.103   7.350
 9401POPC   C1B63607   5.665  11.996   6.450
 9401POPC   C2B63608   5.672  12.005   6.750
 9401POPC   C3B63609   5.602  11.981   7.050
 9401POPC   C4B63610   5.671  12.043   7.350
 9402POPC   NC363611  35.316  21.370   5.550
 9402POPC   PO463612  35.348  21.430   5.850
 9402POPC   GL163613  35.378  21.411   6.150
 9402POPC   GL263614  35.402  21.272   6.150
 9402POPC   C1A63615  35.309  21.428   6.450
 9402POPC   D2A63616  35.341  21.406   6.750
 9402POPC   C3A63617  35.351  21.340   7.050
 9402POPC   C4A63618  35.377  21.434   7.350
 9402POPC   C1B63619  35.562  21.173   6.450
 9402POPC   C2B63620  35.532  21.255   6.750
 9402POPC   C3B63621  35.564  21.179   7.050
 9402POPC   C4B63622  35.516  21.240   7.350
 9403POPC   NC363623  29.934   2.771   5.550
 9403POPC   PO463624  29.923   2.777   5.850
 9403POPC   GL163625  29.933   2.744   6.150
 9403POPC   GL263626  29.893   2.609   6.150
 9403POPC   C1A63627  29.939   2.800   6.450
 9403POPC   D2A63628  29.911   2.751   6.750
 9403POPC   C3A63629  29.942   2.755   7.050
 9403POPC   C4A63630  29.954   2.802   7.350
 9403POPC   C1B63631  29.930   2.525   6.450
 9403POPC   C2B63632  29.974   2.483   6.750
 9403POPC   C3B63633  29.968   2.516   7.050
 9403POPC   C4B63634  29.971   2.482   7.350
 9404POPC   NC363635  29.188  40.031   5.550
 9404POPC   PO463636  29.145  39.981   5.850
 9404POPC   GL163637  29.118  40.011   6.150
 9404POPC   GL263638  29.193  39.924   6.150
 9404POPC   C1A63639  29.167  40.000   6.450
 9404POPC   D2A63640  29.153  40.052   6.750
 9404POPC   C3A63641  29.170  40.016   7.050
 9404POPC   C4A63642  29.126  40.046   7.350
 9404POPC   C1B63643  29.291  39.849   6.450
 9404POPC   C2B63644  29.314  39.817   6.750
 9404POPC   C3B63645  29.293  39.823   7.050
 9404POPC   C4B63646  29.323  39.838   7.350
 9405POPC   NC363647  15.229  30.659   5.550
 9405POPC   PO463648  15.199  30.697   5.850
 9405POPC   GL163649  15.188  30.712   6.150
 9405POPC   GL263650  15.245  30.800   6.150
 9405POPC   C1A63651  15.142  30.718   6.450
 9405POPC   D2A63652  15.148  30.741   6.750
 9405POPC   C3A63653  15.147  30.662   7.050
 9405POPC   C4A63654  15.176  30.718   7.350
 9405POPC   C1B63655  15.443  30.772   6.450
 9405POPC   C2B63656  15.397  30.801   6.750
 9405POPC   C3B63657  15.446  30.809   7.050
 9405POPC   C4B63658  15.368  30.829   7.350
 9406POPC   NC363659  41.602  10.488   5.550
 9406POPC   PO463660  41.526  10.573   5.850
 9406POPC   GL163661  41.599  10.543   6.150
 9406POPC   GL263662  41.595  10.405   6.150
 9406POPC   C1A63663  41.535  10.506   6.450
 9406POPC   D2A63664  41.521  10.511   6.750
 9406POPC   C3A63665  41.587  10.518   7.050
 9406POPC   C4A63666  41.530  10.492   7.350
 9406POPC   C1B63667  41.556  10.262   6.450
 9406POPC   C2B63668  41.601  10.304   6.750
 9406POPC   C3B63669  41.612  10.290   7.050
 9406POPC   C4B63670  41.553  10.312   7.350
 9407POPC   NC363671   5.855  27.572   5.550
 9407POPC   PO463672   5.866  27.591   5.850
 9407POPC   GL163673   5.826  27.586   6.150
 9407POPC   GL263674   5.963  27.608   6.150
 9407POPC   C1A63675   5.840  27.554   6.450
 9407POPC   D2A63676   5.858  27.623   6.750
 9407POPC   C3A63677   5.842  27.544   7.050
 9407POPC   C4A63678   5.889  27.590   7.350
 9407POPC   C1B63679   6.089  27.625   6.450
 9407POPC   C2B63680   6.102  27.642   6.750
 9407POPC   C3B63681   6.098  27.637   7.050
 9407POPC   C4B63682   6.103  27.602   7.350
 9408POPC   NC363683  24.515  42.317   5.550
 9408POPC   PO463684  24.485  42.330   5.850
 9408POPC   GL163685  24.497  42.304   6.150
 9408POPC   GL263686  24.444  42.266   6.150
 9408POPC   C1A63687  24.539  42.308   6.450
 9408POPC   D2A63688  24.456  42.341   6.750
 9408POPC   C3A63689  24.448  42.287   7.050
 9408POPC   C4A63690  24.466  42.331   7.350
 9408POPC   C1B63691  24.364  42.067   6.450
 9408POPC   C2B63692  24.398  42.138   6.750
 9408POPC   C3B63693  24.445  42.091   7.050
 9408POPC   C4B63694  24.388  42.113   7.350
 9409POPC   NC363695  29.933  32.230   5.550
 9409POPC   PO463696  29.952  32.224   5.850
 9409POPC   GL163697  29.959  32.210   6.150
 9409POPC   GL263698  29.996  32.120   6.150
 9409POPC   C1A63699  29.930  32.267   6.450
 9409POPC   D2A63700  29.930  32.222   6.750
 9409POPC   C3A63701  29.929  32.208   7.050
 9409POPC   C4A63702  29.878  32.287   7.350
 9409POPC   C1B63703  30.140  32.063   6.450
 9409POPC   C2B63704  30.129  32.053   6.750
 9409POPC   C3B63705  30.109  32.094   7.050
 9409POPC   C4B63706  30.098  32.098   7.350
 9410POPC   NC363707  33.002  12.898   5.550
 9410POPC   PO463708  32.994  12.842   5.850
 9410POPC   GL163709  33.045  12.804   6.150
 9410POPC   GL263710  32.927  12.782   6.150
 9410POPC   C1A63711  33.015  12.827   6.450
 9410POPC   D2A63712  32.993  12.846   6.750
 9410POPC   C3A63713  33.018  12.870   7.050
 9410POPC   C4A63714  32.976  12.834   7.350
 9410POPC   C1B63715  32.947  12.662   6.450
 9410POPC   C2B63716  32.945  12.611   6.750
 9410POPC   C3B63717  32.961  12.604   7.050
 9410POPC   C4B63718  32.887  12.672   7.350
 9411POPC   NC363719  39.207  11.264   5.550
 9411POPC   PO463720  39.277  11.335   5.850
 9411POPC   GL163721  39.230  11.278   6.150
 9411POPC   GL263722  39.075  11.320   6.150
 9411POPC   C1A63723  39.242  11.298   6.450
 9411POPC   D2A63724  39.217  11.265   6.750
 9411POPC   C3A63725  39.212  11.261   7.050
 9411POPC   C4A63726  39.236  11.288   7.350
 9411POPC   C1B63727  38.991  11.394   6.450
 9411POPC   C2B63728  39.008  11.466   6.750
 9411POPC   C3B63729  39.011  11.461   7.050
 9411POPC   C4B63730  39.066  11.405   7.350
 9412POPC   NC363731  11.283  30.704   5.550
 9412POPC   PO463732  11.268  30.692   5.850
 9412POPC   GL163733  11.329  30.706   6.150
 9412POPC   GL263734  11.181  30.821   6.150
 9412POPC   C1A63735  11.261  30.693   6.450
 9412POPC   D2A63736  11.301  30.693   6.750
 9412POPC   C3A63737  11.259  30.743   7.050
 9412POPC   C4A63738  11.315  30.672   7.350
 9412POPC   C1B63739  11.165  30.861   6.450
 9412POPC   C2B63740  11.101  30.888   6.750
 9412POPC   C3B63741  11.190  30.940   7.050
 9412POPC   C4B63742  11.105  30.920   7.350
 9413POPC   NC363743  19.028  27.602   5.550
 9413POPC   PO463744  19.011  27.567   5.850
 9413POPC   GL163745  19.084  27.595   6.150
 9413POPC   GL263746  18.911  27.508   6.150
 9413POPC   C1A63747  19.017  27.572   6.450
 9413POPC   D2A63748  19.101  27.569   6.750
 9413POPC   C3A63749  19.061  27.566   7.050
 9413POPC   C4A63750  19.093  27.544   7.350
 9413POPC   C1B63751  18.874  27.510   6.450
 9413POPC   C2B63752  18.806  27.516   6.750
 9413POPC   C3B63753  18.822  27.483   7.050
 9413POPC   C4B63754  18.837  27.442   7.350
 9414POPC   NC363755   8.968  34.561   5.550
 9414POPC   PO463756   8.948  34.587   5.850
 9414POPC   GL163757   9.011  34.538   6.150
 9414POPC   GL263758   8.848  34.637   6.150
 9414POPC   C1A63759   9.004  34.623   6.450
 9414POPC   D2A63760   9.004  34.607   6.750
 9414POPC   C3A63761   8.980  34.620   7.050
 9414POPC   C4A63762   8.926  34.607   7.350
 9414POPC   C1B63763   8.769  34.600   6.450
 9414POPC   C2B63764   8.688  34.618   6.750
 9414POPC   C3B63765   8.745  34.585   7.050
 9414POPC   C4B63766   8.697  34.608   7.350
 9415POPC   NC363767  27.579  26.049   5.550
 9415POPC   PO463768  27.553  26.042   5.850
 9415POPC   GL163769  27.609  26.052   6.150
 9415POPC   GL263770  27.546  25.881   6.150
 9415POPC   C1A63771  27.579  26.076   6.450
 9415POPC   D2A63772  27.560  26.067   6.750
 9415POPC   C3A63773  27.599  26.064   7.050
 9415POPC   C4A63774  27.575  26.077   7.350
 9415POPC   C1B63775  27.581  25.834   6.450
 9415POPC   C2B63776  27.541  25.808   6.750
 9415POPC   C3B63777  27.592  25.801   7.050
 9415POPC   C4B63778  27.606  25.813   7.350
 9416POPC   NC363779  27.547  40.027   5.550
 9416POPC   PO463780  27.604  39.961   5.850
 9416POPC   GL163781  27.624  40.020   6.150
 9416POPC   GL263782  27.746  40.098   6.150
 9416POPC   C1A63783  27.565  40.054   6.450
 9416POPC   D2A63784  27.627  40.005   6.750
 9416POPC   C3A63785  27.557  40.056   7.050
 9416POPC   C4A63786  27.582  39.972   7.350
 9416POPC   C1B63787  27.819  40.185   6.450
 9416POPC   C2B63788  27.758  40.184   6.750
 9416POPC   C3B63789  27.792  40.154   7.050
 9416POPC   C4B63790  27.821  40.126   7.350
 9417POPC   NC363791  17.553  43.932   5.550
 9417POPC   PO463792  17.528  43.838   5.850
 9417POPC   GL163793  17.458  43.861   6.150
 9417POPC   GL263794  17.554  44.012   6.150
 9417POPC   C1A63795  17.539  43.932   6.450
 9417POPC   D2A63796  17.513  43.931   6.750
 9417POPC   C3A63797  17.500  43.935   7.050
 9417POPC   C4A63798  17.480  43.911   7.350
 9417POPC   C1B63799  17.541  44.157   6.450
 9417POPC   C2B63800  17.577  44.150   6.750
 9417POPC   C3B63801  17.608  44.134   7.050
 9417POPC   C4B63802  17.539  44.161   7.350
 9418POPC   NC363803   8.987  10.543   5.550
 9418POPC   PO463804   8.972  10.531   5.850
 9418POPC   GL163805   8.923  10.548   6.150
 9418POPC   GL263806   8.913  10.433   6.150
 9418POPC   C1A63807   8.945  10.483   6.450
 9418POPC   D2A63808   9.020  10.573   6.750
 9418POPC   C3A63809   8.972  10.543   7.050
 9418POPC   C4A63810   8.958  10.474   7.350
 9418POPC   C1B63811   8.886  10.307   6.450
 9418POPC   C2B63812   8.923  10.333   6.750
 9418POPC   C3B63813   8.864  10.329   7.050
 9418POPC   C4B63814   8.847  10.317   7.350
 9419POPC   NC363815  12.032  41.557   5.550
 9419POPC   PO463816  12.062  41.585   5.850
 9419POPC   GL163817  12.109  41.516   6.150
 9419POPC   GL263818  12.103  41.708   6.150
 9419POPC   C1A63819  12.032  41.598   6.450
 9419POPC   D2A63820  12.101  41.591   6.750
 9419POPC   C3A63821  12.056  41.603   7.050
 9419POPC   C4A63822  12.102  41.552   7.350
 9419POPC   C1B63823  12.123  41.810   6.450
 9419POPC   C2B63824  12.120  41.827   6.750
 9419POPC   C3B63825  12.098  41.844   7.050
 9419POPC   C4B63826  12.047  41.766   7.350
 9420POPC   NC363827  10.481   1.244   5.550
 9420POPC   PO463828  10.539   1.224   5.850
 9420POPC   GL163829  10.522   1.224   6.150
 9420POPC   GL263830  10.397   1.307   6.150
 9420POPC   C1A63831  10.538   1.230   6.450
 9420POPC   D2A63832  10.556   1.228   6.750
 9420POPC   C3A63833  10.490   1.203   7.050
 9420POPC   C4A63834  10.551   1.257   7.350
 9420POPC   C1B63835  10.350   1.418   6.450
 9420POPC   C2B63836  10.329   1.384   6.750
 9420POPC   C3B63837  10.306   1.430   7.050
 9420POPC   C4B63838  10.371   1.361   7.350
 9421POPC   NC363839  28.376  12.050   5.550
 9421POPC   PO463840  28.352  12.096   5.850
 9421POPC   GL163841  28.389  12.063   6.150
 9421POPC   GL263842  28.233  12.121   6.150
 9421POPC   C1A63843  28.384  12.071   6.450
 9421POPC   D2A63844  28.395  12.114   6.750
 9421POPC   C3A63845  28.353  12.069   7.050
 9421POPC   C4A63846  28.354  12.062   7.350
 9421POPC   C1B63847  28.114  12.099   6.450
 9421POPC   C2B63848  28.166  12.156   6.750
 9421POPC   C3B63849  28.093  12.112   7.050
 9421POPC   C4B63850  28.140  12.161   7.350
 9422POPC   NC363851  28.386   8.193   5.550
 9422POPC   PO463852  28.407   8.179   5.850
 9422POPC   GL163853  28.405   8.199   6.150
 9422POPC   GL263854  28.276   8.123   6.150
 9422POPC   C1A63855  28.336   8.176   6.450
 9422POPC   D2A63856  28.344   8.147   6.750
 9422POPC   C3A63857  28.357   8.222   7.050
 9422POPC   C4A63858  28.362   8.169   7.350
 9422POPC   C1B63859  28.173   8.028   6.450
 9422POPC   C2B63860  28.135   8.075   6.750
 9422POPC   C3B63861  28.199   8.084   7.050
 9422POPC   C4B63862  28.118   8.035   7.350
 9423POPC   NC363863  38.481  27.635   5.550
 9423POPC   PO463864  38.453  27.640   5.850
 9423POPC   GL163865  38.437  27.592   6.150
 9423POPC   GL263866  38.496  27.675   6.150
 9423POPC   C1A63867  38.483  27.586   6.450
 9423POPC   D2A63868  38.474  27.617   6.750
 9423POPC   C3A63869  38.486  27.574   7.050
 9423POPC   C4A63870  38.432  27.552   7.350
 9423POPC   C1B63871  38.578  27.812   6.450
 9423POPC   C2B63872  38.575  27.809   6.750
 9423POPC   C3B63873  38.496  27.853   7.050
 9423POPC   C4B63874  38.573  27.833   7.350
 9424POPC   NC363875  23.692  27.634   5.550
 9424POPC   PO463876  23.733  27.570   5.850
 9424POPC   GL163877  23.713  27.615   6.150
 9424POPC   GL263878  23.637  27.617   6.150
 9424POPC   C1A63879  23.743  27.610   6.450
 9424POPC   D2A63880  23.748  27.548   6.750
 9424POPC   C3A63881  23.733  27.612   7.050
 9424POPC   C4A63882  23.731  27.583   7.350
 9424POPC   C1B63883  23.465  27.727   6.450
 9424POPC   C2B63884  23.447  27.719   6.750
 9424POPC   C3B63885  23.502  27.737   7.050
 9424POPC   C4B63886  23.447  27.746   7.350
 9425POPC   NC363887  29.142  30.733   5.550
 9425POPC   PO463888  29.101  30.709   5.850
 9425POPC   GL163889  29.116  30.649   6.150
 9425POPC   GL263890  29.219  30.702   6.150
 9425POPC   C1A63891  29.133  30.716   6.450
 9425POPC   D2A63892  29.120  30.701   6.750
 9425POPC   C3A63893  29.097  30.696   7.050
 9425POPC   C4A63894  29.182  30.698   7.350
 9425POPC   C1B63895  29.398  30.640   6.450
 9425POPC   C2B63896  29.341  30.583   6.750
 9425POPC   C3B63897  29.425  30.580   7.050
 9425POPC   C4B63898  29.426  30.616   7.350
 9426POPC   NC363899   3.499  41.566   5.550
 9426POPC   PO463900   3.531  41.533   5.850
 9426POPC   GL163901   3.587  41.553   6.150
 9426POPC   GL263902   3.639  41.524   6.150
 9426POPC   C1A63903   3.516  41.562   6.450
 9426POPC   D2A63904   3.497  41.586   6.750
 9426POPC   C3A63905   3.512  41.538   7.050
 9426POPC   C4A63906   3.553  41.516   7.350
 9426POPC   C1B63907   3.748  41.456   6.450
 9426POPC   C2B63908   3.815  41.501   6.750
 9426POPC   C3B63909   3.784  41.505   7.050
 9426POPC   C4B63910   3.781  41.503   7.350
 9427POPC   NC363911  29.901  33.815   5.550
 9427POPC   PO463912  29.937  33.807   5.850
 9427POPC   GL163913  29.872  33.759   6.150
 9427POPC   GL263914  29.882  33.916   6.150
 9427POPC   C1A63915  29.877  33.753   6.450
 9427POPC   D2A63916  29.945  33.775   6.750
 9427POPC   C3A63917  29.943  33.807   7.050
 9427POPC   C4A63918  29.879  33.784   7.350
 9427POPC   C1B63919  29.720  33.993   6.450
 9427POPC   C2B63920  29.743  34.041   6.750
 9427POPC   C3B63921  29.767  33.944   7.050
 9427POPC   C4B63922  29.792  33.990   7.350
 9428POPC   NC363923  38.485  19.816   5.550
 9428POPC   PO463924  38.439  19.850   5.850
 9428POPC   GL163925  38.451  19.786   6.150
 9428POPC   GL263926  38.293  19.848   6.150
 9428POPC   C1A63927  38.435  19.824   6.450
 9428POPC   D2A63928  38.424  19.825   6.750
 9428POPC   C3A63929  38.407  19.822   7.050
 9428POPC   C4A63930  38.464  19.789   7.350
 9428POPC   C1B63931  38.244  19.898   6.450
 9428POPC   C2B63932  38.200  19.831   6.750
 9428POPC   C3B63933  38.221  19.856   7.050
 9428POPC   C4B63934  38.248  19.894   7.350
 9429POPC   NC363935  37.684  32.992   5.550
 9429POPC   PO463936  37.723  33.015   5.850
 9429POPC   GL163937  37.659  33.028   6.150
 9429POPC   GL263938  37.555  32.881   6.150
 9429POPC   C1A63939  37.659  33.025   6.450
 9429POPC   D2A63940  37.662  33.040   6.750
 9429POPC   C3A63941  37.634  32.983   7.050
 9429POPC   C4A63942  37.635  32.985   7.350
 9429POPC   C1B63943  37.565  32.818   6.450
 9429POPC   C2B63944  37.542  32.848   6.750
 9429POPC   C3B63945  37.554  32.862   7.050
 9429POPC   C4B63946  37.538  32.812   7.350
 9430POPC   NC363947  33.773   1.258   5.550
 9430POPC   PO463948  33.766   1.220   5.850
 9430POPC   GL163949  33.811   1.260   6.150
 9430POPC   GL263950  33.903   1.096   6.150
 9430POPC   C1A63951  33.778   1.194   6.450
 9430POPC   D2A63952  33.810   1.190   6.750
 9430POPC   C3A63953  33.844   1.237   7.050
 9430POPC   C4A63954  33.829   1.190   7.350
 9430POPC   C1B63955  33.961   1.020   6.450
 9430POPC   C2B63956  33.951   1.024   6.750
 9430POPC   C3B63957  33.957   1.020   7.050
 9430POPC   C4B63958  34.043   1.031   7.350
 9431POPC   NC363959  29.166  38.486   5.550
 9431POPC   PO463960  29.173  38.406   5.850
 9431POPC   GL163961  29.118  38.482   6.150
 9431POPC   GL263962  29.259  38.448   6.150
 9431POPC   C1A63963  29.162  38.431   6.450
 9431POPC   D2A63964  29.097  38.423   6.750
 9431POPC   C3A63965  29.168  38.420   7.050
 9431POPC   C4A63966  29.098  38.464   7.350
 9431POPC   C1B63967  29.359  38.383   6.450
 9431POPC   C2B63968  29.341  38.379   6.750
 9431POPC   C3B63969  29.369  38.358   7.050
 9431POPC   C4B63970  29.400  38.360   7.350
 9432POPC   NC363971   1.177   8.993   5.550
 9432POPC   PO463972   1.179   8.935   5.850
 9432POPC   GL163973   1.174   8.984   6.150
 9432POPC   GL263974   1.069   8.994   6.150
 9432POPC   C1A63975   1.241   9.019   6.450
 9432POPC   D2A63976   1.225   8.989   6.750
 9432POPC   C3A63977   1.169   8.974   7.050
 9432POPC   C4A63978   1.187   8.991   7.350
 9432POPC   C1B63979   0.973   8.947   6.450
 9432POPC   C2B63980   0.963   9.007   6.750
 9432POPC   C3B63981   1.012   9.004   7.050
 9432POPC   C4B63982   0.917   8.938   7.350
 9433POPC   NC363983  30.650  38.490   5.550
 9433POPC   PO463984  30.723  38.449   5.850
 9433POPC   GL163985  30.726  38.436   6.150
 9433POPC   GL263986  30.583  38.443   6.150
 9433POPC   C1A63987  30.723  38.479   6.450
 9433POPC   D2A63988  30.705  38.487   6.750
 9433POPC   C3A63989  30.728  38.432   7.050
 9433POPC   C4A63990  30.745  38.442   7.350
 9433POPC   C1B63991  30.413  38.355   6.450
 9433POPC   C2B63992  30.502  38.341   6.750
 9433POPC   C3B63993  30.486  38.388   7.050
 9433POPC   C4B63994  30.440  38.319   7.350
 9434POPC   NC363995  10.499  26.825   5.550
 9434POPC   PO463996  10.526  26.812   5.850
 9434POPC   GL163997  10.485  26.810   6.150
 9434POPC   GL263998  10.602  26.746   6.150
 9434POPC   C1A63999  10.494  26.835   6.450
 9434POPC   D2A64000  10.556  26.809   6.750
 9434POPC   C3A64001  10.530  26.827   7.050
 9434POPC   C4A64002  10.490  26.797   7.350
 9434POPC   C1B64003  10.727  26.698   6.450
 9434POPC   C2B64004  10.793  26.739   6.750
 9434POPC   C3B64005  10.768  26.720   7.050
 9434POPC   C4B64006  10.774  26.711   7.350
 9435POPC   NC364007  39.196  25.252   5.550
 9435POPC   PO464008  39.215  25.303   5.850
 9435POPC   GL164009  39.183  25.254   6.150
 9435POPC   GL264010  39.361  25.316   6.150
 9435POPC   C1A64011  39.268  25.245   6.450
 9435POPC   D2A64012  39.268  25.276   6.750
 9435POPC   C3A64013  39.276  25.261   7.050
 9435POPC   C4A64014  39.191  25.261   7.350
 9435POPC   C1B64015  39.439  25.323   6.450
 9435POPC   C2B64016  39.423  25.328   6.750
 9435POPC   C3B64017  39.447  25.395   7.050
 9435POPC   C4B64018  39.497  25.398   7.350
 9436POPC   NC364019  34.589  37.657   5.550
 9436POPC   PO464020  34.591  37.710   5.850
 9436POPC   GL164021  34.545  37.675   6.150
 9436POPC   GL264022  34.634  37.775   6.150
 9436POPC   C1A64023  34.617  37.633   6.450
 9436POPC   D2A64024  34.575  37.706   6.750
 9436POPC   C3A64025  34.593  37.648   7.050
 9436POPC   C4A64026  34.589  37.659   7.350
 9436POPC   C1B64027  34.717  37.853   6.450
 9436POPC   C2B64028  34.759  37.886   6.750
 9436POPC   C3B64029  34.761  37.867   7.050
 9436POPC   C4B64030  34.725  37.891   7.350
 9437POPC   NC364031  12.050  26.865   5.550
 9437POPC   PO464032  12.113  26.793   5.850
 9437POPC   GL164033  12.049  26.795   6.150
 9437POPC   GL264034  12.242  26.760   6.150
 9437POPC   C1A64035  12.083  26.834   6.450
 9437POPC   D2A64036  12.083  26.856   6.750
 9437POPC   C3A64037  12.074  26.770   7.050
 9437POPC   C4A64038  12.101  26.781   7.350
 9437POPC   C1B64039  12.345  26.774   6.450
 9437POPC   C2B64040  12.286  26.791   6.750
 9437POPC   C3B64041  12.365  26.732   7.050
 9437POPC   C4B64042  12.314  26.749   7.350
 9438POPC   NC364043  32.233  41.537   5.550
 9438POPC   PO464044  32.265  41.588   5.850
 9438POPC   GL164045  32.212  41.526   6.150
 9438POPC   GL264046  32.163  41.600   6.150
 9438POPC   C1A64047  32.282  41.572   6.450
 9438POPC   D2A64048  32.256  41.549   6.750
 9438POPC   C3A64049  32.296  41.525   7.050
 9438POPC   C4A64050  32.268  41.571   7.350
 9438POPC   C1B64051  31.975  41.693   6.450
 9438POPC   C2B64052  32.018  41.648   6.750
 9438POPC   C3B64053  32.049  41.643   7.050
 9438POPC   C4B64054  32.033  41.613   7.350
 9439POPC   NC364055  41.520  40.750   5.550
 9439POPC   PO464056  41.601  40.787   5.850
 9439POPC   GL164057  41.543  40.822   6.150
 9439POPC   GL264058  41.597  40.645   6.150
 9439POPC   C1A64059  41.583  40.761   6.450
 9439POPC   D2A64060  41.555  40.775   6.750
 9439POPC   C3A64061  41.577  40.743   7.050
 9439POPC   C4A64062  41.512  40.745   7.350
 9439POPC   C1B64063  41.631  40.565   6.450
 9439POPC   C2B64064  41.722  40.605   6.750
 9439POPC   C3B64065  41.695  40.565   7.050
 9439POPC   C4B64066  41.723  40.559   7.350
 9440POPC   NC364067  24.462  18.312   5.550
 9440POPC   PO464068  24.498  18.326   5.850
 9440POPC   GL164069  24.478  18.272   6.150
 9440POPC   GL264070  24.398  18.248   6.150
 9440POPC   C1A64071  24.520  18.252   6.450
 9440POPC   D2A64072  24.448  18.280   6.750
 9440POPC   C3A64073  24.515  18.314   7.050
 9440POPC   C4A64074  24.515  18.328   7.350
 9440POPC   C1B64075  24.203  18.247   6.450
 9440POPC   C2B64076  24.238  18.271   6.750
 9440POPC   C3B64077  24.223  18.279   7.050
 9440POPC   C4B64078  24.201  18.327   7.350
 9441POPC   NC364079   5.109  36.101   5.550
 9441POPC   PO464080   5.096  36.157   5.850
 9441POPC   GL164081   5.125  36.087   6.150
 9441POPC   GL264082   5.193  36.049   6.150
 9441POPC   C1A64083   5.067  36.113   6.450
 9441POPC   D2A64084   5.073  36.080   6.750
 9441POPC   C3A64085   5.140  36.157   7.050
 9441POPC   C4A64086   5.114  36.145   7.350
 9441POPC   C1B64087   5.266  35.952   6.450
 9441POPC   C2B64088   5.231  35.908   6.750
 9441POPC   C3B64089   5.249  35.878   7.050
 9441POPC   C4B64090   5.223  35.899   7.350
 9442POPC   NC364091  10.534  32.286   5.550
 9442POPC   PO464092  10.501  32.225   5.850
 9442POPC   GL164093  10.475  32.253   6.150
 9442POPC   GL264094  10.525  32.142   6.150
 9442POPC   C1A64095  10.536  32.218   6.450
 9442POPC   D2A64096  10.521  32.286   6.750
 9442POPC   C3A64097  10.553  32.211   7.050
 9442POPC   C4A64098  10.480  32.276   7.350
 9442POPC   C1B64099  10.581  31.964   6.450
 9442POPC   C2B64100  10.540  31.962   6.750
 9442POPC   C3B64101  10.537  32.046   7.050
 9442POPC   C4B64102  10.567  31.959   7.350
 9443POPC   NC364103  20.626   0.446   5.550
 9443POPC   PO464104  20.629   0.423   5.850
 9443POPC   GL164105  20.592   0.477   6.150
 9443POPC   GL264106  20.484   0.431   6.150
 9443POPC   C1A64107  20.623   0.411   6.450
 9443POPC   D2A64108  20.568   0.390   6.750
 9443POPC   C3A64109  20.622   0.478   7.050
 9443POPC   C4A64110  20.601   0.458   7.350
 9443POPC   C1B64111  20.402   0.467   6.450
 9443POPC   C2B64112  20.370   0.503   6.750
 9443POPC   C3B64113  20.317   0.504   7.050
 9443POPC   C4B64114  20.361   0.515   7.350
 9444POPC   NC364115  29.150  41.516   5.550
 9444POPC   PO464116  29.137  41.589   5.850
 9444POPC   GL164117  29.096  41.598   6.150
 9444POPC   GL264118  28.993  41.539   6.150
 9444POPC   C1A64119  29.160  41.594   6.450
 9444POPC   D2A64120  29.190  41.581   6.750
 9444POPC   C3A64121  29.179  41.539   7.050
 9444POPC   C4A64122  29.164  41.565   7.350
 9444POPC   C1B64123  28.872  41.414   6.450
 9444POPC   C2B64124  28.903  41.427   6.750
 9444POPC   C3B64125  28.875  41.469   7.050
 9444POPC   C4B64126  28.885  41.415   7.350
 9445POPC   NC364127  12.046  21.338   5.550
 9445POPC   PO464128  12.035  21.386   5.850
 9445POPC   GL164129  12.098  21.415   6.150
 9445POPC   GL264130  12.001  21.267   6.150
 9445POPC   C1A64131  12.059  21.339   6.450
 9445POPC   D2A64132  12.094  21.352   6.750
 9445POPC   C3A64133  12.041  21.413   7.050
 9445POPC   C4A64134  12.112  21.367   7.350
 9445POPC   C1B64135  12.033  21.167   6.450
 9445POPC   C2B64136  11.990  21.164   6.750
 9445POPC   C3B64137  11.976  21.174   7.050
 9445POPC   C4B64138  11.983  21.158   7.350
 9446POPC   NC364139  26.043  43.904   5.550
 9446POPC   PO464140  26.048  43.892   5.850
 9446POPC   GL164141  26.074  43.841   6.150
 9446POPC   GL264142  26.028  43.788   6.150
 9446POPC   C1A64143  26.053  43.910   6.450
 9446POPC   D2A64144  26.000  43.909   6.750
 9446POPC   C3A64145  26.042  43.922   7.050
 9446POPC   C4A64146  26.084  43.884   7.350
 9446POPC   C1B64147  26.068  43.632   6.450
 9446POPC   C2B64148  25.989  43.638   6.750
 9446POPC   C3B64149  26.039  43.650   7.050
 9446POPC   C4B64150  26.049  43.621   7.350
 9447POPC   NC364151  18.246  20.570   5.550
 9447POPC   PO464152  18.308  20.628   5.850
 9447POPC   GL164153  18.291  20.621   6.150
 9447POPC   GL264154  18.277  20.522   6.150
 9447POPC   C1A64155  18.255  20.590   6.450
 9447POPC   D2A64156  18.234  20.577   6.750
 9447POPC   C3A64157  18.258  20.637   7.050
 9447POPC   C4A64158  18.237  20.648   7.350
 9447POPC   C1B64159  18.251  20.403   6.450
 9447POPC   C2B64160  18.254  20.346   6.750
 9447POPC   C3B64161  18.211  20.332   7.050
 9447POPC   C4B64162  18.266  20.408   7.350
 9448POPC   NC364163  37.677  25.315   5.550
 9448POPC   PO464164  37.641  25.259   5.850
 9448POPC   GL164165  37.679  25.264   6.150
 9448POPC   GL264166  37.673  25.365   6.150
 9448POPC   C1A64167  37.668  25.239   6.450
 9448POPC   D2A64168  37.729  25.308   6.750
 9448POPC   C3A64169  37.706  25.235   7.050
 9448POPC   C4A64170  37.643  25.234   7.350
 9448POPC   C1B64171  37.647  25.473   6.450
 9448POPC   C2B64172  37.614  25.484   6.750
 9448POPC   C3B64173  37.651  25.560   7.050
 9448POPC   C4B64174  37.681  25.474   7.350
 9449POPC   NC364175  19.061  32.997   5.550
 9449POPC   PO464176  19.035  32.995   5.850
 9449POPC   GL164177  19.054  32.987   6.150
 9449POPC   GL264178  19.043  32.913   6.150
 9449POPC   C1A64179  19.017  33.066   6.450
 9449POPC   D2A64180  19.040  32.992   6.750
 9449POPC   C3A64181  19.068  33.003   7.050
 9449POPC   C4A64182  19.081  33.055   7.350
 9449POPC   C1B64183  18.958  32.831   6.450
 9449POPC   C2B64184  18.943  32.751   6.750
 9449POPC   C3B64185  18.967  32.792   7.050
 9449POPC   C4B64186  18.941  32.763   7.350
 9450POPC   NC364187  18.304  19.094   5.550
 9450POPC   PO464188  18.320  19.047   5.850
 9450POPC   GL164189  18.331  19.015   6.150
 9450POPC   GL264190  18.401  19.163   6.150
 9450POPC   C1A64191  18.275  19.073   6.450
 9450POPC   D2A64192  18.281  19.065   6.750
 9450POPC   C3A64193  18.245  19.027   7.050
 9450POPC   C4A64194  18.238  19.083   7.350
 9450POPC   C1B64195  18.446  19.223   6.450
 9450POPC   C2B64196  18.475  19.200   6.750
 9450POPC   C3B64197  18.492  19.242   7.050
 9450POPC   C4B64198  18.422  19.223   7.350
 9451POPC   NC364199   2.032  26.053   5.550
 9451POPC   PO464200   1.974  26.044   5.850
 9451POPC   GL164201   1.946  26.068   6.150
 9451POPC   GL264202   2.063  26.120   6.150
 9451POPC   C1A64203   2.026  26.074   6.450
 9451POPC   D2A64204   2.032  26.007   6.750
 9451POPC   C3A64205   2.002  26.039   7.050
 9451POPC   C4A64206   2.008  26.060   7.350
 9451POPC   C1B64207   2.174  26.180   6.450
 9451POPC   C2B64208   2.185  26.201   6.750
 9451POPC   C3B64209   2.165  26.183   7.050
 9451POPC   C4B64210   2.213  26.223   7.350
 9452POPC   NC364211   3.537  15.981   5.550
 9452POPC   PO464212   3.528  15.922   5.850
 9452POPC   GL164213   3.518  15.949   6.150
 9452POPC   GL264214   3.617  15.911   6.150
 9452POPC   C1A64215   3.517  16.001   6.450
 9452POPC   D2A64216   3.494  15.912   6.750
 9452POPC   C3A64217   3.591  15.987   7.050
 9452POPC   C4A64218   3.567  15.927   7.350
 9452POPC   C1B64219   3.760  15.740   6.450
 9452POPC   C2B64220   3.743  15.745   6.750
 9452POPC   C3B64221   3.752  15.784   7.050
 9452POPC   C4B64222   3.719  15.754   7.350
 9453POPC   NC364223  24.512   8.207   5.550
 9453POPC   PO464224  24.523   8.180   5.850
 9453POPC   GL164225  24.538   8.237   6.150
 9453POPC   GL264226  24.588   8.155   6.150
 9453POPC   C1A64227  24.506   8.242   6.450
 9453POPC   D2A64228  24.516   8.225   6.750
 9453POPC   C3A64229  24.440   8.155   7.050
 9453POPC   C4A64230  24.510   8.212   7.350
 9453POPC   C1B64231  24.777   8.199   6.450
 9453POPC   C2B64232  24.741   8.253   6.750
 9453POPC   C3B64233  24.751   8.162   7.050
 9453POPC   C4B64234  24.773   8.161   7.350
 9454POPC   NC364235  41.540  33.832   5.550
 9454POPC   PO464236  41.525  33.791   5.850
 9454POPC   GL164237  41.535  33.798   6.150
 9454POPC   GL264238  41.489  33.775   6.150
 9454POPC   C1A64239  41.528  33.771   6.450
 9454POPC   D2A64240  41.528  33.790   6.750
 9454POPC   C3A64241  41.578  33.784   7.050
 9454POPC   C4A64242  41.528  33.809   7.350
 9454POPC   C1B64243  41.326  33.696   6.450
 9454POPC   C2B64244  41.342  33.727   6.750
 9454POPC   C3B64245  41.303  33.680   7.050
 9454POPC   C4B64246  41.377  33.675   7.350
 9455POPC   NC364247  29.889   4.310   5.550
 9455POPC   PO464248  29.957   4.282   5.850
 9455POPC   GL164249  29.966   4.354   6.150
 9455POPC   GL264250  29.932   4.159   6.150
 9455POPC   C1A64251  29.940   4.320   6.450
 9455POPC   D2A64252  29.938   4.307   6.750
 9455POPC   C3A64253  29.880   4.346   7.050
 9455POPC   C4A64254  29.954   4.345   7.350
 9455POPC   C1B64255  30.059   4.057   6.450
 9455POPC   C2B64256  29.981   4.119   6.750
 9455POPC   C3B64257  30.071   4.051   7.050
 9455POPC   C4B64258  30.062   4.048   7.350
 9456POPC   NC364259   8.216  38.413   5.550
 9456POPC   PO464260   8.166  38.416   5.850
 9456POPC   GL164261   8.212  38.431   6.150
 9456POPC   GL264262   8.306  38.450   6.150
 9456POPC   C1A64263   8.216  38.454   6.450
 9456POPC   D2A64264   8.218  38.446   6.750
 9456POPC   C3A64265   8.191  38.425   7.050
 9456POPC   C4A64266   8.238  38.461   7.350
 9456POPC   C1B64267   8.422  38.559   6.450
 9456POPC   C2B64268   8.412  38.532   6.750
 9456POPC   C3B64269   8.401  38.520   7.050
 9456POPC   C4B64270   8.437  38.553   7.350
 9457POPC   NC364271  15.198  15.138   5.550
 9457POPC   PO464272  15.200  15.170   5.850
 9457POPC   GL164273  15.150  15.211   6.150
 9457POPC   GL264274  15.217  15.095   6.150
 9457POPC   C1A64275  15.175  15.223   6.450
 9457POPC   D2A64276  15.181  15.182   6.750
 9457POPC   C3A64277  15.222  15.154   7.050
 9457POPC   C4A64278  15.136  15.201   7.350
 9457POPC   C1B64279  15.338  14.927   6.450
 9457POPC   C2B64280  15.328  14.936   6.750
 9457POPC   C3B64281  15.293  14.981   7.050
 9457POPC   C4B64282  15.251  14.990   7.350
 9458POPC   NC364283  36.909  17.463   5.550
 9458POPC   PO464284  36.930  17.484   5.850
 9458POPC   GL164285  36.893  17.497   6.150
 9458POPC   GL264286  36.926  17.398   6.150
 9458POPC   C1A64287  36.892  17.481   6.450
 9458POPC   D2A64288  36.863  17.502   6.750
 9458POPC   C3A64289  36.902  17.482   7.050
 9458POPC   C4A64290  36.891  17.537   7.350
 9458POPC   C1B64291  37.034  17.256   6.450
 9458POPC   C2B64292  36.986  17.264   6.750
 9458POPC   C3B64293  37.045  17.236   7.050
 9458POPC   C4B64294  37.036  17.305   7.350
 9459POPC   NC364295  36.113  32.221   5.550
 9459POPC   PO464296  36.161  32.253   5.850
 9459POPC   GL164297  36.084  32.272   6.150
 9459POPC   GL264298  36.225  32.253   6.150
 9459POPC   C1A64299  36.110  32.256   6.450
 9459POPC   D2A64300  36.145  32.233   6.750
 9459POPC   C3A64301  36.120  32.274   7.050
 9459POPC   C4A64302  36.165  32.261   7.350
 9459POPC   C1B64303  36.419  32.231   6.450
 9459POPC   C2B64304  36.413  32.209   6.750
 9459POPC   C3B64305  36.330  32.168   7.050
 9459POPC   C4B64306  36.330  32.223   7.350
 9460POPC   NC364307   8.933   1.996   5.550
 9460POPC   PO464308   9.000   1.955   5.850
 9460POPC   GL164309   9.012   2.032   6.150
 9460POPC   GL264310   8.923   1.869   6.150
 9460POPC   C1A64311   8.970   1.982   6.450
 9460POPC   D2A64312   8.975   1.941   6.750
 9460POPC   C3A64313   8.957   2.026   7.050
 9460POPC   C4A64314   9.019   2.019   7.350
 9460POPC   C1B64315   8.857   1.820   6.450
 9460POPC   C2B64316   8.787   1.822   6.750
 9460POPC   C3B64317   8.853   1.789   7.050
 9460POPC   C4B64318   8.851   1.776   7.350
 9461POPC   NC364319  24.473  43.925   5.550
 9461POPC   PO464320  24.470  43.867   5.850
 9461POPC   GL164321  24.450  43.889   6.150
 9461POPC   GL264322  24.595  44.011   6.150
 9461POPC   C1A64323  24.453  43.864   6.450
 9461POPC   D2A64324  24.537  43.864   6.750
 9461POPC   C3A64325  24.498  43.881   7.050
 9461POPC   C4A64326  24.440  43.934   7.350
 9461POPC   C1B64327  24.685  44.037   6.450
 9461POPC   C2B64328  24.704  44.017   6.750
 9461POPC   C3B64329  24.625  44.026   7.050
 9461POPC   C4B64330  24.676  44.033   7.350
 9462POPC   NC364331   8.229  36.924   5.550
 9462POPC   PO464332   8.201  36.909   5.850
 9462POPC   GL164333   8.203  36.874   6.150
 9462POPC   GL264334   8.315  36.810   6.150
 9462POPC   C1A64335   8.154  36.866   6.450
 9462POPC   D2A64336   8.167  36.864   6.750
 9462POPC   C3A64337   8.225  36.927   7.050
 9462POPC   C4A64338   8.184  36.869   7.350
 9462POPC   C1B64339   8.379  36.734   6.450
 9462POPC   C2B64340   8.402  36.782   6.750
 9462POPC   C3B64341   8.359  36.712   7.050
 9462POPC   C4B64342   8.421  36.763   7.350
 9463POPC   NC364343  32.283  43.144   5.550
 9463POPC   PO464344  32.203  43.129   5.850
 9463POPC   GL164345  32.233  43.085   6.150
 9463POPC   GL264346  32.222  43.010   6.150
 9463POPC   C1A64347  32.208  43.084   6.450
 9463POPC   D2A64348  32.217  43.073   6.750
 9463POPC   C3A64349  32.263  43.074   7.050
 9463POPC   C4A64350  32.230  43.127   7.350
 9463POPC   C1B64351  32.310  42.898   6.450
 9463POPC   C2B64352  32.237  42.907   6.750
 9463POPC   C3B64353  32.313  42.898   7.050
 9463POPC   C4B64354  32.226  42.849   7.350
 9464POPC   NC364355  11.314  38.445   5.550
 9464POPC   PO464356  11.315  38.486   5.850
 9464POPC   GL164357  11.282  38.422   6.150
 9464POPC   GL264358  11.206  38.397   6.150
 9464POPC   C1A64359  11.329  38.409   6.450
 9464POPC   D2A64360  11.333  38.474   6.750
 9464POPC   C3A64361  11.270  38.471   7.050
 9464POPC   C4A64362  11.290  38.465   7.350
 9464POPC   C1B64363  11.124  38.376   6.450
 9464POPC   C2B64364  11.097  38.308   6.750
 9464POPC   C3B64365  11.079  38.396   7.050
 9464POPC   C4B64366  11.027  38.388   7.350
 9465POPC   NC364367  24.512  39.206   5.550
 9465POPC   PO464368  24.507  39.279   5.850
 9465POPC   GL164369  24.464  39.195   6.150
 9465POPC   GL264370  24.643  39.202   6.150
 9465POPC   C1A64371  24.520  39.240   6.450
 9465POPC   D2A64372  24.446  39.277   6.750
 9465POPC   C3A64373  24.482  39.209   7.050
 9465POPC   C4A64374  24.459  39.280   7.350
 9465POPC   C1B64375  24.756  39.062   6.450
 9465POPC   C2B64376  24.677  39.096   6.750
 9465POPC   C3B64377  24.743  39.123   7.050
 9465POPC   C4B64378  24.669  39.114   7.350
 9466POPC   NC364379  38.419   0.398   5.550
 9466POPC   PO464380  38.433   0.471   5.850
 9466POPC   GL164381  38.432   0.451   6.150
 9466POPC   GL264382  38.492   0.528   6.150
 9466POPC   C1A64383  38.425   0.485   6.450
 9466POPC   D2A64384  38.430   0.421   6.750
 9466POPC   C3A64385  38.446   0.410   7.050
 9466POPC   C4A64386  38.495   0.450   7.350
 9466POPC   C1B64387  38.581   0.622   6.450
 9466POPC   C2B64388  38.582   0.649   6.750
 9466POPC   C3B64389  38.654   0.624   7.050
 9466POPC   C4B64390  38.603   0.574   7.350
 9467POPC   NC364391  36.931  11.340   5.550
 9467POPC   PO464392  36.872  11.334   5.850
 9467POPC   GL164393  36.912  11.336   6.150
 9467POPC   GL264394  36.787  11.344   6.150
 9467POPC   C1A64395  36.883  11.323   6.450
 9467POPC   D2A64396  36.920  11.267   6.750
 9467POPC   C3A64397  36.894  11.300   7.050
 9467POPC   C4A64398  36.898  11.327   7.350
 9467POPC   C1B64399  36.653  11.322   6.450
 9467POPC   C2B64400  36.671  11.301   6.750
 9467POPC   C3B64401  36.621  11.276   7.050
 9467POPC   C4B64402  36.646  11.292   7.350
 9468POPC   NC364403  35.356  25.300   5.550
 9468POPC   PO464404  35.379  25.309   5.850
 9468POPC   GL164405  35.357  25.304   6.150
 9468POPC   GL264406  35.250  25.209   6.150
 9468POPC   C1A64407  35.352  25.225   6.450
 9468POPC   D2A64408  35.377  25.246   6.750
 9468POPC   C3A64409  35.346  25.301   7.050
 9468POPC   C4A64410  35.325  25.305   7.350
 9468POPC   C1B64411  35.124  25.142   6.450
 9468POPC   C2B64412  35.152  25.114   6.750
 9468POPC   C3B64413  35.148  25.091   7.050
 9468POPC   C4B64414  35.119  25.131   7.350
 9469POPC   NC364415  19.797  33.056   5.550
 9469POPC   PO464416  19.806  33.034   5.850
 9469POPC   GL164417  19.821  33.026   6.150
 9469POPC   GL264418  19.986  33.001   6.150
 9469POPC   C1A64419  19.865  33.067   6.450
 9469POPC   D2A64420  19.837  33.007   6.750
 9469POPC   C3A64421  19.828  33.065   7.050
 9469POPC   C4A64422  19.875  33.073   7.350
 9469POPC   C1B64423  20.053  32.975   6.450
 9469POPC   C2B64424  20.061  32.991   6.750
 9469POPC   C3B64425  20.100  32.964   7.050
 9469POPC   C4B64426  20.109  32.984   7.350
 9470POPC   NC364427  29.097  43.848   5.550
 9470POPC   PO464428  29.137  43.890   5.850
 9470POPC   GL164429  29.186  43.880   6.150
 9470POPC   GL264430  29.212  43.990   6.150
 9470POPC   C1A64431  29.138  43.851   6.450
 9470POPC   D2A64432  29.100  43.908   6.750
 9470POPC   C3A64433  29.172  43.894   7.050
 9470POPC   C4A64434  29.131  43.874   7.350
 9470POPC   C1B64435  29.369  44.007   6.450
 9470POPC   C2B64436  29.326  44.089   6.750
 9470POPC   C3B64437  29.360  44.002   7.050
 9470POPC   C4B64438  29.364  44.081   7.350
 9471POPC   NC364439   0.459  15.193   5.550
 9471POPC   PO464440   0.414  15.218   5.850
 9471POPC   GL164441   0.473  15.151   6.150
 9471POPC   GL264442   0.589  15.169   6.150
 9471POPC   C1A64443   0.436  15.164   6.450
 9471POPC   D2A64444   0.401  15.132   6.750
 9471POPC   C3A64445   0.487  15.170   7.050
 9471POPC   C4A64446   0.454  15.170   7.350
 9471POPC   C1B64447   0.642  15.061   6.450
 9471POPC   C2B64448   0.685  15.063   6.750
 9471POPC   C3B64449   0.656  15.027   7.050
 9471POPC   C4B64450   0.639  15.018   7.350
 9472POPC   NC364451  21.350  43.106   5.550
 9472POPC   PO464452  21.436  43.074   5.850
 9472POPC   GL164453  21.359  43.099   6.150
 9472POPC   GL264454  21.415  43.199   6.150
 9472POPC   C1A64455  21.433  43.134   6.450
 9472POPC   D2A64456  21.361  43.155   6.750
 9472POPC   C3A64457  21.359  43.064   7.050
 9472POPC   C4A64458  21.359  43.149   7.350
 9472POPC   C1B64459  21.400  43.389   6.450
 9472POPC   C2B64460  21.339  43.345   6.750
 9472POPC   C3B64461  21.382  43.381   7.050
 9472POPC   C4B64462  21.366  43.318   7.350
 9473POPC   NC364463  16.772  32.203   5.550
 9473POPC   PO464464  16.690  32.220   5.850
 9473POPC   GL164465  16.751  32.213   6.150
 9473POPC   GL264466  16.668  32.321   6.150
 9473POPC   C1A64467  16.694  32.203   6.450
 9473POPC   D2A64468  16.763  32.199   6.750
 9473POPC   C3A64469  16.777  32.256   7.050
 9473POPC   C4A64470  16.701  32.258   7.350
 9473POPC   C1B64471  16.548  32.417   6.450
 9473POPC   C2B64472  16.606  32.456   6.750
 9473POPC   C3B64473  16.565  32.489   7.050
 9473POPC   C4B64474  16.545  32.442   7.350
 9474POPC   NC364475  39.960  37.710   5.550
 9474POPC   PO464476  39.999  37.722   5.850
 9474POPC   GL164477  40.038  37.660   6.150
 9474POPC   GL264478  40.112  37.711   6.150
 9474POPC   C1A64479  40.048  37.661   6.450
 9474POPC   D2A64480  40.021  37.676   6.750
 9474POPC   C3A64481  39.984  37.687   7.050
 9474POPC   C4A64482  39.987  37.714   7.350
 9474POPC   C1B64483  40.260  37.822   6.450
 9474POPC   C2B64484  40.219  37.803   6.750
 9474POPC   C3B64485  40.230  37.783   7.050
 9474POPC   C4B64486  40.199  37.846   7.350
 9475POPC   NC364487  25.276  29.120   5.550
 9475POPC   PO464488  25.233  29.194   5.850
 9475POPC   GL164489  25.288  29.134   6.150
 9475POPC   GL264490  25.189  29.272   6.150
 9475POPC   C1A64491  25.220  29.166   6.450
 9475POPC   D2A64492  25.223  29.132   6.750
 9475POPC   C3A64493  25.236  29.141   7.050
 9475POPC   C4A64494  25.261  29.111   7.350
 9475POPC   C1B64495  25.227  29.430   6.450
 9475POPC   C2B64496  25.237  29.377   6.750
 9475POPC   C3B64497  25.179  29.355   7.050
 9475POPC   C4B64498  25.154  29.391   7.350
 9476POPC   NC364499  31.515   1.951   5.550
 9476POPC   PO464500  31.464   2.038   5.850
 9476POPC   GL164501  31.490   1.983   6.150
 9476POPC   GL264502  31.534   2.135   6.150
 9476POPC   C1A64503  31.520   1.990   6.450
 9476POPC   D2A64504  31.450   2.022   6.750
 9476POPC   C3A64505  31.447   1.969   7.050
 9476POPC   C4A64506  31.512   1.991   7.350
 9476POPC   C1B64507  31.461   2.253   6.450
 9476POPC   C2B64508  31.496   2.197   6.750
 9476POPC   C3B64509  31.446   2.204   7.050
 9476POPC   C4B64510  31.516   2.227   7.350
 9477POPC   NC364511  25.219  33.027   5.550
 9477POPC   PO464512  25.276  33.017   5.850
 9477POPC   GL164513  25.262  33.022   6.150
 9477POPC   GL264514  25.345  32.925   6.150
 9477POPC   C1A64515  25.309  33.047   6.450
 9477POPC   D2A64516  25.294  33.002   6.750
 9477POPC   C3A64517  25.223  33.016   7.050
 9477POPC   C4A64518  25.241  32.997   7.350
 9477POPC   C1B64519  25.428  32.850   6.450
 9477POPC   C2B64520  25.460  32.830   6.750
 9477POPC   C3B64521  25.473  32.858   7.050
 9477POPC   C4B64522  25.484  32.877   7.350
 9478POPC   NC364523   7.462   8.156   5.550
 9478POPC   PO464524   7.374   8.179   5.850
 9478POPC   GL164525   7.371   8.227   6.150
 9478POPC   GL264526   7.502   8.257   6.150
 9478POPC   C1A64527   7.448   8.160   6.450
 9478POPC   D2A64528   7.462   8.176   6.750
 9478POPC   C3A64529   7.377   8.204   7.050
 9478POPC   C4A64530   7.448   8.157   7.350
 9478POPC   C1B64531   7.621   8.304   6.450
 9478POPC   C2B64532   7.682   8.301   6.750
 9478POPC   C3B64533   7.653   8.287   7.050
 9478POPC   C4B64534   7.632   8.251   7.350
 9479POPC   NC364535  25.240  41.534   5.550
 9479POPC   PO464536  25.298  41.572   5.850
 9479POPC   GL164537  25.281  41.560   6.150
 9479POPC   GL264538  25.298  41.477   6.150
 9479POPC   C1A64539  25.307  41.512   6.450
 9479POPC   D2A64540  25.277  41.575   6.750
 9479POPC   C3A64541  25.253  41.594   7.050
 9479POPC   C4A64542  25.238  41.552   7.350
 9479POPC   C1B64543  25.390  41.350   6.450
 9479POPC   C2B64544  25.346  41.367   6.750
 9479POPC   C3B64545  25.408  41.350   7.050
 9479POPC   C4B64546  25.381  41.323   7.350
 9480POPC   NC364547   9.002  39.971   5.550
 9480POPC   PO464548   8.971  40.028   5.850
 9480POPC   GL164549   8.962  39.997   6.150
 9480POPC   GL264550   8.922  40.145   6.150
 9480POPC   C1A64551   8.989  39.964   6.450
 9480POPC   D2A64552   8.994  39.979   6.750
 9480POPC   C3A64553   8.941  40.029   7.050
 9480POPC   C4A64554   8.931  39.986   7.350
 9480POPC   C1B64555   8.876  40.198   6.450
 9480POPC   C2B64556   8.813  40.243   6.750
 9480POPC   C3B64557   8.888  40.230   7.050
 9480POPC   C4B64558   8.875  40.222   7.350
 9481POPC   NC364559   8.201  36.167   5.550
 9481POPC   PO464560   8.184  36.090   5.850
 9481POPC   GL164561   8.195  36.108   6.150
 9481POPC   GL264562   8.302  35.991   6.150
 9481POPC   C1A64563   8.222  36.163   6.450
 9481POPC   D2A64564   8.211  36.106   6.750
 9481POPC   C3A64565   8.211  36.090   7.050
 9481POPC   C4A64566   8.219  36.110   7.350
 9481POPC   C1B64567   8.363  35.982   6.450
 9481POPC   C2B64568   8.352  35.986   6.750
 9481POPC   C3B64569   8.354  35.932   7.050
 9481POPC   C4B64570   8.346  35.924   7.350
 9482POPC   NC364571  42.287  27.615   5.550
 9482POPC   PO464572  42.293  27.639   5.850
 9482POPC   GL164573  42.374  27.546   6.150
 9482POPC   GL264574  42.383  27.764   6.150
 9482POPC   C1A64575  42.312  27.637   6.450
 9482POPC   D2A64576  42.303  27.620   6.750
 9482POPC   C3A64577  42.368  27.625   7.050
 9482POPC   C4A64578  42.286  27.610   7.350
 9482POPC   C1B64579  42.372  27.808   6.450
 9482POPC   C2B64580  42.396  27.838   6.750
 9482POPC   C3B64581  42.420  27.826   7.050
 9482POPC   C4B64582  42.420  27.796   7.350
 9483POPC   NC364583  29.185  22.137   5.550
 9483POPC   PO464584  29.111  22.127   5.850
 9483POPC   GL164585  29.139  22.162   6.150
 9483POPC   GL264586  29.257  22.058   6.150
 9483POPC   C1A64587  29.111  22.154   6.450
 9483POPC   D2A64588  29.133  22.132   6.750
 9483POPC   C3A64589  29.114  22.127   7.050
 9483POPC   C4A64590  29.097  22.161   7.350
 9483POPC   C1B64591  29.284  22.017   6.450
 9483POPC   C2B64592  29.311  22.047   6.750
 9483POPC   C3B64593  29.365  21.962   7.050
 9483POPC   C4B64594  29.308  22.013   7.350
 9484POPC   NC364595  21.429  20.644   5.550
 9484POPC   PO464596  21.357  20.631   5.850
 9484POPC   GL164597  21.352  20.629   6.150
 9484POPC   GL264598  21.388  20.722   6.150
 9484POPC   C1A64599  21.364  20.608   6.450
 9484POPC   D2A64600  21.368  20.602   6.750
 9484POPC   C3A64601  21.368  20.655   7.050
 9484POPC   C4A64602  21.428  20.626   7.350
 9484POPC   C1B64603  21.397  20.872   6.450
 9484POPC   C2B64604  21.400  20.871   6.750
 9484POPC   C3B64605  21.403  20.857   7.050
 9484POPC   C4B64606  21.462  20.854   7.350
 9485POPC   NC364607  26.770  31.496   5.550
 9485POPC   PO464608  26.829  31.444   5.850
 9485POPC   GL164609  26.865  31.502   6.150
 9485POPC   GL264610  26.768  31.350   6.150
 9485POPC   C1A64611  26.860  31.475   6.450
 9485POPC   D2A64612  26.839  31.453   6.750
 9485POPC   C3A64613  26.819  31.475   7.050
 9485POPC   C4A64614  26.813  31.466   7.350
 9485POPC   C1B64615  26.656  31.235   6.450
 9485POPC   C2B64616  26.633  31.297   6.750
 9485POPC   C3B64617  26.627  31.268   7.050
 9485POPC   C4B64618  26.612  31.248   7.350
 9486POPC   NC364619  31.497  11.302   5.550
 9486POPC   PO464620  31.482  11.350   5.850
 9486POPC   GL164621  31.486  11.307   6.150
 9486POPC   GL264622  31.522  11.241   6.150
 9486POPC   C1A64623  31.464  11.256   6.450
 9486POPC   D2A64624  31.517  11.286   6.750
 9486POPC   C3A64625  31.434  11.346   7.050
 9486POPC   C4A64626  31.508  11.266   7.350
 9486POPC   C1B64627  31.627  11.080   6.450
 9486POPC   C2B64628  31.606  11.111   6.750
 9486POPC   C3B64629  31.602  11.142   7.050
 9486POPC   C4B64630  31.674  11.072   7.350
 9487POPC   NC364631  22.933  34.610   5.550
 9487POPC   PO464632  22.911  34.610   5.850
 9487POPC   GL164633  22.977  34.564   6.150
 9487POPC   GL264634  22.833  34.491   6.150
 9487POPC   C1A64635  22.894  34.601   6.450
 9487POPC   D2A64636  22.895  34.622   6.750
 9487POPC   C3A64637  22.965  34.611   7.050
 9487POPC   C4A64638  22.930  34.595   7.350
 9487POPC   C1B64639  22.826  34.363   6.450
 9487POPC   C2B64640  22.813  34.349   6.750
 9487POPC   C3B64641  22.766  34.337   7.050
 9487POPC   C4B64642  22.771  34.414   7.350
 9488POPC   NC364643   5.088  23.678   5.550
 9488POPC   PO464644   5.093  23.725   5.850
 9488POPC   GL164645   5.118  23.695   6.150
 9488POPC   GL264646   5.181  23.704   6.150
 9488POPC   C1A64647   5.095  23.749   6.450
 9488POPC   D2A64648   5.132  23.720   6.750
 9488POPC   C3A64649   5.057  23.690   7.050
 9488POPC   C4A64650   5.069  23.753   7.350
 9488POPC   C1B64651   5.312  23.679   6.450
 9488POPC   C2B64652   5.308  23.675   6.750
 9488POPC   C3B64653   5.372  23.682   7.050
 9488POPC   C4B64654   5.305  23.644   7.350
 9489POPC   NC364655  29.967  42.378   5.550
 9489POPC   PO464656  29.932  42.341   5.850
 9489POPC   GL164657  29.890  42.343   6.150
 9489POPC   GL264658  29.920  42.408   6.150
 9489POPC   C1A64659  29.921  42.380   6.450
 9489POPC   D2A64660  29.948  42.353   6.750
 9489POPC   C3A64661  29.923  42.372   7.050
 9489POPC   C4A64662  29.909  42.361   7.350
 9489POPC   C1B64663  29.813  42.572   6.450
 9489POPC   C2B64664  29.783  42.610   6.750
 9489POPC   C3B64665  29.858  42.536   7.050
 9489POPC   C4B64666  29.793  42.597   7.350
 9490POPC   NC364667  24.444  31.501   5.550
 9490POPC   PO464668  24.443  31.442   5.850
 9490POPC   GL164669  24.480  31.446   6.150
 9490POPC   GL264670  24.415  31.586   6.150
 9490POPC   C1A64671  24.534  31.471   6.450
 9490POPC   D2A64672  24.440  31.508   6.750
 9490POPC   C3A64673  24.519  31.458   7.050
 9490POPC   C4A64674  24.472  31.452   7.350
 9490POPC   C1B64675  24.396  31.692   6.450
 9490POPC   C2B64676  24.395  31.700   6.750
 9490POPC   C3B64677  24.400  31.719   7.050
 9490POPC   C4B64678  24.402  31.669   7.350
 9491POPC   NC364679   8.159  18.279   5.550
 9491POPC   PO464680   8.231  18.265   5.850
 9491POPC   GL164681   8.205  18.284   6.150
 9491POPC   GL264682   8.349  18.194   6.150
 9491POPC   C1A64683   8.201  18.332   6.450
 9491POPC   D2A64684   8.196  18.260   6.750
 9491POPC   C3A64685   8.213  18.236   7.050
 9491POPC   C4A64686   8.173  18.292   7.350
 9491POPC   C1B64687   8.412  18.173   6.450
 9491POPC   C2B64688   8.397  18.206   6.750
 9491POPC   C3B64689   8.416  18.224   7.050
 9491POPC   C4B64690   8.382  18.224   7.350
 9492POPC   NC364691  23.673  13.633   5.550
 9492POPC   PO464692  23.703  13.603   5.850
 9492POPC   GL164693  23.679  13.611   6.150
 9492POPC   GL264694  23.868  13.595   6.150
 9492POPC   C1A64695  23.667  13.617   6.450
 9492POPC   D2A64696  23.716  13.677   6.750
 9492POPC   C3A64697  23.692  13.609   7.050
 9492POPC   C4A64698  23.685  13.581   7.350
 9492POPC   C1B64699  23.958  13.589   6.450
 9492POPC   C2B64700  23.937  13.585   6.750
 9492POPC   C3B64701  23.909  13.530   7.050
 9492POPC   C4B64702  23.941  13.532   7.350
 9493POPC   NC364703   8.953  33.792   5.550
 9493POPC   PO464704   9.006  33.849   5.850
 9493POPC   GL164705   8.926  33.825   6.150
 9493POPC   GL264706   8.839  33.789   6.150
 9493POPC   C1A64707   8.933  33.787   6.450
 9493POPC   D2A64708   9.000  33.783   6.750
 9493POPC   C3A64709   8.985  33.768   7.050
 9493POPC   C4A64710   8.959  33.841   7.350
 9493POPC   C1B64711   8.723  33.700   6.450
 9493POPC   C2B64712   8.692  33.685   6.750
 9493POPC   C3B64713   8.763  33.685   7.050
 9493POPC   C4B64714   8.724  33.728   7.350
 9494POPC   NC364715  42.354  12.074   5.550
 9494POPC   PO464716  42.314  12.060   5.850
 9494POPC   GL164717  42.381  12.104   6.150
 9494POPC   GL264718  42.308  11.993   6.150
 9494POPC   C1A64719  42.371  12.066   6.450
 9494POPC   D2A64720  42.321  12.118   6.750
 9494POPC   C3A64721  42.347  12.068   7.050
 9494POPC   C4A64722  42.333  12.083   7.350
 9494POPC   C1B64723  42.236  11.889   6.450
 9494POPC   C2B64724  42.268  11.887   6.750
 9494POPC   C3B64725  42.246  11.887   7.050
 9494POPC   C4B64726  42.241  11.833   7.350
 9495POPC   NC364727  43.891  28.391   5.550
 9495POPC   PO464728  43.856  28.341   5.850
 9495POPC   GL164729  43.909  28.352   6.150
 9495POPC   GL264730  43.969  28.404   6.150
 9495POPC   C1A64731  43.869  28.398   6.450
 9495POPC   D2A64732  43.842  28.368   6.750
 9495POPC   C3A64733  43.836  28.351   7.050
 9495POPC   C4A64734  43.838  28.324   7.350
 9495POPC   C1B64735  44.104  28.344   6.450
 9495POPC   C2B64736  44.148  28.388   6.750
 9495POPC   C3B64737  44.113  28.392   7.050
 9495POPC   C4B64738  44.169  28.404   7.350
 9496POPC   NC364739   9.726  29.919   5.550
 9496POPC   PO464740   9.786  29.915   5.850
 9496POPC   GL164741   9.746  29.955   6.150
 9496POPC   GL264742   9.803  30.024   6.150
 9496POPC   C1A64743   9.763  29.950   6.450
 9496POPC   D2A64744   9.789  29.932   6.750
 9496POPC   C3A64745   9.703  29.959   7.050
 9496POPC   C4A64746   9.719  29.946   7.350
 9496POPC   C1B64747   9.840  30.141   6.450
 9496POPC   C2B64748   9.794  30.161   6.750
 9496POPC   C3B64749   9.875  30.204   7.050
 9496POPC   C4B64750   9.803  30.139   7.350
 9497POPC   NC364751  33.054  34.613   5.550
 9497POPC   PO464752  33.006  34.564   5.850
 9497POPC   GL164753  33.046  34.609   6.150
 9497POPC   GL264754  33.011  34.687   6.150
 9497POPC   C1A64755  32.977  34.616   6.450
 9497POPC   D2A64756  33.002  34.585   6.750
 9497POPC   C3A64757  33.068  34.596   7.050
 9497POPC   C4A64758  33.004  34.608   7.350
 9497POPC   C1B64759  33.053  34.830   6.450
 9497POPC   C2B64760  33.081  34.860   6.750
 9497POPC   C3B64761  33.058  34.842   7.050
 9497POPC   C4B64762  33.059  34.781   7.350
 9498POPC   NC364763   8.233  23.666   5.550
 9498POPC   PO464764   8.212  23.717   5.850
 9498POPC   GL164765   8.211  23.701   6.150
 9498POPC   GL264766   8.223  23.626   6.150
 9498POPC   C1A64767   8.163  23.728   6.450
 9498POPC   D2A64768   8.207  23.721   6.750
 9498POPC   C3A64769   8.206  23.696   7.050
 9498POPC   C4A64770   8.209  23.751   7.350
 9498POPC   C1B64771   8.170  23.464   6.450
 9498POPC   C2B64772   8.175  23.470   6.750
 9498POPC   C3B64773   8.149  23.433   7.050
 9498POPC   C4B64774   8.141  23.421   7.350
 9499POPC   NC364775  36.146  12.068   5.550
 9499POPC   PO464776  36.129  12.089   5.850
 9499POPC   GL164777  36.166  12.028   6.150
 9499POPC   GL264778  36.145  11.984   6.150
 9499POPC   C1A64779  36.107  12.040   6.450
 9499POPC   D2A64780  36.084  12.086   6.750
 9499POPC   C3A64781  36.118  12.074   7.050
 9499POPC   C4A64782  36.172  12.042   7.350
 9499POPC   C1B64783  36.172  11.841   6.450
 9499POPC   C2B64784  36.179  11.840   6.750
 9499POPC   C3B64785  36.169  11.820   7.050
 9499POPC   C4B64786  36.135  11.836   7.350
 9500POPC   NC364787   6.608  40.740   5.550
 9500POPC   PO464788   6.609  40.773   5.850
 9500POPC   GL164789   6.649  40.827   6.150
 9500POPC   GL264790   6.643  40.697   6.150
 9500POPC   C1A64791   6.676  40.781   6.450
 9500POPC   D2A64792   6.694  40.775   6.750
 9500POPC   C3A64793   6.677  40.812   7.050
 9500POPC   C4A64794   6.635  40.766   7.350
 9500POPC   C1B64795   6.577  40.519   6.450
 9500POPC   C2B64796   6.599  40.543   6.750
 9500POPC   C3B64797   6.585  40.546   7.050
 9500POPC   C4B64798   6.543  40.552   7.350
 9501POPC   NC364799  29.121   6.657   5.550
 9501POPC   PO464800  29.143   6.631   5.850
 9501POPC   GL164801  29.172   6.622   6.150
 9501POPC   GL264802  29.152   6.779   6.150
 9501POPC   C1A64803  29.166   6.657   6.450
 9501POPC   D2A64804  29.144   6.614   6.750
 9501POPC   C3A64805  29.151   6.627   7.050
 9501POPC   C4A64806  29.124   6.616   7.350
 9501POPC   C1B64807  29.241   6.867   6.450
 9501POPC   C2B64808  29.200   6.895   6.750
 9501POPC   C3B64809  29.274   6.911   7.050
 9501POPC   C4B64810  29.269   6.888   7.350
 9502POPC   NC364811  11.344  39.208   5.550
 9502POPC   PO464812  11.277  39.228   5.850
 9502POPC   GL164813  11.311  39.229   6.150
 9502POPC   GL264814  11.302  39.085   6.150
 9502POPC   C1A64815  11.280  39.188   6.450
 9502POPC   D2A64816  11.335  39.182   6.750
 9502POPC   C3A64817  11.326  39.268   7.050
 9502POPC   C4A64818  11.308  39.200   7.350
 9502POPC   C1B64819  11.322  38.977   6.450
 9502POPC   C2B64820  11.404  38.975   6.750
 9502POPC   C3B64821  11.368  39.022   7.050
 9502POPC   C4B64822  11.416  38.971   7.350
 9503POPC   NC364823   9.763  26.788   5.550
 9503POPC   PO464824   9.775  26.775   5.850
 9503POPC   GL164825   9.748  26.786   6.150
 9503POPC   GL264826   9.822  26.869   6.150
 9503POPC   C1A64827   9.769  26.770   6.450
 9503POPC   D2A64828   9.764  26.856   6.750
 9503POPC   C3A64829   9.793  26.827   7.050
 9503POPC   C4A64830   9.756  26.793   7.350
 9503POPC   C1B64831   9.946  26.909   6.450
 9503POPC   C2B64832  10.032  26.920   6.750
 9503POPC   C3B64833   9.966  26.868   7.050
 9503POPC   C4B64834   9.985  26.898   7.350
 9504POPC   NC364835  36.901  34.625   5.550
 9504POPC   PO464836  36.918  34.550   5.850
 9504POPC   GL164837  36.854  34.600   6.150
 9504POPC   GL264838  36.971  34.491   6.150
 9504POPC   C1A64839  36.924  34.625   6.450
 9504POPC   D2A64840  36.940  34.546   6.750
 9504POPC   C3A64841  36.943  34.605   7.050
 9504POPC   C4A64842  36.871  34.530   7.350
 9504POPC   C1B64843  37.080  34.458   6.450
 9504POPC   C2B64844  37.106  34.427   6.750
 9504POPC   C3B64845  37.073  34.454   7.050
 9504POPC   C4B64846  37.068  34.441   7.350
 9505POPC   NC364847  25.266  30.719   5.550
 9505POPC   PO464848  25.256  30.736   5.850
 9505POPC   GL164849  25.276  30.707   6.150
 9505POPC   GL264850  25.249  30.783   6.150
 9505POPC   C1A64851  25.239  30.659   6.450
 9505POPC   D2A64852  25.247  30.682   6.750
 9505POPC   C3A64853  25.241  30.670   7.050
 9505POPC   C4A64854  25.223  30.742   7.350
 9505POPC   C1B64855  25.130  30.914   6.450
 9505POPC   C2B64856  25.162  30.972   6.750
 9505POPC   C3B64857  25.134  30.951   7.050
 9505POPC   C4B64858  25.143  30.898   7.350
 9506POPC   NC364859  36.106  39.967   5.550
 9506POPC   PO464860  36.115  40.052   5.850
 9506POPC   GL164861  36.094  40.054   6.150
 9506POPC   GL264862  36.272  39.972   6.150
 9506POPC   C1A64863  36.129  40.020   6.450
 9506POPC   D2A64864  36.079  39.962   6.750
 9506POPC   C3A64865  36.140  39.958   7.050
 9506POPC   C4A64866  36.107  39.981   7.350
 9506POPC   C1B64867  36.400  39.975   6.450
 9506POPC   C2B64868  36.399  39.985   6.750
 9506POPC   C3B64869  36.379  39.909   7.050
 9506POPC   C4B64870  36.418  39.919   7.350
 9507POPC   NC364871   8.154  43.083   5.550
 9507POPC   PO464872   8.183  43.135   5.850
 9507POPC   GL164873   8.168  43.117   6.150
 9507POPC   GL264874   8.271  43.255   6.150
 9507POPC   C1A64875   8.187  43.109   6.450
 9507POPC   D2A64876   8.239  43.072   6.750
 9507POPC   C3A64877   8.207  43.143   7.050
 9507POPC   C4A64878   8.194  43.142   7.350
 9507POPC   C1B64879   8.362  43.313   6.450
 9507POPC   C2B64880   8.322  43.284   6.750
 9507POPC   C3B64881   8.360  43.302   7.050
 9507POPC   C4B64882   8.318  43.338   7.350
 9508POPC   NC364883  25.264   7.379   5.550
 9508POPC   PO464884  25.297   7.470   5.850
 9508POPC   GL164885  25.281   7.461   6.150
 9508POPC   GL264886  25.343   7.310   6.150
 9508POPC   C1A64887  25.227   7.380   6.450
 9508POPC   D2A64888  25.221   7.430   6.750
 9508POPC   C3A64889  25.272   7.405   7.050
 9508POPC   C4A64890  25.229   7.450   7.350
 9508POPC   C1B64891  25.320   7.213   6.450
 9508POPC   C2B64892  25.336   7.194   6.750
 9508POPC   C3B64893  25.326   7.163   7.050
 9508POPC   C4B64894  25.348   7.217   7.350
 9509POPC   NC364895  13.676  40.016   5.550
 9509POPC   PO464896  13.656  40.041   5.850
 9509POPC   GL164897  13.603  40.027   6.150
 9509POPC   GL264898  13.523  40.049   6.150
 9509POPC   C1A64899  13.655  40.031   6.450
 9509POPC   D2A64900  13.626  40.044   6.750
 9509POPC   C3A64901  13.652  40.020   7.050
 9509POPC   C4A64902  13.624  39.963   7.350
 9509POPC   C1B64903  13.395  40.055   6.450
 9509POPC   C2B64904  13.422  40.034   6.750
 9509POPC   C3B64905  13.400  40.044   7.050
 9509POPC   C4B64906  13.415  40.038   7.350
 9510POPC   NC364907  15.202   0.423   5.550
 9510POPC   PO464908  15.181   0.398   5.850
 9510POPC   GL164909  15.208   0.439   6.150
 9510POPC   GL264910  15.284   0.509   6.150
 9510POPC   C1A64911  15.138   0.407   6.450
 9510POPC   D2A64912  15.204   0.474   6.750
 9510POPC   C3A64913  15.173   0.453   7.050
 9510POPC   C4A64914  15.212   0.414   7.350
 9510POPC   C1B64915  15.298   0.609   6.450
 9510POPC   C2B64916  15.264   0.679   6.750
 9510POPC   C3B64917  15.285   0.658   7.050
 9510POPC   C4B64918  15.323   0.624   7.350
 9511POPC   NC364919  39.182  21.377   5.550
 9511POPC   PO464920  39.215  21.363   5.850
 9511POPC   GL164921  39.218  21.417   6.150
 9511POPC   GL264922  39.140  21.246   6.150
 9511POPC   C1A64923  39.225  21.416   6.450
 9511POPC   D2A64924  39.271  21.382   6.750
 9511POPC   C3A64925  39.195  21.360   7.050
 9511POPC   C4A64926  39.255  21.370   7.350
 9511POPC   C1B64927  39.142  21.191   6.450
 9511POPC   C2B64928  39.144  21.171   6.750
 9511POPC   C3B64929  39.155  21.156   7.050
 9511POPC   C4B64930  39.133  21.155   7.350
 9512POPC   NC364931  26.786  12.808   5.550
 9512POPC   PO464932  26.807  12.867   5.850
 9512POPC   GL164933  26.851  12.855   6.150
 9512POPC   GL264934  26.817  12.759   6.150
 9512POPC   C1A64935  26.833  12.829   6.450
 9512POPC   D2A64936  26.808  12.884   6.750
 9512POPC   C3A64937  26.864  12.876   7.050
 9512POPC   C4A64938  26.844  12.819   7.350
 9512POPC   C1B64939  26.867  12.634   6.450
 9512POPC   C2B64940  26.865  12.572   6.750
 9512POPC   C3B64941  26.917  12.591   7.050
 9512POPC   C4B64942  26.841  12.612   7.350
 9513POPC   NC364943  23.744  39.980   5.550
 9513POPC   PO464944  23.713  40.021   5.850
 9513POPC   GL164945  23.692  39.996   6.150
 9513POPC   GL264946  23.610  40.079   6.150
 9513POPC   C1A64947  23.678  40.032   6.450
 9513POPC   D2A64948  23.714  40.011   6.750
 9513POPC   C3A64949  23.752  40.051   7.050
 9513POPC   C4A64950  23.732  39.985   7.350
 9513POPC   C1B64951  23.524  40.080   6.450
 9513POPC   C2B64952  23.530  40.085   6.750
 9513POPC   C3B64953  23.462  40.158   7.050
 9513POPC   C4B64954  23.491  40.091   7.350
 9514POPC   NC364955  16.745  31.444   5.550
 9514POPC   PO464956  16.761  31.488   5.850
 9514POPC   GL164957  16.722  31.485   6.150
 9514POPC   GL264958  16.646  31.435   6.150
 9514POPC   C1A64959  16.774  31.453   6.450
 9514POPC   D2A64960  16.773  31.431   6.750
 9514POPC   C3A64961  16.709  31.507   7.050
 9514POPC   C4A64962  16.774  31.440   7.350
 9514POPC   C1B64963  16.547  31.310   6.450
 9514POPC   C2B64964  16.488  31.343   6.750
 9514POPC   C3B64965  16.470  31.384   7.050
 9514POPC   C4B64966  16.499  31.354   7.350
 9515POPC   NC364967  18.281  26.057   5.550
 9515POPC   PO464968  18.273  26.019   5.850
 9515POPC   GL164969  18.274  26.001   6.150
 9515POPC   GL264970  18.398  26.107   6.150
 9515POPC   C1A64971  18.244  26.008   6.450
 9515POPC   D2A64972  18.278  25.992   6.750
 9515POPC   C3A64973  18.272  26.072   7.050
 9515POPC   C4A64974  18.330  26.036   7.350
 9515POPC   C1B64975  18.468  26.181   6.450
 9515POPC   C2B64976  18.479  26.167   6.750
 9515POPC   C3B64977  18.474  26.185   7.050
 9515POPC   C4B64978  18.452  26.173   7.350
 9516POPC   NC364979  13.609  20.600   5.550
 9516POPC   PO464980  13.580  20.563   5.850
 9516POPC   GL164981  13.634  20.635   6.150
 9516POPC   GL264982  13.532  20.702   6.150
 9516POPC   C1A64983  13.626  20.646   6.450
 9516POPC   D2A64984  13.659  20.570   6.750
 9516POPC   C3A64985  13.660  20.616   7.050
 9516POPC   C4A64986  13.605  20.632   7.350
 9516POPC   C1B64987  13.530  20.879   6.450
 9516POPC   C2B64988  13.493  20.818   6.750
 9516POPC   C3B64989  13.566  20.795   7.050
 9516POPC   C4B64990  13.557  20.825   7.350
 9517POPC   NC364991  43.928  39.192   5.550
 9517POPC   PO464992  43.838  39.216   5.850
 9517POPC   GL164993  43.893  39.243   6.150
 9517POPC   GL264994  44.024  39.301   6.150
 9517POPC   C1A64995  43.868  39.220   6.450
 9517POPC   D2A64996  43.909  39.229   6.750
 9517POPC   C3A64997  43.924  39.202   7.050
 9517POPC   C4A64998  43.902  39.196   7.350
 9517POPC   C1B64999  44.093  39.358   6.450
 9517POPC   C2B65000  44.017  39.439   6.750
 9517POPC   C3B65001  44.084  39.405   7.050
 9517POPC   C4B65002  44.020  39.368   7.350
 9518POPC   NC365003   8.246  27.559   5.550
 9518POPC   PO465004   8.159  27.603   5.850
 9518POPC   GL165005   8.204  27.551   6.150
 9518POPC   GL265006   8.349  27.552   6.150
 9518POPC   C1A65007   8.205  27.612   6.450
 9518POPC   D2A65008   8.233  27.583   6.750
 9518POPC   C3A65009   8.152  27.596   7.050
 9518POPC   C4A65010   8.168  27.635   7.350
 9518POPC   C1B65011   8.376  27.511   6.450
 9518POPC   C2B65012   8.426  27.509   6.750
 9518POPC   C3B65013   8.406  27.441   7.050
 9518POPC   C4B65014   8.443  27.489   7.350
 9519POPC   NC365015  23.665   9.787   5.550
 9519POPC   PO465016  23.667   9.762   5.850
 9519POPC   GL165017  23.722   9.708   6.150
 9519POPC   GL265018  23.852   9.811   6.150
 9519POPC   C1A65019  23.738   9.720   6.450
 9519POPC   D2A65020  23.741   9.714   6.750
 9519POPC   C3A65021  23.736   9.722   7.050
 9519POPC   C4A65022  23.745   9.787   7.350
 9519POPC   C1B65023  23.885   9.882   6.450
 9519POPC   C2B65024  23.894   9.913   6.750
 9519POPC   C3B65025  23.930   9.926   7.050
 9519POPC   C4B65026  23.942   9.859   7.350
 9520POPC   NC365027  23.756  43.879   5.550
 9520POPC   PO465028  23.682  43.868   5.850
 9520POPC   GL165029  23.676  43.879   6.150
 9520POPC   GL265030  23.859  43.837   6.150
 9520POPC   C1A65031  23.726  43.911   6.450
 9520POPC   D2A65032  23.709  43.914   6.750
 9520POPC   C3A65033  23.724  43.852   7.050
 9520POPC   C4A65034  23.720  43.918   7.350
 9520POPC   C1B65035  23.903  43.782   6.450
 9520POPC   C2B65036  23.953  43.778   6.750
 9520POPC   C3B65037  23.969  43.785   7.050
 9520POPC   C4B65038  23.939  43.811   7.350
 9521POPC   NC365039  38.477  43.099   5.550
 9521POPC   PO465040  38.488  43.098   5.850
 9521POPC   GL165041  38.440  43.080   6.150
 9521POPC   GL265042  38.360  43.016   6.150
 9521POPC   C1A65043  38.455  43.085   6.450
 9521POPC   D2A65044  38.409  43.153   6.750
 9521POPC   C3A65045  38.426  43.145   7.050
 9521POPC   C4A65046  38.470  43.085   7.350
 9521POPC   C1B65047  38.381  42.882   6.450
 9521POPC   C2B65048  38.334  42.901   6.750
 9521POPC   C3B65049  38.399  42.850   7.050
 9521POPC   C4B65050  38.324  42.915   7.350
 9522POPC   NC365051   5.894  39.987   5.550
 9522POPC   PO465052   5.858  40.011   5.850
 9522POPC   GL165053   5.909  39.965   6.150
 9522POPC   GL265054   5.949  40.128   6.150
 9522POPC   C1A65055   5.906  40.030   6.450
 9522POPC   D2A65056   5.912  39.972   6.750
 9522POPC   C3A65057   5.863  39.960   7.050
 9522POPC   C4A65058   5.862  39.958   7.350
 9522POPC   C1B65059   6.032  40.168   6.450
 9522POPC   C2B65060   6.006  40.145   6.750
 9522POPC   C3B65061   6.098  40.154   7.050
 9522POPC   C4B65062   6.047  40.153   7.350
 9523POPC   NC365063  25.246  25.300   5.550
 9523POPC   PO465064  25.296  25.240   5.850
 9523POPC   GL165065  25.305  25.247   6.150
 9523POPC   GL265066  25.201  25.167   6.150
 9523POPC   C1A65067  25.262  25.282   6.450
 9523POPC   D2A65068  25.230  25.285   6.750
 9523POPC   C3A65069  25.237  25.300   7.050
 9523POPC   C4A65070  25.280  25.233   7.350
 9523POPC   C1B65071  25.127  25.036   6.450
 9523POPC   C2B65072  25.124  25.037   6.750
 9523POPC   C3B65073  25.207  25.017   7.050
 9523POPC   C4B65074  25.135  24.999   7.350
 9524POPC   NC365075  37.717  35.376   5.550
 9524POPC   PO465076  37.717  35.346   5.850
 9524POPC   GL165077  37.727  35.309   6.150
 9524POPC   GL265078  37.731  35.497   6.150
 9524POPC   C1A65079  37.650  35.326   6.450
 9524POPC   D2A65080  37.696  35.331   6.750
 9524POPC   C3A65081  37.706  35.401   7.050
 9524POPC   C4A65082  37.709  35.380   7.350
 9524POPC   C1B65083  37.859  35.574   6.450
 9524POPC   C2B65084  37.860  35.517   6.750
 9524POPC   C3B65085  37.813  35.521   7.050
 9524POPC   C4B65086  37.785  35.576   7.350
 9525POPC   NC365087  37.631  12.095   5.550
 9525POPC   PO465088  37.714  12.082   5.850
 9525POPC   GL165089  37.681  12.081   6.150
 9525POPC   GL265090  37.664  11.972   6.150
 9525POPC   C1A65091  37.717  12.085   6.450
 9525POPC   D2A65092  37.635  12.045   6.750
 9525POPC   C3A65093  37.712  12.120   7.050
 9525POPC   C4A65094  37.679  12.115   7.350
 9525POPC   C1B65095  37.641  11.792   6.450
 9525POPC   C2B65096  37.622  11.867   6.750
 9525POPC   C3B65097  37.658  11.843   7.050
 9525POPC   C4B65098  37.688  11.808   7.350
 9526POPC   NC365099  24.523   7.412   5.550
 9526POPC   PO465100  24.467   7.391   5.850
 9526POPC   GL165101  24.454   7.392   6.150
 9526POPC   GL265102  24.332   7.454   6.150
 9526POPC   C1A65103  24.462   7.438   6.450
 9526POPC   D2A65104  24.517   7.447   6.750
 9526POPC   C3A65105  24.524   7.396   7.050
 9526POPC   C4A65106  24.469   7.459   7.350
 9526POPC   C1B65107  24.286   7.559   6.450
 9526POPC   C2B65108  24.313   7.561   6.750
 9526POPC   C3B65109  24.270   7.536   7.050
 9526POPC   C4B65110  24.290   7.550   7.350
 9527POPC   NC365111  42.381  14.399   5.550
 9527POPC   PO465112  42.350  14.380   5.850
 9527POPC   GL165113  42.320  14.388   6.150
 9527POPC   GL265114  42.451  14.260   6.150
 9527POPC   C1A65115  42.348  14.451   6.450
 9527POPC   D2A65116  42.331  14.433   6.750
 9527POPC   C3A65117  42.287  14.363   7.050
 9527POPC   C4A65118  42.341  14.422   7.350
 9527POPC   C1B65119  42.485  14.256   6.450
 9527POPC   C2B65120  42.451  14.195   6.750
 9527POPC   C3B65121  42.467  14.233   7.050
 9527POPC   C4B65122  42.527  14.242   7.350
 9528POPC   NC365123  15.996  27.618   5.550
 9528POPC   PO465124  15.909  27.581   5.850
 9528POPC   GL165125  15.955  27.582   6.150
 9528POPC   GL265126  15.842  27.581   6.150
 9528POPC   C1A65127  15.997  27.548   6.450
 9528POPC   D2A65128  15.906  27.553   6.750
 9528POPC   C3A65129  15.974  27.547   7.050
 9528POPC   C4A65130  15.912  27.611   7.350
 9528POPC   C1B65131  15.680  27.534   6.450
 9528POPC   C2B65132  15.689  27.560   6.750
 9528POPC   C3B65133  15.676  27.526   7.050
 9528POPC   C4B65134  15.727  27.616   7.350
 9529POPC   NC365135  44.623   5.125   5.550
 9529POPC   PO465136  44.619   5.096   5.850
 9529POPC   GL165137  44.641   5.132   6.150
 9529POPC   GL265138  44.616   5.151   6.150
 9529POPC   C1A65139  44.687   5.105   6.450
 9529POPC   D2A65140  44.663   5.108   6.750
 9529POPC   C3A65141  44.621   5.083   7.050
 9529POPC   C4A65142  44.618   5.143   7.350
 9529POPC   C1B65143  44.489   5.304   6.450
 9529POPC   C2B65144  44.492   5.225   6.750
 9529POPC   C3B65145  44.514   5.294   7.050
 9529POPC   C4B65146  44.473   5.283   7.350
 9530POPC   NC365147  41.537  29.141   5.550
 9530POPC   PO465148  41.561  29.120   5.850
 9530POPC   GL165149  41.514  29.148   6.150
 9530POPC   GL265150  41.698  29.256   6.150
 9530POPC   C1A65151  41.608  29.105   6.450
 9530POPC   D2A65152  41.509  29.192   6.750
 9530POPC   C3A65153  41.580  29.114   7.050
 9530POPC   C4A65154  41.542  29.153   7.350
 9530POPC   C1B65155  41.741  29.343   6.450
 9530POPC   C2B65156  41.793  29.330   6.750
 9530POPC   C3B65157  41.773  29.287   7.050
 9530POPC   C4B65158  41.780  29.355   7.350
 9531POPC   NC365159  34.574  39.244   5.550
 9531POPC   PO465160  34.618  39.211   5.850
 9531POPC   GL165161  34.612  39.224   6.150
 9531POPC   GL265162  34.694  39.344   6.150
 9531POPC   C1A65163  34.617  39.280   6.450
 9531POPC   D2A65164  34.557  39.276   6.750
 9531POPC   C3A65165  34.548  39.281   7.050
 9531POPC   C4A65166  34.547  39.235   7.350
 9531POPC   C1B65167  34.764  39.402   6.450
 9531POPC   C2B65168  34.718  39.427   6.750
 9531POPC   C3B65169  34.783  39.455   7.050
 9531POPC   C4B65170  34.760  39.438   7.350
 9532POPC   NC365171  20.627  30.667   5.550
 9532POPC   PO465172  20.631  30.717   5.850
 9532POPC   GL165173  20.564  30.738   6.150
 9532POPC   GL265174  20.692  30.635   6.150
 9532POPC   C1A65175  20.568  30.719   6.450
 9532POPC   D2A65176  20.648  30.742   6.750
 9532POPC   C3A65177  20.611  30.709   7.050
 9532POPC   C4A65178  20.615  30.677   7.350
 9532POPC   C1B65179  20.733  30.479   6.450
 9532POPC   C2B65180  20.790  30.498   6.750
 9532POPC   C3B65181  20.724  30.508   7.050
 9532POPC   C4B65182  20.740  30.520   7.350
 9533POPC   NC365183  41.601   7.414   5.550
 9533POPC   PO465184  41.589   7.395   5.850
 9533POPC   GL165185  41.593   7.458   6.150
 9533POPC   GL265186  41.729   7.372   6.150
 9533POPC   C1A65187  41.534   7.415   6.450
 9533POPC   D2A65188  41.578   7.390   6.750
 9533POPC   C3A65189  41.544   7.429   7.050
 9533POPC   C4A65190  41.525   7.470   7.350
 9533POPC   C1B65191  41.833   7.411   6.450
 9533POPC   C2B65192  41.829   7.459   6.750
 9533POPC   C3B65193  41.827   7.388   7.050
 9533POPC   C4B65194  41.789   7.456   7.350
 9534POPC   NC365195  23.699  44.636   5.550
 9534POPC   PO465196  23.669  44.634   5.850
 9534POPC   GL165197  23.730  44.616   6.150
 9534POPC   GL265198  23.744  44.783   6.150
 9534POPC   C1A65199  23.758  44.629   6.450
 9534POPC   D2A65200  23.709  44.699   6.750
 9534POPC   C3A65201  23.668  44.677   7.050
 9534POPC   C4A65202  23.753  44.628   7.350
 9534POPC   C1B65203  23.790  44.920   6.450
 9534POPC   C2B65204  23.844  44.871   6.750
 9534POPC   C3B65205  23.791  44.896   7.050
 9534POPC   C4B65206  23.818  44.904   7.350
 9535POPC   NC365207  30.649  28.365   5.550
 9535POPC   PO465208  30.713  28.414   5.850
 9535POPC   GL165209  30.739  28.383   6.150
 9535POPC   GL265210  30.727  28.265   6.150
 9535POPC   C1A65211  30.736  28.327   6.450
 9535POPC   D2A65212  30.735  28.354   6.750
 9535POPC   C3A65213  30.669  28.373   7.050
 9535POPC   C4A65214  30.741  28.350   7.350
 9535POPC   C1B65215  30.626  28.074   6.450
 9535POPC   C2B65216  30.687  28.104   6.750
 9535POPC   C3B65217  30.630  28.116   7.050
 9535POPC   C4B65218  30.682  28.162   7.350
 9536POPC   NC365219   7.382  37.691   5.550
 9536POPC   PO465220   7.379  37.714   5.850
 9536POPC   GL165221   7.471  37.660   6.150
 9536POPC   GL265222   7.339  37.613   6.150
 9536POPC   C1A65223   7.430  37.632   6.450
 9536POPC   D2A65224   7.399  37.687   6.750
 9536POPC   C3A65225   7.418  37.649   7.050
 9536POPC   C4A65226   7.392  37.727   7.350
 9536POPC   C1B65227   7.328  37.454   6.450
 9536POPC   C2B65228   7.278  37.475   6.750
 9536POPC   C3B65229   7.365  37.452   7.050
 9536POPC   C4B65230   7.322  37.435   7.350
 9537POPC   NC365231  30.720  35.352   5.550
 9537POPC   PO465232  30.695  35.388   5.850
 9537POPC   GL165233  30.659  35.370   6.150
 9537POPC   GL265234  30.686  35.213   6.150
 9537POPC   C1A65235  30.734  35.373   6.450
 9537POPC   D2A65236  30.740  35.366   6.750
 9537POPC   C3A65237  30.743  35.342   7.050
 9537POPC   C4A65238  30.728  35.310   7.350
 9537POPC   C1B65239  30.777  35.097   6.450
 9537POPC   C2B65240  30.811  35.085   6.750
 9537POPC   C3B65241  30.767  35.086   7.050
 9537POPC   C4B65242  30.762  35.113   7.350
 9538POPC   NC365243  34.529  24.472   5.550
 9538POPC   PO465244  34.541  24.536   5.850
 9538POPC   GL165245  34.613  24.524   6.150
 9538POPC   GL265246  34.675  24.376   6.150
 9538POPC   C1A65247  34.540  24.469   6.450
 9538POPC   D2A65248  34.588  24.458   6.750
 9538POPC   C3A65249  34.602  24.478   7.050
 9538POPC   C4A65250  34.605  24.445   7.350
 9538POPC   C1B65251  34.713  24.238   6.450
 9538POPC   C2B65252  34.678  24.319   6.750
 9538POPC   C3B65253  34.739  24.319   7.050
 9538POPC   C4B65254  34.701  24.301   7.350
 9539POPC   NC365255  41.561  22.211   5.550
 9539POPC   PO465256  41.602  22.186   5.850
 9539POPC   GL165257  41.511  22.120   6.150
 9539POPC   GL265258  41.494  22.320   6.150
 9539POPC   C1A65259  41.523  22.149   6.450
 9539POPC   D2A65260  41.598  22.126   6.750
 9539POPC   C3A65261  41.531  22.198   7.050
 9539POPC   C4A65262  41.577  22.113   7.350
 9539POPC   C1B65263  41.562  22.367   6.450
 9539POPC   C2B65264  41.544  22.438   6.750
 9539POPC   C3B65265  41.495  22.365   7.050
 9539POPC   C4B65266  41.478  22.456   7.350
 9540POPC   NC365267  12.893  40.013   5.550
 9540POPC   PO465268  12.900  39.961   5.850
 9540POPC   GL165269  12.876  40.056   6.150
 9540POPC   GL265270  12.712  39.944   6.150
 9540POPC   C1A65271  12.840  39.974   6.450
 9540POPC   D2A65272  12.870  40.025   6.750
 9540POPC   C3A65273  12.863  40.001   7.050
 9540POPC   C4A65274  12.827  40.031   7.350
 9540POPC   C1B65275  12.657  39.886   6.450
 9540POPC   C2B65276  12.673  39.851   6.750
 9540POPC   C3B65277  12.649  39.809   7.050
 9540POPC   C4B65278  12.698  39.848   7.350
 9541POPC   NC365279  17.530   1.224   5.550
 9541POPC   PO465280  17.553   1.196   5.850
 9541POPC   GL165281  17.526   1.211   6.150
 9541POPC   GL265282  17.449   1.306   6.150
 9541POPC   C1A65283  17.533   1.188   6.450
 9541POPC   D2A65284  17.469   1.178   6.750
 9541POPC   C3A65285  17.500   1.225   7.050
 9541POPC   C4A65286  17.540   1.247   7.350
 9541POPC   C1B65287  17.400   1.468   6.450
 9541POPC   C2B65288  17.400   1.479   6.750
 9541POPC   C3B65289  17.438   1.433   7.050
 9541POPC   C4B65290  17.441   1.410   7.350
 9542POPC   NC365291  13.641   3.529   5.550
 9542POPC   PO465292  13.671   3.554   5.850
 9542POPC   GL165293  13.650   3.579   6.150
 9542POPC   GL265294  13.607   3.467   6.150
 9542POPC   C1A65295  13.670   3.537   6.450
 9542POPC   D2A65296  13.583   3.564   6.750
 9542POPC   C3A65297  13.585   3.556   7.050
 9542POPC   C4A65298  13.624   3.528   7.350
 9542POPC   C1B65299  13.491   3.373   6.450
 9542POPC   C2B65300  13.459   3.290   6.750
 9542POPC   C3B65301  13.541   3.324   7.050
 9542POPC   C4B65302  13.459   3.351   7.350
 9543POPC   NC365303  40.829  25.999   5.550
 9543POPC   PO465304  40.755  26.028   5.850
 9543POPC   GL165305  40.816  26.043   6.150
 9543POPC   GL265306  40.852  25.942   6.150
 9543POPC   C1A65307  40.769  25.996   6.450
 9543POPC   D2A65308  40.738  26.063   6.750
 9543POPC   C3A65309  40.819  26.004   7.050
 9543POPC   C4A65310  40.761  26.036   7.350
 9543POPC   C1B65311  40.932  25.862   6.450
 9543POPC   C2B65312  40.922  25.839   6.750
 9543POPC   C3B65313  40.879  25.772   7.050
 9543POPC   C4B65314  40.857  25.819   7.350
 9544POPC   NC365315   1.213   5.881   5.550
 9544POPC   PO465316   1.245   5.832   5.850
 9544POPC   GL165317   1.214   5.917   6.150
 9544POPC   GL265318   1.183   5.751   6.150
 9544POPC   C1A65319   1.198   5.844   6.450
 9544POPC   D2A65320   1.246   5.877   6.750
 9544POPC   C3A65321   1.232   5.903   7.050
 9544POPC   C4A65322   1.168   5.829   7.350
 9544POPC   C1B65323   1.204   5.641   6.450
 9544POPC   C2B65324   1.200   5.628   6.750
 9544POPC   C3B65325   1.151   5.576   7.050
 9544POPC   C4B65326   1.229   5.653   7.350
 9545POPC   NC365327   8.965   5.139   5.550
 9545POPC   PO465328   8.959   5.078   5.850
 9545POPC   GL165329   8.972   5.072   6.150
 9545POPC   GL265330   9.029   4.990   6.150
 9545POPC   C1A65331   8.940   5.123   6.450
 9545POPC   D2A65332   8.923   5.134   6.750
 9545POPC   C3A65333   8.970   5.084   7.050
 9545POPC   C4A65334   8.952   5.128   7.350
 9545POPC   C1B65335   9.033   4.862   6.450
 9545POPC   C2B65336   8.999   4.852   6.750
 9545POPC   C3B65337   9.058   4.851   7.050
 9545POPC   C4B65338   9.050   4.805   7.350
 9546POPC   NC365339  18.317   2.799   5.550
 9546POPC   PO465340  18.266   2.743   5.850
 9546POPC   GL165341  18.235   2.732   6.150
 9546POPC   GL265342  18.207   2.653   6.150
 9546POPC   C1A65343  18.244   2.721   6.450
 9546POPC   D2A65344  18.288   2.735   6.750
 9546POPC   C3A65345  18.240   2.810   7.050
 9546POPC   C4A65346  18.261   2.788   7.350
 9546POPC   C1B65347  18.202   2.524   6.450
 9546POPC   C2B65348  18.172   2.584   6.750
 9546POPC   C3B65349  18.144   2.546   7.050
 9546POPC   C4B65350  18.165   2.571   7.350
 9547POPC   NC365351  25.230  18.265   5.550
 9547POPC   PO465352  25.295  18.249   5.850
 9547POPC   GL165353  25.269  18.264   6.150
 9547POPC   GL265354  25.274  18.358   6.150
 9547POPC   C1A65355  25.237  18.288   6.450
 9547POPC   D2A65356  25.292  18.290   6.750
 9547POPC   C3A65357  25.297  18.284   7.050
 9547POPC   C4A65358  25.224  18.247   7.350
 9547POPC   C1B65359  25.279  18.511   6.450
 9547POPC   C2B65360  25.198  18.526   6.750
 9547POPC   C3B65361  25.274  18.550   7.050
 9547POPC   C4B65362  25.243  18.536   7.350
 9548POPC   NC365363  33.810  26.793   5.550
 9548POPC   PO465364  33.802  26.829   5.850
 9548POPC   GL165365  33.790  26.768   6.150
 9548POPC   GL265366  33.704  26.701   6.150
 9548POPC   C1A65367  33.791  26.785   6.450
 9548POPC   D2A65368  33.780  26.853   6.750
 9548POPC   C3A65369  33.803  26.783   7.050
 9548POPC   C4A65370  33.834  26.861   7.350
 9548POPC   C1B65371  33.710  26.556   6.450
 9548POPC   C2B65372  33.699  26.632   6.750
 9548POPC   C3B65373  33.672  26.574   7.050
 9548POPC   C4B65374  33.694  26.586   7.350
 9549POPC   NC365375  40.033  40.810   5.550
 9549POPC   PO465376  39.971  40.769   5.850
 9549POPC   GL165377  40.027  40.828   6.150
 9549POPC   GL265378  39.850  40.760   6.150
 9549POPC   C1A65379  39.965  40.814   6.450
 9549POPC   D2A65380  40.006  40.747   6.750
 9549POPC   C3A65381  40.037  40.776   7.050
 9549POPC   C4A65382  39.997  40.830   7.350
 9549POPC   C1B65383  39.786  40.781   6.450
 9549POPC   C2B65384  39.759  40.790   6.750
 9549POPC   C3B65385  39.773  40.719   7.050
 9549POPC   C4B65386  39.795  40.701   7.350
 9550POPC   NC365387  42.338   7.390   5.550
 9550POPC   PO465388  42.291   7.458   5.850
 9550POPC   GL165389  42.304   7.462   6.150
 9550POPC   GL265390  42.429   7.537   6.150
 9550POPC   C1A65391  42.369   7.390   6.450
 9550POPC   D2A65392  42.367   7.465   6.750
 9550POPC   C3A65393  42.375   7.394   7.050
 9550POPC   C4A65394  42.353   7.455   7.350
 9550POPC   C1B65395  42.573   7.583   6.450
 9550POPC   C2B65396  42.497   7.579   6.750
 9550POPC   C3B65397  42.558   7.532   7.050
 9550POPC   C4B65398  42.535   7.586   7.350
 9551POPC   NC365399   3.544   4.281   5.550
 9551POPC   PO465400   3.563   4.273   5.850
 9551POPC   GL165401   3.517   4.313   6.150
 9551POPC   GL265402   3.546   4.243   6.150
 9551POPC   C1A65403   3.583   4.318   6.450
 9551POPC   D2A65404   3.501   4.346   6.750
 9551POPC   C3A65405   3.559   4.347   7.050
 9551POPC   C4A65406   3.492   4.361   7.350
 9551POPC   C1B65407   3.586   4.062   6.450
 9551POPC   C2B65408   3.551   4.097   6.750
 9551POPC   C3B65409   3.601   4.048   7.050
 9551POPC   C4B65410   3.597   4.060   7.350
 9552POPC   NC365411   5.824  44.633   5.550
 9552POPC   PO465412   5.865  44.631   5.850
 9552POPC   GL165413   5.836  44.616   6.150
 9552POPC   GL265414   5.953  44.567   6.150
 9552POPC   C1A65415   5.844  44.653   6.450
 9552POPC   D2A65416   5.909  44.664   6.750
 9552POPC   C3A65417   5.890  44.625   7.050
 9552POPC   C4A65418   5.864  44.682   7.350
 9552POPC   C1B65419   6.033  44.497   6.450
 9552POPC   C2B65420   6.039  44.460   6.750
 9552POPC   C3B65421   6.089  44.506   7.050
 9552POPC   C4B65422   5.998  44.536   7.350
 9553POPC   NC365423  33.775   9.759   5.550
 9553POPC   PO465424  33.833   9.721   5.850
 9553POPC   GL165425  33.836   9.765   6.150
 9553POPC   GL265426  33.947   9.784   6.150
 9553POPC   C1A65427  33.849   9.712   6.450
 9553POPC   D2A65428  33.751   9.788   6.750
 9553POPC   C3A65429  33.844   9.789   7.050
 9553POPC   C4A65430  33.817   9.712   7.350
 9553POPC   C1B65431  34.001   9.790   6.450
 9553POPC   C2B65432  34.051   9.784   6.750
 9553POPC   C3B65433  34.094   9.778   7.050
 9553POPC   C4B65434  34.077   9.755   7.350
 9554POPC   NC365435  26.771   0.443   5.550
 9554POPC   PO465436  26.840   0.435   5.850
 9554POPC   GL165437  26.823   0.457   6.150
 9554POPC   GL265438  26.904   0.390   6.150
 9554POPC   C1A65439  26.850   0.431   6.450
 9554POPC   D2A65440  26.818   0.476   6.750
 9554POPC   C3A65441  26.820   0.466   7.050
 9554POPC   C4A65442  26.851   0.485   7.350
 9554POPC   C1B65443  27.022   0.430   6.450
 9554POPC   C2B65444  27.045   0.405   6.750
 9554POPC   C3B65445  27.040   0.389   7.050
 9554POPC   C4B65446  27.029   0.389   7.350
 9555POPC   NC365447  32.199  29.950   5.550
 9555POPC   PO465448  32.296  29.874   5.850
 9555POPC   GL165449  32.258  29.894   6.150
 9555POPC   GL265450  32.334  30.053   6.150
 9555POPC   C1A65451  32.274  29.894   6.450
 9555POPC   D2A65452  32.252  29.919   6.750
 9555POPC   C3A65453  32.260  29.927   7.050
 9555POPC   C4A65454  32.212  29.945   7.350
 9555POPC   C1B65455  32.407  30.150   6.450
 9555POPC   C2B65456  32.424  30.070   6.750
 9555POPC   C3B65457  32.429  30.116   7.050
 9555POPC   C4B65458  32.405  30.117   7.350
 9556POPC   NC365459   8.240  22.203   5.550
 9556POPC   PO465460   8.218  22.191   5.850
 9556POPC   GL165461   8.165  22.154   6.150
 9556POPC   GL265462   8.107  22.152   6.150
 9556POPC   C1A65463   8.242  22.179   6.450
 9556POPC   D2A65464   8.240  22.135   6.750
 9556POPC   C3A65465   8.236  22.118   7.050
 9556POPC   C4A65466   8.213  22.139   7.350
 9556POPC   C1B65467   7.916  22.275   6.450
 9556POPC   C2B65468   7.933  22.205   6.750
 9556POPC   C3B65469   7.918  22.203   7.050
 9556POPC   C4B65470   7.912  22.260   7.350
 9557POPC   NC365471   3.514  43.108   5.550
 9557POPC   PO465472   3.579  43.110   5.850
 9557POPC   GL165473   3.540  43.077   6.150
 9557POPC   GL265474   3.491  42.990   6.150
 9557POPC   C1A65475   3.591  43.119   6.450
 9557POPC   D2A65476   3.571  43.118   6.750
 9557POPC   C3A65477   3.492  43.071   7.050
 9557POPC   C4A65478   3.519  43.158   7.350
 9557POPC   C1B65479   3.526  42.907   6.450
 9557POPC   C2B65480   3.582  42.890   6.750
 9557POPC   C3B65481   3.561  42.813   7.050
 9557POPC   C4B65482   3.543  42.865   7.350
 9558POPC   NC365483   7.412  35.340   5.550
 9558POPC   PO465484   7.391  35.392   5.850
 9558POPC   GL165485   7.444  35.309   6.150
 9558POPC   GL265486   7.591  35.333   6.150
 9558POPC   C1A65487   7.455  35.320   6.450
 9558POPC   D2A65488   7.403  35.373   6.750
 9558POPC   C3A65489   7.437  35.320   7.050
 9558POPC   C4A65490   7.411  35.351   7.350
 9558POPC   C1B65491   7.716  35.356   6.450
 9558POPC   C2B65492   7.650  35.356   6.750
 9558POPC   C3B65493   7.657  35.314   7.050
 9558POPC   C4B65494   7.683  35.374   7.350
 9559POPC   NC365495   8.925  36.901   5.550
 9559POPC   PO465496   8.945  36.950   5.850
 9559POPC   GL165497   8.935  36.897   6.150
 9559POPC   GL265498   8.876  36.898   6.150
 9559POPC   C1A65499   8.968  36.885   6.450
 9559POPC   D2A65500   8.966  36.885   6.750
 9559POPC   C3A65501   8.989  36.872   7.050
 9559POPC   C4A65502   9.021  36.941   7.350
 9559POPC   C1B65503   8.730  36.926   6.450
 9559POPC   C2B65504   8.761  36.860   6.750
 9559POPC   C3B65505   8.719  36.919   7.050
 9559POPC   C4B65506   8.746  36.924   7.350
 9560POPC   NC365507  23.672  17.534   5.550
 9560POPC   PO465508  23.675  17.500   5.850
 9560POPC   GL165509  23.691  17.507   6.150
 9560POPC   GL265510  23.684  17.586   6.150
 9560POPC   C1A65511  23.679  17.509   6.450
 9560POPC   D2A65512  23.729  17.484   6.750
 9560POPC   C3A65513  23.730  17.502   7.050
 9560POPC   C4A65514  23.676  17.545   7.350
 9560POPC   C1B65515  23.611  17.684   6.450
 9560POPC   C2B65516  23.625  17.694   6.750
 9560POPC   C3B65517  23.587  17.681   7.050
 9560POPC   C4B65518  23.591  17.670   7.350
 9561POPC   NC365519   3.570  22.931   5.550
 9561POPC   PO465520   3.527  22.952   5.850
 9561POPC   GL165521   3.583  22.977   6.150
 9561POPC   GL265522   3.398  22.886   6.150
 9561POPC   C1A65523   3.540  22.940   6.450
 9561POPC   D2A65524   3.567  22.937   6.750
 9561POPC   C3A65525   3.496  22.912   7.050
 9561POPC   C4A65526   3.529  22.936   7.350
 9561POPC   C1B65527   3.263  22.891   6.450
 9561POPC   C2B65528   3.319  22.950   6.750
 9561POPC   C3B65529   3.343  22.907   7.050
 9561POPC   C4B65530   3.340  22.890   7.350
 9562POPC   NC365531  23.713  22.195   5.550
 9562POPC   PO465532  23.741  22.175   5.850
 9562POPC   GL165533  23.756  22.175   6.150
 9562POPC   GL265534  23.591  22.214   6.150
 9562POPC   C1A65535  23.723  22.190   6.450
 9562POPC   D2A65536  23.676  22.113   6.750
 9562POPC   C3A65537  23.723  22.183   7.050
 9562POPC   C4A65538  23.702  22.156   7.350
 9562POPC   C1B65539  23.545  22.350   6.450
 9562POPC   C2B65540  23.540  22.294   6.750
 9562POPC   C3B65541  23.525  22.362   7.050
 9562POPC   C4B65542  23.575  22.329   7.350
 9563POPC   NC365543  36.924  43.900   5.550
 9563POPC   PO465544  36.921  43.925   5.850
 9563POPC   GL165545  36.860  43.923   6.150
 9563POPC   GL265546  37.009  43.784   6.150
 9563POPC   C1A65547  36.921  43.903   6.450
 9563POPC   D2A65548  36.888  43.931   6.750
 9563POPC   C3A65549  36.871  43.867   7.050
 9563POPC   C4A65550  36.887  43.837   7.350
 9563POPC   C1B65551  37.023  43.692   6.450
 9563POPC   C2B65552  36.991  43.626   6.750
 9563POPC   C3B65553  37.075  43.633   7.050
 9563POPC   C4B65554  37.009  43.625   7.350
 9564POPC   NC365555  21.385  21.363   5.550
 9564POPC   PO465556  21.364  21.434   5.850
 9564POPC   GL165557  21.380  21.361   6.150
 9564POPC   GL265558  21.481  21.476   6.150
 9564POPC   C1A65559  21.406  21.349   6.450
 9564POPC   D2A65560  21.345  21.378   6.750
 9564POPC   C3A65561  21.434  21.396   7.050
 9564POPC   C4A65562  21.429  21.405   7.350
 9564POPC   C1B65563  21.570  21.478   6.450
 9564POPC   C2B65564  21.629  21.478   6.750
 9564POPC   C3B65565  21.594  21.487   7.050
 9564POPC   C4B65566  21.584  21.510   7.350
 9565POPC   NC365567   2.782   8.165   5.550
 9565POPC   PO465568   2.740   8.184   5.850
 9565POPC   GL165569   2.737   8.212   6.150
 9565POPC   GL265570   2.855   8.324   6.150
 9565POPC   C1A65571   2.782   8.203   6.450
 9565POPC   D2A65572   2.721   8.189   6.750
 9565POPC   C3A65573   2.764   8.154   7.050
 9565POPC   C4A65574   2.789   8.220   7.350
 9565POPC   C1B65575   2.903   8.412   6.450
 9565POPC   C2B65576   2.895   8.429   6.750
 9565POPC   C3B65577   2.898   8.401   7.050
 9565POPC   C4B65578   2.834   8.404   7.350
 9566POPC   NC365579  25.224  21.433   5.550
 9566POPC   PO465580  25.238  21.381   5.850
 9566POPC   GL165581  25.240  21.360   6.150
 9566POPC   GL265582  25.164  21.306   6.150
 9566POPC   C1A65583  25.292  21.366   6.450
 9566POPC   D2A65584  25.227  21.388   6.750
 9566POPC   C3A65585  25.315  21.434   7.050
 9566POPC   C4A65586  25.294  21.356   7.350
 9566POPC   C1B65587  25.136  21.170   6.450
 9566POPC   C2B65588  25.127  21.204   6.750
 9566POPC   C3B65589  25.105  21.211   7.050
 9566POPC   C4B65590  25.107  21.151   7.350
 9567POPC   NC365591   7.422  39.241   5.550
 9567POPC   PO465592   7.468  39.219   5.850
 9567POPC   GL165593   7.451  39.182   6.150
 9567POPC   GL265594   7.301  39.357   6.150
 9567POPC   C1A65595   7.433  39.221   6.450
 9567POPC   D2A65596   7.419  39.270   6.750
 9567POPC   C3A65597   7.455  39.226   7.050
 9567POPC   C4A65598   7.380  39.265   7.350
 9567POPC   C1B65599   7.229  39.371   6.450
 9567POPC   C2B65600   7.260  39.416   6.750
 9567POPC   C3B65601   7.230  39.416   7.050
 9567POPC   C4B65602   7.180  39.337   7.350
 9568POPC   NC365603  29.907  21.417   5.550
 9568POPC   PO465604  29.936  21.338   5.850
 9568POPC   GL165605  29.963  21.343   6.150
 9568POPC   GL265606  29.753  21.313   6.150
 9568POPC   C1A65607  29.935  21.343   6.450
 9568POPC   D2A65608  29.907  21.377   6.750
 9568POPC   C3A65609  29.897  21.391   7.050
 9568POPC   C4A65610  29.918  21.388   7.350
 9568POPC   C1B65611  29.662  21.338   6.450
 9568POPC   C2B65612  29.685  21.308   6.750
 9568POPC   C3B65613  29.699  21.290   7.050
 9568POPC   C4B65614  29.665  21.351   7.350
 9569POPC   NC365615  15.907  26.823   5.550
 9569POPC   PO465616  15.961  26.777   5.850
 9569POPC   GL165617  15.984  26.819   6.150
 9569POPC   GL265618  15.910  26.741   6.150
 9569POPC   C1A65619  15.994  26.808   6.450
 9569POPC   D2A65620  15.957  26.831   6.750
 9569POPC   C3A65621  15.907  26.860   7.050
 9569POPC   C4A65622  15.938  26.787   7.350
 9569POPC   C1B65623  15.821  26.609   6.450
 9569POPC   C2B65624  15.829  26.578   6.750
 9569POPC   C3B65625  15.879  26.575   7.050
 9569POPC   C4B65626  15.846  26.561   7.350
 9570POPC   NC365627   2.006  43.084   5.550
 9570POPC   PO465628   2.021  43.154   5.850
 9570POPC   GL165629   2.021  43.158   6.150
 9570POPC   GL265630   2.094  43.126   6.150
 9570POPC   C1A65631   2.005  43.108   6.450
 9570POPC   D2A65632   1.953  43.095   6.750
 9570POPC   C3A65633   1.981  43.156   7.050
 9570POPC   C4A65634   1.947  43.085   7.350
 9570POPC   C1B65635   2.215  43.181   6.450
 9570POPC   C2B65636   2.274  43.190   6.750
 9570POPC   C3B65637   2.194  43.227   7.050
 9570POPC   C4B65638   2.240  43.189   7.350
 9571POPC   NC365639  12.860  12.851   5.550
 9571POPC   PO465640  12.869  12.809   5.850
 9571POPC   GL165641  12.828  12.893   6.150
 9571POPC   GL265642  12.819  13.002   6.150
 9571POPC   C1A65643  12.884  12.861   6.450
 9571POPC   D2A65644  12.832  12.890   6.750
 9571POPC   C3A65645  12.843  12.837   7.050
 9571POPC   C4A65646  12.821  12.818   7.350
 9571POPC   C1B65647  12.777  13.103   6.450
 9571POPC   C2B65648  12.807  13.103   6.750
 9571POPC   C3B65649  12.808  13.075   7.050
 9571POPC   C4B65650  12.733  13.137   7.350
 9572POPC   NC365651   1.199  15.220   5.550
 9572POPC   PO465652   1.186  15.154   5.850
 9572POPC   GL165653   1.235  15.132   6.150
 9572POPC   GL265654   1.135  15.265   6.150
 9572POPC   C1A65655   1.230  15.207   6.450
 9572POPC   D2A65656   1.230  15.222   6.750
 9572POPC   C3A65657   1.209  15.169   7.050
 9572POPC   C4A65658   1.206  15.200   7.350
 9572POPC   C1B65659   1.021  15.360   6.450
 9572POPC   C2B65660   0.986  15.308   6.750
 9572POPC   C3B65661   1.011  15.324   7.050
 9572POPC   C4B65662   1.053  15.390   7.350
 9573POPC   NC365663  10.476  42.328   5.550
 9573POPC   PO465664  10.546  42.329   5.850
 9573POPC   GL165665  10.540  42.365   6.150
 9573POPC   GL265666  10.554  42.427   6.150
 9573POPC   C1A65667  10.548  42.311   6.450
 9573POPC   D2A65668  10.551  42.366   6.750
 9573POPC   C3A65669  10.559  42.370   7.050
 9573POPC   C4A65670  10.490  42.351   7.350
 9573POPC   C1B65671  10.617  42.596   6.450
 9573POPC   C2B65672  10.636  42.570   6.750
 9573POPC   C3B65673  10.619  42.508   7.050
 9573POPC   C4B65674  10.596  42.521   7.350
 9574POPC   NC365675  41.552  32.991   5.550
 9574POPC   PO465676  41.547  33.038   5.850
 9574POPC   GL165677  41.598  32.993   6.150
 9574POPC   GL265678  41.587  32.865   6.150
 9574POPC   C1A65679  41.597  33.041   6.450
 9574POPC   D2A65680  41.603  33.030   6.750
 9574POPC   C3A65681  41.560  33.023   7.050
 9574POPC   C4A65682  41.529  33.039   7.350
 9574POPC   C1B65683  41.574  32.741   6.450
 9574POPC   C2B65684  41.583  32.768   6.750
 9574POPC   C3B65685  41.564  32.778   7.050
 9574POPC   C4B65686  41.592  32.787   7.350
 9575POPC   NC365687   2.781  32.293   5.550
 9575POPC   PO465688   2.765  32.231   5.850
 9575POPC   GL165689   2.783  32.204   6.150
 9575POPC   GL265690   2.887  32.232   6.150
 9575POPC   C1A65691   2.782  32.251   6.450
 9575POPC   D2A65692   2.803  32.255   6.750
 9575POPC   C3A65693   2.734  32.206   7.050
 9575POPC   C4A65694   2.778  32.259   7.350
 9575POPC   C1B65695   3.011  32.220   6.450
 9575POPC   C2B65696   2.969  32.148   6.750
 9575POPC   C3B65697   2.988  32.193   7.050
 9575POPC   C4B65698   3.044  32.123   7.350
 9576POPC   NC365699   8.176   2.000   5.550
 9576POPC   PO465700   8.151   2.008   5.850
 9576POPC   GL165701   8.163   2.003   6.150
 9576POPC   GL265702   8.103   2.076   6.150
 9576POPC   C1A65703   8.182   2.002   6.450
 9576POPC   D2A65704   8.231   1.982   6.750
 9576POPC   C3A65705   8.220   1.997   7.050
 9576POPC   C4A65706   8.187   1.969   7.350
 9576POPC   C1B65707   8.039   2.156   6.450
 9576POPC   C2B65708   8.034   2.144   6.750
 9576POPC   C3B65709   8.010   2.121   7.050
 9576POPC   C4B65710   7.999   2.115   7.350
 9577POPC   NC365711  22.210   2.727   5.550
 9577POPC   PO465712  22.136   2.763   5.850
 9577POPC   GL165713  22.182   2.725   6.150
 9577POPC   GL265714  22.191   2.665   6.150
 9577POPC   C1A65715  22.184   2.809   6.450
 9577POPC   D2A65716  22.189   2.738   6.750
 9577POPC   C3A65717  22.117   2.730   7.050
 9577POPC   C4A65718  22.150   2.779   7.350
 9577POPC   C1B65719  22.261   2.516   6.450
 9577POPC   C2B65720  22.244   2.520   6.750
 9577POPC   C3B65721  22.244   2.519   7.050
 9577POPC   C4B65722  22.243   2.499   7.350
 9578POPC   NC365723  32.254  21.352   5.550
 9578POPC   PO465724  32.204  21.410   5.850
 9578POPC   GL165725  32.239  21.337   6.150
 9578POPC   GL265726  32.230  21.493   6.150
 9578POPC   C1A65727  32.250  21.376   6.450
 9578POPC   D2A65728  32.286  21.409   6.750
 9578POPC   C3A65729  32.217  21.343   7.050
 9578POPC   C4A65730  32.265  21.404   7.350
 9578POPC   C1B65731  32.275  21.667   6.450
 9578POPC   C2B65732  32.252  21.610   6.750
 9578POPC   C3B65733  32.258  21.596   7.050
 9578POPC   C4B65734  32.200  21.682   7.350
 9579POPC   NC365735  19.061   2.722   5.550
 9579POPC   PO465736  19.013   2.788   5.850
 9579POPC   GL165737  19.091   2.798   6.150
 9579POPC   GL265738  19.086   2.620   6.150
 9579POPC   C1A65739  19.032   2.750   6.450
 9579POPC   D2A65740  19.069   2.814   6.750
 9579POPC   C3A65741  19.034   2.716   7.050
 9579POPC   C4A65742  19.104   2.793   7.350
 9579POPC   C1B65743  19.148   2.540   6.450
 9579POPC   C2B65744  19.152   2.486   6.750
 9579POPC   C3B65745  19.140   2.499   7.050
 9579POPC   C4B65746  19.094   2.535   7.350
 9580POPC   NC365747  13.640  39.209   5.550
 9580POPC   PO465748  13.587  39.184   5.850
 9580POPC   GL165749  13.604  39.277   6.150
 9580POPC   GL265750  13.618  39.082   6.150
 9580POPC   C1A65751  13.586  39.194   6.450
 9580POPC   D2A65752  13.648  39.187   6.750
 9580POPC   C3A65753  13.607  39.240   7.050
 9580POPC   C4A65754  13.606  39.272   7.350
 9580POPC   C1B65755  13.539  39.040   6.450
 9580POPC   C2B65756  13.572  38.958   6.750
 9580POPC   C3B65757  13.516  38.977   7.050
 9580POPC   C4B65758  13.551  39.003   7.350
 9581POPC   NC365759   5.088   4.332   5.550
 9581POPC   PO465760   5.078   4.304   5.850
 9581POPC   GL165761   5.114   4.310   6.150
 9581POPC   GL265762   5.174   4.156   6.150
 9581POPC   C1A65763   5.114   4.333   6.450
 9581POPC   D2A65764   5.124   4.318   6.750
 9581POPC   C3A65765   5.105   4.361   7.050
 9581POPC   C4A65766   5.111   4.352   7.350
 9581POPC   C1B65767   5.178   4.045   6.450
 9581POPC   C2B65768   5.199   4.031   6.750
 9581POPC   C3B65769   5.185   4.057   7.050
 9581POPC   C4B65770   5.132   4.038   7.350
 9582POPC   NC365771  36.922  36.119   5.550
 9582POPC   PO465772  36.900  36.095   5.850
 9582POPC   GL165773  36.902  36.100   6.150
 9582POPC   GL265774  36.830  36.098   6.150
 9582POPC   C1A65775  36.937  36.130   6.450
 9582POPC   D2A65776  36.916  36.137   6.750
 9582POPC   C3A65777  36.907  36.177   7.050
 9582POPC   C4A65778  36.854  36.110   7.350
 9582POPC   C1B65779  36.666  36.093   6.450
 9582POPC   C2B65780  36.675  36.092   6.750
 9582POPC   C3B65781  36.633  36.086   7.050
 9582POPC   C4B65782  36.678  36.097   7.350
 9583POPC   NC365783  41.584  31.426   5.550
 9583POPC   PO465784  41.575  31.478   5.850
 9583POPC   GL165785  41.588  31.488   6.150
 9583POPC   GL265786  41.573  31.618   6.150
 9583POPC   C1A65787  41.576  31.471   6.450
 9583POPC   D2A65788  41.576  31.473   6.750
 9583POPC   C3A65789  41.540  31.476   7.050
 9583POPC   C4A65790  41.586  31.502   7.350
 9583POPC   C1B65791  41.625  31.672   6.450
 9583POPC   C2B65792  41.715  31.702   6.750
 9583POPC   C3B65793  41.683  31.720   7.050
 9583POPC   C4B65794  41.706  31.747   7.350
 9584POPC   NC365795   5.851  30.732   5.550
 9584POPC   PO465796   5.828  30.721   5.850
 9584POPC   GL165797   5.835  30.725   6.150
 9584POPC   GL265798   5.944  30.803   6.150
 9584POPC   C1A65799   5.830  30.660   6.450
 9584POPC   D2A65800   5.825  30.677   6.750
 9584POPC   C3A65801   5.889  30.685   7.050
 9584POPC   C4A65802   5.910  30.648   7.350
 9584POPC   C1B65803   6.016  30.918   6.450
 9584POPC   C2B65804   6.023  30.967   6.750
 9584POPC   C3B65805   6.006  30.968   7.050
 9584POPC   C4B65806   6.000  30.881   7.350
 9585POPC   NC365807  33.776  42.326   5.550
 9585POPC   PO465808  33.767  42.345   5.850
 9585POPC   GL165809  33.782  42.370   6.150
 9585POPC   GL265810  33.692  42.451   6.150
 9585POPC   C1A65811  33.791  42.292   6.450
 9585POPC   D2A65812  33.832  42.329   6.750
 9585POPC   C3A65813  33.752  42.367   7.050
 9585POPC   C4A65814  33.775  42.379   7.350
 9585POPC   C1B65815  33.700  42.558   6.450
 9585POPC   C2B65816  33.686  42.513   6.750
 9585POPC   C3B65817  33.681  42.566   7.050
 9585POPC   C4B65818  33.713  42.592   7.350
 9586POPC   NC365819  27.558  36.101   5.550
 9586POPC   PO465820  27.639  36.114   5.850
 9586POPC   GL165821  27.603  36.148   6.150
 9586POPC   GL265822  27.539  36.047   6.150
 9586POPC   C1A65823  27.611  36.177   6.450
 9586POPC   D2A65824  27.602  36.165   6.750
 9586POPC   C3A65825  27.623  36.171   7.050
 9586POPC   C4A65826  27.612  36.151   7.350
 9586POPC   C1B65827  27.543  35.854   6.450
 9586POPC   C2B65828  27.574  35.834   6.750
 9586POPC   C3B65829  27.539  35.892   7.050
 9586POPC   C4B65830  27.513  35.859   7.350
 9587POPC   NC365831  29.095   2.720   5.550
 9587POPC   PO465832  29.118   2.758   5.850
 9587POPC   GL165833  29.191   2.743   6.150
 9587POPC   GL265834  29.019   2.740   6.150
 9587POPC   C1A65835  29.178   2.773   6.450
 9587POPC   D2A65836  29.177   2.814   6.750
 9587POPC   C3A65837  29.124   2.755   7.050
 9587POPC   C4A65838  29.180   2.729   7.350
 9587POPC   C1B65839  28.878   2.716   6.450
 9587POPC   C2B65840  28.896   2.712   6.750
 9587POPC   C3B65841  28.921   2.722   7.050
 9587POPC   C4B65842  28.945   2.665   7.350
 9588POPC   NC365843  38.473   8.215   5.550
 9588POPC   PO465844  38.502   8.237   5.850
 9588POPC   GL165845  38.482   8.165   6.150
 9588POPC   GL265846  38.302   8.201   6.150
 9588POPC   C1A65847  38.418   8.220   6.450
 9588POPC   D2A65848  38.465   8.180   6.750
 9588POPC   C3A65849  38.468   8.188   7.050
 9588POPC   C4A65850  38.418   8.188   7.350
 9588POPC   C1B65851  38.194   8.244   6.450
 9588POPC   C2B65852  38.213   8.267   6.750
 9588POPC   C3B65853  38.170   8.326   7.050
 9588POPC   C4B65854  38.211   8.283   7.350
 9589POPC   NC365855  32.220  20.605   5.550
 9589POPC   PO465856  32.287  20.641   5.850
 9589POPC   GL165857  32.298  20.655   6.150
 9589POPC   GL265858  32.333  20.467   6.150
 9589POPC   C1A65859  32.286  20.614   6.450
 9589POPC   D2A65860  32.233  20.577   6.750
 9589POPC   C3A65861  32.221  20.637   7.050
 9589POPC   C4A65862  32.271  20.582   7.350
 9589POPC   C1B65863  32.409  20.386   6.450
 9589POPC   C2B65864  32.358  20.410   6.750
 9589POPC   C3B65865  32.330  20.359   7.050
 9589POPC   C4B65866  32.372  20.349   7.350
 9590POPC   NC365867   3.590  42.348   5.550
 9590POPC   PO465868   3.572  42.381   5.850
 9590POPC   GL165869   3.571  42.318   6.150
 9590POPC   GL265870   3.420  42.200   6.150
 9590POPC   C1A65871   3.518  42.299   6.450
 9590POPC   D2A65872   3.510  42.290   6.750
 9590POPC   C3A65873   3.561  42.298   7.050
 9590POPC   C4A65874   3.553  42.340   7.350
 9590POPC   C1B65875   3.430  42.170   6.450
 9590POPC   C2B65876   3.425  42.091   6.750
 9590POPC   C3B65877   3.419  42.123   7.050
 9590POPC   C4B65878   3.431  42.147   7.350
 9591POPC   NC365879  42.370  22.157   5.550
 9591POPC   PO465880  42.367  22.205   5.850
 9591POPC   GL165881  42.309  22.152   6.150
 9591POPC   GL265882  42.165  22.146   6.150
 9591POPC   C1A65883  42.327  22.163   6.450
 9591POPC   D2A65884  42.297  22.145   6.750
 9591POPC   C3A65885  42.382  22.158   7.050
 9591POPC   C4A65886  42.379  22.130   7.350
 9591POPC   C1B65887  42.116  22.216   6.450
 9591POPC   C2B65888  42.111  22.175   6.750
 9591POPC   C3B65889  42.096  22.215   7.050
 9591POPC   C4B65890  42.063  22.170   7.350
 9592POPC   NC365891  40.830  39.999   5.550
 9592POPC   PO465892  40.752  39.992   5.850
 9592POPC   GL165893  40.805  40.026   6.150
 9592POPC   GL265894  40.734  40.138   6.150
 9592POPC   C1A65895  40.807  40.010   6.450
 9592POPC   D2A65896  40.749  40.011   6.750
 9592POPC   C3A65897  40.803  39.975   7.050
 9592POPC   C4A65898  40.749  39.978   7.350
 9592POPC   C1B65899  40.725  40.265   6.450
 9592POPC   C2B65900  40.718  40.220   6.750
 9592POPC   C3B65901  40.692  40.226   7.050
 9592POPC   C4B65902  40.765  40.265   7.350
 9593POPC   NC365903   7.386  21.383   5.550
 9593POPC   PO465904   7.425  21.421   5.850
 9593POPC   GL165905   7.418  21.422   6.150
 9593POPC   GL265906   7.324  21.323   6.150
 9593POPC   C1A65907   7.423  21.386   6.450
 9593POPC   D2A65908   7.382  21.371   6.750
 9593POPC   C3A65909   7.429  21.436   7.050
 9593POPC   C4A65910   7.426  21.357   7.350
 9593POPC   C1B65911   7.235  21.281   6.450
 9593POPC   C2B65912   7.179  21.255   6.750
 9593POPC   C3B65913   7.213  21.267   7.050
 9593POPC   C4B65914   7.213  21.318   7.350
 9594POPC   NC365915  15.137  13.665   5.550
 9594POPC   PO465916  15.226  13.578   5.850
 9594POPC   GL165917  15.169  13.662   6.150
 9594POPC   GL265918  15.245  13.651   6.150
 9594POPC   C1A65919  15.206  13.612   6.450
 9594POPC   D2A65920  15.166  13.639   6.750
 9594POPC   C3A65921  15.162  13.629   7.050
 9594POPC   C4A65922  15.159  13.608   7.350
 9594POPC   C1B65923  15.444  13.754   6.450
 9594POPC   C2B65924  15.360  13.711   6.750
 9594POPC   C3B65925  15.390  13.764   7.050
 9594POPC   C4B65926  15.355  13.790   7.350
 9595POPC   NC365927   8.976   2.779   5.550
 9595POPC   PO465928   8.934   2.766   5.850
 9595POPC   GL165929   9.000   2.768   6.150
 9595POPC   GL265930   8.824   2.743   6.150
 9595POPC   C1A65931   8.930   2.755   6.450
 9595POPC   D2A65932   8.960   2.724   6.750
 9595POPC   C3A65933   9.001   2.788   7.050
 9595POPC   C4A65934   8.990   2.747   7.350
 9595POPC   C1B65935   8.681   2.789   6.450
 9595POPC   C2B65936   8.755   2.776   6.750
 9595POPC   C3B65937   8.679   2.760   7.050
 9595POPC   C4B65938   8.771   2.830   7.350
 9596POPC   NC365939  15.176  22.974   5.550
 9596POPC   PO465940  15.160  22.969   5.850
 9596POPC   GL165941  15.201  22.954   6.150
 9596POPC   GL265942  15.085  22.897   6.150
 9596POPC   C1A65943  15.176  22.895   6.450
 9596POPC   D2A65944  15.153  22.916   6.750
 9596POPC   C3A65945  15.184  22.956   7.050
 9596POPC   C4A65946  15.145  22.912   7.350
 9596POPC   C1B65947  14.982  22.775   6.450
 9596POPC   C2B65948  14.951  22.803   6.750
 9596POPC   C3B65949  14.980  22.843   7.050
 9596POPC   C4B65950  14.958  22.834   7.350
 9597POPC   NC365951   7.433  12.094   5.550
 9597POPC   PO465952   7.439  12.108   5.850
 9597POPC   GL165953   7.391  12.090   6.150
 9597POPC   GL265954   7.338  12.038   6.150
 9597POPC   C1A65955   7.413  12.051   6.450
 9597POPC   D2A65956   7.411  12.113   6.750
 9597POPC   C3A65957   7.469  12.075   7.050
 9597POPC   C4A65958   7.457  12.032   7.350
 9597POPC   C1B65959   7.164  12.042   6.450
 9597POPC   C2B65960   7.189  12.115   6.750
 9597POPC   C3B65961   7.139  12.068   7.050
 9597POPC   C4B65962   7.192  12.107   7.350
 9598POPC   NC365963  10.564   9.773   5.550
 9598POPC   PO465964  10.540   9.774   5.850
 9598POPC   GL165965  10.499   9.711   6.150
 9598POPC   GL265966  10.423   9.840   6.150
 9598POPC   C1A65967  10.479   9.724   6.450
 9598POPC   D2A65968  10.552   9.756   6.750
 9598POPC   C3A65969  10.500   9.780   7.050
 9598POPC   C4A65970  10.511   9.779   7.350
 9598POPC   C1B65971  10.318   9.962   6.450
 9598POPC   C2B65972  10.351   9.921   6.750
 9598POPC   C3B65973  10.390   9.917   7.050
 9598POPC   C4B65974  10.348   9.972   7.350
 9599POPC   NC365975  35.397  11.282   5.550
 9599POPC   PO465976  35.379  11.349   5.850
 9599POPC   GL165977  35.400  11.261   6.150
 9599POPC   GL265978  35.490  11.318   6.150
 9599POPC   C1A65979  35.329  11.341   6.450
 9599POPC   D2A65980  35.359  11.311   6.750
 9599POPC   C3A65981  35.312  11.311   7.050
 9599POPC   C4A65982  35.319  11.322   7.350
 9599POPC   C1B65983  35.558  11.370   6.450
 9599POPC   C2B65984  35.601  11.393   6.750
 9599POPC   C3B65985  35.610  11.408   7.050
 9599POPC   C4B65986  35.630  11.357   7.350
 9600POPC   NC365987  35.374  27.633   5.550
 9600POPC   PO465988  35.331  27.632   5.850
 9600POPC   GL165989  35.346  27.555   6.150
 9600POPC   GL265990  35.451  27.681   6.150
 9600POPC   C1A65991  35.355  27.641   6.450
 9600POPC   D2A65992  35.354  27.633   6.750
 9600POPC   C3A65993  35.390  27.621   7.050
 9600POPC   C4A65994  35.307  27.598   7.350
 9600POPC   C1B65995  35.505  27.782   6.450
 9600POPC   C2B65996  35.446  27.841   6.750
 9600POPC   C3B65997  35.497  27.783   7.050
 9600POPC   C4B65998  35.423  27.854   7.350
 9601POPC   NC365999  22.141  22.949   5.550
 9601POPC   PO466000  22.189  22.951   5.850
 9601POPC   GL166001  22.210  22.923   6.150
 9601POPC   GL266002  22.308  22.901   6.150
 9601POPC   C1A66003  22.137  22.899   6.450
 9601POPC   D2A66004  22.131  22.900   6.750
 9601POPC   C3A66005  22.113  22.984   7.050
 9601POPC   C4A66006  22.118  22.968   7.350
 9601POPC   C1B66007  22.431  22.929   6.450
 9601POPC   C2B66008  22.424  22.895   6.750
 9601POPC   C3B66009  22.387  22.889   7.050
 9601POPC   C4B66010  22.411  22.903   7.350
 9602POPC   NC366011  43.078  35.375   5.550
 9602POPC   PO466012  43.119  35.342   5.850
 9602POPC   GL166013  43.154  35.315   6.150
 9602POPC   GL266014  43.034  35.466   6.150
 9602POPC   C1A66015  43.062  35.317   6.450
 9602POPC   D2A66016  43.088  35.396   6.750
 9602POPC   C3A66017  43.070  35.373   7.050
 9602POPC   C4A66018  43.122  35.307   7.350
 9602POPC   C1B66019  42.891  35.507   6.450
 9602POPC   C2B66020  42.904  35.554   6.750
 9602POPC   C3B66021  42.912  35.490   7.050
 9602POPC   C4B66022  42.939  35.518   7.350
 9603POPC   NC366023   4.346   5.874   5.550
 9603POPC   PO466024   4.300   5.848   5.850
 9603POPC   GL166025   4.342   5.912   6.150
 9603POPC   GL266026   4.145   5.907   6.150
 9603POPC   C1A66027   4.282   5.823   6.450
 9603POPC   D2A66028   4.343   5.883   6.750
 9603POPC   C3A66029   4.303   5.884   7.050
 9603POPC   C4A66030   4.357   5.876   7.350
 9603POPC   C1B66031   4.083   5.900   6.450
 9603POPC   C2B66032   4.029   5.933   6.750
 9603POPC   C3B66033   4.069   5.930   7.050
 9603POPC   C4B66034   4.044   5.921   7.350
 9604POPC   NC366035   5.868  19.823   5.550
 9604POPC   PO466036   5.915  19.814   5.850
 9604POPC   GL166037   5.869  19.818   6.150
 9604POPC   GL266038   5.930  19.710   6.150
 9604POPC   C1A66039   5.914  19.881   6.450
 9604POPC   D2A66040   5.853  19.871   6.750
 9604POPC   C3A66041   5.853  19.824   7.050
 9604POPC   C4A66042   5.859  19.841   7.350
 9604POPC   C1B66043   5.910  19.619   6.450
 9604POPC   C2B66044   5.947  19.565   6.750
 9604POPC   C3B66045   5.908  19.628   7.050
 9604POPC   C4B66046   5.915  19.623   7.350
 9605POPC   NC366047  40.746  25.308   5.550
 9605POPC   PO466048  40.789  25.291   5.850
 9605POPC   GL166049  40.825  25.253   6.150
 9605POPC   GL266050  40.760  25.395   6.150
 9605POPC   C1A66051  40.795  25.299   6.450
 9605POPC   D2A66052  40.787  25.291   6.750
 9605POPC   C3A66053  40.772  25.288   7.050
 9605POPC   C4A66054  40.739  25.258   7.350
 9605POPC   C1B66055  40.746  25.534   6.450
 9605POPC   C2B66056  40.841  25.494   6.750
 9605POPC   C3B66057  40.844  25.509   7.050
 9605POPC   C4B66058  40.779  25.511   7.350
 9606POPC   NC366059  27.620  23.702   5.550
 9606POPC   PO466060  27.574  23.706   5.850
 9606POPC   GL166061  27.607  23.689   6.150
 9606POPC   GL266062  27.733  23.699   6.150
 9606POPC   C1A66063  27.588  23.712   6.450
 9606POPC   D2A66064  27.641  23.706   6.750
 9606POPC   C3A66065  27.559  23.715   7.050
 9606POPC   C4A66066  27.596  23.752   7.350
 9606POPC   C1B66067  27.804  23.676   6.450
 9606POPC   C2B66068  27.822  23.711   6.750
 9606POPC   C3B66069  27.823  23.731   7.050
 9606POPC   C4B66070  27.879  23.656   7.350
 9607POPC   NC366071   0.430  41.538   5.550
 9607POPC   PO466072   0.432  41.547   5.850
 9607POPC   GL166073   0.417  41.601   6.150
 9607POPC   GL266074   0.367  41.481   6.150
 9607POPC   C1A66075   0.473  41.545   6.450
 9607POPC   D2A66076   0.401  41.541   6.750
 9607POPC   C3A66077   0.398  41.543   7.050
 9607POPC   C4A66078   0.406  41.606   7.350
 9607POPC   C1B66079   0.320  41.315   6.450
 9607POPC   C2B66080   0.343  41.284   6.750
 9607POPC   C3B66081   0.372  41.287   7.050
 9607POPC   C4B66082   0.374  41.350   7.350
 9608POPC   NC366083  27.623  21.395   5.550
 9608POPC   PO466084  27.556  21.344   5.850
 9608POPC   GL166085  27.621  21.339   6.150
 9608POPC   GL266086  27.516  21.445   6.150
 9608POPC   C1A66087  27.568  21.362   6.450
 9608POPC   D2A66088  27.609  21.409   6.750
 9608POPC   C3A66089  27.617  21.428   7.050
 9608POPC   C4A66090  27.560  21.409   7.350
 9608POPC   C1B66091  27.379  21.477   6.450
 9608POPC   C2B66092  27.412  21.502   6.750
 9608POPC   C3B66093  27.374  21.545   7.050
 9608POPC   C4B66094  27.363  21.520   7.350
 9609POPC   NC366095  31.492  44.704   5.550
 9609POPC   PO466096  31.479  44.682   5.850
 9609POPC   GL166097  31.440  44.690   6.150
 9609POPC   GL266098  31.601  44.617   6.150
 9609POPC   C1A66099  31.445  44.686   6.450
 9609POPC   D2A66100  31.430  44.650   6.750
 9609POPC   C3A66101  31.430  44.656   7.050
 9609POPC   C4A66102  31.443  44.656   7.350
 9609POPC   C1B66103  31.655  44.592   6.450
 9609POPC   C2B66104  31.670  44.517   6.750
 9609POPC   C3B66105  31.729  44.543   7.050
 9609POPC   C4B66106  31.741  44.556   7.350
 9610POPC   NC366107   7.414  13.614   5.550
 9610POPC   PO466108   7.446  13.622   5.850
 9610POPC   GL166109   7.424  13.580   6.150
 9610POPC   GL266110   7.466  13.556   6.150
 9610POPC   C1A66111   7.403  13.593   6.450
 9610POPC   D2A66112   7.408  13.657   6.750
 9610POPC   C3A66113   7.391  13.631   7.050
 9610POPC   C4A66114   7.408  13.618   7.350
 9610POPC   C1B66115   7.495  13.429   6.450
 9610POPC   C2B66116   7.522  13.359   6.750
 9610POPC   C3B66117   7.503  13.420   7.050
 9610POPC   C4B66118   7.540  13.368   7.350
 9611POPC   NC366119  17.524  11.279   5.550
 9611POPC   PO466120  17.535  11.274   5.850
 9611POPC   GL166121  17.523  11.252   6.150
 9611POPC   GL266122  17.415  11.225   6.150
 9611POPC   C1A66123  17.466  11.293   6.450
 9611POPC   D2A66124  17.471  11.305   6.750
 9611POPC   C3A66125  17.543  11.283   7.050
 9611POPC   C4A66126  17.488  11.316   7.350
 9611POPC   C1B66127  17.330  11.152   6.450
 9611POPC   C2B66128  17.309  11.143   6.750
 9611POPC   C3B66129  17.361  11.093   7.050
 9611POPC   C4B66130  17.341  11.143   7.350
 9612POPC   NC366131  20.592  33.005   5.550
 9612POPC   PO466132  20.632  32.976   5.850
 9612POPC   GL166133  20.583  33.013   6.150
 9612POPC   GL266134  20.760  33.118   6.150
 9612POPC   C1A66135  20.605  33.017   6.450
 9612POPC   D2A66136  20.635  33.051   6.750
 9612POPC   C3A66137  20.652  33.015   7.050
 9612POPC   C4A66138  20.597  33.009   7.350
 9612POPC   C1B66139  20.820  33.122   6.450
 9612POPC   C2B66140  20.870  33.120   6.750
 9612POPC   C3B66141  20.836  33.096   7.050
 9612POPC   C4B66142  20.836  33.161   7.350
 9613POPC   NC366143   5.916   5.901   5.550
 9613POPC   PO466144   5.901   5.832   5.850
 9613POPC   GL166145   5.862   5.873   6.150
 9613POPC   GL266146   5.769   5.885   6.150
 9613POPC   C1A66147   5.825   5.872   6.450
 9613POPC   D2A66148   5.842   5.847   6.750
 9613POPC   C3A66149   5.824   5.882   7.050
 9613POPC   C4A66150   5.836   5.890   7.350
 9613POPC   C1B66151   5.575   5.856   6.450
 9613POPC   C2B66152   5.669   5.846   6.750
 9613POPC   C3B66153   5.585   5.852   7.050
 9613POPC   C4B66154   5.653   5.907   7.350
 9614POPC   NC366155  36.886   8.982   5.550
 9614POPC   PO466156  36.884   8.946   5.850
 9614POPC   GL166157  36.907   8.980   6.150
 9614POPC   GL266158  36.836   9.015   6.150
 9614POPC   C1A66159  36.940   8.934   6.450
 9614POPC   D2A66160  36.889   9.008   6.750
 9614POPC   C3A66161  36.909   8.967   7.050
 9614POPC   C4A66162  36.856   8.965   7.350
 9614POPC   C1B66163  36.638   9.062   6.450
 9614POPC   C2B66164  36.667   9.060   6.750
 9614POPC   C3B66165  36.674   9.105   7.050
 9614POPC   C4B66166  36.692   9.126   7.350
 9615POPC   NC366167  22.914  21.426   5.550
 9615POPC   PO466168  22.923  21.425   5.850
 9615POPC   GL166169  22.976  21.407   6.150
 9615POPC   GL266170  23.044  21.506   6.150
 9615POPC   C1A66171  22.918  21.426   6.450
 9615POPC   D2A66172  22.906  21.378   6.750
 9615POPC   C3A66173  22.900  21.371   7.050
 9615POPC   C4A66174  22.918  21.381   7.350
 9615POPC   C1B66175  23.153  21.547   6.450
 9615POPC   C2B66176  23.129  21.581   6.750
 9615POPC   C3B66177  23.138  21.559   7.050
 9615POPC   C4B66178  23.116  21.579   7.350
 9616POPC   NC366179  12.872  23.695   5.550
 9616POPC   PO466180  12.855  23.695   5.850
 9616POPC   GL166181  12.885  23.708   6.150
 9616POPC   GL266182  12.815  23.599   6.150
 9616POPC   C1A66183  12.894  23.666   6.450
 9616POPC   D2A66184  12.898  23.764   6.750
 9616POPC   C3A66185  12.802  23.664   7.050
 9616POPC   C4A66186  12.900  23.733   7.350
 9616POPC   C1B66187  12.676  23.553   6.450
 9616POPC   C2B66188  12.725  23.472   6.750
 9616POPC   C3B66189  12.715  23.549   7.050
 9616POPC   C4B66190  12.700  23.508   7.350
 9617POPC   NC366191  30.687   8.162   5.550
 9617POPC   PO466192  30.704   8.242   5.850
 9617POPC   GL166193  30.746   8.221   6.150
 9617POPC   GL266194  30.766   8.096   6.150
 9617POPC   C1A66195  30.675   8.176   6.450
 9617POPC   D2A66196  30.706   8.176   6.750
 9617POPC   C3A66197  30.746   8.192   7.050
 9617POPC   C4A66198  30.707   8.213   7.350
 9617POPC   C1B66199  30.759   8.015   6.450
 9617POPC   C2B66200  30.836   8.017   6.750
 9617POPC   C3B66201  30.749   7.943   7.050
 9617POPC   C4B66202  30.759   7.989   7.350
 9618POPC   NC366203   7.394  38.408   5.550
 9618POPC   PO466204   7.406  38.478   5.850
 9618POPC   GL166205   7.456  38.503   6.150
 9618POPC   GL266206   7.305  38.386   6.150
 9618POPC   C1A66207   7.422  38.446   6.450
 9618POPC   D2A66208   7.385  38.503   6.750
 9618POPC   C3A66209   7.448  38.485   7.050
 9618POPC   C4A66210   7.416  38.499   7.350
 9618POPC   C1B66211   7.296  38.315   6.450
 9618POPC   C2B66212   7.235  38.271   6.750
 9618POPC   C3B66213   7.298  38.314   7.050
 9618POPC   C4B66214   7.251  38.263   7.350
 9619POPC   NC366215   6.596  44.676   5.550
 9619POPC   PO466216   6.603  44.641   5.850
 9619POPC   GL166217   6.659  44.669   6.150
 9619POPC   GL266218   6.651  44.497   6.150
 9619POPC   C1A66219   6.623  44.637   6.450
 9619POPC   D2A66220   6.628  44.669   6.750
 9619POPC   C3A66221   6.625  44.697   7.050
 9619POPC   C4A66222   6.654  44.664   7.350
 9619POPC   C1B66223   6.660  44.417   6.450
 9619POPC   C2B66224   6.601  44.402   6.750
 9619POPC   C3B66225   6.674  44.433   7.050
 9619POPC   C4B66226   6.599  44.375   7.350
 9620POPC   NC366227  33.757  33.020   5.550
 9620POPC   PO466228  33.753  33.046   5.850
 9620POPC   GL166229  33.799  33.028   6.150
 9620POPC   GL266230  33.858  33.165   6.150
 9620POPC   C1A66231  33.825  33.057   6.450
 9620POPC   D2A66232  33.764  33.044   6.750
 9620POPC   C3A66233  33.791  33.029   7.050
 9620POPC   C4A66234  33.786  33.008   7.350
 9620POPC   C1B66235  33.980  33.181   6.450
 9620POPC   C2B66236  33.915  33.208   6.750
 9620POPC   C3B66237  33.914  33.183   7.050
 9620POPC   C4B66238  33.963  33.224   7.350
 9621POPC   NC366239   4.283   1.995   5.550
 9621POPC   PO466240   4.276   1.961   5.850
 9621POPC   GL166241   4.328   1.990   6.150
 9621POPC   GL266242   4.381   2.078   6.150
 9621POPC   C1A66243   4.350   2.008   6.450
 9621POPC   D2A66244   4.314   2.008   6.750
 9621POPC   C3A66245   4.278   2.007   7.050
 9621POPC   C4A66246   4.279   1.985   7.350
 9621POPC   C1B66247   4.516   2.175   6.450
 9621POPC   C2B66248   4.525   2.171   6.750
 9621POPC   C3B66249   4.507   2.153   7.050
 9621POPC   C4B66250   4.498   2.209   7.350
 9622POPC   NC366251  12.083   1.967   5.550
 9622POPC   PO466252  12.035   1.947   5.850
 9622POPC   GL166253  12.105   1.951   6.150
 9622POPC   GL266254  12.131   2.059   6.150
 9622POPC   C1A66255  12.115   1.947   6.450
 9622POPC   D2A66256  12.087   2.007   6.750
 9622POPC   C3A66257  12.120   1.941   7.050
 9622POPC   C4A66258  12.093   1.959   7.350
 9622POPC   C1B66259  12.185   2.204   6.450
 9622POPC   C2B66260  12.177   2.172   6.750
 9622POPC   C3B66261  12.236   2.157   7.050
 9622POPC   C4B66262  12.243   2.239   7.350
 9623POPC   NC366263  36.899  40.802   5.550
 9623POPC   PO466264  36.935  40.757   5.850
 9623POPC   GL166265  36.920  40.756   6.150
 9623POPC   GL266266  36.931  40.684   6.150
 9623POPC   C1A66267  36.889  40.768   6.450
 9623POPC   D2A66268  36.905  40.831   6.750
 9623POPC   C3A66269  36.866  40.737   7.050
 9623POPC   C4A66270  36.862  40.781   7.350
 9623POPC   C1B66271  37.055  40.523   6.450
 9623POPC   C2B66272  36.975  40.561   6.750
 9623POPC   C3B66273  37.030  40.568   7.050
 9623POPC   C4B66274  37.056  40.537   7.350
 9624POPC   NC366275  42.340  42.295   5.550
 9624POPC   PO466276  42.302  42.346   5.850
 9624POPC   GL166277  42.363  42.336   6.150
 9624POPC   GL266278  42.499  42.341   6.150
 9624POPC   C1A66279  42.322  42.352   6.450
 9624POPC   D2A66280  42.359  42.374   6.750
 9624POPC   C3A66281  42.305  42.288   7.050
 9624POPC   C4A66282  42.321  42.332   7.350
 9624POPC   C1B66283  42.594  42.260   6.450
 9624POPC   C2B66284  42.599  42.317   6.750
 9624POPC   C3B66285  42.630  42.300   7.050
 9624POPC   C4B66286  42.572  42.270   7.350
 9625POPC   NC366287   7.417  41.531   5.550
 9625POPC   PO466288   7.406  41.587   5.850
 9625POPC   GL166289   7.401  41.521   6.150
 9625POPC   GL266290   7.263  41.523   6.150
 9625POPC   C1A66291   7.396  41.571   6.450
 9625POPC   D2A66292   7.384  41.588   6.750
 9625POPC   C3A66293   7.408  41.605   7.050
 9625POPC   C4A66294   7.471  41.577   7.350
 9625POPC   C1B66295   7.132  41.453   6.450
 9625POPC   C2B66296   7.194  41.457   6.750
 9625POPC   C3B66297   7.144  41.509   7.050
 9625POPC   C4B66298   7.147  41.484   7.350
 9626POPC   NC366299  35.303  36.862   5.550
 9626POPC   PO466300  35.401  36.944   5.850
 9626POPC   GL166301  35.308  36.930   6.150
 9626POPC   GL266302  35.444  36.890   6.150
 9626POPC   C1A66303  35.390  36.861   6.450
 9626POPC   D2A66304  35.388  36.942   6.750
 9626POPC   C3A66305  35.384  36.922   7.050
 9626POPC   C4A66306  35.375  36.909   7.350
 9626POPC   C1B66307  35.595  36.787   6.450
 9626POPC   C2B66308  35.631  36.763   6.750
 9626POPC   C3B66309  35.629  36.788   7.050
 9626POPC   C4B66310  35.597  36.784   7.350
 9627POPC   NC366311  15.152  10.497   5.550
 9627POPC   PO466312  15.213  10.504   5.850
 9627POPC   GL166313  15.208  10.521   6.150
 9627POPC   GL266314  15.138  10.688   6.150
 9627POPC   C1A66315  15.180  10.565   6.450
 9627POPC   D2A66316  15.151  10.484   6.750
 9627POPC   C3A66317  15.180  10.510   7.050
 9627POPC   C4A66318  15.148  10.501   7.350
 9627POPC   C1B66319  15.122  10.726   6.450
 9627POPC   C2B66320  15.083  10.809   6.750
 9627POPC   C3B66321  15.123  10.734   7.050
 9627POPC   C4B66322  15.065  10.766   7.350
 9628POPC   NC366323  14.447   0.459   5.550
 9628POPC   PO466324  14.442   0.463   5.850
 9628POPC   GL166325  14.420   0.433   6.150
 9628POPC   GL266326  14.300   0.386   6.150
 9628POPC   C1A66327  14.371   0.449   6.450
 9628POPC   D2A66328  14.431   0.409   6.750
 9628POPC   C3A66329  14.409   0.456   7.050
 9628POPC   C4A66330  14.409   0.441   7.350
 9628POPC   C1B66331  14.133   0.350   6.450
 9628POPC   C2B66332  14.189   0.314   6.750
 9628POPC   C3B66333  14.190   0.321   7.050
 9628POPC   C4B66334  14.153   0.301   7.350
 9629POPC   NC366335  15.923  16.684   5.550
 9629POPC   PO466336  15.986  16.755   5.850
 9629POPC   GL166337  15.986  16.723   6.150
 9629POPC   GL266338  15.928  16.620   6.150
 9629POPC   C1A66339  15.985  16.720   6.450
 9629POPC   D2A66340  15.932  16.710   6.750
 9629POPC   C3A66341  15.918  16.707   7.050
 9629POPC   C4A66342  15.990  16.758   7.350
 9629POPC   C1B66343  15.992  16.449   6.450
 9629POPC   C2B66344  15.928  16.442   6.750
 9629POPC   C3B66345  15.943  16.472   7.050
 9629POPC   C4B66346  15.954  16.519   7.350
 9630POPC   NC366347  24.516  40.010   5.550
 9630POPC   PO466348  24.454  40.046   5.850
 9630POPC   GL166349  24.485  39.975   6.150
 9630POPC   GL266350  24.538  39.938   6.150
 9630POPC   C1A66351  24.514  39.996   6.450
 9630POPC   D2A66352  24.453  39.958   6.750
 9630POPC   C3A66353  24.477  40.001   7.050
 9630POPC   C4A66354  24.464  40.056   7.350
 9630POPC   C1B66355  24.705  39.852   6.450
 9630POPC   C2B66356  24.682  39.796   6.750
 9630POPC   C3B66357  24.662  39.833   7.050
 9630POPC   C4B66358  24.673  39.870   7.350
 9631POPC   NC366359  38.504  30.745   5.550
 9631POPC   PO466360  38.470  30.647   5.850
 9631POPC   GL166361  38.454  30.729   6.150
 9631POPC   GL266362  38.524  30.628   6.150
 9631POPC   C1A66363  38.410  30.711   6.450
 9631POPC   D2A66364  38.505  30.659   6.750
 9631POPC   C3A66365  38.440  30.695   7.050
 9631POPC   C4A66366  38.496  30.710   7.350
 9631POPC   C1B66367  38.664  30.562   6.450
 9631POPC   C2B66368  38.635  30.596   6.750
 9631POPC   C3B66369  38.680  30.588   7.050
 9631POPC   C4B66370  38.691  30.583   7.350
 9632POPC   NC366371  43.934  14.436   5.550
 9632POPC   PO466372  43.889  14.430   5.850
 9632POPC   GL166373  43.864  14.420   6.150
 9632POPC   GL266374  43.944  14.559   6.150
 9632POPC   C1A66375  43.842  14.393   6.450
 9632POPC   D2A66376  43.849  14.367   6.750
 9632POPC   C3A66377  43.932  14.412   7.050
 9632POPC   C4A66378  43.893  14.448   7.350
 9632POPC   C1B66379  43.866  14.683   6.450
 9632POPC   C2B66380  43.871  14.637   6.750
 9632POPC   C3B66381  43.876  14.677   7.050
 9632POPC   C4B66382  43.929  14.607   7.350
 9633POPC   NC366383  34.594  14.387   5.550
 9633POPC   PO466384  34.529  14.428   5.850
 9633POPC   GL166385  34.550  14.411   6.150
 9633POPC   GL266386  34.502  14.506   6.150
 9633POPC   C1A66387  34.591  14.404   6.450
 9633POPC   D2A66388  34.614  14.401   6.750
 9633POPC   C3A66389  34.555  14.436   7.050
 9633POPC   C4A66390  34.578  14.419   7.350
 9633POPC   C1B66391  34.379  14.531   6.450
 9633POPC   C2B66392  34.394  14.567   6.750
 9633POPC   C3B66393  34.419  14.590   7.050
 9633POPC   C4B66394  34.395  14.583   7.350
 9634POPC   NC366395  14.410  30.671   5.550
 9634POPC   PO466396  14.422  30.729   5.850
 9634POPC   GL166397  14.449  30.715   6.150
 9634POPC   GL266398  14.397  30.810   6.150
 9634POPC   C1A66399  14.449  30.732   6.450
 9634POPC   D2A66400  14.385  30.657   6.750
 9634POPC   C3A66401  14.433  30.695   7.050
 9634POPC   C4A66402  14.427  30.732   7.350
 9634POPC   C1B66403  14.429  30.989   6.450
 9634POPC   C2B66404  14.394  30.941   6.750
 9634POPC   C3B66405  14.400  30.956   7.050
 9634POPC   C4B66406  14.447  30.925   7.350
 9635POPC   NC366407  35.327  23.692   5.550
 9635POPC   PO466408  35.375  23.712   5.850
 9635POPC   GL166409  35.322  23.747   6.150
 9635POPC   GL266410  35.294  23.845   6.150
 9635POPC   C1A66411  35.359  23.668   6.450
 9635POPC   D2A66412  35.401  23.665   6.750
 9635POPC   C3A66413  35.338  23.741   7.050
 9635POPC   C4A66414  35.392  23.709   7.350
 9635POPC   C1B66415  35.198  23.887   6.450
 9635POPC   C2B66416  35.207  23.909   6.750
 9635POPC   C3B66417  35.234  23.918   7.050
 9635POPC   C4B66418  35.220  23.969   7.350
 9636POPC   NC366419  42.335  13.651   5.550
 9636POPC   PO466420  42.296  13.667   5.850
 9636POPC   GL166421  42.287  13.588   6.150
 9636POPC   GL266422  42.252  13.657   6.150
 9636POPC   C1A66423  42.373  13.661   6.450
 9636POPC   D2A66424  42.314  13.621   6.750
 9636POPC   C3A66425  42.340  13.600   7.050
 9636POPC   C4A66426  42.311  13.613   7.350
 9636POPC   C1B66427  42.125  13.748   6.450
 9636POPC   C2B66428  42.174  13.795   6.750
 9636POPC   C3B66429  42.131  13.776   7.050
 9636POPC   C4B66430  42.100  13.814   7.350
 9637POPC   NC366431  36.157   2.731   5.550
 9637POPC   PO466432  36.116   2.815   5.850
 9637POPC   GL166433  36.123   2.765   6.150
 9637POPC   GL266434  36.041   2.639   6.150
 9637POPC   C1A66435  36.151   2.739   6.450
 9637POPC   D2A66436  36.100   2.796   6.750
 9637POPC   C3A66437  36.123   2.788   7.050
 9637POPC   C4A66438  36.156   2.731   7.350
 9637POPC   C1B66439  35.992   2.528   6.450
 9637POPC   C2B66440  36.008   2.572   6.750
 9637POPC   C3B66441  35.958   2.583   7.050
 9637POPC   C4B66442  35.963   2.527   7.350
 9638POPC   NC366443  19.872  21.428   5.550
 9638POPC   PO466444  19.838  21.374   5.850
 9638POPC   GL166445  19.825  21.402   6.150
 9638POPC   GL266446  19.830  21.511   6.150
 9638POPC   C1A66447  19.785  21.376   6.450
 9638POPC   D2A66448  19.790  21.350   6.750
 9638POPC   C3A66449  19.882  21.435   7.050
 9638POPC   C4A66450  19.836  21.413   7.350
 9638POPC   C1B66451  19.848  21.618   6.450
 9638POPC   C2B66452  19.838  21.633   6.750
 9638POPC   C3B66453  19.875  21.652   7.050
 9638POPC   C4B66454  19.871  21.601   7.350
 9639POPC   NC366455   5.852  22.924   5.550
 9639POPC   PO466456   5.836  22.972   5.850
 9639POPC   GL166457   5.859  22.890   6.150
 9639POPC   GL266458   5.711  22.981   6.150
 9639POPC   C1A66459   5.846  22.928   6.450
 9639POPC   D2A66460   5.906  22.984   6.750
 9639POPC   C3A66461   5.912  22.943   7.050
 9639POPC   C4A66462   5.883  22.981   7.350
 9639POPC   C1B66463   5.599  23.022   6.450
 9639POPC   C2B66464   5.601  22.954   6.750
 9639POPC   C3B66465   5.600  22.944   7.050
 9639POPC   C4B66466   5.599  22.986   7.350
 9640POPC   NC366467  15.227  36.909   5.550
 9640POPC   PO466468  15.168  36.892   5.850
 9640POPC   GL166469  15.207  36.875   6.150
 9640POPC   GL266470  15.056  36.952   6.150
 9640POPC   C1A66471  15.171  36.873   6.450
 9640POPC   D2A66472  15.195  36.912   6.750
 9640POPC   C3A66473  15.166  36.936   7.050
 9640POPC   C4A66474  15.180  36.923   7.350
 9640POPC   C1B66475  14.987  37.044   6.450
 9640POPC   C2B66476  14.939  37.045   6.750
 9640POPC   C3B66477  14.984  37.057   7.050
 9640POPC   C4B66478  14.989  36.998   7.350
 9641POPC   NC366479  25.219   5.879   5.550
 9641POPC   PO466480  25.238   5.904   5.850
 9641POPC   GL166481  25.253   5.869   6.150
 9641POPC   GL266482  25.163   5.975   6.150
 9641POPC   C1A66483  25.267   5.909   6.450
 9641POPC   D2A66484  25.278   5.916   6.750
 9641POPC   C3A66485  25.312   5.894   7.050
 9641POPC   C4A66486  25.290   5.900   7.350
 9641POPC   C1B66487  25.125   6.056   6.450
 9641POPC   C2B66488  25.149   6.066   6.750
 9641POPC   C3B66489  25.111   6.093   7.050
 9641POPC   C4B66490  25.056   6.095   7.350
 9642POPC   NC366491   3.582   7.397   5.550
 9642POPC   PO466492   3.564   7.452   5.850
 9642POPC   GL166493   3.512   7.384   6.150
 9642POPC   GL266494   3.688   7.300   6.150
 9642POPC   C1A66495   3.586   7.371   6.450
 9642POPC   D2A66496   3.582   7.385   6.750
 9642POPC   C3A66497   3.516   7.400   7.050
 9642POPC   C4A66498   3.501   7.452   7.350
 9642POPC   C1B66499   3.743   7.269   6.450
 9642POPC   C2B66500   3.705   7.316   6.750
 9642POPC   C3B66501   3.694   7.233   7.050
 9642POPC   C4B66502   3.740   7.297   7.350
 9643POPC   NC366503  27.551  43.858   5.550
 9643POPC   PO466504  27.596  43.904   5.850
 9643POPC   GL166505  27.569  43.899   6.150
 9643POPC   GL266506  27.558  43.964   6.150
 9643POPC   C1A66507  27.626  43.879   6.450
 9643POPC   D2A66508  27.576  43.917   6.750
 9643POPC   C3A66509  27.633  43.929   7.050
 9643POPC   C4A66510  27.575  43.863   7.350
 9643POPC   C1B66511  27.485  44.149   6.450
 9643POPC   C2B66512  27.476  44.145   6.750
 9643POPC   C3B66513  27.570  44.109   7.050
 9643POPC   C4B66514  27.529  44.080   7.350
 9644POPC   NC366515   5.913   5.077   5.550
 9644POPC   PO466516   5.846   5.139   5.850
 9644POPC   GL166517   5.853   5.093   6.150
 9644POPC   GL266518   5.991   5.009   6.150
 9644POPC   C1A66519   5.872   5.119   6.450
 9644POPC   D2A66520   5.876   5.077   6.750
 9644POPC   C3A66521   5.860   5.089   7.050
 9644POPC   C4A66522   5.903   5.102   7.350
 9644POPC   C1B66523   6.001   4.926   6.450
 9644POPC   C2B66524   5.988   4.899   6.750
 9644POPC   C3B66525   6.065   4.865   7.050
 9644POPC   C4B66526   6.069   4.949   7.350
 9645POPC   NC366527  23.685  11.298   5.550
 9645POPC   PO466528  23.733  11.267   5.850
 9645POPC   GL166529  23.682  11.330   6.150
 9645POPC   GL266530  23.859  11.254   6.150
 9645POPC   C1A66531  23.731  11.285   6.450
 9645POPC   D2A66532  23.689  11.300   6.750
 9645POPC   C3A66533  23.725  11.290   7.050
 9645POPC   C4A66534  23.693  11.263   7.350
 9645POPC   C1B66535  23.927  11.206   6.450
 9645POPC   C2B66536  23.924  11.239   6.750
 9645POPC   C3B66537  23.919  11.216   7.050
 9645POPC   C4B66538  23.915  11.263   7.350
 9646POPC   NC366539  40.025  33.045   5.550
 9646POPC   PO466540  40.013  32.986   5.850
 9646POPC   GL166541  39.964  33.039   6.150
 9646POPC   GL266542  40.081  32.944   6.150
 9646POPC   C1A66543  40.040  33.003   6.450
 9646POPC   D2A66544  40.054  33.035   6.750
 9646POPC   C3A66545  40.019  33.051   7.050
 9646POPC   C4A66546  39.971  33.015   7.350
 9646POPC   C1B66547  40.191  32.845   6.450
 9646POPC   C2B66548  40.189  32.866   6.750
 9646POPC   C3B66549  40.148  32.837   7.050
 9646POPC   C4B66550  40.185  32.891   7.350
 9647POPC   NC366551  19.879  40.750   5.550
 9647POPC   PO466552  19.827  40.806   5.850
 9647POPC   GL166553  19.853  40.762   6.150
 9647POPC   GL266554  19.833  40.929   6.150
 9647POPC   C1A66555  19.788  40.749   6.450
 9647POPC   D2A66556  19.805  40.737   6.750
 9647POPC   C3A66557  19.836  40.750   7.050
 9647POPC   C4A66558  19.843  40.760   7.350
 9647POPC   C1B66559  19.783  41.005   6.450
 9647POPC   C2B66560  19.806  41.058   6.750
 9647POPC   C3B66561  19.833  41.009   7.050
 9647POPC   C4B66562  19.786  41.062   7.350
 9648POPC   NC366563  43.076  25.304   5.550
 9648POPC   PO466564  43.152  25.282   5.850
 9648POPC   GL166565  43.154  25.303   6.150
 9648POPC   GL266566  43.125  25.358   6.150
 9648POPC   C1A66567  43.146  25.276   6.450
 9648POPC   D2A66568  43.096  25.217   6.750
 9648POPC   C3A66569  43.154  25.314   7.050
 9648POPC   C4A66570  43.120  25.239   7.350
 9648POPC   C1B66571  43.122  25.526   6.450
 9648POPC   C2B66572  43.097  25.533   6.750
 9648POPC   C3B66573  43.129  25.531   7.050
 9648POPC   C4B66574  43.168  25.537   7.350
 9649POPC   NC366575  31.506  19.811   5.550
 9649POPC   PO466576  31.466  19.865   5.850
 9649POPC   GL166577  31.503  19.877   6.150
 9649POPC   GL266578  31.546  19.728   6.150
 9649POPC   C1A66579  31.482  19.820   6.450
 9649POPC   D2A66580  31.424  19.849   6.750
 9649POPC   C3A66581  31.466  19.830   7.050
 9649POPC   C4A66582  31.430  19.853   7.350
 9649POPC   C1B66583  31.661  19.688   6.450
 9649POPC   C2B66584  31.659  19.711   6.750
 9649POPC   C3B66585  31.624  19.702   7.050
 9649POPC   C4B66586  31.657  19.711   7.350
 9650POPC   NC366587  26.063  16.005   5.550
 9650POPC   PO466588  26.005  15.971   5.850
 9650POPC   GL166589  26.064  15.992   6.150
 9650POPC   GL266590  26.049  16.111   6.150
 9650POPC   C1A66591  25.999  15.916   6.450
 9650POPC   D2A66592  26.002  15.907   6.750
 9650POPC   C3A66593  26.052  15.916   7.050
 9650POPC   C4A66594  26.044  15.962   7.350
 9650POPC   C1B66595  25.913  16.186   6.450
 9650POPC   C2B66596  25.925  16.169   6.750
 9650POPC   C3B66597  25.921  16.170   7.050
 9650POPC   C4B66598  25.990  16.216   7.350
 9651POPC   NC366599   8.193  39.253   5.550
 9651POPC   PO466600   8.168  39.228   5.850
 9651POPC   GL166601   8.162  39.185   6.150
 9651POPC   GL266602   8.183  39.374   6.150
 9651POPC   C1A66603   8.236  39.213   6.450
 9651POPC   D2A66604   8.195  39.239   6.750
 9651POPC   C3A66605   8.234  39.255   7.050
 9651POPC   C4A66606   8.159  39.271   7.350
 9651POPC   C1B66607   8.205  39.513   6.450
 9651POPC   C2B66608   8.268  39.489   6.750
 9651POPC   C3B66609   8.283  39.452   7.050
 9651POPC   C4B66610   8.283  39.443   7.350
 9652POPC   NC366611   5.881  11.251   5.550
 9652POPC   PO466612   5.845  11.254   5.850
 9652POPC   GL166613   5.838  11.325   6.150
 9652POPC   GL266614   5.839  11.423   6.150
 9652POPC   C1A66615   5.841  11.254   6.450
 9652POPC   D2A66616   5.895  11.338   6.750
 9652POPC   C3A66617   5.890  11.251   7.050
 9652POPC   C4A66618   5.901  11.260   7.350
 9652POPC   C1B66619   5.826  11.546   6.450
 9652POPC   C2B66620   5.828  11.502   6.750
 9652POPC   C3B66621   5.838  11.575   7.050
 9652POPC   C4B66622   5.840  11.521   7.350
 9653POPC   NC366623  18.326  43.911   5.550
 9653POPC   PO466624  18.313  43.933   5.850
 9653POPC   GL166625  18.247  43.904   6.150
 9653POPC   GL266626  18.391  43.823   6.150
 9653POPC   C1A66627  18.276  43.893   6.450
 9653POPC   D2A66628  18.322  43.931   6.750
 9653POPC   C3A66629  18.274  43.864   7.050
 9653POPC   C4A66630  18.260  43.923   7.350
 9653POPC   C1B66631  18.455  43.652   6.450
 9653POPC   C2B66632  18.462  43.679   6.750
 9653POPC   C3B66633  18.412  43.665   7.050
 9653POPC   C4B66634  18.430  43.689   7.350
 9654POPC   NC366635  17.556  32.234   5.550
 9654POPC   PO466636  17.544  32.292   5.850
 9654POPC   GL166637  17.472  32.206   6.150
 9654POPC   GL266638  17.409  32.280   6.150
 9654POPC   C1A66639  17.491  32.255   6.450
 9654POPC   D2A66640  17.515  32.283   6.750
 9654POPC   C3A66641  17.458  32.294   7.050
 9654POPC   C4A66642  17.488  32.202   7.350
 9654POPC   C1B66643  17.224  32.303   6.450
 9654POPC   C2B66644  17.232  32.291   6.750
 9654POPC   C3B66645  17.317  32.347   7.050
 9654POPC   C4B66646  17.227  32.372   7.350
 9655POPC   NC366647  13.585  36.928   5.550
 9655POPC   PO466648  13.642  36.945   5.850
 9655POPC   GL166649  13.647  36.880   6.150
 9655POPC   GL266650  13.552  36.913   6.150
 9655POPC   C1A66651  13.581  36.906   6.450
 9655POPC   D2A66652  13.596  36.861   6.750
 9655POPC   C3A66653  13.665  36.936   7.050
 9655POPC   C4A66654  13.640  36.863   7.350
 9655POPC   C1B66655  13.389  36.962   6.450
 9655POPC   C2B66656  13.420  36.938   6.750
 9655POPC   C3B66657  13.408  36.917   7.050
 9655POPC   C4B66658  13.355  36.960   7.350
 9656POPC   NC366659  29.927  22.966   5.550
 9656POPC   PO466660  29.960  22.971   5.850
 9656POPC   GL166661  29.945  22.968   6.150
 9656POPC   GL266662  29.836  22.984   6.150
 9656POPC   C1A66663  29.914  22.930   6.450
 9656POPC   D2A66664  29.917  22.930   6.750
 9656POPC   C3A66665  29.921  22.941   7.050
 9656POPC   C4A66666  29.892  22.949   7.350
 9656POPC   C1B66667  29.711  22.977   6.450
 9656POPC   C2B66668  29.723  23.044   6.750
 9656POPC   C3B66669  29.678  23.043   7.050
 9656POPC   C4B66670  29.642  22.978   7.350
 9657POPC   NC366671  33.780  28.321   5.550
 9657POPC   PO466672  33.775  28.358   5.850
 9657POPC   GL166673  33.811  28.345   6.150
 9657POPC   GL266674  33.707  28.429   6.150
 9657POPC   C1A66675  33.829  28.390   6.450
 9657POPC   D2A66676  33.755  28.360   6.750
 9657POPC   C3A66677  33.824  28.339   7.050
 9657POPC   C4A66678  33.816  28.325   7.350
 9657POPC   C1B66679  33.584  28.407   6.450
 9657POPC   C2B66680  33.588  28.384   6.750
 9657POPC   C3B66681  33.521  28.379   7.050
 9657POPC   C4B66682  33.520  28.373   7.350
 9658POPC   NC366683  30.717  12.073   5.550
 9658POPC   PO466684  30.714  12.090   5.850
 9658POPC   GL166685  30.675  12.079   6.150
 9658POPC   GL266686  30.569  12.087   6.150
 9658POPC   C1A66687  30.682  12.040   6.450
 9658POPC   D2A66688  30.720  12.074   6.750
 9658POPC   C3A66689  30.664  12.124   7.050
 9658POPC   C4A66690  30.683  12.075   7.350
 9658POPC   C1B66691  30.487  12.230   6.450
 9658POPC   C2B66692  30.523  12.236   6.750
 9658POPC   C3B66693  30.492  12.153   7.050
 9658POPC   C4B66694  30.460  12.223   7.350
 9659POPC   NC366695   1.164   6.625   5.550
 9659POPC   PO466696   1.222   6.617   5.850
 9659POPC   GL166697   1.220   6.691   6.150
 9659POPC   GL266698   1.204   6.507   6.150
 9659POPC   C1A66699   1.217   6.647   6.450
 9659POPC   D2A66700   1.210   6.598   6.750
 9659POPC   C3A66701   1.248   6.642   7.050
 9659POPC   C4A66702   1.253   6.677   7.350
 9659POPC   C1B66703   1.265   6.449   6.450
 9659POPC   C2B66704   1.262   6.441   6.750
 9659POPC   C3B66705   1.321   6.385   7.050
 9659POPC   C4B66706   1.252   6.412   7.350
 9660POPC   NC366707  37.706   8.229   5.550
 9660POPC   PO466708  37.681   8.202   5.850
 9660POPC   GL166709  37.723   8.230   6.150
 9660POPC   GL266710  37.532   8.219   6.150
 9660POPC   C1A66711  37.709   8.177   6.450
 9660POPC   D2A66712  37.703   8.186   6.750
 9660POPC   C3A66713  37.690   8.169   7.050
 9660POPC   C4A66714  37.681   8.238   7.350
 9660POPC   C1B66715  37.413   8.229   6.450
 9660POPC   C2B66716  37.418   8.212   6.750
 9660POPC   C3B66717  37.461   8.210   7.050
 9660POPC   C4B66718  37.424   8.182   7.350
 9661POPC   NC366719  15.986  31.486   5.550
 9661POPC   PO466720  15.999  31.496   5.850
 9661POPC   GL166721  15.919  31.471   6.150
 9661POPC   GL266722  15.924  31.604   6.150
 9661POPC   C1A66723  15.972  31.485   6.450
 9661POPC   D2A66724  15.974  31.504   6.750
 9661POPC   C3A66725  15.977  31.455   7.050
 9661POPC   C4A66726  15.992  31.507   7.350
 9661POPC   C1B66727  15.944  31.682   6.450
 9661POPC   C2B66728  15.931  31.698   6.750
 9661POPC   C3B66729  15.953  31.709   7.050
 9661POPC   C4B66730  15.945  31.703   7.350
 9662POPC   NC366731  18.328  29.954   5.550
 9662POPC   PO466732  18.272  29.947   5.850
 9662POPC   GL166733  18.245  29.924   6.150
 9662POPC   GL266734  18.263  29.763   6.150
 9662POPC   C1A66735  18.248  29.943   6.450
 9662POPC   D2A66736  18.258  29.891   6.750
 9662POPC   C3A66737  18.292  29.929   7.050
 9662POPC   C4A66738  18.276  29.936   7.350
 9662POPC   C1B66739  18.302  29.692   6.450
 9662POPC   C2B66740  18.292  29.654   6.750
 9662POPC   C3B66741  18.322  29.701   7.050
 9662POPC   C4B66742  18.275  29.705   7.350
 9663POPC   NC366743  29.969  40.781   5.550
 9663POPC   PO466744  29.890  40.749   5.850
 9663POPC   GL166745  29.960  40.806   6.150
 9663POPC   GL266746  29.886  40.644   6.150
 9663POPC   C1A66747  29.970  40.734   6.450
 9663POPC   D2A66748  29.925  40.780   6.750
 9663POPC   C3A66749  29.953  40.741   7.050
 9663POPC   C4A66750  29.958  40.827   7.350
 9663POPC   C1B66751  29.777  40.568   6.450
 9663POPC   C2B66752  29.834  40.568   6.750
 9663POPC   C3B66753  29.800  40.514   7.050
 9663POPC   C4B66754  29.790  40.532   7.350
 9664POPC   NC366755   7.388  19.094   5.550
 9664POPC   PO466756   7.377  19.044   5.850
 9664POPC   GL166757   7.372  19.042   6.150
 9664POPC   GL266758   7.428  18.949   6.150
 9664POPC   C1A66759   7.386  19.023   6.450
 9664POPC   D2A66760   7.413  19.039   6.750
 9664POPC   C3A66761   7.458  19.031   7.050
 9664POPC   C4A66762   7.428  19.026   7.350
 9664POPC   C1B66763   7.398  18.777   6.450
 9664POPC   C2B66764   7.432  18.832   6.750
 9664POPC   C3B66765   7.430  18.831   7.050
 9664POPC   C4B66766   7.430  18.811   7.350
 9665POPC   NC366767  44.692  21.361   5.550
 9665POPC   PO466768  44.654  21.358   5.850
 9665POPC   GL166769  44.658  21.355   6.150
 9665POPC   GL266770  44.538  21.376   6.150
 9665POPC   C1A66771  44.644  21.347   6.450
 9665POPC   D2A66772  44.661  21.415   6.750
 9665POPC   C3A66773  44.621  21.372   7.050
 9665POPC   C4A66774  44.631  21.363   7.350
 9665POPC   C1B66775  44.486  21.230   6.450
 9665POPC   C2B66776  44.410  21.239   6.750
 9665POPC   C3B66777  44.490  21.243   7.050
 9665POPC   C4B66778  44.486  21.246   7.350
 9666POPC   NC366779   5.872   4.355   5.550
 9666POPC   PO466780   5.824   4.287   5.850
 9666POPC   GL166781   5.917   4.307   6.150
 9666POPC   GL266782   5.964   4.232   6.150
 9666POPC   C1A66783   5.862   4.363   6.450
 9666POPC   D2A66784   5.892   4.328   6.750
 9666POPC   C3A66785   5.896   4.314   7.050
 9666POPC   C4A66786   5.870   4.294   7.350
 9666POPC   C1B66787   6.109   4.163   6.450
 9666POPC   C2B66788   6.031   4.198   6.750
 9666POPC   C3B66789   6.037   4.182   7.050
 9666POPC   C4B66790   6.082   4.195   7.350
 9667POPC   NC366791  15.187  15.912   5.550
 9667POPC   PO466792  15.216  15.909   5.850
 9667POPC   GL166793  15.147  15.932   6.150
 9667POPC   GL266794  15.241  15.907   6.150
 9667POPC   C1A66795  15.176  15.924   6.450
 9667POPC   D2A66796  15.193  15.928   6.750
 9667POPC   C3A66797  15.169  15.920   7.050
 9667POPC   C4A66798  15.218  15.955   7.350
 9667POPC   C1B66799  15.418  15.771   6.450
 9667POPC   C2B66800  15.329  15.771   6.750
 9667POPC   C3B66801  15.359  15.830   7.050
 9667POPC   C4B66802  15.328  15.846   7.350
 9668POPC   NC366803  20.616  43.121   5.550
 9668POPC   PO466804  20.659  43.106   5.850
 9668POPC   GL166805  20.654  43.100   6.150
 9668POPC   GL266806  20.469  43.083   6.150
 9668POPC   C1A66807  20.590  43.090   6.450
 9668POPC   D2A66808  20.643  43.139   6.750
 9668POPC   C3A66809  20.626  43.157   7.050
 9668POPC   C4A66810  20.563  43.157   7.350
 9668POPC   C1B66811  20.428  42.978   6.450
 9668POPC   C2B66812  20.369  42.977   6.750
 9668POPC   C3B66813  20.415  42.927   7.050
 9668POPC   C4B66814  20.375  42.951   7.350
 9669POPC   NC366815  35.349  43.856   5.550
 9669POPC   PO466816  35.363  43.928   5.850
 9669POPC   GL166817  35.372  43.920   6.150
 9669POPC   GL266818  35.485  43.797   6.150
 9669POPC   C1A66819  35.375  43.885   6.450
 9669POPC   D2A66820  35.362  43.916   6.750
 9669POPC   C3A66821  35.322  43.929   7.050
 9669POPC   C4A66822  35.364  43.861   7.350
 9669POPC   C1B66823  35.554  43.726   6.450
 9669POPC   C2B66824  35.551  43.689   6.750
 9669POPC   C3B66825  35.577  43.717   7.050
 9669POPC   C4B66826  35.519  43.736   7.350
 9670POPC   NC366827   5.820  32.214   5.550
 9670POPC   PO466828   5.883  32.286   5.850
 9670POPC   GL166829   5.877  32.256   6.150
 9670POPC   GL266830   5.933  32.152   6.150
 9670POPC   C1A66831   5.905  32.230   6.450
 9670POPC   D2A66832   5.849  32.249   6.750
 9670POPC   C3A66833   5.843  32.223   7.050
 9670POPC   C4A66834   5.885  32.230   7.350
 9670POPC   C1B66835   6.093  32.138   6.450
 9670POPC   C2B66836   6.115  32.146   6.750
 9670POPC   C3B66837   6.106  32.103   7.050
 9670POPC   C4B66838   6.143  32.166   7.350
 9671POPC   NC366839  23.682   2.780   5.550
 9671POPC   PO466840  23.743   2.766   5.850
 9671POPC   GL166841  23.688   2.742   6.150
 9671POPC   GL266842  23.632   2.695   6.150
 9671POPC   C1A66843  23.720   2.761   6.450
 9671POPC   D2A66844  23.670   2.800   6.750
 9671POPC   C3A66845  23.750   2.758   7.050
 9671POPC   C4A66846  23.691   2.737   7.350
 9671POPC   C1B66847  23.541   2.522   6.450
 9671POPC   C2B66848  23.578   2.560   6.750
 9671POPC   C3B66849  23.551   2.576   7.050
 9671POPC   C4B66850  23.591   2.524   7.350
 9672POPC   NC366851  22.909  22.893   5.550
 9672POPC   PO466852  22.966  22.905   5.850
 9672POPC   GL166853  22.986  22.900   6.150
 9672POPC   GL266854  23.027  23.057   6.150
 9672POPC   C1A66855  22.979  22.958   6.450
 9672POPC   D2A66856  22.919  22.950   6.750
 9672POPC   C3A66857  22.909  22.924   7.050
 9672POPC   C4A66858  22.952  22.947   7.350
 9672POPC   C1B66859  23.072  23.182   6.450
 9672POPC   C2B66860  23.051  23.161   6.750
 9672POPC   C3B66861  23.044  23.152   7.050
 9672POPC   C4B66862  23.077  23.140   7.350
 9673POPC   NC366863  20.641  29.904   5.550
 9673POPC   PO466864  20.642  29.964   5.850
 9673POPC   GL166865  20.577  29.891   6.150
 9673POPC   GL266866  20.730  29.865   6.150
 9673POPC   C1A66867  20.612  29.920   6.450
 9673POPC   D2A66868  20.567  29.872   6.750
 9673POPC   C3A66869  20.644  29.926   7.050
 9673POPC   C4A66870  20.618  29.919   7.350
 9673POPC   C1B66871  20.856  29.849   6.450
 9673POPC   C2B66872  20.861  29.873   6.750
 9673POPC   C3B66873  20.856  29.891   7.050
 9673POPC   C4B66874  20.813  29.862   7.350
 9674POPC   NC366875  25.279  28.342   5.550
 9674POPC   PO466876  25.297  28.337   5.850
 9674POPC   GL166877  25.271  28.416   6.150
 9674POPC   GL266878  25.148  28.364   6.150
 9674POPC   C1A66879  25.281  28.408   6.450
 9674POPC   D2A66880  25.239  28.411   6.750
 9674POPC   C3A66881  25.231  28.377   7.050
 9674POPC   C4A66882  25.264  28.350   7.350
 9674POPC   C1B66883  24.968  28.344   6.450
 9674POPC   C2B66884  25.004  28.375   6.750
 9674POPC   C3B66885  24.983  28.342   7.050
 9674POPC   C4B66886  24.971  28.354   7.350
 9675POPC   NC366887   8.948   9.791   5.550
 9675POPC   PO466888   9.013   9.707   5.850
 9675POPC   GL166889   8.965   9.762   6.150
 9675POPC   GL266890   8.824   9.730   6.150
 9675POPC   C1A66891   9.019   9.747   6.450
 9675POPC   D2A66892   8.955   9.742   6.750
 9675POPC   C3A66893   8.936   9.795   7.050
 9675POPC   C4A66894   9.009   9.749   7.350
 9675POPC   C1B66895   8.771   9.626   6.450
 9675POPC   C2B66896   8.780   9.612   6.750
 9675POPC   C3B66897   8.791   9.625   7.050
 9675POPC   C4B66898   8.747   9.637   7.350
 9676POPC   NC366899  15.980   3.581   5.550
 9676POPC   PO466900  16.001   3.518   5.850
 9676POPC   GL166901  15.970   3.501   6.150
 9676POPC   GL266902  15.819   3.497   6.150
 9676POPC   C1A66903  15.914   3.539   6.450
 9676POPC   D2A66904  15.993   3.558   6.750
 9676POPC   C3A66905  15.915   3.561   7.050
 9676POPC   C4A66906  15.979   3.539   7.350
 9676POPC   C1B66907  15.704   3.478   6.450
 9676POPC   C2B66908  15.676   3.526   6.750
 9676POPC   C3B66909  15.751   3.475   7.050
 9676POPC   C4B66910  15.744   3.444   7.350
 9677POPC   NC366911   3.556   1.259   5.550
 9677POPC   PO466912   3.591   1.188   5.850
 9677POPC   GL166913   3.579   1.218   6.150
 9677POPC   GL266914   3.658   1.143   6.150
 9677POPC   C1A66915   3.582   1.165   6.450
 9677POPC   D2A66916   3.534   1.217   6.750
 9677POPC   C3A66917   3.587   1.209   7.050
 9677POPC   C4A66918   3.494   1.242   7.350
 9677POPC   C1B66919   3.751   1.114   6.450
 9677POPC   C2B66920   3.771   1.168   6.750
 9677POPC   C3B66921   3.813   1.167   7.050
 9677POPC   C4B66922   3.762   1.147   7.350
 9678POPC   NC366923  40.759  38.430   5.550
 9678POPC   PO466924  40.778  38.487   5.850
 9678POPC   GL166925  40.770  38.420   6.150
 9678POPC   GL266926  40.912  38.460   6.150
 9678POPC   C1A66927  40.747  38.491   6.450
 9678POPC   D2A66928  40.807  38.501   6.750
 9678POPC   C3A66929  40.830  38.441   7.050
 9678POPC   C4A66930  40.740  38.465   7.350
 9678POPC   C1B66931  41.068  38.494   6.450
 9678POPC   C2B66932  41.032  38.455   6.750
 9678POPC   C3B66933  40.999  38.523   7.050
 9678POPC   C4B66934  41.066  38.486   7.350
 9679POPC   NC366935  19.018  35.363   5.550
 9679POPC   PO466936  19.071  35.383   5.850
 9679POPC   GL166937  19.107  35.321   6.150
 9679POPC   GL266938  19.121  35.376   6.150
 9679POPC   C1A66939  19.080  35.340   6.450
 9679POPC   D2A66940  19.043  35.388   6.750
 9679POPC   C3A66941  19.061  35.310   7.050
 9679POPC   C4A66942  19.053  35.347   7.350
 9679POPC   C1B66943  19.229  35.511   6.450
 9679POPC   C2B66944  19.281  35.467   6.750
 9679POPC   C3B66945  19.222  35.474   7.050
 9679POPC   C4B66946  19.261  35.516   7.350
 9680POPC   NC366947   9.724  34.542   5.550
 9680POPC   PO466948   9.748  34.596   5.850
 9680POPC   GL166949   9.741  34.540   6.150
 9680POPC   GL266950   9.658  34.435   6.150
 9680POPC   C1A66951   9.723  34.617   6.450
 9680POPC   D2A66952   9.784  34.553   6.750
 9680POPC   C3A66953   9.750  34.619   7.050
 9680POPC   C4A66954   9.734  34.552   7.350
 9680POPC   C1B66955   9.565  34.351   6.450
 9680POPC   C2B66956   9.606  34.345   6.750
 9680POPC   C3B66957   9.540  34.397   7.050
 9680POPC   C4B66958   9.597  34.353   7.350
 9681POPC   NC366959  25.307  40.031   5.550
 9681POPC   PO466960  25.226  39.964   5.850
 9681POPC   GL166961  25.263  40.013   6.150
 9681POPC   GL266962  25.277  39.882   6.150
 9681POPC   C1A66963  25.286  40.004   6.450
 9681POPC   D2A66964  25.293  39.991   6.750
 9681POPC   C3A66965  25.218  40.052   7.050
 9681POPC   C4A66966  25.255  39.964   7.350
 9681POPC   C1B66967  25.259  39.790   6.450
 9681POPC   C2B66968  25.247  39.797   6.750
 9681POPC   C3B66969  25.219  39.784   7.050
 9681POPC   C4B66970  25.236  39.811   7.350
 9682POPC   NC366971  30.708  37.670   5.550
 9682POPC   PO466972  30.709  37.635   5.850
 9682POPC   GL166973  30.729  37.724   6.150
 9682POPC   GL266974  30.784  37.745   6.150
 9682POPC   C1A66975  30.669  37.711   6.450
 9682POPC   D2A66976  30.705  37.640   6.750
 9682POPC   C3A66977  30.708  37.643   7.050
 9682POPC   C4A66978  30.709  37.717   7.350
 9682POPC   C1B66979  30.817  37.859   6.450
 9682POPC   C2B66980  30.891  37.818   6.750
 9682POPC   C3B66981  30.818  37.866   7.050
 9682POPC   C4B66982  30.888  37.906   7.350
 9683POPC   NC366983   9.779  39.250   5.550
 9683POPC   PO466984   9.726  39.241   5.850
 9683POPC   GL166985   9.713  39.258   6.150
 9683POPC   GL266986   9.662  39.287   6.150
 9683POPC   C1A66987   9.790  39.186   6.450
 9683POPC   D2A66988   9.762  39.249   6.750
 9683POPC   C3A66989   9.784  39.253   7.050
 9683POPC   C4A66990   9.703  39.257   7.350
 9683POPC   C1B66991   9.564  39.369   6.450
 9683POPC   C2B66992   9.507  39.300   6.750
 9683POPC   C3B66993   9.517  39.393   7.050
 9683POPC   C4B66994   9.533  39.374   7.350
 9684POPC   NC366995   3.584   5.855   5.550
 9684POPC   PO466996   3.566   5.882   5.850
 9684POPC   GL166997   3.560   5.902   6.150
 9684POPC   GL266998   3.633   5.784   6.150
 9684POPC   C1A66999   3.528   5.822   6.450
 9684POPC   D2A67000   3.517   5.914   6.750
 9684POPC   C3A67001   3.585   5.901   7.050
 9684POPC   C4A67002   3.555   5.910   7.350
 9684POPC   C1B67003   3.635   5.636   6.450
 9684POPC   C2B67004   3.665   5.631   6.750
 9684POPC   C3B67005   3.585   5.597   7.050
 9684POPC   C4B67006   3.639   5.594   7.350
 9685POPC   NC367007  38.461  42.349   5.550
 9685POPC   PO467008  38.446  42.331   5.850
 9685POPC   GL167009  38.418  42.309   6.150
 9685POPC   GL267010  38.397  42.239   6.150
 9685POPC   C1A67011  38.467  42.338   6.450
 9685POPC   D2A67012  38.431  42.335   6.750
 9685POPC   C3A67013  38.483  42.285   7.050
 9685POPC   C4A67014  38.491  42.323   7.350
 9685POPC   C1B67015  38.306  42.147   6.450
 9685POPC   C2B67016  38.269  42.089   6.750
 9685POPC   C3B67017  38.338  42.171   7.050
 9685POPC   C4B67018  38.295  42.110   7.350
 9686POPC   NC367019  43.858  41.562   5.550
 9686POPC   PO467020  43.857  41.580   5.850
 9686POPC   GL167021  43.862  41.599   6.150
 9686POPC   GL267022  43.999  41.488   6.150
 9686POPC   C1A67023  43.844  41.585   6.450
 9686POPC   D2A67024  43.858  41.603   6.750
 9686POPC   C3A67025  43.905  41.540   7.050
 9686POPC   C4A67026  43.841  41.588   7.350
 9686POPC   C1B67027  44.066  41.422   6.450
 9686POPC   C2B67028  44.116  41.416   6.750
 9686POPC   C3B67029  44.060  41.440   7.050
 9686POPC   C4B67030  44.087  41.431   7.350
 9687POPC   NC367031  25.304  29.937   5.550
 9687POPC   PO467032  25.254  29.919   5.850
 9687POPC   GL167033  25.304  29.910   6.150
 9687POPC   GL267034  25.099  29.905   6.150
 9687POPC   C1A67035  25.297  29.905   6.450
 9687POPC   D2A67036  25.290  29.936   6.750
 9687POPC   C3A67037  25.311  29.934   7.050
 9687POPC   C4A67038  25.301  29.930   7.350
 9687POPC   C1B67039  25.028  29.827   6.450
 9687POPC   C2B67040  25.066  29.824   6.750
 9687POPC   C3B67041  24.982  29.838   7.050
 9687POPC   C4B67042  25.029  29.850   7.350
 9688POPC   NC367043  39.229  41.597   5.550
 9688POPC   PO467044  39.211  41.548   5.850
 9688POPC   GL167045  39.235  41.531   6.150
 9688POPC   GL267046  39.315  41.515   6.150
 9688POPC   C1A67047  39.263  41.523   6.450
 9688POPC   D2A67048  39.203  41.583   6.750
 9688POPC   C3A67049  39.263  41.555   7.050
 9688POPC   C4A67050  39.205  41.530   7.350
 9688POPC   C1B67051  39.492  41.566   6.450
 9688POPC   C2B67052  39.465  41.611   6.750
 9688POPC   C3B67053  39.442  41.573   7.050
 9688POPC   C4B67054  39.483  41.547   7.350
 9689POPC   NC367055  36.102  41.523   5.550
 9689POPC   PO467056  36.128  41.547   5.850
 9689POPC   GL167057  36.108  41.525   6.150
 9689POPC   GL267058  36.049  41.449   6.150
 9689POPC   C1A67059  36.177  41.538   6.450
 9689POPC   D2A67060  36.090  41.575   6.750
 9689POPC   C3A67061  36.099  41.563   7.050
 9689POPC   C4A67062  36.106  41.578   7.350
 9689POPC   C1B67063  36.028  41.310   6.450
 9689POPC   C2B67064  35.977  41.328   6.750
 9689POPC   C3B67065  36.003  41.313   7.050
 9689POPC   C4B67066  35.998  41.295   7.350
 9690POPC   NC367067  44.678   7.400   5.550
 9690POPC   PO467068  44.614   7.381   5.850
 9690POPC   GL167069  44.626   7.386   6.150
 9690POPC   GL267070  44.600   7.544   6.150
 9690POPC   C1A67071  44.701   7.447   6.450
 9690POPC   D2A67072  44.676   7.417   6.750
 9690POPC   C3A67073  44.673   7.448   7.050
 9690POPC   C4A67074  44.623   7.380   7.350
 9690POPC   C1B67075  44.511   7.540   6.450
 9690POPC   C2B67076  44.486   7.559   6.750
 9690POPC   C3B67077  44.509   7.602   7.050
 9690POPC   C4B67078  44.501   7.586   7.350
 9691POPC   NC367079  38.425  11.336   5.550
 9691POPC   PO467080  38.434  11.267   5.850
 9691POPC   GL167081  38.449  11.336   6.150
 9691POPC   GL267082  38.530  11.164   6.150
 9691POPC   C1A67083  38.432  11.256   6.450
 9691POPC   D2A67084  38.494  11.334   6.750
 9691POPC   C3A67085  38.436  11.298   7.050
 9691POPC   C4A67086  38.424  11.331   7.350
 9691POPC   C1B67087  38.545  11.095   6.450
 9691POPC   C2B67088  38.545  11.078   6.750
 9691POPC   C3B67089  38.538  11.068   7.050
 9691POPC   C4B67090  38.517  11.078   7.350
 9692POPC   NC367091  25.239   4.270   5.550
 9692POPC   PO467092  25.241   4.322   5.850
 9692POPC   GL167093  25.305   4.304   6.150
 9692POPC   GL267094  25.367   4.279   6.150
 9692POPC   C1A67095  25.315   4.306   6.450
 9692POPC   D2A67096  25.267   4.276   6.750
 9692POPC   C3A67097  25.250   4.299   7.050
 9692POPC   C4A67098  25.305   4.348   7.350
 9692POPC   C1B67099  25.491   4.247   6.450
 9692POPC   C2B67100  25.501   4.246   6.750
 9692POPC   C3B67101  25.512   4.253   7.050
 9692POPC   C4B67102  25.495   4.281   7.350
 9693POPC   NC367103  10.506  40.781   5.550
 9693POPC   PO467104  10.515  40.827   5.850
 9693POPC   GL167105  10.505  40.777   6.150
 9693POPC   GL267106  10.659  40.744   6.150
 9693POPC   C1A67107  10.521  40.789   6.450
 9693POPC   D2A67108  10.564  40.826   6.750
 9693POPC   C3A67109  10.517  40.740   7.050
 9693POPC   C4A67110  10.521  40.810   7.350
 9693POPC   C1B67111  10.724  40.641   6.450
 9693POPC   C2B67112  10.741  40.672   6.750
 9693POPC   C3B67113  10.741  40.615   7.050
 9693POPC   C4B67114  10.698  40.673   7.350
 9694POPC   NC367115  35.312  33.840   5.550
 9694POPC   PO467116  35.396  33.787   5.850
 9694POPC   GL167117  35.310  33.778   6.150
 9694POPC   GL267118  35.420  33.688   6.150
 9694POPC   C1A67119  35.354  33.762   6.450
 9694POPC   D2A67120  35.342  33.766   6.750
 9694POPC   C3A67121  35.356  33.828   7.050
 9694POPC   C4A67122  35.388  33.761   7.350
 9694POPC   C1B67123  35.481  33.593   6.450
 9694POPC   C2B67124  35.534  33.587   6.750
 9694POPC   C3B67125  35.510  33.639   7.050
 9694POPC   C4B67126  35.518  33.550   7.350
 9695POPC   NC367127  33.827  26.043   5.550
 9695POPC   PO467128  33.842  26.068   5.850
 9695POPC   GL167129  33.841  26.013   6.150
 9695POPC   GL267130  33.776  26.123   6.150
 9695POPC   C1A67131  33.775  26.084   6.450
 9695POPC   D2A67132  33.777  26.039   6.750
 9695POPC   C3A67133  33.843  26.056   7.050
 9695POPC   C4A67134  33.824  26.017   7.350
 9695POPC   C1B67135  33.771  26.253   6.450
 9695POPC   C2B67136  33.739  26.320   6.750
 9695POPC   C3B67137  33.697  26.246   7.050
 9695POPC   C4B67138  33.737  26.253   7.350
 9696POPC   NC367139  40.789  14.371   5.550
 9696POPC   PO467140  40.799  14.386   5.850
 9696POPC   GL167141  40.786  14.363   6.150
 9696POPC   GL267142  40.681  14.384   6.150
 9696POPC   C1A67143  40.734  14.357   6.450
 9696POPC   D2A67144  40.766  14.413   6.750
 9696POPC   C3A67145  40.784  14.404   7.050
 9696POPC   C4A67146  40.733  14.397   7.350
 9696POPC   C1B67147  40.509  14.297   6.450
 9696POPC   C2B67148  40.508  14.309   6.750
 9696POPC   C3B67149  40.554  14.381   7.050
 9696POPC   C4B67150  40.500  14.297   7.350
 9697POPC   NC367151  37.630  43.895   5.550
 9697POPC   PO467152  37.727  43.839   5.850
 9697POPC   GL167153  37.695  43.883   6.150
 9697POPC   GL267154  37.524  43.978   6.150
 9697POPC   C1A67155  37.642  43.876   6.450
 9697POPC   D2A67156  37.668  43.887   6.750
 9697POPC   C3A67157  37.649  43.871   7.050
 9697POPC   C4A67158  37.725  43.863   7.350
 9697POPC   C1B67159  37.507  43.958   6.450
 9697POPC   C2B67160  37.498  43.975   6.750
 9697POPC   C3B67161  37.415  44.022   7.050
 9697POPC   C4B67162  37.432  43.960   7.350
 9698POPC   NC367163  42.379  44.615   5.550
 9698POPC   PO467164  42.355  44.633   5.850
 9698POPC   GL167165  42.286  44.646   6.150
 9698POPC   GL267166  42.407  44.775   6.150
 9698POPC   C1A67167  42.343  44.627   6.450
 9698POPC   D2A67168  42.338  44.663   6.750
 9698POPC   C3A67169  42.312  44.651   7.050
 9698POPC   C4A67170  42.369  44.643   7.350
 9698POPC   C1B67171  42.539  44.840   6.450
 9698POPC   C2B67172  42.552  44.840   6.750
 9698POPC   C3B67173  42.503  44.806   7.050
 9698POPC   C4B67174  42.573  44.818   7.350
 9699POPC   NC367175   4.363   1.183   5.550
 9699POPC   PO467176   4.310   1.239   5.850
 9699POPC   GL167177   4.360   1.255   6.150
 9699POPC   GL267178   4.265   1.059   6.150
 9699POPC   C1A67179   4.310   1.189   6.450
 9699POPC   D2A67180   4.328   1.236   6.750
 9699POPC   C3A67181   4.285   1.254   7.050
 9699POPC   C4A67182   4.356   1.177   7.350
 9699POPC   C1B67183   4.297   0.961   6.450
 9699POPC   C2B67184   4.347   1.002   6.750
 9699POPC   C3B67185   4.347   0.929   7.050
 9699POPC   C4B67186   4.335   0.927   7.350
 9700POPC   NC367187   8.233  24.447   5.550
 9700POPC   PO467188   8.244  24.454   5.850
 9700POPC   GL167189   8.181  24.496   6.150
 9700POPC   GL267190   8.191  24.595   6.150
 9700POPC   C1A67191   8.212  24.449   6.450
 9700POPC   D2A67192   8.168  24.534   6.750
 9700POPC   C3A67193   8.148  24.507   7.050
 9700POPC   C4A67194   8.206  24.452   7.350
 9700POPC   C1B67195   8.202  24.702   6.450
 9700POPC   C2B67196   8.251  24.713   6.750
 9700POPC   C3B67197   8.171  24.771   7.050
 9700POPC   C4B67198   8.234  24.780   7.350
 9701POPC   NC367199  18.239  22.951   5.550
 9701POPC   PO467200  18.309  22.961   5.850
 9701POPC   GL167201  18.299  22.979   6.150
 9701POPC   GL267202  18.169  23.014   6.150
 9701POPC   C1A67203  18.283  22.976   6.450
 9701POPC   D2A67204  18.297  22.949   6.750
 9701POPC   C3A67205  18.289  22.966   7.050
 9701POPC   C4A67206  18.324  22.981   7.350
 9701POPC   C1B67207  18.039  23.084   6.450
 9701POPC   C2B67208  18.112  23.072   6.750
 9701POPC   C3B67209  18.121  23.122   7.050
 9701POPC   C4B67210  18.124  23.070   7.350
 9702POPC   NC367211   9.767   5.047   5.550
 9702POPC   PO467212   9.727   5.123   5.850
 9702POPC   GL167213   9.765   5.089   6.150
 9702POPC   GL267214   9.731   5.250   6.150
 9702POPC   C1A67215   9.702   5.134   6.450
 9702POPC   D2A67216   9.710   5.135   6.750
 9702POPC   C3A67217   9.761   5.101   7.050
 9702POPC   C4A67218   9.768   5.099   7.350
 9702POPC   C1B67219   9.733   5.367   6.450
 9702POPC   C2B67220   9.708   5.312   6.750
 9702POPC   C3B67221   9.777   5.386   7.050
 9702POPC   C4B67222   9.791   5.305   7.350
 9703POPC   NC367223  10.490  36.086   5.550
 9703POPC   PO467224  10.527  36.162   5.850
 9703POPC   GL167225  10.494  36.089   6.150
 9703POPC   GL267226  10.586  36.214   6.150
 9703POPC   C1A67227  10.527  36.127   6.450
 9703POPC   D2A67228  10.547  36.118   6.750
 9703POPC   C3A67229  10.512  36.130   7.050
 9703POPC   C4A67230  10.478  36.087   7.350
 9703POPC   C1B67231  10.670  36.299   6.450
 9703POPC   C2B67232  10.691  36.302   6.750
 9703POPC   C3B67233  10.641  36.344   7.050
 9703POPC   C4B67234  10.630  36.320   7.350
 9704POPC   NC367235  13.593  41.551   5.550
 9704POPC   PO467236  13.602  41.582   5.850
 9704POPC   GL167237  13.620  41.583   6.150
 9704POPC   GL267238  13.786  41.469   6.150
 9704POPC   C1A67239  13.592  41.574   6.450
 9704POPC   D2A67240  13.631  41.583   6.750
 9704POPC   C3A67241  13.631  41.537   7.050
 9704POPC   C4A67242  13.585  41.542   7.350
 9704POPC   C1B67243  13.823  41.507   6.450
 9704POPC   C2B67244  13.879  41.451   6.750
 9704POPC   C3B67245  13.830  41.452   7.050
 9704POPC   C4B67246  13.864  41.501   7.350
 9705POPC   NC367247  19.872  33.812   5.550
 9705POPC   PO467248  19.788  33.764   5.850
 9705POPC   GL167249  19.810  33.830   6.150
 9705POPC   GL267250  19.918  33.852   6.150
 9705POPC   C1A67251  19.790  33.828   6.450
 9705POPC   D2A67252  19.797  33.828   6.750
 9705POPC   C3A67253  19.791  33.848   7.050
 9705POPC   C4A67254  19.878  33.832   7.350
 9705POPC   C1B67255  20.062  33.897   6.450
 9705POPC   C2B67256  20.089  33.868   6.750
 9705POPC   C3B67257  20.033  33.852   7.050
 9705POPC   C4B67258  20.117  33.842   7.350
 9706POPC   NC367259  32.294  10.485   5.550
 9706POPC   PO467260  32.240  10.519   5.850
 9706POPC   GL167261  32.234  10.497   6.150
 9706POPC   GL267262  32.110  10.465   6.150
 9706POPC   C1A67263  32.250  10.570   6.450
 9706POPC   D2A67264  32.261  10.545   6.750
 9706POPC   C3A67265  32.244  10.477   7.050
 9706POPC   C4A67266  32.263  10.509   7.350
 9706POPC   C1B67267  32.058  10.408   6.450
 9706POPC   C2B67268  32.031  10.357   6.750
 9706POPC   C3B67269  32.013  10.323   7.050
 9706POPC   C4B67270  32.018  10.370   7.350
 9707POPC   NC367271  12.075  20.562   5.550
 9707POPC   PO467272  12.111  20.621   5.850
 9707POPC   GL167273  12.084  20.577   6.150
 9707POPC   GL267274  12.198  20.716   6.150
 9707POPC   C1A67275  12.059  20.601   6.450
 9707POPC   D2A67276  12.099  20.565   6.750
 9707POPC   C3A67277  12.027  20.620   7.050
 9707POPC   C4A67278  12.052  20.636   7.350
 9707POPC   C1B67279  12.306  20.756   6.450
 9707POPC   C2B67280  12.295  20.757   6.750
 9707POPC   C3B67281  12.285  20.807   7.050
 9707POPC   C4B67282  12.261  20.753   7.350
 9708POPC   NC367283  20.568  29.102   5.550
 9708POPC   PO467284  20.610  29.150   5.850
 9708POPC   GL167285  20.595  29.141   6.150
 9708POPC   GL267286  20.539  29.054   6.150
 9708POPC   C1A67287  20.639  29.126   6.450
 9708POPC   D2A67288  20.592  29.134   6.750
 9708POPC   C3A67289  20.592  29.177   7.050
 9708POPC   C4A67290  20.658  29.115   7.350
 9708POPC   C1B67291  20.481  28.897   6.450
 9708POPC   C2B67292  20.480  28.901   6.750
 9708POPC   C3B67293  20.507  28.925   7.050
 9708POPC   C4B67294  20.504  28.877   7.350
 9709POPC   NC367295  43.910  22.899   5.550
 9709POPC   PO467296  43.884  22.941   5.850
 9709POPC   GL167297  43.839  22.952   6.150
 9709POPC   GL267298  43.925  23.013   6.150
 9709POPC   C1A67299  43.899  22.946   6.450
 9709POPC   D2A67300  43.880  22.901   6.750
 9709POPC   C3A67301  43.889  22.932   7.050
 9709POPC   C4A67302  43.897  22.916   7.350
 9709POPC   C1B67303  44.045  23.070   6.450
 9709POPC   C2B67304  44.070  23.082   6.750
 9709POPC   C3B67305  44.057  23.115   7.050
 9709POPC   C4B67306  44.062  23.072   7.350
 9710POPC   NC367307  36.094  12.849   5.550
 9710POPC   PO467308  36.087  12.877   5.850
 9710POPC   GL167309  36.091  12.889   6.150
 9710POPC   GL267310  36.205  12.933   6.150
 9710POPC   C1A67311  36.138  12.840   6.450
 9710POPC   D2A67312  36.129  12.887   6.750
 9710POPC   C3A67313  36.121  12.894   7.050
 9710POPC   C4A67314  36.169  12.886   7.350
 9710POPC   C1B67315  36.309  13.045   6.450
 9710POPC   C2B67316  36.264  13.029   6.750
 9710POPC   C3B67317  36.256  13.016   7.050
 9710POPC   C4B67318  36.254  13.042   7.350
 9711POPC   NC367319   2.720  12.866   5.550
 9711POPC   PO467320   2.733  12.845   5.850
 9711POPC   GL167321   2.793  12.835   6.150
 9711POPC   GL267322   2.801  13.000   6.150
 9711POPC   C1A67323   2.759  12.804   6.450
 9711POPC   D2A67324   2.762  12.839   6.750
 9711POPC   C3A67325   2.765  12.893   7.050
 9711POPC   C4A67326   2.787  12.880   7.350
 9711POPC   C1B67327   2.827  13.050   6.450
 9711POPC   C2B67328   2.846  13.094   6.750
 9711POPC   C3B67329   2.798  13.111   7.050
 9711POPC   C4B67330   2.863  13.140   7.350
 9712POPC   NC367331  43.114  41.558   5.550
 9712POPC   PO467332  43.154  41.553   5.850
 9712POPC   GL167333  43.148  41.601   6.150
 9712POPC   GL267334  42.990  41.555   6.150
 9712POPC   C1A67335  43.099  41.541   6.450
 9712POPC   D2A67336  43.092  41.510   6.750
 9712POPC   C3A67337  43.069  41.601   7.050
 9712POPC   C4A67338  43.081  41.541   7.350
 9712POPC   C1B67339  42.894  41.584   6.450
 9712POPC   C2B67340  42.837  41.504   6.750
 9712POPC   C3B67341  42.848  41.492   7.050
 9712POPC   C4B67342  42.858  41.553   7.350
 9713POPC   NC367343  41.581   8.186   5.550
 9713POPC   PO467344  41.579   8.201   5.850
 9713POPC   GL167345  41.554   8.202   6.150
 9713POPC   GL267346  41.397   8.162   6.150
 9713POPC   C1A67347  41.571   8.178   6.450
 9713POPC   D2A67348  41.574   8.246   6.750
 9713POPC   C3A67349  41.605   8.227   7.050
 9713POPC   C4A67350  41.516   8.205   7.350
 9713POPC   C1B67351  41.262   8.165   6.450
 9713POPC   C2B67352  41.272   8.200   6.750
 9713POPC   C3B67353  41.341   8.233   7.050
 9713POPC   C4B67354  41.278   8.185   7.350
 9714POPC   NC367355  19.094  42.318   5.550
 9714POPC   PO467356  19.101  42.373   5.850
 9714POPC   GL167357  19.076  42.336   6.150
 9714POPC   GL267358  19.092  42.445   6.150
 9714POPC   C1A67359  19.057  42.370   6.450
 9714POPC   D2A67360  19.059  42.354   6.750
 9714POPC   C3A67361  19.101  42.337   7.050
 9714POPC   C4A67362  19.042  42.317   7.350
 9714POPC   C1B67363  19.155  42.563   6.450
 9714POPC   C2B67364  19.153  42.531   6.750
 9714POPC   C3B67365  19.144  42.553   7.050
 9714POPC   C4B67366  19.165  42.580   7.350
 9715POPC   NC367367  18.323  21.348   5.550
 9715POPC   PO467368  18.255  21.408   5.850
 9715POPC   GL167369  18.287  21.435   6.150
 9715POPC   GL267370  18.153  21.372   6.150
 9715POPC   C1A67371  18.242  21.411   6.450
 9715POPC   D2A67372  18.304  21.363   6.750
 9715POPC   C3A67373  18.301  21.359   7.050
 9715POPC   C4A67374  18.282  21.408   7.350
 9715POPC   C1B67375  18.075  21.313   6.450
 9715POPC   C2B67376  18.078  21.312   6.750
 9715POPC   C3B67377  18.043  21.252   7.050
 9715POPC   C4B67378  18.091  21.330   7.350
 9716POPC   NC367379  19.086  31.435   5.550
 9716POPC   PO467380  19.012  31.427   5.850
 9716POPC   GL167381  19.059  31.501   6.150
 9716POPC   GL267382  19.177  31.392   6.150
 9716POPC   C1A67383  19.058  31.484   6.450
 9716POPC   D2A67384  19.067  31.513   6.750
 9716POPC   C3A67385  19.047  31.501   7.050
 9716POPC   C4A67386  19.016  31.474   7.350
 9716POPC   C1B67387  19.292  31.347   6.450
 9716POPC   C2B67388  19.270  31.382   6.750
 9716POPC   C3B67389  19.266  31.315   7.050
 9716POPC   C4B67390  19.287  31.375   7.350
 9717POPC   NC367391  43.096  14.354   5.550
 9717POPC   PO467392  43.124  14.395   5.850
 9717POPC   GL167393  43.130  14.374   6.150
 9717POPC   GL267394  43.158  14.322   6.150
 9717POPC   C1A67395  43.067  14.441   6.450
 9717POPC   D2A67396  43.093  14.372   6.750
 9717POPC   C3A67397  43.119  14.386   7.050
 9717POPC   C4A67398  43.159  14.384   7.350
 9717POPC   C1B67399  43.249  14.199   6.450
 9717POPC   C2B67400  43.288  14.185   6.750
 9717POPC   C3B67401  43.300  14.254   7.050
 9717POPC   C4B67402  43.283  14.250   7.350
 9718POPC   NC367403  24.463   2.006   5.550
 9718POPC   PO467404  24.475   1.944   5.850
 9718POPC   GL167405  24.513   1.967   6.150
 9718POPC   GL267406  24.589   1.913   6.150
 9718POPC   C1A67407  24.454   1.978   6.450
 9718POPC   D2A67408  24.442   1.996   6.750
 9718POPC   C3A67409  24.495   2.010   7.050
 9718POPC   C4A67410  24.458   2.008   7.350
 9718POPC   C1B67411  24.705   1.917   6.450
 9718POPC   C2B67412  24.711   1.902   6.750
 9718POPC   C3B67413  24.696   1.868   7.050
 9718POPC   C4B67414  24.730   1.833   7.350
 9719POPC   NC367415   9.704   8.175   5.550
 9719POPC   PO467416   9.761   8.214   5.850
 9719POPC   GL167417   9.730   8.175   6.150
 9719POPC   GL267418   9.797   8.269   6.150
 9719POPC   C1A67419   9.751   8.149   6.450
 9719POPC   D2A67420   9.732   8.223   6.750
 9719POPC   C3A67421   9.759   8.231   7.050
 9719POPC   C4A67422   9.732   8.210   7.350
 9719POPC   C1B67423   9.901   8.433   6.450
 9719POPC   C2B67424   9.898   8.409   6.750
 9719POPC   C3B67425   9.859   8.366   7.050
 9719POPC   C4B67426   9.871   8.373   7.350
 9720POPC   NC367427  36.865  14.434   5.550
 9720POPC   PO467428  36.950  14.357   5.850
 9720POPC   GL167429  36.948  14.453   6.150
 9720POPC   GL267430  36.802  14.461   6.150
 9720POPC   C1A67431  36.904  14.358   6.450
 9720POPC   D2A67432  36.880  14.396   6.750
 9720POPC   C3A67433  36.923  14.399   7.050
 9720POPC   C4A67434  36.952  14.415   7.350
 9720POPC   C1B67435  36.683  14.541   6.450
 9720POPC   C2B67436  36.669  14.491   6.750
 9720POPC   C3B67437  36.659  14.482   7.050
 9720POPC   C4B67438  36.654  14.491   7.350
 9721POPC   NC367439   3.570  29.115   5.550
 9721POPC   PO467440   3.566  29.108   5.850
 9721POPC   GL167441   3.505  29.142   6.150
 9721POPC   GL267442   3.391  29.055   6.150
 9721POPC   C1A67443   3.545  29.193   6.450
 9721POPC   D2A67444   3.577  29.120   6.750
 9721POPC   C3A67445   3.551  29.172   7.050
 9721POPC   C4A67446   3.495  29.187   7.350
 9721POPC   C1B67447   3.300  29.004   6.450
 9721POPC   C2B67448   3.349  29.055   6.750
 9721POPC   C3B67449   3.338  29.040   7.050
 9721POPC   C4B67450   3.321  28.992   7.350
 9722POPC   NC367451  19.808  23.700   5.550
 9722POPC   PO467452  19.831  23.694   5.850
 9722POPC   GL167453  19.806  23.719   6.150
 9722POPC   GL267454  19.912  23.662   6.150
 9722POPC   C1A67455  19.789  23.683   6.450
 9722POPC   D2A67456  19.805  23.757   6.750
 9722POPC   C3A67457  19.819  23.665   7.050
 9722POPC   C4A67458  19.842  23.742   7.350
 9722POPC   C1B67459  20.082  23.519   6.450
 9722POPC   C2B67460  20.005  23.581   6.750
 9722POPC   C3B67461  20.047  23.525   7.050
 9722POPC   C4B67462  19.988  23.535   7.350
 9723POPC   NC367463  19.089  19.854   5.550
 9723POPC   PO467464  19.081  19.815   5.850
 9723POPC   GL167465  19.041  19.874   6.150
 9723POPC   GL267466  19.017  19.714   6.150
 9723POPC   C1A67467  19.104  19.857   6.450
 9723POPC   D2A67468  19.108  19.791   6.750
 9723POPC   C3A67469  19.017  19.864   7.050
 9723POPC   C4A67470  19.053  19.864   7.350
 9723POPC   C1B67471  18.853  19.635   6.450
 9723POPC   C2B67472  18.901  19.658   6.750
 9723POPC   C3B67473  18.891  19.651   7.050
 9723POPC   C4B67474  18.943  19.659   7.350
 9724POPC   NC367475  28.347   7.461   5.550
 9724POPC   PO467476  28.409   7.421   5.850
 9724POPC   GL167477  28.333   7.465   6.150
 9724POPC   GL267478  28.462   7.338   6.150
 9724POPC   C1A67479  28.383   7.376   6.450
 9724POPC   D2A67480  28.388   7.443   6.750
 9724POPC   C3A67481  28.379   7.411   7.050
 9724POPC   C4A67482  28.374   7.383   7.350
 9724POPC   C1B67483  28.484   7.222   6.450
 9724POPC   C2B67484  28.481   7.219   6.750
 9724POPC   C3B67485  28.540   7.192   7.050
 9724POPC   C4B67486  28.498   7.225   7.350
 9725POPC   NC367487  27.638  29.963   5.550
 9725POPC   PO467488  27.558  29.942   5.850
 9725POPC   GL167489  27.561  29.904   6.150
 9725POPC   GL267490  27.586  30.052   6.150
 9725POPC   C1A67491  27.569  29.884   6.450
 9725POPC   D2A67492  27.563  29.955   6.750
 9725POPC   C3A67493  27.602  29.917   7.050
 9725POPC   C4A67494  27.553  29.931   7.350
 9725POPC   C1B67495  27.512  30.181   6.450
 9725POPC   C2B67496  27.522  30.178   6.750
 9725POPC   C3B67497  27.534  30.214   7.050
 9725POPC   C4B67498  27.528  30.115   7.350
 9726POPC   NC367499   4.322  12.806   5.550
 9726POPC   PO467500   4.296  12.815   5.850
 9726POPC   GL167501   4.356  12.823   6.150
 9726POPC   GL267502   4.212  12.906   6.150
 9726POPC   C1A67503   4.335  12.839   6.450
 9726POPC   D2A67504   4.278  12.888   6.750
 9726POPC   C3A67505   4.274  12.882   7.050
 9726POPC   C4A67506   4.327  12.805   7.350
 9726POPC   C1B67507   4.130  13.097   6.450
 9726POPC   C2B67508   4.189  13.065   6.750
 9726POPC   C3B67509   4.155  13.018   7.050
 9726POPC   C4B67510   4.187  13.022   7.350
 9727POPC   NC367511  26.796   1.177   5.550
 9727POPC   PO467512  26.791   1.200   5.850
 9727POPC   GL167513  26.787   1.236   6.150
 9727POPC   GL267514  26.738   1.160   6.150
 9727POPC   C1A67515  26.778   1.240   6.450
 9727POPC   D2A67516  26.856   1.171   6.750
 9727POPC   C3A67517  26.845   1.186   7.050
 9727POPC   C4A67518  26.776   1.223   7.350
 9727POPC   C1B67519  26.575   1.151   6.450
 9727POPC   C2B67520  26.605   1.114   6.750
 9727POPC   C3B67521  26.600   1.158   7.050
 9727POPC   C4B67522  26.625   1.124   7.350
 9728POPC   NC367523  43.136  12.817   5.550
 9728POPC   PO467524  43.064  12.875   5.850
 9728POPC   GL167525  43.140  12.855   6.150
 9728POPC   GL267526  43.202  12.961   6.150
 9728POPC   C1A67527  43.098  12.834   6.450
 9728POPC   D2A67528  43.085  12.816   6.750
 9728POPC   C3A67529  43.068  12.885   7.050
 9728POPC   C4A67530  43.103  12.859   7.350
 9728POPC   C1B67531  43.342  13.008   6.450
 9728POPC   C2B67532  43.340  12.988   6.750
 9728POPC   C3B67533  43.320  12.974   7.050
 9728POPC   C4B67534  43.273  13.041   7.350
 9729POPC   NC367535  43.091  33.769   5.550
 9729POPC   PO467536  43.088  33.839   5.850
 9729POPC   GL167537  43.085  33.841   6.150
 9729POPC   GL267538  43.068  33.680   6.150
 9729POPC   C1A67539  43.144  33.756   6.450
 9729POPC   D2A67540  43.115  33.849   6.750
 9729POPC   C3A67541  43.090  33.764   7.050
 9729POPC   C4A67542  43.159  33.803   7.350
 9729POPC   C1B67543  43.085  33.542   6.450
 9729POPC   C2B67544  43.085  33.561   6.750
 9729POPC   C3B67545  43.007  33.586   7.050
 9729POPC   C4B67546  43.064  33.513   7.350
 9730POPC   NC367547  17.515  21.369   5.550
 9730POPC   PO467548  17.512  21.347   5.850
 9730POPC   GL167549  17.546  21.345   6.150
 9730POPC   GL267550  17.366  21.431   6.150
 9730POPC   C1A67551  17.524  21.382   6.450
 9730POPC   D2A67552  17.526  21.407   6.750
 9730POPC   C3A67553  17.533  21.372   7.050
 9730POPC   C4A67554  17.537  21.345   7.350
 9730POPC   C1B67555  17.245  21.345   6.450
 9730POPC   C2B67556  17.286  21.435   6.750
 9730POPC   C3B67557  17.300  21.336   7.050
 9730POPC   C4B67558  17.291  21.394   7.350
 9731POPC   NC367559  27.637  44.619   5.550
 9731POPC   PO467560  27.574  44.664   5.850
 9731POPC   GL167561  27.638  44.615   6.150
 9731POPC   GL267562  27.517  44.551   6.150
 9731POPC   C1A67563  27.544  44.711   6.450
 9731POPC   D2A67564  27.577  44.631   6.750
 9731POPC   C3A67565  27.611  44.709   7.050
 9731POPC   C4A67566  27.570  44.689   7.350
 9731POPC   C1B67567  27.492  44.450   6.450
 9731POPC   C2B67568  27.487  44.457   6.750
 9731POPC   C3B67569  27.456  44.447   7.050
 9731POPC   C4B67570  27.487  44.395   7.350
 9732POPC   NC367571  36.170   3.561   5.550
 9732POPC   PO467572  36.137   3.558   5.850
 9732POPC   GL167573  36.148   3.576   6.150
 9732POPC   GL267574  36.113   3.392   6.150
 9732POPC   C1A67575  36.113   3.496   6.450
 9732POPC   D2A67576  36.111   3.538   6.750
 9732POPC   C3A67577  36.083   3.520   7.050
 9732POPC   C4A67578  36.087   3.539   7.350
 9732POPC   C1B67579  35.958   3.361   6.450
 9732POPC   C2B67580  35.964   3.363   6.750
 9732POPC   C3B67581  36.022   3.367   7.050
 9732POPC   C4B67582  35.970   3.296   7.350
 9733POPC   NC367583  29.144  19.866   5.550
 9733POPC   PO467584  29.164  19.786   5.850
 9733POPC   GL167585  29.188  19.851   6.150
 9733POPC   GL267586  29.061  19.809   6.150
 9733POPC   C1A67587  29.179  19.797   6.450
 9733POPC   D2A67588  29.174  19.830   6.750
 9733POPC   C3A67589  29.158  19.833   7.050
 9733POPC   C4A67590  29.147  19.794   7.350
 9733POPC   C1B67591  28.937  19.824   6.450
 9733POPC   C2B67592  28.934  19.912   6.750
 9733POPC   C3B67593  28.934  19.834   7.050
 9733POPC   C4B67594  28.911  19.898   7.350
 9734POPC   NC367595  15.956  12.063   5.550
 9734POPC   PO467596  15.974  12.065   5.850
 9734POPC   GL167597  15.913  12.121   6.150
 9734POPC   GL267598  15.865  12.102   6.150
 9734POPC   C1A67599  16.003  12.035   6.450
 9734POPC   D2A67600  15.998  12.058   6.750
 9734POPC   C3A67601  15.926  12.027   7.050
 9734POPC   C4A67602  15.956  12.041   7.350
 9734POPC   C1B67603  15.750  12.084   6.450
 9734POPC   C2B67604  15.734  11.996   6.750
 9734POPC   C3B67605  15.742  12.044   7.050
 9734POPC   C4B67606  15.671  12.087   7.350
 9735POPC   NC367607   5.135  37.664   5.550
 9735POPC   PO467608   5.114  37.666   5.850
 9735POPC   GL167609   5.135  37.646   6.150
 9735POPC   GL267610   5.066  37.598   6.150
 9735POPC   C1A67611   5.131  37.658   6.450
 9735POPC   D2A67612   5.118  37.634   6.750
 9735POPC   C3A67613   5.089  37.714   7.050
 9735POPC   C4A67614   5.138  37.656   7.350
 9735POPC   C1B67615   4.985  37.449   6.450
 9735POPC   C2B67616   4.959  37.436   6.750
 9735POPC   C3B67617   5.031  37.417   7.050
 9735POPC   C4B67618   4.955  37.451   7.350
 9736POPC   NC367619   3.493   6.626   5.550
 9736POPC   PO467620   3.555   6.648   5.850
 9736POPC   GL167621   3.570   6.687   6.150
 9736POPC   GL267622   3.568   6.753   6.150
 9736POPC   C1A67623   3.547   6.675   6.450
 9736POPC   D2A67624   3.514   6.607   6.750
 9736POPC   C3A67625   3.497   6.687   7.050
 9736POPC   C4A67626   3.510   6.660   7.350
 9736POPC   C1B67627   3.559   6.846   6.450
 9736POPC   C2B67628   3.492   6.921   6.750
 9736POPC   C3B67629   3.548   6.929   7.050
 9736POPC   C4B67630   3.509   6.918   7.350
 9737POPC   NC367631  24.488  27.561   5.550
 9737POPC   PO467632  24.442  27.595   5.850
 9737POPC   GL167633  24.467  27.637   6.150
 9737POPC   GL267634  24.579  27.611   6.150
 9737POPC   C1A67635  24.489  27.550   6.450
 9737POPC   D2A67636  24.507  27.642   6.750
 9737POPC   C3A67637  24.451  27.604   7.050
 9737POPC   C4A67638  24.441  27.588   7.350
 9737POPC   C1B67639  24.686  27.672   6.450
 9737POPC   C2B67640  24.728  27.700   6.750
 9737POPC   C3B67641  24.754  27.691   7.050
 9737POPC   C4B67642  24.716  27.641   7.350
 9738POPC   NC367643  18.233  12.108   5.550
 9738POPC   PO467644  18.316  12.100   5.850
 9738POPC   GL167645  18.244  12.067   6.150
 9738POPC   GL267646  18.274  12.209   6.150
 9738POPC   C1A67647  18.323  12.097   6.450
 9738POPC   D2A67648  18.320  12.065   6.750
 9738POPC   C3A67649  18.294  12.082   7.050
 9738POPC   C4A67650  18.288  12.064   7.350
 9738POPC   C1B67651  18.322  12.359   6.450
 9738POPC   C2B67652  18.290  12.345   6.750
 9738POPC   C3B67653  18.274  12.315   7.050
 9738POPC   C4B67654  18.281  12.351   7.350
 9739POPC   NC367655  32.245  36.115   5.550
 9739POPC   PO467656  32.257  36.117   5.850
 9739POPC   GL167657  32.224  36.137   6.150
 9739POPC   GL267658  32.199  36.064   6.150
 9739POPC   C1A67659  32.222  36.096   6.450
 9739POPC   D2A67660  32.245  36.116   6.750
 9739POPC   C3A67661  32.227  36.092   7.050
 9739POPC   C4A67662  32.233  36.120   7.350
 9739POPC   C1B67663  32.069  35.902   6.450
 9739POPC   C2B67664  32.092  35.970   6.750
 9739POPC   C3B67665  32.126  35.926   7.050
 9739POPC   C4B67666  32.068  35.973   7.350
 9740POPC   NC367667  28.368  13.640   5.550
 9740POPC   PO467668  28.418  13.625   5.850
 9740POPC   GL167669  28.353  13.643   6.150
 9740POPC   GL267670  28.291  13.507   6.150
 9740POPC   C1A67671  28.367  13.608   6.450
 9740POPC   D2A67672  28.382  13.581   6.750
 9740POPC   C3A67673  28.390  13.622   7.050
 9740POPC   C4A67674  28.397  13.608   7.350
 9740POPC   C1B67675  28.281  13.377   6.450
 9740POPC   C2B67676  28.237  13.392   6.750
 9740POPC   C3B67677  28.256  13.442   7.050
 9740POPC   C4B67678  28.190  13.447   7.350
 9741POPC   NC367679  15.165   6.602   5.550
 9741POPC   PO467680  15.155   6.618   5.850
 9741POPC   GL167681  15.153   6.595   6.150
 9741POPC   GL267682  15.109   6.807   6.150
 9741POPC   C1A67683  15.133   6.657   6.450
 9741POPC   D2A67684  15.191   6.679   6.750
 9741POPC   C3A67685  15.139   6.670   7.050
 9741POPC   C4A67686  15.191   6.615   7.350
 9741POPC   C1B67687  15.098   6.897   6.450
 9741POPC   C2B67688  15.097   6.891   6.750
 9741POPC   C3B67689  15.108   6.839   7.050
 9741POPC   C4B67690  15.131   6.898   7.350
 9742POPC   NC367691  13.658   4.345   5.550
 9742POPC   PO467692  13.612   4.281   5.850
 9742POPC   GL167693  13.666   4.361   6.150
 9742POPC   GL267694  13.787   4.231   6.150
 9742POPC   C1A67695  13.581   4.270   6.450
 9742POPC   D2A67696  13.644   4.293   6.750
 9742POPC   C3A67697  13.606   4.293   7.050
 9742POPC   C4A67698  13.582   4.300   7.350
 9742POPC   C1B67699  13.807   4.168   6.450
 9742POPC   C2B67700  13.886   4.257   6.750
 9742POPC   C3B67701  13.865   4.239   7.050
 9742POPC   C4B67702  13.826   4.206   7.350
 9743POPC   NC367703  15.951  19.097   5.550
 9743POPC   PO467704  15.907  19.018   5.850
 9743POPC   GL167705  15.936  19.076   6.150
 9743POPC   GL267706  16.078  19.073   6.150
 9743POPC   C1A67707  15.942  19.066   6.450
 9743POPC   D2A67708  15.961  19.050   6.750
 9743POPC   C3A67709  15.998  19.102   7.050
 9743POPC   C4A67710  15.998  19.079   7.350
 9743POPC   C1B67711  16.225  19.177   6.450
 9743POPC   C2B67712  16.165  19.138   6.750
 9743POPC   C3B67713  16.223  19.206   7.050
 9743POPC   C4B67714  16.143  19.200   7.350
 9744POPC   NC367715  35.323  29.099   5.550
 9744POPC   PO467716  35.345  29.173   5.850
 9744POPC   GL167717  35.354  29.133   6.150
 9744POPC   GL267718  35.497  29.077   6.150
 9744POPC   C1A67719  35.366  29.148   6.450
 9744POPC   D2A67720  35.356  29.125   6.750
 9744POPC   C3A67721  35.310  29.096   7.050
 9744POPC   C4A67722  35.320  29.142   7.350
 9744POPC   C1B67723  35.572  29.018   6.450
 9744POPC   C2B67724  35.560  29.082   6.750
 9744POPC   C3B67725  35.621  29.000   7.050
 9744POPC   C4B67726  35.584  28.992   7.350
 9745POPC   NC367727   7.466  11.257   5.550
 9745POPC   PO467728   7.392  11.341   5.850
 9745POPC   GL167729   7.431  11.261   6.150
 9745POPC   GL267730   7.465  11.457   6.150
 9745POPC   C1A67731   7.428  11.334   6.450
 9745POPC   D2A67732   7.390  11.254   6.750
 9745POPC   C3A67733   7.391  11.342   7.050
 9745POPC   C4A67734   7.415  11.328   7.350
 9745POPC   C1B67735   7.430  11.538   6.450
 9745POPC   C2B67736   7.451  11.596   6.750
 9745POPC   C3B67737   7.411  11.552   7.050
 9745POPC   C4B67738   7.419  11.554   7.350
 9746POPC   NC367739   5.065  40.029   5.550
 9746POPC   PO467740   5.055  40.021   5.850
 9746POPC   GL167741   5.095  39.981   6.150
 9746POPC   GL267742   5.216  39.922   6.150
 9746POPC   C1A67743   5.087  39.966   6.450
 9746POPC   D2A67744   5.094  39.974   6.750
 9746POPC   C3A67745   5.053  39.993   7.050
 9746POPC   C4A67746   5.075  39.981   7.350
 9746POPC   C1B67747   5.322  39.875   6.450
 9746POPC   C2B67748   5.317  39.871   6.750
 9746POPC   C3B67749   5.357  39.854   7.050
 9746POPC   C4B67750   5.296  39.856   7.350
 9747POPC   NC367751  28.343  40.747   5.550
 9747POPC   PO467752  28.323  40.817   5.850
 9747POPC   GL167753  28.359  40.785   6.150
 9747POPC   GL267754  28.291  40.862   6.150
 9747POPC   C1A67755  28.362  40.797   6.450
 9747POPC   D2A67756  28.345  40.810   6.750
 9747POPC   C3A67757  28.335  40.763   7.050
 9747POPC   C4A67758  28.414  40.760   7.350
 9747POPC   C1B67759  28.248  41.036   6.450
 9747POPC   C2B67760  28.282  41.007   6.750
 9747POPC   C3B67761  28.245  40.967   7.050
 9747POPC   C4B67762  28.214  41.018   7.350
 9748POPC   NC367763  38.500  38.435   5.550
 9748POPC   PO467764  38.431  38.440   5.850
 9748POPC   GL167765  38.499  38.411   6.150
 9748POPC   GL267766  38.608  38.452   6.150
 9748POPC   C1A67767  38.459  38.467   6.450
 9748POPC   D2A67768  38.423  38.472   6.750
 9748POPC   C3A67769  38.428  38.420   7.050
 9748POPC   C4A67770  38.445  38.456   7.350
 9748POPC   C1B67771  38.703  38.419   6.450
 9748POPC   C2B67772  38.657  38.372   6.750
 9748POPC   C3B67773  38.747  38.390   7.050
 9748POPC   C4B67774  38.738  38.454   7.350
 9749POPC   NC367775   6.634   2.763   5.550
 9749POPC   PO467776   6.615   2.787   5.850
 9749POPC   GL167777   6.620   2.747   6.150
 9749POPC   GL267778   6.652   2.663   6.150
 9749POPC   C1A67779   6.689   2.809   6.450
 9749POPC   D2A67780   6.664   2.733   6.750
 9749POPC   C3A67781   6.680   2.770   7.050
 9749POPC   C4A67782   6.597   2.750   7.350
 9749POPC   C1B67783   6.640   2.479   6.450
 9749POPC   C2B67784   6.656   2.494   6.750
 9749POPC   C3B67785   6.658   2.564   7.050
 9749POPC   C4B67786   6.700   2.480   7.350
 9750POPC   NC367787   6.667  30.663   5.550
 9750POPC   PO467788   6.636  30.743   5.850
 9750POPC   GL167789   6.650  30.689   6.150
 9750POPC   GL267790   6.576  30.758   6.150
 9750POPC   C1A67791   6.693  30.731   6.450
 9750POPC   D2A67792   6.622  30.690   6.750
 9750POPC   C3A67793   6.682  30.724   7.050
 9750POPC   C4A67794   6.673  30.663   7.350
 9750POPC   C1B67795   6.467  30.796   6.450
 9750POPC   C2B67796   6.387  30.791   6.750
 9750POPC   C3B67797   6.442  30.797   7.050
 9750POPC   C4B67798   6.432  30.823   7.350
 9751POPC   NC367799  40.828  37.641   5.550
 9751POPC   PO467800  40.823  37.704   5.850
 9751POPC   GL167801  40.813  37.724   6.150
 9751POPC   GL267802  40.928  37.607   6.150
 9751POPC   C1A67803  40.736  37.641   6.450
 9751POPC   D2A67804  40.757  37.631   6.750
 9751POPC   C3A67805  40.771  37.665   7.050
 9751POPC   C4A67806  40.772  37.689   7.350
 9751POPC   C1B67807  41.041  37.509   6.450
 9751POPC   C2B67808  40.984  37.572   6.750
 9751POPC   C3B67809  41.020  37.552   7.050
 9751POPC   C4B67810  40.947  37.546   7.350
 9752POPC   NC367811  12.812  24.446   5.550
 9752POPC   PO467812  12.803  24.465   5.850
 9752POPC   GL167813  12.886  24.498   6.150
 9752POPC   GL267814  12.826  24.384   6.150
 9752POPC   C1A67815  12.815  24.461   6.450
 9752POPC   D2A67816  12.849  24.531   6.750
 9752POPC   C3A67817  12.811  24.476   7.050
 9752POPC   C4A67818  12.866  24.481   7.350
 9752POPC   C1B67819  12.695  24.272   6.450
 9752POPC   C2B67820  12.747  24.324   6.750
 9752POPC   C3B67821  12.721  24.299   7.050
 9752POPC   C4B67822  12.697  24.330   7.350
 9753POPC   NC367823  43.878  11.325   5.550
 9753POPC   PO467824  43.875  11.256   5.850
 9753POPC   GL167825  43.918  11.308   6.150
 9753POPC   GL267826  43.887  11.390   6.150
 9753POPC   C1A67827  43.930  11.259   6.450
 9753POPC   D2A67828  43.886  11.319   6.750
 9753POPC   C3A67829  43.931  11.259   7.050
 9753POPC   C4A67830  43.852  11.282   7.350
 9753POPC   C1B67831  43.969  11.509   6.450
 9753POPC   C2B67832  43.976  11.522   6.750
 9753POPC   C3B67833  43.926  11.566   7.050
 9753POPC   C4B67834  43.924  11.588   7.350
 9754POPC   NC367835   1.191   8.230   5.550
 9754POPC   PO467836   1.255   8.157   5.850
 9754POPC   GL167837   1.182   8.206   6.150
 9754POPC   GL267838   1.351   8.196   6.150
 9754POPC   C1A67839   1.237   8.216   6.450
 9754POPC   D2A67840   1.241   8.164   6.750
 9754POPC   C3A67841   1.247   8.197   7.050
 9754POPC   C4A67842   1.185   8.183   7.350
 9754POPC   C1B67843   1.476   8.144   6.450
 9754POPC   C2B67844   1.436   8.140   6.750
 9754POPC   C3B67845   1.483   8.160   7.050
 9754POPC   C4B67846   1.511   8.185   7.350
 9755POPC   NC367847  23.756   8.962   5.550
 9755POPC   PO467848  23.757   8.941   5.850
 9755POPC   GL167849  23.713   9.018   6.150
 9755POPC   GL267850  23.629   8.979   6.150
 9755POPC   C1A67851  23.689   8.980   6.450
 9755POPC   D2A67852  23.734   8.962   6.750
 9755POPC   C3A67853  23.714   8.999   7.050
 9755POPC   C4A67854  23.695   9.016   7.350
 9755POPC   C1B67855  23.469   9.093   6.450
 9755POPC   C2B67856  23.463   9.066   6.750
 9755POPC   C3B67857  23.531   9.049   7.050
 9755POPC   C4B67858  23.509   9.081   7.350
 9756POPC   NC367859  14.356  11.258   5.550
 9756POPC   PO467860  14.401  11.286   5.850
 9756POPC   GL167861  14.417  11.320   6.150
 9756POPC   GL267862  14.554  11.306   6.150
 9756POPC   C1A67863  14.358  11.295   6.450
 9756POPC   D2A67864  14.394  11.318   6.750
 9756POPC   C3A67865  14.426  11.295   7.050
 9756POPC   C4A67866  14.402  11.251   7.350
 9756POPC   C1B67867  14.639  11.321   6.450
 9756POPC   C2B67868  14.603  11.364   6.750
 9756POPC   C3B67869  14.626  11.344   7.050
 9756POPC   C4B67870  14.606  11.383   7.350
 9757POPC   NC367871   2.796   6.662   5.550
 9757POPC   PO467872   2.785   6.606   5.850
 9757POPC   GL167873   2.788   6.600   6.150
 9757POPC   GL267874   2.611   6.595   6.150
 9757POPC   C1A67875   2.794   6.661   6.450
 9757POPC   D2A67876   2.760   6.680   6.750
 9757POPC   C3A67877   2.768   6.615   7.050
 9757POPC   C4A67878   2.781   6.637   7.350
 9757POPC   C1B67879   2.557   6.495   6.450
 9757POPC   C2B67880   2.503   6.484   6.750
 9757POPC   C3B67881   2.549   6.554   7.050
 9757POPC   C4B67882   2.503   6.549   7.350
 9758POPC   NC367883  40.016   8.981   5.550
 9758POPC   PO467884  39.999   8.987   5.850
 9758POPC   GL167885  40.045   8.927   6.150
 9758POPC   GL267886  40.109   8.935   6.150
 9758POPC   C1A67887  39.980   9.008   6.450
 9758POPC   D2A67888  39.991   8.932   6.750
 9758POPC   C3A67889  39.997   8.977   7.050
 9758POPC   C4A67890  39.985   8.987   7.350
 9758POPC   C1B67891  40.196   8.858   6.450
 9758POPC   C2B67892  40.200   8.866   6.750
 9758POPC   C3B67893  40.223   8.880   7.050
 9758POPC   C4B67894  40.249   8.867   7.350
 9759POPC   NC367895   8.240  15.959   5.550
 9759POPC   PO467896   8.236  15.907   5.850
 9759POPC   GL167897   8.234  15.949   6.150
 9759POPC   GL267898   8.139  16.055   6.150
 9759POPC   C1A67899   8.207  15.944   6.450
 9759POPC   D2A67900   8.224  15.966   6.750
 9759POPC   C3A67901   8.225  15.943   7.050
 9759POPC   C4A67902   8.152  15.910   7.350
 9759POPC   C1B67903   8.081  16.162   6.450
 9759POPC   C2B67904   8.032  16.182   6.750
 9759POPC   C3B67905   8.014  16.143   7.050
 9759POPC   C4B67906   8.027  16.168   7.350
 9760POPC   NC367907   6.663  38.491   5.550
 9760POPC   PO467908   6.680  38.499   5.850
 9760POPC   GL167909   6.647  38.475   6.150
 9760POPC   GL267910   6.745  38.394   6.150
 9760POPC   C1A67911   6.668  38.461   6.450
 9760POPC   D2A67912   6.687  38.500   6.750
 9760POPC   C3A67913   6.657  38.494   7.050
 9760POPC   C4A67914   6.683  38.439   7.350
 9760POPC   C1B67915   6.899  38.352   6.450
 9760POPC   C2B67916   6.898  38.418   6.750
 9760POPC   C3B67917   6.865  38.342   7.050
 9760POPC   C4B67918   6.878  38.399   7.350
 9761POPC   NC367919  22.188  41.570   5.550
 9761POPC   PO467920  22.129  41.553   5.850
 9761POPC   GL167921  22.177  41.565   6.150
 9761POPC   GL267922  22.104  41.632   6.150
 9761POPC   C1A67923  22.142  41.599   6.450
 9761POPC   D2A67924  22.184  41.569   6.750
 9761POPC   C3A67925  22.114  41.524   7.050
 9761POPC   C4A67926  22.185  41.523   7.350
 9761POPC   C1B67927  22.045  41.784   6.450
 9761POPC   C2B67928  22.036  41.802   6.750
 9761POPC   C3B67929  22.081  41.825   7.050
 9761POPC   C4B67930  22.054  41.760   7.350
 9762POPC   NC367931  12.901  22.910   5.550
 9762POPC   PO467932  12.845  22.960   5.850
 9762POPC   GL167933  12.848  22.950   6.150
 9762POPC   GL267934  13.009  22.970   6.150
 9762POPC   C1A67935  12.874  22.895   6.450
 9762POPC   D2A67936  12.896  22.928   6.750
 9762POPC   C3A67937  12.882  22.906   7.050
 9762POPC   C4A67938  12.899  22.973   7.350
 9762POPC   C1B67939  13.075  22.919   6.450
 9762POPC   C2B67940  13.058  22.941   6.750
 9762POPC   C3B67941  13.053  22.924   7.050
 9762POPC   C4B67942  13.073  22.877   7.350
 9763POPC   NC367943  44.711  38.442   5.550
 9763POPC   PO467944  44.646  38.445   5.850
 9763POPC   GL167945  44.621  38.496   6.150
 9763POPC   GL267946  44.770  38.474   6.150
 9763POPC   C1A67947  44.697  38.485   6.450
 9763POPC   D2A67948  44.635  38.426   6.750
 9763POPC   C3A67949  44.627  38.419   7.050
 9763POPC   C4A67950  44.656  38.436   7.350
 9763POPC   C1B67951  44.896  38.541   6.450
 9763POPC   C2B67952  44.858  38.589   6.750
 9763POPC   C3B67953  44.913  38.555   7.050
 9763POPC   C4B67954  44.859  38.544   7.350
 9764POPC   NC367955  27.551  19.036   5.550
 9764POPC   PO467956  27.548  19.009   5.850
 9764POPC   GL167957  27.551  19.077   6.150
 9764POPC   GL267958  27.574  19.129   6.150
 9764POPC   C1A67959  27.607  19.024   6.450
 9764POPC   D2A67960  27.641  19.035   6.750
 9764POPC   C3A67961  27.617  19.105   7.050
 9764POPC   C4A67962  27.561  19.051   7.350
 9764POPC   C1B67963  27.516  19.315   6.450
 9764POPC   C2B67964  27.499  19.252   6.750
 9764POPC   C3B67965  27.451  19.242   7.050
 9764POPC   C4B67966  27.479  19.243   7.350
 9765POPC   NC367967  14.442  15.931   5.550
 9765POPC   PO467968  14.411  15.998   5.850
 9765POPC   GL167969  14.387  15.973   6.150
 9765POPC   GL267970  14.463  15.898   6.150
 9765POPC   C1A67971  14.399  15.936   6.450
 9765POPC   D2A67972  14.428  15.943   6.750
 9765POPC   C3A67973  14.447  15.983   7.050
 9765POPC   C4A67974  14.421  15.958   7.350
 9765POPC   C1B67975  14.635  15.851   6.450
 9765POPC   C2B67976  14.644  15.766   6.750
 9765POPC   C3B67977  14.569  15.772   7.050
 9765POPC   C4B67978  14.620  15.810   7.350
 9766POPC   NC367979  25.285  11.286   5.550
 9766POPC   PO467980  25.266  11.306   5.850
 9766POPC   GL167981  25.271  11.313   6.150
 9766POPC   GL267982  25.327  11.412   6.150
 9766POPC   C1A67983  25.232  11.314   6.450
 9766POPC   D2A67984  25.243  11.300   6.750
 9766POPC   C3A67985  25.230  11.339   7.050
 9766POPC   C4A67986  25.250  11.343   7.350
 9766POPC   C1B67987  25.284  11.550   6.450
 9766POPC   C2B67988  25.372  11.539   6.750
 9766POPC   C3B67989  25.299  11.553   7.050
 9766POPC   C4B67990  25.376  11.496   7.350
 9767POPC   NC367991  30.648   6.638   5.550
 9767POPC   PO467992  30.729   6.631   5.850
 9767POPC   GL167993  30.677   6.692   6.150
 9767POPC   GL267994  30.701   6.779   6.150
 9767POPC   C1A67995  30.654   6.622   6.450
 9767POPC   D2A67996  30.714   6.659   6.750
 9767POPC   C3A67997  30.730   6.629   7.050
 9767POPC   C4A67998  30.654   6.633   7.350
 9767POPC   C1B67999  30.604   6.919   6.450
 9767POPC   C2B68000  30.629   6.865   6.750
 9767POPC   C3B68001  30.657   6.861   7.050
 9767POPC   C4B68002  30.620   6.837   7.350
 9768POPC   NC368003  34.607  42.381   5.550
 9768POPC   PO468004  34.589  42.360   5.850
 9768POPC   GL168005  34.534  42.308   6.150
 9768POPC   GL268006  34.652  42.228   6.150
 9768POPC   C1A68007  34.600  42.305   6.450
 9768POPC   D2A68008  34.567  42.378   6.750
 9768POPC   C3A68009  34.597  42.365   7.050
 9768POPC   C4A68010  34.593  42.316   7.350
 9768POPC   C1B68011  34.683  42.157   6.450
 9768POPC   C2B68012  34.714  42.081   6.750
 9768POPC   C3B68013  34.746  42.117   7.050
 9768POPC   C4B68014  34.675  42.113   7.350
 9769POPC   NC368015   1.947  21.375   5.550
 9769POPC   PO468016   2.003  21.400   5.850
 9769POPC   GL168017   1.978  21.344   6.150
 9769POPC   GL268018   1.821  21.348   6.150
 9769POPC   C1A68019   1.945  21.360   6.450
 9769POPC   D2A68020   1.949  21.386   6.750
 9769POPC   C3A68021   2.026  21.376   7.050
 9769POPC   C4A68022   1.964  21.424   7.350
 9769POPC   C1B68023   1.781  21.339   6.450
 9769POPC   C2B68024   1.782  21.372   6.750
 9769POPC   C3B68025   1.730  21.374   7.050
 9769POPC   C4B68026   1.757  21.334   7.350
 9770POPC   NC368027  12.081  29.913   5.550
 9770POPC   PO468028  12.100  29.934   5.850
 9770POPC   GL168029  12.055  29.965   6.150
 9770POPC   GL268030  12.129  30.061   6.150
 9770POPC   C1A68031  12.077  29.960   6.450
 9770POPC   D2A68032  12.116  29.932   6.750
 9770POPC   C3A68033  12.070  29.961   7.050
 9770POPC   C4A68034  12.089  29.936   7.350
 9770POPC   C1B68035  12.136  30.187   6.450
 9770POPC   C2B68036  12.132  30.163   6.750
 9770POPC   C3B68037  12.183  30.156   7.050
 9770POPC   C4B68038  12.126  30.142   7.350
 9771POPC   NC368039  35.327   9.021   5.550
 9771POPC   PO468040  35.320   8.973   5.850
 9771POPC   GL168041  35.302   8.962   6.150
 9771POPC   GL268042  35.308   8.844   6.150
 9771POPC   C1A68043  35.343   9.022   6.450
 9771POPC   D2A68044  35.331   8.970   6.750
 9771POPC   C3A68045  35.305   8.993   7.050
 9771POPC   C4A68046  35.311   8.947   7.350
 9771POPC   C1B68047  35.221   8.816   6.450
 9771POPC   C2B68048  35.191   8.821   6.750
 9771POPC   C3B68049  35.204   8.800   7.050
 9771POPC   C4B68050  35.220   8.772   7.350
 9772POPC   NC368051  38.474  41.603   5.550
 9772POPC   PO468052  38.419  41.591   5.850
 9772POPC   GL168053  38.438  41.538   6.150
 9772POPC   GL268054  38.538  41.615   6.150
 9772POPC   C1A68055  38.463  41.574   6.450
 9772POPC   D2A68056  38.494  41.582   6.750
 9772POPC   C3A68057  38.454  41.553   7.050
 9772POPC   C4A68058  38.455  41.513   7.350
 9772POPC   C1B68059  38.738  41.632   6.450
 9772POPC   C2B68060  38.728  41.560   6.750
 9772POPC   C3B68061  38.717  41.616   7.050
 9772POPC   C4B68062  38.708  41.582   7.350
 9773POPC   NC368063  21.387  40.027   5.550
 9773POPC   PO468064  21.362  40.010   5.850
 9773POPC   GL168065  21.411  40.028   6.150
 9773POPC   GL268066  21.400  40.173   6.150
 9773POPC   C1A68067  21.362  40.030   6.450
 9773POPC   D2A68068  21.359  40.005   6.750
 9773POPC   C3A68069  21.343  40.053   7.050
 9773POPC   C4A68070  21.367  39.996   7.350
 9773POPC   C1B68071  21.471  40.236   6.450
 9773POPC   C2B68072  21.460  40.270   6.750
 9773POPC   C3B68073  21.445  40.286   7.050
 9773POPC   C4B68074  21.422  40.288   7.350
 9774POPC   NC368075  26.079  15.182   5.550
 9774POPC   PO468076  26.012  15.132   5.850
 9774POPC   GL168077  26.017  15.205   6.150
 9774POPC   GL268078  26.045  15.105   6.150
 9774POPC   C1A68079  26.013  15.133   6.450
 9774POPC   D2A68080  26.067  15.172   6.750
 9774POPC   C3A68081  26.056  15.209   7.050
 9774POPC   C4A68082  26.059  15.150   7.350
 9774POPC   C1B68083  26.136  14.927   6.450
 9774POPC   C2B68084  26.089  14.982   6.750
 9774POPC   C3B68085  26.081  14.964   7.050
 9774POPC   C4B68086  26.109  14.987   7.350
 9775POPC   NC368087  26.034  33.827   5.550
 9775POPC   PO468088  26.036  33.756   5.850
 9775POPC   GL168089  26.069  33.790   6.150
 9775POPC   GL268090  26.049  33.652   6.150
 9775POPC   C1A68091  26.062  33.764   6.450
 9775POPC   D2A68092  26.006  33.831   6.750
 9775POPC   C3A68093  26.087  33.767   7.050
 9775POPC   C4A68094  26.091  33.826   7.350
 9775POPC   C1B68095  26.046  33.587   6.450
 9775POPC   C2B68096  26.033  33.538   6.750
 9775POPC   C3B68097  26.078  33.508   7.050
 9775POPC   C4B68098  26.084  33.537   7.350
 9776POPC   NC368099  13.676  34.619   5.550
 9776POPC   PO468100  13.665  34.605   5.850
 9776POPC   GL168101  13.654  34.575   6.150
 9776POPC   GL268102  13.543  34.708   6.150
 9776POPC   C1A68103  13.630  34.583   6.450
 9776POPC   D2A68104  13.590  34.526   6.750
 9776POPC   C3A68105  13.597  34.537   7.050
 9776POPC   C4A68106  13.604  34.619   7.350
 9776POPC   C1B68107  13.468  34.812   6.450
 9776POPC   C2B68108  13.515  34.772   6.750
 9776POPC   C3B68109  13.563  34.830   7.050
 9776POPC   C4B68110  13.526  34.769   7.350
 9777POPC   NC368111   2.014  19.072   5.550
 9777POPC   PO468112   1.952  19.090   5.850
 9777POPC   GL168113   1.955  19.036   6.150
 9777POPC   GL268114   2.043  18.960   6.150
 9777POPC   C1A68115   1.996  19.009   6.450
 9777POPC   D2A68116   1.972  19.055   6.750
 9777POPC   C3A68117   2.039  19.060   7.050
 9777POPC   C4A68118   1.982  19.024   7.350
 9777POPC   C1B68119   2.181  18.906   6.450
 9777POPC   C2B68120   2.198  18.857   6.750
 9777POPC   C3B68121   2.151  18.838   7.050
 9777POPC   C4B68122   2.122  18.852   7.350
 9778POPC   NC368123  42.298  37.664   5.550
 9778POPC   PO468124  42.381  37.729   5.850
 9778POPC   GL168125  42.339  37.657   6.150
 9778POPC   GL268126  42.495  37.681   6.150
 9778POPC   C1A68127  42.381  37.686   6.450
 9778POPC   D2A68128  42.383  37.644   6.750
 9778POPC   C3A68129  42.354  37.677   7.050
 9778POPC   C4A68130  42.377  37.694   7.350
 9778POPC   C1B68131  42.592  37.706   6.450
 9778POPC   C2B68132  42.612  37.748   6.750
 9778POPC   C3B68133  42.600  37.679   7.050
 9778POPC   C4B68134  42.539  37.751   7.350
 9779POPC   NC368135   1.219  43.851   5.550
 9779POPC   PO468136   1.172  43.841   5.850
 9779POPC   GL168137   1.179  43.856   6.150
 9779POPC   GL268138   1.334  43.878   6.150
 9779POPC   C1A68139   1.222  43.919   6.450
 9779POPC   D2A68140   1.185  43.883   6.750
 9779POPC   C3A68141   1.171  43.883   7.050
 9779POPC   C4A68142   1.256  43.845   7.350
 9779POPC   C1B68143   1.432  43.848   6.450
 9779POPC   C2B68144   1.455  43.883   6.750
 9779POPC   C3B68145   1.495  43.820   7.050
 9779POPC   C4B68146   1.492  43.875   7.350
 9780POPC   NC368147  22.205  36.888   5.550
 9780POPC   PO468148  22.181  36.874   5.850
 9780POPC   GL168149  22.154  36.953   6.150
 9780POPC   GL268150  22.274  36.891   6.150
 9780POPC   C1A68151  22.185  36.879   6.450
 9780POPC   D2A68152  22.193  36.911   6.750
 9780POPC   C3A68153  22.125  36.938   7.050
 9780POPC   C4A68154  22.161  36.881   7.350
 9780POPC   C1B68155  22.373  36.785   6.450
 9780POPC   C2B68156  22.428  36.834   6.750
 9780POPC   C3B68157  22.409  36.774   7.050
 9780POPC   C4B68158  22.394  36.807   7.350
 9781POPC   NC368159  32.259  12.094   5.550
 9781POPC   PO468160  32.237  12.027   5.850
 9781POPC   GL168161  32.240  12.035   6.150
 9781POPC   GL268162  32.231  12.189   6.150
 9781POPC   C1A68163  32.217  12.112   6.450
 9781POPC   D2A68164  32.225  12.045   6.750
 9781POPC   C3A68165  32.217  12.103   7.050
 9781POPC   C4A68166  32.281  12.085   7.350
 9781POPC   C1B68167  32.187  12.330   6.450
 9781POPC   C2B68168  32.219  12.294   6.750
 9781POPC   C3B68169  32.212  12.292   7.050
 9781POPC   C4B68170  32.222  12.310   7.350
 9782POPC   NC368171  43.111   2.786   5.550
 9782POPC   PO468172  43.156   2.759   5.850
 9782POPC   GL168173  43.154   2.769   6.150
 9782POPC   GL268174  43.127   2.656   6.150
 9782POPC   C1A68175  43.062   2.815   6.450
 9782POPC   D2A68176  43.139   2.742   6.750
 9782POPC   C3A68177  43.096   2.717   7.050
 9782POPC   C4A68178  43.113   2.722   7.350
 9782POPC   C1B68179  43.171   2.476   6.450
 9782POPC   C2B68180  43.131   2.538   6.750
 9782POPC   C3B68181  43.111   2.471   7.050
 9782POPC   C4B68182  43.170   2.563   7.350
 9783POPC   NC368183   1.229  19.874   5.550
 9783POPC   PO468184   1.179  19.831   5.850
 9783POPC   GL168185   1.244  19.826   6.150
 9783POPC   GL268186   1.300  19.756   6.150
 9783POPC   C1A68187   1.193  19.852   6.450
 9783POPC   D2A68188   1.225  19.836   6.750
 9783POPC   C3A68189   1.212  19.883   7.050
 9783POPC   C4A68190   1.242  19.877   7.350
 9783POPC   C1B68191   1.336  19.651   6.450
 9783POPC   C2B68192   1.417  19.626   6.750
 9783POPC   C3B68193   1.340  19.660   7.050
 9783POPC   C4B68194   1.402  19.698   7.350
 9784POPC   NC368195  18.318  28.352   5.550
 9784POPC   PO468196  18.308  28.359   5.850
 9784POPC   GL168197  18.316  28.341   6.150
 9784POPC   GL268198  18.379  28.441   6.150
 9784POPC   C1A68199  18.320  28.351   6.450
 9784POPC   D2A68200  18.235  28.372   6.750
 9784POPC   C3A68201  18.282  28.362   7.050
 9784POPC   C4A68202  18.297  28.383   7.350
 9784POPC   C1B68203  18.552  28.462   6.450
 9784POPC   C2B68204  18.531  28.432   6.750
 9784POPC   C3B68205  18.557  28.388   7.050
 9784POPC   C4B68206  18.565  28.396   7.350
 9785POPC   NC368207  22.128  24.515   5.550
 9785POPC   PO468208  22.133  24.517   5.850
 9785POPC   GL168209  22.179  24.535   6.150
 9785POPC   GL268210  22.018  24.497   6.150
 9785POPC   C1A68211  22.120  24.516   6.450
 9785POPC   D2A68212  22.168  24.507   6.750
 9785POPC   C3A68213  22.119  24.517   7.050
 9785POPC   C4A68214  22.200  24.459   7.350
 9785POPC   C1B68215  21.938  24.441   6.450
 9785POPC   C2B68216  21.945  24.474   6.750
 9785POPC   C3B68217  21.913  24.441   7.050
 9785POPC   C4B68218  21.947  24.433   7.350
 9786POPC   NC368219  23.664  15.919   5.550
 9786POPC   PO468220  23.737  15.979   5.850
 9786POPC   GL168221  23.671  15.948   6.150
 9786POPC   GL268222  23.651  15.886   6.150
 9786POPC   C1A68223  23.734  15.984   6.450
 9786POPC   D2A68224  23.748  15.950   6.750
 9786POPC   C3A68225  23.739  15.928   7.050
 9786POPC   C4A68226  23.746  15.973   7.350
 9786POPC   C1B68227  23.494  15.814   6.450
 9786POPC   C2B68228  23.500  15.739   6.750
 9786POPC   C3B68229  23.520  15.777   7.050
 9786POPC   C4B68230  23.554  15.791   7.350
 9787POPC   NC368231  14.389  43.846   5.550
 9787POPC   PO468232  14.425  43.876   5.850
 9787POPC   GL168233  14.385  43.873   6.150
 9787POPC   GL268234  14.498  43.885   6.150
 9787POPC   C1A68235  14.414  43.879   6.450
 9787POPC   D2A68236  14.424  43.887   6.750
 9787POPC   C3A68237  14.378  43.923   7.050
 9787POPC   C4A68238  14.417  43.889   7.350
 9787POPC   C1B68239  14.643  43.861   6.450
 9787POPC   C2B68240  14.650  43.897   6.750
 9787POPC   C3B68241  14.631  43.897   7.050
 9787POPC   C4B68242  14.631  43.903   7.350
 9788POPC   NC368243   5.910   0.463   5.550
 9788POPC   PO468244   5.915   0.472   5.850
 9788POPC   GL168245   5.873   0.476   6.150
 9788POPC   GL268246   5.882   0.336   6.150
 9788POPC   C1A68247   5.909   0.404   6.450
 9788POPC   D2A68248   5.855   0.440   6.750
 9788POPC   C3A68249   5.872   0.439   7.050
 9788POPC   C4A68250   5.872   0.394   7.350
 9788POPC   C1B68251   5.827   0.235   6.450
 9788POPC   C2B68252   5.771   0.199   6.750
 9788POPC   C3B68253   5.797   0.206   7.050
 9788POPC   C4B68254   5.808   0.166   7.350
 9789POPC   NC368255  20.587  22.177   5.550
 9789POPC   PO468256  20.612  22.180   5.850
 9789POPC   GL168257  20.658  22.194   6.150
 9789POPC   GL268258  20.485  22.103   6.150
 9789POPC   C1A68259  20.587  22.158   6.450
 9789POPC   D2A68260  20.621  22.114   6.750
 9789POPC   C3A68261  20.605  22.208   7.050
 9789POPC   C4A68262  20.644  22.128   7.350
 9789POPC   C1B68263  20.452  21.947   6.450
 9789POPC   C2B68264  20.473  21.952   6.750
 9789POPC   C3B68265  20.466  21.972   7.050
 9789POPC   C4B68266  20.430  21.984   7.350
 9790POPC   NC368267  32.277  35.371   5.550
 9790POPC   PO468268  32.201  35.325   5.850
 9790POPC   GL168269  32.221  35.330   6.150
 9790POPC   GL268270  32.294  35.437   6.150
 9790POPC   C1A68271  32.254  35.385   6.450
 9790POPC   D2A68272  32.273  35.379   6.750
 9790POPC   C3A68273  32.204  35.306   7.050
 9790POPC   C4A68274  32.223  35.318   7.350
 9790POPC   C1B68275  32.367  35.588   6.450
 9790POPC   C2B68276  32.335  35.624   6.750
 9790POPC   C3B68277  32.356  35.557   7.050
 9790POPC   C4B68278  32.364  35.605   7.350
 9791POPC   NC368279   2.744  43.088   5.550
 9791POPC   PO468280   2.782  43.068   5.850
 9791POPC   GL168281   2.741  43.156   6.150
 9791POPC   GL268282   2.691  43.106   6.150
 9791POPC   C1A68283   2.786  43.093   6.450
 9791POPC   D2A68284   2.716  43.126   6.750
 9791POPC   C3A68285   2.812  43.088   7.050
 9791POPC   C4A68286   2.735  43.154   7.350
 9791POPC   C1B68287   2.535  43.025   6.450
 9791POPC   C2B68288   2.469  43.105   6.750
 9791POPC   C3B68289   2.481  43.043   7.050
 9791POPC   C4B68290   2.547  43.062   7.350
 9792POPC   NC368291   4.317  29.921   5.550
 9792POPC   PO468292   4.300  29.914   5.850
 9792POPC   GL168293   4.355  29.924   6.150
 9792POPC   GL268294   4.237  29.976   6.150
 9792POPC   C1A68295   4.279  29.966   6.450
 9792POPC   D2A68296   4.364  29.964   6.750
 9792POPC   C3A68297   4.300  29.920   7.050
 9792POPC   C4A68298   4.357  29.942   7.350
 9792POPC   C1B68299   4.034  29.985   6.450
 9792POPC   C2B68300   4.093  29.966   6.750
 9792POPC   C3B68301   4.081  29.982   7.050
 9792POPC   C4B68302   4.041  30.034   7.350
 9793POPC   NC368303  42.298  30.740   5.550
 9793POPC   PO468304  42.366  30.648   5.850
 9793POPC   GL168305  42.323  30.737   6.150
 9793POPC   GL268306  42.257  30.770   6.150
 9793POPC   C1A68307  42.295  30.649   6.450
 9793POPC   D2A68308  42.287  30.680   6.750
 9793POPC   C3A68309  42.336  30.713   7.050
 9793POPC   C4A68310  42.370  30.695   7.350
 9793POPC   C1B68311  42.176  30.895   6.450
 9793POPC   C2B68312  42.257  30.960   6.750
 9793POPC   C3B68313  42.206  30.913   7.050
 9793POPC   C4B68314  42.218  30.875   7.350
 9794POPC   NC368315  24.535   6.682   5.550
 9794POPC   PO468316  24.474   6.669   5.850
 9794POPC   GL168317  24.506   6.637   6.150
 9794POPC   GL268318  24.436   6.787   6.150
 9794POPC   C1A68319  24.474   6.619   6.450
 9794POPC   D2A68320  24.455   6.625   6.750
 9794POPC   C3A68321  24.497   6.615   7.050
 9794POPC   C4A68322  24.540   6.628   7.350
 9794POPC   C1B68323  24.513   6.917   6.450
 9794POPC   C2B68324  24.464   6.858   6.750
 9794POPC   C3B68325  24.503   6.901   7.050
 9794POPC   C4B68326  24.429   6.858   7.350
 9795POPC   NC368327  15.949  17.529   5.550
 9795POPC   PO468328  15.949  17.483   5.850
 9795POPC   GL168329  15.951  17.520   6.150
 9795POPC   GL268330  16.035  17.506   6.150
 9795POPC   C1A68331  15.966  17.532   6.450
 9795POPC   D2A68332  15.934  17.490   6.750
 9795POPC   C3A68333  15.919  17.494   7.050
 9795POPC   C4A68334  15.953  17.540   7.350
 9795POPC   C1B68335  16.166  17.439   6.450
 9795POPC   C2B68336  16.217  17.394   6.750
 9795POPC   C3B68337  16.164  17.433   7.050
 9795POPC   C4B68338  16.174  17.402   7.350
 9796POPC   NC368339  23.721  10.565   5.550
 9796POPC   PO468340  23.687  10.537   5.850
 9796POPC   GL168341  23.704  10.564   6.150
 9796POPC   GL268342  23.785  10.454   6.150
 9796POPC   C1A68343  23.718  10.488   6.450
 9796POPC   D2A68344  23.676  10.494   6.750
 9796POPC   C3A68345  23.681  10.499   7.050
 9796POPC   C4A68346  23.745  10.567   7.350
 9796POPC   C1B68347  23.785  10.328   6.450
 9796POPC   C2B68348  23.840  10.270   6.750
 9796POPC   C3B68349  23.862  10.315   7.050
 9796POPC   C4B68350  23.828  10.334   7.350
 9797POPC   NC368351  24.497  12.841   5.550
 9797POPC   PO468352  24.528  12.827   5.850
 9797POPC   GL168353  24.494  12.875   6.150
 9797POPC   GL268354  24.595  12.865   6.150
 9797POPC   C1A68355  24.538  12.819   6.450
 9797POPC   D2A68356  24.509  12.824   6.750
 9797POPC   C3A68357  24.452  12.877   7.050
 9797POPC   C4A68358  24.447  12.871   7.350
 9797POPC   C1B68359  24.737  12.977   6.450
 9797POPC   C2B68360  24.719  12.962   6.750
 9797POPC   C3B68361  24.712  12.980   7.050
 9797POPC   C4B68362  24.694  12.945   7.350
 9798POPC   NC368363  13.645  40.828   5.550
 9798POPC   PO468364  13.626  40.782   5.850
 9798POPC   GL168365  13.662  40.739   6.150
 9798POPC   GL268366  13.710  40.700   6.150
 9798POPC   C1A68367  13.641  40.768   6.450
 9798POPC   D2A68368  13.608  40.783   6.750
 9798POPC   C3A68369  13.605  40.817   7.050
 9798POPC   C4A68370  13.625  40.762   7.350
 9798POPC   C1B68371  13.723  40.559   6.450
 9798POPC   C2B68372  13.673  40.549   6.750
 9798POPC   C3B68373  13.695  40.580   7.050
 9798POPC   C4B68374  13.666  40.583   7.350
 9799POPC   NC368375  36.081  19.043   5.550
 9799POPC   PO468376  36.170  19.027   5.850
 9799POPC   GL168377  36.106  19.081   6.150
 9799POPC   GL268378  36.061  18.913   6.150
 9799POPC   C1A68379  36.178  19.015   6.450
 9799POPC   D2A68380  36.170  19.064   6.750
 9799POPC   C3A68381  36.083  19.089   7.050
 9799POPC   C4A68382  36.095  19.021   7.350
 9799POPC   C1B68383  35.975  18.885   6.450
 9799POPC   C2B68384  36.007  18.795   6.750
 9799POPC   C3B68385  36.032  18.829   7.050
 9799POPC   C4B68386  35.974  18.847   7.350
 9800POPC   NC368387  24.529  19.822   5.550
 9800POPC   PO468388  24.506  19.833   5.850
 9800POPC   GL168389  24.508  19.817   6.150
 9800POPC   GL268390  24.541  19.928   6.150
 9800POPC   C1A68391  24.497  19.793   6.450
 9800POPC   D2A68392  24.443  19.838   6.750
 9800POPC   C3A68393  24.463  19.816   7.050
 9800POPC   C4A68394  24.524  19.876   7.350
 9800POPC   C1B68395  24.536  20.119   6.450
 9800POPC   C2B68396  24.535  20.089   6.750
 9800POPC   C3B68397  24.566  20.041   7.050
 9800POPC   C4B68398  24.555  20.073   7.350
 9801POPC   NC368399  16.710  19.037   5.550
 9801POPC   PO468400  16.702  19.106   5.850
 9801POPC   GL168401  16.755  19.069   6.150
 9801POPC   GL268402  16.607  19.023   6.150
 9801POPC   C1A68403  16.779  19.078   6.450
 9801POPC   D2A68404  16.755  19.061   6.750
 9801POPC   C3A68405  16.713  19.050   7.050
 9801POPC   C4A68406  16.693  19.055   7.350
 9801POPC   C1B68407  16.460  19.012   6.450
 9801POPC   C2B68408  16.501  18.971   6.750
 9801POPC   C3B68409  16.468  18.984   7.050
 9801POPC   C4B68410  16.497  18.983   7.350
 9802POPC   NC368411   9.778  33.850   5.550
 9802POPC   PO468412   9.736  33.821   5.850
 9802POPC   GL168413   9.725  33.764   6.150
 9802POPC   GL268414   9.619  33.895   6.150
 9802POPC   C1A68415   9.735  33.788   6.450
 9802POPC   D2A68416   9.744  33.794   6.750
 9802POPC   C3A68417   9.788  33.756   7.050
 9802POPC   C4A68418   9.700  33.825   7.350
 9802POPC   C1B68419   9.509  33.980   6.450
 9802POPC   C2B68420   9.529  33.962   6.750
 9802POPC   C3B68421   9.566  33.981   7.050
 9802POPC   C4B68422   9.595  33.984   7.350
 9803POPC   NC368423  23.679  24.494   5.550
 9803POPC   PO468424  23.676  24.442   5.850
 9803POPC   GL168425  23.756  24.464   6.150
 9803POPC   GL268426  23.742  24.320   6.150
 9803POPC   C1A68427  23.689  24.498   6.450
 9803POPC   D2A68428  23.733  24.517   6.750
 9803POPC   C3A68429  23.697  24.451   7.050
 9803POPC   C4A68430  23.665  24.482   7.350
 9803POPC   C1B68431  23.774  24.210   6.450
 9803POPC   C2B68432  23.725  24.215   6.750
 9803POPC   C3B68433  23.736  24.251   7.050
 9803POPC   C4B68434  23.757  24.213   7.350
 9804POPC   NC368435   7.432  16.762   5.550
 9804POPC   PO468436   7.454  16.768   5.850
 9804POPC   GL168437   7.434  16.743   6.150
 9804POPC   GL268438   7.448  16.570   6.150
 9804POPC   C1A68439   7.470  16.778   6.450
 9804POPC   D2A68440   7.409  16.688   6.750
 9804POPC   C3A68441   7.456  16.687   7.050
 9804POPC   C4A68442   7.387  16.761   7.350
 9804POPC   C1B68443   7.357  16.523   6.450
 9804POPC   C2B68444   7.425  16.524   6.750
 9804POPC   C3B68445   7.447  16.472   7.050
 9804POPC   C4B68446   7.362  16.444   7.350
 9805POPC   NC368447  15.921  14.380   5.550
 9805POPC   PO468448  15.948  14.398   5.850
 9805POPC   GL168449  15.966  14.429   6.150
 9805POPC   GL268450  16.008  14.243   6.150
 9805POPC   C1A68451  15.916  14.361   6.450
 9805POPC   D2A68452  15.949  14.389   6.750
 9805POPC   C3A68453  15.935  14.396   7.050
 9805POPC   C4A68454  15.953  14.448   7.350
 9805POPC   C1B68455  16.113  14.145   6.450
 9805POPC   C2B68456  16.061  14.130   6.750
 9805POPC   C3B68457  16.081  14.186   7.050
 9805POPC   C4B68458  16.040  14.175   7.350
 9806POPC   NC368459  33.844   4.302   5.550
 9806POPC   PO468460  33.776   4.300   5.850
 9806POPC   GL168461  33.785   4.279   6.150
 9806POPC   GL268462  33.821   4.238   6.150
 9806POPC   C1A68463  33.803   4.335   6.450
 9806POPC   D2A68464  33.781   4.350   6.750
 9806POPC   C3A68465  33.816   4.324   7.050
 9806POPC   C4A68466  33.812   4.359   7.350
 9806POPC   C1B68467  33.781   4.021   6.450
 9806POPC   C2B68468  33.854   4.108   6.750
 9806POPC   C3B68469  33.796   4.107   7.050
 9806POPC   C4B68470  33.863   4.024   7.350
 9807POPC   NC368471  36.178  11.342   5.550
 9807POPC   PO468472  36.177  11.341   5.850
 9807POPC   GL168473  36.111  11.333   6.150
 9807POPC   GL268474  35.967  11.395   6.150
 9807POPC   C1A68475  36.083  11.310   6.450
 9807POPC   D2A68476  36.093  11.325   6.750
 9807POPC   C3A68477  36.138  11.317   7.050
 9807POPC   C4A68478  36.153  11.285   7.350
 9807POPC   C1B68479  35.908  11.358   6.450
 9807POPC   C2B68480  35.890  11.449   6.750
 9807POPC   C3B68481  35.863  11.433   7.050
 9807POPC   C4B68482  35.870  11.433   7.350
 9808POPC   NC368483  16.729  28.350   5.550
 9808POPC   PO468484  16.719  28.357   5.850
 9808POPC   GL168485  16.716  28.416   6.150
 9808POPC   GL268486  16.723  28.503   6.150
 9808POPC   C1A68487  16.685  28.388   6.450
 9808POPC   D2A68488  16.689  28.371   6.750
 9808POPC   C3A68489  16.767  28.393   7.050
 9808POPC   C4A68490  16.703  28.347   7.350
 9808POPC   C1B68491  16.778  28.573   6.450
 9808POPC   C2B68492  16.740  28.606   6.750
 9808POPC   C3B68493  16.759  28.590   7.050
 9808POPC   C4B68494  16.803  28.643   7.350
 9809POPC   NC368495  31.474  24.449   5.550
 9809POPC   PO468496  31.428  24.506   5.850
 9809POPC   GL168497  31.503  24.470   6.150
 9809POPC   GL268498  31.600  24.561   6.150
 9809POPC   C1A68499  31.444  24.512   6.450
 9809POPC   D2A68500  31.452  24.537   6.750
 9809POPC   C3A68501  31.458  24.463   7.050
 9809POPC   C4A68502  31.504  24.443   7.350
 9809POPC   C1B68503  31.714  24.675   6.450
 9809POPC   C2B68504  31.696  24.595   6.750
 9809POPC   C3B68505  31.716  24.629   7.050
 9809POPC   C4B68506  31.628  24.630   7.350
 9810POPC   NC368507  13.602   8.972   5.550
 9810POPC   PO468508  13.644   9.013   5.850
 9810POPC   GL168509  13.625   8.924   6.150
 9810POPC   GL268510  13.555   8.987   6.150
 9810POPC   C1A68511  13.579   8.961   6.450
 9810POPC   D2A68512  13.669   9.012   6.750
 9810POPC   C3A68513  13.668   8.965   7.050
 9810POPC   C4A68514  13.617   8.939   7.350
 9810POPC   C1B68515  13.342   9.064   6.450
 9810POPC   C2B68516  13.433   9.022   6.750
 9810POPC   C3B68517  13.345   9.091   7.050
 9810POPC   C4B68518  13.427   9.072   7.350
 9811POPC   NC368519   7.381   9.792   5.550
 9811POPC   PO468520   7.451   9.775   5.850
 9811POPC   GL168521   7.431   9.771   6.150
 9811POPC   GL268522   7.493   9.837   6.150
 9811POPC   C1A68523   7.444   9.707   6.450
 9811POPC   D2A68524   7.452   9.796   6.750
 9811POPC   C3A68525   7.459   9.727   7.050
 9811POPC   C4A68526   7.376   9.711   7.350
 9811POPC   C1B68527   7.605   9.922   6.450
 9811POPC   C2B68528   7.522   9.961   6.750
 9811POPC   C3B68529   7.575   9.983   7.050
 9811POPC   C4B68530   7.547   9.910   7.350
 9812POPC   NC368531  14.434  24.478   5.550
 9812POPC   PO468532  14.395  24.462   5.850
 9812POPC   GL168533  14.372  24.531   6.150
 9812POPC   GL268534  14.267  24.355   6.150
 9812POPC   C1A68535  14.445  24.502   6.450
 9812POPC   D2A68536  14.413  24.478   6.750
 9812POPC   C3A68537  14.434  24.455   7.050
 9812POPC   C4A68538  14.387  24.524   7.350
 9812POPC   C1B68539  14.247  24.307   6.450
 9812POPC   C2B68540  14.263  24.280   6.750
 9812POPC   C3B68541  14.213  24.346   7.050
 9812POPC   C4B68542  14.212  24.360   7.350
 9813POPC   NC368543   2.784   5.112   5.550
 9813POPC   PO468544   2.733   5.089   5.850
 9813POPC   GL168545   2.753   5.084   6.150
 9813POPC   GL268546   2.606   5.090   6.150
 9813POPC   C1A68547   2.738   5.102   6.450
 9813POPC   D2A68548   2.739   5.136   6.750
 9813POPC   C3A68549   2.750   5.125   7.050
 9813POPC   C4A68550   2.786   5.061   7.350
 9813POPC   C1B68551   2.566   5.100   6.450
 9813POPC   C2B68552   2.525   5.102   6.750
 9813POPC   C3B68553   2.475   5.122   7.050
 9813POPC   C4B68554   2.502   5.111   7.350
 9814POPC   NC368555  26.798  14.383   5.550
 9814POPC   PO468556  26.792  14.429   5.850
 9814POPC   GL168557  26.861  14.381   6.150
 9814POPC   GL268558  26.889  14.268   6.150
 9814POPC   C1A68559  26.795  14.359   6.450
 9814POPC   D2A68560  26.850  14.393   6.750
 9814POPC   C3A68561  26.850  14.448   7.050
 9814POPC   C4A68562  26.775  14.427   7.350
 9814POPC   C1B68563  26.962  14.231   6.450
 9814POPC   C2B68564  26.989  14.202   6.750
 9814POPC   C3B68565  26.902  14.164   7.050
 9814POPC   C4B68566  26.925  14.216   7.350
 9815POPC   NC368567  12.892   1.193   5.550
 9815POPC   PO468568  12.822   1.182   5.850
 9815POPC   GL168569  12.824   1.189   6.150
 9815POPC   GL268570  12.776   1.329   6.150
 9815POPC   C1A68571  12.887   1.231   6.450
 9815POPC   D2A68572  12.813   1.221   6.750
 9815POPC   C3A68573  12.897   1.174   7.050
 9815POPC   C4A68574  12.843   1.166   7.350
 9815POPC   C1B68575  12.688   1.428   6.450
 9815POPC   C2B68576  12.742   1.441   6.750
 9815POPC   C3B68577  12.727   1.472   7.050
 9815POPC   C4B68578  12.756   1.430   7.350
 9816POPC   NC368579  12.802  35.389   5.550
 9816POPC   PO468580  12.817  35.379   5.850
 9816POPC   GL168581  12.825  35.332   6.150
 9816POPC   GL268582  12.923  35.277   6.150
 9816POPC   C1A68583  12.859  35.325   6.450
 9816POPC   D2A68584  12.826  35.318   6.750
 9816POPC   C3A68585  12.825  35.357   7.050
 9816POPC   C4A68586  12.860  35.325   7.350
 9816POPC   C1B68587  12.993  35.214   6.450
 9816POPC   C2B68588  13.064  35.144   6.750
 9816POPC   C3B68589  13.056  35.198   7.050
 9816POPC   C4B68590  13.046  35.122   7.350
 9817POPC   NC368591   6.601  36.887   5.550
 9817POPC   PO468592   6.643  36.928   5.850
 9817POPC   GL168593   6.671  36.869   6.150
 9817POPC   GL268594   6.811  36.912   6.150
 9817POPC   C1A68595   6.667  36.870   6.450
 9817POPC   D2A68596   6.644  36.884   6.750
 9817POPC   C3A68597   6.659  36.894   7.050
 9817POPC   C4A68598   6.598  36.899   7.350
 9817POPC   C1B68599   6.838  36.955   6.450
 9817POPC   C2B68600   6.897  36.978   6.750
 9817POPC   C3B68601   6.874  36.953   7.050
 9817POPC   C4B68602   6.885  37.015   7.350
 9818POPC   NC368603   9.766  32.205   5.550
 9818POPC   PO468604   9.729  32.263   5.850
 9818POPC   GL168605   9.732  32.226   6.150
 9818POPC   GL268606   9.845  32.348   6.150
 9818POPC   C1A68607   9.710  32.263   6.450
 9818POPC   D2A68608   9.742  32.219   6.750
 9818POPC   C3A68609   9.735  32.225   7.050
 9818POPC   C4A68610   9.745  32.273   7.350
 9818POPC   C1B68611   9.913  32.427   6.450
 9818POPC   C2B68612   9.826  32.511   6.750
 9818POPC   C3B68613   9.890  32.488   7.050
 9818POPC   C4B68614   9.847  32.500   7.350
 9819POPC   NC368615  40.051   7.450   5.550
 9819POPC   PO468616  40.022   7.387   5.850
 9819POPC   GL168617  39.974   7.379   6.150
 9819POPC   GL268618  39.880   7.501   6.150
 9819POPC   C1A68619  39.989   7.389   6.450
 9819POPC   D2A68620  39.965   7.441   6.750
 9819POPC   C3A68621  40.047   7.448   7.050
 9819POPC   C4A68622  40.012   7.385   7.350
 9819POPC   C1B68623  39.784   7.541   6.450
 9819POPC   C2B68624  39.796   7.522   6.750
 9819POPC   C3B68625  39.812   7.470   7.050
 9819POPC   C4B68626  39.804   7.477   7.350
 9820POPC   NC368627   7.397  31.490   5.550
 9820POPC   PO468628   7.419  31.437   5.850
 9820POPC   GL168629   7.398  31.464   6.150
 9820POPC   GL268630   7.528  31.438   6.150
 9820POPC   C1A68631   7.428  31.465   6.450
 9820POPC   D2A68632   7.387  31.472   6.750
 9820POPC   C3A68633   7.452  31.465   7.050
 9820POPC   C4A68634   7.371  31.432   7.350
 9820POPC   C1B68635   7.616  31.292   6.450
 9820POPC   C2B68636   7.652  31.273   6.750
 9820POPC   C3B68637   7.587  31.330   7.050
 9820POPC   C4B68638   7.608  31.296   7.350
 9821POPC   NC368639  29.192   5.909   5.550
 9821POPC   PO468640  29.101   5.919   5.850
 9821POPC   GL168641  29.160   5.886   6.150
 9821POPC   GL268642  29.239   5.741   6.150
 9821POPC   C1A68643  29.123   5.867   6.450
 9821POPC   D2A68644  29.180   5.904   6.750
 9821POPC   C3A68645  29.111   5.828   7.050
 9821POPC   C4A68646  29.174   5.839   7.350
 9821POPC   C1B68647  29.286   5.706   6.450
 9821POPC   C2B68648  29.310   5.737   6.750
 9821POPC   C3B68649  29.318   5.681   7.050
 9821POPC   C4B68650  29.295   5.700   7.350
 9822POPC   NC368651  33.819  35.370   5.550
 9822POPC   PO468652  33.777  35.378   5.850
 9822POPC   GL168653  33.789  35.367   6.150
 9822POPC   GL268654  33.906  35.435   6.150
 9822POPC   C1A68655  33.792  35.373   6.450
 9822POPC   D2A68656  33.796  35.350   6.750
 9822POPC   C3A68657  33.774  35.339   7.050
 9822POPC   C4A68658  33.829  35.322   7.350
 9822POPC   C1B68659  33.968  35.536   6.450
 9822POPC   C2B68660  34.012  35.518   6.750
 9822POPC   C3B68661  33.970  35.498   7.050
 9822POPC   C4B68662  34.000  35.509   7.350
 9823POPC   NC368663  17.465  29.922   5.550
 9823POPC   PO468664  17.534  29.910   5.850
 9823POPC   GL168665  17.488  29.956   6.150
 9823POPC   GL268666  17.423  29.983   6.150
 9823POPC   C1A68667  17.538  29.920   6.450
 9823POPC   D2A68668  17.529  29.968   6.750
 9823POPC   C3A68669  17.466  29.931   7.050
 9823POPC   C4A68670  17.500  29.947   7.350
 9823POPC   C1B68671  17.321  29.993   6.450
 9823POPC   C2B68672  17.251  30.075   6.750
 9823POPC   C3B68673  17.263  30.070   7.050
 9823POPC   C4B68674  17.252  30.019   7.350
 9824POPC   NC368675  32.284  31.470   5.550
 9824POPC   PO468676  32.223  31.478   5.850
 9824POPC   GL168677  32.283  31.514   6.150
 9824POPC   GL268678  32.166  31.559   6.150
 9824POPC   C1A68679  32.210  31.489   6.450
 9824POPC   D2A68680  32.271  31.474   6.750
 9824POPC   C3A68681  32.206  31.425   7.050
 9824POPC   C4A68682  32.272  31.461   7.350
 9824POPC   C1B68683  32.119  31.700   6.450
 9824POPC   C2B68684  32.126  31.674   6.750
 9824POPC   C3B68685  32.107  31.719   7.050
 9824POPC   C4B68686  32.083  31.695   7.350
 9825POPC   NC368687   1.245  11.263   5.550
 9825POPC   PO468688   1.173  11.282   5.850
 9825POPC   GL168689   1.220  11.344   6.150
 9825POPC   GL268690   1.143  11.253   6.150
 9825POPC   C1A68691   1.264  11.261   6.450
 9825POPC   D2A68692   1.214  11.259   6.750
 9825POPC   C3A68693   1.244  11.276   7.050
 9825POPC   C4A68694   1.196  11.306   7.350
 9825POPC   C1B68695   0.998  11.176   6.450
 9825POPC   C2B68696   1.040  11.136   6.750
 9825POPC   C3B68697   1.013  11.098   7.050
 9825POPC   C4B68698   1.027  11.108   7.350
 9826POPC   NC368699   2.025  42.343   5.550
 9826POPC   PO468700   1.946  42.309   5.850
 9826POPC   GL168701   1.972  42.365   6.150
 9826POPC   GL268702   2.018  42.482   6.150
 9826POPC   C1A68703   2.011  42.289   6.450
 9826POPC   D2A68704   1.952  42.285   6.750
 9826POPC   C3A68705   1.948  42.290   7.050
 9826POPC   C4A68706   2.022  42.293   7.350
 9826POPC   C1B68707   2.159  42.559   6.450
 9826POPC   C2B68708   2.091  42.514   6.750
 9826POPC   C3B68709   2.076  42.555   7.050
 9826POPC   C4B68710   2.099  42.510   7.350
 9827POPC   NC368711  19.067  22.123   5.550
 9827POPC   PO468712  19.095  22.151   5.850
 9827POPC   GL168713  19.038  22.174   6.150
 9827POPC   GL268714  19.143  22.213   6.150
 9827POPC   C1A68715  19.026  22.153   6.450
 9827POPC   D2A68716  19.084  22.151   6.750
 9827POPC   C3A68717  19.085  22.129   7.050
 9827POPC   C4A68718  19.013  22.129   7.350
 9827POPC   C1B68719  19.233  22.332   6.450
 9827POPC   C2B68720  19.235  22.310   6.750
 9827POPC   C3B68721  19.256  22.293   7.050
 9827POPC   C4B68722  19.216  22.321   7.350
 9828POPC   NC368723  37.673   0.409   5.550
 9828POPC   PO468724  37.669   0.442   5.850
 9828POPC   GL168725  37.642   0.437   6.150
 9828POPC   GL268726  37.814   0.515   6.150
 9828POPC   C1A68727  37.724   0.452   6.450
 9828POPC   D2A68728  37.708   0.443   6.750
 9828POPC   C3A68729  37.723   0.429   7.050
 9828POPC   C4A68730  37.724   0.403   7.350
 9828POPC   C1B68731  37.905   0.518   6.450
 9828POPC   C2B68732  37.965   0.524   6.750
 9828POPC   C3B68733  37.972   0.525   7.050
 9828POPC   C4B68734  37.887   0.458   7.350
 9829POPC   NC368735  17.515  31.477   5.550
 9829POPC   PO468736  17.533  31.451   5.850
 9829POPC   GL168737  17.544  31.506   6.150
 9829POPC   GL268738  17.430  31.428   6.150
 9829POPC   C1A68739  17.459  31.445   6.450
 9829POPC   D2A68740  17.488  31.456   6.750
 9829POPC   C3A68741  17.494  31.429   7.050
 9829POPC   C4A68742  17.487  31.520   7.350
 9829POPC   C1B68743  17.319  31.378   6.450
 9829POPC   C2B68744  17.283  31.370   6.750
 9829POPC   C3B68745  17.280  31.352   7.050
 9829POPC   C4B68746  17.274  31.338   7.350
 9830POPC   NC368747  38.438  14.438   5.550
 9830POPC   PO468748  38.479  14.382   5.850
 9830POPC   GL168749  38.433  14.452   6.150
 9830POPC   GL268750  38.403  14.442   6.150
 9830POPC   C1A68751  38.413  14.369   6.450
 9830POPC   D2A68752  38.482  14.367   6.750
 9830POPC   C3A68753  38.430  14.397   7.050
 9830POPC   C4A68754  38.476  14.403   7.350
 9830POPC   C1B68755  38.241  14.594   6.450
 9830POPC   C2B68756  38.241  14.581   6.750
 9830POPC   C3B68757  38.311  14.614   7.050
 9830POPC   C4B68758  38.315  14.551   7.350
 9831POPC   NC368759  29.110  12.862   5.550
 9831POPC   PO468760  29.152  12.896   5.850
 9831POPC   GL168761  29.107  12.825   6.150
 9831POPC   GL268762  29.281  12.832   6.150
 9831POPC   C1A68763  29.116  12.827   6.450
 9831POPC   D2A68764  29.170  12.900   6.750
 9831POPC   C3A68765  29.175  12.896   7.050
 9831POPC   C4A68766  29.140  12.885   7.350
 9831POPC   C1B68767  29.392  12.936   6.450
 9831POPC   C2B68768  29.394  12.918   6.750
 9831POPC   C3B68769  29.349  12.879   7.050
 9831POPC   C4B68770  29.372  12.849   7.350
 9832POPC   NC368771   8.935   8.202   5.550
 9832POPC   PO468772   8.962   8.242   5.850
 9832POPC   GL168773   8.995   8.227   6.150
 9832POPC   GL268774   9.084   8.132   6.150
 9832POPC   C1A68775   8.996   8.234   6.450
 9832POPC   D2A68776   8.948   8.191   6.750
 9832POPC   C3A68777   9.006   8.154   7.050
 9832POPC   C4A68778   9.006   8.225   7.350
 9832POPC   C1B68779   9.222   8.064   6.450
 9832POPC   C2B68780   9.154   8.040   6.750
 9832POPC   C3B68781   9.143   8.088   7.050
 9832POPC   C4B68782   9.162   8.034   7.350
 9833POPC   NC368783   0.446  14.384   5.550
 9833POPC   PO468784   0.466  14.383   5.850
 9833POPC   GL168785   0.470  14.384   6.150
 9833POPC   GL268786   0.375  14.559   6.150
 9833POPC   C1A68787   0.470  14.371   6.450
 9833POPC   D2A68788   0.483  14.375   6.750
 9833POPC   C3A68789   0.410  14.422   7.050
 9833POPC   C4A68790   0.481  14.406   7.350
 9833POPC   C1B68791   0.318  14.630   6.450
 9833POPC   C2B68792   0.366  14.650   6.750
 9833POPC   C3B68793   0.356  14.627   7.050
 9833POPC   C4B68794   0.323  14.657   7.350
 9834POPC   NC368795  18.304  29.098   5.550
 9834POPC   PO468796  18.255  29.113   5.850
 9834POPC   GL168797  18.279  29.124   6.150
 9834POPC   GL268798  18.240  29.193   6.150
 9834POPC   C1A68799  18.289  29.148   6.450
 9834POPC   D2A68800  18.300  29.135   6.750
 9834POPC   C3A68801  18.330  29.123   7.050
 9834POPC   C4A68802  18.287  29.100   7.350
 9834POPC   C1B68803  18.096  29.354   6.450
 9834POPC   C2B68804  18.074  29.289   6.750
 9834POPC   C3B68805  18.106  29.288   7.050
 9834POPC   C4B68806  18.135  29.288   7.350
 9835POPC   NC368807  41.598  22.977   5.550
 9835POPC   PO468808  41.604  22.980   5.850
 9835POPC   GL168809  41.591  22.908   6.150
 9835POPC   GL268810  41.435  22.837   6.150
 9835POPC   C1A68811  41.597  22.960   6.450
 9835POPC   D2A68812  41.509  22.890   6.750
 9835POPC   C3A68813  41.596  22.955   7.050
 9835POPC   C4A68814  41.526  22.972   7.350
 9835POPC   C1B68815  41.302  22.814   6.450
 9835POPC   C2B68816  41.368  22.826   6.750
 9835POPC   C3B68817  41.381  22.863   7.050
 9835POPC   C4B68818  41.369  22.817   7.350
 9836POPC   NC368819  11.326  26.000   5.550
 9836POPC   PO468820  11.347  26.061   5.850
 9836POPC   GL168821  11.270  26.009   6.150
 9836POPC   GL268822  11.230  26.065   6.150
 9836POPC   C1A68823  11.255  26.003   6.450
 9836POPC   D2A68824  11.340  26.031   6.750
 9836POPC   C3A68825  11.276  26.051   7.050
 9836POPC   C4A68826  11.276  26.031   7.350
 9836POPC   C1B68827  11.094  26.147   6.450
 9836POPC   C2B68828  11.093  26.097   6.750
 9836POPC   C3B68829  11.073  26.158   7.050
 9836POPC   C4B68830  11.056  26.169   7.350
 9837POPC   NC368831  13.660  36.168   5.550
 9837POPC   PO468832  13.653  36.081   5.850
 9837POPC   GL168833  13.669  36.162   6.150
 9837POPC   GL268834  13.569  35.974   6.150
 9837POPC   C1A68835  13.662  36.097   6.450
 9837POPC   D2A68836  13.667  36.083   6.750
 9837POPC   C3A68837  13.619  36.117   7.050
 9837POPC   C4A68838  13.677  36.102   7.350
 9837POPC   C1B68839  13.571  35.922   6.450
 9837POPC   C2B68840  13.543  35.846   6.750
 9837POPC   C3B68841  13.577  35.853   7.050
 9837POPC   C4B68842  13.550  35.846   7.350
 9838POPC   NC368843  15.158  41.598   5.550
 9838POPC   PO468844  15.191  41.515   5.850
 9838POPC   GL168845  15.186  41.542   6.150
 9838POPC   GL268846  15.107  41.646   6.150
 9838POPC   C1A68847  15.133  41.569   6.450
 9838POPC   D2A68848  15.132  41.520   6.750
 9838POPC   C3A68849  15.200  41.547   7.050
 9838POPC   C4A68850  15.223  41.558   7.350
 9838POPC   C1B68851  15.040  41.787   6.450
 9838POPC   C2B68852  14.979  41.806   6.750
 9838POPC   C3B68853  14.994  41.730   7.050
 9838POPC   C4B68854  15.018  41.734   7.350
 9839POPC   NC368855  14.378   5.844   5.550
 9839POPC   PO468856  14.371   5.840   5.850
 9839POPC   GL168857  14.439   5.903   6.150
 9839POPC   GL268858  14.284   5.949   6.150
 9839POPC   C1A68859  14.409   5.894   6.450
 9839POPC   D2A68860  14.451   5.859   6.750
 9839POPC   C3A68861  14.432   5.833   7.050
 9839POPC   C4A68862  14.449   5.913   7.350
 9839POPC   C1B68863  14.217   5.917   6.450
 9839POPC   C2B68864  14.204   6.010   6.750
 9839POPC   C3B68865  14.191   5.971   7.050
 9839POPC   C4B68866  14.164   5.957   7.350
 9840POPC   NC368867   1.251  21.408   5.550
 9840POPC   PO468868   1.172  21.382   5.850
 9840POPC   GL168869   1.182  21.388   6.150
 9840POPC   GL268870   1.114  21.298   6.150
 9840POPC   C1A68871   1.228  21.414   6.450
 9840POPC   D2A68872   1.245  21.400   6.750
 9840POPC   C3A68873   1.192  21.345   7.050
 9840POPC   C4A68874   1.173  21.397   7.350
 9840POPC   C1B68875   0.985  21.249   6.450
 9840POPC   C2B68876   0.990  21.291   6.750
 9840POPC   C3B68877   1.016  21.304   7.050
 9840POPC   C4B68878   1.020  21.313   7.350
 9841POPC   NC368879  44.651  18.294   5.550
 9841POPC   PO468880  44.622  18.312   5.850
 9841POPC   GL168881  44.633  18.277   6.150
 9841POPC   GL268882  44.614  18.129   6.150
 9841POPC   C1A68883  44.691  18.317   6.450
 9841POPC   D2A68884  44.703  18.305   6.750
 9841POPC   C3A68885  44.631  18.247   7.050
 9841POPC   C4A68886  44.668  18.242   7.350
 9841POPC   C1B68887  44.571  18.071   6.450
 9841POPC   C2B68888  44.588  18.085   6.750
 9841POPC   C3B68889  44.626  18.066   7.050
 9841POPC   C4B68890  44.612  18.010   7.350
 9842POPC   NC368891   6.639  27.628   5.550
 9842POPC   PO468892   6.659  27.635   5.850
 9842POPC   GL168893   6.628  27.634   6.150
 9842POPC   GL268894   6.779  27.599   6.150
 9842POPC   C1A68895   6.658  27.632   6.450
 9842POPC   D2A68896   6.651  27.579   6.750
 9842POPC   C3A68897   6.608  27.567   7.050
 9842POPC   C4A68898   6.640  27.631   7.350
 9842POPC   C1B68899   6.922  27.528   6.450
 9842POPC   C2B68900   6.912  27.518   6.750
 9842POPC   C3B68901   6.844  27.554   7.050
 9842POPC   C4B68902   6.898  27.567   7.350
 9843POPC   NC368903  40.759  41.577   5.550
 9843POPC   PO468904  40.824  41.521   5.850
 9843POPC   GL168905  40.807  41.539   6.150
 9843POPC   GL268906  40.896  41.554   6.150
 9843POPC   C1A68907  40.769  41.546   6.450
 9843POPC   D2A68908  40.783  41.528   6.750
 9843POPC   C3A68909  40.738  41.531   7.050
 9843POPC   C4A68910  40.825  41.604   7.350
 9843POPC   C1B68911  41.005  41.617   6.450
 9843POPC   C2B68912  41.064  41.645   6.750
 9843POPC   C3B68913  41.024  41.627   7.050
 9843POPC   C4B68914  40.992  41.668   7.350
 9844POPC   NC368915  26.031  19.859   5.550
 9844POPC   PO468916  26.067  19.797   5.850
 9844POPC   GL168917  26.008  19.796   6.150
 9844POPC   GL268918  26.053  19.717   6.150
 9844POPC   C1A68919  26.085  19.861   6.450
 9844POPC   D2A68920  26.023  19.810   6.750
 9844POPC   C3A68921  26.079  19.803   7.050
 9844POPC   C4A68922  26.039  19.858   7.350
 9844POPC   C1B68923  26.116  19.638   6.450
 9844POPC   C2B68924  26.170  19.612   6.750
 9844POPC   C3B68925  26.142  19.597   7.050
 9844POPC   C4B68926  26.188  19.594   7.350
 9845POPC   NC368927  41.596   0.488   5.550
 9845POPC   PO468928  41.594   0.432   5.850
 9845POPC   GL168929  41.569   0.444   6.150
 9845POPC   GL268930  41.490   0.386   6.150
 9845POPC   C1A68931  41.526   0.461   6.450
 9845POPC   D2A68932  41.543   0.397   6.750
 9845POPC   C3A68933  41.529   0.478   7.050
 9845POPC   C4A68934  41.525   0.411   7.350
 9845POPC   C1B68935  41.336   0.306   6.450
 9845POPC   C2B68936  41.358   0.288   6.750
 9845POPC   C3B68937  41.375   0.317   7.050
 9845POPC   C4B68938  41.359   0.308   7.350
 9846POPC   NC368939  24.511  35.317   5.550
 9846POPC   PO468940  24.461  35.402   5.850
 9846POPC   GL168941  24.517  35.341   6.150
 9846POPC   GL268942  24.474  35.242   6.150
 9846POPC   C1A68943  24.450  35.322   6.450
 9846POPC   D2A68944  24.522  35.322   6.750
 9846POPC   C3A68945  24.485  35.372   7.050
 9846POPC   C4A68946  24.462  35.351   7.350
 9846POPC   C1B68947  24.433  35.057   6.450
 9846POPC   C2B68948  24.470  35.152   6.750
 9846POPC   C3B68949  24.497  35.097   7.050
 9846POPC   C4B68950  24.490  35.070   7.350
 9847POPC   NC368951  34.559  36.127   5.550
 9847POPC   PO468952  34.607  36.164   5.850
 9847POPC   GL168953  34.535  36.167   6.150
 9847POPC   GL268954  34.439  36.025   6.150
 9847POPC   C1A68955  34.583  36.167   6.450
 9847POPC   D2A68956  34.554  36.169   6.750
 9847POPC   C3A68957  34.605  36.145   7.050
 9847POPC   C4A68958  34.573  36.093   7.350
 9847POPC   C1B68959  34.339  36.033   6.450
 9847POPC   C2B68960  34.380  35.956   6.750
 9847POPC   C3B68961  34.316  36.006   7.050
 9847POPC   C4B68962  34.329  35.999   7.350
 9848POPC   NC368963  30.676  24.539   5.550
 9848POPC   PO468964  30.719  24.484   5.850
 9848POPC   GL168965  30.735  24.498   6.150
 9848POPC   GL268966  30.671  24.644   6.150
 9848POPC   C1A68967  30.733  24.489   6.450
 9848POPC   D2A68968  30.674  24.517   6.750
 9848POPC   C3A68969  30.702  24.501   7.050
 9848POPC   C4A68970  30.726  24.481   7.350
 9848POPC   C1B68971  30.532  24.691   6.450
 9848POPC   C2B68972  30.555  24.711   6.750
 9848POPC   C3B68973  30.616  24.700   7.050
 9848POPC   C4B68974  30.586  24.732   7.350
 9849POPC   NC368975  21.372  42.340   5.550
 9849POPC   PO468976  21.358  42.292   5.850
 9849POPC   GL168977  21.352  42.344   6.150
 9849POPC   GL268978  21.396  42.259   6.150
 9849POPC   C1A68979  21.382  42.329   6.450
 9849POPC   D2A68980  21.380  42.287   6.750
 9849POPC   C3A68981  21.417  42.285   7.050
 9849POPC   C4A68982  21.341  42.369   7.350
 9849POPC   C1B68983  21.420  42.138   6.450
 9849POPC   C2B68984  21.500  42.076   6.750
 9849POPC   C3B68985  21.487  42.116   7.050
 9849POPC   C4B68986  21.436  42.085   7.350
 9850POPC   NC368987  20.609  23.702   5.550
 9850POPC   PO468988  20.655  23.757   5.850
 9850POPC   GL168989  20.584  23.752   6.150
 9850POPC   GL268990  20.503  23.783   6.150
 9850POPC   C1A68991  20.635  23.756   6.450
 9850POPC   D2A68992  20.622  23.680   6.750
 9850POPC   C3A68993  20.626  23.716   7.050
 9850POPC   C4A68994  20.561  23.738   7.350
 9850POPC   C1B68995  20.359  23.874   6.450
 9850POPC   C2B68996  20.402  23.808   6.750
 9850POPC   C3B68997  20.418  23.889   7.050
 9850POPC   C4B68998  20.434  23.841   7.350
 9851POPC   NC368999  42.368  43.859   5.550
 9851POPC   PO469000  42.354  43.838   5.850
 9851POPC   GL169001  42.337  43.877   6.150
 9851POPC   GL269002  42.206  43.824   6.150
 9851POPC   C1A69003  42.344  43.909   6.450
 9851POPC   D2A69004  42.349  43.874   6.750
 9851POPC   C3A69005  42.291  43.911   7.050
 9851POPC   C4A69006  42.333  43.893   7.350
 9851POPC   C1B69007  42.171  43.690   6.450
 9851POPC   C2B69008  42.191  43.746   6.750
 9851POPC   C3B69009  42.157  43.673   7.050
 9851POPC   C4B69010  42.123  43.699   7.350
 9852POPC   NC369011  22.177  26.065   5.550
 9852POPC   PO469012  22.127  26.014   5.850
 9852POPC   GL169013  22.139  26.035   6.150
 9852POPC   GL269014  22.136  26.159   6.150
 9852POPC   C1A69015  22.123  26.087   6.450
 9852POPC   D2A69016  22.130  26.042   6.750
 9852POPC   C3A69017  22.173  26.025   7.050
 9852POPC   C4A69018  22.131  26.082   7.350
 9852POPC   C1B69019  22.058  26.269   6.450
 9852POPC   C2B69020  22.064  26.309   6.750
 9852POPC   C3B69021  22.057  26.251   7.050
 9852POPC   C4B69022  22.142  26.280   7.350
 9853POPC   NC369023   8.933   3.521   5.550
 9853POPC   PO469024   8.963   3.507   5.850
 9853POPC   GL169025   8.932   3.503   6.150
 9853POPC   GL269026   9.031   3.623   6.150
 9853POPC   C1A69027   8.956   3.552   6.450
 9853POPC   D2A69028   8.983   3.499   6.750
 9853POPC   C3A69029   9.007   3.532   7.050
 9853POPC   C4A69030   8.992   3.547   7.350
 9853POPC   C1B69031   9.059   3.766   6.450
 9853POPC   C2B69032   9.128   3.766   6.750
 9853POPC   C3B69033   9.083   3.729   7.050
 9853POPC   C4B69034   9.129   3.762   7.350
 9854POPC   NC369035  22.955   4.351   5.550
 9854POPC   PO469036  22.943   4.318   5.850
 9854POPC   GL169037  22.944   4.361   6.150
 9854POPC   GL269038  23.017   4.381   6.150
 9854POPC   C1A69039  22.976   4.361   6.450
 9854POPC   D2A69040  22.922   4.359   6.750
 9854POPC   C3A69041  22.918   4.352   7.050
 9854POPC   C4A69042  22.896   4.308   7.350
 9854POPC   C1B69043  23.119   4.551   6.450
 9854POPC   C2B69044  23.061   4.469   6.750
 9854POPC   C3B69045  23.056   4.551   7.050
 9854POPC   C4B69046  23.105   4.528   7.350
 9855POPC   NC369047  43.061  10.540   5.550
 9855POPC   PO469048  43.119  10.568   5.850
 9855POPC   GL169049  43.136  10.483   6.150
 9855POPC   GL269050  43.174  10.361   6.150
 9855POPC   C1A69051  43.102  10.533   6.450
 9855POPC   D2A69052  43.121  10.541   6.750
 9855POPC   C3A69053  43.123  10.478   7.050
 9855POPC   C4A69054  43.113  10.497   7.350
 9855POPC   C1B69055  43.166  10.252   6.450
 9855POPC   C2B69056  43.127  10.274   6.750
 9855POPC   C3B69057  43.190  10.279   7.050
 9855POPC   C4B69058  43.122  10.276   7.350
 9856POPC   NC369059  38.445  26.006   5.550
 9856POPC   PO469060  38.457  26.056   5.850
 9856POPC   GL169061  38.466  26.000   6.150
 9856POPC   GL269062  38.405  25.971   6.150
 9856POPC   C1A69063  38.456  26.026   6.450
 9856POPC   D2A69064  38.482  26.048   6.750
 9856POPC   C3A69065  38.477  26.026   7.050
 9856POPC   C4A69066  38.503  26.012   7.350
 9856POPC   C1B69067  38.302  25.773   6.450
 9856POPC   C2B69068  38.335  25.798   6.750
 9856POPC   C3B69069  38.305  25.792   7.050
 9856POPC   C4B69070  38.352  25.843   7.350
 9857POPC   NC369071  29.125   3.579   5.550
 9857POPC   PO469072  29.170   3.541   5.850
 9857POPC   GL169073  29.097   3.574   6.150
 9857POPC   GL269074  29.153   3.446   6.150
 9857POPC   C1A69075  29.193   3.516   6.450
 9857POPC   D2A69076  29.180   3.528   6.750
 9857POPC   C3A69077  29.158   3.555   7.050
 9857POPC   C4A69078  29.099   3.501   7.350
 9857POPC   C1B69079  29.187   3.264   6.450
 9857POPC   C2B69080  29.189   3.323   6.750
 9857POPC   C3B69081  29.132   3.247   7.050
 9857POPC   C4B69082  29.131   3.258   7.350
 9858POPC   NC369083   7.459  17.486   5.550
 9858POPC   PO469084   7.388  17.538   5.850
 9858POPC   GL169085   7.421  17.470   6.150
 9858POPC   GL269086   7.372  17.613   6.150
 9858POPC   C1A69087   7.421  17.484   6.450
 9858POPC   D2A69088   7.443  17.547   6.750
 9858POPC   C3A69089   7.435  17.527   7.050
 9858POPC   C4A69090   7.398  17.463   7.350
 9858POPC   C1B69091   7.285  17.633   6.450
 9858POPC   C2B69092   7.273  17.687   6.750
 9858POPC   C3B69093   7.284  17.716   7.050
 9858POPC   C4B69094   7.247  17.639   7.350
 9859POPC   NC369095  34.552   2.773   5.550
 9859POPC   PO469096  34.591   2.756   5.850
 9859POPC   GL169097  34.613   2.738   6.150
 9859POPC   GL269098  34.653   2.801   6.150
 9859POPC   C1A69099  34.534   2.798   6.450
 9859POPC   D2A69100  34.585   2.765   6.750
 9859POPC   C3A69101  34.532   2.781   7.050
 9859POPC   C4A69102  34.534   2.740   7.350
 9859POPC   C1B69103  34.776   2.849   6.450
 9859POPC   C2B69104  34.861   2.807   6.750
 9859POPC   C3B69105  34.806   2.850   7.050
 9859POPC   C4B69106  34.859   2.841   7.350
 9860POPC   NC369107  16.002   2.777   5.550
 9860POPC   PO469108  15.999   2.724   5.850
 9860POPC   GL169109  15.959   2.814   6.150
 9860POPC   GL269110  15.851   2.687   6.150
 9860POPC   C1A69111  15.947   2.813   6.450
 9860POPC   D2A69112  15.968   2.742   6.750
 9860POPC   C3A69113  15.987   2.728   7.050
 9860POPC   C4A69114  15.939   2.755   7.350
 9860POPC   C1B69115  15.846   2.570   6.450
 9860POPC   C2B69116  15.846   2.579   6.750
 9860POPC   C3B69117  15.845   2.572   7.050
 9860POPC   C4B69118  15.844   2.552   7.350
 9861POPC   NC369119  23.743   0.443   5.550
 9861POPC   PO469120  23.671   0.425   5.850
 9861POPC   GL169121  23.737   0.419   6.150
 9861POPC   GL269122  23.752   0.611   6.150
 9861POPC   C1A69123  23.677   0.442   6.450
 9861POPC   D2A69124  23.752   0.455   6.750
 9861POPC   C3A69125  23.736   0.399   7.050
 9861POPC   C4A69126  23.731   0.390   7.350
 9861POPC   C1B69127  23.711   0.703   6.450
 9861POPC   C2B69128  23.713   0.653   6.750
 9861POPC   C3B69129  23.682   0.654   7.050
 9861POPC   C4B69130  23.778   0.679   7.350
 9862POPC   NC369131  37.634  30.721   5.550
 9862POPC   PO469132  37.659  30.674   5.850
 9862POPC   GL169133  37.649  30.733   6.150
 9862POPC   GL269134  37.653  30.602   6.150
 9862POPC   C1A69135  37.654  30.733   6.450
 9862POPC   D2A69136  37.672  30.671   6.750
 9862POPC   C3A69137  37.661  30.658   7.050
 9862POPC   C4A69138  37.712  30.698   7.350
 9862POPC   C1B69139  37.652  30.407   6.450
 9862POPC   C2B69140  37.659  30.426   6.750
 9862POPC   C3B69141  37.580  30.471   7.050
 9862POPC   C4B69142  37.643  30.429   7.350
 9863POPC   NC369143  21.370  22.210   5.550
 9863POPC   PO469144  21.357  22.166   5.850
 9863POPC   GL169145  21.435  22.207   6.150
 9863POPC   GL269146  21.505  22.124   6.150
 9863POPC   C1A69147  21.382  22.210   6.450
 9863POPC   D2A69148  21.388  22.197   6.750
 9863POPC   C3A69149  21.433  22.157   7.050
 9863POPC   C4A69150  21.345  22.130   7.350
 9863POPC   C1B69151  21.627  22.092   6.450
 9863POPC   C2B69152  21.644  22.176   6.750
 9863POPC   C3B69153  21.664  22.183   7.050
 9863POPC   C4B69154  21.635  22.183   7.350
 9864POPC   NC369155   5.899  24.536   5.550
 9864POPC   PO469156   5.901  24.492   5.850
 9864POPC   GL169157   5.916  24.457   6.150
 9864POPC   GL269158   5.910  24.633   6.150
 9864POPC   C1A69159   5.909  24.452   6.450
 9864POPC   D2A69160   5.896  24.474   6.750
 9864POPC   C3A69161   5.873  24.451   7.050
 9864POPC   C4A69162   5.877  24.507   7.350
 9864POPC   C1B69163   5.881  24.732   6.450
 9864POPC   C2B69164   5.822  24.774   6.750
 9864POPC   C3B69165   5.812  24.763   7.050
 9864POPC   C4B69166   5.902  24.769   7.350
 9865POPC   NC369167  23.720  29.883   5.550
 9865POPC   PO469168  23.762  29.930   5.850
 9865POPC   GL169169  23.715  29.925   6.150
 9865POPC   GL269170  23.793  30.000   6.150
 9865POPC   C1A69171  23.677  29.878   6.450
 9865POPC   D2A69172  23.695  29.879   6.750
 9865POPC   C3A69173  23.720  29.922   7.050
 9865POPC   C4A69174  23.712  29.929   7.350
 9865POPC   C1B69175  23.844  30.135   6.450
 9865POPC   C2B69176  23.865  30.134   6.750
 9865POPC   C3B69177  23.854  30.111   7.050
 9865POPC   C4B69178  23.858  30.155   7.350
 9866POPC   NC369179  28.385  37.724   5.550
 9866POPC   PO469180  28.402  37.674   5.850
 9866POPC   GL169181  28.400  37.681   6.150
 9866POPC   GL269182  28.315  37.560   6.150
 9866POPC   C1A69183  28.382  37.644   6.450
 9866POPC   D2A69184  28.379  37.713   6.750
 9866POPC   C3A69185  28.353  37.695   7.050
 9866POPC   C4A69186  28.403  37.659   7.350
 9866POPC   C1B69187  28.165  37.515   6.450
 9866POPC   C2B69188  28.203  37.528   6.750
 9866POPC   C3B69189  28.142  37.520   7.050
 9866POPC   C4B69190  28.211  37.530   7.350
 9867POPC   NC369191  14.434  26.017   5.550
 9867POPC   PO469192  14.451  26.047   5.850
 9867POPC   GL169193  14.430  26.050   6.150
 9867POPC   GL269194  14.421  25.945   6.150
 9867POPC   C1A69195  14.402  25.999   6.450
 9867POPC   D2A69196  14.425  25.998   6.750
 9867POPC   C3A69197  14.427  26.014   7.050
 9867POPC   C4A69198  14.423  26.000   7.350
 9867POPC   C1B69199  14.458  25.759   6.450
 9867POPC   C2B69200  14.397  25.774   6.750
 9867POPC   C3B69201  14.389  25.801   7.050
 9867POPC   C4B69202  14.394  25.843   7.350
 9868POPC   NC369203  33.843  15.140   5.550
 9868POPC   PO469204  33.805  15.215   5.850
 9868POPC   GL169205  33.840  15.197   6.150
 9868POPC   GL269206  33.790  15.051   6.150
 9868POPC   C1A69207  33.826  15.209   6.450
 9868POPC   D2A69208  33.826  15.132   6.750
 9868POPC   C3A69209  33.832  15.190   7.050
 9868POPC   C4A69210  33.836  15.217   7.350
 9868POPC   C1B69211  33.716  14.915   6.450
 9868POPC   C2B69212  33.787  14.931   6.750
 9868POPC   C3B69213  33.699  14.907   7.050
 9868POPC   C4B69214  33.771  14.960   7.350
 9869POPC   NC369215  26.810  15.991   5.550
 9869POPC   PO469216  26.811  15.906   5.850
 9869POPC   GL169217  26.782  15.958   6.150
 9869POPC   GL269218  26.949  16.066   6.150
 9869POPC   C1A69219  26.790  15.907   6.450
 9869POPC   D2A69220  26.803  15.999   6.750
 9869POPC   C3A69221  26.830  15.948   7.050
 9869POPC   C4A69222  26.819  15.954   7.350
 9869POPC   C1B69223  27.010  16.133   6.450
 9869POPC   C2B69224  26.975  16.065   6.750
 9869POPC   C3B69225  26.977  16.076   7.050
 9869POPC   C4B69226  26.996  16.062   7.350
 9870POPC   NC369227  28.400   3.530   5.550
 9870POPC   PO469228  28.320   3.533   5.850
 9870POPC   GL169229  28.326   3.589   6.150
 9870POPC   GL269230  28.487   3.574   6.150
 9870POPC   C1A69231  28.363   3.552   6.450
 9870POPC   D2A69232  28.393   3.570   6.750
 9870POPC   C3A69233  28.344   3.502   7.050
 9870POPC   C4A69234  28.346   3.591   7.350
 9870POPC   C1B69235  28.535   3.667   6.450
 9870POPC   C2B69236  28.614   3.694   6.750
 9870POPC   C3B69237  28.586   3.739   7.050
 9870POPC   C4B69238  28.559   3.693   7.350
 9871POPC   NC369239  17.469   6.686   5.550
 9871POPC   PO469240  17.520   6.599   5.850
 9871POPC   GL169241  17.502   6.608   6.150
 9871POPC   GL269242  17.500   6.771   6.150
 9871POPC   C1A69243  17.529   6.601   6.450
 9871POPC   D2A69244  17.516   6.615   6.750
 9871POPC   C3A69245  17.548   6.688   7.050
 9871POPC   C4A69246  17.472   6.629   7.350
 9871POPC   C1B69247  17.401   6.893   6.450
 9871POPC   C2B69248  17.423   6.868   6.750
 9871POPC   C3B69249  17.445   6.853   7.050
 9871POPC   C4B69250  17.382   6.864   7.350
 9872POPC   NC369251  13.625  32.282   5.550
 9872POPC   PO469252  13.661  32.226   5.850
 9872POPC   GL169253  13.628  32.271   6.150
 9872POPC   GL269254  13.608  32.161   6.150
 9872POPC   C1A69255  13.614  32.208   6.450
 9872POPC   D2A69256  13.653  32.246   6.750
 9872POPC   C3A69257  13.617  32.232   7.050
 9872POPC   C4A69258  13.612  32.281   7.350
 9872POPC   C1B69259  13.573  32.042   6.450
 9872POPC   C2B69260  13.530  32.054   6.750
 9872POPC   C3B69261  13.536  31.965   7.050
 9872POPC   C4B69262  13.591  31.997   7.350
 9873POPC   NC369263  22.970  22.204   5.550
 9873POPC   PO469264  22.957  22.133   5.850
 9873POPC   GL169265  22.903  22.153   6.150
 9873POPC   GL269266  22.896  22.327   6.150
 9873POPC   C1A69267  22.933  22.191   6.450
 9873POPC   D2A69268  22.939  22.170   6.750
 9873POPC   C3A69269  22.925  22.193   7.050
 9873POPC   C4A69270  22.903  22.116   7.350
 9873POPC   C1B69271  22.939  22.395   6.450
 9873POPC   C2B69272  22.927  22.401   6.750
 9873POPC   C3B69273  22.930  22.394   7.050
 9873POPC   C4B69274  22.966  22.415   7.350
 9874POPC   NC369275   9.756  18.283   5.550
 9874POPC   PO469276   9.775  18.315   5.850
 9874POPC   GL169277   9.747  18.271   6.150
 9874POPC   GL269278   9.585  18.321   6.150
 9874POPC   C1A69279   9.793  18.287   6.450
 9874POPC   D2A69280   9.722  18.295   6.750
 9874POPC   C3A69281   9.732  18.248   7.050
 9874POPC   C4A69282   9.793  18.301   7.350
 9874POPC   C1B69283   9.502  18.383   6.450
 9874POPC   C2B69284   9.505  18.429   6.750
 9874POPC   C3B69285   9.490  18.409   7.050
 9874POPC   C4B69286   9.536  18.434   7.350
 9875POPC   NC369287  36.166  22.146   5.550
 9875POPC   PO469288  36.109  22.159   5.850
 9875POPC   GL169289  36.119  22.209   6.150
 9875POPC   GL269290  36.246  22.053   6.150
 9875POPC   C1A69291  36.143  22.124   6.450
 9875POPC   D2A69292  36.158  22.184   6.750
 9875POPC   C3A69293  36.172  22.211   7.050
 9875POPC   C4A69294  36.171  22.195   7.350
 9875POPC   C1B69295  36.361  22.014   6.450
 9875POPC   C2B69296  36.330  22.072   6.750
 9875POPC   C3B69297  36.308  21.992   7.050
 9875POPC   C4B69298  36.344  22.057   7.350
 9876POPC   NC369299  14.411  12.861   5.550
 9876POPC   PO469300  14.426  12.893   5.850
 9876POPC   GL169301  14.428  12.862   6.150
 9876POPC   GL269302  14.473  12.779   6.150
 9876POPC   C1A69303  14.401  12.876   6.450
 9876POPC   D2A69304  14.419  12.822   6.750
 9876POPC   C3A69305  14.449  12.810   7.050
 9876POPC   C4A69306  14.426  12.829   7.350
 9876POPC   C1B69307  14.635  12.640   6.450
 9876POPC   C2B69308  14.578  12.638   6.750
 9876POPC   C3B69309  14.633  12.662   7.050
 9876POPC   C4B69310  14.594  12.652   7.350
 9877POPC   NC369311  42.368  33.794   5.550
 9877POPC   PO469312  42.289  33.831   5.850
 9877POPC   GL169313  42.368  33.786   6.150
 9877POPC   GL269314  42.273  33.921   6.150
 9877POPC   C1A69315  42.320  33.767   6.450
 9877POPC   D2A69316  42.304  33.846   6.750
 9877POPC   C3A69317  42.314  33.790   7.050
 9877POPC   C4A69318  42.377  33.778   7.350
 9877POPC   C1B69319  42.181  34.024   6.450
 9877POPC   C2B69320  42.177  34.027   6.750
 9877POPC   C3B69321  42.145  33.988   7.050
 9877POPC   C4B69322  42.215  33.971   7.350
 9878POPC   NC369323   8.208   7.381   5.550
 9878POPC   PO469324   8.151   7.430   5.850
 9878POPC   GL169325   8.188   7.377   6.150
 9878POPC   GL269326   8.237   7.576   6.150
 9878POPC   C1A69327   8.170   7.444   6.450
 9878POPC   D2A69328   8.222   7.460   6.750
 9878POPC   C3A69329   8.237   7.460   7.050
 9878POPC   C4A69330   8.152   7.453   7.350
 9878POPC   C1B69331   8.342   7.656   6.450
 9878POPC   C2B69332   8.293   7.620   6.750
 9878POPC   C3B69333   8.318   7.684   7.050
 9878POPC   C4B69334   8.332   7.622   7.350
 9879POPC   NC369335  33.793   6.673   5.550
 9879POPC   PO469336  33.782   6.622   5.850
 9879POPC   GL169337  33.833   6.621   6.150
 9879POPC   GL269338  33.836   6.775   6.150
 9879POPC   C1A69339  33.781   6.628   6.450
 9879POPC   D2A69340  33.771   6.604   6.750
 9879POPC   C3A69341  33.770   6.641   7.050
 9879POPC   C4A69342  33.775   6.676   7.350
 9879POPC   C1B69343  33.869   6.867   6.450
 9879POPC   C2B69344  33.894   6.888   6.750
 9879POPC   C3B69345  33.956   6.882   7.050
 9879POPC   C4B69346  33.929   6.909   7.350
 9880POPC   NC369347  40.030   8.172   5.550
 9880POPC   PO469348  39.997   8.225   5.850
 9880POPC   GL169349  40.036   8.216   6.150
 9880POPC   GL269350  40.044   8.288   6.150
 9880POPC   C1A69351  39.986   8.166   6.450
 9880POPC   D2A69352  40.008   8.217   6.750
 9880POPC   C3A69353  39.966   8.189   7.050
 9880POPC   C4A69354  40.002   8.224   7.350
 9880POPC   C1B69355  39.994   8.404   6.450
 9880POPC   C2B69356  39.995   8.410   6.750
 9880POPC   C3B69357  39.999   8.402   7.050
 9880POPC   C4B69358  40.026   8.478   7.350
 9881POPC   NC369359  37.695  26.005   5.550
 9881POPC   PO469360  37.664  26.039   5.850
 9881POPC   GL169361  37.654  26.024   6.150
 9881POPC   GL269362  37.703  25.952   6.150
 9881POPC   C1A69363  37.723  26.021   6.450
 9881POPC   D2A69364  37.649  26.088   6.750
 9881POPC   C3A69365  37.725  26.031   7.050
 9881POPC   C4A69366  37.705  26.048   7.350
 9881POPC   C1B69367  37.647  25.802   6.450
 9881POPC   C2B69368  37.625  25.808   6.750
 9881POPC   C3B69369  37.603  25.787   7.050
 9881POPC   C4B69370  37.622  25.784   7.350
 9882POPC   NC369371  26.862  38.467   5.550
 9882POPC   PO469372  26.863  38.455   5.850
 9882POPC   GL169373  26.802  38.432   6.150
 9882POPC   GL269374  26.766  38.381   6.150
 9882POPC   C1A69375  26.769  38.413   6.450
 9882POPC   D2A69376  26.856  38.448   6.750
 9882POPC   C3A69377  26.842  38.467   7.050
 9882POPC   C4A69378  26.853  38.484   7.350
 9882POPC   C1B69379  26.698  38.240   6.450
 9882POPC   C2B69380  26.710  38.278   6.750
 9882POPC   C3B69381  26.729  38.288   7.050
 9882POPC   C4B69382  26.712  38.286   7.350
 9883POPC   NC369383  15.171   8.934   5.550
 9883POPC   PO469384  15.190   8.943   5.850
 9883POPC   GL169385  15.211   9.001   6.150
 9883POPC   GL269386  15.174   9.108   6.150
 9883POPC   C1A69387  15.209   8.951   6.450
 9883POPC   D2A69388  15.148   8.987   6.750
 9883POPC   C3A69389  15.168   8.988   7.050
 9883POPC   C4A69390  15.209   8.959   7.350
 9883POPC   C1B69391  15.142   9.260   6.450
 9883POPC   C2B69392  15.161   9.234   6.750
 9883POPC   C3B69393  15.109   9.210   7.050
 9883POPC   C4B69394  15.111   9.257   7.350
 9884POPC   NC369395   8.242   6.607   5.550
 9884POPC   PO469396   8.198   6.602   5.850
 9884POPC   GL169397   8.148   6.597   6.150
 9884POPC   GL269398   8.286   6.592   6.150
 9884POPC   C1A69399   8.195   6.664   6.450
 9884POPC   D2A69400   8.186   6.674   6.750
 9884POPC   C3A69401   8.196   6.691   7.050
 9884POPC   C4A69402   8.162   6.684   7.350
 9884POPC   C1B69403   8.404   6.570   6.450
 9884POPC   C2B69404   8.430   6.662   6.750
 9884POPC   C3B69405   8.480   6.594   7.050
 9884POPC   C4B69406   8.444   6.580   7.350
 9885POPC   NC369407  17.509  34.598   5.550
 9885POPC   PO469408  17.528  34.610   5.850
 9885POPC   GL169409  17.515  34.572   6.150
 9885POPC   GL269410  17.367  34.660   6.150
 9885POPC   C1A69411  17.474  34.606   6.450
 9885POPC   D2A69412  17.550  34.622   6.750
 9885POPC   C3A69413  17.534  34.626   7.050
 9885POPC   C4A69414  17.497  34.604   7.350
 9885POPC   C1B69415  17.259  34.691   6.450
 9885POPC   C2B69416  17.271  34.657   6.750
 9885POPC   C3B69417  17.266  34.701   7.050
 9885POPC   C4B69418  17.308  34.647   7.350
 9886POPC   NC369419  36.854  20.649   5.550
 9886POPC   PO469420  36.930  20.654   5.850
 9886POPC   GL169421  36.876  20.571   6.150
 9886POPC   GL269422  36.937  20.448   6.150
 9886POPC   C1A69423  36.900  20.614   6.450
 9886POPC   D2A69424  36.869  20.573   6.750
 9886POPC   C3A69425  36.900  20.619   7.050
 9886POPC   C4A69426  36.859  20.606   7.350
 9886POPC   C1B69427  36.966  20.338   6.450
 9886POPC   C2B69428  36.976  20.359   6.750
 9886POPC   C3B69429  37.038  20.395   7.050
 9886POPC   C4B69430  36.952  20.394   7.350
 9887POPC   NC369431  37.643  43.115   5.550
 9887POPC   PO469432  37.716  43.133   5.850
 9887POPC   GL169433  37.702  43.083   6.150
 9887POPC   GL269434  37.681  43.279   6.150
 9887POPC   C1A69435  37.638  43.061   6.450
 9887POPC   D2A69436  37.642  43.066   6.750
 9887POPC   C3A69437  37.680  43.087   7.050
 9887POPC   C4A69438  37.638  43.064   7.350
 9887POPC   C1B69439  37.634  43.315   6.450
 9887POPC   C2B69440  37.661  43.351   6.750
 9887POPC   C3B69441  37.691  43.388   7.050
 9887POPC   C4B69442  37.633  43.330   7.350
 9888POPC   NC369443  24.441  41.532   5.550
 9888POPC   PO469444  24.463  41.546   5.850
 9888POPC   GL169445  24.509  41.551   6.150
 9888POPC   GL269446  24.549  41.722   6.150
 9888POPC   C1A69447  24.536  41.516   6.450
 9888POPC   D2A69448  24.503  41.568   6.750
 9888POPC   C3A69449  24.498  41.600   7.050
 9888POPC   C4A69450  24.497  41.530   7.350
 9888POPC   C1B69451  24.579  41.832   6.450
 9888POPC   C2B69452  24.511  41.846   6.750
 9888POPC   C3B69453  24.512  41.781   7.050
 9888POPC   C4B69454  24.500  41.824   7.350
 9889POPC   NC369455   8.171  34.615   5.550
 9889POPC   PO469456   8.194  34.593   5.850
 9889POPC   GL169457   8.150  34.590   6.150
 9889POPC   GL269458   8.157  34.466   6.150
 9889POPC   C1A69459   8.189  34.591   6.450
 9889POPC   D2A69460   8.240  34.573   6.750
 9889POPC   C3A69461   8.243  34.582   7.050
 9889POPC   C4A69462   8.237  34.576   7.350
 9889POPC   C1B69463   8.070  34.406   6.450
 9889POPC   C2B69464   8.061  34.357   6.750
 9889POPC   C3B69465   8.072  34.347   7.050
 9889POPC   C4B69466   8.022  34.330   7.350
 9890POPC   NC369467  15.212  28.385   5.550
 9890POPC   PO469468  15.132  28.342   5.850
 9890POPC   GL169469  15.223  28.375   6.150
 9890POPC   GL269470  15.128  28.458   6.150
 9890POPC   C1A69471  15.182  28.322   6.450
 9890POPC   D2A69472  15.207  28.359   6.750
 9890POPC   C3A69473  15.211  28.396   7.050
 9890POPC   C4A69474  15.180  28.334   7.350
 9890POPC   C1B69475  15.067  28.602   6.450
 9890POPC   C2B69476  15.033  28.583   6.750
 9890POPC   C3B69477  15.068  28.550   7.050
 9890POPC   C4B69478  15.002  28.560   7.350
 9891POPC   NC369479  30.666  23.726   5.550
 9891POPC   PO469480  30.704  23.695   5.850
 9891POPC   GL169481  30.656  23.675   6.150
 9891POPC   GL269482  30.795  23.647   6.150
 9891POPC   C1A69483  30.673  23.691   6.450
 9891POPC   D2A69484  30.704  23.729   6.750
 9891POPC   C3A69485  30.710  23.706   7.050
 9891POPC   C4A69486  30.647  23.702   7.350
 9891POPC   C1B69487  30.897  23.519   6.450
 9891POPC   C2B69488  30.827  23.567   6.750
 9891POPC   C3B69489  30.841  23.542   7.050
 9891POPC   C4B69490  30.831  23.490   7.350
 9892POPC   NC369491  24.447  15.942   5.550
 9892POPC   PO469492  24.473  15.984   5.850
 9892POPC   GL169493  24.503  15.956   6.150
 9892POPC   GL269494  24.361  15.914   6.150
 9892POPC   C1A69495  24.529  15.988   6.450
 9892POPC   D2A69496  24.488  15.969   6.750
 9892POPC   C3A69497  24.496  15.917   7.050
 9892POPC   C4A69498  24.527  15.975   7.350
 9892POPC   C1B69499  24.243  15.846   6.450
 9892POPC   C2B69500  24.236  15.839   6.750
 9892POPC   C3B69501  24.232  15.844   7.050
 9892POPC   C4B69502  24.251  15.856   7.350
 9893POPC   NC369503  15.963  34.621   5.550
 9893POPC   PO469504  15.951  34.614   5.850
 9893POPC   GL169505  15.939  34.544   6.150
 9893POPC   GL269506  15.848  34.617   6.150
 9893POPC   C1A69507  15.960  34.580   6.450
 9893POPC   D2A69508  15.907  34.542   6.750
 9893POPC   C3A69509  15.978  34.574   7.050
 9893POPC   C4A69510  16.002  34.572   7.350
 9893POPC   C1B69511  15.739  34.678   6.450
 9893POPC   C2B69512  15.737  34.726   6.750
 9893POPC   C3B69513  15.737  34.700   7.050
 9893POPC   C4B69514  15.757  34.636   7.350
 9894POPC   NC369515   0.400  44.646   5.550
 9894POPC   PO469516   0.449  44.703   5.850
 9894POPC   GL169517   0.473  44.625   6.150
 9894POPC   GL269518   0.362  44.644   6.150
 9894POPC   C1A69519   0.417  44.652   6.450
 9894POPC   D2A69520   0.420  44.684   6.750
 9894POPC   C3A69521   0.389  44.656   7.050
 9894POPC   C4A69522   0.477  44.619   7.350
 9894POPC   C1B69523   0.248  44.554   6.450
 9894POPC   C2B69524   0.176  44.512   6.750
 9894POPC   C3B69525   0.226  44.565   7.050
 9894POPC   C4B69526   0.202  44.549   7.350
 9895POPC   NC369527   0.411  43.066   5.550
 9895POPC   PO469528   0.392  43.088   5.850
 9895POPC   GL169529   0.470  43.061   6.150
 9895POPC   GL269530   0.486  43.229   6.150
 9895POPC   C1A69531   0.461  43.137   6.450
 9895POPC   D2A69532   0.430  43.116   6.750
 9895POPC   C3A69533   0.434  43.103   7.050
 9895POPC   C4A69534   0.404  43.140   7.350
 9895POPC   C1B69535   0.529  43.346   6.450
 9895POPC   C2B69536   0.499  43.307   6.750
 9895POPC   C3B69537   0.476  43.379   7.050
 9895POPC   C4B69538   0.474  43.315   7.350
 9896POPC   NC369539  37.663  23.689   5.550
 9896POPC   PO469540  37.711  23.693   5.850
 9896POPC   GL169541  37.703  23.675   6.150
 9896POPC   GL269542  37.719  23.566   6.150
 9896POPC   C1A69543  37.659  23.719   6.450
 9896POPC   D2A69544  37.672  23.758   6.750
 9896POPC   C3A69545  37.655  23.692   7.050
 9896POPC   C4A69546  37.690  23.756   7.350
 9896POPC   C1B69547  37.782  23.483   6.450
 9896POPC   C2B69548  37.766  23.507   6.750
 9896POPC   C3B69549  37.780  23.479   7.050
 9896POPC   C4B69550  37.716  23.492   7.350
 9897POPC   NC369551  27.577  41.574   5.550
 9897POPC   PO469552  27.573  41.562   5.850
 9897POPC   GL169553  27.577  41.522   6.150
 9897POPC   GL269554  27.534  41.492   6.150
 9897POPC   C1A69555  27.626  41.609   6.450
 9897POPC   D2A69556  27.596  41.567   6.750
 9897POPC   C3A69557  27.606  41.594   7.050
 9897POPC   C4A69558  27.592  41.551   7.350
 9897POPC   C1B69559  27.414  41.312   6.450
 9897POPC   C2B69560  27.468  41.310   6.750
 9897POPC   C3B69561  27.420  41.370   7.050
 9897POPC   C4B69562  27.494  41.321   7.350
 9898POPC   NC369563  33.794   8.943   5.550
 9898POPC   PO469564  33.837   8.954   5.850
 9898POPC   GL169565  33.777   8.943   6.150
 9898POPC   GL269566  33.807   9.124   6.150
 9898POPC   C1A69567  33.817   9.012   6.450
 9898POPC   D2A69568  33.836   8.931   6.750
 9898POPC   C3A69569  33.782   9.007   7.050
 9898POPC   C4A69570  33.849   9.004   7.350
 9898POPC   C1B69571  33.804   9.269   6.450
 9898POPC   C2B69572  33.843   9.248   6.750
 9898POPC   C3B69573  33.876   9.187   7.050
 9898POPC   C4B69574  33.783   9.254   7.350
 9899POPC   NC369575  28.384  38.492   5.550
 9899POPC   PO469576  28.391  38.495   5.850
 9899POPC   GL169577  28.349  38.466   6.150
 9899POPC   GL269578  28.253  38.459   6.150
 9899POPC   C1A69579  28.361  38.452   6.450
 9899POPC   D2A69580  28.360  38.497   6.750
 9899POPC   C3A69581  28.395  38.459   7.050
 9899POPC   C4A69582  28.337  38.488   7.350
 9899POPC   C1B69583  28.164  38.459   6.450
 9899POPC   C2B69584  28.160  38.519   6.750
 9899POPC   C3B69585  28.167  38.515   7.050
 9899POPC   C4B69586  28.156  38.424   7.350
 9900POPC   NC369587  44.656  40.760   5.550
 9900POPC   PO469588  44.669  40.828   5.850
 9900POPC   GL169589  44.696  40.814   6.150
 9900POPC   GL269590  44.712  40.883   6.150
 9900POPC   C1A69591  44.625  40.788   6.450
 9900POPC   D2A69592  44.705  40.781   6.750
 9900POPC   C3A69593  44.631  40.826   7.050
 9900POPC   C4A69594  44.653  40.821   7.350
 9900POPC   C1B69595  44.762  41.020   6.450
 9900POPC   C2B69596  44.744  40.967   6.750
 9900POPC   C3B69597  44.721  41.052   7.050
 9900POPC   C4B69598  44.808  40.998   7.350
 9901POPC   NC369599  15.162   1.214   5.550
 9901POPC   PO469600  15.197   1.225   5.850
 9901POPC   GL169601  15.133   1.227   6.150
 9901POPC   GL269602  15.095   1.243   6.150
 9901POPC   C1A69603  15.131   1.173   6.450
 9901POPC   D2A69604  15.216   1.169   6.750
 9901POPC   C3A69605  15.220   1.253   7.050
 9901POPC   C4A69606  15.225   1.210   7.350
 9901POPC   C1B69607  14.954   1.197   6.450
 9901POPC   C2B69608  14.904   1.139   6.750
 9901POPC   C3B69609  14.976   1.214   7.050
 9901POPC   C4B69610  14.887   1.161   7.350
 9902POPC   NC369611  26.768  33.019   5.550
 9902POPC   PO469612  26.809  33.039   5.850
 9902POPC   GL169613  26.816  32.978   6.150
 9902POPC   GL269614  26.869  32.980   6.150
 9902POPC   C1A69615  26.841  33.019   6.450
 9902POPC   D2A69616  26.814  33.007   6.750
 9902POPC   C3A69617  26.843  33.054   7.050
 9902POPC   C4A69618  26.775  32.988   7.350
 9902POPC   C1B69619  26.993  32.912   6.450
 9902POPC   C2B69620  26.991  32.859   6.750
 9902POPC   C3B69621  26.971  32.844   7.050
 9902POPC   C4B69622  27.012  32.890   7.350
 9903POPC   NC369623  36.094  24.466   5.550
 9903POPC   PO469624  36.117  24.450   5.850
 9903POPC   GL169625  36.123  24.485   6.150
 9903POPC   GL269626  36.200  24.627   6.150
 9903POPC   C1A69627  36.092  24.454   6.450
 9903POPC   D2A69628  36.079  24.450   6.750
 9903POPC   C3A69629  36.104  24.512   7.050
 9903POPC   C4A69630  36.093  24.471   7.350
 9903POPC   C1B69631  36.216  24.688   6.450
 9903POPC   C2B69632  36.195  24.667   6.750
 9903POPC   C3B69633  36.201  24.748   7.050
 9903POPC   C4B69634  36.279  24.745   7.350
 9904POPC   NC369635  18.318  31.488   5.550
 9904POPC   PO469636  18.234  31.466   5.850
 9904POPC   GL169637  18.238  31.436   6.150
 9904POPC   GL269638  18.194  31.400   6.150
 9904POPC   C1A69639  18.308  31.466   6.450
 9904POPC   D2A69640  18.318  31.450   6.750
 9904POPC   C3A69641  18.274  31.456   7.050
 9904POPC   C4A69642  18.278  31.438   7.350
 9904POPC   C1B69643  18.038  31.323   6.450
 9904POPC   C2B69644  18.042  31.320   6.750
 9904POPC   C3B69645  18.045  31.300   7.050
 9904POPC   C4B69646  18.095  31.347   7.350
 9905POPC   NC369647  31.497  12.080   5.550
 9905POPC   PO469648  31.503  12.048   5.850
 9905POPC   GL169649  31.441  12.040   6.150
 9905POPC   GL269650  31.388  12.189   6.150
 9905POPC   C1A69651  31.480  12.083   6.450
 9905POPC   D2A69652  31.514  12.092   6.750
 9905POPC   C3A69653  31.480  12.035   7.050
 9905POPC   C4A69654  31.520  12.077   7.350
 9905POPC   C1B69655  31.302  12.282   6.450
 9905POPC   C2B69656  31.276  12.242   6.750
 9905POPC   C3B69657  31.298  12.301   7.050
 9905POPC   C4B69658  31.276  12.304   7.350
 9906POPC   NC369659  43.128   1.261   5.550
 9906POPC   PO469660  43.154   1.233   5.850
 9906POPC   GL169661  43.093   1.193   6.150
 9906POPC   GL269662  43.228   1.227   6.150
 9906POPC   C1A69663  43.146   1.215   6.450
 9906POPC   D2A69664  43.138   1.241   6.750
 9906POPC   C3A69665  43.072   1.221   7.050
 9906POPC   C4A69666  43.097   1.166   7.350
 9906POPC   C1B69667  43.319   1.133   6.450
 9906POPC   C2B69668  43.306   1.109   6.750
 9906POPC   C3B69669  43.371   1.173   7.050
 9906POPC   C4B69670  43.379   1.164   7.350
 9907POPC   NC369671  24.509  24.535   5.550
 9907POPC   PO469672  24.496  24.445   5.850
 9907POPC   GL169673  24.458  24.529   6.150
 9907POPC   GL269674  24.370  24.610   6.150
 9907POPC   C1A69675  24.476  24.506   6.450
 9907POPC   D2A69676  24.484  24.455   6.750
 9907POPC   C3A69677  24.499  24.537   7.050
 9907POPC   C4A69678  24.503  24.504   7.350
 9907POPC   C1B69679  24.343  24.626   6.450
 9907POPC   C2B69680  24.348  24.628   6.750
 9907POPC   C3B69681  24.328  24.716   7.050
 9907POPC   C4B69682  24.302  24.643   7.350
 9908POPC   NC369683  26.833  22.199   5.550
 9908POPC   PO469684  26.860  22.182   5.850
 9908POPC   GL169685  26.826  22.112   6.150
 9908POPC   GL269686  26.746  22.053   6.150
 9908POPC   C1A69687  26.829  22.116   6.450
 9908POPC   D2A69688  26.850  22.122   6.750
 9908POPC   C3A69689  26.858  22.161   7.050
 9908POPC   C4A69690  26.825  22.127   7.350
 9908POPC   C1B69691  26.631  21.940   6.450
 9908POPC   C2B69692  26.718  21.946   6.750
 9908POPC   C3B69693  26.646  21.933   7.050
 9908POPC   C4B69694  26.658  21.984   7.350
 9909POPC   NC369695   8.968  35.342   5.550
 9909POPC   PO469696   8.923  35.343   5.850
 9909POPC   GL169697   9.012  35.324   6.150
 9909POPC   GL269698   8.850  35.312   6.150
 9909POPC   C1A69699   8.965  35.341   6.450
 9909POPC   D2A69700   9.010  35.337   6.750
 9909POPC   C3A69701   9.002  35.331   7.050
 9909POPC   C4A69702   8.955  35.372   7.350
 9909POPC   C1B69703   8.707  35.333   6.450
 9909POPC   C2B69704   8.708  35.346   6.750
 9909POPC   C3B69705   8.750  35.353   7.050
 9909POPC   C4B69706   8.717  35.344   7.350
 9910POPC   NC369707  29.154  23.732   5.550
 9910POPC   PO469708  29.176  23.684   5.850
 9910POPC   GL169709  29.164  23.667   6.150
 9910POPC   GL269710  29.040  23.720   6.150
 9910POPC   C1A69711  29.142  23.726   6.450
 9910POPC   D2A69712  29.122  23.755   6.750
 9910POPC   C3A69713  29.113  23.697   7.050
 9910POPC   C4A69714  29.095  23.719   7.350
 9910POPC   C1B69715  28.889  23.826   6.450
 9910POPC   C2B69716  28.914  23.834   6.750
 9910POPC   C3B69717  28.929  23.781   7.050
 9910POPC   C4B69718  28.887  23.803   7.350
 9911POPC   NC369719  22.977  40.020   5.550
 9911POPC   PO469720  22.893  40.010   5.850
 9911POPC   GL169721  22.984  39.992   6.150
 9911POPC   GL269722  23.065  40.094   6.150
 9911POPC   C1A69723  22.932  39.957   6.450
 9911POPC   D2A69724  22.922  40.028   6.750
 9911POPC   C3A69725  22.957  39.987   7.050
 9911POPC   C4A69726  22.946  39.993   7.350
 9911POPC   C1B69727  23.175  40.098   6.450
 9911POPC   C2B69728  23.139  40.154   6.750
 9911POPC   C3B69729  23.159  40.136   7.050
 9911POPC   C4B69730  23.101  40.161   7.350
 9912POPC   NC369731  29.103  10.521   5.550
 9912POPC   PO469732  29.125  10.504   5.850
 9912POPC   GL169733  29.145  10.507   6.150
 9912POPC   GL269734  29.108  10.623   6.150
 9912POPC   C1A69735  29.144  10.534   6.450
 9912POPC   D2A69736  29.178  10.530   6.750
 9912POPC   C3A69737  29.107  10.500   7.050
 9912POPC   C4A69738  29.119  10.508   7.350
 9912POPC   C1B69739  29.049  10.799   6.450
 9912POPC   C2B69740  29.068  10.720   6.750
 9912POPC   C3B69741  29.032  10.724   7.050
 9912POPC   C4B69742  29.035  10.812   7.350
 9913POPC   NC369743  27.617  39.260   5.550
 9913POPC   PO469744  27.573  39.244   5.850
 9913POPC   GL169745  27.568  39.221   6.150
 9913POPC   GL269746  27.553  39.126   6.150
 9913POPC   C1A69747  27.618  39.223   6.450
 9913POPC   D2A69748  27.563  39.190   6.750
 9913POPC   C3A69749  27.601  39.184   7.050
 9913POPC   C4A69750  27.616  39.181   7.350
 9913POPC   C1B69751  27.514  39.006   6.450
 9913POPC   C2B69752  27.558  38.946   6.750
 9913POPC   C3B69753  27.587  39.032   7.050
 9913POPC   C4B69754  27.532  39.004   7.350
 9914POPC   NC369755  37.679  26.776   5.550
 9914POPC   PO469756  37.676  26.770   5.850
 9914POPC   GL169757  37.709  26.801   6.150
 9914POPC   GL269758  37.786  26.737   6.150
 9914POPC   C1A69759  37.657  26.822   6.450
 9914POPC   D2A69760  37.646  26.834   6.750
 9914POPC   C3A69761  37.701  26.801   7.050
 9914POPC   C4A69762  37.645  26.771   7.350
 9914POPC   C1B69763  37.893  26.731   6.450
 9914POPC   C2B69764  37.892  26.760   6.750
 9914POPC   C3B69765  37.920  26.690   7.050
 9914POPC   C4B69766  37.962  26.715   7.350
 9915POPC   NC369767  13.597  12.099   5.550
 9915POPC   PO469768  13.608  12.091   5.850
 9915POPC   GL169769  13.646  12.109   6.150
 9915POPC   GL269770  13.494  12.052   6.150
 9915POPC   C1A69771  13.656  12.117   6.450
 9915POPC   D2A69772  13.633  12.080   6.750
 9915POPC   C3A69773  13.592  12.037   7.050
 9915POPC   C4A69774  13.646  12.040   7.350
 9915POPC   C1B69775  13.394  11.981   6.450
 9915POPC   C2B69776  13.399  11.975   6.750
 9915POPC   C3B69777  13.422  12.010   7.050
 9915POPC   C4B69778  13.362  11.968   7.350
 9916POPC   NC369779  14.394   2.744   5.550
 9916POPC   PO469780  14.358   2.745   5.850
 9916POPC   GL169781  14.452   2.796   6.150
 9916POPC   GL269782  14.319   2.712   6.150
 9916POPC   C1A69783  14.427   2.724   6.450
 9916POPC   D2A69784  14.405   2.754   6.750
 9916POPC   C3A69785  14.439   2.742   7.050
 9916POPC   C4A69786  14.367   2.748   7.350
 9916POPC   C1B69787  14.190   2.635   6.450
 9916POPC   C2B69788  14.177   2.632   6.750
 9916POPC   C3B69789  14.175   2.656   7.050
 9916POPC   C4B69790  14.186   2.671   7.350
 9917POPC   NC369791  30.729  11.289   5.550
 9917POPC   PO469792  30.682  11.303   5.850
 9917POPC   GL169793  30.724  11.254   6.150
 9917POPC   GL269794  30.566  11.310   6.150
 9917POPC   C1A69795  30.673  11.256   6.450
 9917POPC   D2A69796  30.700  11.346   6.750
 9917POPC   C3A69797  30.698  11.267   7.050
 9917POPC   C4A69798  30.693  11.268   7.350
 9917POPC   C1B69799  30.431  11.405   6.450
 9917POPC   C2B69800  30.442  11.431   6.750
 9917POPC   C3B69801  30.482  11.419   7.050
 9917POPC   C4B69802  30.474  11.377   7.350
 9918POPC   NC369803  36.163  36.926   5.550
 9918POPC   PO469804  36.114  36.856   5.850
 9918POPC   GL169805  36.146  36.952   6.150
 9918POPC   GL269806  36.217  36.926   6.150
 9918POPC   C1A69807  36.133  36.875   6.450
 9918POPC   D2A69808  36.130  36.892   6.750
 9918POPC   C3A69809  36.100  36.893   7.050
 9918POPC   C4A69810  36.156  36.890   7.350
 9918POPC   C1B69811  36.369  37.007   6.450
 9918POPC   C2B69812  36.359  36.997   6.750
 9918POPC   C3B69813  36.368  37.002   7.050
 9918POPC   C4B69814  36.297  37.054   7.350
 9919POPC   NC369815   8.149  35.385   5.550
 9919POPC   PO469816   8.149  35.321   5.850
 9919POPC   GL169817   8.190  35.314   6.150
 9919POPC   GL269818   8.071  35.282   6.150
 9919POPC   C1A69819   8.186  35.394   6.450
 9919POPC   D2A69820   8.184  35.362   6.750
 9919POPC   C3A69821   8.236  35.342   7.050
 9919POPC   C4A69822   8.192  35.316   7.350
 9919POPC   C1B69823   7.967  35.269   6.450
 9919POPC   C2B69824   8.004  35.255   6.750
 9919POPC   C3B69825   7.929  35.292   7.050
 9919POPC   C4B69826   7.945  35.256   7.350
 9920POPC   NC369827  44.711  19.791   5.550
 9920POPC   PO469828  44.613  19.875   5.850
 9920POPC   GL169829  44.624  19.828   6.150
 9920POPC   GL269830  44.728  19.784   6.150
 9920POPC   C1A69831  44.657  19.792   6.450
 9920POPC   D2A69832  44.614  19.806   6.750
 9920POPC   C3A69833  44.670  19.814   7.050
 9920POPC   C4A69834  44.700  19.846   7.350
 9920POPC   C1B69835  44.844  19.640   6.450
 9920POPC   C2B69836  44.881  19.652   6.750
 9920POPC   C3B69837  44.897  19.718   7.050
 9920POPC   C4B69838  44.868  19.696   7.350
 9921POPC   NC369839  25.252  37.665   5.550
 9921POPC   PO469840  25.268  37.727   5.850
 9921POPC   GL169841  25.253  37.632   6.150
 9921POPC   GL269842  25.339  37.777   6.150
 9921POPC   C1A69843  25.254  37.665   6.450
 9921POPC   D2A69844  25.244  37.719   6.750
 9921POPC   C3A69845  25.312  37.708   7.050
 9921POPC   C4A69846  25.290  37.697   7.350
 9921POPC   C1B69847  25.382  37.913   6.450
 9921POPC   C2B69848  25.343  37.958   6.750
 9921POPC   C3B69849  25.352  37.926   7.050
 9921POPC   C4B69850  25.337  37.923   7.350
 9922POPC   NC369851  35.366   2.743   5.550
 9922POPC   PO469852  35.351   2.721   5.850
 9922POPC   GL169853  35.326   2.728   6.150
 9922POPC   GL269854  35.346   2.875   6.150
 9922POPC   C1A69855  35.307   2.781   6.450
 9922POPC   D2A69856  35.337   2.783   6.750
 9922POPC   C3A69857  35.341   2.725   7.050
 9922POPC   C4A69858  35.385   2.810   7.350
 9922POPC   C1B69859  35.278   3.013   6.450
 9922POPC   C2B69860  35.327   3.053   6.750
 9922POPC   C3B69861  35.323   3.025   7.050
 9922POPC   C4B69862  35.308   3.009   7.350
 9923POPC   NC369863   6.617  16.756   5.550
 9923POPC   PO469864   6.631  16.753   5.850
 9923POPC   GL169865   6.693  16.776   6.150
 9923POPC   GL269866   6.672  16.897   6.150
 9923POPC   C1A69867   6.628  16.730   6.450
 9923POPC   D2A69868   6.660  16.711   6.750
 9923POPC   C3A69869   6.621  16.759   7.050
 9923POPC   C4A69870   6.684  16.703   7.350
 9923POPC   C1B69871   6.614  16.998   6.450
 9923POPC   C2B69872   6.617  16.974   6.750
 9923POPC   C3B69873   6.587  16.967   7.050
 9923POPC   C4B69874   6.649  16.989   7.350
 9924POPC   NC369875  30.727  43.159   5.550
 9924POPC   PO469876  30.658  43.129   5.850
 9924POPC   GL169877  30.730  43.105   6.150
 9924POPC   GL269878  30.737  43.199   6.150
 9924POPC   C1A69879  30.660  43.138   6.450
 9924POPC   D2A69880  30.742  43.107   6.750
 9924POPC   C3A69881  30.725  43.094   7.050
 9924POPC   C4A69882  30.654  43.157   7.350
 9924POPC   C1B69883  30.803  43.315   6.450
 9924POPC   C2B69884  30.814  43.276   6.750
 9924POPC   C3B69885  30.843  43.354   7.050
 9924POPC   C4B69886  30.825  43.354   7.350
 9925POPC   NC369887  15.139   2.030   5.550
 9925POPC   PO469888  15.185   1.953   5.850
 9925POPC   GL169889  15.191   2.000   6.150
 9925POPC   GL269890  15.146   2.119   6.150
 9925POPC   C1A69891  15.158   1.955   6.450
 9925POPC   D2A69892  15.156   2.003   6.750
 9925POPC   C3A69893  15.182   1.956   7.050
 9925POPC   C4A69894  15.192   1.945   7.350
 9925POPC   C1B69895  15.150   2.225   6.450
 9925POPC   C2B69896  15.231   2.279   6.750
 9925POPC   C3B69897  15.237   2.274   7.050
 9925POPC   C4B69898  15.235   2.190   7.350
 9926POPC   NC369899  30.665  26.007   5.550
 9926POPC   PO469900  30.734  26.044   5.850
 9926POPC   GL169901  30.674  26.084   6.150
 9926POPC   GL269902  30.613  26.133   6.150
 9926POPC   C1A69903  30.687  26.065   6.450
 9926POPC   D2A69904  30.679  26.016   6.750
 9926POPC   C3A69905  30.734  26.029   7.050
 9926POPC   C4A69906  30.669  26.035   7.350
 9926POPC   C1B69907  30.516  26.189   6.450
 9926POPC   C2B69908  30.477  26.168   6.750
 9926POPC   C3B69909  30.507  26.191   7.050
 9926POPC   C4B69910  30.528  26.141   7.350
 9927POPC   NC369911   1.234  27.567   5.550
 9927POPC   PO469912   1.189  27.639   5.850
 9927POPC   GL169913   1.234  27.545   6.150
 9927POPC   GL269914   1.246  27.486   6.150
 9927POPC   C1A69915   1.201  27.607   6.450
 9927POPC   D2A69916   1.185  27.610   6.750
 9927POPC   C3A69917   1.239  27.557   7.050
 9927POPC   C4A69918   1.254  27.558   7.350
 9927POPC   C1B69919   1.193  27.347   6.450
 9927POPC   C2B69920   1.256  27.352   6.750
 9927POPC   C3B69921   1.208  27.357   7.050
 9927POPC   C4B69922   1.212  27.394   7.350
 9928POPC   NC369923   5.890  14.362   5.550
 9928POPC   PO469924   5.855  14.446   5.850
 9928POPC   GL169925   5.903  14.378   6.150
 9928POPC   GL269926   5.811  14.354   6.150
 9928POPC   C1A69927   5.893  14.440   6.450
 9928POPC   D2A69928   5.858  14.441   6.750
 9928POPC   C3A69929   5.909  14.370   7.050
 9928POPC   C4A69930   5.865  14.435   7.350
 9928POPC   C1B69931   5.663  14.183   6.450
 9928POPC   C2B69932   5.717  14.194   6.750
 9928POPC   C3B69933   5.706  14.177   7.050
 9928POPC   C4B69934   5.687  14.255   7.350
 9929POPC   NC369935  42.320  24.478   5.550
 9929POPC   PO469936  42.326  24.501   5.850
 9929POPC   GL169937  42.291  24.455   6.150
 9929POPC   GL269938  42.186  24.449   6.150
 9929POPC   C1A69939  42.309  24.470   6.450
 9929POPC   D2A69940  42.366  24.537   6.750
 9929POPC   C3A69941  42.348  24.462   7.050
 9929POPC   C4A69942  42.373  24.532   7.350
 9929POPC   C1B69943  42.111  24.439   6.450
 9929POPC   C2B69944  42.043  24.446   6.750
 9929POPC   C3B69945  42.073  24.440   7.050
 9929POPC   C4B69946  42.074  24.439   7.350
 9930POPC   NC369947  25.248  22.954   5.550
 9930POPC   PO469948  25.280  22.944   5.850
 9930POPC   GL169949  25.279  22.981   6.150
 9930POPC   GL269950  25.217  23.055   6.150
 9930POPC   C1A69951  25.302  22.935   6.450
 9930POPC   D2A69952  25.219  22.950   6.750
 9930POPC   C3A69953  25.249  22.910   7.050
 9930POPC   C4A69954  25.249  22.924   7.350
 9930POPC   C1B69955  25.304  23.185   6.450
 9930POPC   C2B69956  25.233  23.154   6.750
 9930POPC   C3B69957  25.252  23.230   7.050
 9930POPC   C4B69958  25.238  23.157   7.350
 9931POPC   NC369959  33.829  22.933   5.550
 9931POPC   PO469960  33.835  22.890   5.850
 9931POPC   GL169961  33.787  22.975   6.150
 9931POPC   GL269962  33.935  23.030   6.150
 9931POPC   C1A69963  33.843  22.962   6.450
 9931POPC   D2A69964  33.804  22.977   6.750
 9931POPC   C3A69965  33.805  22.947   7.050
 9931POPC   C4A69966  33.779  22.890   7.350
 9931POPC   C1B69967  34.050  23.001   6.450
 9931POPC   C2B69968  34.006  23.007   6.750
 9931POPC   C3B69969  34.003  23.007   7.050
 9931POPC   C4B69970  34.066  23.037   7.350
 9932POPC   NC369971  42.331  36.889   5.550
 9932POPC   PO469972  42.358  36.854   5.850
 9932POPC   GL169973  42.337  36.890   6.150
 9932POPC   GL269974  42.260  36.790   6.150
 9932POPC   C1A69975  42.327  36.906   6.450
 9932POPC   D2A69976  42.382  36.945   6.750
 9932POPC   C3A69977  42.299  36.896   7.050
 9932POPC   C4A69978  42.375  36.946   7.350
 9932POPC   C1B69979  42.239  36.694   6.450
 9932POPC   C2B69980  42.268  36.693   6.750
 9932POPC   C3B69981  42.287  36.631   7.050
 9932POPC   C4B69982  42.245  36.682   7.350
 9933POPC   NC369983  30.651   5.130   5.550
 9933POPC   PO469984  30.726   5.072   5.850
 9933POPC   GL169985  30.730   5.085   6.150
 9933POPC   GL269986  30.586   5.193   6.150
 9933POPC   C1A69987  30.658   5.096   6.450
 9933POPC   D2A69988  30.717   5.122   6.750
 9933POPC   C3A69989  30.707   5.048   7.050
 9933POPC   C4A69990  30.729   5.111   7.350
 9933POPC   C1B69991  30.511   5.234   6.450
 9933POPC   C2B69992  30.505   5.248   6.750
 9933POPC   C3B69993  30.521   5.216   7.050
 9933POPC   C4B69994  30.541   5.233   7.350
 9934POPC   NC369995  36.952   7.435   5.550
 9934POPC   PO469996  36.905   7.394   5.850
 9934POPC   GL169997  36.879   7.411   6.150
 9934POPC   GL269998  37.008   7.286   6.150
 9934POPC   C1A69999  36.920   7.437   6.450
 9934POPC   D2A70000  36.935   7.392   6.750
 9934POPC   C3A70001  36.888   7.421   7.050
 9934POPC   C4A70002  36.876   7.429   7.350
 9934POPC   C1B70003  37.097   7.215   6.450
 9934POPC   C2B70004  37.060   7.214   6.750
 9934POPC   C3B70005  37.056   7.269   7.050
 9934POPC   C4B70006  37.024   7.225   7.350
 9935POPC   NC370007  43.152  40.052   5.550
 9935POPC   PO470008  43.160  39.981   5.850
 9935POPC   GL170009  43.148  39.991   6.150
 9935POPC   GL270010  43.050  40.159   6.150
 9935POPC   C1A70011  43.146  40.046   6.450
 9935POPC   D2A70012  43.142  39.986   6.750
 9935POPC   C3A70013  43.094  40.025   7.050
 9935POPC   C4A70014  43.092  40.042   7.350
 9935POPC   C1B70015  43.058  40.273   6.450
 9935POPC   C2B70016  43.044  40.305   6.750
 9935POPC   C3B70017  43.040  40.259   7.050
 9935POPC   C4B70018  43.125  40.215   7.350
 9936POPC   NC370019  39.184  44.613   5.550
 9936POPC   PO470020  39.198  44.671   5.850
 9936POPC   GL170021  39.204  44.706   6.150
 9936POPC   GL270022  39.310  44.811   6.150
 9936POPC   C1A70023  39.191  44.675   6.450
 9936POPC   D2A70024  39.207  44.628   6.750
 9936POPC   C3A70025  39.182  44.694   7.050
 9936POPC   C4A70026  39.202  44.638   7.350
 9936POPC   C1B70027  39.367  44.900   6.450
 9936POPC   C2B70028  39.365  44.857   6.750
 9936POPC   C3B70029  39.329  44.820   7.050
 9936POPC   C4B70030  39.418  44.850   7.350
 9937POPC   NC370031  23.682  28.361   5.550
 9937POPC   PO470032  23.665  28.324   5.850
 9937POPC   GL170033  23.751  28.370   6.150
 9937POPC   GL270034  23.802  28.312   6.150
 9937POPC   C1A70035  23.677  28.327   6.450
 9937POPC   D2A70036  23.754  28.329   6.750
 9937POPC   C3A70037  23.762  28.338   7.050
 9937POPC   C4A70038  23.717  28.375   7.350
 9937POPC   C1B70039  23.826  28.161   6.450
 9937POPC   C2B70040  23.880  28.224   6.750
 9937POPC   C3B70041  23.924  28.210   7.050
 9937POPC   C4B70042  23.904  28.211   7.350
 9938POPC   NC370043  30.673  25.266   5.550
 9938POPC   PO470044  30.661  25.300   5.850
 9938POPC   GL170045  30.652  25.278   6.150
 9938POPC   GL270046  30.710  25.342   6.150
 9938POPC   C1A70047  30.734  25.265   6.450
 9938POPC   D2A70048  30.675  25.219   6.750
 9938POPC   C3A70049  30.718  25.277   7.050
 9938POPC   C4A70050  30.737  25.315   7.350
 9938POPC   C1B70051  30.735  25.550   6.450
 9938POPC   C2B70052  30.769  25.516   6.750
 9938POPC   C3B70053  30.765  25.478   7.050
 9938POPC   C4B70054  30.808  25.482   7.350
 9939POPC   NC370055  11.334   2.731   5.550
 9939POPC   PO470056  11.254   2.747   5.850
 9939POPC   GL170057  11.255   2.776   6.150
 9939POPC   GL270058  11.435   2.707   6.150
 9939POPC   C1A70059  11.302   2.809   6.450
 9939POPC   D2A70060  11.274   2.744   6.750
 9939POPC   C3A70061  11.298   2.779   7.050
 9939POPC   C4A70062  11.324   2.815   7.350
 9939POPC   C1B70063  11.499   2.723   6.450
 9939POPC   C2B70064  11.511   2.758   6.750
 9939POPC   C3B70065  11.549   2.685   7.050
 9939POPC   C4B70066  11.535   2.725   7.350
 9940POPC   NC370067  29.150  33.792   5.550
 9940POPC   PO470068  29.128  33.837   5.850
 9940POPC   GL170069  29.098  33.788   6.150
 9940POPC   GL270070  29.210  33.926   6.150
 9940POPC   C1A70071  29.141  33.801   6.450
 9940POPC   D2A70072  29.175  33.757   6.750
 9940POPC   C3A70073  29.107  33.828   7.050
 9940POPC   C4A70074  29.193  33.762   7.350
 9940POPC   C1B70075  29.356  33.956   6.450
 9940POPC   C2B70076  29.303  33.996   6.750
 9940POPC   C3B70077  29.386  33.931   7.050
 9940POPC   C4B70078  29.370  33.965   7.350
 9941POPC   NC370079  19.799  22.142   5.550
 9941POPC   PO470080  19.871  22.125   5.850
 9941POPC   GL170081  19.859  22.207   6.150
 9941POPC   GL270082  19.789  22.233   6.150
 9941POPC   C1A70083  19.876  22.124   6.450
 9941POPC   D2A70084  19.803  22.162   6.750
 9941POPC   C3A70085  19.874  22.171   7.050
 9941POPC   C4A70086  19.797  22.162   7.350
 9941POPC   C1B70087  19.767  22.353   6.450
 9941POPC   C2B70088  19.746  22.358   6.750
 9941POPC   C3B70089  19.746  22.414   7.050
 9941POPC   C4B70090  19.786  22.389   7.350
 9942POPC   NC370091  27.564  27.604   5.550
 9942POPC   PO470092  27.549  27.610   5.850
 9942POPC   GL170093  27.545  27.550   6.150
 9942POPC   GL270094  27.516  27.700   6.150
 9942POPC   C1A70095  27.603  27.623   6.450
 9942POPC   D2A70096  27.592  27.563   6.750
 9942POPC   C3A70097  27.562  27.628   7.050
 9942POPC   C4A70098  27.555  27.600   7.350
 9942POPC   C1B70099  27.401  27.824   6.450
 9942POPC   C2B70100  27.437  27.798   6.750
 9942POPC   C3B70101  27.472  27.804   7.050
 9942POPC   C4B70102  27.491  27.828   7.350
 9943POPC   NC370103  15.993   6.688   5.550
 9943POPC   PO470104  15.924   6.605   5.850
 9943POPC   GL170105  15.945   6.649   6.150
 9943POPC   GL270106  15.898   6.537   6.150
 9943POPC   C1A70107  15.966   6.689   6.450
 9943POPC   D2A70108  15.906   6.680   6.750
 9943POPC   C3A70109  16.004   6.655   7.050
 9943POPC   C4A70110  16.005   6.631   7.350
 9943POPC   C1B70111  15.896   6.417   6.450
 9943POPC   C2B70112  15.885   6.415   6.750
 9943POPC   C3B70113  15.917   6.368   7.050
 9943POPC   C4B70114  15.852   6.446   7.350
 9944POPC   NC370115  28.345  29.128   5.550
 9944POPC   PO470116  28.417  29.143   5.850
 9944POPC   GL170117  28.401  29.101   6.150
 9944POPC   GL270118  28.289  29.037   6.150
 9944POPC   C1A70119  28.408  29.189   6.450
 9944POPC   D2A70120  28.332  29.190   6.750
 9944POPC   C3A70121  28.407  29.157   7.050
 9944POPC   C4A70122  28.397  29.157   7.350
 9944POPC   C1B70123  28.259  28.897   6.450
 9944POPC   C2B70124  28.287  28.952   6.750
 9944POPC   C3B70125  28.203  28.961   7.050
 9944POPC   C4B70126  28.213  28.914   7.350
 9945POPC   NC370127  39.983  25.272   5.550
 9945POPC   PO470128  39.975  25.244   5.850
 9945POPC   GL170129  39.959  25.307   6.150
 9945POPC   GL270130  40.088  25.310   6.150
 9945POPC   C1A70131  40.010  25.238   6.450
 9945POPC   D2A70132  40.034  25.291   6.750
 9945POPC   C3A70133  39.959  25.277   7.050
 9945POPC   C4A70134  39.960  25.220   7.350
 9945POPC   C1B70135  40.238  25.321   6.450
 9945POPC   C2B70136  40.256  25.256   6.750
 9945POPC   C3B70137  40.207  25.238   7.050
 9945POPC   C4B70138  40.306  25.304   7.350
 9946POPC   NC370139  40.755  30.650   5.550
 9946POPC   PO470140  40.802  30.723   5.850
 9946POPC   GL170141  40.792  30.683   6.150
 9946POPC   GL270142  40.784  30.580   6.150
 9946POPC   C1A70143  40.733  30.743   6.450
 9946POPC   D2A70144  40.768  30.711   6.750
 9946POPC   C3A70145  40.797  30.677   7.050
 9946POPC   C4A70146  40.800  30.735   7.350
 9946POPC   C1B70147  40.721  30.418   6.450
 9946POPC   C2B70148  40.711  30.490   6.750
 9946POPC   C3B70149  40.769  30.404   7.050
 9946POPC   C4B70150  40.770  30.445   7.350
 9947POPC   NC370151  43.076  42.352   5.550
 9947POPC   PO470152  43.063  42.310   5.850
 9947POPC   GL170153  43.071  42.349   6.150
 9947POPC   GL270154  43.077  42.180   6.150
 9947POPC   C1A70155  43.159  42.353   6.450
 9947POPC   D2A70156  43.121  42.322   6.750
 9947POPC   C3A70157  43.113  42.303   7.050
 9947POPC   C4A70158  43.072  42.323   7.350
 9947POPC   C1B70159  43.107  42.101   6.450
 9947POPC   C2B70160  43.069  42.078   6.750
 9947POPC   C3B70161  43.127  42.051   7.050
 9947POPC   C4B70162  43.119  42.088   7.350
 9948POPC   NC370163  21.428  40.780   5.550
 9948POPC   PO470164  21.408  40.812   5.850
 9948POPC   GL170165  21.386  40.776   6.150
 9948POPC   GL270166  21.326  40.751   6.150
 9948POPC   C1A70167  21.382  40.824   6.450
 9948POPC   D2A70168  21.430  40.832   6.750
 9948POPC   C3A70169  21.360  40.831   7.050
 9948POPC   C4A70170  21.378  40.748   7.350
 9948POPC   C1B70171  21.144  40.643   6.450
 9948POPC   C2B70172  21.233  40.582   6.750
 9948POPC   C3B70173  21.180  40.626   7.050
 9948POPC   C4B70174  21.142  40.603   7.350
 9949POPC   NC370175  34.577  28.364   5.550
 9949POPC   PO470176  34.543  28.402   5.850
 9949POPC   GL170177  34.559  28.366   6.150
 9949POPC   GL270178  34.554  28.212   6.150
 9949POPC   C1A70179  34.603  28.361   6.450
 9949POPC   D2A70180  34.591  28.343   6.750
 9949POPC   C3A70181  34.566  28.371   7.050
 9949POPC   C4A70182  34.569  28.371   7.350
 9949POPC   C1B70183  34.546  28.163   6.450
 9949POPC   C2B70184  34.573  28.119   6.750
 9949POPC   C3B70185  34.641  28.080   7.050
 9949POPC   C4B70186  34.549  28.140   7.350
 9950POPC   NC370187  36.946  22.903   5.550
 9950POPC   PO470188  36.947  22.960   5.850
 9950POPC   GL170189  36.876  22.889   6.150
 9950POPC   GL270190  36.731  22.923   6.150
 9950POPC   C1A70191  36.883  22.921   6.450
 9950POPC   D2A70192  36.938  22.911   6.750
 9950POPC   C3A70193  36.854  22.969   7.050
 9950POPC   C4A70194  36.876  22.956   7.350
 9950POPC   C1B70195  36.663  22.935   6.450
 9950POPC   C2B70196  36.670  22.924   6.750
 9950POPC   C3B70197  36.658  22.950   7.050
 9950POPC   C4B70198  36.630  22.894   7.350
 9951POPC   NC370199   9.769   1.249   5.550
 9951POPC   PO470200   9.758   1.170   5.850
 9951POPC   GL170201   9.795   1.241   6.150
 9951POPC   GL270202   9.612   1.179   6.150
 9951POPC   C1A70203   9.756   1.183   6.450
 9951POPC   D2A70204   9.720   1.187   6.750
 9951POPC   C3A70205   9.714   1.223   7.050
 9951POPC   C4A70206   9.786   1.226   7.350
 9951POPC   C1B70207   9.501   1.127   6.450
 9951POPC   C2B70208   9.510   1.130   6.750
 9951POPC   C3B70209   9.509   1.089   7.050
 9951POPC   C4B70210   9.478   1.142   7.350
 9952POPC   NC370211   2.739   8.939   5.550
 9952POPC   PO470212   2.744   8.932   5.850
 9952POPC   GL170213   2.807   8.923   6.150
 9952POPC   GL270214   2.607   8.981   6.150
 9952POPC   C1A70215   2.767   8.964   6.450
 9952POPC   D2A70216   2.814   8.931   6.750
 9952POPC   C3A70217   2.734   8.977   7.050
 9952POPC   C4A70218   2.766   9.001   7.350
 9952POPC   C1B70219   2.497   9.064   6.450
 9952POPC   C2B70220   2.482   9.101   6.750
 9952POPC   C3B70221   2.523   9.065   7.050
 9952POPC   C4B70222   2.557   9.065   7.350
 9953POPC   NC370223  37.700  20.601   5.550
 9953POPC   PO470224  37.683  20.594   5.850
 9953POPC   GL170225  37.656  20.566   6.150
 9953POPC   GL270226  37.823  20.563   6.150
 9953POPC   C1A70227  37.662  20.632   6.450
 9953POPC   D2A70228  37.701  20.636   6.750
 9953POPC   C3A70229  37.674  20.641   7.050
 9953POPC   C4A70230  37.688  20.592   7.350
 9953POPC   C1B70231  37.929  20.491   6.450
 9953POPC   C2B70232  37.890  20.447   6.750
 9953POPC   C3B70233  37.900  20.479   7.050
 9953POPC   C4B70234  37.851  20.513   7.350
 9954POPC   NC370235   3.575  10.526   5.550
 9954POPC   PO470236   3.532  10.526   5.850
 9954POPC   GL170237   3.556  10.564   6.150
 9954POPC   GL270238   3.647  10.428   6.150
 9954POPC   C1A70239   3.534  10.496   6.450
 9954POPC   D2A70240   3.570  10.555   6.750
 9954POPC   C3A70241   3.585  10.519   7.050
 9954POPC   C4A70242   3.575  10.571   7.350
 9954POPC   C1B70243   3.784  10.402   6.450
 9954POPC   C2B70244   3.767  10.357   6.750
 9954POPC   C3B70245   3.713  10.418   7.050
 9954POPC   C4B70246   3.771  10.380   7.350
 9955POPC   NC370247  32.259  23.764   5.550
 9955POPC   PO470248  32.217  23.716   5.850
 9955POPC   GL170249  32.243  23.702   6.150
 9955POPC   GL270250  32.346  23.702   6.150
 9955POPC   C1A70251  32.290  23.717   6.450
 9955POPC   D2A70252  32.220  23.696   6.750
 9955POPC   C3A70253  32.296  23.692   7.050
 9955POPC   C4A70254  32.221  23.725   7.350
 9955POPC   C1B70255  32.515  23.724   6.450
 9955POPC   C2B70256  32.518  23.697   6.750
 9955POPC   C3B70257  32.520  23.679   7.050
 9955POPC   C4B70258  32.520  23.740   7.350
 9956POPC   NC370259  26.785  36.122   5.550
 9956POPC   PO470260  26.808  36.126   5.850
 9956POPC   GL170261  26.838  36.121   6.150
 9956POPC   GL270262  26.750  36.277   6.150
 9956POPC   C1A70263  26.791  36.154   6.450
 9956POPC   D2A70264  26.777  36.149   6.750
 9956POPC   C3A70265  26.799  36.125   7.050
 9956POPC   C4A70266  26.859  36.090   7.350
 9956POPC   C1B70267  26.761  36.396   6.450
 9956POPC   C2B70268  26.749  36.389   6.750
 9956POPC   C3B70269  26.732  36.379   7.050
 9956POPC   C4B70270  26.778  36.372   7.350
 9957POPC   NC370271  38.413  26.827   5.550
 9957POPC   PO470272  38.423  26.841   5.850
 9957POPC   GL170273  38.459  26.837   6.150
 9957POPC   GL270274  38.303  26.857   6.150
 9957POPC   C1A70275  38.473  26.826   6.450
 9957POPC   D2A70276  38.435  26.779   6.750
 9957POPC   C3A70277  38.405  26.769   7.050
 9957POPC   C4A70278  38.466  26.865   7.350
 9957POPC   C1B70279  38.190  26.801   6.450
 9957POPC   C2B70280  38.247  26.808   6.750
 9957POPC   C3B70281  38.233  26.819   7.050
 9957POPC   C4B70282  38.249  26.811   7.350
 9958POPC   NC370283  38.468  28.391   5.550
 9958POPC   PO470284  38.477  28.324   5.850
 9958POPC   GL170285  38.470  28.321   6.150
 9958POPC   GL270286  38.418  28.473   6.150
 9958POPC   C1A70287  38.406  28.322   6.450
 9958POPC   D2A70288  38.473  28.389   6.750
 9958POPC   C3A70289  38.407  28.349   7.050
 9958POPC   C4A70290  38.421  28.354   7.350
 9958POPC   C1B70291  38.312  28.532   6.450
 9958POPC   C2B70292  38.283  28.547   6.750
 9958POPC   C3B70293  38.262  28.558   7.050
 9958POPC   C4B70294  38.256  28.576   7.350
 9959POPC   NC370295  15.226  36.137   5.550
 9959POPC   PO470296  15.178  36.105   5.850
 9959POPC   GL170297  15.207  36.171   6.150
 9959POPC   GL270298  15.244  36.253   6.150
 9959POPC   C1A70299  15.191  36.135   6.450
 9959POPC   D2A70300  15.173  36.161   6.750
 9959POPC   C3A70301  15.176  36.121   7.050
 9959POPC   C4A70302  15.182  36.095   7.350
 9959POPC   C1B70303  15.244  36.359   6.450
 9959POPC   C2B70304  15.239  36.344   6.750
 9959POPC   C3B70305  15.190  36.377   7.050
 9959POPC   C4B70306  15.264  36.390   7.350
 9960POPC   NC370307  22.135  11.314   5.550
 9960POPC   PO470308  22.201  11.287   5.850
 9960POPC   GL170309  22.150  11.277   6.150
 9960POPC   GL270310  22.077  11.208   6.150
 9960POPC   C1A70311  22.186  11.302   6.450
 9960POPC   D2A70312  22.123  11.320   6.750
 9960POPC   C3A70313  22.164  11.289   7.050
 9960POPC   C4A70314  22.172  11.318   7.350
 9960POPC   C1B70315  22.076  11.029   6.450
 9960POPC   C2B70316  22.032  11.065   6.750
 9960POPC   C3B70317  22.038  11.051   7.050
 9960POPC   C4B70318  22.053  11.109   7.350
 9961POPC   NC370319   4.270  39.988   5.550
 9961POPC   PO470320   4.302  40.040   5.850
 9961POPC   GL170321   4.268  39.967   6.150
 9961POPC   GL270322   4.229  40.050   6.150
 9961POPC   C1A70323   4.322  40.010   6.450
 9961POPC   D2A70324   4.345  39.971   6.750
 9961POPC   C3A70325   4.346  40.013   7.050
 9961POPC   C4A70326   4.366  40.017   7.350
 9961POPC   C1B70327   4.072  40.049   6.450
 9961POPC   C2B70328   4.067  40.047   6.750
 9961POPC   C3B70329   4.077  40.038   7.050
 9961POPC   C4B70330   4.053  40.033   7.350
 9962POPC   NC370331  12.110  44.698   5.550
 9962POPC   PO470332  12.032  44.626   5.850
 9962POPC   GL170333  12.068  44.711   6.150
 9962POPC   GL270334  12.149  44.635   6.150
 9962POPC   C1A70335  12.035  44.647   6.450
 9962POPC   D2A70336  12.064  44.662   6.750
 9962POPC   C3A70337  12.093  44.644   7.050
 9962POPC   C4A70338  12.077  44.641   7.350
 9962POPC   C1B70339  12.312  44.479   6.450
 9962POPC   C2B70340  12.282  44.520   6.750
 9962POPC   C3B70341  12.314  44.562   7.050
 9962POPC   C4B70342  12.289  44.562   7.350
 9963POPC   NC370343   9.009  44.639   5.550
 9963POPC   PO470344   8.986  44.645   5.850
 9963POPC   GL170345   8.984  44.647   6.150
 9963POPC   GL270346   9.042  44.574   6.150
 9963POPC   C1A70347   8.926  44.673   6.450
 9963POPC   D2A70348   8.944  44.644   6.750
 9963POPC   C3A70349   9.009  44.662   7.050
 9963POPC   C4A70350   8.954  44.701   7.350
 9963POPC   C1B70351   9.226  44.522   6.450
 9963POPC   C2B70352   9.232  44.539   6.750
 9963POPC   C3B70353   9.202  44.588   7.050
 9963POPC   C4B70354   9.213  44.593   7.350
 9964POPC   NC370355  33.781  13.602   5.550
 9964POPC   PO470356  33.805  13.657   5.850
 9964POPC   GL170357  33.764  13.622   6.150
 9964POPC   GL270358  33.649  13.559   6.150
 9964POPC   C1A70359  33.800  13.638   6.450
 9964POPC   D2A70360  33.831  13.641   6.750
 9964POPC   C3A70361  33.840  13.651   7.050
 9964POPC   C4A70362  33.808  13.581   7.350
 9964POPC   C1B70363  33.582  13.551   6.450
 9964POPC   C2B70364  33.590  13.520   6.750
 9964POPC   C3B70365  33.602  13.504   7.050
 9964POPC   C4B70366  33.607  13.579   7.350
 9965POPC   NC370367  36.094  29.947   5.550
 9965POPC   PO470368  36.148  29.873   5.850
 9965POPC   GL170369  36.114  29.942   6.150
 9965POPC   GL270370  36.062  29.803   6.150
 9965POPC   C1A70371  36.108  29.970   6.450
 9965POPC   D2A70372  36.098  29.914   6.750
 9965POPC   C3A70373  36.128  29.928   7.050
 9965POPC   C4A70374  36.131  29.970   7.350
 9965POPC   C1B70375  36.040  29.679   6.450
 9965POPC   C2B70376  36.115  29.708   6.750
 9965POPC   C3B70377  36.126  29.700   7.050
 9965POPC   C4B70378  36.058  29.666   7.350
 9966POPC   NC370379  32.293   5.907   5.550
 9966POPC   PO470380  32.260   5.859   5.850
 9966POPC   GL170381  32.219   5.896   6.150
 9966POPC   GL270382  32.149   5.946   6.150
 9966POPC   C1A70383  32.231   5.875   6.450
 9966POPC   D2A70384  32.279   5.857   6.750
 9966POPC   C3A70385  32.274   5.847   7.050
 9966POPC   C4A70386  32.264   5.853   7.350
 9966POPC   C1B70387  32.061   6.032   6.450
 9966POPC   C2B70388  32.083   6.066   6.750
 9966POPC   C3B70389  32.039   6.025   7.050
 9966POPC   C4B70390  32.009   6.052   7.350
 9967POPC   NC370391   0.474  26.088   5.550
 9967POPC   PO470392   0.407  25.993   5.850
 9967POPC   GL170393   0.473  26.031   6.150
 9967POPC   GL270394   0.314  26.149   6.150
 9967POPC   C1A70395   0.475  26.007   6.450
 9967POPC   D2A70396   0.430  25.998   6.750
 9967POPC   C3A70397   0.473  26.023   7.050
 9967POPC   C4A70398   0.411  26.070   7.350
 9967POPC   C1B70399   0.262  26.242   6.450
 9967POPC   C2B70400   0.267  26.242   6.750
 9967POPC   C3B70401   0.254  26.229   7.050
 9967POPC   C4B70402   0.254  26.237   7.350
 9968POPC   NC370403  26.046  32.224   5.550
 9968POPC   PO470404  26.049  32.266   5.850
 9968POPC   GL170405  26.033  32.202   6.150
 9968POPC   GL270406  26.066  32.397   6.150
 9968POPC   C1A70407  26.046  32.243   6.450
 9968POPC   D2A70408  25.997  32.235   6.750
 9968POPC   C3A70409  26.005  32.262   7.050
 9968POPC   C4A70410  26.034  32.242   7.350
 9968POPC   C1B70411  26.187  32.488   6.450
 9968POPC   C2B70412  26.172  32.508   6.750
 9968POPC   C3B70413  26.202  32.463   7.050
 9968POPC   C4B70414  26.189  32.464   7.350
 9969POPC   NC370415  38.443  40.825   5.550
 9969POPC   PO470416  38.434  40.749   5.850
 9969POPC   GL170417  38.416  40.751   6.150
 9969POPC   GL270418  38.357  40.726   6.150
 9969POPC   C1A70419  38.488  40.769   6.450
 9969POPC   D2A70420  38.437  40.793   6.750
 9969POPC   C3A70421  38.441  40.829   7.050
 9969POPC   C4A70422  38.494  40.744   7.350
 9969POPC   C1B70423  38.254  40.583   6.450
 9969POPC   C2B70424  38.239  40.601   6.750
 9969POPC   C3B70425  38.245  40.581   7.050
 9969POPC   C4B70426  38.261  40.612   7.350
 9970POPC   NC370427  26.035  22.169   5.550
 9970POPC   PO470428  26.048  22.144   5.850
 9970POPC   GL170429  26.032  22.199   6.150
 9970POPC   GL270430  26.106  22.243   6.150
 9970POPC   C1A70431  26.025  22.138   6.450
 9970POPC   D2A70432  26.057  22.127   6.750
 9970POPC   C3A70433  26.090  22.132   7.050
 9970POPC   C4A70434  26.029  22.197   7.350
 9970POPC   C1B70435  26.151  22.339   6.450
 9970POPC   C2B70436  26.166  22.369   6.750
 9970POPC   C3B70437  26.189  22.325   7.050
 9970POPC   C4B70438  26.196  22.365   7.350
 9971POPC   NC370439  22.960  42.299   5.550
 9971POPC   PO470440  22.961  42.288   5.850
 9971POPC   GL170441  22.909  42.366   6.150
 9971POPC   GL270442  22.962  42.449   6.150
 9971POPC   C1A70443  22.967  42.314   6.450
 9971POPC   D2A70444  22.938  42.354   6.750
 9971POPC   C3A70445  22.947  42.317   7.050
 9971POPC   C4A70446  22.935  42.336   7.350
 9971POPC   C1B70447  22.940  42.624   6.450
 9971POPC   C2B70448  22.879  42.594   6.750
 9971POPC   C3B70449  22.919  42.578   7.050
 9971POPC   C4B70450  22.881  42.578   7.350
 9972POPC   NC370451  19.056  14.381   5.550
 9972POPC   PO470452  19.025  14.390   5.850
 9972POPC   GL170453  19.056  14.450   6.150
 9972POPC   GL270454  19.078  14.529   6.150
 9972POPC   C1A70455  19.023  14.450   6.450
 9972POPC   D2A70456  19.046  14.361   6.750
 9972POPC   C3A70457  19.086  14.370   7.050
 9972POPC   C4A70458  19.064  14.370   7.350
 9972POPC   C1B70459  19.063  14.627   6.450
 9972POPC   C2B70460  19.032  14.641   6.750
 9972POPC   C3B70461  19.063  14.695   7.050
 9972POPC   C4B70462  19.114  14.604   7.350
 9973POPC   NC370463   8.960  28.374   5.550
 9973POPC   PO470464   8.950  28.370   5.850
 9973POPC   GL170465   8.962  28.397   6.150
 9973POPC   GL270466   8.905  28.198   6.150
 9973POPC   C1A70467   9.007  28.321   6.450
 9973POPC   D2A70468   8.966  28.393   6.750
 9973POPC   C3A70469   8.928  28.363   7.050
 9973POPC   C4A70470   8.976  28.372   7.350
 9973POPC   C1B70471   8.892  28.130   6.450
 9973POPC   C2B70472   8.967  28.089   6.750
 9973POPC   C3B70473   8.914  28.146   7.050
 9973POPC   C4B70474   8.873  28.159   7.350
 9974POPC   NC370475   2.752  10.479   5.550
 9974POPC   PO470476   2.813  10.541   5.850
 9974POPC   GL170477   2.802  10.503   6.150
 9974POPC   GL270478   2.929  10.504   6.150
 9974POPC   C1A70479   2.732  10.563   6.450
 9974POPC   D2A70480   2.730  10.567   6.750
 9974POPC   C3A70481   2.762  10.543   7.050
 9974POPC   C4A70482   2.778  10.487   7.350
 9974POPC   C1B70483   3.039  10.537   6.450
 9974POPC   C2B70484   3.043  10.458   6.750
 9974POPC   C3B70485   3.026  10.530   7.050
 9974POPC   C4B70486   3.018  10.505   7.350
 9975POPC   NC370487   2.025  15.934   5.550
 9975POPC   PO470488   1.992  15.970   5.850
 9975POPC   GL170489   2.016  15.932   6.150
 9975POPC   GL270490   2.108  16.011   6.150
 9975POPC   C1A70491   1.974  15.957   6.450
 9975POPC   D2A70492   2.004  15.991   6.750
 9975POPC   C3A70493   2.019  15.926   7.050
 9975POPC   C4A70494   2.038  15.995   7.350
 9975POPC   C1B70495   2.185  16.127   6.450
 9975POPC   C2B70496   2.203  16.140   6.750
 9975POPC   C3B70497   2.212  16.080   7.050
 9975POPC   C4B70498   2.140  16.131   7.350
 9976POPC   NC370499  33.032  26.865   5.550
 9976POPC   PO470500  33.048  26.828   5.850
 9976POPC   GL170501  32.984  26.792   6.150
 9976POPC   GL270502  32.957  26.761   6.150
 9976POPC   C1A70503  33.055  26.811   6.450
 9976POPC   D2A70504  32.990  26.831   6.750
 9976POPC   C3A70505  33.068  26.861   7.050
 9976POPC   C4A70506  33.033  26.792   7.350
 9976POPC   C1B70507  32.796  26.608   6.450
 9976POPC   C2B70508  32.814  26.697   6.750
 9976POPC   C3B70509  32.789  26.645   7.050
 9976POPC   C4B70510  32.858  26.633   7.350
 9977POPC   NC370511  15.135  42.315   5.550
 9977POPC   PO470512  15.156  42.365   5.850
 9977POPC   GL170513  15.146  42.314   6.150
 9977POPC   GL270514  15.097  42.313   6.150
 9977POPC   C1A70515  15.173  42.294   6.450
 9977POPC   D2A70516  15.223  42.298   6.750
 9977POPC   C3A70517  15.229  42.291   7.050
 9977POPC   C4A70518  15.197  42.366   7.350
 9977POPC   C1B70519  14.985  42.225   6.450
 9977POPC   C2B70520  14.959  42.236   6.750
 9977POPC   C3B70521  14.928  42.254   7.050
 9977POPC   C4B70522  14.911  42.222   7.350
 9978POPC   NC370523  21.422  30.725   5.550
 9978POPC   PO470524  21.424  30.689   5.850
 9978POPC   GL170525  21.342  30.648   6.150
 9978POPC   GL270526  21.370  30.596   6.150
 9978POPC   C1A70527  21.422  30.738   6.450
 9978POPC   D2A70528  21.392  30.710   6.750
 9978POPC   C3A70529  21.422  30.702   7.050
 9978POPC   C4A70530  21.380  30.650   7.350
 9978POPC   C1B70531  21.371  30.467   6.450
 9978POPC   C2B70532  21.376  30.474   6.750
 9978POPC   C3B70533  21.356  30.411   7.050
 9978POPC   C4B70534  21.359  30.443   7.350
 9979POPC   NC370535   5.110  36.911   5.550
 9979POPC   PO470536   5.051  36.874   5.850
 9979POPC   GL170537   5.073  36.858   6.150
 9979POPC   GL270538   4.929  36.958   6.150
 9979POPC   C1A70539   5.062  36.889   6.450
 9979POPC   D2A70540   5.081  36.896   6.750
 9979POPC   C3A70541   5.095  36.931   7.050
 9979POPC   C4A70542   5.044  36.947   7.350
 9979POPC   C1B70543   4.870  36.934   6.450
 9979POPC   C2B70544   4.836  36.933   6.750
 9979POPC   C3B70545   4.860  36.872   7.050
 9979POPC   C4B70546   4.885  36.947   7.350
 9980POPC   NC370547  26.852   8.163   5.550
 9980POPC   PO470548  26.862   8.195   5.850
 9980POPC   GL170549  26.774   8.189   6.150
 9980POPC   GL270550  26.874   8.280   6.150
 9980POPC   C1A70551  26.779   8.223   6.450
 9980POPC   D2A70552  26.801   8.153   6.750
 9980POPC   C3A70553  26.862   8.225   7.050
 9980POPC   C4A70554  26.773   8.213   7.350
 9980POPC   C1B70555  26.902   8.381   6.450
 9980POPC   C2B70556  26.925   8.436   6.750
 9980POPC   C3B70557  26.979   8.423   7.050
 9980POPC   C4B70558  26.953   8.385   7.350
 9981POPC   NC370559   6.672  15.134   5.550
 9981POPC   PO470560   6.619  15.172   5.850
 9981POPC   GL170561   6.638  15.146   6.150
 9981POPC   GL270562   6.688  15.030   6.150
 9981POPC   C1A70563   6.640  15.142   6.450
 9981POPC   D2A70564   6.644  15.154   6.750
 9981POPC   C3A70565   6.642  15.199   7.050
 9981POPC   C4A70566   6.600  15.223   7.350
 9981POPC   C1B70567   6.733  14.893   6.450
 9981POPC   C2B70568   6.695  14.926   6.750
 9981POPC   C3B70569   6.686  14.939   7.050
 9981POPC   C4B70570   6.753  14.938   7.350
 9982POPC   NC370571  39.232  29.109   5.550
 9982POPC   PO470572  39.196  29.187   5.850
 9982POPC   GL170573  39.233  29.158   6.150
 9982POPC   GL270574  39.156  29.296   6.150
 9982POPC   C1A70575  39.239  29.187   6.450
 9982POPC   D2A70576  39.253  29.123   6.750
 9982POPC   C3A70577  39.257  29.152   7.050
 9982POPC   C4A70578  39.261  29.115   7.350
 9982POPC   C1B70579  39.116  29.407   6.450
 9982POPC   C2B70580  39.115  29.380   6.750
 9982POPC   C3B70581  39.157  29.381   7.050
 9982POPC   C4B70582  39.149  29.355   7.350
 9983POPC   NC370583  19.016   9.719   5.550
 9983POPC   PO470584  19.041   9.701   5.850
 9983POPC   GL170585  19.090   9.765   6.150
 9983POPC   GL270586  19.154   9.827   6.150
 9983POPC   C1A70587  19.034   9.710   6.450
 9983POPC   D2A70588  19.023   9.717   6.750
 9983POPC   C3A70589  19.020   9.720   7.050
 9983POPC   C4A70590  19.050   9.727   7.350
 9983POPC   C1B70591  19.162   9.938   6.450
 9983POPC   C2B70592  19.225   9.995   6.750
 9983POPC   C3B70593  19.214   9.951   7.050
 9983POPC   C4B70594  19.162   9.937   7.350
 9984POPC   NC370595   2.746  39.986   5.550
 9984POPC   PO470596   2.811  40.011   5.850
 9984POPC   GL170597   2.729  39.965   6.150
 9984POPC   GL270598   2.890  40.098   6.150
 9984POPC   C1A70599   2.781  40.028   6.450
 9984POPC   D2A70600   2.811  40.000   6.750
 9984POPC   C3A70601   2.813  39.998   7.050
 9984POPC   C4A70602   2.740  39.987   7.350
 9984POPC   C1B70603   2.937  40.128   6.450
 9984POPC   C2B70604   2.980  40.107   6.750
 9984POPC   C3B70605   2.935  40.152   7.050
 9984POPC   C4B70606   3.011  40.156   7.350
 9985POPC   NC370607  15.146  20.595   5.550
 9985POPC   PO470608  15.224  20.584   5.850
 9985POPC   GL170609  15.172  20.609   6.150
 9985POPC   GL270610  15.148  20.725   6.150
 9985POPC   C1A70611  15.188  20.621   6.450
 9985POPC   D2A70612  15.195  20.648   6.750
 9985POPC   C3A70613  15.140  20.638   7.050
 9985POPC   C4A70614  15.175  20.565   7.350
 9985POPC   C1B70615  15.021  20.845   6.450
 9985POPC   C2B70616  15.073  20.850   6.750
 9985POPC   C3B70617  15.057  20.846   7.050
 9985POPC   C4B70618  15.015  20.835   7.350
 9986POPC   NC370619   5.873  31.452   5.550
 9986POPC   PO470620   5.913  31.441   5.850
 9986POPC   GL170621   5.916  31.436   6.150
 9986POPC   GL270622   5.753  31.454   6.150
 9986POPC   C1A70623   5.824  31.434   6.450
 9986POPC   D2A70624   5.849  31.513   6.750
 9986POPC   C3A70625   5.837  31.437   7.050
 9986POPC   C4A70626   5.862  31.451   7.350
 9986POPC   C1B70627   5.658  31.392   6.450
 9986POPC   C2B70628   5.607  31.446   6.750
 9986POPC   C3B70629   5.623  31.457   7.050
 9986POPC   C4B70630   5.627  31.433   7.350
 9987POPC   NC370631   8.204  10.530   5.550
 9987POPC   PO470632   8.151  10.535   5.850
 9987POPC   GL170633   8.191  10.523   6.150
 9987POPC   GL270634   8.265  10.639   6.150
 9987POPC   C1A70635   8.215  10.497   6.450
 9987POPC   D2A70636   8.168  10.515   6.750
 9987POPC   C3A70637   8.219  10.563   7.050
 9987POPC   C4A70638   8.184  10.515   7.350
 9987POPC   C1B70639   8.376  10.676   6.450
 9987POPC   C2B70640   8.321  10.697   6.750
 9987POPC   C3B70641   8.356  10.681   7.050
 9987POPC   C4B70642   8.368  10.711   7.350
 9988POPC   NC370643  15.972  22.186   5.550
 9988POPC   PO470644  15.906  22.137   5.850
 9988POPC   GL170645  15.945  22.208   6.150
 9988POPC   GL270646  15.939  22.295   6.150
 9988POPC   C1A70647  16.001  22.184   6.450
 9988POPC   D2A70648  15.919  22.158   6.750
 9988POPC   C3A70649  15.908  22.125   7.050
 9988POPC   C4A70650  15.984  22.210   7.350
 9988POPC   C1B70651  15.854  22.409   6.450
 9988POPC   C2B70652  15.821  22.373   6.750
 9988POPC   C3B70653  15.833  22.389   7.050
 9988POPC   C4B70654  15.880  22.396   7.350
 9989POPC   NC370655  32.241   8.224   5.550
 9989POPC   PO470656  32.205   8.203   5.850
 9989POPC   GL170657  32.241   8.203   6.150
 9989POPC   GL270658  32.363   8.196   6.150
 9989POPC   C1A70659  32.235   8.225   6.450
 9989POPC   D2A70660  32.268   8.182   6.750
 9989POPC   C3A70661  32.220   8.166   7.050
 9989POPC   C4A70662  32.288   8.199   7.350
 9989POPC   C1B70663  32.468   8.132   6.450
 9989POPC   C2B70664  32.483   8.107   6.750
 9989POPC   C3B70665  32.438   8.066   7.050
 9989POPC   C4B70666  32.528   8.064   7.350
 9990POPC   NC370667  38.458  36.113   5.550
 9990POPC   PO470668  38.467  36.175   5.850
 9990POPC   GL170669  38.466  36.137   6.150
 9990POPC   GL270670  38.590  36.190   6.150
 9990POPC   C1A70671  38.443  36.132   6.450
 9990POPC   D2A70672  38.426  36.082   6.750
 9990POPC   C3A70673  38.425  36.126   7.050
 9990POPC   C4A70674  38.469  36.084   7.350
 9990POPC   C1B70675  38.606  36.314   6.450
 9990POPC   C2B70676  38.634  36.270   6.750
 9990POPC   C3B70677  38.691  36.294   7.050
 9990POPC   C4B70678  38.615  36.281   7.350
 9991POPC   NC370679  41.605  34.533   5.550
 9991POPC   PO470680  41.554  34.554   5.850
 9991POPC   GL170681  41.586  34.622   6.150
 9991POPC   GL270682  41.453  34.606   6.150
 9991POPC   C1A70683  41.513  34.559   6.450
 9991POPC   D2A70684  41.553  34.580   6.750
 9991POPC   C3A70685  41.523  34.554   7.050
 9991POPC   C4A70686  41.567  34.530   7.350
 9991POPC   C1B70687  41.319  34.572   6.450
 9991POPC   C2B70688  41.270  34.585   6.750
 9991POPC   C3B70689  41.342  34.644   7.050
 9991POPC   C4B70690  41.282  34.668   7.350
 9992POPC   NC370691  18.284  42.373   5.550
 9992POPC   PO470692  18.287  42.343   5.850
 9992POPC   GL170693  18.293  42.355   6.150
 9992POPC   GL270694  18.432  42.373   6.150
 9992POPC   C1A70695  18.245  42.308   6.450
 9992POPC   D2A70696  18.310  42.356   6.750
 9992POPC   C3A70697  18.258  42.315   7.050
 9992POPC   C4A70698  18.306  42.347   7.350
 9992POPC   C1B70699  18.528  42.498   6.450
 9992POPC   C2B70700  18.438  42.527   6.750
 9992POPC   C3B70701  18.435  42.521   7.050
 9992POPC   C4B70702  18.473  42.435   7.350
 9993POPC   NC370703  23.684  40.800   5.550
 9993POPC   PO470704  23.764  40.830   5.850
 9993POPC   GL170705  23.682  40.765   6.150
 9993POPC   GL270706  23.782  40.872   6.150
 9993POPC   C1A70707  23.751  40.767   6.450
 9993POPC   D2A70708  23.709  40.780   6.750
 9993POPC   C3A70709  23.744  40.805   7.050
 9993POPC   C4A70710  23.719  40.830   7.350
 9993POPC   C1B70711  23.794  41.058   6.450
 9993POPC   C2B70712  23.816  41.038   6.750
 9993POPC   C3B70713  23.762  41.020   7.050
 9993POPC   C4B70714  23.806  41.005   7.350
 9994POPC   NC370715  26.055   5.843   5.550
 9994POPC   PO470716  26.084   5.911   5.850
 9994POPC   GL170717  26.036   5.857   6.150
 9994POPC   GL270718  26.026   5.722   6.150
 9994POPC   C1A70719  25.999   5.874   6.450
 9994POPC   D2A70720  26.009   5.832   6.750
 9994POPC   C3A70721  26.030   5.833   7.050
 9994POPC   C4A70722  26.062   5.905   7.350
 9994POPC   C1B70723  25.963   5.625   6.450
 9994POPC   C2B70724  25.940   5.674   6.750
 9994POPC   C3B70725  25.981   5.607   7.050
 9994POPC   C4B70726  25.946   5.650   7.350
 9995POPC   NC370727   8.204  44.644   5.550
 9995POPC   PO470728   8.229  44.654   5.850
 9995POPC   GL170729   8.226  44.688   6.150
 9995POPC   GL270730   8.266  44.788   6.150
 9995POPC   C1A70731   8.228  44.706   6.450
 9995POPC   D2A70732   8.216  44.641   6.750
 9995POPC   C3A70733   8.234  44.622   7.050
 9995POPC   C4A70734   8.173  44.701   7.350
 9995POPC   C1B70735   8.384  44.834   6.450
 9995POPC   C2B70736   8.376  44.822   6.750
 9995POPC   C3B70737   8.380  44.806   7.050
 9995POPC   C4B70738   8.377  44.847   7.350
 9996POPC   NC370739   1.219  16.722   5.550
 9996POPC   PO470740   1.236  16.773   5.850
 9996POPC   GL170741   1.180  16.769   6.150
 9996POPC   GL270742   1.133  16.595   6.150
 9996POPC   C1A70743   1.231  16.766   6.450
 9996POPC   D2A70744   1.209  16.748   6.750
 9996POPC   C3A70745   1.206  16.733   7.050
 9996POPC   C4A70746   1.217  16.712   7.350
 9996POPC   C1B70747   1.175  16.451   6.450
 9996POPC   C2B70748   1.172  16.467   6.750
 9996POPC   C3B70749   1.184  16.493   7.050
 9996POPC   C4B70750   1.146  16.542   7.350
 9997POPC   NC370751  37.682  22.983   5.550
 9997POPC   PO470752  37.680  22.906   5.850
 9997POPC   GL170753  37.706  22.957   6.150
 9997POPC   GL270754  37.812  22.902   6.150
 9997POPC   C1A70755  37.724  22.946   6.450
 9997POPC   D2A70756  37.697  22.909   6.750
 9997POPC   C3A70757  37.690  22.961   7.050
 9997POPC   C4A70758  37.711  22.958   7.350
 9997POPC   C1B70759  37.861  22.771   6.450
 9997POPC   C2B70760  37.910  22.839   6.750
 9997POPC   C3B70761  37.888  22.789   7.050
 9997POPC   C4B70762  37.921  22.776   7.350
 9998POPC   NC370763  25.267  12.896   5.550
 9998POPC   PO470764  25.315  12.890   5.850
 9998POPC   GL170765  25.278  12.860   6.150
 9998POPC   GL270766  25.329  12.976   6.150
 9998POPC   C1A70767  25.228  12.846   6.450
 9998POPC   D2A70768  25.218  12.803   6.750
 9998POPC   C3A70769  25.279  12.856   7.050
 9998POPC   C4A70770  25.305  12.821   7.350
 9998POPC   C1B70771  25.450  13.084   6.450
 9998POPC   C2B70772  25.416  13.007   6.750
 9998POPC   C3B70773  25.372  13.005   7.050
 9998POPC   C4B70774  25.373  13.024   7.350
 9999POPC   NC370775  14.425  20.597   5.550
 9999POPC   PO470776  14.445  20.601   5.850
 9999POPC   GL170777  14.394  20.568   6.150
 9999POPC   GL270778  14.335  20.718   6.150
 9999POPC   C1A70779  14.400  20.599   6.450
 9999POPC   D2A70780  14.405  20.648   6.750
 9999POPC   C3A70781  14.451  20.634   7.050
 9999POPC   C4A70782  14.384  20.635   7.350
 9999POPC   C1B70783  14.275  20.862   6.450
 9999POPC   C2B70784  14.285  20.848   6.750
 9999POPC   C3B70785  14.282  20.814   7.050
 9999POPC   C4B70786  14.309  20.855   7.350
10000POPC   NC370787  35.373  22.901   5.550
10000POPC   PO470788  35.372  22.904   5.850
10000POPC   GL170789  35.346  22.945   6.150
10000POPC   GL270790  35.315  22.861   6.150
10000POPC   C1A70791  35.357  22.904   6.450
10000POPC   D2A70792  35.331  22.955   6.750
10000POPC   C3A70793  35.373  22.901   7.050
10000POPC   C4A70794  35.318  22.917   7.350
10000POPC   C1B70795  35.250  22.678   6.450
10000POPC   C2B70796  35.230  22.670   6.750
10000POPC   C3B70797  35.210  22.728   7.050
10000POPC   C4B70798  35.209  22.733   7.350
10001POPC   NC370799  21.412   0.477   5.550
10001POPC   PO470800  21.413   0.408   5.850
10001POPC   GL170801  21.373   0.393   6.150
10001POPC   GL270802  21.457   0.277   6.150
10001POPC   C1A70803  21.380   0.396   6.450
10001POPC   D2A70804  21.434   0.466   6.750
10001POPC   C3A70805  21.425   0.440   7.050
10001POPC   C4A70806  21.386   0.408   7.350
10001POPC   C1B70807  21.436   0.188   6.450
10001POPC   C2B70808  21.453   0.223   6.750
10001POPC   C3B70809  21.473   0.221   7.050
10001POPC   C4B70810  21.413   0.155   7.350
10002POPC   NC370811  11.251   7.443   5.550
10002POPC   PO470812  11.269   7.465   5.850
10002POPC   GL170813  11.331   7.449   6.150
10002POPC   GL270814  11.467   7.430   6.150
10002POPC   C1A70815  11.325   7.392   6.450
10002POPC   D2A70816  11.285   7.469   6.750
10002POPC   C3A70817  11.271   7.439   7.050
10002POPC   C4A70818  11.299   7.377   7.350
10002POPC   C1B70819  11.578   7.367   6.450
10002POPC   C2B70820  11.533   7.366   6.750
10002POPC   C3B70821  11.572   7.396   7.050
10002POPC   C4B70822  11.517   7.407   7.350
10003POPC   NC370823   6.676   9.000   5.550
10003POPC   PO470824   6.682   9.011   5.850
10003POPC   GL170825   6.644   8.926   6.150
10003POPC   GL270826   6.549   9.040   6.150
10003POPC   C1A70827   6.667   8.994   6.450
10003POPC   D2A70828   6.649   8.930   6.750
10003POPC   C3A70829   6.600   9.008   7.050
10003POPC   C4A70830   6.642   8.981   7.350
10003POPC   C1B70831   6.402   9.109   6.450
10003POPC   C2B70832   6.414   9.066   6.750
10003POPC   C3B70833   6.452   9.084   7.050
10003POPC   C4B70834   6.415   9.108   7.350
10004POPC   NC370835  19.814   0.480   5.550
10004POPC   PO470836  19.843   0.422   5.850
10004POPC   GL170837  19.884   0.435   6.150
10004POPC   GL270838  19.916   0.419   6.150
10004POPC   C1A70839  19.843   0.470   6.450
10004POPC   D2A70840  19.869   0.392   6.750
10004POPC   C3A70841  19.807   0.464   7.050
10004POPC   C4A70842  19.859   0.461   7.350
10004POPC   C1B70843  20.009   0.269   6.450
10004POPC   C2B70844  20.074   0.333   6.750
10004POPC   C3B70845  20.046   0.333   7.050
10004POPC   C4B70846  20.007   0.286   7.350
10005POPC   NC370847  10.557  22.983   5.550
10005POPC   PO470848  10.522  22.971   5.850
10005POPC   GL170849  10.556  22.983   6.150
10005POPC   GL270850  10.358  22.884   6.150
10005POPC   C1A70851  10.508  22.950   6.450
10005POPC   D2A70852  10.508  22.948   6.750
10005POPC   C3A70853  10.518  22.908   7.050
10005POPC   C4A70854  10.476  22.902   7.350
10005POPC   C1B70855  10.288  22.812   6.450
10005POPC   C2B70856  10.292  22.838   6.750
10005POPC   C3B70857  10.258  22.855   7.050
10005POPC   C4B70858  10.251  22.894   7.350
10006POPC   NC370859  27.570  10.508   5.550
10006POPC   PO470860  27.627  10.574   5.850
10006POPC   GL170861  27.569  10.532   6.150
10006POPC   GL270862  27.487  10.399   6.150
10006POPC   C1A70863  27.584  10.503   6.450
10006POPC   D2A70864  27.545  10.561   6.750
10006POPC   C3A70865  27.596  10.482   7.050
10006POPC   C4A70866  27.641  10.527   7.350
10006POPC   C1B70867  27.446  10.339   6.450
10006POPC   C2B70868  27.429  10.345   6.750
10006POPC   C3B70869  27.405  10.320   7.050
10006POPC   C4B70870  27.388  10.358   7.350
10007POPC   NC370871  31.498   8.933   5.550
10007POPC   PO470872  31.519   8.929   5.850
10007POPC   GL170873  31.471   8.967   6.150
10007POPC   GL270874  31.560   8.906   6.150
10007POPC   C1A70875  31.509   8.975   6.450
10007POPC   D2A70876  31.497   8.925   6.750
10007POPC   C3A70877  31.463   8.982   7.050
10007POPC   C4A70878  31.481   8.964   7.350
10007POPC   C1B70879  31.613   8.774   6.450
10007POPC   C2B70880  31.646   8.817   6.750
10007POPC   C3B70881  31.679   8.828   7.050
10007POPC   C4B70882  31.652   8.757   7.350
10008POPC   NC370883   4.306  42.305   5.550
10008POPC   PO470884   4.347  42.296   5.850
10008POPC   GL170885   4.337  42.326   6.150
10008POPC   GL270886   4.331  42.432   6.150
10008POPC   C1A70887   4.317  42.322   6.450
10008POPC   D2A70888   4.347  42.291   6.750
10008POPC   C3A70889   4.351  42.306   7.050
10008POPC   C4A70890   4.293  42.322   7.350
10008POPC   C1B70891   4.419  42.506   6.450
10008POPC   C2B70892   4.428  42.508   6.750
10008POPC   C3B70893   4.428  42.565   7.050
10008POPC   C4B70894   4.432  42.532   7.350
10009POPC   NC370895  14.439  37.712   5.550
10009POPC   PO470896  14.423  37.710   5.850
10009POPC   GL170897  14.430  37.638   6.150
10009POPC   GL270898  14.241  37.711   6.150
10009POPC   C1A70899  14.387  37.677   6.450
10009POPC   D2A70900  14.422  37.667   6.750
10009POPC   C3A70901  14.452  37.631   7.050
10009POPC   C4A70902  14.399  37.633   7.350
10009POPC   C1B70903  14.162  37.823   6.450
10009POPC   C2B70904  14.189  37.831   6.750
10009POPC   C3B70905  14.218  37.824   7.050
10009POPC   C4B70906  14.224  37.807   7.350
10010POPC   NC370907  26.043   3.591   5.550
10010POPC   PO470908  26.003   3.522   5.850
10010POPC   GL170909  26.042   3.563   6.150
10010POPC   GL270910  26.126   3.569   6.150
10010POPC   C1A70911  26.075   3.557   6.450
10010POPC   D2A70912  26.086   3.549   6.750
10010POPC   C3A70913  26.063   3.577   7.050
10010POPC   C4A70914  26.054   3.516   7.350
10010POPC   C1B70915  26.332   3.569   6.450
10010POPC   C2B70916  26.323   3.566   6.750
10010POPC   C3B70917  26.250   3.602   7.050
10010POPC   C4B70918  26.261   3.523   7.350
10011POPC   NC370919  34.541  43.072   5.550
10011POPC   PO470920  34.554  43.079   5.850
10011POPC   GL170921  34.613  43.076   6.150
10011POPC   GL270922  34.686  43.031   6.150
10011POPC   C1A70923  34.596  43.087   6.450
10011POPC   D2A70924  34.546  43.156   6.750
10011POPC   C3A70925  34.621  43.154   7.050
10011POPC   C4A70926  34.596  43.146   7.350
10011POPC   C1B70927  34.668  42.853   6.450
10011POPC   C2B70928  34.749  42.927   6.750
10011POPC   C3B70929  34.695  42.926   7.050
10011POPC   C4B70930  34.719  42.905   7.350
10012POPC   NC370931  30.668  31.471   5.550
10012POPC   PO470932  30.736  31.498   5.850
10012POPC   GL170933  30.699  31.424   6.150
10012POPC   GL270934  30.716  31.580   6.150
10012POPC   C1A70935  30.660  31.447   6.450
10012POPC   D2A70936  30.701  31.514   6.750
10012POPC   C3A70937  30.740  31.464   7.050
10012POPC   C4A70938  30.718  31.471   7.350
10012POPC   C1B70939  30.806  31.680   6.450
10012POPC   C2B70940  30.802  31.725   6.750
10012POPC   C3B70941  30.790  31.685   7.050
10012POPC   C4B70942  30.798  31.662   7.350
10013POPC   NC370943  13.648   1.237   5.550
10013POPC   PO470944  13.666   1.176   5.850
10013POPC   GL170945  13.627   1.189   6.150
10013POPC   GL270946  13.741   1.164   6.150
10013POPC   C1A70947  13.660   1.253   6.450
10013POPC   D2A70948  13.670   1.224   6.750
10013POPC   C3A70949  13.586   1.175   7.050
10013POPC   C4A70950  13.615   1.196   7.350
10013POPC   C1B70951  13.850   1.208   6.450
10013POPC   C2B70952  13.851   1.243   6.750
10013POPC   C3B70953  13.875   1.198   7.050
10013POPC   C4B70954  13.919   1.220   7.350
10014POPC   NC370955  40.798  31.427   5.550
10014POPC   PO470956  40.750  31.521   5.850
10014POPC   GL170957  40.800  31.493   6.150
10014POPC   GL270958  40.810  31.373   6.150
10014POPC   C1A70959  40.788  31.517   6.450
10014POPC   D2A70960  40.801  31.427   6.750
10014POPC   C3A70961  40.750  31.485   7.050
10014POPC   C4A70962  40.824  31.429   7.350
10014POPC   C1B70963  40.944  31.309   6.450
10014POPC   C2B70964  40.920  31.265   6.750
10014POPC   C3B70965  40.915  31.272   7.050
10014POPC   C4B70966  40.931  31.315   7.350
10015POPC   NC370967  37.640  44.647   5.550
10015POPC   PO470968  37.635  44.690   5.850
10015POPC   GL170969  37.722  44.712   6.150
10015POPC   GL270970  37.606  44.733   6.150
10015POPC   C1A70971  37.676  44.705   6.450
10015POPC   D2A70972  37.664  44.703   6.750
10015POPC   C3A70973  37.678  44.634   7.050
10015POPC   C4A70974  37.696  44.640   7.350
10015POPC   C1B70975  37.483  44.730   6.450
10015POPC   C2B70976  37.485  44.730   6.750
10015POPC   C3B70977  37.405  44.690   7.050
10015POPC   C4B70978  37.404  44.746   7.350
10016POPC   NC370979  17.490  13.595   5.550
10016POPC   PO470980  17.539  13.622   5.850
10016POPC   GL170981  17.480  13.613   6.150
10016POPC   GL270982  17.578  13.522   6.150
10016POPC   C1A70983  17.483  13.603   6.450
10016POPC   D2A70984  17.476  13.580   6.750
10016POPC   C3A70985  17.463  13.652   7.050
10016POPC   C4A70986  17.480  13.666   7.350
10016POPC   C1B70987  17.685  13.391   6.450
10016POPC   C2B70988  17.627  13.409   6.750
10016POPC   C3B70989  17.658  13.405   7.050
10016POPC   C4B70990  17.687  13.428   7.350
10017POPC   NC370991  22.903  12.118   5.550
10017POPC   PO470992  22.896  12.040   5.850
10017POPC   GL170993  22.931  12.046   6.150
10017POPC   GL270994  22.812  12.123   6.150
10017POPC   C1A70995  22.957  12.073   6.450
10017POPC   D2A70996  22.905  12.084   6.750
10017POPC   C3A70997  22.928  12.072   7.050
10017POPC   C4A70998  22.926  12.081   7.350
10017POPC   C1B70999  22.709  12.188   6.450
10017POPC   C2B71000  22.729  12.191   6.750
10017POPC   C3B71001  22.716  12.214   7.050
10017POPC   C4B71002  22.688  12.188   7.350
10018POPC   NC371003   9.762   2.808   5.550
10018POPC   PO471004   9.753   2.814   5.850
10018POPC   GL171005   9.793   2.728   6.150
10018POPC   GL271006   9.859   2.662   6.150
10018POPC   C1A71007   9.732   2.773   6.450
10018POPC   D2A71008   9.708   2.756   6.750
10018POPC   C3A71009   9.770   2.723   7.050
10018POPC   C4A71010   9.740   2.814   7.350
10018POPC   C1B71011   9.901   2.553   6.450
10018POPC   C2B71012   9.894   2.515   6.750
10018POPC   C3B71013   9.904   2.551   7.050
10018POPC   C4B71014   9.884   2.597   7.350
10019POPC   NC371015  28.359   6.609   5.550
10019POPC   PO471016  28.340   6.670   5.850
10019POPC   GL171017  28.408   6.639   6.150
10019POPC   GL271018  28.486   6.693   6.150
10019POPC   C1A71019  28.324   6.612   6.450
10019POPC   D2A71020  28.413   6.639   6.750
10019POPC   C3A71021  28.403   6.644   7.050
10019POPC   C4A71022  28.375   6.679   7.350
10019POPC   C1B71023  28.611   6.711   6.450
10019POPC   C2B71024  28.559   6.789   6.750
10019POPC   C3B71025  28.616   6.725   7.050
10019POPC   C4B71026  28.636   6.799   7.350
10020POPC   NC371027   6.622  17.512   5.550
10020POPC   PO471028   6.618  17.520   5.850
10020POPC   GL171029   6.677  17.478   6.150
10020POPC   GL271030   6.538  17.455   6.150
10020POPC   C1A71031   6.605  17.538   6.450
10020POPC   D2A71032   6.682  17.481   6.750
10020POPC   C3A71033   6.614  17.548   7.050
10020POPC   C4A71034   6.606  17.483   7.350
10020POPC   C1B71035   6.420  17.333   6.450
10020POPC   C2B71036   6.440  17.345   6.750
10020POPC   C3B71037   6.456  17.352   7.050
10020POPC   C4B71038   6.505  17.320   7.350
10021POPC   NC371039  12.027  29.121   5.550
10021POPC   PO471040  12.072  29.100   5.850
10021POPC   GL171041  12.062  29.149   6.150
10021POPC   GL271042  11.987  29.109   6.150
10021POPC   C1A71043  12.037  29.191   6.450
10021POPC   D2A71044  12.095  29.148   6.750
10021POPC   C3A71045  12.074  29.106   7.050
10021POPC   C4A71046  12.120  29.118   7.350
10021POPC   C1B71047  11.866  29.121   6.450
10021POPC   C2B71048  11.804  29.079   6.750
10021POPC   C3B71049  11.869  29.128   7.050
10021POPC   C4B71050  11.869  29.079   7.350
10022POPC   NC371051   7.440   7.379   5.550
10022POPC   PO471052   7.422   7.397   5.850
10022POPC   GL171053   7.434   7.378   6.150
10022POPC   GL271054   7.585   7.391   6.150
10022POPC   C1A71055   7.460   7.437   6.450
10022POPC   D2A71056   7.414   7.424   6.750
10022POPC   C3A71057   7.426   7.442   7.050
10022POPC   C4A71058   7.413   7.447   7.350
10022POPC   C1B71059   7.639   7.400   6.450
10022POPC   C2B71060   7.660   7.436   6.750
10022POPC   C3B71061   7.649   7.431   7.050
10022POPC   C4B71062   7.674   7.386   7.350
10023POPC   NC371063  39.273  34.556   5.550
10023POPC   PO471064  39.183  34.565   5.850
10023POPC   GL171065  39.244  34.611   6.150
10023POPC   GL271066  39.305  34.555   6.150
10023POPC   C1A71067  39.194  34.528   6.450
10023POPC   D2A71068  39.186  34.610   6.750
10023POPC   C3A71069  39.258  34.623   7.050
10023POPC   C4A71070  39.276  34.534   7.350
10023POPC   C1B71071  39.451  34.551   6.450
10023POPC   C2B71072  39.453  34.527   6.750
10023POPC   C3B71073  39.436  34.526   7.050
10023POPC   C4B71074  39.508  34.544   7.350
10024POPC   NC371075  36.121  37.680   5.550
10024POPC   PO471076  36.107  37.718   5.850
10024POPC   GL171077  36.153  37.714   6.150
10024POPC   GL271078  36.169  37.822   6.150
10024POPC   C1A71079  36.156  37.690   6.450
10024POPC   D2A71080  36.166  37.708   6.750
10024POPC   C3A71081  36.113  37.649   7.050
10024POPC   C4A71082  36.173  37.687   7.350
10024POPC   C1B71083  36.277  37.859   6.450
10024POPC   C2B71084  36.310  37.926   6.750
10024POPC   C3B71085  36.255  37.911   7.050
10024POPC   C4B71086  36.313  37.887   7.350
10025POPC   NC371087   5.060  12.065   5.550
10025POPC   PO471088   5.124  12.045   5.850
10025POPC   GL171089   5.054  12.097   6.150
10025POPC   GL271090   5.161  12.094   6.150
10025POPC   C1A71091   5.113  12.066   6.450
10025POPC   D2A71092   5.049  12.039   6.750
10025POPC   C3A71093   5.113  12.064   7.050
10025POPC   C4A71094   5.092  12.070   7.350
10025POPC   C1B71095   5.294  12.217   6.450
10025POPC   C2B71096   5.328  12.226   6.750
10025POPC   C3B71097   5.321  12.152   7.050
10025POPC   C4B71098   5.282  12.233   7.350
10026POPC   NC371099  12.037   8.969   5.550
10026POPC   PO471100  12.067   8.963   5.850
10026POPC   GL171101  12.113   8.959   6.150
10026POPC   GL271102  11.943   9.027   6.150
10026POPC   C1A71103  12.068   8.973   6.450
10026POPC   D2A71104  12.087   9.015   6.750
10026POPC   C3A71105  12.097   9.000   7.050
10026POPC   C4A71106  12.039   8.947   7.350
10026POPC   C1B71107  11.893   9.167   6.450
10026POPC   C2B71108  11.938   9.139   6.750
10026POPC   C3B71109  11.901   9.143   7.050
10026POPC   C4B71110  11.887   9.100   7.350
10027POPC   NC371111  39.254  15.145   5.550
10027POPC   PO471112  39.273  15.176   5.850
10027POPC   GL171113  39.198  15.161   6.150
10027POPC   GL271114  39.327  15.144   6.150
10027POPC   C1A71115  39.256  15.174   6.450
10027POPC   D2A71116  39.190  15.139   6.750
10027POPC   C3A71117  39.221  15.157   7.050
10027POPC   C4A71118  39.243  15.147   7.350
10027POPC   C1B71119  39.423  15.068   6.450
10027POPC   C2B71120  39.410  15.022   6.750
10027POPC   C3B71121  39.450  15.072   7.050
10027POPC   C4B71122  39.431  15.111   7.350
10028POPC   NC371123  31.429  20.594   5.550
10028POPC   PO471124  31.461  20.589   5.850
10028POPC   GL171125  31.510  20.587   6.150
10028POPC   GL271126  31.624  20.522   6.150
10028POPC   C1A71127  31.441  20.609   6.450
10028POPC   D2A71128  31.465  20.591   6.750
10028POPC   C3A71129  31.481  20.631   7.050
10028POPC   C4A71130  31.473  20.640   7.350
10028POPC   C1B71131  31.710  20.505   6.450
10028POPC   C2B71132  31.729  20.510   6.750
10028POPC   C3B71133  31.715  20.533   7.050
10028POPC   C4B71134  31.744  20.464   7.350
10029POPC   NC371135  43.876   6.597   5.550
10029POPC   PO471136  43.903   6.631   5.850
10029POPC   GL171137  43.915   6.598   6.150
10029POPC   GL271138  44.039   6.613   6.150
10029POPC   C1A71139  43.934   6.613   6.450
10029POPC   D2A71140  43.920   6.678   6.750
10029POPC   C3A71141  43.932   6.685   7.050
10029POPC   C4A71142  43.838   6.680   7.350
10029POPC   C1B71143  44.077   6.511   6.450
10029POPC   C2B71144  44.099   6.550   6.750
10029POPC   C3B71145  44.160   6.585   7.050
10029POPC   C4B71146  44.072   6.585   7.350
10030POPC   NC371147  39.194  20.565   5.550
10030POPC   PO471148  39.266  20.565   5.850
10030POPC   GL171149  39.189  20.621   6.150
10030POPC   GL271150  39.147  20.573   6.150
10030POPC   C1A71151  39.261  20.631   6.450
10030POPC   D2A71152  39.255  20.604   6.750
10030POPC   C3A71153  39.278  20.580   7.050
10030POPC   C4A71154  39.213  20.654   7.350
10030POPC   C1B71155  39.014  20.552   6.450
10030POPC   C2B71156  38.974  20.567   6.750
10030POPC   C3B71157  39.015  20.566   7.050
10030POPC   C4B71158  39.009  20.606   7.350
10031POPC   NC371159   2.747  11.254   5.550
10031POPC   PO471160   2.781  11.297   5.850
10031POPC   GL171161   2.717  11.258   6.150
10031POPC   GL271162   2.715  11.442   6.150
10031POPC   C1A71163   2.783  11.327   6.450
10031POPC   D2A71164   2.728  11.330   6.750
10031POPC   C3A71165   2.796  11.298   7.050
10031POPC   C4A71166   2.745  11.340   7.350
10031POPC   C1B71167   2.665  11.583   6.450
10031POPC   C2B71168   2.693  11.532   6.750
10031POPC   C3B71169   2.708  11.499   7.050
10031POPC   C4B71170   2.734  11.492   7.350
10032POPC   NC371171   5.090  19.092   5.550
10032POPC   PO471172   5.067  19.103   5.850
10032POPC   GL171173   5.118  19.066   6.150
10032POPC   GL271174   5.217  18.978   6.150
10032POPC   C1A71175   5.085  19.047   6.450
10032POPC   D2A71176   5.084  19.052   6.750
10032POPC   C3A71177   5.105  19.022   7.050
10032POPC   C4A71178   5.142  19.052   7.350
10032POPC   C1B71179   5.320  18.992   6.450
10032POPC   C2B71180   5.357  18.986   6.750
10032POPC   C3B71181   5.302  18.994   7.050
10032POPC   C4B71182   5.284  18.950   7.350
10033POPC   NC371183  32.983  29.178   5.550
10033POPC   PO471184  33.040  29.191   5.850
10033POPC   GL171185  33.014  29.158   6.150
10033POPC   GL271186  33.117  29.236   6.150
10033POPC   C1A71187  33.043  29.175   6.450
10033POPC   D2A71188  33.033  29.106   6.750
10033POPC   C3A71189  33.063  29.163   7.050
10033POPC   C4A71190  33.062  29.177   7.350
10033POPC   C1B71191  33.208  29.309   6.450
10033POPC   C2B71192  33.174  29.276   6.750
10033POPC   C3B71193  33.209  29.331   7.050
10033POPC   C4B71194  33.227  29.320   7.350
10034POPC   NC371195   5.141  13.630   5.550
10034POPC   PO471196   5.074  13.665   5.850
10034POPC   GL171197   5.123  13.647   6.150
10034POPC   GL271198   5.150  13.751   6.150
10034POPC   C1A71199   5.046  13.659   6.450
10034POPC   D2A71200   5.104  13.655   6.750
10034POPC   C3A71201   5.060  13.676   7.050
10034POPC   C4A71202   5.096  13.588   7.350
10034POPC   C1B71203   5.125  13.866   6.450
10034POPC   C2B71204   5.081  13.875   6.750
10034POPC   C3B71205   5.085  13.893   7.050
10034POPC   C4B71206   5.122  13.883   7.350
10035POPC   NC371207  32.994  32.980   5.550
10035POPC   PO471208  33.015  32.994   5.850
10035POPC   GL171209  33.042  33.032   6.150
10035POPC   GL271210  33.060  33.184   6.150
10035POPC   C1A71211  32.998  33.007   6.450
10035POPC   D2A71212  33.016  33.024   6.750
10035POPC   C3A71213  33.061  33.049   7.050
10035POPC   C4A71214  33.001  32.984   7.350
10035POPC   C1B71215  33.104  33.289   6.450
10035POPC   C2B71216  33.107  33.268   6.750
10035POPC   C3B71217  33.089  33.302   7.050
10035POPC   C4B71218  33.074  33.266   7.350
10036POPC   NC371219  35.352  28.334   5.550
10036POPC   PO471220  35.312  28.405   5.850
10036POPC   GL171221  35.372  28.412   6.150
10036POPC   GL271222  35.301  28.248   6.150
10036POPC   C1A71223  35.399  28.353   6.450
10036POPC   D2A71224  35.387  28.326   6.750
10036POPC   C3A71225  35.390  28.412   7.050
10036POPC   C4A71226  35.374  28.409   7.350
10036POPC   C1B71227  35.178  28.122   6.450
10036POPC   C2B71228  35.235  28.170   6.750
10036POPC   C3B71229  35.170  28.202   7.050
10036POPC   C4B71230  35.264  28.196   7.350
10037POPC   NC371231  23.684  36.924   5.550
10037POPC   PO471232  23.692  36.898   5.850
10037POPC   GL171233  23.756  36.948   6.150
10037POPC   GL271234  23.729  36.781   6.150
10037POPC   C1A71235  23.732  36.895   6.450
10037POPC   D2A71236  23.674  36.920   6.750
10037POPC   C3A71237  23.690  36.893   7.050
10037POPC   C4A71238  23.693  36.895   7.350
10037POPC   C1B71239  23.734  36.684   6.450
10037POPC   C2B71240  23.763  36.653   6.750
10037POPC   C3B71241  23.768  36.653   7.050
10037POPC   C4B71242  23.728  36.643   7.350
10038POPC   NC371243  11.316  33.044   5.550
10038POPC   PO471244  11.344  33.058   5.850
10038POPC   GL171245  11.300  33.012   6.150
10038POPC   GL271246  11.156  33.068   6.150
10038POPC   C1A71247  11.294  33.005   6.450
10038POPC   D2A71248  11.332  33.011   6.750
10038POPC   C3A71249  11.277  32.985   7.050
10038POPC   C4A71250  11.290  33.023   7.350
10038POPC   C1B71251  11.021  33.041   6.450
10038POPC   C2B71252  11.013  33.069   6.750
10038POPC   C3B71253  11.094  33.107   7.050
10038POPC   C4B71254  11.017  33.118   7.350
10039POPC   NC371255  26.084   7.466   5.550
10039POPC   PO471256  26.053   7.436   5.850
10039POPC   GL171257  26.024   7.438   6.150
10039POPC   GL271258  26.092   7.552   6.150
10039POPC   C1A71259  26.032   7.430   6.450
10039POPC   D2A71260  26.023   7.414   6.750
10039POPC   C3A71261  25.995   7.409   7.050
10039POPC   C4A71262  26.085   7.386   7.350
10039POPC   C1B71263  26.194   7.620   6.450
10039POPC   C2B71264  26.144   7.633   6.750
10039POPC   C3B71265  26.165   7.657   7.050
10039POPC   C4B71266  26.197   7.590   7.350
10040POPC   NC371267  17.492  33.058   5.550
10040POPC   PO471268  17.475  33.025   5.850
10040POPC   GL171269  17.504  32.991   6.150
10040POPC   GL271270  17.462  33.174   6.150
10040POPC   C1A71271  17.500  32.983   6.450
10040POPC   D2A71272  17.493  33.025   6.750
10040POPC   C3A71273  17.530  33.068   7.050
10040POPC   C4A71274  17.536  33.006   7.350
10040POPC   C1B71275  17.390  33.200   6.450
10040POPC   C2B71276  17.344  33.216   6.750
10040POPC   C3B71277  17.374  33.264   7.050
10040POPC   C4B71278  17.365  33.239   7.350
10041POPC   NC371279  42.300  32.202   5.550
10041POPC   PO471280  42.373  32.276   5.850
10041POPC   GL171281  42.381  32.235   6.150
10041POPC   GL271282  42.229  32.201   6.150
10041POPC   C1A71283  42.319  32.209   6.450
10041POPC   D2A71284  42.305  32.200   6.750
10041POPC   C3A71285  42.319  32.216   7.050
10041POPC   C4A71286  42.324  32.214   7.350
10041POPC   C1B71287  42.102  32.268   6.450
10041POPC   C2B71288  42.047  32.212   6.750
10041POPC   C3B71289  42.044  32.200   7.050
10041POPC   C4B71290  42.101  32.260   7.350
10042POPC   NC371291  43.929  42.360   5.550
10042POPC   PO471292  43.918  42.288   5.850
10042POPC   GL171293  43.868  42.340   6.150
10042POPC   GL271294  43.790  42.228   6.150
10042POPC   C1A71295  43.875  42.325   6.450
10042POPC   D2A71296  43.848  42.338   6.750
10042POPC   C3A71297  43.904  42.322   7.050
10042POPC   C4A71298  43.924  42.321   7.350
10042POPC   C1B71299  43.649  42.240   6.450
10042POPC   C2B71300  43.688  42.226   6.750
10042POPC   C3B71301  43.711  42.182   7.050
10042POPC   C4B71302  43.650  42.199   7.350
10043POPC   NC371303  31.477   0.411   5.550
10043POPC   PO471304  31.521   0.403   5.850
10043POPC   GL171305  31.449   0.419   6.150
10043POPC   GL271306  31.493   0.500   6.150
10043POPC   C1A71307  31.515   0.416   6.450
10043POPC   D2A71308  31.468   0.413   6.750
10043POPC   C3A71309  31.498   0.413   7.050
10043POPC   C4A71310  31.449   0.472   7.350
10043POPC   C1B71311  31.632   0.678   6.450
10043POPC   C2B71312  31.622   0.672   6.750
10043POPC   C3B71313  31.585   0.645   7.050
10043POPC   C4B71314  31.580   0.647   7.350
10044POPC   NC371315  43.854  19.834   5.550
10044POPC   PO471316  43.906  19.838   5.850
10044POPC   GL171317  43.906  19.846   6.150
10044POPC   GL271318  43.977  19.779   6.150
10044POPC   C1A71319  43.908  19.830   6.450
10044POPC   D2A71320  43.858  19.869   6.750
10044POPC   C3A71321  43.934  19.858   7.050
10044POPC   C4A71322  43.903  19.818   7.350
10044POPC   C1B71323  44.000  19.584   6.450
10044POPC   C2B71324  44.078  19.649   6.750
10044POPC   C3B71325  44.004  19.682   7.050
10044POPC   C4B71326  44.058  19.616   7.350
10045POPC   NC371327  12.088   8.244   5.550
10045POPC   PO471328  12.046   8.227   5.850
10045POPC   GL171329  12.032   8.213   6.150
10045POPC   GL271330  11.914   8.232   6.150
10045POPC   C1A71331  12.038   8.206   6.450
10045POPC   D2A71332  12.072   8.233   6.750
10045POPC   C3A71333  12.114   8.234   7.050
10045POPC   C4A71334  12.067   8.168   7.350
10045POPC   C1B71335  11.819   8.327   6.450
10045POPC   C2B71336  11.838   8.277   6.750
10045POPC   C3B71337  11.862   8.270   7.050
10045POPC   C4B71338  11.840   8.255   7.350
10046POPC   NC371339  23.707  12.119   5.550
10046POPC   PO471340  23.695  12.034   5.850
10046POPC   GL171341  23.672  12.040   6.150
10046POPC   GL271342  23.625  12.236   6.150
10046POPC   C1A71343  23.704  12.028   6.450
10046POPC   D2A71344  23.706  12.036   6.750
10046POPC   C3A71345  23.683  12.082   7.050
10046POPC   C4A71346  23.732  12.066   7.350
10046POPC   C1B71347  23.673  12.300   6.450
10046POPC   C2B71348  23.666  12.344   6.750
10046POPC   C3B71349  23.580  12.335   7.050
10046POPC   C4B71350  23.621  12.327   7.350
10047POPC   NC371351  11.341  28.409   5.550
10047POPC   PO471352  11.322  28.395   5.850
10047POPC   GL171353  11.271  28.331   6.150
10047POPC   GL271354  11.383  28.301   6.150
10047POPC   C1A71355  11.324  28.388   6.450
10047POPC   D2A71356  11.320  28.365   6.750
10047POPC   C3A71357  11.269  28.407   7.050
10047POPC   C4A71358  11.295  28.320   7.350
10047POPC   C1B71359  11.532  28.228   6.450
10047POPC   C2B71360  11.549  28.311   6.750
10047POPC   C3B71361  11.557  28.297   7.050
10047POPC   C4B71362  11.488  28.280   7.350
10048POPC   NC371363  23.751  33.803   5.550
10048POPC   PO471364  23.738  33.835   5.850
10048POPC   GL171365  23.749  33.799   6.150
10048POPC   GL271366  23.700  33.681   6.150
10048POPC   C1A71367  23.762  33.775   6.450
10048POPC   D2A71368  23.677  33.807   6.750
10048POPC   C3A71369  23.717  33.781   7.050
10048POPC   C4A71370  23.734  33.770   7.350
10048POPC   C1B71371  23.626  33.521   6.450
10048POPC   C2B71372  23.641  33.591   6.750
10048POPC   C3B71373  23.669  33.556   7.050
10048POPC   C4B71374  23.610  33.596   7.350
10049POPC   NC371375  11.283   5.067   5.550
10049POPC   PO471376  11.321   5.089   5.850
10049POPC   GL171377  11.286   5.127   6.150
10049POPC   GL271378  11.396   5.015   6.150
10049POPC   C1A71379  11.255   5.121   6.450
10049POPC   D2A71380  11.324   5.113   6.750
10049POPC   C3A71381  11.342   5.069   7.050
10049POPC   C4A71382  11.302   5.056   7.350
10049POPC   C1B71383  11.452   4.917   6.450
10049POPC   C2B71384  11.447   4.909   6.750
10049POPC   C3B71385  11.476   4.873   7.050
10049POPC   C4B71386  11.500   4.968   7.350
10050POPC   NC371387  33.759  29.946   5.550
10050POPC   PO471388  33.828  29.935   5.850
10050POPC   GL171389  33.794  29.925   6.150
10050POPC   GL271390  33.655  29.935   6.150
10050POPC   C1A71391  33.844  29.907   6.450
10050POPC   D2A71392  33.849  29.892   6.750
10050POPC   C3A71393  33.765  29.931   7.050
10050POPC   C4A71394  33.811  29.960   7.350
10050POPC   C1B71395  33.535  29.988   6.450
10050POPC   C2B71396  33.541  30.000   6.750
10050POPC   C3B71397  33.574  29.996   7.050
10050POPC   C4B71398  33.548  29.994   7.350
10051POPC   NC371399  27.630  42.336   5.550
10051POPC   PO471400  27.614  42.354   5.850
10051POPC   GL171401  27.593  42.337   6.150
10051POPC   GL271402  27.687  42.365   6.150
10051POPC   C1A71403  27.602  42.376   6.450
10051POPC   D2A71404  27.605  42.338   6.750
10051POPC   C3A71405  27.564  42.347   7.050
10051POPC   C4A71406  27.581  42.300   7.350
10051POPC   C1B71407  27.810  42.465   6.450
10051POPC   C2B71408  27.776  42.468   6.750
10051POPC   C3B71409  27.850  42.468   7.050
10051POPC   C4B71410  27.780  42.426   7.350
10052POPC   NC371411  23.720  25.298   5.550
10052POPC   PO471412  23.737  25.292   5.850
10052POPC   GL171413  23.738  25.221   6.150
10052POPC   GL271414  23.629  25.376   6.150
10052POPC   C1A71415  23.753  25.234   6.450
10052POPC   D2A71416  23.698  25.249   6.750
10052POPC   C3A71417  23.671  25.292   7.050
10052POPC   C4A71418  23.760  25.235   7.350
10052POPC   C1B71419  23.605  25.501   6.450
10052POPC   C2B71420  23.627  25.521   6.750
10052POPC   C3B71421  23.647  25.469   7.050
10052POPC   C4B71422  23.681  25.544   7.350
10053POPC   NC371423  15.969  18.331   5.550
10053POPC   PO471424  15.934  18.270   5.850
10053POPC   GL171425  15.989  18.330   6.150
10053POPC   GL271426  16.052  18.431   6.150
10053POPC   C1A71427  15.930  18.277   6.450
10053POPC   D2A71428  15.966  18.249   6.750
10053POPC   C3A71429  15.950  18.325   7.050
10053POPC   C4A71430  15.976  18.294   7.350
10053POPC   C1B71431  16.071  18.468   6.450
10053POPC   C2B71432  16.047  18.536   6.750
10053POPC   C3B71433  16.070  18.551   7.050
10053POPC   C4B71434  16.026  18.488   7.350
10054POPC   NC371435  20.563  40.825   5.550
10054POPC   PO471436  20.569  40.771   5.850
10054POPC   GL171437  20.583  40.740   6.150
10054POPC   GL271438  20.697  40.699   6.150
10054POPC   C1A71439  20.623  40.817   6.450
10054POPC   D2A71440  20.651  40.772   6.750
10054POPC   C3A71441  20.654  40.767   7.050
10054POPC   C4A71442  20.613  40.775   7.350
10054POPC   C1B71443  20.757  40.551   6.450
10054POPC   C2B71444  20.716  40.614   6.750
10054POPC   C3B71445  20.766  40.614   7.050
10054POPC   C4B71446  20.714  40.540   7.350
10055POPC   NC371447  25.290  31.494   5.550
10055POPC   PO471448  25.217  31.424   5.850
10055POPC   GL171449  25.264  31.428   6.150
10055POPC   GL271450  25.266  31.601   6.150
10055POPC   C1A71451  25.220  31.483   6.450
10055POPC   D2A71452  25.220  31.509   6.750
10055POPC   C3A71453  25.304  31.505   7.050
10055POPC   C4A71454  25.227  31.440   7.350
10055POPC   C1B71455  25.234  31.691   6.450
10055POPC   C2B71456  25.236  31.766   6.750
10055POPC   C3B71457  25.257  31.716   7.050
10055POPC   C4B71458  25.170  31.700   7.350
10056POPC   NC371459  41.587  41.543   5.550
10056POPC   PO471460  41.585  41.511   5.850
10056POPC   GL171461  41.573  41.533   6.150
10056POPC   GL271462  41.613  41.713   6.150
10056POPC   C1A71463  41.558  41.588   6.450
10056POPC   D2A71464  41.601  41.548   6.750
10056POPC   C3A71465  41.569  41.562   7.050
10056POPC   C4A71466  41.538  41.530   7.350
10056POPC   C1B71467  41.622  41.765   6.450
10056POPC   C2B71468  41.553  41.797   6.750
10056POPC   C3B71469  41.632  41.790   7.050
10056POPC   C4B71470  41.604  41.826   7.350
10057POPC   NC371471  22.907  19.863   5.550
10057POPC   PO471472  22.966  19.871   5.850
10057POPC   GL171473  22.925  19.823   6.150
10057POPC   GL271474  22.925  19.947   6.150
10057POPC   C1A71475  22.969  19.882   6.450
10057POPC   D2A71476  22.925  19.799   6.750
10057POPC   C3A71477  22.908  19.801   7.050
10057POPC   C4A71478  22.981  19.798   7.350
10057POPC   C1B71479  22.960  20.076   6.450
10057POPC   C2B71480  22.978  20.115   6.750
10057POPC   C3B71481  23.018  20.054   7.050
10057POPC   C4B71482  22.984  20.085   7.350
10058POPC   NC371483  30.657  39.255   5.550
10058POPC   PO471484  30.675  39.221   5.850
10058POPC   GL171485  30.672  39.228   6.150
10058POPC   GL271486  30.537  39.215   6.150
10058POPC   C1A71487  30.739  39.191   6.450
10058POPC   D2A71488  30.692  39.194   6.750
10058POPC   C3A71489  30.698  39.199   7.050
10058POPC   C4A71490  30.709  39.266   7.350
10058POPC   C1B71491  30.444  39.270   6.450
10058POPC   C2B71492  30.404  39.288   6.750
10058POPC   C3B71493  30.406  39.276   7.050
10058POPC   C4B71494  30.407  39.290   7.350
10059POPC   NC371495  24.529  34.581   5.550
10059POPC   PO471496  24.468  34.600   5.850
10059POPC   GL171497  24.535  34.615   6.150
10059POPC   GL271498  24.407  34.684   6.150
10059POPC   C1A71499  24.502  34.604   6.450
10059POPC   D2A71500  24.473  34.559   6.750
10059POPC   C3A71501  24.535  34.602   7.050
10059POPC   C4A71502  24.452  34.546   7.350
10059POPC   C1B71503  24.344  34.703   6.450
10059POPC   C2B71504  24.350  34.733   6.750
10059POPC   C3B71505  24.316  34.754   7.050
10059POPC   C4B71506  24.320  34.717   7.350
10060POPC   NC371507   8.225  43.839   5.550
10060POPC   PO471508   8.246  43.854   5.850
10060POPC   GL171509   8.236  43.853   6.150
10060POPC   GL271510   8.301  43.772   6.150
10060POPC   C1A71511   8.181  43.882   6.450
10060POPC   D2A71512   8.170  43.870   6.750
10060POPC   C3A71513   8.165  43.927   7.050
10060POPC   C4A71514   8.201  43.919   7.350
10060POPC   C1B71515   8.380  43.732   6.450
10060POPC   C2B71516   8.400  43.712   6.750
10060POPC   C3B71517   8.369  43.731   7.050
10060POPC   C4B71518   8.361  43.699   7.350
10061POPC   NC371519  13.623  38.453   5.550
10061POPC   PO471520  13.598  38.461   5.850
10061POPC   GL171521  13.667  38.450   6.150
10061POPC   GL271522  13.612  38.548   6.150
10061POPC   C1A71523  13.643  38.441   6.450
10061POPC   D2A71524  13.673  38.479   6.750
10061POPC   C3A71525  13.625  38.447   7.050
10061POPC   C4A71526  13.639  38.447   7.350
10061POPC   C1B71527  13.512  38.695   6.450
10061POPC   C2B71528  13.586  38.730   6.750
10061POPC   C3B71529  13.512  38.712   7.050
10061POPC   C4B71530  13.546  38.690   7.350
10062POPC   NC371531   0.468   9.003   5.550
10062POPC   PO471532   0.466   9.002   5.850
10062POPC   GL171533   0.479   8.929   6.150
10062POPC   GL271534   0.402   8.838   6.150
10062POPC   C1A71535   0.429   8.958   6.450
10062POPC   D2A71536   0.400   8.978   6.750
10062POPC   C3A71537   0.388   8.925   7.050
10062POPC   C4A71538   0.457   8.957   7.350
10062POPC   C1B71539   0.322   8.732   6.450
10062POPC   C2B71540   0.275   8.777   6.750
10062POPC   C3B71541   0.358   8.794   7.050
10062POPC   C4B71542   0.357   8.713   7.350
10063POPC   NC371543  26.037  25.241   5.550
10063POPC   PO471544  25.998  25.249   5.850
10063POPC   GL171545  26.055  25.234   6.150
10063POPC   GL271546  25.982  25.154   6.150
10063POPC   C1A71547  26.049  25.305   6.450
10063POPC   D2A71548  26.049  25.301   6.750
10063POPC   C3A71549  26.004  25.279   7.050
10063POPC   C4A71550  26.026  25.307   7.350
10063POPC   C1B71551  25.914  25.028   6.450
10063POPC   C2B71552  25.890  25.098   6.750
10063POPC   C3B71553  25.944  25.088   7.050
10063POPC   C4B71554  25.885  25.029   7.350
10064POPC   NC371555  18.281  27.610   5.550
10064POPC   PO471556  18.332  27.562   5.850
10064POPC   GL171557  18.233  27.594   6.150
10064POPC   GL271558  18.240  27.472   6.150
10064POPC   C1A71559  18.268  27.643   6.450
10064POPC   D2A71560  18.247  27.602   6.750
10064POPC   C3A71561  18.256  27.578   7.050
10064POPC   C4A71562  18.267  27.632   7.350
10064POPC   C1B71563  18.114  27.382   6.450
10064POPC   C2B71564  18.066  27.426   6.750
10064POPC   C3B71565  18.077  27.400   7.050
10064POPC   C4B71566  18.129  27.386   7.350
10065POPC   NC371567  31.479   8.239   5.550
10065POPC   PO471568  31.471   8.222   5.850
10065POPC   GL171569  31.513   8.225   6.150
10065POPC   GL271570  31.509   8.287   6.150
10065POPC   C1A71571  31.492   8.229   6.450
10065POPC   D2A71572  31.490   8.219   6.750
10065POPC   C3A71573  31.439   8.190   7.050
10065POPC   C4A71574  31.521   8.230   7.350
10065POPC   C1B71575  31.497   8.462   6.450
10065POPC   C2B71576  31.537   8.416   6.750
10065POPC   C3B71577  31.565   8.398   7.050
10065POPC   C4B71578  31.505   8.397   7.350
10066POPC   NC371579  36.122   8.958   5.550
10066POPC   PO471580  36.161   8.955   5.850
10066POPC   GL171581  36.091   8.956   6.150
10066POPC   GL271582  36.264   8.976   6.150
10066POPC   C1A71583  36.084   8.934   6.450
10066POPC   D2A71584  36.173   8.939   6.750
10066POPC   C3A71585  36.121   9.004   7.050
10066POPC   C4A71586  36.131   8.948   7.350
10066POPC   C1B71587  36.320   9.062   6.450
10066POPC   C2B71588  36.310   9.091   6.750
10066POPC   C3B71589  36.392   9.114   7.050
10066POPC   C4B71590  36.330   9.023   7.350
10067POPC   NC371591   6.623  26.027   5.550
10067POPC   PO471592   6.683  26.018   5.850
10067POPC   GL171593   6.685  26.085   6.150
10067POPC   GL271594   6.671  26.121   6.150
10067POPC   C1A71595   6.646  26.067   6.450
10067POPC   D2A71596   6.611  26.040   6.750
10067POPC   C3A71597   6.623  26.076   7.050
10067POPC   C4A71598   6.630  26.078   7.350
10067POPC   C1B71599   6.691  26.289   6.450
10067POPC   C2B71600   6.721  26.252   6.750
10067POPC   C3B71601   6.711  26.253   7.050
10067POPC   C4B71602   6.672  26.264   7.350
10068POPC   NC371603  14.429  44.666   5.550
10068POPC   PO471604  14.399  44.673   5.850
10068POPC   GL171605  14.379  44.663   6.150
10068POPC   GL271606  14.502  44.681   6.150
10068POPC   C1A71607  14.422  44.653   6.450
10068POPC   D2A71608  14.434  44.687   6.750
10068POPC   C3A71609  14.366  44.693   7.050
10068POPC   C4A71610  14.445  44.643   7.350
10068POPC   C1B71611  14.688  44.687   6.450
10068POPC   C2B71612  14.647  44.675   6.750
10068POPC   C3B71613  14.623  44.722   7.050
10068POPC   C4B71614  14.645  44.745   7.350
10069POPC   NC371615  25.283  14.443   5.550
10069POPC   PO471616  25.261  14.410   5.850
10069POPC   GL171617  25.228  14.438   6.150
10069POPC   GL271618  25.181  14.326   6.150
10069POPC   C1A71619  25.268  14.410   6.450
10069POPC   D2A71620  25.232  14.412   6.750
10069POPC   C3A71621  25.273  14.420   7.050
10069POPC   C4A71622  25.308  14.429   7.350
10069POPC   C1B71623  25.069  14.280   6.450
10069POPC   C2B71624  25.072  14.211   6.750
10069POPC   C3B71625  25.118  14.270   7.050
10069POPC   C4B71626  25.107  14.277   7.350
10070POPC   NC371627   4.361  18.256   5.550
10070POPC   PO471628   4.308  18.303   5.850
10070POPC   GL171629   4.323  18.277   6.150
10070POPC   GL271630   4.179  18.310   6.150
10070POPC   C1A71631   4.312  18.319   6.450
10070POPC   D2A71632   4.284  18.299   6.750
10070POPC   C3A71633   4.277  18.288   7.050
10070POPC   C4A71634   4.355  18.242   7.350
10070POPC   C1B71635   4.053  18.389   6.450
10070POPC   C2B71636   4.043  18.355   6.750
10070POPC   C3B71637   4.125  18.358   7.050
10070POPC   C4B71638   4.054  18.418   7.350
10071POPC   NC371639   5.131  44.670   5.550
10071POPC   PO471640   5.137  44.626   5.850
10071POPC   GL171641   5.119  44.676   6.150
10071POPC   GL271642   5.178  44.566   6.150
10071POPC   C1A71643   5.070  44.665   6.450
10071POPC   D2A71644   5.075  44.648   6.750
10071POPC   C3A71645   5.129  44.683   7.050
10071POPC   C4A71646   5.133  44.649   7.350
10071POPC   C1B71647   5.216  44.458   6.450
10071POPC   C2B71648   5.222  44.456   6.750
10071POPC   C3B71649   5.231  44.443   7.050
10071POPC   C4B71650   5.225  44.383   7.350
10072POPC   NC371651  17.506  29.171   5.550
10072POPC   PO471652  17.515  29.125   5.850
10072POPC   GL171653  17.528  29.189   6.150
10072POPC   GL271654  17.639  29.271   6.150
10072POPC   C1A71655  17.480  29.180   6.450
10072POPC   D2A71656  17.532  29.188   6.750
10072POPC   C3A71657  17.485  29.151   7.050
10072POPC   C4A71658  17.518  29.136   7.350
10072POPC   C1B71659  17.653  29.340   6.450
10072POPC   C2B71660  17.691  29.307   6.750
10072POPC   C3B71661  17.702  29.308   7.050
10072POPC   C4B71662  17.726  29.319   7.350
10073POPC   NC371663   8.982  19.847   5.550
10073POPC   PO471664   8.981  19.839   5.850
10073POPC   GL171665   9.009  19.841   6.150
10073POPC   GL271666   8.916  19.701   6.150
10073POPC   C1A71667   9.007  19.865   6.450
10073POPC   D2A71668   9.003  19.789   6.750
10073POPC   C3A71669   8.954  19.828   7.050
10073POPC   C4A71670   8.943  19.797   7.350
10073POPC   C1B71671   8.835  19.634   6.450
10073POPC   C2B71672   8.763  19.676   6.750
10073POPC   C3B71673   8.807  19.635   7.050
10073POPC   C4B71674   8.764  19.629   7.350
10074POPC   NC371675   9.724   6.682   5.550
10074POPC   PO471676   9.766   6.614   5.850
10074POPC   GL171677   9.726   6.671   6.150
10074POPC   GL271678   9.681   6.643   6.150
10074POPC   C1A71679   9.796   6.602   6.450
10074POPC   D2A71680   9.762   6.647   6.750
10074POPC   C3A71681   9.780   6.634   7.050
10074POPC   C4A71682   9.752   6.615   7.350
10074POPC   C1B71683   9.532   6.772   6.450
10074POPC   C2B71684   9.554   6.787   6.750
10074POPC   C3B71685   9.477   6.782   7.050
10074POPC   C4B71686   9.492   6.715   7.350
10075POPC   NC371687  26.002   9.794   5.550
10075POPC   PO471688  26.068   9.760   5.850
10075POPC   GL171689  26.072   9.782   6.150
10075POPC   GL271690  26.126   9.780   6.150
10075POPC   C1A71691  25.999   9.776   6.450
10075POPC   D2A71692  25.992   9.748   6.750
10075POPC   C3A71693  26.045   9.779   7.050
10075POPC   C4A71694  26.005   9.789   7.350
10075POPC   C1B71695  26.285   9.691   6.450
10075POPC   C2B71696  26.330   9.706   6.750
10075POPC   C3B71697  26.304   9.690   7.050
10075POPC   C4B71698  26.288   9.762   7.350
10076POPC   NC371699   2.030   8.157   5.550
10076POPC   PO471700   1.999   8.226   5.850
10076POPC   GL171701   2.020   8.160   6.150
10076POPC   GL271702   1.832   8.172   6.150
10076POPC   C1A71703   2.010   8.241   6.450
10076POPC   D2A71704   1.991   8.162   6.750
10076POPC   C3A71705   2.011   8.186   7.050
10076POPC   C4A71706   1.942   8.217   7.350
10076POPC   C1B71707   1.745   8.150   6.450
10076POPC   C2B71708   1.765   8.168   6.750
10076POPC   C3B71709   1.783   8.118   7.050
10076POPC   C4B71710   1.794   8.091   7.350
10077POPC   NC371711   8.202  31.444   5.550
10077POPC   PO471712   8.219  31.510   5.850
10077POPC   GL171713   8.216  31.455   6.150
10077POPC   GL271714   8.221  31.590   6.150
10077POPC   C1A71715   8.216  31.449   6.450
10077POPC   D2A71716   8.163  31.500   6.750
10077POPC   C3A71717   8.149  31.495   7.050
10077POPC   C4A71718   8.188  31.499   7.350
10077POPC   C1B71719   8.311  31.669   6.450
10077POPC   C2B71720   8.351  31.661   6.750
10077POPC   C3B71721   8.352  31.635   7.050
10077POPC   C4B71722   8.373  31.656   7.350
10078POPC   NC371723  36.878  38.428   5.550
10078POPC   PO471724  36.920  38.439   5.850
10078POPC   GL171725  36.882  38.495   6.150
10078POPC   GL271726  36.763  38.435   6.150
10078POPC   C1A71727  36.915  38.421   6.450
10078POPC   D2A71728  36.950  38.488   6.750
10078POPC   C3A71729  36.886  38.430   7.050
10078POPC   C4A71730  36.909  38.498   7.350
10078POPC   C1B71731  36.729  38.301   6.450
10078POPC   C2B71732  36.671  38.311   6.750
10078POPC   C3B71733  36.714  38.319   7.050
10078POPC   C4B71734  36.710  38.364   7.350
10079POPC   NC371735  10.503  17.501   5.550
10079POPC   PO471736  10.557  17.529   5.850
10079POPC   GL171737  10.502  17.487   6.150
10079POPC   GL271738  10.368  17.529   6.150
10079POPC   C1A71739  10.474  17.542   6.450
10079POPC   D2A71740  10.566  17.510   6.750
10079POPC   C3A71741  10.535  17.505   7.050
10079POPC   C4A71742  10.514  17.529   7.350
10079POPC   C1B71743  10.280  17.461   6.450
10079POPC   C2B71744  10.318  17.483   6.750
10079POPC   C3B71745  10.288  17.451   7.050
10079POPC   C4B71746  10.270  17.458   7.350
10080POPC   NC371747  39.199  15.929   5.550
10080POPC   PO471748  39.184  15.985   5.850
10080POPC   GL171749  39.249  15.964   6.150
10080POPC   GL271750  39.223  16.126   6.150
10080POPC   C1A71751  39.185  15.983   6.450
10080POPC   D2A71752  39.254  16.000   6.750
10080POPC   C3A71753  39.185  15.993   7.050
10080POPC   C4A71754  39.207  15.911   7.350
10080POPC   C1B71755  39.213  16.232   6.450
10080POPC   C2B71756  39.190  16.164   6.750
10080POPC   C3B71757  39.209  16.200   7.050
10080POPC   C4B71758  39.205  16.152   7.350
10081POPC   NC371759  42.291  12.842   5.550
10081POPC   PO471760  42.361  12.820   5.850
10081POPC   GL171761  42.372  12.818   6.150
10081POPC   GL271762  42.428  12.781   6.150
10081POPC   C1A71763  42.339  12.880   6.450
10081POPC   D2A71764  42.324  12.858   6.750
10081POPC   C3A71765  42.370  12.878   7.050
10081POPC   C4A71766  42.289  12.870   7.350
10081POPC   C1B71767  42.594  12.748   6.450
10081POPC   C2B71768  42.578  12.809   6.750
10081POPC   C3B71769  42.541  12.737   7.050
10081POPC   C4B71770  42.569  12.807   7.350
10082POPC   NC371771  39.981  24.459   5.550
10082POPC   PO471772  39.990  24.528   5.850
10082POPC   GL171773  39.978  24.536   6.150
10082POPC   GL271774  40.128  24.382   6.150
10082POPC   C1A71775  39.978  24.485   6.450
10082POPC   D2A71776  39.967  24.520   6.750
10082POPC   C3A71777  40.035  24.495   7.050
10082POPC   C4A71778  39.983  24.526   7.350
10082POPC   C1B71779  40.233  24.307   6.450
10082POPC   C2B71780  40.232  24.360   6.750
10082POPC   C3B71781  40.179  24.288   7.050
10082POPC   C4B71782  40.215  24.317   7.350
10083POPC   NC371783  31.468  30.680   5.550
10083POPC   PO471784  31.450  30.650   5.850
10083POPC   GL171785  31.489  30.663   6.150
10083POPC   GL271786  31.468  30.613   6.150
10083POPC   C1A71787  31.483  30.666   6.450
10083POPC   D2A71788  31.490  30.683   6.750
10083POPC   C3A71789  31.437  30.744   7.050
10083POPC   C4A71790  31.423  30.701   7.350
10083POPC   C1B71791  31.495  30.411   6.450
10083POPC   C2B71792  31.511  30.435   6.750
10083POPC   C3B71793  31.515  30.458   7.050
10083POPC   C4B71794  31.505  30.461   7.350
10084POPC   NC371795  17.512   3.509   5.550
10084POPC   PO471796  17.535   3.584   5.850
10084POPC   GL171797  17.477   3.567   6.150
10084POPC   GL271798  17.433   3.665   6.150
10084POPC   C1A71799  17.473   3.543   6.450
10084POPC   D2A71800  17.476   3.493   6.750
10084POPC   C3A71801  17.545   3.574   7.050
10084POPC   C4A71802  17.539   3.493   7.350
10084POPC   C1B71803  17.279   3.703   6.450
10084POPC   C2B71804  17.291   3.721   6.750
10084POPC   C3B71805  17.327   3.641   7.050
10084POPC   C4B71806  17.344   3.725   7.350
10085POPC   NC371807   8.959   7.462   5.550
10085POPC   PO471808   8.996   7.402   5.850
10085POPC   GL171809   8.949   7.396   6.150
10085POPC   GL271810   8.961   7.279   6.150
10085POPC   C1A71811   8.961   7.418   6.450
10085POPC   D2A71812   9.003   7.470   6.750
10085POPC   C3A71813   8.963   7.440   7.050
10085POPC   C4A71814   9.020   7.409   7.350
10085POPC   C1B71815   9.032   7.160   6.450
10085POPC   C2B71816   9.035   7.174   6.750
10085POPC   C3B71817   9.006   7.150   7.050
10085POPC   C4B71818   9.034   7.144   7.350
10086POPC   NC371819  16.737  14.406   5.550
10086POPC   PO471820  16.747  14.428   5.850
10086POPC   GL171821  16.771  14.427   6.150
10086POPC   GL271822  16.791  14.338   6.150
10086POPC   C1A71823  16.772  14.397   6.450
10086POPC   D2A71824  16.749  14.401   6.750
10086POPC   C3A71825  16.759  14.391   7.050
10086POPC   C4A71826  16.735  14.450   7.350
10086POPC   C1B71827  16.964  14.222   6.450
10086POPC   C2B71828  16.967  14.309   6.750
10086POPC   C3B71829  16.939  14.274   7.050
10086POPC   C4B71830  16.949  14.268   7.350
10087POPC   NC371831   1.247  15.959   5.550
10087POPC   PO471832   1.191  15.911   5.850
10087POPC   GL171833   1.255  15.942   6.150
10087POPC   GL271834   1.142  15.840   6.150
10087POPC   C1A71835   1.228  15.965   6.450
10087POPC   D2A71836   1.217  15.980   6.750
10087POPC   C3A71837   1.260  15.990   7.050
10087POPC   C4A71838   1.255  15.944   7.350
10087POPC   C1B71839   1.037  15.785   6.450
10087POPC   C2B71840   1.064  15.751   6.750
10087POPC   C3B71841   1.034  15.754   7.050
10087POPC   C4B71842   1.058  15.757   7.350
10088POPC   NC371843  20.604  11.297   5.550
10088POPC   PO471844  20.632  11.256   5.850
10088POPC   GL171845  20.647  11.340   6.150
10088POPC   GL271846  20.645  11.209   6.150
10088POPC   C1A71847  20.622  11.327   6.450
10088POPC   D2A71848  20.568  11.324   6.750
10088POPC   C3A71849  20.572  11.319   7.050
10088POPC   C4A71850  20.594  11.314   7.350
10088POPC   C1B71851  20.728  11.059   6.450
10088POPC   C2B71852  20.777  11.069   6.750
10088POPC   C3B71853  20.741  11.043   7.050
10088POPC   C4B71854  20.713  11.122   7.350
10089POPC   NC371855   7.377  32.226   5.550
10089POPC   PO471856   7.427  32.233   5.850
10089POPC   GL171857   7.396  32.250   6.150
10089POPC   GL271858   7.498  32.148   6.150
10089POPC   C1A71859   7.430  32.213   6.450
10089POPC   D2A71860   7.408  32.287   6.750
10089POPC   C3A71861   7.395  32.288   7.050
10089POPC   C4A71862   7.432  32.285   7.350
10089POPC   C1B71863   7.545  32.016   6.450
10089POPC   C2B71864   7.583  32.061   6.750
10089POPC   C3B71865   7.558  32.044   7.050
10089POPC   C4B71866   7.575  32.011   7.350
10090POPC   NC371867  39.264  33.831   5.550
10090POPC   PO471868  39.207  33.782   5.850
10090POPC   GL171869  39.220  33.755   6.150
10090POPC   GL271870  39.279  33.941   6.150
10090POPC   C1A71871  39.211  33.846   6.450
10090POPC   D2A71872  39.189  33.793   6.750
10090POPC   C3A71873  39.221  33.798   7.050
10090POPC   C4A71874  39.276  33.770   7.350
10090POPC   C1B71875  39.342  33.987   6.450
10090POPC   C2B71876  39.315  34.064   6.750
10090POPC   C3B71877  39.325  33.989   7.050
10090POPC   C4B71878  39.383  34.008   7.350
10091POPC   NC371879  24.471  43.080   5.550
10091POPC   PO471880  24.483  43.157   5.850
10091POPC   GL171881  24.484  43.065   6.150
10091POPC   GL271882  24.424  42.991   6.150
10091POPC   C1A71883  24.458  43.143   6.450
10091POPC   D2A71884  24.443  43.110   6.750
10091POPC   C3A71885  24.536  43.120   7.050
10091POPC   C4A71886  24.480  43.139   7.350
10091POPC   C1B71887  24.351  42.918   6.450
10091POPC   C2B71888  24.367  42.880   6.750
10091POPC   C3B71889  24.333  42.920   7.050
10091POPC   C4B71890  24.322  42.958   7.350
10092POPC   NC371891   5.904  43.862   5.550
10092POPC   PO471892   5.839  43.900   5.850
10092POPC   GL171893   5.821  43.865   6.150
10092POPC   GL271894   5.811  43.824   6.150
10092POPC   C1A71895   5.878  43.901   6.450
10092POPC   D2A71896   5.872  43.888   6.750
10092POPC   C3A71897   5.894  43.851   7.050
10092POPC   C4A71898   5.833  43.875   7.350
10092POPC   C1B71899   5.720  43.673   6.450
10092POPC   C2B71900   5.677  43.704   6.750
10092POPC   C3B71901   5.744  43.699   7.050
10092POPC   C4B71902   5.692  43.682   7.350
10093POPC   NC371903  13.583  19.833   5.550
10093POPC   PO471904  13.655  19.830   5.850
10093POPC   GL171905  13.617  19.855   6.150
10093POPC   GL271906  13.551  19.918   6.150
10093POPC   C1A71907  13.605  19.815   6.450
10093POPC   D2A71908  13.640  19.863   6.750
10093POPC   C3A71909  13.667  19.817   7.050
10093POPC   C4A71910  13.591  19.864   7.350
10093POPC   C1B71911  13.444  20.003   6.450
10093POPC   C2B71912  13.429  20.045   6.750
10093POPC   C3B71913  13.459  20.060   7.050
10093POPC   C4B71914  13.424  20.055   7.350
10094POPC   NC371915   4.301  21.421   5.550
10094POPC   PO471916   4.341  21.345   5.850
10094POPC   GL171917   4.300  21.430   6.150
10094POPC   GL271918   4.178  21.388   6.150
10094POPC   C1A71919   4.287  21.430   6.450
10094POPC   D2A71920   4.308  21.343   6.750
10094POPC   C3A71921   4.363  21.385   7.050
10094POPC   C4A71922   4.359  21.429   7.350
10094POPC   C1B71923   4.057  21.282   6.450
10094POPC   C2B71924   4.073  21.301   6.750
10094POPC   C3B71925   4.092  21.329   7.050
10094POPC   C4B71926   4.076  21.339   7.350
10095POPC   NC371927  36.111  43.878   5.550
10095POPC   PO471928  36.111  43.913   5.850
10095POPC   GL171929  36.087  43.874   6.150
10095POPC   GL271930  36.283  43.839   6.150
10095POPC   C1A71931  36.101  43.837   6.450
10095POPC   D2A71932  36.151  43.853   6.750
10095POPC   C3A71933  36.078  43.862   7.050
10095POPC   C4A71934  36.160  43.931   7.350
10095POPC   C1B71935  36.392  43.825   6.450
10095POPC   C2B71936  36.366  43.851   6.750
10095POPC   C3B71937  36.393  43.839   7.050
10095POPC   C4B71938  36.409  43.812   7.350
10096POPC   NC371939  21.403  44.625   5.550
10096POPC   PO471940  21.366  44.675   5.850
10096POPC   GL171941  21.375  44.682   6.150
10096POPC   GL271942  21.454  44.574   6.150
10096POPC   C1A71943  21.415  44.612   6.450
10096POPC   D2A71944  21.389  44.675   6.750
10096POPC   C3A71945  21.370  44.695   7.050
10096POPC   C4A71946  21.403  44.664   7.350
10096POPC   C1B71947  21.637  44.544   6.450
10096POPC   C2B71948  21.621  44.538   6.750
10096POPC   C3B71949  21.617  44.491   7.050
10096POPC   C4B71950  21.602  44.495   7.350
10097POPC   NC371951  44.670  43.933   5.550
10097POPC   PO471952  44.615  43.857   5.850
10097POPC   GL171953  44.704  43.930   6.150
10097POPC   GL271954  44.506  43.826   6.150
10097POPC   C1A71955  44.643  43.858   6.450
10097POPC   D2A71956  44.667  43.848   6.750
10097POPC   C3A71957  44.643  43.846   7.050
10097POPC   C4A71958  44.704  43.928   7.350
10097POPC   C1B71959  44.456  43.762   6.450
10097POPC   C2B71960  44.471  43.780   6.750
10097POPC   C3B71961  44.387  43.835   7.050
10097POPC   C4B71962  44.410  43.791   7.350
10098POPC   NC371963  24.537  32.230   5.550
10098POPC   PO471964  24.469  32.262   5.850
10098POPC   GL171965  24.498  32.239   6.150
10098POPC   GL271966  24.603  32.313   6.150
10098POPC   C1A71967  24.479  32.224   6.450
10098POPC   D2A71968  24.501  32.257   6.750
10098POPC   C3A71969  24.496  32.226   7.050
10098POPC   C4A71970  24.530  32.203   7.350
10098POPC   C1B71971  24.698  32.358   6.450
10098POPC   C2B71972  24.731  32.366   6.750
10098POPC   C3B71973  24.704  32.313   7.050
10098POPC   C4B71974  24.733  32.399   7.350
10099POPC   NC371975  43.110  11.328   5.550
10099POPC   PO471976  43.155  11.327   5.850
10099POPC   GL171977  43.079  11.278   6.150
10099POPC   GL271978  43.050  11.205   6.150
10099POPC   C1A71979  43.151  11.283   6.450
10099POPC   D2A71980  43.092  11.324   6.750
10099POPC   C3A71981  43.107  11.312   7.050
10099POPC   C4A71982  43.121  11.349   7.350
10099POPC   C1B71983  42.898  11.212   6.450
10099POPC   C2B71984  42.919  11.168   6.750
10099POPC   C3B71985  42.843  11.207   7.050
10099POPC   C4B71986  42.911  11.162   7.350
10100POPC   NC371987  26.014  11.312   5.550
10100POPC   PO471988  26.077  11.275   5.850
10100POPC   GL171989  26.086  11.348   6.150
10100POPC   GL271990  26.123  11.222   6.150
10100POPC   C1A71991  26.039  11.271   6.450
10100POPC   D2A71992  26.019  11.315   6.750
10100POPC   C3A71993  26.040  11.303   7.050
10100POPC   C4A71994  26.037  11.335   7.350
10100POPC   C1B71995  26.219  11.154   6.450
10100POPC   C2B71996  26.216  11.118   6.750
10100POPC   C3B71997  26.282  11.198   7.050
10100POPC   C4B71998  26.245  11.103   7.350
10101POPC   NC371999   5.099  28.389   5.550
10101POPC   PO472000   5.050  28.343   5.850
10101POPC   GL172001   5.139  28.415   6.150
10101POPC   GL272002   5.201  28.359   6.150
10101POPC   C1A72003   5.088  28.382   6.450
10101POPC   D2A72004   5.071  28.344   6.750
10101POPC   C3A72005   5.057  28.404   7.050
10101POPC   C4A72006   5.136  28.345   7.350
10101POPC   C1B72007   5.342  28.290   6.450
10101POPC   C2B72008   5.312  28.237   6.750
10101POPC   C3B72009   5.378  28.309   7.050
10101POPC   C4B72010   5.289  28.283   7.350
10102POPC   NC372011   8.148   2.807   5.550
10102POPC   PO472012   8.163   2.725   5.850
10102POPC   GL172013   8.201   2.718   6.150
10102POPC   GL272014   8.311   2.869   6.150
10102POPC   C1A72015   8.239   2.738   6.450
10102POPC   D2A72016   8.237   2.766   6.750
10102POPC   C3A72017   8.240   2.784   7.050
10102POPC   C4A72018   8.212   2.731   7.350
10102POPC   C1B72019   8.371   2.957   6.450
10102POPC   C2B72020   8.406   2.928   6.750
10102POPC   C3B72021   8.377   2.885   7.050
10102POPC   C4B72022   8.410   2.898   7.350
10103POPC   NC372023  31.498   3.525   5.550
10103POPC   PO472024  31.516   3.565   5.850
10103POPC   GL172025  31.513   3.540   6.150
10103POPC   GL272026  31.548   3.461   6.150
10103POPC   C1A72027  31.521   3.562   6.450
10103POPC   D2A72028  31.510   3.526   6.750
10103POPC   C3A72029  31.457   3.509   7.050
10103POPC   C4A72030  31.510   3.559   7.350
10103POPC   C1B72031  31.662   3.417   6.450
10103POPC   C2B72032  31.682   3.420   6.750
10103POPC   C3B72033  31.699   3.407   7.050
10103POPC   C4B72034  31.685   3.428   7.350
10104POPC   NC372035  12.833   7.428   5.550
10104POPC   PO472036  12.829   7.417   5.850
10104POPC   GL172037  12.849   7.432   6.150
10104POPC   GL272038  13.014   7.367   6.150
10104POPC   C1A72039  12.838   7.381   6.450
10104POPC   D2A72040  12.861   7.448   6.750
10104POPC   C3A72041  12.852   7.371   7.050
10104POPC   C4A72042  12.892   7.423   7.350
10104POPC   C1B72043  13.108   7.405   6.450
10104POPC   C2B72044  13.137   7.332   6.750
10104POPC   C3B72045  13.054   7.329   7.050
10104POPC   C4B72046  13.123   7.405   7.350
10105POPC   NC372047  29.875  27.577   5.550
10105POPC   PO472048  29.878  27.576   5.850
10105POPC   GL172049  29.960  27.588   6.150
10105POPC   GL272050  29.847  27.495   6.150
10105POPC   C1A72051  29.906  27.576   6.450
10105POPC   D2A72052  29.888  27.633   6.750
10105POPC   C3A72053  29.943  27.638   7.050
10105POPC   C4A72054  29.905  27.543   7.350
10105POPC   C1B72055  29.829  27.388   6.450
10105POPC   C2B72056  29.845  27.350   6.750
10105POPC   C3B72057  29.807  27.379   7.050
10105POPC   C4B72058  29.801  27.397   7.350
10106POPC   NC372059  44.692  39.200   5.550
10106POPC   PO472060  44.646  39.215   5.850
10106POPC   GL172061  44.648  39.236   6.150
10106POPC   GL272062  44.643  39.129   6.150
10106POPC   C1A72063  44.638  39.230   6.450
10106POPC   D2A72064  44.670  39.251   6.750
10106POPC   C3A72065  44.710  39.211   7.050
10106POPC   C4A72066  44.710  39.263   7.350
10106POPC   C1B72067  44.506  39.020   6.450
10106POPC   C2B72068  44.527  39.040   6.750
10106POPC   C3B72069  44.595  39.046   7.050
10106POPC   C4B72070  44.556  39.007   7.350
10107POPC   NC372071  27.636  40.791   5.550
10107POPC   PO472072  27.558  40.734   5.850
10107POPC   GL172073  27.581  40.785   6.150
10107POPC   GL272074  27.570  40.866   6.150
10107POPC   C1A72075  27.640  40.779   6.450
10107POPC   D2A72076  27.571  40.795   6.750
10107POPC   C3A72077  27.568  40.756   7.050
10107POPC   C4A72078  27.606  40.815   7.350
10107POPC   C1B72079  27.424  40.975   6.450
10107POPC   C2B72080  27.430  41.035   6.750
10107POPC   C3B72081  27.427  41.043   7.050
10107POPC   C4B72082  27.422  41.000   7.350
10108POPC   NC372083  24.530   4.318   5.550
10108POPC   PO472084  24.476   4.286   5.850
10108POPC   GL172085  24.522   4.361   6.150
10108POPC   GL272086  24.510   4.412   6.150
10108POPC   C1A72087  24.465   4.325   6.450
10108POPC   D2A72088  24.459   4.330   6.750
10108POPC   C3A72089  24.475   4.358   7.050
10108POPC   C4A72090  24.458   4.292   7.350
10108POPC   C1B72091  24.582   4.587   6.450
10108POPC   C2B72092  24.509   4.585   6.750
10108POPC   C3B72093  24.538   4.529   7.050
10108POPC   C4B72094  24.520   4.544   7.350
10109POPC   NC372095  15.944   5.862   5.550
10109POPC   PO472096  15.945   5.895   5.850
10109POPC   GL172097  15.969   5.825   6.150
10109POPC   GL272098  15.872   5.771   6.150
10109POPC   C1A72099  15.940   5.862   6.450
10109POPC   D2A72100  15.957   5.909   6.750
10109POPC   C3A72101  15.917   5.892   7.050
10109POPC   C4A72102  15.909   5.907   7.350
10109POPC   C1B72103  15.771   5.753   6.450
10109POPC   C2B72104  15.783   5.788   6.750
10109POPC   C3B72105  15.776   5.718   7.050
10109POPC   C4B72106  15.727   5.732   7.350
10110POPC   NC372107  37.669  19.870   5.550
10110POPC   PO472108  37.703  19.815   5.850
10110POPC   GL172109  37.718  19.846   6.150
10110POPC   GL272110  37.621  19.924   6.150
10110POPC   C1A72111  37.650  19.850   6.450
10110POPC   D2A72112  37.669  19.866   6.750
10110POPC   C3A72113  37.651  19.803   7.050
10110POPC   C4A72114  37.682  19.852   7.350
10110POPC   C1B72115  37.625  20.041   6.450
10110POPC   C2B72116  37.658  20.107   6.750
10110POPC   C3B72117  37.627  20.118   7.050
10110POPC   C4B72118  37.583  20.038   7.350
10111POPC   NC372119  44.701  13.610   5.550
10111POPC   PO472120  44.699  13.609   5.850
10111POPC   GL172121  44.672  13.660   6.150
10111POPC   GL272122  44.583  13.515   6.150
10111POPC   C1A72123  44.709  13.659   6.450
10111POPC   D2A72124  44.684  13.620   6.750
10111POPC   C3A72125  44.623  13.605   7.050
10111POPC   C4A72126  44.707  13.584   7.350
10111POPC   C1B72127  44.457  13.465   6.450
10111POPC   C2B72128  44.467  13.411   6.750
10111POPC   C3B72129  44.489  13.487   7.050
10111POPC   C4B72130  44.485  13.475   7.350
10112POPC   NC372131   5.133  26.033   5.550
10112POPC   PO472132   5.052  25.999   5.850
10112POPC   GL172133   5.077  26.076   6.150
10112POPC   GL272134   4.999  26.034   6.150
10112POPC   C1A72135   5.076  26.006   6.450
10112POPC   D2A72136   5.086  26.006   6.750
10112POPC   C3A72137   5.054  26.048   7.050
10112POPC   C4A72138   5.108  26.035   7.350
10112POPC   C1B72139   4.878  25.924   6.450
10112POPC   C2B72140   4.848  25.921   6.750
10112POPC   C3B72141   4.907  25.969   7.050
10112POPC   C4B72142   4.871  25.980   7.350
10113POPC   NC372143  43.143  38.504   5.550
10113POPC   PO472144  43.160  38.505   5.850
10113POPC   GL172145  43.067  38.474   6.150
10113POPC   GL272146  43.078  38.600   6.150
10113POPC   C1A72147  43.080  38.442   6.450
10113POPC   D2A72148  43.145  38.443   6.750
10113POPC   C3A72149  43.108  38.494   7.050
10113POPC   C4A72150  43.140  38.412   7.350
10113POPC   C1B72151  43.067  38.714   6.450
10113POPC   C2B72152  43.054  38.683   6.750
10113POPC   C3B72153  43.039  38.683   7.050
10113POPC   C4B72154  43.038  38.701   7.350
10114POPC   NC372155  29.952  39.194   5.550
10114POPC   PO472156  29.915  39.234   5.850
10114POPC   GL172157  29.957  39.264   6.150
10114POPC   GL272158  30.025  39.237   6.150
10114POPC   C1A72159  29.931  39.202   6.450
10114POPC   D2A72160  29.962  39.230   6.750
10114POPC   C3A72161  29.933  39.259   7.050
10114POPC   C4A72162  29.954  39.208   7.350
10114POPC   C1B72163  30.163  39.339   6.450
10114POPC   C2B72164  30.164  39.358   6.750
10114POPC   C3B72165  30.128  39.297   7.050
10114POPC   C4B72166  30.184  39.289   7.350
10115POPC   NC372167   1.974  38.436   5.550
10115POPC   PO472168   1.989  38.421   5.850
10115POPC   GL172169   2.003  38.412   6.150
10115POPC   GL272170   2.117  38.313   6.150
10115POPC   C1A72171   2.031  38.414   6.450
10115POPC   D2A72172   1.975  38.474   6.750
10115POPC   C3A72173   1.996  38.432   7.050
10115POPC   C4A72174   1.980  38.501   7.350
10115POPC   C1B72175   2.095  38.253   6.450
10115POPC   C2B72176   2.120  38.219   6.750
10115POPC   C3B72177   2.160  38.289   7.050
10115POPC   C4B72178   2.164  38.248   7.350
10116POPC   NC372179  20.569  37.674   5.550
10116POPC   PO472180  20.594  37.669   5.850
10116POPC   GL172181  20.636  37.710   6.150
10116POPC   GL272182  20.544  37.604   6.150
10116POPC   C1A72183  20.582  37.700   6.450
10116POPC   D2A72184  20.601  37.644   6.750
10116POPC   C3A72185  20.637  37.684   7.050
10116POPC   C4A72186  20.658  37.654   7.350
10116POPC   C1B72187  20.488  37.484   6.450
10116POPC   C2B72188  20.577  37.450   6.750
10116POPC   C3B72189  20.491  37.457   7.050
10116POPC   C4B72190  20.532  37.397   7.350
10117POPC   NC372191  18.267  24.530   5.550
10117POPC   PO472192  18.293  24.539   5.850
10117POPC   GL172193  18.281  24.520   6.150
10117POPC   GL272194  18.152  24.529   6.150
10117POPC   C1A72195  18.254  24.478   6.450
10117POPC   D2A72196  18.263  24.470   6.750
10117POPC   C3A72197  18.317  24.530   7.050
10117POPC   C4A72198  18.297  24.462   7.350
10117POPC   C1B72199  18.056  24.537   6.450
10117POPC   C2B72200  18.018  24.551   6.750
10117POPC   C3B72201  18.056  24.536   7.050
10117POPC   C4B72202  18.013  24.496   7.350
10118POPC   NC372203  40.792  44.676   5.550
10118POPC   PO472204  40.789  44.620   5.850
10118POPC   GL172205  40.813  44.681   6.150
10118POPC   GL272206  40.769  44.562   6.150
10118POPC   C1A72207  40.817  44.675   6.450
10118POPC   D2A72208  40.817  44.653   6.750
10118POPC   C3A72209  40.805  44.625   7.050
10118POPC   C4A72210  40.737  44.660   7.350
10118POPC   C1B72211  40.842  44.436   6.450
10118POPC   C2B72212  40.842  44.386   6.750
10118POPC   C3B72213  40.828  44.381   7.050
10118POPC   C4B72214  40.799  44.442   7.350
10119POPC   NC372215  43.840  13.672   5.550
10119POPC   PO472216  43.870  13.647   5.850
10119POPC   GL172217  43.908  13.594   6.150
10119POPC   GL272218  43.757  13.546   6.150
10119POPC   C1A72219  43.917  13.625   6.450
10119POPC   D2A72220  43.913  13.627   6.750
10119POPC   C3A72221  43.873  13.592   7.050
10119POPC   C4A72222  43.892  13.641   7.350
10119POPC   C1B72223  43.733  13.402   6.450
10119POPC   C2B72224  43.740  13.434   6.750
10119POPC   C3B72225  43.681  13.447   7.050
10119POPC   C4B72226  43.750  13.487   7.350
10120POPC   NC372227  26.081  38.505   5.550
10120POPC   PO472228  26.075  38.420   5.850
10120POPC   GL172229  26.087  38.481   6.150
10120POPC   GL272230  26.023  38.328   6.150
10120POPC   C1A72231  25.995  38.490   6.450
10120POPC   D2A72232  26.072  38.478   6.750
10120POPC   C3A72233  26.044  38.496   7.050
10120POPC   C4A72234  26.032  38.477   7.350
10120POPC   C1B72235  25.908  38.247   6.450
10120POPC   C2B72236  25.968  38.277   6.750
10120POPC   C3B72237  25.894  38.195   7.050
10120POPC   C4B72238  25.956  38.231   7.350
10121POPC   NC372239  41.540  42.315   5.550
10121POPC   PO472240  41.523  42.334   5.850
10121POPC   GL172241  41.564  42.307   6.150
10121POPC   GL272242  41.480  42.242   6.150
10121POPC   C1A72243  41.549  42.382   6.450
10121POPC   D2A72244  41.597  42.308   6.750
10121POPC   C3A72245  41.510  42.324   7.050
10121POPC   C4A72246  41.580  42.327   7.350
10121POPC   C1B72247  41.434  42.153   6.450
10121POPC   C2B72248  41.439  42.148   6.750
10121POPC   C3B72249  41.473  42.132   7.050
10121POPC   C4B72250  41.423  42.156   7.350
10122POPC   NC372251  37.726  37.648   5.550
10122POPC   PO472252  37.653  37.639   5.850
10122POPC   GL172253  37.680  37.697   6.150
10122POPC   GL272254  37.510  37.670   6.150
10122POPC   C1A72255  37.648  37.634   6.450
10122POPC   D2A72256  37.670  37.648   6.750
10122POPC   C3A72257  37.696  37.646   7.050
10122POPC   C4A72258  37.695  37.643   7.350
10122POPC   C1B72259  37.424  37.687   6.450
10122POPC   C2B72260  37.477  37.704   6.750
10122POPC   C3B72261  37.449  37.645   7.050
10122POPC   C4B72262  37.443  37.640   7.350
10123POPC   NC372263  33.054  19.846   5.550
10123POPC   PO472264  33.060  19.792   5.850
10123POPC   GL172265  33.000  19.804   6.150
10123POPC   GL272266  32.971  19.661   6.150
10123POPC   C1A72267  33.056  19.837   6.450
10123POPC   D2A72268  32.974  19.883   6.750
10123POPC   C3A72269  33.033  19.835   7.050
10123POPC   C4A72270  33.025  19.797   7.350
10123POPC   C1B72271  33.019  19.555   6.450
10123POPC   C2B72272  32.993  19.538   6.750
10123POPC   C3B72273  32.962  19.579   7.050
10123POPC   C4B72274  33.008  19.549   7.350
10124POPC   NC372275  26.024  39.261   5.550
10124POPC   PO472276  25.995  39.214   5.850
10124POPC   GL172277  26.064  39.272   6.150
10124POPC   GL272278  26.085  39.361   6.150
10124POPC   C1A72279  26.031  39.185   6.450
10124POPC   D2A72280  26.087  39.193   6.750
10124POPC   C3A72281  26.083  39.189   7.050
10124POPC   C4A72282  26.024  39.244   7.350
10124POPC   C1B72283  26.089  39.498   6.450
10124POPC   C2B72284  26.025  39.470   6.750
10124POPC   C3B72285  26.073  39.499   7.050
10124POPC   C4B72286  26.022  39.467   7.350
10125POPC   NC372287  40.739  35.354   5.550
10125POPC   PO472288  40.787  35.385   5.850
10125POPC   GL172289  40.799  35.401   6.150
10125POPC   GL272290  40.692  35.308   6.150
10125POPC   C1A72291  40.827  35.373   6.450
10125POPC   D2A72292  40.796  35.323   6.750
10125POPC   C3A72293  40.757  35.390   7.050
10125POPC   C4A72294  40.800  35.340   7.350
10125POPC   C1B72295  40.519  35.304   6.450
10125POPC   C2B72296  40.560  35.355   6.750
10125POPC   C3B72297  40.515  35.358   7.050
10125POPC   C4B72298  40.563  35.361   7.350
10126POPC   NC372299  33.025   2.723   5.550
10126POPC   PO472300  33.037   2.753   5.850
10126POPC   GL172301  32.975   2.729   6.150
10126POPC   GL272302  32.965   2.929   6.150
10126POPC   C1A72303  33.027   2.743   6.450
10126POPC   D2A72304  33.022   2.719   6.750
10126POPC   C3A72305  33.006   2.740   7.050
10126POPC   C4A72306  32.984   2.811   7.350
10126POPC   C1B72307  33.032   3.030   6.450
10126POPC   C2B72308  33.013   3.023   6.750
10126POPC   C3B72309  33.009   2.995   7.050
10126POPC   C4B72310  32.983   2.977   7.350
10127POPC   NC372311  25.224  17.500   5.550
10127POPC   PO472312  25.305  17.539   5.850
10127POPC   GL172313  25.282  17.536   6.150
10127POPC   GL272314  25.107  17.475   6.150
10127POPC   C1A72315  25.240  17.496   6.450
10127POPC   D2A72316  25.306  17.555   6.750
10127POPC   C3A72317  25.247  17.538   7.050
10127POPC   C4A72318  25.229  17.485   7.350
10127POPC   C1B72319  25.048  17.542   6.450
10127POPC   C2B72320  25.001  17.482   6.750
10127POPC   C3B72321  25.051  17.471   7.050
10127POPC   C4B72322  24.972  17.493   7.350
10128POPC   NC372323  22.144   4.348   5.550
10128POPC   PO472324  22.204   4.298   5.850
10128POPC   GL172325  22.146   4.272   6.150
10128POPC   GL272326  22.235   4.256   6.150
10128POPC   C1A72327  22.181   4.339   6.450
10128POPC   D2A72328  22.127   4.332   6.750
10128POPC   C3A72329  22.199   4.305   7.050
10128POPC   C4A72330  22.171   4.317   7.350
10128POPC   C1B72331  22.390   4.293   6.450
10128POPC   C2B72332  22.440   4.279   6.750
10128POPC   C3B72333  22.403   4.286   7.050
10128POPC   C4B72334  22.354   4.216   7.350
10129POPC   NC372335   4.287  11.320   5.550
10129POPC   PO472336   4.351  11.327   5.850
10129POPC   GL172337   4.345  11.272   6.150
10129POPC   GL272338   4.451  11.238   6.150
10129POPC   C1A72339   4.356  11.341   6.450
10129POPC   D2A72340   4.280  11.250   6.750
10129POPC   C3A72341   4.339  11.257   7.050
10129POPC   C4A72342   4.276  11.299   7.350
10129POPC   C1B72343   4.523  11.183   6.450
10129POPC   C2B72344   4.555  11.231   6.750
10129POPC   C3B72345   4.546  11.222   7.050
10129POPC   C4B72346   4.582  11.175   7.350
10130POPC   NC372347  32.985  21.436   5.550
10130POPC   PO472348  33.037  21.341   5.850
10130POPC   GL172349  33.051  21.384   6.150
10130POPC   GL272350  33.138  21.316   6.150
10130POPC   C1A72351  33.050  21.418   6.450
10130POPC   D2A72352  32.982  21.346   6.750
10130POPC   C3A72353  33.040  21.400   7.050
10130POPC   C4A72354  33.018  21.422   7.350
10130POPC   C1B72355  33.238  21.272   6.450
10130POPC   C2B72356  33.278  21.307   6.750
10130POPC   C3B72357  33.260  21.253   7.050
10130POPC   C4B72358  33.196  21.225   7.350
10131POPC   NC372359  39.985  32.232   5.550
10131POPC   PO472360  40.016  32.199   5.850
10131POPC   GL172361  40.033  32.260   6.150
10131POPC   GL272362  40.046  32.159   6.150
10131POPC   C1A72363  39.997  32.247   6.450
10131POPC   D2A72364  40.019  32.277   6.750
10131POPC   C3A72365  40.047  32.258   7.050
10131POPC   C4A72366  40.003  32.240   7.350
10131POPC   C1B72367  40.042  31.996   6.450
10131POPC   C2B72368  40.052  31.973   6.750
10131POPC   C3B72369  40.015  31.987   7.050
10131POPC   C4B72370  40.083  32.004   7.350
10132POPC   NC372371  33.073   9.009   5.550
10132POPC   PO472372  32.989   8.995   5.850
10132POPC   GL172373  33.049   8.951   6.150
10132POPC   GL272374  33.124   9.064   6.150
10132POPC   C1A72375  33.071   8.939   6.450
10132POPC   D2A72376  32.984   8.949   6.750
10132POPC   C3A72377  33.032   8.986   7.050
10132POPC   C4A72378  32.999   9.018   7.350
10132POPC   C1B72379  33.196   9.147   6.450
10132POPC   C2B72380  33.099   9.178   6.750
10132POPC   C3B72381  33.100   9.217   7.050
10132POPC   C4B72382  33.180   9.183   7.350
10133POPC   NC372383  31.461  22.187   5.550
10133POPC   PO472384  31.487  22.146   5.850
10133POPC   GL172385  31.519  22.176   6.150
10133POPC   GL272386  31.525  22.086   6.150
10133POPC   C1A72387  31.444  22.182   6.450
10133POPC   D2A72388  31.484  22.130   6.750
10133POPC   C3A72389  31.480  22.135   7.050
10133POPC   C4A72390  31.479  22.142   7.350
10133POPC   C1B72391  31.614  21.961   6.450
10133POPC   C2B72392  31.592  21.946   6.750
10133POPC   C3B72393  31.570  21.951   7.050
10133POPC   C4B72394  31.572  21.935   7.350
10134POPC   NC372395   3.534  32.975   5.550
10134POPC   PO472396   3.504  33.029   5.850
10134POPC   GL172397   3.550  33.047   6.150
10134POPC   GL272398   3.680  33.021   6.150
10134POPC   C1A72399   3.552  33.073   6.450
10134POPC   D2A72400   3.587  32.989   6.750
10134POPC   C3A72401   3.567  33.056   7.050
10134POPC   C4A72402   3.516  33.008   7.350
10134POPC   C1B72403   3.756  32.987   6.450
10134POPC   C2B72404   3.771  32.983   6.750
10134POPC   C3B72405   3.767  33.000   7.050
10134POPC   C4B72406   3.781  32.995   7.350
10135POPC   NC372407  26.065  17.528   5.550
10135POPC   PO472408  26.032  17.518   5.850
10135POPC   GL172409  26.018  17.497   6.150
10135POPC   GL272410  25.995  17.614   6.150
10135POPC   C1A72411  26.032  17.496   6.450
10135POPC   D2A72412  26.054  17.498   6.750
10135POPC   C3A72413  26.022  17.481   7.050
10135POPC   C4A72414  26.083  17.525   7.350
10135POPC   C1B72415  25.912  17.663   6.450
10135POPC   C2B72416  25.927  17.694   6.750
10135POPC   C3B72417  25.915  17.722   7.050
10135POPC   C4B72418  25.852  17.717   7.350
10136POPC   NC372419  16.758  21.350   5.550
10136POPC   PO472420  16.760  21.422   5.850
10136POPC   GL172421  16.722  21.384   6.150
10136POPC   GL272422  16.695  21.261   6.150
10136POPC   C1A72423  16.693  21.356   6.450
10136POPC   D2A72424  16.748  21.344   6.750
10136POPC   C3A72425  16.739  21.395   7.050
10136POPC   C4A72426  16.703  21.363   7.350
10136POPC   C1B72427  16.741  21.163   6.450
10136POPC   C2B72428  16.769  21.185   6.750
10136POPC   C3B72429  16.754  21.116   7.050
10136POPC   C4B72430  16.703  21.157   7.350
10137POPC   NC372431  22.893   2.026   5.550
10137POPC   PO472432  22.902   2.010   5.850
10137POPC   GL172433  22.915   2.037   6.150
10137POPC   GL272434  23.011   2.073   6.150
10137POPC   C1A72435  22.936   1.980   6.450
10137POPC   D2A72436  22.952   1.943   6.750
10137POPC   C3A72437  22.893   1.942   7.050
10137POPC   C4A72438  22.985   2.000   7.350
10137POPC   C1B72439  23.125   2.187   6.450
10137POPC   C2B72440  23.086   2.143   6.750
10137POPC   C3B72441  23.141   2.121   7.050
10137POPC   C4B72442  23.154   2.189   7.350
10138POPC   NC372443   7.394   8.953   5.550
10138POPC   PO472444   7.426   8.940   5.850
10138POPC   GL172445   7.422   9.012   6.150
10138POPC   GL272446   7.360   9.120   6.150
10138POPC   C1A72447   7.394   8.956   6.450
10138POPC   D2A72448   7.373   8.993   6.750
10138POPC   C3A72449   7.451   8.936   7.050
10138POPC   C4A72450   7.453   8.925   7.350
10138POPC   C1B72451   7.374   9.261   6.450
10138POPC   C2B72452   7.326   9.163   6.750
10138POPC   C3B72453   7.355   9.250   7.050
10138POPC   C4B72454   7.365   9.177   7.350
10139POPC   NC372455  43.843   8.936   5.550
10139POPC   PO472456  43.889   9.011   5.850
10139POPC   GL172457  43.897   9.003   6.150
10139POPC   GL272458  43.777   8.839   6.150
10139POPC   C1A72459  43.930   8.935   6.450
10139POPC   D2A72460  43.878   8.929   6.750
10139POPC   C3A72461  43.917   8.960   7.050
10139POPC   C4A72462  43.843   9.012   7.350
10139POPC   C1B72463  43.679   8.740   6.450
10139POPC   C2B72464  43.679   8.752   6.750
10139POPC   C3B72465  43.755   8.773   7.050
10139POPC   C4B72466  43.720   8.818   7.350
10140POPC   NC372467   0.443  12.044   5.550
10140POPC   PO472468   0.391  12.075   5.850
10140POPC   GL172469   0.458  12.068   6.150
10140POPC   GL272470   0.545  11.963   6.150
10140POPC   C1A72471   0.435  12.120   6.450
10140POPC   D2A72472   0.416  12.051   6.750
10140POPC   C3A72473   0.398  12.037   7.050
10140POPC   C4A72474   0.479  12.041   7.350
10140POPC   C1B72475   0.517  11.819   6.450
10140POPC   C2B72476   0.596  11.877   6.750
10140POPC   C3B72477   0.565  11.807   7.050
10140POPC   C4B72478   0.551  11.894   7.350
10141POPC   NC372479  26.023  26.008   5.550
10141POPC   PO472480  26.034  26.072   5.850
10141POPC   GL172481  26.020  26.016   6.150
10141POPC   GL272482  25.868  26.027   6.150
10141POPC   C1A72483  26.028  26.002   6.450
10141POPC   D2A72484  26.030  25.994   6.750
10141POPC   C3A72485  26.017  26.013   7.050
10141POPC   C4A72486  26.034  26.029   7.350
10141POPC   C1B72487  25.804  26.046   6.450
10141POPC   C2B72488  25.807  26.030   6.750
10141POPC   C3B72489  25.782  26.005   7.050
10141POPC   C4B72490  25.803  26.008   7.350
10142POPC   NC372491  10.495   5.828   5.550
10142POPC   PO472492  10.492   5.890   5.850
10142POPC   GL172493  10.547   5.886   6.150
10142POPC   GL272494  10.405   5.859   6.150
10142POPC   C1A72495  10.572   5.899   6.450
10142POPC   D2A72496  10.498   5.868   6.750
10142POPC   C3A72497  10.530   5.820   7.050
10142POPC   C4A72498  10.567   5.848   7.350
10142POPC   C1B72499  10.308   5.778   6.450
10142POPC   C2B72500  10.299   5.809   6.750
10142POPC   C3B72501  10.291   5.816   7.050
10142POPC   C4B72502  10.256   5.750   7.350
10143POPC   NC372503   3.512  18.260   5.550
10143POPC   PO472504   3.517  18.297   5.850
10143POPC   GL172505   3.591  18.242   6.150
10143POPC   GL272506   3.475  18.184   6.150
10143POPC   C1A72507   3.526  18.283   6.450
10143POPC   D2A72508   3.575  18.245   6.750
10143POPC   C3A72509   3.539  18.326   7.050
10143POPC   C4A72510   3.559  18.259   7.350
10143POPC   C1B72511   3.342  18.110   6.450
10143POPC   C2B72512   3.361  18.145   6.750
10143POPC   C3B72513   3.290  18.182   7.050
10143POPC   C4B72514   3.301  18.101   7.350
10144POPC   NC372515  13.602  30.648   5.550
10144POPC   PO472516  13.617  30.722   5.850
10144POPC   GL172517  13.643  30.720   6.150
10144POPC   GL272518  13.540  30.599   6.150
10144POPC   C1A72519  13.653  30.667   6.450
10144POPC   D2A72520  13.639  30.741   6.750
10144POPC   C3A72521  13.617  30.676   7.050
10144POPC   C4A72522  13.617  30.740   7.350
10144POPC   C1B72523  13.459  30.455   6.450
10144POPC   C2B72524  13.502  30.502   6.750
10144POPC   C3B72525  13.512  30.519   7.050
10144POPC   C4B72526  13.473  30.469   7.350
10145POPC   NC372527  39.958  26.063   5.550
10145POPC   PO472528  40.054  26.026   5.850
10145POPC   GL172529  40.031  25.996   6.150
10145POPC   GL272530  39.876  26.123   6.150
10145POPC   C1A72531  39.979  26.032   6.450
10145POPC   D2A72532  40.010  26.070   6.750
10145POPC   C3A72533  40.004  26.019   7.050
10145POPC   C4A72534  40.030  26.061   7.350
10145POPC   C1B72535  39.789  26.192   6.450
10145POPC   C2B72536  39.810  26.258   6.750
10145POPC   C3B72537  39.793  26.208   7.050
10145POPC   C4B72538  39.852  26.218   7.350
10146POPC   NC372539  20.565  28.363   5.550
10146POPC   PO472540  20.567  28.398   5.850
10146POPC   GL172541  20.655  28.367   6.150
10146POPC   GL272542  20.690  28.289   6.150
10146POPC   C1A72543  20.613  28.344   6.450
10146POPC   D2A72544  20.647  28.389   6.750
10146POPC   C3A72545  20.649  28.359   7.050
10146POPC   C4A72546  20.568  28.411   7.350
10146POPC   C1B72547  20.833  28.152   6.450
10146POPC   C2B72548  20.786  28.184   6.750
10146POPC   C3B72549  20.785  28.165   7.050
10146POPC   C4B72550  20.789  28.222   7.350
10147POPC   NC372551   5.045   9.702   5.550
10147POPC   PO472552   5.081   9.702   5.850
10147POPC   GL172553   5.141   9.734   6.150
10147POPC   GL272554   5.220   9.783   6.150
10147POPC   C1A72555   5.117   9.723   6.450
10147POPC   D2A72556   5.082   9.787   6.750
10147POPC   C3A72557   5.120   9.719   7.050
10147POPC   C4A72558   5.080   9.719   7.350
10147POPC   C1B72559   5.382   9.739   6.450
10147POPC   C2B72560   5.356   9.773   6.750
10147POPC   C3B72561   5.305   9.786   7.050
10147POPC   C4B72562   5.306   9.819   7.350
10148POPC   NC372563  11.344  40.006   5.550
10148POPC   PO472564  11.330  39.978   5.850
10148POPC   GL172565  11.280  39.998   6.150
10148POPC   GL272566  11.399  39.894   6.150
10148POPC   C1A72567  11.308  40.052   6.450
10148POPC   D2A72568  11.338  40.025   6.750
10148POPC   C3A72569  11.271  40.009   7.050
10148POPC   C4A72570  11.298  40.050   7.350
10148POPC   C1B72571  11.447  39.794   6.450
10148POPC   C2B72572  11.415  39.755   6.750
10148POPC   C3B72573  11.434  39.738   7.050
10148POPC   C4B72574  11.384  39.808   7.350
10149POPC   NC372575  40.744  13.644   5.550
10149POPC   PO472576  40.829  13.608   5.850
10149POPC   GL172577  40.782  13.669   6.150
10149POPC   GL272578  40.759  13.559   6.150
10149POPC   C1A72579  40.819  13.667   6.450
10149POPC   D2A72580  40.737  13.674   6.750
10149POPC   C3A72581  40.802  13.641   7.050
10149POPC   C4A72582  40.788  13.597   7.350
10149POPC   C1B72583  40.659  13.372   6.450
10149POPC   C2B72584  40.640  13.403   6.750
10149POPC   C3B72585  40.715  13.419   7.050
10149POPC   C4B72586  40.694  13.444   7.350
10150POPC   NC372587  23.675  21.360   5.550
10150POPC   PO472588  23.719  21.357   5.850
10150POPC   GL172589  23.672  21.353   6.150
10150POPC   GL272590  23.740  21.293   6.150
10150POPC   C1A72591  23.706  21.341   6.450
10150POPC   D2A72592  23.747  21.367   6.750
10150POPC   C3A72593  23.753  21.413   7.050
10150POPC   C4A72594  23.680  21.382   7.350
10150POPC   C1B72595  23.830  21.133   6.450
10150POPC   C2B72596  23.845  21.176   6.750
10150POPC   C3B72597  23.803  21.203   7.050
10150POPC   C4B72598  23.875  21.148   7.350
10151POPC   NC372599  13.655  31.486   5.550
10151POPC   PO472600  13.645  31.499   5.850
10151POPC   GL172601  13.609  31.451   6.150
10151POPC   GL272602  13.619  31.593   6.150
10151POPC   C1A72603  13.604  31.496   6.450
10151POPC   D2A72604  13.639  31.443   6.750
10151POPC   C3A72605  13.657  31.498   7.050
10151POPC   C4A72606  13.641  31.430   7.350
10151POPC   C1B72607  13.635  31.754   6.450
10151POPC   C2B72608  13.665  31.719   6.750
10151POPC   C3B72609  13.687  31.705   7.050
10151POPC   C4B72610  13.658  31.688   7.350
10152POPC   NC372611  10.519  18.306   5.550
10152POPC   PO472612  10.534  18.235   5.850
10152POPC   GL172613  10.538  18.316   6.150
10152POPC   GL272614  10.467  18.357   6.150
10152POPC   C1A72615  10.514  18.326   6.450
10152POPC   D2A72616  10.506  18.290   6.750
10152POPC   C3A72617  10.542  18.241   7.050
10152POPC   C4A72618  10.502  18.325   7.350
10152POPC   C1B72619  10.500  18.571   6.450
10152POPC   C2B72620  10.482  18.556   6.750
10152POPC   C3B72621  10.469  18.573   7.050
10152POPC   C4B72622  10.429  18.570   7.350
10153POPC   NC372623   3.565  17.486   5.550
10153POPC   PO472624   3.539  17.518   5.850
10153POPC   GL172625   3.504  17.534   6.150
10153POPC   GL272626   3.389  17.490   6.150
10153POPC   C1A72627   3.548  17.521   6.450
10153POPC   D2A72628   3.586  17.534   6.750
10153POPC   C3A72629   3.513  17.459   7.050
10153POPC   C4A72630   3.555  17.517   7.350
10153POPC   C1B72631   3.297  17.534   6.450
10153POPC   C2B72632   3.263  17.496   6.750
10153POPC   C3B72633   3.290  17.546   7.050
10153POPC   C4B72634   3.260  17.507   7.350
10154POPC   NC372635   7.463   1.993   5.550
10154POPC   PO472636   7.417   1.973   5.850
10154POPC   GL172637   7.428   1.975   6.150
10154POPC   GL272638   7.329   1.961   6.150
10154POPC   C1A72639   7.465   2.027   6.450
10154POPC   D2A72640   7.469   2.036   6.750
10154POPC   C3A72641   7.421   2.019   7.050
10154POPC   C4A72642   7.420   1.984   7.350
10154POPC   C1B72643   7.153   2.036   6.450
10154POPC   C2B72644   7.154   1.978   6.750
10154POPC   C3B72645   7.201   2.025   7.050
10154POPC   C4B72646   7.160   1.957   7.350
10155POPC   NC372647  26.066  16.727   5.550
10155POPC   PO472648  26.051  16.732   5.850
10155POPC   GL172649  26.036  16.748   6.150
10155POPC   GL272650  26.077  16.806   6.150
10155POPC   C1A72651  26.006  16.707   6.450
10155POPC   D2A72652  26.019  16.730   6.750
10155POPC   C3A72653  26.038  16.693   7.050
10155POPC   C4A72654  26.003  16.761   7.350
10155POPC   C1B72655  26.134  16.951   6.450
10155POPC   C2B72656  26.160  16.971   6.750
10155POPC   C3B72657  26.141  16.995   7.050
10155POPC   C4B72658  26.152  16.943   7.350
10156POPC   NC372659   5.913  12.853   5.550
10156POPC   PO472660   5.914  12.826   5.850
10156POPC   GL172661   5.878  12.888   6.150
10156POPC   GL272662   6.007  12.938   6.150
10156POPC   C1A72663   5.829  12.858   6.450
10156POPC   D2A72664   5.878  12.893   6.750
10156POPC   C3A72665   5.901  12.823   7.050
10156POPC   C4A72666   5.910  12.826   7.350
10156POPC   C1B72667   6.076  12.937   6.450
10156POPC   C2B72668   6.123  12.973   6.750
10156POPC   C3B72669   6.049  12.988   7.050
10156POPC   C4B72670   6.112  13.020   7.350
10157POPC   NC372671  19.831  41.563   5.550
10157POPC   PO472672  19.812  41.522   5.850
10157POPC   GL172673  19.808  41.561   6.150
10157POPC   GL272674  19.950  41.647   6.150
10157POPC   C1A72675  19.804  41.593   6.450
10157POPC   D2A72676  19.849  41.584   6.750
10157POPC   C3A72677  19.877  41.538   7.050
10157POPC   C4A72678  19.831  41.595   7.350
10157POPC   C1B72679  20.023  41.719   6.450
10157POPC   C2B72680  19.962  41.711   6.750
10157POPC   C3B72681  19.950  41.729   7.050
10157POPC   C4B72682  19.961  41.735   7.350
10158POPC   NC372683  39.978   9.734   5.550
10158POPC   PO472684  40.011   9.701   5.850
10158POPC   GL172685  40.053   9.706   6.150
10158POPC   GL272686  39.871   9.702   6.150
10158POPC   C1A72687  40.005   9.719   6.450
10158POPC   D2A72688  40.006   9.795   6.750
10158POPC   C3A72689  39.978   9.792   7.050
10158POPC   C4A72690  40.034   9.701   7.350
10158POPC   C1B72691  39.806   9.579   6.450
10158POPC   C2B72692  39.816   9.623   6.750
10158POPC   C3B72693  39.834   9.599   7.050
10158POPC   C4B72694  39.774   9.559   7.350
10159POPC   NC372695  29.111   4.278   5.550
10159POPC   PO472696  29.119   4.311   5.850
10159POPC   GL172697  29.181   4.316   6.150
10159POPC   GL272698  29.202   4.210   6.150
10159POPC   C1A72699  29.165   4.316   6.450
10159POPC   D2A72700  29.144   4.282   6.750
10159POPC   C3A72701  29.129   4.289   7.050
10159POPC   C4A72702  29.182   4.310   7.350
10159POPC   C1B72703  29.371   4.144   6.450
10159POPC   C2B72704  29.374   4.126   6.750
10159POPC   C3B72705  29.291   4.134   7.050
10159POPC   C4B72706  29.340   4.155   7.350
10160POPC   NC372707  24.493  13.662   5.550
10160POPC   PO472708  24.499  13.639   5.850
10160POPC   GL172709  24.443  13.589   6.150
10160POPC   GL272710  24.506  13.775   6.150
10160POPC   C1A72711  24.531  13.656   6.450
10160POPC   D2A72712  24.517  13.642   6.750
10160POPC   C3A72713  24.440  13.624   7.050
10160POPC   C4A72714  24.463  13.667   7.350
10160POPC   C1B72715  24.396  13.888   6.450
10160POPC   C2B72716  24.410  13.891   6.750
10160POPC   C3B72717  24.397  13.855   7.050
10160POPC   C4B72718  24.480  13.913   7.350
10161POPC   NC372719  16.755  42.300   5.550
10161POPC   PO472720  16.781  42.340   5.850
10161POPC   GL172721  16.688  42.328   6.150
10161POPC   GL272722  16.646  42.254   6.150
10161POPC   C1A72723  16.769  42.359   6.450
10161POPC   D2A72724  16.723  42.362   6.750
10161POPC   C3A72725  16.696  42.373   7.050
10161POPC   C4A72726  16.685  42.369   7.350
10161POPC   C1B72727  16.533  42.250   6.450
10161POPC   C2B72728  16.452  42.305   6.750
10161POPC   C3B72729  16.525  42.238   7.050
10161POPC   C4B72730  16.523  42.225   7.350
10162POPC   NC372731  44.639   5.858   5.550
10162POPC   PO472732  44.617   5.868   5.850
10162POPC   GL172733  44.668   5.888   6.150
10162POPC   GL272734  44.786   5.807   6.150
10162POPC   C1A72735  44.666   5.894   6.450
10162POPC   D2A72736  44.703   5.883   6.750
10162POPC   C3A72737  44.635   5.861   7.050
10162POPC   C4A72738  44.635   5.847   7.350
10162POPC   C1B72739  44.814   5.710   6.450
10162POPC   C2B72740  44.850   5.696   6.750
10162POPC   C3B72741  44.856   5.686   7.050
10162POPC   C4B72742  44.783   5.712   7.350
10163POPC   NC372743  16.729  43.919   5.550
10163POPC   PO472744  16.740  43.879   5.850
10163POPC   GL172745  16.703  43.914   6.150
10163POPC   GL272746  16.836  43.865   6.150
10163POPC   C1A72747  16.703  43.858   6.450
10163POPC   D2A72748  16.762  43.882   6.750
10163POPC   C3A72749  16.772  43.927   7.050
10163POPC   C4A72750  16.721  43.912   7.350
10163POPC   C1B72751  16.894  43.739   6.450
10163POPC   C2B72752  16.920  43.760   6.750
10163POPC   C3B72753  16.972  43.791   7.050
10163POPC   C4B72754  16.966  43.745   7.350
10164POPC   NC372755  11.311  33.846   5.550
10164POPC   PO472756  11.283  33.787   5.850
10164POPC   GL172757  11.346  33.755   6.150
10164POPC   GL272758  11.207  33.729   6.150
10164POPC   C1A72759  11.287  33.797   6.450
10164POPC   D2A72760  11.349  33.843   6.750
10164POPC   C3A72761  11.264  33.847   7.050
10164POPC   C4A72762  11.270  33.767   7.350
10164POPC   C1B72763  11.040  33.661   6.450
10164POPC   C2B72764  11.118  33.666   6.750
10164POPC   C3B72765  11.060  33.694   7.050
10164POPC   C4B72766  11.047  33.733   7.350
10165POPC   NC372767  38.501  37.696   5.550
10165POPC   PO472768  38.410  37.653   5.850
10165POPC   GL172769  38.493  37.705   6.150
10165POPC   GL272770  38.562  37.711   6.150
10165POPC   C1A72771  38.444  37.690   6.450
10165POPC   D2A72772  38.487  37.655   6.750
10165POPC   C3A72773  38.416  37.647   7.050
10165POPC   C4A72774  38.478  37.691   7.350
10165POPC   C1B72775  38.746  37.741   6.450
10165POPC   C2B72776  38.655  37.702   6.750
10165POPC   C3B72777  38.726  37.716   7.050
10165POPC   C4B72778  38.672  37.685   7.350
10166POPC   NC372779  31.518  23.683   5.550
10166POPC   PO472780  31.471  23.676   5.850
10166POPC   GL172781  31.494  23.710   6.150
10166POPC   GL272782  31.379  23.717   6.150
10166POPC   C1A72783  31.492  23.704   6.450
10166POPC   D2A72784  31.498  23.757   6.750
10166POPC   C3A72785  31.435  23.689   7.050
10166POPC   C4A72786  31.510  23.715   7.350
10166POPC   C1B72787  31.225  23.785   6.450
10166POPC   C2B72788  31.254  23.787   6.750
10166POPC   C3B72789  31.233  23.743   7.050
10166POPC   C4B72790  31.230  23.743   7.350
10167POPC   NC372791  19.799   2.748   5.550
10167POPC   PO472792  19.856   2.806   5.850
10167POPC   GL172793  19.805   2.782   6.150
10167POPC   GL272794  19.778   2.877   6.150
10167POPC   C1A72795  19.788   2.734   6.450
10167POPC   D2A72796  19.865   2.762   6.750
10167POPC   C3A72797  19.876   2.776   7.050
10167POPC   C4A72798  19.842   2.716   7.350
10167POPC   C1B72799  19.638   2.934   6.450
10167POPC   C2B72800  19.668   2.939   6.750
10167POPC   C3B72801  19.699   2.917   7.050
10167POPC   C4B72802  19.643   2.935   7.350
10168POPC   NC372803  33.003  29.966   5.550
10168POPC   PO472804  33.058  29.887   5.850
10168POPC   GL172805  33.009  29.943   6.150
10168POPC   GL272806  32.976  29.770   6.150
10168POPC   C1A72807  33.032  29.931   6.450
10168POPC   D2A72808  32.975  29.889   6.750
10168POPC   C3A72809  33.061  29.946   7.050
10168POPC   C4A72810  32.976  29.959   7.350
10168POPC   C1B72811  32.857  29.685   6.450
10168POPC   C2B72812  32.907  29.729   6.750
10168POPC   C3B72813  32.945  29.740   7.050
10168POPC   C4B72814  32.915  29.719   7.350
10169POPC   NC372815  26.023  13.646   5.550
10169POPC   PO472816  26.051  13.642   5.850
10169POPC   GL172817  26.068  13.667   6.150
10169POPC   GL272818  25.924  13.524   6.150
10169POPC   C1A72819  26.027  13.614   6.450
10169POPC   D2A72820  26.066  13.598   6.750
10169POPC   C3A72821  26.049  13.611   7.050
10169POPC   C4A72822  26.082  13.600   7.350
10169POPC   C1B72823  25.835  13.475   6.450
10169POPC   C2B72824  25.832  13.464   6.750
10169POPC   C3B72825  25.843  13.427   7.050
10169POPC   C4B72826  25.916  13.418   7.350
10170POPC   NC372827  31.486   5.063   5.550
10170POPC   PO472828  31.483   5.079   5.850
10170POPC   GL172829  31.448   5.063   6.150
10170POPC   GL272830  31.324   5.061   6.150
10170POPC   C1A72831  31.518   5.089   6.450
10170POPC   D2A72832  31.479   5.117   6.750
10170POPC   C3A72833  31.436   5.089   7.050
10170POPC   C4A72834  31.453   5.079   7.350
10170POPC   C1B72835  31.234   5.035   6.450
10170POPC   C2B72836  31.277   5.002   6.750
10170POPC   C3B72837  31.269   5.000   7.050
10170POPC   C4B72838  31.210   4.982   7.350
10171POPC   NC372839  33.826   2.760   5.550
10171POPC   PO472840  33.822   2.758   5.850
10171POPC   GL172841  33.807   2.788   6.150
10171POPC   GL272842  33.875   2.838   6.150
10171POPC   C1A72843  33.770   2.718   6.450
10171POPC   D2A72844  33.776   2.792   6.750
10171POPC   C3A72845  33.815   2.751   7.050
10171POPC   C4A72846  33.800   2.719   7.350
10171POPC   C1B72847  33.925   3.008   6.450
10171POPC   C2B72848  33.934   2.972   6.750
10171POPC   C3B72849  33.966   2.930   7.050
10171POPC   C4B72850  33.947   2.931   7.350
10172POPC   NC372851  19.050  13.645   5.550
10172POPC   PO472852  19.067  13.611   5.850
10172POPC   GL172853  19.099  13.627   6.150
10172POPC   GL272854  18.982  13.694   6.150
10172POPC   C1A72855  19.015  13.668   6.450
10172POPC   D2A72856  19.076  13.675   6.750
10172POPC   C3A72857  19.065  13.605   7.050
10172POPC   C4A72858  19.020  13.640   7.350
10172POPC   C1B72859  18.794  13.788   6.450
10172POPC   C2B72860  18.821  13.752   6.750
10172POPC   C3B72861  18.840  13.743   7.050
10172POPC   C4B72862  18.863  13.726   7.350
10173POPC   NC372863  32.214  37.674   5.550
10173POPC   PO472864  32.220  37.691   5.850
10173POPC   GL172865  32.199  37.718   6.150
10173POPC   GL272866  32.194  37.535   6.150
10173POPC   C1A72867  32.224  37.660   6.450
10173POPC   D2A72868  32.287  37.637   6.750
10173POPC   C3A72869  32.214  37.659   7.050
10173POPC   C4A72870  32.266  37.689   7.350
10173POPC   C1B72871  32.201  37.490   6.450
10173POPC   C2B72872  32.200  37.423   6.750
10173POPC   C3B72873  32.149  37.478   7.050
10173POPC   C4B72874  32.128  37.445   7.350
10174POPC   NC372875  26.018  32.984   5.550
10174POPC   PO472876  26.044  33.001   5.850
10174POPC   GL172877  26.004  33.009   6.150
10174POPC   GL272878  25.913  33.007   6.150
10174POPC   C1A72879  26.090  33.016   6.450
10174POPC   D2A72880  26.008  33.065   6.750
10174POPC   C3A72881  26.012  33.041   7.050
10174POPC   C4A72882  26.036  33.067   7.350
10174POPC   C1B72883  25.761  33.024   6.450
10174POPC   C2B72884  25.800  33.077   6.750
10174POPC   C3B72885  25.767  33.015   7.050
10174POPC   C4B72886  25.761  33.038   7.350
10175POPC   NC372887  16.686  18.282   5.550
10175POPC   PO472888  16.700  18.261   5.850
10175POPC   GL172889  16.738  18.254   6.150
10175POPC   GL272890  16.870  18.278   6.150
10175POPC   C1A72891  16.724  18.316   6.450
10175POPC   D2A72892  16.731  18.297   6.750
10175POPC   C3A72893  16.687  18.287   7.050
10175POPC   C4A72894  16.775  18.242   7.350
10175POPC   C1B72895  16.997  18.202   6.450
10175POPC   C2B72896  16.916  18.165   6.750
10175POPC   C3B72897  17.006  18.167   7.050
10175POPC   C4B72898  16.930  18.147   7.350
10176POPC   NC372899  25.238   8.234   5.550
10176POPC   PO472900  25.278   8.188   5.850
10176POPC   GL172901  25.266   8.162   6.150
10176POPC   GL272902  25.100   8.196   6.150
10176POPC   C1A72903  25.300   8.219   6.450
10176POPC   D2A72904  25.249   8.177   6.750
10176POPC   C3A72905  25.230   8.212   7.050
10176POPC   C4A72906  25.283   8.182   7.350
10176POPC   C1B72907  25.060   8.177   6.450
10176POPC   C2B72908  25.015   8.168   6.750
10176POPC   C3B72909  25.068   8.149   7.050
10176POPC   C4B72910  25.032   8.200   7.350
10177POPC   NC372911  19.019  43.097   5.550
10177POPC   PO472912  19.031  43.094   5.850
10177POPC   GL172913  19.097  43.116   6.150
10177POPC   GL272914  19.116  43.164   6.150
10177POPC   C1A72915  19.075  43.152   6.450
10177POPC   D2A72916  19.107  43.160   6.750
10177POPC   C3A72917  19.054  43.103   7.050
10177POPC   C4A72918  19.039  43.158   7.350
10177POPC   C1B72919  19.220  43.312   6.450
10177POPC   C2B72920  19.233  43.290   6.750
10177POPC   C3B72921  19.198  43.282   7.050
10177POPC   C4B72922  19.249  43.288   7.350
10178POPC   NC372923  22.922  32.223   5.550
10178POPC   PO472924  22.927  32.266   5.850
10178POPC   GL172925  22.908  32.276   6.150
10178POPC   GL272926  22.784  32.213   6.150
10178POPC   C1A72927  22.934  32.248   6.450
10178POPC   D2A72928  22.945  32.233   6.750
10178POPC   C3A72929  22.949  32.257   7.050
10178POPC   C4A72930  22.974  32.298   7.350
10178POPC   C1B72931  22.722  32.108   6.450
10178POPC   C2B72932  22.765  32.139   6.750
10178POPC   C3B72933  22.703  32.122   7.050
10178POPC   C4B72934  22.724  32.081   7.350
10179POPC   NC372935  34.585  31.471   5.550
10179POPC   PO472936  34.546  31.506   5.850
10179POPC   GL172937  34.543  31.468   6.150
10179POPC   GL272938  34.573  31.636   6.150
10179POPC   C1A72939  34.529  31.512   6.450
10179POPC   D2A72940  34.581  31.430   6.750
10179POPC   C3A72941  34.608  31.485   7.050
10179POPC   C4A72942  34.564  31.519   7.350
10179POPC   C1B72943  34.484  31.666   6.450
10179POPC   C2B72944  34.471  31.656   6.750
10179POPC   C3B72945  34.450  31.665   7.050
10179POPC   C4B72946  34.454  31.719   7.350
10180POPC   NC372947  26.775   1.968   5.550
10180POPC   PO472948  26.839   1.954   5.850
10180POPC   GL172949  26.802   2.035   6.150
10180POPC   GL272950  26.905   1.971   6.150
10180POPC   C1A72951  26.775   2.016   6.450
10180POPC   D2A72952  26.769   2.028   6.750
10180POPC   C3A72953  26.815   2.017   7.050
10180POPC   C4A72954  26.795   1.966   7.350
10180POPC   C1B72955  27.020   1.987   6.450
10180POPC   C2B72956  27.035   2.014   6.750
10180POPC   C3B72957  27.016   2.048   7.050
10180POPC   C4B72958  27.040   1.998   7.350
10181POPC   NC372959  18.267   1.225   5.550
10181POPC   PO472960  18.233   1.164   5.850
10181POPC   GL172961  18.309   1.260   6.150
10181POPC   GL272962  18.447   1.230   6.150
10181POPC   C1A72963  18.239   1.187   6.450
10181POPC   D2A72964  18.314   1.217   6.750
10181POPC   C3A72965  18.262   1.243   7.050
10181POPC   C4A72966  18.311   1.168   7.350
10181POPC   C1B72967  18.571   1.308   6.450
10181POPC   C2B72968  18.491   1.302   6.750
10181POPC   C3B72969  18.527   1.244   7.050
10181POPC   C4B72970  18.533   1.238   7.350
10182POPC   NC372971  14.361  10.514   5.550
10182POPC   PO472972  14.442  10.537   5.850
10182POPC   GL172973  14.380  10.567   6.150
10182POPC   GL272974  14.361  10.581   6.150
10182POPC   C1A72975  14.394  10.545   6.450
10182POPC   D2A72976  14.398  10.549   6.750
10182POPC   C3A72977  14.422  10.535   7.050
10182POPC   C4A72978  14.421  10.527   7.350
10182POPC   C1B72979  14.232  10.679   6.450
10182POPC   C2B72980  14.256  10.686   6.750
10182POPC   C3B72981  14.215  10.685   7.050
10182POPC   C4B72982  14.218  10.690   7.350
10183POPC   NC372983  11.343  23.737   5.550
10183POPC   PO472984  11.291  23.713   5.850
10183POPC   GL172985  11.326  23.763   6.150
10183POPC   GL272986  11.448  23.691   6.150
10183POPC   C1A72987  11.266  23.695   6.450
10183POPC   D2A72988  11.321  23.679   6.750
10183POPC   C3A72989  11.282  23.677   7.050
10183POPC   C4A72990  11.268  23.708   7.350
10183POPC   C1B72991  11.467  23.597   6.450
10183POPC   C2B72992  11.502  23.568   6.750
10183POPC   C3B72993  11.496  23.558   7.050
10183POPC   C4B72994  11.505  23.615   7.350
10184POPC   NC372995  20.572  41.542   5.550
10184POPC   PO472996  20.582  41.589   5.850
10184POPC   GL172997  20.654  41.532   6.150
10184POPC   GL272998  20.474  41.552   6.150
10184POPC   C1A72999  20.653  41.527   6.450
10184POPC   D2A73000  20.598  41.545   6.750
10184POPC   C3A73001  20.617  41.539   7.050
10184POPC   C4A73002  20.596  41.555   7.350
10184POPC   C1B73003  20.322  41.624   6.450
10184POPC   C2B73004  20.336  41.595   6.750
10184POPC   C3B73005  20.373  41.607   7.050
10184POPC   C4B73006  20.355  41.606   7.350
10185POPC   NC373007  10.488  39.259   5.550
10185POPC   PO473008  10.549  39.215   5.850
10185POPC   GL173009  10.492  39.276   6.150
10185POPC   GL273010  10.502  39.127   6.150
10185POPC   C1A73011  10.481  39.235   6.450
10185POPC   D2A73012  10.479  39.253   6.750
10185POPC   C3A73013  10.521  39.236   7.050
10185POPC   C4A73014  10.570  39.187   7.350
10185POPC   C1B73015  10.491  38.969   6.450
10185POPC   C2B73016  10.486  39.039   6.750
10185POPC   C3B73017  10.493  38.988   7.050
10185POPC   C4B73018  10.469  38.996   7.350
10186POPC   NC373019  26.074   8.240   5.550
10186POPC   PO473020  26.028   8.228   5.850
10186POPC   GL173021  26.051   8.204   6.150
10186POPC   GL273022  25.951   8.053   6.150
10186POPC   C1A73023  26.081   8.172   6.450
10186POPC   D2A73024  26.054   8.186   6.750
10186POPC   C3A73025  26.075   8.178   7.050
10186POPC   C4A73026  26.080   8.160   7.350
10186POPC   C1B73027  25.953   8.028   6.450
10186POPC   C2B73028  25.885   7.991   6.750
10186POPC   C3B73029  25.906   8.036   7.050
10186POPC   C4B73030  25.890   7.986   7.350
10187POPC   NC373031  36.163  34.579   5.550
10187POPC   PO473032  36.145  34.555   5.850
10187POPC   GL173033  36.083  34.569   6.150
10187POPC   GL273034  36.109  34.678   6.150
10187POPC   C1A73035  36.108  34.612   6.450
10187POPC   D2A73036  36.164  34.544   6.750
10187POPC   C3A73037  36.176  34.603   7.050
10187POPC   C4A73038  36.138  34.616   7.350
10187POPC   C1B73039  36.009  34.776   6.450
10187POPC   C2B73040  35.984  34.833   6.750
10187POPC   C3B73041  35.999  34.844   7.050
10187POPC   C4B73042  36.001  34.818   7.350
10188POPC   NC373043  12.090  25.216   5.550
10188POPC   PO473044  12.097  25.290   5.850
10188POPC   GL173045  12.041  25.244   6.150
10188POPC   GL273046  12.045  25.150   6.150
10188POPC   C1A73047  12.046  25.226   6.450
10188POPC   D2A73048  12.103  25.226   6.750
10188POPC   C3A73049  12.034  25.263   7.050
10188POPC   C4A73050  12.075  25.290   7.350
10188POPC   C1B73051  11.953  25.063   6.450
10188POPC   C2B73052  12.014  25.080   6.750
10188POPC   C3B73053  11.940  25.057   7.050
10188POPC   C4B73054  12.008  25.068   7.350
10189POPC   NC373055  22.153  32.219   5.550
10189POPC   PO473056  22.202  32.216   5.850
10189POPC   GL173057  22.129  32.199   6.150
10189POPC   GL273058  22.004  32.256   6.150
10189POPC   C1A73059  22.194  32.249   6.450
10189POPC   D2A73060  22.176  32.283   6.750
10189POPC   C3A73061  22.132  32.218   7.050
10189POPC   C4A73062  22.196  32.242   7.350
10189POPC   C1B73063  21.874  32.272   6.450
10189POPC   C2B73064  21.881  32.294   6.750
10189POPC   C3B73065  21.952  32.281   7.050
10189POPC   C4B73066  21.881  32.228   7.350
10190POPC   NC373067   9.768  43.853   5.550
10190POPC   PO473068   9.705  43.846   5.850
10190POPC   GL173069   9.718  43.915   6.150
10190POPC   GL273070   9.647  44.023   6.150
10190POPC   C1A73071   9.738  43.861   6.450
10190POPC   D2A73072   9.768  43.877   6.750
10190POPC   C3A73073   9.788  43.837   7.050
10190POPC   C4A73074   9.752  43.904   7.350
10190POPC   C1B73075   9.567  44.081   6.450
10190POPC   C2B73076   9.632  44.079   6.750
10190POPC   C3B73077   9.556  44.051   7.050
10190POPC   C4B73078   9.577  44.068   7.350
10191POPC   NC373079  18.301  13.635   5.550
10191POPC   PO473080  18.287  13.670   5.850
10191POPC   GL173081  18.300  13.644   6.150
10191POPC   GL273082  18.200  13.524   6.150
10191POPC   C1A73083  18.332  13.606   6.450
10191POPC   D2A73084  18.260  13.637   6.750
10191POPC   C3A73085  18.273  13.651   7.050
10191POPC   C4A73086  18.233  13.624   7.350
10191POPC   C1B73087  18.173  13.423   6.450
10191POPC   C2B73088  18.162  13.373   6.750
10191POPC   C3B73089  18.193  13.416   7.050
10191POPC   C4B73090  18.131  13.445   7.350
10192POPC   NC373091   1.950   5.895   5.550
10192POPC   PO473092   1.979   5.889   5.850
10192POPC   GL173093   1.952   5.845   6.150
10192POPC   GL273094   1.859   5.902   6.150
10192POPC   C1A73095   2.017   5.892   6.450
10192POPC   D2A73096   1.955   5.850   6.750
10192POPC   C3A73097   1.950   5.891   7.050
10192POPC   C4A73098   2.004   5.894   7.350
10192POPC   C1B73099   1.770   6.002   6.450
10192POPC   C2B73100   1.765   5.953   6.750
10192POPC   C3B73101   1.759   5.940   7.050
10192POPC   C4B73102   1.789   6.023   7.350
10193POPC   NC373103   1.958  25.249   5.550
10193POPC   PO473104   1.990  25.251   5.850
10193POPC   GL173105   1.976  25.258   6.150
10193POPC   GL273106   2.106  25.330   6.150
10193POPC   C1A73107   2.006  25.300   6.450
10193POPC   D2A73108   1.963  25.229   6.750
10193POPC   C3A73109   1.968  25.309   7.050
10193POPC   C4A73110   2.010  25.288   7.350
10193POPC   C1B73111   2.218  25.476   6.450
10193POPC   C2B73112   2.132  25.456   6.750
10193POPC   C3B73113   2.203  25.387   7.050
10193POPC   C4B73114   2.153  25.443   7.350
10194POPC   NC373115  33.015   8.213   5.550
10194POPC   PO473116  33.014   8.182   5.850
10194POPC   GL173117  33.052   8.178   6.150
10194POPC   GL273118  33.103   8.316   6.150
10194POPC   C1A73119  33.063   8.212   6.450
10194POPC   D2A73120  33.020   8.186   6.750
10194POPC   C3A73121  33.041   8.156   7.050
10194POPC   C4A73122  32.976   8.227   7.350
10194POPC   C1B73123  33.089   8.435   6.450
10194POPC   C2B73124  33.139   8.404   6.750
10194POPC   C3B73125  33.102   8.445   7.050
10194POPC   C4B73126  33.176   8.474   7.350
10195POPC   NC373127  34.593   3.535   5.550
10195POPC   PO473128  34.600   3.589   5.850
10195POPC   GL173129  34.621   3.550   6.150
10195POPC   GL273130  34.706   3.566   6.150
10195POPC   C1A73131  34.533   3.584   6.450
10195POPC   D2A73132  34.554   3.577   6.750
10195POPC   C3A73133  34.559   3.537   7.050
10195POPC   C4A73134  34.626   3.549   7.350
10195POPC   C1B73135  34.862   3.544   6.450
10195POPC   C2B73136  34.814   3.494   6.750
10195POPC   C3B73137  34.824   3.523   7.050
10195POPC   C4B73138  34.829   3.462   7.350
10196POPC   NC373139   7.437  10.544   5.550
10196POPC   PO473140   7.396  10.527   5.850
10196POPC   GL173141   7.371  10.506   6.150
10196POPC   GL273142   7.591  10.505   6.150
10196POPC   C1A73143   7.440  10.539   6.450
10196POPC   D2A73144   7.417  10.568   6.750
10196POPC   C3A73145   7.415  10.505   7.050
10196POPC   C4A73146   7.391  10.492   7.350
10196POPC   C1B73147   7.621  10.537   6.450
10196POPC   C2B73148   7.646  10.571   6.750
10196POPC   C3B73149   7.664  10.570   7.050
10196POPC   C4B73150   7.683  10.571   7.350
10197POPC   NC373151  33.019   1.195   5.550
10197POPC   PO473152  33.012   1.197   5.850
10197POPC   GL173153  33.059   1.234   6.150
10197POPC   GL273154  32.990   1.361   6.150
10197POPC   C1A73155  32.987   1.201   6.450
10197POPC   D2A73156  33.014   1.242   6.750
10197POPC   C3A73157  33.007   1.216   7.050
10197POPC   C4A73158  33.050   1.215   7.350
10197POPC   C1B73159  32.948   1.492   6.450
10197POPC   C2B73160  32.927   1.434   6.750
10197POPC   C3B73161  32.930   1.473   7.050
10197POPC   C4B73162  32.956   1.430   7.350
10198POPC   NC373163  22.175  12.836   5.550
10198POPC   PO473164  22.178  12.840   5.850
10198POPC   GL173165  22.170  12.846   6.150
10198POPC   GL273166  22.254  12.881   6.150
10198POPC   C1A73167  22.156  12.885   6.450
10198POPC   D2A73168  22.199  12.802   6.750
10198POPC   C3A73169  22.188  12.827   7.050
10198POPC   C4A73170  22.143  12.893   7.350
10198POPC   C1B73171  22.380  12.842   6.450
10198POPC   C2B73172  22.436  12.848   6.750
10198POPC   C3B73173  22.403  12.855   7.050
10198POPC   C4B73174  22.427  12.918   7.350
10199POPC   NC373175  29.177  29.106   5.550
10199POPC   PO473176  29.171  29.158   5.850
10199POPC   GL173177  29.141  29.125   6.150
10199POPC   GL273178  29.067  29.273   6.150
10199POPC   C1A73179  29.125  29.165   6.450
10199POPC   D2A73180  29.194  29.161   6.750
10199POPC   C3A73181  29.182  29.165   7.050
10199POPC   C4A73182  29.121  29.107   7.350
10199POPC   C1B73183  28.982  29.346   6.450
10199POPC   C2B73184  28.979  29.347   6.750
10199POPC   C3B73185  28.954  29.290   7.050
10199POPC   C4B73186  28.955  29.325   7.350
10200POPC   NC373187  36.132  42.347   5.550
10200POPC   PO473188  36.166  42.308   5.850
10200POPC   GL173189  36.106  42.326   6.150
10200POPC   GL273190  36.238  42.412   6.150
10200POPC   C1A73191  36.100  42.340   6.450
10200POPC   D2A73192  36.112  42.306   6.750
10200POPC   C3A73193  36.167  42.344   7.050
10200POPC   C4A73194  36.115  42.359   7.350
10200POPC   C1B73195  36.290  42.521   6.450
10200POPC   C2B73196  36.320  42.519   6.750
10200POPC   C3B73197  36.275  42.486   7.050
10200POPC   C4B73198  36.325  42.472   7.350
10201POPC   NC373199   8.977   1.210   5.550
10201POPC   PO473200   8.995   1.257   5.850
10201POPC   GL173201   8.940   1.183   6.150
10201POPC   GL273202   8.907   1.274   6.150
10201POPC   C1A73203   8.975   1.182   6.450
10201POPC   D2A73204   9.002   1.259   6.750
10201POPC   C3A73205   8.998   1.169   7.050
10201POPC   C4A73206   8.991   1.251   7.350
10201POPC   C1B73207   8.831   1.351   6.450
10201POPC   C2B73208   8.778   1.357   6.750
10201POPC   C3B73209   8.829   1.376   7.050
10201POPC   C4B73210   8.829   1.381   7.350
10202POPC   NC373211   1.169  22.167   5.550
10202POPC   PO473212   1.229  22.200   5.850
10202POPC   GL173213   1.259  22.168   6.150
10202POPC   GL273214   1.197  22.020   6.150
10202POPC   C1A73215   1.234  22.135   6.450
10202POPC   D2A73216   1.170  22.199   6.750
10202POPC   C3A73217   1.209  22.185   7.050
10202POPC   C4A73218   1.261  22.211   7.350
10202POPC   C1B73219   1.263  21.932   6.450
10202POPC   C2B73220   1.199  21.946   6.750
10202POPC   C3B73221   1.226  21.953   7.050
10202POPC   C4B73222   1.191  21.908   7.350
10203POPC   NC373223   6.613  39.187   5.550
10203POPC   PO473224   6.669  39.207   5.850
10203POPC   GL173225   6.644  39.270   6.150
10203POPC   GL273226   6.701  39.346   6.150
10203POPC   C1A73227   6.601  39.183   6.450
10203POPC   D2A73228   6.610  39.186   6.750
10203POPC   C3A73229   6.629  39.221   7.050
10203POPC   C4A73230   6.614  39.206   7.350
10203POPC   C1B73231   6.687  39.525   6.450
10203POPC   C2B73232   6.712  39.484   6.750
10203POPC   C3B73233   6.724  39.504   7.050
10203POPC   C4B73234   6.646  39.460   7.350
10204POPC   NC373235  34.611   7.466   5.550
10204POPC   PO473236  34.569   7.449   5.850
10204POPC   GL173237  34.590   7.396   6.150
10204POPC   GL273238  34.478   7.284   6.150
10204POPC   C1A73239  34.612   7.371   6.450
10204POPC   D2A73240  34.573   7.456   6.750
10204POPC   C3A73241  34.531   7.385   7.050
10204POPC   C4A73242  34.533   7.386   7.350
10204POPC   C1B73243  34.431   7.230   6.450
10204POPC   C2B73244  34.429   7.221   6.750
10204POPC   C3B73245  34.451   7.222   7.050
10204POPC   C4B73246  34.505   7.214   7.350
10205POPC   NC373247  23.720  19.832   5.550
10205POPC   PO473248  23.746  19.820   5.850
10205POPC   GL173249  23.750  19.823   6.150
10205POPC   GL273250  23.876  19.862   6.150
10205POPC   C1A73251  23.691  19.792   6.450
10205POPC   D2A73252  23.724  19.819   6.750
10205POPC   C3A73253  23.696  19.837   7.050
10205POPC   C4A73254  23.700  19.817   7.350
10205POPC   C1B73255  23.992  19.894   6.450
10205POPC   C2B73256  23.960  19.886   6.750
10205POPC   C3B73257  24.008  19.812   7.050
10205POPC   C4B73258  24.003  19.821   7.350
10206POPC   NC373259  12.115   2.717   5.550
10206POPC   PO473260  12.115   2.759   5.850
10206POPC   GL173261  12.121   2.731   6.150
10206POPC   GL273262  12.029   2.904   6.150
10206POPC   C1A73263  12.062   2.739   6.450
10206POPC   D2A73264  12.063   2.732   6.750
10206POPC   C3A73265  12.069   2.757   7.050
10206POPC   C4A73266  12.094   2.794   7.350
10206POPC   C1B73267  11.957   2.955   6.450
10206POPC   C2B73268  11.923   2.939   6.750
10206POPC   C3B73269  11.902   3.025   7.050
10206POPC   C4B73270  11.961   2.960   7.350
10207POPC   NC373271   2.792   0.400   5.550
10207POPC   PO473272   2.772   0.457   5.850
10207POPC   GL173273   2.815   0.464   6.150
10207POPC   GL273274   2.698   0.267   6.150
10207POPC   C1A73275   2.804   0.434   6.450
10207POPC   D2A73276   2.763   0.426   6.750
10207POPC   C3A73277   2.734   0.458   7.050
10207POPC   C4A73278   2.773   0.469   7.350
10207POPC   C1B73279   2.743   0.243   6.450
10207POPC   C2B73280   2.663   0.225   6.750
10207POPC   C3B73281   2.675   0.148   7.050
10207POPC   C4B73282   2.716   0.171   7.350
10208POPC   NC373283  43.070  16.766   5.550
10208POPC   PO473284  43.148  16.773   5.850
10208POPC   GL173285  43.133  16.750   6.150
10208POPC   GL273286  43.011  16.854   6.150
10208POPC   C1A73287  43.129  16.780   6.450
10208POPC   D2A73288  43.111  16.761   6.750
10208POPC   C3A73289  43.079  16.775   7.050
10208POPC   C4A73290  43.151  16.722   7.350
10208POPC   C1B73291  43.018  16.901   6.450
10208POPC   C2B73292  43.022  16.901   6.750
10208POPC   C3B73293  43.006  16.937   7.050
10208POPC   C4B73294  42.924  16.915   7.350
10209POPC   NC373295  30.684  36.909   5.550
10209POPC   PO473296  30.717  36.860   5.850
10209POPC   GL173297  30.667  36.918   6.150
10209POPC   GL273298  30.868  36.874   6.150
10209POPC   C1A73299  30.720  36.865   6.450
10209POPC   D2A73300  30.740  36.871   6.750
10209POPC   C3A73301  30.691  36.920   7.050
10209POPC   C4A73302  30.702  36.937   7.350
10209POPC   C1B73303  30.940  36.876   6.450
10209POPC   C2B73304  30.946  36.858   6.750
10209POPC   C3B73305  30.972  36.852   7.050
10209POPC   C4B73306  30.989  36.881   7.350
10210POPC   NC373307  19.825  22.925   5.550
10210POPC   PO473308  19.816  22.897   5.850
10210POPC   GL173309  19.839  22.937   6.150
10210POPC   GL273310  19.745  22.891   6.150
10210POPC   C1A73311  19.881  22.961   6.450
10210POPC   D2A73312  19.819  22.966   6.750
10210POPC   C3A73313  19.862  22.904   7.050
10210POPC   C4A73314  19.791  22.889   7.350
10210POPC   C1B73315  19.668  22.817   6.450
10210POPC   C2B73316  19.604  22.847   6.750
10210POPC   C3B73317  19.623  22.775   7.050
10210POPC   C4B73318  19.570  22.770   7.350
10211POPC   NC373319  31.431  26.082   5.550
10211POPC   PO473320  31.440  26.014   5.850
10211POPC   GL173321  31.450  26.065   6.150
10211POPC   GL273322  31.537  25.896   6.150
10211POPC   C1A73323  31.424  26.082   6.450
10211POPC   D2A73324  31.448  26.074   6.750
10211POPC   C3A73325  31.482  26.042   7.050
10211POPC   C4A73326  31.492  26.006   7.350
10211POPC   C1B73327  31.489  25.772   6.450
10211POPC   C2B73328  31.492  25.842   6.750
10211POPC   C3B73329  31.516  25.755   7.050
10211POPC   C4B73330  31.505  25.787   7.350
10212POPC   NC373331   1.989  39.193   5.550
10212POPC   PO473332   1.998  39.233   5.850
10212POPC   GL173333   2.010  39.230   6.150
10212POPC   GL273334   1.961  39.372   6.150
10212POPC   C1A73335   2.001  39.195   6.450
10212POPC   D2A73336   1.941  39.244   6.750
10212POPC   C3A73337   1.967  39.239   7.050
10212POPC   C4A73338   1.997  39.202   7.350
10212POPC   C1B73339   1.902  39.461   6.450
10212POPC   C2B73340   1.898  39.433   6.750
10212POPC   C3B73341   1.918  39.437   7.050
10212POPC   C4B73342   1.939  39.506   7.350
10213POPC   NC373343  43.931  19.060   5.550
10213POPC   PO473344  43.913  19.093   5.850
10213POPC   GL173345  43.870  19.049   6.150
10213POPC   GL273346  43.796  18.996   6.150
10213POPC   C1A73347  43.878  19.058   6.450
10213POPC   D2A73348  43.895  19.029   6.750
10213POPC   C3A73349  43.873  19.025   7.050
10213POPC   C4A73350  43.915  19.072   7.350
10213POPC   C1B73351  43.637  19.006   6.450
10213POPC   C2B73352  43.643  19.035   6.750
10213POPC   C3B73353  43.599  18.989   7.050
10213POPC   C4B73354  43.636  19.046   7.350
10214POPC   NC373355  26.843  16.748   5.550
10214POPC   PO473356  26.785  16.731   5.850
10214POPC   GL173357  26.770  16.763   6.150
10214POPC   GL273358  26.911  16.642   6.150
10214POPC   C1A73359  26.862  16.701   6.450
10214POPC   D2A73360  26.817  16.686   6.750
10214POPC   C3A73361  26.788  16.770   7.050
10214POPC   C4A73362  26.773  16.764   7.350
10214POPC   C1B73363  26.893  16.537   6.450
10214POPC   C2B73364  26.943  16.554   6.750
10214POPC   C3B73365  26.961  16.488   7.050
10214POPC   C4B73366  26.974  16.537   7.350
10215POPC   NC373367  40.825  10.534   5.550
10215POPC   PO473368  40.740  10.558   5.850
10215POPC   GL173369  40.770  10.559   6.150
10215POPC   GL273370  40.925  10.502   6.150
10215POPC   C1A73371  40.826  10.553   6.450
10215POPC   D2A73372  40.749  10.539   6.750
10215POPC   C3A73373  40.739  10.477   7.050
10215POPC   C4A73374  40.751  10.534   7.350
10215POPC   C1B73375  41.076  10.545   6.450
10215POPC   C2B73376  41.011  10.563   6.750
10215POPC   C3B73377  40.991  10.533   7.050
10215POPC   C4B73378  40.998  10.558   7.350
10216POPC   NC373379  12.088  18.237   5.550
10216POPC   PO473380  12.031  18.248   5.850
10216POPC   GL173381  12.064  18.252   6.150
10216POPC   GL273382  12.091  18.420   6.150
10216POPC   C1A73383  12.048  18.324   6.450
10216POPC   D2A73384  12.105  18.305   6.750
10216POPC   C3A73385  12.045  18.283   7.050
10216POPC   C4A73386  12.102  18.289   7.350
10216POPC   C1B73387  12.100  18.488   6.450
10216POPC   C2B73388  12.034  18.518   6.750
10216POPC   C3B73389  12.065  18.529   7.050
10216POPC   C4B73390  12.070  18.494   7.350
10217POPC   NC373391  22.159  27.634   5.550
10217POPC   PO473392  22.153  27.623   5.850
10217POPC   GL173393  22.177  27.625   6.150
10217POPC   GL273394  22.210  27.524   6.150
10217POPC   C1A73395  22.132  27.626   6.450
10217POPC   D2A73396  22.137  27.625   6.750
10217POPC   C3A73397  22.135  27.619   7.050
10217POPC   C4A73398  22.207  27.618   7.350
10217POPC   C1B73399  22.346  27.414   6.450
10217POPC   C2B73400  22.334  27.356   6.750
10217POPC   C3B73401  22.273  27.383   7.050
10217POPC   C4B73402  22.351  27.407   7.350
10218POPC   NC373403  38.422  39.984   5.550
10218POPC   PO473404  38.410  39.999   5.850
10218POPC   GL173405  38.419  40.039   6.150
10218POPC   GL273406  38.624  40.069   6.150
10218POPC   C1A73407  38.420  40.016   6.450
10218POPC   D2A73408  38.441  40.014   6.750
10218POPC   C3A73409  38.487  39.987   7.050
10218POPC   C4A73410  38.422  39.980   7.350
10218POPC   C1B73411  38.699  40.064   6.450
10218POPC   C2B73412  38.695  40.074   6.750
10218POPC   C3B73413  38.692  40.032   7.050
10218POPC   C4B73414  38.750  40.070   7.350
10219POPC   NC373415  36.916   1.171   5.550
10219POPC   PO473416  36.929   1.173   5.850
10219POPC   GL173417  36.915   1.260   6.150
10219POPC   GL273418  37.043   1.126   6.150
10219POPC   C1A73419  36.884   1.250   6.450
10219POPC   D2A73420  36.900   1.248   6.750
10219POPC   C3A73421  36.903   1.171   7.050
10219POPC   C4A73422  36.879   1.232   7.350
10219POPC   C1B73423  37.129   1.092   6.450
10219POPC   C2B73424  37.128   1.063   6.750
10219POPC   C3B73425  37.110   1.066   7.050
10219POPC   C4B73426  37.091   1.063   7.350
10220POPC   NC373427  14.370  13.609   5.550
10220POPC   PO473428  14.395  13.637   5.850
10220POPC   GL173429  14.388  13.655   6.150
10220POPC   GL273430  14.438  13.717   6.150
10220POPC   C1A73431  14.439  13.661   6.450
10220POPC   D2A73432  14.364  13.608   6.750
10220POPC   C3A73433  14.402  13.656   7.050
10220POPC   C4A73434  14.396  13.594   7.350
10220POPC   C1B73435  14.585  13.831   6.450
10220POPC   C2B73436  14.530  13.785   6.750
10220POPC   C3B73437  14.551  13.800   7.050
10220POPC   C4B73438  14.616  13.846   7.350
10221POPC   NC373439  15.987  21.397   5.550
10221POPC   PO473440  15.932  21.399   5.850
10221POPC   GL173441  16.000  21.402   6.150
10221POPC   GL273442  15.882  21.522   6.150
10221POPC   C1A73443  15.960  21.374   6.450
10221POPC   D2A73444  15.975  21.385   6.750
10221POPC   C3A73445  15.978  21.353   7.050
10221POPC   C4A73446  15.982  21.356   7.350
10221POPC   C1B73447  15.789  21.582   6.450
10221POPC   C2B73448  15.825  21.605   6.750
10221POPC   C3B73449  15.775  21.611   7.050
10221POPC   C4B73450  15.780  21.594   7.350
10222POPC   NC373451  37.713  16.762   5.550
10222POPC   PO473452  37.715  16.689   5.850
10222POPC   GL173453  37.634  16.696   6.150
10222POPC   GL273454  37.686  16.621   6.150
10222POPC   C1A73455  37.684  16.744   6.450
10222POPC   D2A73456  37.653  16.714   6.750
10222POPC   C3A73457  37.629  16.699   7.050
10222POPC   C4A73458  37.710  16.688   7.350
10222POPC   C1B73459  37.812  16.483   6.450
10222POPC   C2B73460  37.743  16.535   6.750
10222POPC   C3B73461  37.747  16.528   7.050
10222POPC   C4B73462  37.758  16.520   7.350
10223POPC   NC373463  26.080  12.033   5.550
10223POPC   PO473464  26.003  12.086   5.850
10223POPC   GL173465  26.015  12.084   6.150
10223POPC   GL273466  25.950  12.194   6.150
10223POPC   C1A73467  26.062  12.118   6.450
10223POPC   D2A73468  26.016  12.061   6.750
10223POPC   C3A73469  26.063  12.078   7.050
10223POPC   C4A73470  26.015  12.109   7.350
10223POPC   C1B73471  25.887  12.229   6.450
10223POPC   C2B73472  25.898  12.252   6.750
10223POPC   C3B73473  25.850  12.280   7.050
10223POPC   C4B73474  25.896  12.226   7.350
10224POPC   NC373475  37.663  41.576   5.550
10224POPC   PO473476  37.665  41.577   5.850
10224POPC   GL173477  37.720  41.595   6.150
10224POPC   GL273478  37.809  41.611   6.150
10224POPC   C1A73479  37.715  41.515   6.450
10224POPC   D2A73480  37.652  41.580   6.750
10224POPC   C3A73481  37.726  41.601   7.050
10224POPC   C4A73482  37.706  41.606   7.350
10224POPC   C1B73483  37.952  41.646   6.450
10224POPC   C2B73484  37.931  41.622   6.750
10224POPC   C3B73485  37.921  41.613   7.050
10224POPC   C4B73486  37.907  41.671   7.350
10225POPC   NC373487  26.818  27.611   5.550
10225POPC   PO473488  26.787  27.570   5.850
10225POPC   GL173489  26.808  27.612   6.150
10225POPC   GL273490  26.899  27.446   6.150
10225POPC   C1A73491  26.853  27.642   6.450
10225POPC   D2A73492  26.792  27.616   6.750
10225POPC   C3A73493  26.826  27.566   7.050
10225POPC   C4A73494  26.800  27.596   7.350
10225POPC   C1B73495  26.936  27.357   6.450
10225POPC   C2B73496  26.902  27.408   6.750
10225POPC   C3B73497  26.988  27.425   7.050
10225POPC   C4B73498  26.928  27.363   7.350
10226POPC   NC373499  16.734  26.049   5.550
10226POPC   PO473500  16.697  26.035   5.850
10226POPC   GL173501  16.773  26.026   6.150
10226POPC   GL273502  16.673  26.151   6.150
10226POPC   C1A73503  16.749  26.022   6.450
10226POPC   D2A73504  16.718  26.002   6.750
10226POPC   C3A73505  16.716  26.084   7.050
10226POPC   C4A73506  16.691  26.059   7.350
10226POPC   C1B73507  16.502  26.192   6.450
10226POPC   C2B73508  16.553  26.196   6.750
10226POPC   C3B73509  16.564  26.173   7.050
10226POPC   C4B73510  16.546  26.177   7.350
10227POPC   NC373511  25.997  22.911   5.550
10227POPC   PO473512  26.010  22.979   5.850
10227POPC   GL173513  26.051  22.890   6.150
10227POPC   GL273514  26.007  22.799   6.150
10227POPC   C1A73515  26.087  22.977   6.450
10227POPC   D2A73516  26.087  22.897   6.750
10227POPC   C3A73517  26.009  22.888   7.050
10227POPC   C4A73518  26.014  22.987   7.350
10227POPC   C1B73519  26.053  22.650   6.450
10227POPC   C2B73520  26.087  22.718   6.750
10227POPC   C3B73521  26.088  22.731   7.050
10227POPC   C4B73522  26.052  22.689   7.350
10228POPC   NC373523  26.059  31.477   5.550
10228POPC   PO473524  25.998  31.435   5.850
10228POPC   GL173525  26.071  31.444   6.150
10228POPC   GL273526  26.133  31.401   6.150
10228POPC   C1A73527  26.036  31.461   6.450
10228POPC   D2A73528  26.066  31.510   6.750
10228POPC   C3A73529  26.017  31.486   7.050
10228POPC   C4A73530  26.007  31.433   7.350
10228POPC   C1B73531  26.232  31.374   6.450
10228POPC   C2B73532  26.239  31.371   6.750
10228POPC   C3B73533  26.293  31.418   7.050
10228POPC   C4B73534  26.254  31.328   7.350
10229POPC   NC373535  33.843  23.674   5.550
10229POPC   PO473536  33.791  23.737   5.850
10229POPC   GL173537  33.803  23.735   6.150
10229POPC   GL273538  33.708  23.773   6.150
10229POPC   C1A73539  33.839  23.701   6.450
10229POPC   D2A73540  33.774  23.689   6.750
10229POPC   C3A73541  33.790  23.735   7.050
10229POPC   C4A73542  33.794  23.751   7.350
10229POPC   C1B73543  33.593  23.895   6.450
10229POPC   C2B73544  33.581  23.845   6.750
10229POPC   C3B73545  33.641  23.924   7.050
10229POPC   C4B73546  33.605  23.886   7.350
10230POPC   NC373547  20.563   1.963   5.550
10230POPC   PO473548  20.596   2.025   5.850
10230POPC   GL173549  20.612   2.007   6.150
10230POPC   GL273550  20.686   1.922   6.150
10230POPC   C1A73551  20.659   2.031   6.450
10230POPC   D2A73552  20.589   1.952   6.750
10230POPC   C3A73553  20.622   1.990   7.050
10230POPC   C4A73554  20.656   1.974   7.350
10230POPC   C1B73555  20.757   1.745   6.450
10230POPC   C2B73556  20.783   1.830   6.750
10230POPC   C3B73557  20.772   1.782   7.050
10230POPC   C4B73558  20.704   1.813   7.350
10231POPC   NC373559  41.542  15.212   5.550
10231POPC   PO473560  41.522  15.210   5.850
10231POPC   GL173561  41.513  15.152   6.150
10231POPC   GL273562  41.549  15.068   6.150
10231POPC   C1A73563  41.607  15.215   6.450
10231POPC   D2A73564  41.568  15.174   6.750
10231POPC   C3A73565  41.573  15.132   7.050
10231POPC   C4A73566  41.587  15.142   7.350
10231POPC   C1B73567  41.444  14.958   6.450
10231POPC   C2B73568  41.418  14.987   6.750
10231POPC   C3B73569  41.498  14.984   7.050
10231POPC   C4B73570  41.457  14.991   7.350
10232POPC   NC373571   4.362  43.843   5.550
10232POPC   PO473572   4.321  43.842   5.850
10232POPC   GL173573   4.362  43.847   6.150
10232POPC   GL273574   4.448  43.863   6.150
10232POPC   C1A73575   4.271  43.917   6.450
10232POPC   D2A73576   4.367  43.887   6.750
10232POPC   C3A73577   4.291  43.841   7.050
10232POPC   C4A73578   4.330  43.897   7.350
10232POPC   C1B73579   4.511  43.812   6.450
10232POPC   C2B73580   4.554  43.739   6.750
10232POPC   C3B73581   4.569  43.746   7.050
10232POPC   C4B73582   4.585  43.768   7.350
10233POPC   NC373583  25.243  42.285   5.550
10233POPC   PO473584  25.239  42.382   5.850
10233POPC   GL173585  25.267  42.324   6.150
10233POPC   GL273586  25.301  42.274   6.150
10233POPC   C1A73587  25.222  42.376   6.450
10233POPC   D2A73588  25.310  42.344   6.750
10233POPC   C3A73589  25.272  42.349   7.050
10233POPC   C4A73590  25.305  42.323   7.350
10233POPC   C1B73591  25.383  42.164   6.450
10233POPC   C2B73592  25.394  42.161   6.750
10233POPC   C3B73593  25.413  42.114   7.050
10233POPC   C4B73594  25.366  42.086   7.350
10234POPC   NC373595  36.865  29.191   5.550
10234POPC   PO473596  36.881  29.182   5.850
10234POPC   GL173597  36.919  29.110   6.150
10234POPC   GL273598  36.801  29.181   6.150
10234POPC   C1A73599  36.946  29.156   6.450
10234POPC   D2A73600  36.923  29.133   6.750
10234POPC   C3A73601  36.878  29.100   7.050
10234POPC   C4A73602  36.939  29.167   7.350
10234POPC   C1B73603  36.697  29.210   6.450
10234POPC   C2B73604  36.708  29.261   6.750
10234POPC   C3B73605  36.678  29.236   7.050
10234POPC   C4B73606  36.711  29.245   7.350
10235POPC   NC373607  40.022  41.512   5.550
10235POPC   PO473608  40.020  41.547   5.850
10235POPC   GL173609  40.045  41.570   6.150
10235POPC   GL273610  39.935  41.715   6.150
10235POPC   C1A73611  40.048  41.564   6.450
10235POPC   D2A73612  40.056  41.601   6.750
10235POPC   C3A73613  39.965  41.538   7.050
10235POPC   C4A73614  40.023  41.599   7.350
10235POPC   C1B73615  39.951  41.812   6.450
10235POPC   C2B73616  39.947  41.839   6.750
10235POPC   C3B73617  39.877  41.805   7.050
10235POPC   C4B73618  39.901  41.778   7.350
10236POPC   NC373619  16.682   2.754   5.550
10236POPC   PO473620  16.682   2.732   5.850
10236POPC   GL173621  16.690   2.733   6.150
10236POPC   GL273622  16.644   2.825   6.150
10236POPC   C1A73623  16.779   2.801   6.450
10236POPC   D2A73624  16.733   2.724   6.750
10236POPC   C3A73625  16.731   2.754   7.050
10236POPC   C4A73626  16.694   2.773   7.350
10236POPC   C1B73627  16.527   2.902   6.450
10236POPC   C2B73628  16.546   2.844   6.750
10236POPC   C3B73629  16.469   2.815   7.050
10236POPC   C4B73630  16.453   2.900   7.350
10237POPC   NC373631  10.517  29.879   5.550
10237POPC   PO473632  10.563  29.919   5.850
10237POPC   GL173633  10.523  29.895   6.150
10237POPC   GL273634  10.591  29.945   6.150
10237POPC   C1A73635  10.560  29.923   6.450
10237POPC   D2A73636  10.490  29.883   6.750
10237POPC   C3A73637  10.559  29.920   7.050
10237POPC   C4A73638  10.490  29.884   7.350
10237POPC   C1B73639  10.699  30.054   6.450
10237POPC   C2B73640  10.696  30.084   6.750
10237POPC   C3B73641  10.725  30.058   7.050
10237POPC   C4B73642  10.717  30.029   7.350
10238POPC   NC373643   1.244  12.098   5.550
10238POPC   PO473644   1.259  12.084   5.850
10238POPC   GL173645   1.232  12.058   6.150
10238POPC   GL273646   1.090  12.061   6.150
10238POPC   C1A73647   1.172  12.108   6.450
10238POPC   D2A73648   1.172  12.115   6.750
10238POPC   C3A73649   1.263  12.105   7.050
10238POPC   C4A73650   1.244  12.076   7.350
10238POPC   C1B73651   0.924  12.115   6.450
10238POPC   C2B73652   1.007  12.089   6.750
10238POPC   C3B73653   1.008  12.062   7.050
10238POPC   C4B73654   1.011  12.063   7.350
10239POPC   NC373655   5.089   5.063   5.550
10239POPC   PO473656   5.086   5.082   5.850
10239POPC   GL173657   5.052   5.105   6.150
10239POPC   GL273658   5.191   5.155   6.150
10239POPC   C1A73659   5.057   5.072   6.450
10239POPC   D2A73660   5.139   5.119   6.750
10239POPC   C3A73661   5.064   5.131   7.050
10239POPC   C4A73662   5.073   5.048   7.350
10239POPC   C1B73663   5.265   5.201   6.450
10239POPC   C2B73664   5.321   5.184   6.750
10239POPC   C3B73665   5.345   5.182   7.050
10239POPC   C4B73666   5.341   5.235   7.350
10240POPC   NC373667   6.624  10.510   5.550
10240POPC   PO473668   6.609  10.543   5.850
10240POPC   GL173669   6.663  10.491   6.150
10240POPC   GL273670   6.590  10.362   6.150
10240POPC   C1A73671   6.640  10.568   6.450
10240POPC   D2A73672   6.608  10.522   6.750
10240POPC   C3A73673   6.693  10.512   7.050
10240POPC   C4A73674   6.643  10.514   7.350
10240POPC   C1B73675   6.654  10.303   6.450
10240POPC   C2B73676   6.643  10.286   6.750
10240POPC   C3B73677   6.642  10.275   7.050
10240POPC   C4B73678   6.643  10.248   7.350
10241POPC   NC373679  33.060   6.598   5.550
10241POPC   PO473680  33.012   6.657   5.850
10241POPC   GL173681  33.000   6.641   6.150
10241POPC   GL273682  33.108   6.712   6.150
10241POPC   C1A73683  33.014   6.640   6.450
10241POPC   D2A73684  33.040   6.681   6.750
10241POPC   C3A73685  33.044   6.684   7.050
10241POPC   C4A73686  32.989   6.671   7.350
10241POPC   C1B73687  33.223   6.759   6.450
10241POPC   C2B73688  33.293   6.730   6.750
10241POPC   C3B73689  33.247   6.723   7.050
10241POPC   C4B73690  33.236   6.709   7.350
10242POPC   NC373691  43.841  17.486   5.550
10242POPC   PO473692  43.929  17.532   5.850
10242POPC   GL173693  43.935  17.542   6.150
10242POPC   GL273694  43.832  17.618   6.150
10242POPC   C1A73695  43.902  17.498   6.450
10242POPC   D2A73696  43.888  17.526   6.750
10242POPC   C3A73697  43.924  17.526   7.050
10242POPC   C4A73698  43.890  17.532   7.350
10242POPC   C1B73699  43.715  17.620   6.450
10242POPC   C2B73700  43.696  17.682   6.750
10242POPC   C3B73701  43.680  17.641   7.050
10242POPC   C4B73702  43.710  17.616   7.350
10243POPC   NC373703   5.056  21.399   5.550
10243POPC   PO473704   5.139  21.375   5.850
10243POPC   GL173705   5.133  21.351   6.150
10243POPC   GL273706   5.121  21.517   6.150
10243POPC   C1A73707   5.076  21.354   6.450
10243POPC   D2A73708   5.058  21.348   6.750
10243POPC   C3A73709   5.113  21.377   7.050
10243POPC   C4A73710   5.045  21.387   7.350
10243POPC   C1B73711   5.082  21.649   6.450
10243POPC   C2B73712   5.141  21.645   6.750
10243POPC   C3B73713   5.122  21.601   7.050
10243POPC   C4B73714   5.130  21.642   7.350
10244POPC   NC373715  11.266  32.250   5.550
10244POPC   PO473716  11.293  32.271   5.850
10244POPC   GL173717  11.267  32.269   6.150
10244POPC   GL273718  11.231  32.152   6.150
10244POPC   C1A73719  11.268  32.215   6.450
10244POPC   D2A73720  11.268  32.248   6.750
10244POPC   C3A73721  11.285  32.265   7.050
10244POPC   C4A73722  11.271  32.259   7.350
10244POPC   C1B73723  11.056  32.114   6.450
10244POPC   C2B73724  11.042  32.143   6.750
10244POPC   C3B73725  11.095  32.083   7.050
10244POPC   C4B73726  11.078  32.169   7.350
10245POPC   NC373727  14.445  19.055   5.550
10245POPC   PO473728  14.430  19.034   5.850
10245POPC   GL173729  14.447  19.038   6.150
10245POPC   GL273730  14.455  19.141   6.150
10245POPC   C1A73731  14.355  19.077   6.450
10245POPC   D2A73732  14.379  19.104   6.750
10245POPC   C3A73733  14.429  19.012   7.050
10245POPC   C4A73734  14.409  19.031   7.350
10245POPC   C1B73735  14.499  19.323   6.450
10245POPC   C2B73736  14.444  19.314   6.750
10245POPC   C3B73737  14.503  19.281   7.050
10245POPC   C4B73738  14.451  19.336   7.350
10246POPC   NC373739  41.540  26.027   5.550
10246POPC   PO473740  41.550  26.035   5.850
10246POPC   GL173741  41.590  26.012   6.150
10246POPC   GL273742  41.447  25.991   6.150
10246POPC   C1A73743  41.579  26.080   6.450
10246POPC   D2A73744  41.573  26.010   6.750
10246POPC   C3A73745  41.566  26.021   7.050
10246POPC   C4A73746  41.524  26.058   7.350
10246POPC   C1B73747  41.339  25.970   6.450
10246POPC   C2B73748  41.352  25.985   6.750
10246POPC   C3B73749  41.312  25.948   7.050
10246POPC   C4B73750  41.282  25.914   7.350
10247POPC   NC373751  22.960  43.147   5.550
10247POPC   PO473752  22.975  43.149   5.850
10247POPC   GL173753  22.917  43.129   6.150
10247POPC   GL273754  22.952  43.205   6.150
10247POPC   C1A73755  22.960  43.126   6.450
10247POPC   D2A73756  22.947  43.089   6.750
10247POPC   C3A73757  22.959  43.080   7.050
10247POPC   C4A73758  22.935  43.141   7.350
10247POPC   C1B73759  22.971  43.325   6.450
10247POPC   C2B73760  22.963  43.325   6.750
10247POPC   C3B73761  22.961  43.379   7.050
10247POPC   C4B73762  22.989  43.369   7.350
10248POPC   NC373763   3.513  36.873   5.550
10248POPC   PO473764   3.563  36.940   5.850
10248POPC   GL173765   3.581  36.926   6.150
10248POPC   GL273766   3.605  36.971   6.150
10248POPC   C1A73767   3.520  36.858   6.450
10248POPC   D2A73768   3.509  36.914   6.750
10248POPC   C3A73769   3.566  36.930   7.050
10248POPC   C4A73770   3.532  36.919   7.350
10248POPC   C1B73771   3.756  37.001   6.450
10248POPC   C2B73772   3.786  36.999   6.750
10248POPC   C3B73773   3.737  37.055   7.050
10248POPC   C4B73774   3.787  37.019   7.350
10249POPC   NC373775  35.368  39.207   5.550
10249POPC   PO473776  35.310  39.210   5.850
10249POPC   GL173777  35.342  39.199   6.150
10249POPC   GL273778  35.239  39.283   6.150
10249POPC   C1A73779  35.353  39.200   6.450
10249POPC   D2A73780  35.368  39.205   6.750
10249POPC   C3A73781  35.350  39.217   7.050
10249POPC   C4A73782  35.380  39.278   7.350
10249POPC   C1B73783  35.127  39.430   6.450
10249POPC   C2B73784  35.135  39.355   6.750
10249POPC   C3B73785  35.151  39.395   7.050
10249POPC   C4B73786  35.143  39.385   7.350
10250POPC   NC373787  26.076  30.715   5.550
10250POPC   PO473788  26.047  30.687   5.850
10250POPC   GL173789  26.079  30.660   6.150
10250POPC   GL273790  25.950  30.677   6.150
10250POPC   C1A73791  26.088  30.688   6.450
10250POPC   D2A73792  26.024  30.662   6.750
10250POPC   C3A73793  26.082  30.653   7.050
10250POPC   C4A73794  26.077  30.691   7.350
10250POPC   C1B73795  25.745  30.689   6.450
10250POPC   C2B73796  25.840  30.736   6.750
10250POPC   C3B73797  25.841  30.710   7.050
10250POPC   C4B73798  25.752  30.664   7.350
10251POPC   NC373799  19.014  11.281   5.550
10251POPC   PO473800  19.052  11.282   5.850
10251POPC   GL173801  19.032  11.300   6.150
10251POPC   GL273802  19.082  11.160   6.150
10251POPC   C1A73803  19.057  11.304   6.450
10251POPC   D2A73804  19.066  11.294   6.750
10251POPC   C3A73805  19.106  11.272   7.050
10251POPC   C4A73806  19.061  11.318   7.350
10251POPC   C1B73807  19.005  11.038   6.450
10251POPC   C2B73808  18.996  11.087   6.750
10251POPC   C3B73809  19.059  11.017   7.050
10251POPC   C4B73810  19.009  11.090   7.350
10252POPC   NC373811  22.172  22.127   5.550
10252POPC   PO473812  22.145  22.161   5.850
10252POPC   GL173813  22.169  22.178   6.150
10252POPC   GL273814  22.317  22.145   6.150
10252POPC   C1A73815  22.133  22.132   6.450
10252POPC   D2A73816  22.121  22.147   6.750
10252POPC   C3A73817  22.178  22.125   7.050
10252POPC   C4A73818  22.167  22.203   7.350
10252POPC   C1B73819  22.424  22.085   6.450
10252POPC   C2B73820  22.367  22.067   6.750
10252POPC   C3B73821  22.356  22.083   7.050
10252POPC   C4B73822  22.426  22.049   7.350
10253POPC   NC373823  20.573  32.290   5.550
10253POPC   PO473824  20.633  32.219   5.850
10253POPC   GL173825  20.656  32.282   6.150
10253POPC   GL273826  20.620  32.168   6.150
10253POPC   C1A73827  20.623  32.198   6.450
10253POPC   D2A73828  20.613  32.213   6.750
10253POPC   C3A73829  20.606  32.245   7.050
10253POPC   C4A73830  20.645  32.231   7.350
10253POPC   C1B73831  20.549  31.971   6.450
10253POPC   C2B73832  20.512  32.018   6.750
10253POPC   C3B73833  20.523  31.993   7.050
10253POPC   C4B73834  20.511  31.961   7.350
10254POPC   NC373835  42.378  20.649   5.550
10254POPC   PO473836  42.295  20.608   5.850
10254POPC   GL173837  42.369  20.623   6.150
10254POPC   GL273838  42.297  20.531   6.150
10254POPC   C1A73839  42.305  20.651   6.450
10254POPC   D2A73840  42.321  20.610   6.750
10254POPC   C3A73841  42.295  20.596   7.050
10254POPC   C4A73842  42.376  20.614   7.350
10254POPC   C1B73843  42.252  20.357   6.450
10254POPC   C2B73844  42.323  20.337   6.750
10254POPC   C3B73845  42.272  20.326   7.050
10254POPC   C4B73846  42.309  20.375   7.350
10255POPC   NC373847  25.244  43.837   5.550
10255POPC   PO473848  25.219  43.848   5.850
10255POPC   GL173849  25.260  43.861   6.150
10255POPC   GL273850  25.278  44.029   6.150
10255POPC   C1A73851  25.282  43.890   6.450
10255POPC   D2A73852  25.258  43.836   6.750
10255POPC   C3A73853  25.230  43.865   7.050
10255POPC   C4A73854  25.265  43.872   7.350
10255POPC   C1B73855  25.240  44.120   6.450
10255POPC   C2B73856  25.195  44.171   6.750
10255POPC   C3B73857  25.176  44.165   7.050
10255POPC   C4B73858  25.184  44.082   7.350
10256POPC   NC373859  29.135  31.458   5.550
10256POPC   PO473860  29.126  31.429   5.850
10256POPC   GL173861  29.182  31.465   6.150
10256POPC   GL273862  29.288  31.496   6.150
10256POPC   C1A73863  29.183  31.503   6.450
10256POPC   D2A73864  29.184  31.440   6.750
10256POPC   C3A73865  29.113  31.430   7.050
10256POPC   C4A73866  29.160  31.519   7.350
10256POPC   C1B73867  29.416  31.468   6.450
10256POPC   C2B73868  29.426  31.452   6.750
10256POPC   C3B73869  29.431  31.516   7.050
10256POPC   C4B73870  29.430  31.496   7.350
10257POPC   NC373871  31.442   2.802   5.550
10257POPC   PO473872  31.438   2.731   5.850
10257POPC   GL173873  31.453   2.721   6.150
10257POPC   GL273874  31.434   2.688   6.150
10257POPC   C1A73875  31.455   2.773   6.450
10257POPC   D2A73876  31.463   2.775   6.750
10257POPC   C3A73877  31.423   2.735   7.050
10257POPC   C4A73878  31.504   2.770   7.350
10257POPC   C1B73879  31.432   2.519   6.450
10257POPC   C2B73880  31.391   2.496   6.750
10257POPC   C3B73881  31.448   2.514   7.050
10257POPC   C4B73882  31.401   2.528   7.350
10258POPC   NC373883  35.316   7.395   5.550
10258POPC   PO473884  35.379   7.440   5.850
10258POPC   GL173885  35.302   7.407   6.150
10258POPC   GL273886  35.244   7.505   6.150
10258POPC   C1A73887  35.352   7.425   6.450
10258POPC   D2A73888  35.393   7.466   6.750
10258POPC   C3A73889  35.388   7.390   7.050
10258POPC   C4A73890  35.353   7.433   7.350
10258POPC   C1B73891  35.157   7.645   6.450
10258POPC   C2B73892  35.161   7.598   6.750
10258POPC   C3B73893  35.219   7.574   7.050
10258POPC   C4B73894  35.218   7.572   7.350
10259POPC   NC373895   3.524  33.843   5.550
10259POPC   PO473896   3.513  33.777   5.850
10259POPC   GL173897   3.586  33.778   6.150
10259POPC   GL273898   3.454  33.842   6.150
10259POPC   C1A73899   3.529  33.842   6.450
10259POPC   D2A73900   3.583  33.764   6.750
10259POPC   C3A73901   3.567  33.753   7.050
10259POPC   C4A73902   3.566  33.759   7.350
10259POPC   C1B73903   3.313  33.858   6.450
10259POPC   C2B73904   3.306  33.785   6.750
10259POPC   C3B73905   3.272  33.815   7.050
10259POPC   C4B73906   3.292  33.798   7.350
10260POPC   NC373907  12.093  42.296   5.550
10260POPC   PO473908  12.096  42.345   5.850
10260POPC   GL173909  12.032  42.382   6.150
10260POPC   GL273910  11.984  42.358   6.150
10260POPC   C1A73911  12.119  42.309   6.450
10260POPC   D2A73912  12.094  42.343   6.750
10260POPC   C3A73913  12.076  42.322   7.050
10260POPC   C4A73914  12.039  42.288   7.350
10260POPC   C1B73915  11.871  42.446   6.450
10260POPC   C2B73916  11.798  42.386   6.750
10260POPC   C3B73917  11.807  42.436   7.050
10260POPC   C4B73918  11.874  42.365   7.350
10261POPC   NC373919  39.244   8.948   5.550
10261POPC   PO473920  39.203   9.010   5.850
10261POPC   GL173921  39.258   8.951   6.150
10261POPC   GL273922  39.121   9.003   6.150
10261POPC   C1A73923  39.237   8.948   6.450
10261POPC   D2A73924  39.232   8.943   6.750
10261POPC   C3A73925  39.213   8.966   7.050
10261POPC   C4A73926  39.206   9.011   7.350
10261POPC   C1B73927  38.989   8.919   6.450
10261POPC   C2B73928  38.973   8.941   6.750
10261POPC   C3B73929  39.025   8.965   7.050
10261POPC   C4B73930  38.982   8.945   7.350
10262POPC   NC373931   6.664  36.169   5.550
10262POPC   PO473932   6.623  36.083   5.850
10262POPC   GL173933   6.674  36.177   6.150
10262POPC   GL273934   6.535  36.108   6.150
10262POPC   C1A73935   6.676  36.155   6.450
10262POPC   D2A73936   6.644  36.113   6.750
10262POPC   C3A73937   6.622  36.088   7.050
10262POPC   C4A73938   6.613  36.103   7.350
10262POPC   C1B73939   6.406  36.045   6.450
10262POPC   C2B73940   6.403  36.099   6.750
10262POPC   C3B73941   6.425  36.093   7.050
10262POPC   C4B73942   6.377  36.113   7.350
10263POPC   NC373943  37.671   9.706   5.550
10263POPC   PO473944  37.674   9.789   5.850
10263POPC   GL173945  37.640   9.766   6.150
10263POPC   GL273946  37.520   9.702   6.150
10263POPC   C1A73947  37.632   9.721   6.450
10263POPC   D2A73948  37.667   9.782   6.750
10263POPC   C3A73949  37.653   9.718   7.050
10263POPC   C4A73950  37.685   9.703   7.350
10263POPC   C1B73951  37.444   9.724   6.450
10263POPC   C2B73952  37.391   9.718   6.750
10263POPC   C3B73953  37.445   9.682   7.050
10263POPC   C4B73954  37.486   9.712   7.350
10264POPC   NC373955  27.562   1.236   5.550
10264POPC   PO473956  27.624   1.189   5.850
10264POPC   GL173957  27.589   1.224   6.150
10264POPC   GL273958  27.500   1.109   6.150
10264POPC   C1A73959  27.583   1.167   6.450
10264POPC   D2A73960  27.625   1.240   6.750
10264POPC   C3A73961  27.595   1.178   7.050
10264POPC   C4A73962  27.581   1.224   7.350
10264POPC   C1B73963  27.415   1.071   6.450
10264POPC   C2B73964  27.372   1.037   6.750
10264POPC   C3B73965  27.413   1.071   7.050
10264POPC   C4B73966  27.425   0.991   7.350
10265POPC   NC373967  23.690  36.115   5.550
10265POPC   PO473968  23.690  36.156   5.850
10265POPC   GL173969  23.680  36.102   6.150
10265POPC   GL273970  23.679  36.033   6.150
10265POPC   C1A73971  23.696  36.175   6.450
10265POPC   D2A73972  23.690  36.129   6.750
10265POPC   C3A73973  23.718  36.100   7.050
10265POPC   C4A73974  23.676  36.157   7.350
10265POPC   C1B73975  23.629  35.912   6.450
10265POPC   C2B73976  23.563  35.875   6.750
10265POPC   C3B73977  23.558  35.918   7.050
10265POPC   C4B73978  23.579  35.944   7.350
10266POPC   NC373979  19.076  20.607   5.550
10266POPC   PO473980  19.076  20.632   5.850
10266POPC   GL173981  19.079  20.629   6.150
10266POPC   GL273982  19.145  20.725   6.150
10266POPC   C1A73983  19.029  20.638   6.450
10266POPC   D2A73984  19.074  20.659   6.750
10266POPC   C3A73985  19.027  20.561   7.050
10266POPC   C4A73986  19.097  20.567   7.350
10266POPC   C1B73987  19.222  20.817   6.450
10266POPC   C2B73988  19.251  20.765   6.750
10266POPC   C3B73989  19.266  20.747   7.050
10266POPC   C4B73990  19.209  20.790   7.350
10267POPC   NC373991  27.565  36.891   5.550
10267POPC   PO473992  27.554  36.933   5.850
10267POPC   GL173993  27.605  36.950   6.150
10267POPC   GL273994  27.483  36.989   6.150
10267POPC   C1A73995  27.547  36.854   6.450
10267POPC   D2A73996  27.591  36.876   6.750
10267POPC   C3A73997  27.631  36.905   7.050
10267POPC   C4A73998  27.549  36.897   7.350
10267POPC   C1B73999  27.354  36.946   6.450
10267POPC   C2B74000  27.356  36.972   6.750
10267POPC   C3B74001  27.314  37.002   7.050
10267POPC   C4B74002  27.371  36.948   7.350
10268POPC   NC374003  43.068  23.749   5.550
10268POPC   PO474004  43.143  23.713   5.850
10268POPC   GL174005  43.158  23.692   6.150
10268POPC   GL274006  43.184  23.822   6.150
10268POPC   C1A74007  43.159  23.744   6.450
10268POPC   D2A74008  43.135  23.667   6.750
10268POPC   C3A74009  43.062  23.723   7.050
10268POPC   C4A74010  43.107  23.665   7.350
10268POPC   C1B74011  43.235  23.905   6.450
10268POPC   C2B74012  43.236  23.853   6.750
10268POPC   C3B74013  43.290  23.946   7.050
10268POPC   C4B74014  43.312  23.927   7.350
10269POPC   NC374015  35.316   4.355   5.550
10269POPC   PO474016  35.370   4.353   5.850
10269POPC   GL174017  35.349   4.356   6.150
10269POPC   GL274018  35.410   4.232   6.150
10269POPC   C1A74019  35.383   4.318   6.450
10269POPC   D2A74020  35.340   4.282   6.750
10269POPC   C3A74021  35.331   4.309   7.050
10269POPC   C4A74022  35.346   4.328   7.350
10269POPC   C1B74023  35.482   4.101   6.450
10269POPC   C2B74024  35.507   4.121   6.750
10269POPC   C3B74025  35.484   4.108   7.050
10269POPC   C4B74026  35.528   4.152   7.350
10270POPC   NC374027  22.115  35.382   5.550
10270POPC   PO474028  22.201  35.364   5.850
10270POPC   GL174029  22.124  35.312   6.150
10270POPC   GL274030  22.208  35.276   6.150
10270POPC   C1A74031  22.165  35.398   6.450
10270POPC   D2A74032  22.207  35.401   6.750
10270POPC   C3A74033  22.153  35.308   7.050
10270POPC   C4A74034  22.168  35.391   7.350
10270POPC   C1B74035  22.360  35.210   6.450
10270POPC   C2B74036  22.340  35.189   6.750
10270POPC   C3B74037  22.299  35.202   7.050
10270POPC   C4B74038  22.299  35.136   7.350
10271POPC   NC374039   1.220  42.314   5.550
10271POPC   PO474040   1.170  42.311   5.850
10271POPC   GL174041   1.217  42.308   6.150
10271POPC   GL274042   1.201  42.192   6.150
10271POPC   C1A74043   1.200  42.351   6.450
10271POPC   D2A74044   1.185  42.378   6.750
10271POPC   C3A74045   1.179  42.353   7.050
10271POPC   C4A74046   1.181  42.294   7.350
10271POPC   C1B74047   1.115  42.151   6.450
10271POPC   C2B74048   1.115  42.143   6.750
10271POPC   C3B74049   1.066  42.126   7.050
10271POPC   C4B74050   1.104  42.096   7.350
10272POPC   NC374051  25.300  19.040   5.550
10272POPC   PO474052  25.306  19.021   5.850
10272POPC   GL174053  25.237  19.029   6.150
10272POPC   GL274054  25.200  19.027   6.150
10272POPC   C1A74055  25.222  19.035   6.450
10272POPC   D2A74056  25.253  19.101   6.750
10272POPC   C3A74057  25.276  19.102   7.050
10272POPC   C4A74058  25.259  19.036   7.350
10272POPC   C1B74059  25.098  18.874   6.450
10272POPC   C2B74060  25.024  18.885   6.750
10272POPC   C3B74061  25.119  18.932   7.050
10272POPC   C4B74062  25.092  18.891   7.350
10273POPC   NC374063  15.961  10.530   5.550
10273POPC   PO474064  15.917  10.491   5.850
10273POPC   GL174065  15.962  10.495   6.150
10273POPC   GL274066  15.983  10.373   6.150
10273POPC   C1A74067  15.934  10.554   6.450
10273POPC   D2A74068  15.971  10.561   6.750
10273POPC   C3A74069  15.929  10.479   7.050
10273POPC   C4A74070  15.977  10.494   7.350
10273POPC   C1B74071  15.938  10.291   6.450
10273POPC   C2B74072  15.901  10.232   6.750
10273POPC   C3B74073  15.950  10.246   7.050
10273POPC   C4B74074  15.987  10.315   7.350
10274POPC   NC374075  17.465  14.446   5.550
10274POPC   PO474076  17.493  14.378   5.850
10274POPC   GL174077  17.459  14.363   6.150
10274POPC   GL274078  17.605  14.389   6.150
10274POPC   C1A74079  17.524  14.385   6.450
10274POPC   D2A74080  17.511  14.413   6.750
10274POPC   C3A74081  17.532  14.432   7.050
10274POPC   C4A74082  17.498  14.416   7.350
10274POPC   C1B74083  17.766  14.351   6.450
10274POPC   C2B74084  17.771  14.353   6.750
10274POPC   C3B74085  17.758  14.329   7.050
10274POPC   C4B74086  17.760  14.408   7.350
10275POPC   NC374087  10.535  38.491   5.550
10275POPC   PO474088  10.541  38.421   5.850
10275POPC   GL174089  10.544  38.499   6.150
10275POPC   GL274090  10.599  38.408   6.150
10275POPC   C1A74091  10.557  38.437   6.450
10275POPC   D2A74092  10.490  38.432   6.750
10275POPC   C3A74093  10.475  38.413   7.050
10275POPC   C4A74094  10.482  38.417   7.350
10275POPC   C1B74095  10.644  38.244   6.450
10275POPC   C2B74096  10.679  38.263   6.750
10275POPC   C3B74097  10.673  38.242   7.050
10275POPC   C4B74098  10.693  38.297   7.350
10276POPC   NC374099  22.909  36.900   5.550
10276POPC   PO474100  22.910  36.902   5.850
10276POPC   GL174101  22.906  36.940   6.150
10276POPC   GL274102  22.884  36.746   6.150
10276POPC   C1A74103  22.934  36.904   6.450
10276POPC   D2A74104  22.966  36.904   6.750
10276POPC   C3A74105  22.925  36.862   7.050
10276POPC   C4A74106  22.960  36.855   7.350
10276POPC   C1B74107  22.865  36.638   6.450
10276POPC   C2B74108  22.913  36.619   6.750
10276POPC   C3B74109  22.821  36.684   7.050
10276POPC   C4B74110  22.840  36.662   7.350
10277POPC   NC374111   0.444   9.736   5.550
10277POPC   PO474112   0.404   9.752   5.850
10277POPC   GL174113   0.483   9.769   6.150
10277POPC   GL274114   0.367   9.595   6.150
10277POPC   C1A74115   0.477   9.712   6.450
10277POPC   D2A74116   0.468   9.787   6.750
10277POPC   C3A74117   0.401   9.737   7.050
10277POPC   C4A74118   0.438   9.721   7.350
10277POPC   C1B74119   0.392   9.475   6.450
10277POPC   C2B74120   0.321   9.497   6.750
10277POPC   C3B74121   0.345   9.479   7.050
10277POPC   C4B74122   0.342   9.530   7.350
10278POPC   NC374123  15.219  43.135   5.550
10278POPC   PO474124  15.149  43.146   5.850
10278POPC   GL174125  15.139  43.146   6.150
10278POPC   GL274126  15.229  43.170   6.150
10278POPC   C1A74127  15.129  43.124   6.450
10278POPC   D2A74128  15.202  43.089   6.750
10278POPC   C3A74129  15.222  43.158   7.050
10278POPC   C4A74130  15.200  43.086   7.350
10278POPC   C1B74131  15.298  43.281   6.450
10278POPC   C2B74132  15.306  43.277   6.750
10278POPC   C3B74133  15.346  43.336   7.050
10278POPC   C4B74134  15.328  43.330   7.350
10279POPC   NC374135  34.575  15.174   5.550
10279POPC   PO474136  34.570  15.174   5.850
10279POPC   GL174137  34.550  15.138   6.150
10279POPC   GL274138  34.665  15.120   6.150
10279POPC   C1A74139  34.575  15.149   6.450
10279POPC   D2A74140  34.618  15.180   6.750
10279POPC   C3A74141  34.552  15.227   7.050
10279POPC   C4A74142  34.594  15.176   7.350
10279POPC   C1B74143  34.790  15.145   6.450
10279POPC   C2B74144  34.816  15.090   6.750
10279POPC   C3B74145  34.828  15.141   7.050
10279POPC   C4B74146  34.852  15.055   7.350
10280POPC   NC374147  20.602   1.195   5.550
10280POPC   PO474148  20.585   1.243   5.850
10280POPC   GL174149  20.579   1.255   6.150
10280POPC   GL274150  20.632   1.091   6.150
10280POPC   C1A74151  20.601   1.233   6.450
10280POPC   D2A74152  20.639   1.202   6.750
10280POPC   C3A74153  20.629   1.218   7.050
10280POPC   C4A74154  20.649   1.220   7.350
10280POPC   C1B74155  20.574   1.010   6.450
10280POPC   C2B74156  20.613   1.003   6.750
10280POPC   C3B74157  20.563   1.008   7.050
10280POPC   C4B74158  20.622   0.936   7.350
10281POPC   NC374159   5.049  27.556   5.550
10281POPC   PO474160   5.045  27.559   5.850
10281POPC   GL174161   5.137  27.630   6.150
10281POPC   GL274162   5.027  27.684   6.150
10281POPC   C1A74163   5.097  27.584   6.450
10281POPC   D2A74164   5.044  27.629   6.750
10281POPC   C3A74165   5.094  27.616   7.050
10281POPC   C4A74166   5.047  27.552   7.350
10281POPC   C1B74167   5.017  27.789   6.450
10281POPC   C2B74168   5.000  27.858   6.750
10281POPC   C3B74169   5.001  27.815   7.050
10281POPC   C4B74170   5.061  27.863   7.350
10282POPC   NC374171   9.713  20.602   5.550
10282POPC   PO474172   9.781  20.571   5.850
10282POPC   GL174173   9.728  20.654   6.150
10282POPC   GL274174   9.617  20.482   6.150
10282POPC   C1A74175   9.779  20.656   6.450
10282POPC   D2A74176   9.784  20.586   6.750
10282POPC   C3A74177   9.774  20.595   7.050
10282POPC   C4A74178   9.794  20.594   7.350
10282POPC   C1B74179   9.543  20.390   6.450
10282POPC   C2B74180   9.575  20.467   6.750
10282POPC   C3B74181   9.538  20.475   7.050
10282POPC   C4B74182   9.569  20.446   7.350
10283POPC   NC374183  22.208  43.144   5.550
10283POPC   PO474184  22.156  43.080   5.850
10283POPC   GL174185  22.193  43.071   6.150
10283POPC   GL274186  22.061  43.089   6.150
10283POPC   C1A74187  22.145  43.116   6.450
10283POPC   D2A74188  22.139  43.090   6.750
10283POPC   C3A74189  22.147  43.138   7.050
10283POPC   C4A74190  22.177  43.063   7.350
10283POPC   C1B74191  21.938  43.003   6.450
10283POPC   C2B74192  21.932  43.014   6.750
10283POPC   C3B74193  21.927  43.000   7.050
10283POPC   C4B74194  21.966  43.000   7.350
10284POPC   NC374195  43.103  39.202   5.550
10284POPC   PO474196  43.101  39.260   5.850
10284POPC   GL174197  43.087  39.237   6.150
10284POPC   GL274198  43.217  39.166   6.150
10284POPC   C1A74199  43.142  39.228   6.450
10284POPC   D2A74200  43.082  39.191   6.750
10284POPC   C3A74201  43.151  39.252   7.050
10284POPC   C4A74202  43.062  39.209   7.350
10284POPC   C1B74203  43.312  39.135   6.450
10284POPC   C2B74204  43.342  39.114   6.750
10284POPC   C3B74205  43.333  39.134   7.050
10284POPC   C4B74206  43.321  39.134   7.350
10285POPC   NC374207   1.198  40.041   5.550
10285POPC   PO474208   1.231  40.033   5.850
10285POPC   GL174209   1.209  40.006   6.150
10285POPC   GL274210   1.340  39.951   6.150
10285POPC   C1A74211   1.200  39.975   6.450
10285POPC   D2A74212   1.248  39.959   6.750
10285POPC   C3A74213   1.196  40.012   7.050
10285POPC   C4A74214   1.186  40.014   7.350
10285POPC   C1B74215   1.374  39.859   6.450
10285POPC   C2B74216   1.335  39.866   6.750
10285POPC   C3B74217   1.396  39.803   7.050
10285POPC   C4B74218   1.352  39.783   7.350
10286POPC   NC374219  32.295  40.802   5.550
10286POPC   PO474220  32.206  40.806   5.850
10286POPC   GL174221  32.278  40.747   6.150
10286POPC   GL274222  32.294  40.688   6.150
10286POPC   C1A74223  32.248  40.758   6.450
10286POPC   D2A74224  32.287  40.810   6.750
10286POPC   C3A74225  32.297  40.823   7.050
10286POPC   C4A74226  32.232  40.773   7.350
10286POPC   C1B74227  32.293  40.518   6.450
10286POPC   C2B74228  32.335  40.542   6.750
10286POPC   C3B74229  32.318  40.531   7.050
10286POPC   C4B74230  32.314  40.517   7.350
10287POPC   NC374231   2.008  43.912   5.550
10287POPC   PO474232   2.018  43.844   5.850
10287POPC   GL174233   1.987  43.887   6.150
10287POPC   GL274234   1.889  43.773   6.150
10287POPC   C1A74235   1.948  43.923   6.450
10287POPC   D2A74236   2.025  43.858   6.750
10287POPC   C3A74237   2.033  43.846   7.050
10287POPC   C4A74238   2.022  43.888   7.350
10287POPC   C1B74239   1.844  43.635   6.450
10287POPC   C2B74240   1.837  43.704   6.750
10287POPC   C3B74241   1.817  43.661   7.050
10287POPC   C4B74242   1.858  43.644   7.350
10288POPC   NC374243  44.677  43.116   5.550
10288POPC   PO474244  44.662  43.116   5.850
10288POPC   GL174245  44.648  43.066   6.150
10288POPC   GL274246  44.794  43.203   6.150
10288POPC   C1A74247  44.690  43.139   6.450
10288POPC   D2A74248  44.698  43.074   6.750
10288POPC   C3A74249  44.668  43.098   7.050
10288POPC   C4A74250  44.669  43.089   7.350
10288POPC   C1B74251  44.915  43.233   6.450
10288POPC   C2B74252  44.891  43.231   6.750
10288POPC   C3B74253  44.875  43.173   7.050
10288POPC   C4B74254  44.923  43.193   7.350
10289POPC   NC374255  14.407  35.385   5.550
10289POPC   PO474256  14.402  35.379   5.850
10289POPC   GL174257  14.431  35.307   6.150
10289POPC   GL274258  14.498  35.466   6.150
10289POPC   C1A74259  14.443  35.314   6.450
10289POPC   D2A74260  14.448  35.375   6.750
10289POPC   C3A74261  14.378  35.390   7.050
10289POPC   C4A74262  14.428  35.323   7.350
10289POPC   C1B74263  14.539  35.578   6.450
10289POPC   C2B74264  14.512  35.543   6.750
10289POPC   C3B74265  14.541  35.594   7.050
10289POPC   C4B74266  14.538  35.574   7.350
10290POPC   NC374267  21.417  27.562   5.550
10290POPC   PO474268  21.355  27.579   5.850
10290POPC   GL174269  21.338  27.604   6.150
10290POPC   GL274270  21.501  27.552   6.150
10290POPC   C1A74271  21.415  27.589   6.450
10290POPC   D2A74272  21.400  27.564   6.750
10290POPC   C3A74273  21.342  27.557   7.050
10290POPC   C4A74274  21.374  27.600   7.350
10290POPC   C1B74275  21.650  27.550   6.450
10290POPC   C2B74276  21.652  27.555   6.750
10290POPC   C3B74277  21.645  27.576   7.050
10290POPC   C4B74278  21.627  27.575   7.350
10291POPC   NC374279  13.639   2.033   5.550
10291POPC   PO474280  13.664   1.943   5.850
10291POPC   GL174281  13.618   1.999   6.150
10291POPC   GL274282  13.745   2.057   6.150
10291POPC   C1A74283  13.665   2.003   6.450
10291POPC   D2A74284  13.580   1.961   6.750
10291POPC   C3A74285  13.666   1.989   7.050
10291POPC   C4A74286  13.664   1.981   7.350
10291POPC   C1B74287  13.789   2.201   6.450
10291POPC   C2B74288  13.737   2.220   6.750
10291POPC   C3B74289  13.751   2.176   7.050
10291POPC   C4B74290  13.740   2.152   7.350
10292POPC   NC374291  29.168  40.798   5.550
10292POPC   PO474292  29.114  40.824   5.850
10292POPC   GL174293  29.096  40.781   6.150
10292POPC   GL274294  29.019  40.812   6.150
10292POPC   C1A74295  29.191  40.828   6.450
10292POPC   D2A74296  29.183  40.812   6.750
10292POPC   C3A74297  29.111  40.822   7.050
10292POPC   C4A74298  29.195  40.823   7.350
10292POPC   C1B74299  28.928  40.903   6.450
10292POPC   C2B74300  28.958  40.901   6.750
10292POPC   C3B74301  28.961  40.852   7.050
10292POPC   C4B74302  28.941  40.935   7.350
10293POPC   NC374303  17.549  22.187   5.550
10293POPC   PO474304  17.550  22.177   5.850
10293POPC   GL174305  17.517  22.185   6.150
10293POPC   GL274306  17.368  22.215   6.150
10293POPC   C1A74307  17.528  22.203   6.450
10293POPC   D2A74308  17.469  22.133   6.750
10293POPC   C3A74309  17.543  22.129   7.050
10293POPC   C4A74310  17.495  22.147   7.350
10293POPC   C1B74311  17.261  22.222   6.450
10293POPC   C2B74312  17.276  22.218   6.750
10293POPC   C3B74313  17.231  22.237   7.050
10293POPC   C4B74314  17.216  22.214   7.350
10294POPC   NC374315  33.793  12.896   5.550
10294POPC   PO474316  33.773  12.901   5.850
10294POPC   GL174317  33.847  12.829   6.150
10294POPC   GL274318  33.841  12.967   6.150
10294POPC   C1A74319  33.762  12.818   6.450
10294POPC   D2A74320  33.805  12.820   6.750
10294POPC   C3A74321  33.790  12.815   7.050
10294POPC   C4A74322  33.799  12.836   7.350
10294POPC   C1B74323  33.858  13.111   6.450
10294POPC   C2B74324  33.811  13.123   6.750
10294POPC   C3B74325  33.838  13.095   7.050
10294POPC   C4B74326  33.832  13.112   7.350
10295POPC   NC374327  39.970  10.539   5.550
10295POPC   PO474328  40.010  10.542   5.850
10295POPC   GL174329  39.962  10.478   6.150
10295POPC   GL274330  40.057  10.668   6.150
10295POPC   C1A74331  40.039  10.477   6.450
10295POPC   D2A74332  40.020  10.534   6.750
10295POPC   C3A74333  39.984  10.558   7.050
10295POPC   C4A74334  39.978  10.521   7.350
10295POPC   C1B74335  40.078  10.817   6.450
10295POPC   C2B74336  40.065  10.746   6.750
10295POPC   C3B74337  40.089  10.818   7.050
10295POPC   C4B74338  40.050  10.730   7.350
10296POPC   NC374339  26.773  25.294   5.550
10296POPC   PO474340  26.842  25.311   5.850
10296POPC   GL174341  26.851  25.274   6.150
10296POPC   GL274342  26.780  25.130   6.150
10296POPC   C1A74343  26.776  25.234   6.450
10296POPC   D2A74344  26.853  25.231   6.750
10296POPC   C3A74345  26.797  25.236   7.050
10296POPC   C4A74346  26.786  25.283   7.350
10296POPC   C1B74347  26.731  25.007   6.450
10296POPC   C2B74348  26.754  25.048   6.750
10296POPC   C3B74349  26.755  25.022   7.050
10296POPC   C4B74350  26.786  25.015   7.350
10297POPC   NC374351  38.416  33.021   5.550
10297POPC   PO474352  38.483  33.051   5.850
10297POPC   GL174353  38.481  33.001   6.150
10297POPC   GL274354  38.539  32.933   6.150
10297POPC   C1A74355  38.461  33.070   6.450
10297POPC   D2A74356  38.485  33.042   6.750
10297POPC   C3A74357  38.451  32.978   7.050
10297POPC   C4A74358  38.433  32.982   7.350
10297POPC   C1B74359  38.716  32.896   6.450
10297POPC   C2B74360  38.628  32.917   6.750
10297POPC   C3B74361  38.684  32.943   7.050
10297POPC   C4B74362  38.653  32.863   7.350
10298POPC   NC374363   9.728  36.903   5.550
10298POPC   PO474364   9.743  36.944   5.850
10298POPC   GL174365   9.753  36.949   6.150
10298POPC   GL274366   9.826  36.948   6.150
10298POPC   C1A74367   9.778  36.917   6.450
10298POPC   D2A74368   9.743  36.897   6.750
10298POPC   C3A74369   9.754  36.941   7.050
10298POPC   C4A74370   9.745  36.886   7.350
10298POPC   C1B74371  10.013  36.978   6.450
10298POPC   C2B74372  10.016  36.963   6.750
10298POPC   C3B74373  10.006  36.953   7.050
10298POPC   C4B74374   9.985  36.974   7.350
10299POPC   NC374375  21.347  39.203   5.550
10299POPC   PO474376  21.375  39.204   5.850
10299POPC   GL174377  21.370  39.266   6.150
10299POPC   GL274378  21.317  39.351   6.150
10299POPC   C1A74379  21.381  39.225   6.450
10299POPC   D2A74380  21.339  39.232   6.750
10299POPC   C3A74381  21.363  39.277   7.050
10299POPC   C4A74382  21.371  39.273   7.350
10299POPC   C1B74383  21.210  39.423   6.450
10299POPC   C2B74384  21.216  39.435   6.750
10299POPC   C3B74385  21.275  39.460   7.050
10299POPC   C4B74386  21.234  39.397   7.350
10300POPC   NC374387  10.502  24.485   5.550
10300POPC   PO474388  10.503  24.465   5.850
10300POPC   GL174389  10.527  24.465   6.150
10300POPC   GL274390  10.395  24.550   6.150
10300POPC   C1A74391  10.525  24.492   6.450
10300POPC   D2A74392  10.554  24.488   6.750
10300POPC   C3A74393  10.570  24.470   7.050
10300POPC   C4A74394  10.512  24.517   7.350
10300POPC   C1B74395  10.316  24.618   6.450
10300POPC   C2B74396  10.332  24.644   6.750
10300POPC   C3B74397  10.312  24.568   7.050
10300POPC   C4B74398  10.271  24.618   7.350
10301POPC   NC374399  32.982  36.089   5.550
10301POPC   PO474400  33.001  36.161   5.850
10301POPC   GL174401  33.043  36.171   6.150
10301POPC   GL274402  33.104  36.181   6.150
10301POPC   C1A74403  32.978  36.134   6.450
10301POPC   D2A74404  33.032  36.151   6.750
10301POPC   C3A74405  33.012  36.175   7.050
10301POPC   C4A74406  33.011  36.165   7.350
10301POPC   C1B74407  33.259  36.171   6.450
10301POPC   C2B74408  33.308  36.196   6.750
10301POPC   C3B74409  33.237  36.143   7.050
10301POPC   C4B74410  33.270  36.111   7.350
10302POPC   NC374411   6.637   9.789   5.550
10302POPC   PO474412   6.645   9.726   5.850
10302POPC   GL174413   6.657   9.705   6.150
10302POPC   GL274414   6.804   9.712   6.150
10302POPC   C1A74415   6.693   9.709   6.450
10302POPC   D2A74416   6.599   9.756   6.750
10302POPC   C3A74417   6.607   9.738   7.050
10302POPC   C4A74418   6.606   9.738   7.350
10302POPC   C1B74419   6.944   9.780   6.450
10302POPC   C2B74420   6.901   9.767   6.750
10302POPC   C3B74421   6.873   9.762   7.050
10302POPC   C4B74422   6.873   9.718   7.350
10303POPC   NC374423  42.315   9.013   5.550
10303POPC   PO474424  42.371   8.999   5.850
10303POPC   GL174425  42.332   8.951   6.150
10303POPC   GL274426  42.399   9.043   6.150
10303POPC   C1A74427  42.301   8.998   6.450
10303POPC   D2A74428  42.312   8.926   6.750
10303POPC   C3A74429  42.329   9.000   7.050
10303POPC   C4A74430  42.378   8.975   7.350
10303POPC   C1B74431  42.574   9.126   6.450
10303POPC   C2B74432  42.562   9.086   6.750
10303POPC   C3B74433  42.566   9.085   7.050
10303POPC   C4B74434  42.568   9.110   7.350
10304POPC   NC374435  36.116   5.842   5.550
10304POPC   PO474436  36.120   5.902   5.850
10304POPC   GL174437  36.172   5.855   6.150
10304POPC   GL274438  36.195   5.961   6.150
10304POPC   C1A74439  36.144   5.906   6.450
10304POPC   D2A74440  36.121   5.892   6.750
10304POPC   C3A74441  36.171   5.885   7.050
10304POPC   C4A74442  36.121   5.834   7.350
10304POPC   C1B74443  36.307   6.069   6.450
10304POPC   C2B74444  36.330   6.103   6.750
10304POPC   C3B74445  36.321   6.075   7.050
10304POPC   C4B74446  36.269   6.052   7.350
10305POPC   NC374447  33.799  17.552   5.550
10305POPC   PO474448  33.750  17.471   5.850
10305POPC   GL174449  33.786  17.512   6.150
10305POPC   GL274450  33.769  17.619   6.150
10305POPC   C1A74451  33.810  17.503   6.450
10305POPC   D2A74452  33.777  17.495   6.750
10305POPC   C3A74453  33.823  17.488   7.050
10305POPC   C4A74454  33.811  17.517   7.350
10305POPC   C1B74455  33.762  17.744   6.450
10305POPC   C2B74456  33.755  17.760   6.750
10305POPC   C3B74457  33.729  17.718   7.050
10305POPC   C4B74458  33.718  17.731   7.350
10306POPC   NC374459  38.463  12.854   5.550
10306POPC   PO474460  38.441  12.803   5.850
10306POPC   GL174461  38.496  12.824   6.150
10306POPC   GL274462  38.519  12.790   6.150
10306POPC   C1A74463  38.409  12.813   6.450
10306POPC   D2A74464  38.473  12.840   6.750
10306POPC   C3A74465  38.441  12.808   7.050
10306POPC   C4A74466  38.430  12.892   7.350
10306POPC   C1B74467  38.718  12.723   6.450
10306POPC   C2B74468  38.670  12.707   6.750
10306POPC   C3B74469  38.693  12.708   7.050
10306POPC   C4B74470  38.671  12.726   7.350
10307POPC   NC374471  15.169  25.257   5.550
10307POPC   PO474472  15.174  25.224   5.850
10307POPC   GL174473  15.221  25.241   6.150
10307POPC   GL274474  15.190  25.169   6.150
10307POPC   C1A74475  15.153  25.281   6.450
10307POPC   D2A74476  15.188  25.279   6.750
10307POPC   C3A74477  15.164  25.292   7.050
10307POPC   C4A74478  15.142  25.302   7.350
10307POPC   C1B74479  15.191  24.985   6.450
10307POPC   C2B74480  15.216  25.043   6.750
10307POPC   C3B74481  15.232  25.010   7.050
10307POPC   C4B74482  15.199  25.003   7.350
10308POPC   NC374483   3.540   5.071   5.550
10308POPC   PO474484   3.566   5.087   5.850
10308POPC   GL174485   3.558   5.115   6.150
10308POPC   GL274486   3.613   5.049   6.150
10308POPC   C1A74487   3.493   5.075   6.450
10308POPC   D2A74488   3.526   5.127   6.750
10308POPC   C3A74489   3.565   5.100   7.050
10308POPC   C4A74490   3.510   5.125   7.350
10308POPC   C1B74491   3.748   4.951   6.450
10308POPC   C2B74492   3.735   4.960   6.750
10308POPC   C3B74493   3.773   4.933   7.050
10308POPC   C4B74494   3.783   4.963   7.350
10309POPC   NC374495  27.569  32.239   5.550
10309POPC   PO474496  27.560  32.276   5.850
10309POPC   GL174497  27.594  32.264   6.150
10309POPC   GL274498  27.611  32.392   6.150
10309POPC   C1A74499  27.547  32.255   6.450
10309POPC   D2A74500  27.587  32.288   6.750
10309POPC   C3A74501  27.607  32.265   7.050
10309POPC   C4A74502  27.569  32.247   7.350
10309POPC   C1B74503  27.648  32.506   6.450
10309POPC   C2B74504  27.668  32.493   6.750
10309POPC   C3B74505  27.732  32.519   7.050
10309POPC   C4B74506  27.738  32.432   7.350
10310POPC   NC374507  19.804  11.282   5.550
10310POPC   PO474508  19.867  11.343   5.850
10310POPC   GL174509  19.862  11.281   6.150
10310POPC   GL274510  19.665  11.276   6.150
10310POPC   C1A74511  19.846  11.342   6.450
10310POPC   D2A74512  19.805  11.345   6.750
10310POPC   C3A74513  19.835  11.280   7.050
10310POPC   C4A74514  19.788  11.276   7.350
10310POPC   C1B74515  19.605  11.271   6.450
10310POPC   C2B74516  19.591  11.295   6.750
10310POPC   C3B74517  19.608  11.293   7.050
10310POPC   C4B74518  19.591  11.256   7.350
10311W        W74519   9.164  43.331   3.188
10312W        W74520   9.191  26.672  10.158
10313W        W74521  34.498   2.897   3.292
10314W        W74522   8.721  25.571  12.442
10315W        W74523  39.347  34.942   4.817
10316W        W74524  29.663   3.878   4.613
10317W        W74525  28.666  40.377  12.824
10318W        W74526  19.245  17.110   3.316
10319W        W74527   6.325  38.066   1.334
10320W        W74528   0.852  16.304   2.368
10321W        W74529   9.864  10.866  12.046
10322W        W74530  42.834   3.896   4.638
10323W        W74531  15.262  39.560   4.150
10324W        W74532  42.899  36.476   1.738
10325W        W74533  33.456  21.126   3.342
10326W        W74534  23.099  26.578  11.921
10327W        W74535  36.383  36.082   4.623
10328W        W74536  33.561  36.085   0.288
10329W        W74537  33.985  24.515  12.425
10330W        W74538  24.685   8.308   1.272
10331W        W74539  42.316  38.571  10.533
10332W        W74540   2.772  38.464   0.422
10333W        W74541  44.412  34.911   2.392
10334W        W74542  24.499  23.106  11.126
10335W        W74543   8.392   5.896   4.226
10336W        W74544   1.793  44.857  14.896
10337W        W74545  22.175   7.194  10.936
10338W        W74546  17.755   6.700  11.452
10339W        W74547  43.822  35.919  11.400
10340W        W74548  22.149  12.615   1.223
10341W        W74549  19.116   8.303  13.935
10342W        W74550  16.193  44.775  13.940
10343W        W74551  12.619  34.871  14.826
10344W        W74552   8.842   1.442   0.930
10345W        W74553   9.807  13.675   2.846
10346W        W74554  44.794  26.553  13.054
10347W        W74555  32.094  11.773   4.148
10348W        W74556  13.758   7.379  12.524
10349W        W74557  16.673  12.251  10.895
10350W        W74558  13.239  41.296  11.024
10351W        W74559  13.613  40.852  12.540
10352W        W74560   7.294   9.732   1.729
10353W        W74561  21.742  22.066  13.415
10354W        W74562  14.723  33.028   3.823
10355W        W74563   7.680  36.857  14.334
10356W        W74564  12.783  44.979   2.714
10357W        W74565  16.234  32.406  11.984
10358W        W74566   4.251  39.408  10.978
10359W        W74567  13.159  35.473   3.173
10360W        W74568   2.397  10.291  12.423
10361W        W74569  36.370   7.267   4.283
10362W        W74570  28.614  30.580  14.847
10363W        W74571   3.337  10.351  11.948
10364W        W74572  25.104  25.205   3.638
10365W        W74573  14.303  30.530   4.633
10366W        W74574  28.486  26.564  13.044
10367W        W74575   7.678  31.145  11.569
10368W        W74576  41.499  20.693  13.363
10369W        W74577  17.152  30.127  14.811
10370W        W74578  30.525  12.240   3.264
10371W        W74579  34.018  10.179   2.398
10372W        W74580  20.090  41.953  13.413
10373W        W74581   0.474  31.639   1.223
10374W        W74582   1.858  32.410   2.845
10375W        W74583  41.965  36.396   0.898
10376W        W74584  43.869  39.877  13.852
10377W        W74585  25.675   1.852  10.086
10378W        W74586  25.032  25.114  13.995
10379W        W74587  27.076  23.223  14.802
10380W        W74588  13.292  22.202   3.749
10381W        W74589   9.699  15.772   0.891
10382W        W74590  30.580  44.360  12.919
10383W        W74591   5.876  11.322  10.574
10384W        W74592  11.170  28.164  11.430
10385W        W74593  36.353   6.753  13.052
10386W        W74594  25.072   2.449  14.769
10387W        W74595  40.980  17.194   1.405
10388W        W74596  20.217  15.187   9.555
10389W        W74597  11.333  43.956  11.909
10390W        W74598  28.068  19.277  14.021
10391W        W74599  40.489  39.993   3.387
10392W        W74600  25.172  27.632   1.710
10393W        W74601  34.564  10.381   0.762
10394W        W74602  22.081  42.525  13.325
10395W        W74603  31.088   6.693   1.884
10396W        W74604   8.274  43.769  13.548
10397W        W74605   7.375  15.727   4.276
10398W        W74606  40.824  25.592   4.647
10399W        W74607  36.447  28.572   4.742
10400W        W74608  34.441  27.636   1.894
10401W        W74609  18.782  31.038  14.769
10402W        W74610  17.645  22.097  12.936
10403W        W74611  22.664  35.397  13.827
10404W        W74612  32.046   8.697   4.619
10405W        W74613  11.147  16.126  11.535
10406W        W74614   2.441   4.289   3.171
10407W        W74615  13.705   6.719  13.042
10408W        W74616  10.705   2.322  11.858
10409W        W74617  29.620  31.139  12.832
10410W        W74618  38.912  26.185  10.086
10411W        W74619  37.355  14.701   0.460
10412W        W74620  20.546   8.813  12.890
10413W        W74621  42.504  28.089   0.248
10414W        W74622  27.451  32.911  14.394
10415W        W74623  26.554   9.279  10.441
10416W        W74624   2.296   4.410  11.411
10417W        W74625  41.896  21.046  10.134
10418W        W74626  21.595  40.016   2.358
10419W        W74627  32.587  37.582   3.833
10420W        W74628   6.835  22.136   0.937
10421W        W74629  36.487  39.445   3.684
10422W        W74630  33.449  38.398  13.863
10423W        W74631  32.548  42.829   3.739
10424W        W74632  15.675  19.098  10.927
10425W        W74633  23.086  42.032  12.481
10426W        W74634  22.148  39.857   3.185
10427W        W74635  15.248  12.799  14.836
10428W        W74636  16.175  22.139   4.815
10429W        W74637  26.457  12.795   3.776
10430W        W74638  27.572   3.388   2.694
10431W        W74639  25.664  27.063  10.585
10432W        W74640  21.618  27.108  13.319
10433W        W74641  14.808  18.593  13.357
10434W        W74642  31.620  22.054  10.490
10435W        W74643  33.974  29.079  12.026
10436W        W74644  36.888  10.286  11.895
10437W        W74645  22.179  31.097  13.499
10438W        W74646  26.560  39.406   4.607
10439W        W74647  44.845  19.660  12.057
10440W        W74648  38.571   3.748  12.500
10441W        W74649  30.050  23.163  13.841
10442W        W74650   6.844  21.583   0.350
10443W        W74651  24.973  38.445   0.948
10444W        W74652  17.582  42.026  10.605
10445W        W74653  29.428   3.245   4.243
10446W        W74654   0.914   6.299  12.505
10447W        W74655  24.093   8.314   3.349
10448W        W74656  20.210  13.623   0.806
10449W        W74657  17.688   0.866   1.366
10450W        W74658  42.899   7.286  12.050
10451W        W74659  38.024  37.527   1.356
10452W        W74660  38.426  37.352   3.695
10453W        W74661  35.579  42.914  12.891
10454W        W74662  38.924  20.609  11.508
10455W        W74663  17.140  22.096  11.971
10456W        W74664  35.467  31.519  11.576
10457W        W74665  37.929  29.090  12.562
10458W        W74666  38.936  14.136   1.885
10459W        W74667   3.446  29.983  11.430
10460W        W74668   5.234   7.766   4.222
10461W        W74669   9.704  27.163   1.214
10462W        W74670   5.278  44.892   4.190
10463W        W74671   4.870  18.680  12.867
10464W        W74672  35.946  28.138  12.855
10465W        W74673  35.468  24.990   4.186
10466W        W74674  31.604  14.724   0.404
10467W        W74675  24.993   9.786   4.220
10468W        W74676  42.898  10.797  12.928
10469W        W74677  18.254  26.524   4.752
10470W        W74678   7.696   3.727   4.757
10471W        W74679   0.391  16.316   3.248
10472W        W74680  42.902  15.215  12.387
10473W        W74681   0.920  16.203  12.929
10474W        W74682  39.871   1.290   2.676
10475W        W74683  26.689   8.731  13.023
10476W        W74684  29.640  24.621  14.848
10477W        W74685  34.937  33.973   2.404
10478W        W74686  25.513  36.500  11.408
10479W        W74687  41.904  39.829   3.777
10480W        W74688  37.002  22.015   2.692
10481W        W74689  10.731  12.143   1.745
10482W        W74690   6.333  27.079   0.438
10483W        W74691  30.025   5.896  13.341
10484W        W74692  21.129  13.712   0.941
10485W        W74693   7.744  38.046  13.426
10486W        W74694  18.766  21.727   3.711
10487W        W74695  10.661  35.992   4.346
10488W        W74696  33.016  36.560  11.974
10489W        W74697  10.857  15.218   0.419
10490W        W74698  27.144  39.493   2.249
10491W        W74699  36.360  23.688  12.049
10492W        W74700   8.890  28.004   2.230
10493W        W74701  19.087   5.765   0.323
10494W        W74702  20.249   0.778   2.806
10495W        W74703  43.773  20.648   1.425
10496W        W74704   2.424  22.693   1.931
10497W        W74705   8.303  36.055  12.877
10498W        W74706   4.848  27.481  11.933
10499W        W74707  41.917  29.581  12.966
10500W        W74708  24.637   6.678  14.375
10501W        W74709   8.280  38.872  12.034
10502W        W74710  38.958  41.902   3.702
10503W        W74711  33.128  39.449   4.601
10504W        W74712  28.572  41.345   3.362
10505W        W74713  40.826  31.952  13.335
10506W        W74714  25.632  25.476  13.800
10507W        W74715   4.737  28.491   2.378
10508W        W74716  17.644  33.006  13.973
10509W        W74717  42.778   8.870   3.300
10510W        W74718  30.108  21.520   2.367
10511W        W74719  24.575  42.031   0.296
10512W        W74720  43.947   4.754   3.791
10513W        W74721  31.139  18.590  10.927
10514W        W74722  44.985  33.037   2.867
10515W        W74723  30.998  30.462   4.122
10516W        W74724   8.769  26.536  12.853
10517W        W74725  13.624  14.628   2.714
10518W        W74726  44.315  34.423   2.329
10519W        W74727  10.815  10.658  10.546
10520W        W74728  37.544  28.101  13.837
10521W        W74729  37.913   8.805   4.248
10522W        W74730  32.538  11.186  12.428
10523W        W74731   6.721  10.703  13.407
10524W        W74732  22.662   7.678   3.370
10525W        W74733  21.662  25.207  12.507
10526W        W74734  24.579   3.846   0.866
10527W        W74735  10.633  13.222  11.530
10528W        W74736  14.735  42.472  14.964
10529W        W74737  32.624  26.004   2.748
10530W        W74738  11.200  43.894  12.996
10531W        W74739  24.723  19.584  10.455
10532W        W74740  37.377  25.598  11.514
10533W        W74741   2.793  37.468   3.281
10534W        W74742  34.593  42.404  12.560
10535W        W74743  25.506  16.126   3.785
10536W        W74744  33.459   7.718   2.878
10537W        W74745  37.378  23.072  14.993
10538W        W74746  37.886  23.066  13.431
10539W        W74747   6.922  21.263   0.436
10540W        W74748  10.728  23.132  14.366
10541W        W74749  26.671  18.060  10.554
10542W        W74750  13.731  22.193  11.380
10543W        W74751  36.052  29.169  13.309
10544W        W74752  44.353  22.676   1.221
10545W        W74753   5.349   9.215  10.528
10546W        W74754   3.295  11.172  12.854
10547W        W74755  19.095  19.585  12.554
10548W        W74756  27.052  10.706  14.332
10549W        W74757   7.190  39.828   2.778
10550W        W74758  14.805  12.811  11.379
10551W        W74759  40.988  13.265  11.532
10552W        W74760  22.716  31.065   4.149
10553W        W74761  38.529  43.876   2.866
10554W        W74762  12.246  39.545   4.234
10555W        W74763  25.057  19.746   0.845
10556W        W74764   6.836  18.693   1.266
10557W        W74765  20.569   2.796   1.790
10558W        W74766  28.145  18.653   1.323
10559W        W74767   7.323  25.158  11.016
10560W        W74768  38.493  23.086   0.263
10561W        W74769  29.515  14.685  12.921
10562W        W74770  25.706  39.813  13.391
10563W        W74771  15.697  37.851   0.870
10564W        W74772   5.241  23.041   3.326
10565W        W74773  18.661   1.257   2.272
10566W        W74774  29.619  21.074   4.343
10567W        W74775  11.168  32.053   2.819
10568W        W74776  32.622  11.657  11.076
10569W        W74777   6.363  10.277   5.285
10570W        W74778  41.338  24.055   0.394
10571W        W74779  17.775  21.757   0.924
10572W        W74780  36.401   5.298  12.980
10573W        W74781  16.101  37.931   3.238
10574W        W74782   0.320   2.337  14.431
10575W        W74783  16.129  31.144  14.018
10576W        W74784  30.933  26.140  13.817
10577W        W74785  30.049  43.845   0.475
10578W        W74786  38.851  18.584  10.889
10579W        W74787  17.704  16.607   4.310
10580W        W74788  23.994  27.187   2.877
10581W        W74789  41.431  20.635   3.681
10582W        W74790  12.351  15.292  13.996
10583W        W74791  35.049  12.248   0.286
10584W        W74792  27.101  10.253   4.757
10585W        W74793  17.180  19.534   5.214
10586W        W74794  32.408  42.334   1.251
10587W        W74795  35.546  11.272  13.906
10588W        W74796  23.637  43.838   4.122
10589W        W74797  15.205  43.768   1.410
10590W        W74798  20.713   8.673  10.541
10591W        W74799   4.931  30.643  11.559
10592W        W74800  29.498  26.978   4.146
10593W        W74801  44.409  33.105   0.402
10594W        W74802  32.045   4.899   4.802
10595W        W74803  31.442  39.451   3.841
10596W        W74804  32.575  10.652  11.607
10597W        W74805  33.462  41.027   2.747
10598W        W74806   9.166  28.639  10.456
10599W        W74807  14.697  17.118  10.462
10600W        W74808  41.531  14.113  11.886
10601W        W74809  33.424  23.112  11.898
10602W        W74810   1.363  17.305   3.155
10603W        W74811   7.310  40.994   1.902
10604W        W74812  41.401  34.037  13.356
10605W        W74813  23.034   7.210  10.455
10606W        W74814  26.155  35.358  10.421
10607W        W74815  38.945  34.430  13.819
10608W        W74816  19.041  35.416   1.363
10609W        W74817  37.065  34.974  11.407
10610W        W74818  30.020  43.810  11.406
10611W        W74819   6.742  40.876  13.007
10612W        W74820   1.246   9.681  14.809
10613W        W74821  40.861  37.020  14.509
10614W        W74822  10.266   2.269   0.270
10615W        W74823  38.006  21.529   0.307
10616W        W74824  29.120  16.644   0.377
10617W        W74825  39.359  13.219   3.196
10618W        W74826  27.021  21.552   4.649
10619W        W74827  44.892  33.104  13.829
10620W        W74828  41.822   6.389   4.745
10621W        W74829  21.621  39.544   3.184
10622W        W74830  28.187  44.279   1.280
10623W        W74831  30.560  43.409  12.917
10624W        W74832   2.819  18.250   2.857
10625W        W74833  35.856  25.634   4.124
10626W        W74834  13.759  19.621  11.911
10627W        W74835  18.252  28.054   1.306
10628W        W74836  17.746  28.064   4.278
10629W        W74837  24.691  43.852  10.435
10630W        W74838  23.601   5.368  10.640
10631W        W74839  12.355  19.745  14.440
10632W        W74840  32.029   5.404  12.843
10633W        W74841  39.521  40.452   3.659
10634W        W74842  25.515  23.648   2.886
10635W        W74843  21.222  24.002  10.939
10636W        W74844  36.484  26.058  14.914
10637W        W74845   7.725  11.329  12.930
10638W        W74846  10.206  42.475  12.391
10639W        W74847  36.885   0.753  11.118
10640W        W74848   5.827  12.689  11.951
10641W        W74849   3.344  23.149  13.872
10642W        W74850   0.860  42.859  11.558
10643W        W74851   8.375  17.683   0.863
10644W        W74852  31.509  34.912   0.369
10645W        W74853  13.212   2.460  12.444
10646W        W74854   4.354  29.973   2.835
10647W        W74855   1.393  43.353   4.622
10648W        W74856  38.873  23.012   2.903
10649W        W74857  10.143  13.608   2.265
10650W        W74858  11.325  26.119   1.260
10651W        W74859  29.001  13.795  11.104
10652W        W74860  23.703  29.014  10.596
10653W        W74861  27.657  10.708   4.179
10654W        W74862  34.388  12.336   0.342
10655W        W74863  27.135  14.219   5.219
10656W        W74864  12.165  17.617  13.813
10657W        W74865  14.677  33.100  12.569
10658W        W74866  32.955  25.647   1.422
10659W        W74867  25.535  15.189   0.302
10660W        W74868  27.985  27.069   2.841
10661W        W74869  17.278  19.583   3.191
10662W        W74870  33.901   1.373  14.307
10663W        W74871  41.872   9.334  11.959
10664W        W74872  17.117  29.146  12.930
10665W        W74873  23.229  34.473   0.872
10666W        W74874  19.587   3.834  11.027
10667W        W74875  13.599   4.913   1.823
10668W        W74876  37.861  39.418   0.275
10669W        W74877  16.137  28.476  10.442
10670W        W74878  20.641  42.867  14.332
10671W        W74879  22.612  15.739   0.446
10672W        W74880  37.891  22.575  11.602
10673W        W74881  15.704  33.390   1.848
10674W        W74882  30.646   8.405  14.994
10675W        W74883  20.718  20.154  10.922
10676W        W74884   4.402  20.588   0.318
10677W        W74885   0.441   0.302   2.362
10678W        W74886  19.696  15.749   0.929
10679W        W74887  12.732  31.579   0.466
10680W        W74888  20.663  19.143   2.758
10681W        W74889  43.952  13.613  10.521
10682W        W74890   1.288  37.566   3.815
10683W        W74891  38.827  10.843   3.316
10684W        W74892  33.919   4.816  10.124
10685W        W74893  38.853  21.590  10.961
10686W        W74894  15.738  15.640  10.134
10687W        W74895  43.944  24.640   1.270
10688W        W74896   2.382   2.797   3.341
10689W        W74897  37.475  26.566  12.090
10690W        W74898   5.912  39.002  10.988
10691W        W74899   9.651   8.187  12.026
10692W        W74900  10.278  42.390   2.726
10693W        W74901   1.303  10.141   0.392
10694W        W74902  22.056  24.549   0.843
10695W        W74903  26.082   0.494   1.268
10696W        W74904  33.488  29.086  10.922
10697W        W74905  35.887   6.223   1.229
10698W        W74906  40.984  19.251   5.637
10699W        W74907  22.006   1.295   3.720
10700W        W74908   6.768  19.228   4.149
10701W        W74909  22.249  25.005   0.756
10702W        W74910  34.885  33.076  12.534
10703W        W74911   1.471  15.732   0.932
10704W        W74912   3.443  37.573   3.281
10705W        W74913   9.658  20.032   1.896
10706W        W74914  20.039  37.965  14.487
10707W        W74915  26.603  23.489   0.364
10708W        W74916  44.880   0.925  14.384
10709W        W74917  42.366  17.266  11.882
10710W        W74918  21.630  29.048  12.824
10711W        W74919   5.429  43.008  11.481
10712W        W74920  14.101  24.220   1.818
10713W        W74921  36.499   3.229  11.377
10714W        W74922  12.790  43.320  14.009
10715W        W74923   9.393  36.988  12.544
10716W        W74924  22.114  19.669  11.941
10717W        W74925   5.807  38.351  10.428
10718W        W74926  36.572  36.391   4.804
10719W        W74927  44.316  10.785   1.229
10720W        W74928  20.751  29.045  11.449
10721W        W74929  14.155  10.281  14.909
10722W        W74930  13.220  26.488   3.216
10723W        W74931   0.483  30.539   0.842
10724W        W74932  24.197  40.488  13.836
10725W        W74933  26.077  30.493   1.810
10726W        W74934  24.656  20.200  11.051
10727W        W74935  21.254   6.760  13.370
10728W        W74936   9.359  26.681  10.975
10729W        W74937  13.317   4.731  10.039
10730W        W74938  11.761  33.612  13.356
10731W        W74939  30.455   6.329   3.371
10732W        W74940  38.422  33.418   4.690
10733W        W74941  21.546  23.153  13.383
10734W        W74942  34.423  27.460  11.107
10735W        W74943   2.386  38.513  11.586
10736W        W74944  31.944  14.762   9.943
10737W        W74945  19.572  15.271  14.025
10738W        W74946  17.188  42.494  12.460
10739W        W74947  14.600  10.789   0.314
10740W        W74948  25.612   9.672   3.744
10741W        W74949  29.157  32.107  13.394
10742W        W74950  34.529   3.946  10.976
10743W        W74951  43.452  26.586  13.819
10744W        W74952   8.765  26.660  13.520
10745W        W74953  16.800  16.072   4.634
10746W        W74954   7.273  31.434  13.969
10747W        W74955  41.478   5.200   3.657
10748W        W74956  10.159  23.986  14.779
10749W        W74957   8.680   5.860   1.418
10750W        W74958  11.858   4.255   4.808
10751W        W74959   1.849  23.722  11.547
10752W        W74960  26.476   8.738  10.906
10753W        W74961  12.285  23.106   1.215
10754W        W74962  26.957   7.319   2.661
10755W        W74963   7.179  13.226   3.146
10756W        W74964  29.987  20.615   4.751
10757W        W74965  40.917  43.320  11.993
10758W        W74966  40.014  30.108  13.424
10759W        W74967  38.382  31.141  12.544
10760W        W74968  40.033  38.437   2.826
10761W        W74969  20.715  16.620   3.856
10762W        W74970  33.590  23.598   0.922
10763W        W74971  31.986  43.358  13.914
10764W        W74972   3.385  29.936   1.253
10765W        W74973  17.771   8.790   1.346
10766W        W74974   1.848  41.883   2.222
10767W        W74975  17.711  15.728   3.378
10768W        W74976   5.257  44.414  11.455
10769W        W74977  18.188  15.671  14.835
10770W        W74978  19.743   3.382   1.400
10771W        W74979  17.066  29.576  13.372
10772W        W74980  39.522  33.387   3.258
10773W        W74981  24.523  40.853  11.078
10774W        W74982  17.669   4.806   1.343
10775W        W74983  20.759  27.971  14.975
10776W        W74984  22.140   5.730   1.438
10777W        W74985  18.275  14.292  13.054
10778W        W74986   0.274  27.976   4.738
10779W        W74987  17.691  28.052  14.417
10780W        W74988  20.621  34.466  11.382
10781W        W74989  43.771  31.122  11.525
10782W        W74990  42.380  13.232  14.318
10783W        W74991  32.891   8.214  10.559
10784W        W74992  20.574   0.342   4.793
10785W        W74993   5.832  26.079   1.721
10786W        W74994   9.781  35.865   4.173
10787W        W74995   1.738  11.200  14.921
10788W        W74996  26.543  15.693   1.371
10789W        W74997  13.732  21.633  14.937
10790W        W74998   9.880  14.735  14.924
10791W        W74999  36.553  16.732  14.941
10792W        W75000  36.970   4.790   3.314
10793W        W75001  40.978  37.336   2.820
10794W        W75002  36.366  21.076   0.446
10795W        W75003   1.297  28.952  10.507
10796W        W75004  20.046  26.116  13.497
10797W        W75005   9.768   7.891   4.795
10798W        W75006  13.846  36.880   4.247
10799W        W75007  32.886  26.061  12.000
10800W        W75008  25.692  21.598   2.301
10801W        W75009  22.659  43.831   2.309
10802W        W75010   8.387  17.781  14.429
10803W        W75011  31.622  39.467   0.739
10804W        W75012  16.773   1.267   2.698
10805W        W75013  10.372  36.563  14.274
10806W        W75014  44.449   4.340   1.802
10807W        W75015  14.304  38.873   1.411
10808W        W75016   2.869  21.187  12.011
10809W        W75017  20.108  27.629  12.401
10810W        W75018  37.424  36.480   2.827
10811W        W75019  41.443  18.138   2.288
10812W        W75020  25.068  42.788   0.335
10813W        W75021  20.267  32.137   0.274
10814W        W75022   6.841   4.786  10.888
10815W        W75023  18.085  27.961  12.905
10816W        W75024  19.558  44.775  11.587
10817W        W75025   4.224  44.308   4.286
10818W        W75026  25.145  30.645  12.422
10819W        W75027  14.634   7.269   1.324
10820W        W75028  11.729  24.505   4.825
10821W        W75029   1.850  24.605  13.475
10822W        W75030  37.560  38.549   2.823
10823W        W75031  23.492  29.439  11.864
10824W        W75032  20.559  11.166  12.007
10825W        W75033  41.383  17.660  12.825
10826W        W75034   3.405  32.599  12.875
10827W        W75035  21.201  19.741   0.417
10828W        W75036  37.879  32.630  10.910
10829W        W75037  44.888  35.370  11.543
10830W        W75038   3.912  28.975   4.294
10831W        W75039  15.583  33.520  10.493
10832W        W75040  41.013   4.301  11.090
10833W        W75041  31.064   3.793   4.714
10834W        W75042  38.562  15.328  11.996
10835W        W75043   2.781   7.403  10.499
10836W        W75044   0.436   6.308  14.294
10837W        W75045  12.799  32.411   4.288
10838W        W75046  13.610  28.443  12.507
10839W        W75047  29.623  26.668   9.926
10840W        W75048  19.069  24.510  13.009
10841W        W75049   1.795   6.712   0.747
10842W        W75050  20.673  20.216  13.487
10843W        W75051   2.443  24.120  14.386
10844W        W75052  21.023  19.554   0.879
10845W        W75053   0.396  22.170  11.000
10846W        W75054  28.073  39.434   1.358
10847W        W75055   0.296  17.203  14.822
10848W        W75056  13.130  12.618  14.788
10849W        W75057   0.935  10.644   2.801
10850W        W75058  31.541   2.864  11.067
10851W        W75059  32.543  33.997  13.401
10852W        W75060  17.771  11.664  12.517
10853W        W75061  27.024   2.851  12.939
10854W        W75062  13.206  22.226  11.932
10855W        W75063  12.781  22.068   0.924
10856W        W75064  26.993  37.553  11.976
10857W        W75065  34.389  43.947   4.652
10858W        W75066  38.042  27.590   1.401
10859W        W75067  30.148  20.746  11.557
10860W        W75068   0.792   3.433  11.919
10861W        W75069  39.053  18.113   2.805
10862W        W75070   5.262  27.548  10.903
10863W        W75071  11.148   6.359  10.953
10864W        W75072  23.147   6.838   3.662
10865W        W75073  20.069  20.187  12.518
10866W        W75074   2.456   4.281  10.998
10867W        W75075  12.787  41.322  12.971
10868W        W75076  41.413  37.063  10.919
10869W        W75077  36.963  32.462  12.022
10870W        W75078   4.728  22.571   3.197
10871W        W75079   9.748  42.794  13.006
10872W        W75080  41.893  27.499  10.930
10873W        W75081  28.979  10.216  12.505
10874W        W75082  35.593  13.719  13.496
10875W        W75083  40.452  44.453   1.381
10876W        W75084  40.360  27.679   1.400
10877W        W75085  32.531  27.477  12.438
10878W        W75086  20.538  17.187  14.481
10879W        W75087  44.901  43.382  13.029
10880W        W75088   8.293  12.220  11.077
10881W        W75089  41.464  24.669   3.705
10882W        W75090  43.424  43.495   0.962
10883W        W75091  21.514  13.725   3.769
10884W        W75092  22.211  12.288  12.079
10885W        W75093  42.389  20.083  14.426
10886W        W75094   8.248  35.014  11.872
10887W        W75095   0.469   1.379  13.792
10888W        W75096  12.686  13.610   0.731
10889W        W75097  30.501  32.106  12.032
10890W        W75098  25.545   8.377  11.861
10891W        W75099  38.917  33.423  10.573
10892W        W75100  42.869  21.586   1.814
10893W        W75101  41.800  23.056   1.433
10894W        W75102  13.603   0.929  10.924
10895W        W75103  12.853  37.410  11.539
10896W        W75104  27.088  30.978   1.750
10897W        W75105  12.281  23.644  11.975
10898W        W75106  10.277  25.092   0.861
10899W        W75107  11.683  21.667   1.898
10900W        W75108   3.444  16.136   1.225
10901W        W75109  14.811  42.433   0.803
10902W        W75110  23.677   7.313  11.437
10903W        W75111  20.704  43.926  12.994
10904W        W75112  26.654  41.409   3.147
10905W        W75113  37.019   6.396  10.996
10906W        W75114   6.214   3.766  10.480
10907W        W75115   7.886  21.739   1.365
10908W        W75116  17.140  41.469   2.403
10909W        W75117  43.898   6.850   1.827
10910W        W75118  28.574  40.478   1.765
10911W        W75119  41.966  41.795  14.513
10912W        W75120  27.570   1.862  14.289
10913W        W75121  14.322  39.403  12.437
10914W        W75122   7.903  18.639  14.334
10915W        W75123  21.662  24.680   2.354
10916W        W75124   8.871  31.061  11.462
10917W        W75125   4.384  27.171  10.553
10918W        W75126   8.302  25.015   2.742
10919W        W75127  36.975   4.413   5.306
10920W        W75128   0.460  16.307   1.359
10921W        W75129  29.022   6.879   3.380
10922W        W75130  21.611  12.261  10.536
10923W        W75131  31.987  10.822   2.854
10924W        W75132  41.461  17.663  13.810
10925W        W75133  44.478  25.637   1.248
10926W        W75134   1.410  17.716  12.455
10927W        W75135  39.413  11.279  14.898
10928W        W75136   2.827  19.262   1.734
10929W        W75137  25.656  31.117   1.431
10930W        W75138  11.781   5.382  11.024
10931W        W75139  41.983  32.448   0.760
10932W        W75140   4.807  28.451  11.909
10933W        W75141   4.784  17.258   5.154
10934W        W75142  37.867  15.172   4.124
10935W        W75143  37.533  31.978   4.129
10936W        W75144  32.514  31.146   1.384
10937W        W75145   6.272  19.209  13.051
10938W        W75146  31.931  19.055  10.446
10939W        W75147  28.110  42.406  11.886
10940W        W75148  40.505  11.800  13.943
10941W        W75149  44.988  41.513  13.984
10942W        W75150  20.737   3.240   3.338
10943W        W75151  36.390  39.316   2.265
10944W        W75152  17.685  16.138  12.430
10945W        W75153  42.798  19.101  13.323
10946W        W75154  27.586  26.149  14.318
10947W        W75155  25.034   4.324  14.013
10948W        W75156   2.907  21.043   3.837
10949W        W75157  17.569   6.887  12.399
10950W        W75158  24.524   5.713   0.788
10951W        W75159  14.710  41.917  11.073
10952W        W75160   9.889  34.527  12.868
10953W        W75161  41.849  37.964  14.309
10954W        W75162  36.996  38.336   0.849
10955W        W75163   7.295  35.520  13.405
10956W        W75164   1.790  23.700  12.053
10957W        W75165   8.311  33.412  12.845
10958W        W75166  13.823  32.010   4.164
10959W        W75167  23.056  32.115  10.527
10960W        W75168  37.072  43.418   4.686
10961W        W75169  18.131   5.741  10.918
10962W        W75170  17.771  44.881   1.368
10963W        W75171   6.257  27.080  11.039
10964W        W75172   0.765  42.990  12.014
10965W        W75173  25.567   4.728   3.347
10966W        W75174  25.071  33.950   1.418
10967W        W75175  28.932   6.345   4.201
10968W        W75176  18.694  10.291  10.626
10969W        W75177   0.821   3.791  14.863
10970W        W75178  29.072   1.926   2.368
10971W        W75179  34.100  42.517  11.442
10972W        W75180   6.233   0.309   4.624
10973W        W75181  14.221  11.739  13.791
10974W        W75182  19.270  43.888  14.900
10975W        W75183  15.184  14.112  13.821
10976W        W75184  19.252  13.622   2.390
10977W        W75185  37.028  11.813  11.403
10978W        W75186  41.418  39.468   4.339
10979W        W75187   3.379   9.647  12.532
10980W        W75188  26.004  11.148   0.268
10981W        W75189   8.657  26.502   0.270
10982W        W75190   9.806   4.449   1.796
10983W        W75191   9.244  12.122   1.449
10984W        W75192  18.060  33.574  13.484
10985W        W75193   9.874   0.845  11.021
10986W        W75194   5.713  31.633  14.485
10987W        W75195   7.288  12.278   3.177
10988W        W75196  32.416  44.264  10.577
10989W        W75197   1.942  31.022   0.320
10990W        W75198  43.770  42.373   3.809
10991W        W75199  23.069  14.799  13.814
10992W        W75200  21.598  41.467   3.215
10993W        W75201  19.199   8.658  14.365
10994W        W75202   4.738   0.304   1.438
10995W        W75203  39.970   4.770  14.845
10996W        W75204  37.000  41.339   0.393
10997W        W75205  18.703  23.230  14.919
10998W        W75206  35.887  14.315   0.948
10999W        W75207   8.875  23.054  13.537
11000W        W75208  25.076  42.341  12.030
11001W        W75209  14.649  23.228  13.818
11002W        W75210   4.368  13.200  13.438
11003W        W75211  21.212  21.622   4.773
11004W        W75212  43.483   3.446   1.383
11005W        W75213  16.258  42.389   3.223
11006W        W75214  27.007  26.177   3.214
11007W        W75215  21.546   9.724  11.085
11008W        W75216  10.145   1.250  11.589
11009W        W75217  21.222  15.718   1.744
11010W        W75218  10.740  39.029   3.680
11011W        W75219  33.433  44.288  14.411
11012W        W75220  36.411  23.657   4.140
11013W        W75221  25.713   1.846  11.897
11014W        W75222  38.041   2.253  12.916
11015W        W75223  39.958  24.576   0.300
11016W        W75224  13.321  35.453  14.822
11017W        W75225  42.478   9.791   4.212
11018W        W75226  38.357  26.685   5.287
11019W        W75227  41.975  37.545  11.858
11020W        W75228   6.232  23.673  12.568
11021W        W75229   4.410  13.844   3.171
11022W        W75230   9.841  41.998  12.853
11023W        W75231   9.663  11.341  14.771
11024W        W75232  35.939  36.588   4.753
11025W        W75233  24.136  32.428  11.537
11026W        W75234  21.253  39.999   2.753
11027W        W75235   4.797   5.207  14.994
11028W        W75236   9.847   7.272  12.029
11029W        W75237  30.415  17.155  12.987
11030W        W75238  39.423  44.760  12.986
11031W        W75239   3.845  12.312   0.894
11032W        W75240  39.370  30.422  10.455
11033W        W75241   1.773  32.624  14.852
11034W        W75242  34.421  28.994  13.525
11035W        W75243  16.753  40.365   2.770
11036W        W75244  30.456  13.750  11.991
11037W        W75245  37.054  17.114  10.473
11038W        W75246   9.767  31.402  14.441
11039W        W75247   5.723  12.713   3.281
11040W        W75248  39.009   6.242  12.931
11041W        W75249   8.336  36.347  10.625
11042W        W75250  19.096  37.033  14.397
11043W        W75251  29.564  35.019  11.914
11044W        W75252  38.035   3.878   2.813
11045W        W75253  18.125  41.922   3.729
11046W        W75254  20.127  43.862   0.411
11047W        W75255   7.881  17.695   0.865
11048W        W75256   7.285  13.758  13.368
11049W        W75257  29.643   6.287  14.794
11050W        W75258  14.230  21.651   1.262
11051W        W75259  34.906  13.670  14.344
11052W        W75260  34.979  39.829   3.710
11053W        W75261  31.553  21.161   1.781
11054W        W75262   5.407  34.084  12.359
11055W        W75263  33.458   5.283   2.684
11056W        W75264  21.146  27.488   0.878
11057W        W75265  18.090   4.718  11.075
11058W        W75266  43.992  31.506  12.841
11059W        W75267  21.595  32.569  12.053
11060W        W75268  11.240  31.027   2.354
11061W        W75269  12.786  38.021  14.355
11062W        W75270  22.659  36.089  14.785
11063W        W75271  35.389  10.148  10.993
11064W        W75272  42.429  18.595   4.141
11065W        W75273  36.369  41.418   4.148
11066W        W75274  21.037  34.917  10.577
11067W        W75275  30.454  29.667  11.009
11068W        W75276  39.347   0.304  13.926
11069W        W75277  18.561  25.071  14.322
11070W        W75278  29.452  40.501   3.708
11071W        W75279  35.601  13.677   2.415
11072W        W75280  12.627  38.026   0.415
11073W        W75281  18.107   0.977  12.394
11074W        W75282  20.229  20.599   0.351
11075W        W75283   7.230  21.515  14.802
11076W        W75284  13.295  44.421  12.477
11077W        W75285  22.085  27.193   2.804
11078W        W75286  38.396  39.002   3.176
11079W        W75287   8.400  25.105   2.371
11080W        W75288  24.644  43.386   2.218
11081W        W75289   3.817  43.501  10.421
11082W        W75290  30.491  12.350  12.493
11083W        W75291  41.366  38.996  10.608
11084W        W75292  39.350  26.684   1.278
11085W        W75293  17.568  18.629  13.970
11086W        W75294  26.081  25.141  12.406
11087W        W75295  22.660  11.807   2.252
11088W        W75296  34.606  39.951   4.661
11089W        W75297  20.139  13.612   0.325
11090W        W75298  44.895   3.895   3.756
11091W        W75299   6.353  18.182  12.891
11092W        W75300   1.869  13.732  14.365
11093W        W75301  28.936   2.905  14.372
11094W        W75302  19.188  22.681   2.885
11095W        W75303  23.715   7.382  14.977
11096W        W75304  37.006   9.769   2.401
11097W        W75305  27.637  32.502   0.394
11098W        W75306  27.159  42.776  14.381
11099W        W75307  35.357   8.818   2.372
11100W        W75308  42.775  43.007  10.970
11101W        W75309  41.870  39.356   0.733
11102W        W75310   3.732  15.120  12.342
11103W        W75311  26.660   9.646  14.880
11104W        W75312  15.654  24.505  13.969
11105W        W75313  22.534   7.712   0.925
11106W        W75314  24.213  31.147  14.400
11107W        W75315  10.800  31.975  13.896
11108W        W75316  11.175  37.346  10.027
11109W        W75317  17.772  27.042  12.360
11110W        W75318  40.330  23.594  14.943
11111W        W75319   8.385  11.665  14.931
11112W        W75320  16.592  17.680  13.023
11113W        W75321  32.060  42.527  12.870
11114W        W75322   9.778  16.794  14.473
11115W        W75323  22.084   1.375  14.377
11116W        W75324  41.854   7.354  14.354
11117W        W75325  18.634  23.697  11.962
11118W        W75326  20.052  14.128   3.196
11119W        W75327  26.565  24.000   0.412
11120W        W75328  33.081  18.547   4.284
11121W        W75329  43.980  39.468   1.749
11122W        W75330  39.057  29.429   2.186
11123W        W75331  32.074   5.260  12.089
11124W        W75332  31.496  10.738   0.378
11125W        W75333  14.223  24.598  10.581
11126W        W75334   2.391   3.914  14.291
11127W        W75335   5.347  40.843  12.387
11128W        W75336  28.506  32.916   1.874
11129W        W75337  44.872  28.070   0.778
11130W        W75338  19.613  12.296  12.382
11131W        W75339   4.867  15.134   1.243
11132W        W75340  15.306   4.724  13.042
11133W        W75341   2.923  14.608  13.837
11134W        W75342  20.571  24.654   3.720
11135W        W75343   9.241   4.271   4.706
11136W        W75344  14.278   8.211  10.583
11137W        W75345  20.761  28.492  14.472
11138W        W75346  22.566  23.166  10.437
11139W        W75347  28.648  11.706  13.818
11140W        W75348  17.065  24.711  13.915
11141W        W75349   4.803  26.104  13.882
11142W        W75350   6.412  40.344   3.154
11143W        W75351   7.177   3.326   3.353
11144W        W75352  25.963  24.553   2.784
11145W        W75353  19.151   3.406   2.337
11146W        W75354  37.928  36.425  14.957
11147W        W75355   8.239  28.988  11.555
11148W        W75356  15.252   6.349  14.483
11149W        W75357  44.268  30.603   2.227
11150W        W75358  27.675   1.280  10.581
11151W        W75359  20.594  19.144  11.406
11152W        W75360  39.366  15.627   0.810
11153W        W75361  18.235   3.421  10.887
11154W        W75362  24.580  18.171  12.553
11155W        W75363  34.049  37.073   2.870
11156W        W75364  13.717   9.327  10.903
11157W        W75365  18.146   6.280   2.704
11158W        W75366  35.515   6.257   0.259
11159W        W75367  12.649  43.365  14.894
11160W        W75368  12.704  36.030  10.984
11161W        W75369  13.743  20.570  12.867
11162W        W75370  12.150  39.394   0.459
11163W        W75371  27.991  17.598   1.382
11164W        W75372  24.648  32.510  11.110
11165W        W75373  19.270   2.729  11.058
11166W        W75374  42.348  20.237  13.435
11167W        W75375  33.529   1.976   5.241
11168W        W75376   0.323  21.695   0.731
11169W        W75377   2.261  10.698   2.743
11170W        W75378   6.404  37.012  12.401
11171W        W75379  32.586  32.096  14.855
11172W        W75380  42.369   6.235  11.955
11173W        W75381  40.486  42.377  13.455
11174W        W75382  29.071  26.700   4.673
11175W        W75383  15.738   1.372   2.374
11176W        W75384   0.820  27.627   0.370
11177W        W75385  15.301   9.353  10.491
11178W        W75386  27.643  32.893   1.917
11179W        W75387  20.737  40.421  12.517
11180W        W75388  43.803  28.170  11.021
11181W        W75389   4.204  42.965  13.389
11182W        W75390   6.750  23.733   1.349
11183W        W75391  26.656   6.731   0.338
11184W        W75392  22.247  22.711  12.528
11185W        W75393  11.712  37.550   1.348
11186W        W75394  33.516   7.246   4.117
11187W        W75395  26.090   0.942  12.449
11188W        W75396   3.444   0.331   3.635
11189W        W75397  32.021   0.433  13.811
11190W        W75398  33.963  28.005   1.904
11191W        W75399   4.356  16.283   0.324
11192W        W75400   3.350  39.841  14.448
11193W        W75401  12.636   8.829  14.396
11194W        W75402  31.638  14.145  12.555
11195W        W75403  24.127  29.561  12.833
11196W        W75404  26.570  41.842   4.709
11197W        W75405  11.678  33.946  13.331
11198W        W75406  12.849  31.108  11.116
11199W        W75407   6.192  36.377   3.779
11200W        W75408  30.937  23.669   5.083
11201W        W75409   9.752  41.838  11.064
11202W        W75410   0.893  39.980  12.580
11203W        W75411  25.007  39.853   1.712
11204W        W75412  44.469  37.914   3.176
11205W        W75413  19.275  35.008   1.231
11206W        W75414  33.386  36.093   4.838
11207W        W75415  41.792   3.933  12.953
11208W        W75416  36.432  26.607  10.033
11209W        W75417  23.543  44.344  14.331
11210W        W75418  31.083  33.088  14.951
11211W        W75419  26.047   5.375   1.260
11212W        W75420  37.408   0.463  12.495
11213W        W75421  13.332  21.028  10.617
11214W        W75422  25.676  25.059   1.851
11215W        W75423  27.627   4.259   4.198
11216W        W75424  12.282  26.516  13.528
11217W        W75425  11.207  14.734   4.182
11218W        W75426  26.515  16.627  13.391
11219W        W75427  43.016  40.505  12.533
11220W        W75428  23.104  12.693   1.418
11221W        W75429  32.022  32.469   2.417
11222W        W75430  39.978  14.210   2.342
11223W        W75431  44.309  18.076   3.845
11224W        W75432  18.751  22.577  10.136
11225W        W75433   2.262  19.090   1.878
11226W        W75434  13.275   7.303   0.922
11227W        W75435  12.223  42.980   2.839
11228W        W75436  11.354  39.539   2.257
11229W        W75437   6.246  29.445   1.766
11230W        W75438   0.353  15.780  12.030
11231W        W75439  32.939  36.514  13.036
11232W        W75440   3.783  11.252   3.343
11233W        W75441  12.642  24.013   3.638
11234W        W75442   2.368  39.841  14.438
11235W        W75443  40.965  11.767   3.294
11236W        W75444  28.621  43.013   4.739
11237W        W75445  20.614   5.334   2.776
11238W        W75446  13.114  37.008  12.016
11239W        W75447  20.136  20.702  12.563
11240W        W75448   9.269  19.549   5.126
11241W        W75449  36.082  22.201  14.987
11242W        W75450   0.972  40.417  12.428
11243W        W75451   7.712  25.588  13.433
11244W        W75452  30.563  30.059   3.374
11245W        W75453  41.525  15.149  11.544
11246W        W75454  12.743  37.851   0.934
11247W        W75455  39.838  28.521  14.910
11248W        W75456  30.573   9.851   0.412
11249W        W75457  21.207  15.821  13.996
11250W        W75458  10.208  13.108   5.234
11251W        W75459  17.119  16.112   4.761
11252W        W75460  16.691  40.307   3.357
11253W        W75461  41.437  24.568   0.454
11254W        W75462  31.925  32.947  12.873
11255W        W75463  42.926  17.790   1.263
11256W        W75464  10.768  16.634  12.954
11257W        W75465  24.067  19.752  11.444
11258W        W75466  33.929  41.940   1.315
11259W        W75467   6.426  40.812  11.917
11260W        W75468  38.474  20.174  10.539
11261W        W75469   7.864  24.724  13.332
11262W        W75470  32.899   4.935  13.517
11263W        W75471  44.880  36.935  11.437
11264W        W75472   1.465   9.219   3.788
11265W        W75473   5.731  15.613  14.943
11266W        W75474  40.843   7.340  11.887
11267W        W75475  38.570  42.371   1.765
11268W        W75476  17.785  24.651   3.276
11269W        W75477  42.307  14.261  12.468
11270W        W75478   8.247  43.910   0.926
11271W        W75479  37.026  26.114  13.468
11272W        W75480  41.511  27.161   0.788
11273W        W75481  15.815  32.405  12.547
11274W        W75482  16.278   8.854  10.425
11275W        W75483  16.619  44.443   2.308
11276W        W75484  34.879   7.182  12.064
11277W        W75485  42.877  11.233  10.592
11278W        W75486   4.258   0.850  14.800
11279W        W75487  40.323  38.453   0.303
11280W        W75488  25.123  30.100  11.607
11281W        W75489  32.123  20.666  13.880
11282W        W75490  23.112  42.345   1.914
11283W        W75491   7.188  33.400   0.287
11284W        W75492  20.171  19.045  10.644
11285W        W75493  12.352  44.834  13.888
11286W        W75494  19.549  39.457   0.726
11287W        W75495   4.759   5.836   0.269
11288W        W75496  34.477  18.196   4.804
11289W        W75497  11.859  22.142   1.921
11290W        W75498   5.763  11.141   0.837
11291W        W75499   0.260   9.793   4.310
11292W        W75500  34.886  26.055  14.496
11293W        W75501  31.404  25.683   2.257
11294W        W75502  43.453  31.630   1.314
11295W        W75503  11.362  14.141   0.827
11296W        W75504  18.111   6.406  13.973
11297W        W75505  36.532  41.521  11.998
11298W        W75506  29.658  36.463  11.430
11299W        W75507  20.078   4.740  10.436
11300W        W75508   5.405  35.099   3.685
11301W        W75509  33.896   1.448  13.828
11302W        W75510  22.132  40.321  13.340
11303W        W75511  34.426  13.789  12.023
11304W        W75512  12.638  13.611   1.430
11305W        W75513  27.998  11.337   4.212
11306W        W75514  42.809  22.059  13.414
11307W        W75515  13.298   9.889  13.825
11308W        W75516  42.000  17.229   3.727
11309W        W75517  32.532  14.151  13.320
11310W        W75518  16.798  43.483  12.507
11311W        W75519  12.232  37.893   4.266
11312W        W75520  34.889   5.430  11.546
11313W        W75521   3.443  34.524  10.131
11314W        W75522   4.782  12.132  12.469
11315W        W75523   8.880  29.642   1.330
11316W        W75524  27.499  38.975  12.379
11317W        W75525  16.300   7.726  13.884
11318W        W75526  34.413   7.176  13.943
11319W        W75527   0.275  37.028   4.628
11320W        W75528  41.469  33.071  11.857
11321W        W75529   0.459  28.089   1.324
11322W        W75530   5.822  37.546   1.313
11323W        W75531  22.239  28.980  11.948
11324W        W75532  19.235   3.358  13.835
11325W        W75533  21.044  12.709   1.237
11326W        W75534   8.665   8.344   3.163
11327W        W75535  35.881  18.097   1.295
11328W        W75536  18.223  36.847  10.560
11329W        W75537  25.176  24.213   4.604
11330W        W75538   0.488  25.139   1.912
11331W        W75539  22.151   4.868   3.194
11332W        W75540  38.981   6.338   0.870
11333W        W75541  24.525  10.741  14.801
11334W        W75542  21.165   9.303   3.789
11335W        W75543  43.771  17.286  10.619
11336W        W75544  35.093   0.893  12.883
11337W        W75545  11.654  24.098  10.579
11338W        W75546  14.722  39.480  11.113
11339W        W75547  21.155  44.348  14.002
11340W        W75548  42.884  37.977   3.205
11341W        W75549  39.372  20.182   2.189
11342W        W75550  14.732  17.131   5.083
11343W        W75551  26.028  40.855   3.335
11344W        W75552  31.063  10.811   4.200
11345W        W75553  22.628  33.406   5.270
11346W        W75554  12.740   3.311  10.603
11347W        W75555  26.164  39.050  12.977
11348W        W75556   5.797  12.633  12.563
11349W        W75557  24.157  42.449  14.855
11350W        W75558  35.445  38.467  11.072
11351W        W75559  25.711  20.264  12.431
11352W        W75560  36.938  24.179  14.763
11353W        W75561  37.863  24.666  14.295
11354W        W75562   8.273  10.733  13.462
11355W        W75563  25.544   3.451  13.845
11356W        W75564   6.853  34.427  11.961
11357W        W75565  39.960  13.178   2.395
11358W        W75566   7.871  31.548  11.064
11359W        W75567  37.855  41.939   0.853
11360W        W75568  18.744  24.618   0.416
11361W        W75569  24.489  28.435   1.409
11362W        W75570  29.522  35.501   3.797
11363W        W75571  15.601  29.127  13.521
11364W        W75572   2.912  36.454   0.416
11365W        W75573   4.306  10.182  11.467
11366W        W75574   7.904  18.624   2.291
11367W        W75575  25.193  20.154  13.335
11368W        W75576  12.288  15.292  14.469
11369W        W75577   6.718   9.282  10.482
11370W        W75578  31.109  44.457  12.903
11371W        W75579  32.431  42.446   0.295
11372W        W75580  13.238  38.047  11.530
11373W        W75581   6.344  37.378   2.867
11374W        W75582  42.459  17.241  12.825
11375W        W75583  38.480   3.854  10.495
11376W        W75584  40.969  27.465   3.757
11377W        W75585  26.028  35.939  12.051
11378W        W75586  30.527  17.303   9.625
11379W        W75587  44.330   1.885  11.389
11380W        W75588  28.557  34.083   2.679
11381W        W75589   9.371  38.824  12.980
11382W        W75590  34.110  33.016  11.071
11383W        W75591  13.706  15.645  12.004
11384W        W75592  26.048  18.122  10.629
11385W        W75593  44.369  18.055   2.239
11386W        W75594  41.351  27.149  14.919
11387W        W75595  19.560  24.137   0.865
11388W        W75596  36.591  43.827   2.413
11389W        W75597  24.561  43.009   4.163
11390W        W75598  44.780  31.031   3.338
11391W        W75599  30.053  24.639   4.316
11392W        W75600  31.449  25.598  11.504
11393W        W75601   8.397   3.240  10.965
11394W        W75602  43.010   6.241   2.716
11395W        W75603   8.872  15.734  10.460
11396W        W75604  16.626   9.868  10.902
11397W        W75605   3.220   7.765   5.267
11398W        W75606  17.151  10.158  13.893
11399W        W75607   6.831  44.455   3.831
11400W        W75608   2.437  22.210   1.414
11401W        W75609   4.744   6.890   0.945
11402W        W75610  40.917  43.823   2.834
11403W        W75611   6.191  43.918  12.868
11404W        W75612  12.634  34.991   1.310
11405W        W75613  33.966  27.665   2.179
11406W        W75614  31.528  12.300  13.456
11407W        W75615  11.830   0.959  12.057
11408W        W75616  28.035   2.330  13.369
11409W        W75617  19.189  14.651   0.751
11410W        W75618   1.463  40.820   1.248
11411W        W75619  27.503  18.751  10.509
11412W        W75620  29.990  41.446  11.413
11413W        W75621  24.510  28.071  11.457
11414W        W75622  43.480  29.988  12.909
11415W        W75623  20.637  36.561  11.900
11416W        W75624  40.026   5.273   2.754
11417W        W75625  18.680  14.693  13.533
11418W        W75626   7.347  14.684  12.404
11419W        W75627  16.602  38.493   2.715
11420W        W75628   0.880  13.629  13.403
11421W        W75629  20.124   2.333   1.824
11422W        W75630  22.661  33.391  10.536
11423W        W75631  33.584  32.469  14.389
11424W        W75632  33.003  21.740  14.807
11425W        W75633   7.335  34.876  12.443
11426W        W75634  28.660   1.245   1.284
11427W        W75635   6.358   9.249  13.449
11428W        W75636  29.051  14.245   3.645
11429W        W75637  16.094   1.731  13.024
11430W        W75638  43.801   9.149  12.372
11431W        W75639   3.867  13.772   0.468
11432W        W75640  44.388  29.024   0.250
11433W        W75641  34.002   0.906  12.016
11434W        W75642  38.007  44.937  11.097
11435W        W75643   7.683  18.148   3.232
11436W        W75644  10.212  37.918   3.174
11437W        W75645   3.747  34.514   2.837
11438W        W75646  10.351  28.588  14.279
11439W        W75647   4.213  23.236  10.593
11440W        W75648  19.280  34.080  12.944
11441W        W75649  21.105  25.980   1.880
11442W        W75650  25.703   4.843  11.540
11443W        W75651   3.796  29.660  14.914
11444W        W75652  12.286  15.719  11.047
11445W        W75653  26.583   9.799   0.739
11446W        W75654   6.831  11.256  14.894
11447W        W75655   9.191  25.128   2.834
11448W        W75656  33.993   3.274  13.901
11449W        W75657  20.606  18.118  11.453
11450W        W75658  16.644  35.424   0.431
11451W        W75659  29.118   4.239  11.965
11452W        W75660   2.281   4.391   0.251
11453W        W75661  43.479  15.098   3.265
11454W        W75662  13.727  42.292   3.164
11455W        W75663  15.315  22.115  14.316
11456W        W75664  39.990   9.708   2.881
11457W        W75665  15.655  40.038   2.221
11458W        W75666  18.219  37.417  12.528
11459W        W75667  16.649   4.740  12.874
11460W        W75668  17.746  39.997   4.273
11461W        W75669  44.793  19.692  13.950
11462W        W75670  10.371  44.920   4.743
11463W        W75671  20.579  44.409   3.791
11464W        W75672  31.935  13.761   0.824
11465W        W75673  41.330   8.316  11.458
11466W        W75674  28.144  14.119  10.982
11467W        W75675  27.036  43.440   4.601
11468W        W75676  41.858  29.606   0.306
11469W        W75677  18.275   2.307   4.268
11470W        W75678  26.507  11.810   1.215
11471W        W75679  37.450  43.811  12.995
11472W        W75680  24.069   2.393  10.641
11473W        W75681   2.228   1.313   1.361
11474W        W75682  21.075  39.368   3.260
11475W        W75683  26.562  10.241  10.948
11476W        W75684  20.718   0.876  11.458
11477W        W75685  20.267  21.748   0.421
11478W        W75686   5.908   6.314   1.383
11479W        W75687   8.791  38.532   1.428
11480W        W75688  40.429  26.651   2.349
11481W        W75689   4.920  14.718  14.420
11482W        W75690  21.554  35.372   2.804
11483W        W75691  35.965  42.353   2.714
11484W        W75692  30.618  18.057   2.362
11485W        W75693  30.947  40.349  11.892
11486W        W75694  37.430   7.401  14.474
11487W        W75695  23.003   6.221  10.485
11488W        W75696  26.078  28.065   2.709
11489W        W75697  29.465   1.958   3.278
11490W        W75698   8.871  16.673   2.264
11491W        W75699   3.869  31.561  12.978
11492W        W75700  14.184   8.670   3.350
11493W        W75701  36.392  15.734  13.437
11494W        W75702  10.246  43.405  10.458
11495W        W75703  20.042   0.764   4.830
11496W        W75704   7.191  12.740   3.749
11497W        W75705   6.374  32.137  14.845
11498W        W75706  37.476   9.337   0.341
11499W        W75707   3.399  10.791   0.919
11500W        W75708   9.796  44.430   4.738
11501W        W75709  35.413  41.446   0.353
11502W        W75710  18.656   8.182   2.800
11503W        W75711  17.272   2.267  14.382
11504W        W75712   6.241   7.786  12.939
11505W        W75713  12.774  14.751   0.941
11506W        W75714  42.408  40.048  12.974
11507W        W75715   2.957  42.781  11.908
11508W        W75716  23.113  19.581   1.732
11509W        W75717  13.346  32.628   3.351
11510W        W75718  21.669   5.384   1.304
11511W        W75719  12.230  42.007  10.580
11512W        W75720  37.836  19.707  13.061
11513W        W75721  35.042  35.032   0.792
11514W        W75722  19.249  14.744   2.338
11515W        W75723  41.843  20.596  11.482
11516W        W75724  17.085  33.090  13.976
11517W        W75725  34.597  44.366  14.823
11518W        W75726  38.488   6.261  11.923
11519W        W75727  40.825  32.017  13.837
11520W        W75728  37.075  24.090  10.582
11521W        W75729   9.868  34.058   0.476
11522W        W75730  12.209  15.648  13.957
11523W        W75731  25.208   5.230   4.760
11524W        W75732  36.409  10.823   1.856
11525W        W75733   1.444  25.214   1.824
11526W        W75734  36.080   8.209   2.183
11527W        W75735  12.218  25.145   2.223
11528W        W75736  40.501  37.896   2.726
11529W        W75737   2.838  31.442   0.856
11530W        W75738  40.499  32.535  11.997
11531W        W75739  11.864  10.253   4.135
11532W        W75740  39.054  40.546  14.916
11533W        W75741  37.457  10.149   1.876
11534W        W75742  12.775  32.993  14.873
11535W        W75743   6.330  17.642   1.213
11536W        W75744  42.322  30.478  12.441
11537W        W75745  26.652  39.019  14.974
11538W        W75746  21.157  27.125   0.902
11539W        W75747  44.832  24.179   3.355
11540W        W75748  10.216  16.732  10.953
11541W        W75749  43.894  17.133  11.438
11542W        W75750  15.085   1.948   2.378
11543W        W75751  27.671  20.648  13.024
11544W        W75752   8.877  42.368  13.791
11545W        W75753   3.329  43.919  13.937
11546W        W75754  11.838  17.729   0.483
11547W        W75755   4.298  21.591   2.883
11548W        W75756  31.993  41.788  11.941
11549W        W75757  38.846  27.585   1.403
11550W        W75758  10.709  20.576  11.043
11551W        W75759  38.023   4.438   1.226
11552W        W75760  44.927  40.883  12.976
11553W        W75761  30.638  21.128  10.042
11554W        W75762  28.494  35.078  13.961
11555W        W75763   7.303   9.715  13.833
11556W        W75764  26.592  10.754  14.994
11557W        W75765   8.204  39.495  13.792
11558W        W75766  22.531  11.311   3.650
11559W        W75767  29.077  27.598   1.798
11560W        W75768  23.588  36.097   2.889
11561W        W75769  33.595  42.994   2.301
11562W        W75770  23.657   3.927  14.787
11563W        W75771  40.860  32.631  12.575
11564W        W75772  14.158  18.204   3.649
11565W        W75773  16.282  44.348  14.512
11566W        W75774  18.133  36.422  11.449
11567W        W75775   6.412  32.971   0.894
11568W        W75776  24.697  23.583  10.471
11569W        W75777  13.233  22.617  11.858
11570W        W75778  33.053  30.583   4.706
11571W        W75779   7.846  19.778  13.917
11572W        W75780  30.549  39.908   0.754
11573W        W75781  15.583  26.568   3.743
11574W        W75782   2.459  33.540   0.405
11575W        W75783  18.210  16.625   1.714
11576W        W75784  40.946  30.973   1.287
11577W        W75785   8.262  10.692  11.942
11578W        W75786   6.880  18.091  13.413
11579W        W75787  26.652  25.997   0.765
11580W        W75788  17.214  19.088  13.405
11581W        W75789  10.149  32.524   2.254
11582W        W75790  11.661  24.581  10.420
11583W        W75791  12.665   0.780  14.392
11584W        W75792   2.467  30.465   2.886
11585W        W75793  21.663  12.667   0.270
11586W        W75794  14.218   3.940  12.912
11587W        W75795   9.278   7.247  10.126
11588W        W75796  13.339  13.668   1.751
11589W        W75797  10.706  16.253  14.838
11590W        W75798  32.137  34.381   0.439
11591W        W75799   6.861  29.635  11.111
11592W        W75800  30.085  36.077  14.800
11593W        W75801   5.867  43.391  11.541
11594W        W75802  22.066   8.830  14.406
11595W        W75803  19.613   5.408  14.408
11596W        W75804   7.370   9.366  14.450
11597W        W75805   3.308  42.858  12.012
11598W        W75806  41.420  33.402  12.538
11599W        W75807  40.915  29.085   1.803
11600W        W75808   2.966   7.677  14.813
11601W        W75809  28.572  19.775  13.306
11602W        W75810   6.398  31.508   1.239
11603W        W75811  39.971  30.071   3.751
11604W        W75812  24.612  32.526   2.386
11605W        W75813  10.643  10.704  11.015
11606W        W75814  23.509   3.396   1.858
11607W        W75815  23.999  35.411   1.856
11608W        W75816  44.274   9.726   4.607
11609W        W75817  43.472  13.776  11.421
11610W        W75818  39.034  11.342  13.344
11611W        W75819  44.314  41.006  14.932
11612W        W75820  22.559  19.042  12.851
11613W        W75821  20.210  31.648  11.439
11614W        W75822  31.079  39.833   2.810
11615W        W75823  30.605  35.891  12.366
11616W        W75824  36.359  35.423  13.030
11617W        W75825  14.255  37.501  11.112
11618W        W75826  10.284  17.233  13.309
11619W        W75827   6.878  34.873  13.011
11620W        W75828   0.797   5.736  11.961
11621W        W75829  12.348   4.373  11.003
11622W        W75830   2.804  40.458   4.734
11623W        W75831  33.924  44.439  14.023
11624W        W75832  34.939  31.126   0.767
11625W        W75833  20.123   0.880   3.692
11626W        W75834  40.823   0.972   0.877
11627W        W75835   7.854  36.506   4.795
11628W        W75836  13.136  16.660   2.252
11629W        W75837  10.667   8.819  14.480
11630W        W75838  27.500   6.685   1.217
11631W        W75839  27.953  25.125   4.656
11632W        W75840  35.056   5.743  13.517
11633W        W75841  44.485  10.233  12.010
11634W        W75842  17.154  44.858   1.748
11635W        W75843  26.996  24.656   3.803
11636W        W75844   8.705  38.948   4.624
11637W        W75845  22.181  26.595  12.524
11638W        W75846  22.090   0.888   2.892
11639W        W75847  22.184  32.128   0.728
11640W        W75848  39.936  22.702   0.958
11641W        W75849  16.657   7.362   1.347
11642W        W75850  20.223  35.537  10.425
11643W        W75851  34.034  16.088   5.096
11644W        W75852  26.083  42.809   4.185
11645W        W75853   2.896   6.340   2.842
11646W        W75854  17.623   2.377   4.325
11647W        W75855  38.355  18.727   1.255
11648W        W75856  13.730  39.449  11.985
11649W        W75857  10.184   1.978   1.399
11650W        W75858  19.118   1.461   1.835
11651W        W75859  14.228  41.472   2.337
11652W        W75860   4.708  10.348   2.833
11653W        W75861  31.599  11.314   0.940
11654W        W75862   9.182  23.162  13.538
11655W        W75863   5.717  10.649   2.801
11656W        W75864  37.507  12.201  14.363
11657W        W75865  19.261  14.664  12.560
11658W        W75866  18.749  14.326   1.908
11659W        W75867  38.392   0.939   0.734
11660W        W75868  33.046  31.913  12.466
11661W        W75869  29.545  14.757   5.102
11662W        W75870  35.951  17.694   3.242
11663W        W75871   4.359  30.010  10.521
11664W        W75872   2.871   9.886   4.684
11665W        W75873  13.347  41.957  11.025
11666W        W75874  39.382  30.156  12.972
11667W        W75875  32.576   7.743   4.273
11668W        W75876   6.904  17.800   2.392
11669W        W75877   7.824  25.140  14.403
11670W        W75878  28.140  10.150   0.454
11671W        W75879   1.780  41.973  12.535
11672W        W75880  28.494  16.784   3.751
11673W        W75881  16.142  25.177   0.289
11674W        W75882  13.229   7.898  11.962
11675W        W75883  42.904  27.992  11.907
11676W        W75884   7.835   6.846   4.769
11677W        W75885  10.635   0.781   4.195
11678W        W75886  40.048  12.215   0.290
11679W        W75887  13.734  34.936  14.447
11680W        W75888  26.208  41.819  13.462
11681W        W75889  34.545  29.979  12.928
11682W        W75890  29.499  13.118   4.215
11683W        W75891  27.172  10.205   1.743
11684W        W75892  35.937  20.074  12.898
11685W        W75893  28.582  37.915  14.992
11686W        W75894  15.295   9.149   1.263
11687W        W75895  38.399  42.886  14.424
11688W        W75896  26.191  10.871   1.284
11689W        W75897  15.101   0.789  11.062
11690W        W75898  28.610   7.394  13.942
11691W        W75899   1.243   4.421   2.335
11692W        W75900  20.544  21.722   1.905
11693W        W75901  29.025  11.253  12.403
11694W        W75902   5.845  32.525  14.924
11695W        W75903  18.130  20.701   3.222
11696W        W75904  44.797  12.806   3.204
11697W        W75905  11.720  25.038   0.481
11698W        W75906   0.352  11.857  13.913
11699W        W75907  14.689  15.668  11.958
11700W        W75908  17.265  18.280   2.186
11701W        W75909  13.183  13.243   4.147
11702W        W75910   3.936  20.174   2.895
11703W        W75911   5.413  29.640  10.960
11704W        W75912  18.623  32.534  14.361
11705W        W75913  24.129  44.334  12.580
11706W        W75914   1.916  12.728   3.782
11707W        W75915  42.015  39.968  13.375
11708W        W75916  18.241   4.914  11.423
11709W        W75917   6.220  37.927  12.461
11710W        W75918  31.128  41.506   0.261
11711W        W75919   0.886   1.323   9.502
11712W        W75920  23.217  38.496   1.397
11713W        W75921  20.628  27.569  14.370
11714W        W75922  22.221  17.184   0.264
11715W        W75923  17.671  25.577  13.845
11716W        W75924  18.116   7.867   0.854
11717W        W75925   1.815  35.438  13.062
11718W        W75926  39.986  29.960  11.437
11719W        W75927  22.240  28.541   1.367
11720W        W75928  36.026   4.317  13.933
11721W        W75929  34.054  33.441   0.390
11722W        W75930  12.231  18.158  11.486
11723W        W75931  30.933  16.236  13.944
11724W        W75932   9.208   5.392   3.659
11725W        W75933  19.178  17.242  13.912
11726W        W75934   2.432  37.364   0.334
11727W        W75935  43.310  32.914   3.267
11728W        W75936  23.521  21.712   2.248
11729W        W75937  41.360  38.044   4.752
11730W        W75938  27.970  19.623   5.125
11731W        W75939  38.038  16.306  13.927
11732W        W75940  40.374  15.273  10.555
11733W        W75941   2.829   7.415  11.404
11734W        W75942   0.950  20.121   4.263
11735W        W75943   5.260  27.119  12.062
11736W        W75944  16.683  14.655   4.741
11737W        W75945  18.127  31.527   4.704
11738W        W75946  43.410  34.484   4.603
11739W        W75947  13.279  29.950   1.227
11740W        W75948  20.709  17.784  13.943
11741W        W75949  20.646  18.618  13.818
11742W        W75950  34.974  33.945  13.849
11743W        W75951   7.215  38.891  13.375
11744W        W75952  21.585   7.709  12.839
11745W        W75953   5.868  43.886   0.357
11746W        W75954  28.972  15.776  12.397
11747W        W75955  30.440  36.437   1.730
11748W        W75956  12.353  27.084  12.022
11749W        W75957  21.653  24.108   4.747
11750W        W75958  42.391   3.227   3.634
11751W        W75959  42.809  34.613   2.242
11752W        W75960  40.375  28.143  14.805
11753W        W75961  11.224  39.039   4.239
11754W        W75962  41.428   5.268  13.035
11755W        W75963  19.200  29.610  10.998
11756W        W75964  34.370  33.584   3.225
11757W        W75965  21.134  28.126  14.493
11758W        W75966  26.964   6.344  13.493
11759W        W75967  24.162  18.101  13.341
11760W        W75968  17.747   6.679  14.460
11761W        W75969  17.624  42.867   4.635
11762W        W75970  13.809   3.230  12.837
11763W        W75971   7.176  17.735   4.251
11764W        W75972  30.536  10.730  12.538
11765W        W75973   8.212   5.697  13.895
11766W        W75974  29.069   4.902  13.868
11767W        W75975  28.653  25.618   4.704
11768W        W75976  35.070  21.028  10.404
11769W        W75977  35.098  40.843   2.319
11770W        W75978  40.054  32.011   4.629
11771W        W75979  11.289  41.907  10.913
11772W        W75980  33.906  29.445   2.313
11773W        W75981  40.868  29.061   3.674
11774W        W75982  32.033  12.675   2.196
11775W        W75983  11.338  20.607  12.489
11776W        W75984  34.386  26.174   3.719
11777W        W75985  33.380  22.674  14.886
11778W        W75986  29.424  35.595   0.381
11779W        W75987  40.313  44.954  14.758
11780W        W75988  29.150  17.575   3.815
11781W        W75989  42.524  43.897  11.111
11782W        W75990  24.980   7.668   0.414
11783W        W75991  34.420  43.920  13.347
11784W        W75992   6.784  27.649  13.478
11785W        W75993  26.133  33.545  11.984
11786W        W75994   9.379  40.948  14.013
11787W        W75995  18.651  34.551   1.257
11788W        W75996   1.256  15.714  12.509
11789W        W75997  43.509   8.277   0.856
11790W        W75998  25.163  41.920   1.927
11791W        W75999  35.491  24.116   3.181
11792W        W76000   1.973  38.837  10.501
11793W        W76001  17.218  31.152   4.113
11794W        W76002  22.101   3.419  14.858
11795W        W76003  24.010  19.718   5.281
11796W        W76004  14.097  37.511   1.302
11797W        W76005  12.615  30.592   2.397
11798W        W76006   7.843  29.107   4.606
11799W        W76007  29.648  43.781   3.720
11800W        W76008  44.765  43.771   1.721
11801W        W76009  17.753   7.673   5.093
11802W        W76010   2.374  22.185   3.206
11803W        W76011   8.778  14.255  14.790
11804W        W76012  26.594  41.410   1.239
11805W        W76013  25.090  35.904   2.702
11806W        W76014  36.394   5.399  10.409
11807W        W76015  10.684  19.619  13.883
11808W        W76016  17.199  40.353   3.851
11809W        W76017  20.538  44.292  11.494
11810W        W76018  31.896  40.925  12.830
11811W        W76019  22.186  28.517  13.481
11812W        W76020  19.750  34.036  12.419
11813W        W76021  25.662  37.416   1.742
11814W        W76022  43.418  22.682   1.830
11815W        W76023   8.743  36.360   3.277
11816W        W76024  41.950   6.863   0.366
11817W        W76025  16.804  23.989   2.899
11818W        W76026  38.827   4.776  13.931
11819W        W76027  35.969   9.313   3.828
11820W        W76028  17.687   8.278   3.827
11821W        W76029   9.889  16.797  14.000
11822W        W76030  31.508  30.141   1.784
11823W        W76031   5.818  10.141   0.390
11824W        W76032  40.866  41.538   1.312
11825W        W76033  37.953  17.259  14.394
11826W        W76034  42.002  19.163   4.283
11827W        W76035  36.433  19.653   1.288
11828W        W76036  31.605   9.874  13.429
11829W        W76037  23.030   7.209   5.270
11830W        W76038  44.780  22.571   2.745
11831W        W76039  32.077  31.538   4.745
11832W        W76040  24.709  37.946  13.346
11833W        W76041  43.994  35.385   1.722
11834W        W76042  39.380  11.678  14.426
11835W        W76043  17.733  27.567  10.942
11836W        W76044  37.839  30.957  13.860
11837W        W76045  36.002  23.630  12.977
11838W        W76046  39.362  44.322  10.490
11839W        W76047  22.170  18.124  11.856
11840W        W76048  12.153  11.270   0.832
11841W        W76049  32.092  36.052   1.836
11842W        W76050  31.607   9.315   0.851
11843W        W76051  35.602  38.461   3.168
11844W        W76052   2.338  23.019   1.751
11845W        W76053   7.832  22.093  14.013
11846W        W76054   7.273  31.082   2.839
11847W        W76055   5.436  15.270  12.505
11848W        W76056  29.634  17.740   1.351
11849W        W76057  32.563  44.892   4.686
11850W        W76058  40.986  32.958   4.243
11851W        W76059  12.674   4.768  12.434
11852W        W76060  13.764  36.858   1.241
11853W        W76061  26.578  40.332  12.564
11854W        W76062   0.960  39.925   0.790
11855W        W76063  17.645  19.248  13.545
11856W        W76064  28.951  22.153  11.124
11857W        W76065   9.355  12.259  11.583
11858W        W76066  38.363   3.369   2.288
11859W        W76067  28.075   5.435  10.426
11860W        W76068   4.419  37.532  13.485
11861W        W76069   0.923  39.843   2.351
11862W        W76070   6.343  29.522  12.085
11863W        W76071   6.692   6.784   3.321
11864W        W76072  21.656  34.569  14.803
11865W        W76073  32.885  17.281  14.498
11866W        W76074  25.099  24.509  11.100
11867W        W76075  18.595  41.951  11.116
11868W        W76076  20.034  38.424   4.237
11869W        W76077  15.684  28.553   2.894
11870W        W76078  30.016  27.623  12.468
11871W        W76079   9.644  37.994  11.412
11872W        W76080  38.495  16.109   4.205
11873W        W76081  17.781  23.621  10.427
11874W        W76082  36.428  35.005   1.440
11875W        W76083  10.282  43.492  12.966
11876W        W76084  21.705  10.281  14.861
11877W        W76085  37.085  20.187   1.701
11878W        W76086  20.523   6.353  12.830
11879W        W76087  38.035  27.085   3.378
11880W        W76088  32.476  14.679  13.942
11881W        W76089   5.838  16.131   0.841
11882W        W76090  10.266  33.055   3.165
11883W        W76091  33.612  15.320  11.466
11884W        W76092  29.132   4.782  14.943
11885W        W76093  40.482   6.289   4.316
11886W        W76094  43.799  43.302  14.420
11887W        W76095  19.541  30.513  11.380
11888W        W76096  38.401  34.481  12.040
11889W        W76097  14.806  35.991   3.741
11890W        W76098  29.940  43.854   1.732
11891W        W76099  16.305  14.150  14.012
11892W        W76100  11.343   8.703  12.924
11893W        W76101  25.636  37.385  10.505
11894W        W76102  16.688   2.733   1.731
11895W        W76103  25.035  19.729  11.418
11896W        W76104  12.159  13.845  13.975
11897W        W76105  27.585  41.848  10.921
11898W        W76106  16.762  41.530   1.901
11899W        W76107   1.432  29.450  12.054
11900W        W76108   8.709  36.891   4.126
11901W        W76109  15.148  21.229   4.766
11902W        W76110  25.557  24.680   0.844
11903W        W76111  21.740  42.372  13.926
11904W        W76112  41.932  33.040   0.910
11905W        W76113  28.120  44.288   3.709
11906W        W76114   8.178  40.889  13.484
11907W        W76115  36.989   1.840   2.820
11908W        W76116  25.034  15.112  14.842
11909W        W76117  36.475  37.846   1.421
11910W        W76118  29.518  35.459   2.186
11911W        W76119  37.906   6.850  11.542
11912W        W76120  40.801  34.075  14.993
11913W        W76121  12.355  23.097   0.444
11914W        W76122  39.958   5.863   4.708
11915W        W76123  20.157   6.373   0.329
11916W        W76124   4.771  11.370  10.947
11917W        W76125  18.266   8.206   1.911
11918W        W76126  29.586   2.837  14.865
11919W        W76127  44.441   5.879   4.776
11920W        W76128  11.310  26.606  11.540
11921W        W76129  36.046   3.258   5.306
11922W        W76130  40.814  12.315   0.368
11923W        W76131  22.176  39.454  10.501
11924W        W76132  17.633   9.337   4.819
11925W        W76133  37.493  44.855  10.430
11926W        W76134  16.567   8.720   3.733
11927W        W76135  18.170  29.172  14.341
11928W        W76136  27.999   5.707  13.943
11929W        W76137  35.556   3.437  10.436
11930W        W76138  30.060  17.790   2.374
11931W        W76139  39.496  30.489  13.350
11932W        W76140  24.672  29.020   1.859
11933W        W76141   1.265  14.822   1.405
11934W        W76142   6.370  12.204   1.340
11935W        W76143  20.731  19.601   0.292
11936W        W76144  34.574  15.815  10.964
11937W        W76145   9.697  12.254   4.830
11938W        W76146  24.178  35.031  10.515
11939W        W76147   2.810  36.904   1.284
11940W        W76148   0.949  40.919   3.827
11941W        W76149   5.886  42.404   1.218
11942W        W76150   7.687  17.208   0.917
11943W        W76151   2.273  15.327  11.387
11944W        W76152  15.735  29.531   3.293
11945W        W76153  10.333   2.841   4.634
11946W        W76154  40.878  14.250  11.049
11947W        W76155   5.431  29.030  12.823
11948W        W76156   4.417   8.369  13.377
11949W        W76157  22.520   1.283   1.334
11950W        W76158  12.686  29.092  12.850
11951W        W76159  12.204  22.036  12.517
11952W        W76160  33.983   5.781  14.418
11953W        W76161  23.711   2.311   0.865
11954W        W76162  30.929  27.468   0.396
11955W        W76163  20.088  36.379   0.331
11956W        W76164  18.612  17.083   1.419
11957W        W76165  39.557  43.870  14.471
11958W        W76166  24.518   7.354  13.849
11959W        W76167  25.536   3.887   0.471
11960W        W76168  24.538   1.873   2.184
11961W        W76169  26.058  11.141   1.328
11962W        W76170  21.534   1.920  12.982
11963W        W76171  30.124  32.441   1.345
11964W        W76172  24.217   3.449  13.460
11965W        W76173  34.077   7.337  11.062
11966W        W76174   2.947   7.188   0.358
11967W        W76175  32.073  35.546  12.511
11968W        W76176  40.931   4.369   5.223
11969W        W76177  39.054  30.919   9.981
11970W        W76178   5.260  25.547   4.348
11971W        W76179  29.632  10.694  14.432
11972W        W76180  37.897  35.956   2.693
11973W        W76181  10.245  22.653   5.148
11974W        W76182   3.748   5.388   0.930
11975W        W76183  23.652  30.654   3.170
11976W        W76184  30.014  35.028   3.654
11977W        W76185  35.030  43.318   0.907
11978W        W76186  21.638   7.712  14.438
11979W        W76187  37.062  43.949   3.216
11980W        W76188  37.861  33.587   1.268
11981W        W76189  17.639  16.167  13.475
11982W        W76190   0.437   3.846  13.799
11983W        W76191  22.624  35.856  11.929
11984W        W76192  10.799   8.196   0.905
11985W        W76193  34.418  30.606   0.765
11986W        W76194  44.935  33.500   1.699
11987W        W76195  21.125  17.116  13.826
11988W        W76196  21.589   1.274  12.997
11989W        W76197  11.737  28.008  12.394
11990W        W76198   4.848  11.199  11.488
11991W        W76199  29.992  37.423   0.909
11992W        W76200  22.619   1.315   4.721
11993W        W76201  31.921  43.368   1.230
11994W        W76202  30.073  27.615  10.559
11995W        W76203  28.159  39.479   3.785
11996W        W76204  28.602   0.328  12.378
11997W        W76205  14.213  20.567  12.823
11998W        W76206  10.157   8.819   1.860
11999W        W76207  17.108  25.974   4.231
12000W        W76208  33.024  10.158  13.004
12001W        W76209  15.117  37.886   3.258
12002W        W76210  21.233  19.181   0.430
12003W        W76211   0.917   7.793   2.713
12004W        W76212  21.591  42.863  12.384
12005W        W76213  30.534  39.953   2.678
12006W        W76214  42.423  31.966   2.872
12007W        W76215  20.080  38.972  14.762
12008W        W76216  17.784  43.835   0.955
12009W        W76217  37.899  10.277  14.339
12010W        W76218  32.526  42.821  11.578
12011W        W76219  18.733  22.010  14.913
12012W        W76220  17.777  14.722   2.275
12013W        W76221  31.493  30.598  12.991
12014W        W76222  24.502  37.479   1.932
12015W        W76223  34.534  24.574   4.776
12016W        W76224  22.542  22.654   2.848
12017W        W76225  40.975  40.460  13.811
12018W        W76226  28.566  16.632  10.437
12019W        W76227  12.260  13.342  10.891
12020W        W76228   8.293   8.251   4.235
12021W        W76229  10.280   4.213  14.474
12022W        W76230  28.595  27.070  14.408
12023W        W76231  30.593  21.116  11.378
12024W        W76232  36.908   7.350  13.960
12025W        W76233  22.100  15.122  11.922
12026W        W76234  35.506  36.059  12.886
12027W        W76235  26.703  22.099  13.886
12028W        W76236   5.859   0.943   4.692
12029W        W76237  30.542  11.260   3.179
12030W        W76238  14.789  28.516   4.203
12031W        W76239  20.239  38.442  14.913
12032W        W76240   2.228  25.970   4.327
12033W        W76241  34.599  44.808  13.050
12034W        W76242   3.350  13.217   1.860
12035W        W76243  40.901   4.382   1.365
12036W        W76244  22.547  17.129   4.289
12037W        W76245   7.751   5.370   2.786
12038W        W76246   4.880  13.781   1.703
12039W        W76247  32.390  34.947  14.965
12040W        W76248  24.056  37.569   3.734
12041W        W76249  22.197  19.640   2.715
12042W        W76250   9.379  40.818  10.458
12043W        W76251  10.638  33.445   1.409
12044W        W76252   4.762  15.313  10.926
12045W        W76253  40.902  38.042  14.425
12046W        W76254  36.451  32.926  10.413
12047W        W76255  44.780  37.831  11.373
12048W        W76256  27.674  11.769  10.921
12049W        W76257  24.615   6.406  12.827
12050W        W76258   0.844  12.739  12.413
12051W        W76259  43.958  43.005  12.825
12052W        W76260  32.627  38.968  10.931
12053W        W76261  31.556  12.334   2.238
12054W        W76262   3.301  23.984  11.535
12055W        W76263   9.189  29.466  11.036
12056W        W76264   8.675  16.280  12.892
12057W        W76265  20.162  39.816  10.047
12058W        W76266   7.383  43.455  10.947
12059W        W76267   1.766   0.341  11.992
12060W        W76268  41.835  23.492  10.611
12061W        W76269  13.183  19.541   3.303
12062W        W76270   6.866  41.843   0.780
12063W        W76271   6.683  23.528   4.217
12064W        W76272  23.599  40.310   3.307
12065W        W76273   1.879   7.768   4.618
12066W        W76274  21.257  21.698  11.126
12067W        W76275  27.072   2.395  12.865
12068W        W76276  35.526   0.390   0.836
12069W        W76277  19.143  22.683  11.944
12070W        W76278  41.793  28.626   3.719
12071W        W76279  31.041  12.326   2.663
12072W        W76280  23.138  40.371  10.977
12073W        W76281  28.069  18.601   0.766
12074W        W76282  35.053  30.016  13.318
12075W        W76283   0.300  39.415   4.333
12076W        W76284  17.228  25.110  10.137
12077W        W76285  32.051  18.109   3.698
12078W        W76286   3.346  12.741   3.315
12079W        W76287  44.448  30.444  12.548
12080W        W76288  14.682  25.094  11.412
12081W        W76289  22.719  18.636  10.053
12082W        W76290  19.113  20.110  10.525
12083W        W76291  24.531  18.641  11.540
12084W        W76292  24.617  21.033  13.921
12085W        W76293  16.730   5.422   2.406
12086W        W76294  16.594  10.227  13.532
12087W        W76295  23.641  18.695   4.666
12088W        W76296  39.935  42.367  14.454
12089W        W76297  19.539  11.696   1.854
12090W        W76298  43.311  39.922   0.870
12091W        W76299  31.582  17.802   1.429
12092W        W76300   7.227  38.472   1.298
12093W        W76301  37.034  23.678  11.429
12094W        W76302  15.735  29.594  12.388
12095W        W76303  15.646  33.391   3.265
12096W        W76304  38.342  18.721  14.902
12097W        W76305  33.025  35.527  13.379
12098W        W76306  44.753   0.824   0.826
12099W        W76307  21.025  44.286   0.374
12100W        W76308  22.736  32.941   0.440
12101W        W76309  42.819  44.900  11.571
12102W        W76310  22.504  35.504  11.480
12103W        W76311  22.045  38.379  11.567
12104W        W76312  13.742   9.201   4.121
12105W        W76313  42.306  11.623  12.542
12106W        W76314  43.437  38.482   2.303
12107W        W76315   9.224   7.261  12.074
12108W        W76316  26.651  22.224   2.282
12109W        W76317  22.078  14.694   0.912
12110W        W76318   0.872   0.493   0.799
12111W        W76319  12.625  13.195   2.730
12112W        W76320  38.860  42.004  13.329
12113W        W76321   1.333  28.124  10.405
12114W        W76322  37.880  35.978   5.255
12115W        W76323  21.677  44.444   1.244
12116W        W76324  36.471  37.405   3.679
12117W        W76325  30.464  38.480  11.074
12118W        W76326  26.984  30.144   0.913
12119W        W76327  20.674  21.601  11.450
12120W        W76328  43.917   6.712  11.927
12121W        W76329  13.253  39.953   2.373
12122W        W76330  37.550  21.213   1.354
12123W        W76331  14.165   7.191  14.447
12124W        W76332  37.973  28.071  11.405
12125W        W76333  15.154  43.434   2.387
12126W        W76334  22.121   0.783  12.930
12127W        W76335  12.714   2.306   3.811
12128W        W76336  11.659  14.803  12.051
12129W        W76337  17.746  18.677  11.537
12130W        W76338   6.367  27.548  14.331
12131W        W76339   1.839  31.007  14.450
12132W        W76340   4.221  21.117   4.713
12133W        W76341   5.347  44.991  12.365
12134W        W76342  24.550  12.278  14.882
12135W        W76343  42.850   6.345   3.226
12136W        W76344   7.348   2.263   4.760
12137W        W76345  17.689  25.577   3.255
12138W        W76346   6.680  22.027  13.360
12139W        W76347  40.036  44.872   4.172
12140W        W76348  44.934  10.655   4.211
12141W        W76349  38.347  22.244  12.411
12142W        W76350  30.008   7.900  13.321
12143W        W76351  42.320  34.081  14.317
12144W        W76352  23.629  37.038   1.216
12145W        W76353  23.069  41.020   0.369
12146W        W76354  19.758   5.383  10.022
12147W        W76355  17.213  33.981   3.356
12148W        W76356  15.296   4.733  14.847
12149W        W76357   3.892  16.801  11.546
12150W        W76358  19.192  18.183  14.920
12151W        W76359   9.889  34.433   3.327
12152W        W76360  14.830  14.729  14.505
12153W        W76361  12.315   9.700  14.939
12154W        W76362   6.182  18.134   0.347
12155W        W76363  16.800   8.891  12.014
12156W        W76364  31.616  23.240   1.701
12157W        W76365   3.745   2.432  12.916
12158W        W76366  19.109  24.011   2.300
12159W        W76367   7.188  15.231  14.315
12160W        W76368  38.836  28.583   2.886
12161W        W76369  17.666  37.529  10.894
12162W        W76370  29.985   8.687   2.666
12163W        W76371  41.361  36.025   2.252
12164W        W76372   7.679  27.958  11.877
12165W        W76373  33.981  37.393   2.331
12166W        W76374  38.526  44.767   2.196
12167W        W76375  42.884  26.513  13.951
12168W        W76376   7.206  10.744  12.418
12169W        W76377  43.481  27.676   0.946
12170W        W76378  12.614  34.035   3.215
12171W        W76379  21.719   7.763   4.736
12172W        W76380  21.218   0.749   1.315
12173W        W76381  21.661  10.156   1.919
12174W        W76382   1.918  24.014   2.210
12175W        W76383  25.607  21.679  11.561
12176W        W76384  43.867  24.014  12.569
12177W        W76385  28.600  14.269   4.311
12178W        W76386   6.390  34.501  10.628
12179W        W76387  25.030  24.506  14.327
12180W        W76388  43.331   1.888  10.139
12181W        W76389  29.647  21.625   0.332
12182W        W76390   5.819  20.686   2.225
12183W        W76391   8.675  21.529  10.645
12184W        W76392  16.198   1.929   4.701
12185W        W76393  37.830  30.633   4.115
12186W        W76394  32.050  28.083   2.343
12187W        W76395  42.954  39.960   3.251
12188W        W76396  24.598   1.266   4.613
12189W        W76397  16.111  11.752   1.351
12190W        W76398  31.059  34.489   1.788
12191W        W76399   3.807   7.873   4.698
12192W        W76400  16.246  11.775   4.320
12193W        W76401  29.435  32.130  12.915
12194W        W76402  35.574  43.776  13.884
12195W        W76403   0.451  29.019  12.956
12196W        W76404  39.460  25.569   2.352
12197W        W76405   7.870  39.349  14.392
12198W        W76406  28.582  22.697   3.242
12199W        W76407   2.740  17.223   4.254
12200W        W76408  28.653   5.261   1.776
12201W        W76409   7.393  39.369   1.345
12202W        W76410  25.591   0.743   9.959
12203W        W76411   8.241  34.501   2.356
12204W        W76412  38.847  22.592   3.703
12205W        W76413   8.709   2.234   1.825
12206W        W76414   3.868  22.091   3.149
12207W        W76415  31.541  43.495   3.253
12208W        W76416   4.783  17.212  13.911
12209W        W76417   8.260  16.303   1.380
12210W        W76418  11.763  41.815   4.624
12211W        W76419  27.172  36.967   4.735
12212W        W76420  33.538   2.391  13.926
12213W        W76421   3.750  20.667  14.001
12214W        W76422  22.625  41.492   4.249
12215W        W76423  39.519  31.497  13.882
12216W        W76424  44.953   0.435  10.002
12217W        W76425   8.295  36.944  11.953
12218W        W76426  21.095   0.309  10.462
12219W        W76427  13.823   8.256  12.868
12220W        W76428  29.108   5.196  12.988
12221W        W76429  17.779  33.916   0.327
12222W        W76430  42.521  14.171  14.838
12223W        W76431  33.603  10.239  13.056
12224W        W76432  30.997  40.890  13.895
12225W        W76433   6.307  37.019  13.791
12226W        W76434  26.979  19.179   0.297
12227W        W76435  29.624  31.914  14.921
12228W        W76436  38.056  35.383  13.931
12229W        W76437  14.151   0.749   2.390
12230W        W76438  40.486  37.525  11.484
12231W        W76439   6.745  42.523   2.793
12232W        W76440   7.724  34.519  14.768
12233W        W76441  30.148  17.704  10.962
12234W        W76442   1.463  34.108   1.821
12235W        W76443   6.716   7.685   4.665
12236W        W76444  11.837   6.362   2.234
12237W        W76445  11.800   0.851  13.803
12238W        W76446   6.344  31.443  14.462
12239W        W76447  12.684  37.085  11.514
12240W        W76448  13.147   7.690  11.118
12241W        W76449  43.416  15.170  13.491
12242W        W76450  12.206   5.196   3.309
12243W        W76451   3.947  31.443   0.904
12244W        W76452  36.433  39.976  14.369
12245W        W76453  18.126  17.112  11.025
12246W        W76454  20.059  42.824   3.162
12247W        W76455  15.103  24.600   1.320
12248W        W76456  21.527  23.171   1.334
12249W        W76457   5.750  13.671   3.250
12250W        W76458  23.055  43.769   2.812
12251W        W76459  15.180  11.167   4.126
12252W        W76460   4.924  35.464   3.283
12253W        W76461  12.720  23.233  12.579
12254W        W76462  30.072  28.160   0.391
12255W        W76463  27.661  25.552   2.265
12256W        W76464   1.283   5.265  10.522
12257W        W76465  25.063   6.198  14.793
12258W        W76466  14.814  43.798  11.090
12259W        W76467  30.026   7.172   2.862
12260W        W76468  16.786  37.035  14.489
12261W        W76469   6.191  35.405   4.334
12262W        W76470   5.368  42.017  14.950
12263W        W76471  14.732   9.351  13.513
12264W        W76472  36.504   1.909   4.836
12265W        W76473  39.997  14.214  11.934
12266W        W76474   3.785   1.937  14.878
12267W        W76475  36.352   9.366   0.899
12268W        W76476  34.405  18.164   0.331
12269W        W76477  10.757  12.339   9.518
12270W        W76478   6.218   1.477   1.712
12271W        W76479  41.863  38.516   1.882
12272W        W76480  14.241  38.920   0.843
12273W        W76481   4.837  24.124  11.941
12274W        W76482  20.141  32.101  14.901
12275W        W76483  25.201   0.800  12.062
12276W        W76484   4.894  36.997   0.967
12277W        W76485  28.125   7.847   5.114
12278W        W76486  17.649  28.173  11.883
12279W        W76487  30.629  27.156   2.707
12280W        W76488   7.289  39.815   0.785
12281W        W76489  25.535  28.604  12.903
12282W        W76490  33.467  21.074  11.552
12283W        W76491  20.682   1.280  10.457
12284W        W76492   1.791  17.715   0.316
12285W        W76493   5.697  13.714  13.512
12286W        W76494  41.834   1.746   3.840
12287W        W76495   6.315  22.237  11.529
12288W        W76496  21.110  21.558   3.696
12289W        W76497  24.222  28.945   4.309
12290W        W76498  38.424  32.473   2.349
12291W        W76499  36.911   9.205   4.729
12292W        W76500  27.155   2.413   4.707
12293W        W76501   8.205  12.686   2.187
12294W        W76502  29.628  10.188  11.988
12295W        W76503  11.306  19.608  13.361
12296W        W76504   6.887  26.007  14.001
12297W        W76505  11.830   4.240   0.267
12298W        W76506  43.810  12.853   4.731
12299W        W76507  35.080  11.306   1.780
12300W        W76508  43.364  34.944   4.635
12301W        W76509  30.469  33.488   5.268
12302W        W76510   8.384  17.728   1.703
12303W        W76511  23.996  20.089  10.555
12304W        W76512  43.878  30.657  13.361
12305W        W76513  39.552  38.947   1.417
12306W        W76514  16.121   4.748  10.987
12307W        W76515  20.201  25.673  13.382
12308W        W76516  10.773  33.559  14.786
12309W        W76517  25.482  43.940  11.414
12310W        W76518   9.672  33.936   0.745
12311W        W76519   1.843  36.890  10.435
12312W        W76520  23.503  13.731   0.286
12313W        W76521   1.972  40.329   1.749
12314W        W76522  24.138  28.622  12.459
12315W        W76523  14.617   9.760   1.292
12316W        W76524  22.244   3.714   4.183
12317W        W76525   1.395  30.115   1.779
12318W        W76526  12.668  31.991   4.331
12319W        W76527  18.557  24.155  10.083
12320W        W76528  28.492  26.470   0.930
12321W        W76529  43.860  10.262  10.607
12322W        W76530   2.784  32.396  11.577
12323W        W76531   3.287   3.917   5.115
12324W        W76532  34.020   0.840  11.431
12325W        W76533  27.573  26.595   4.201
12326W        W76534  40.458  26.960   2.332
12327W        W76535  31.637  40.909   1.861
12328W        W76536  10.207   4.898   4.113
12329W        W76537  10.786   2.795  11.073
12330W        W76538  21.699  11.702   0.788
12331W        W76539  25.582  16.297   0.956
12332W        W76540  35.860  31.450  12.463
12333W        W76541  39.461  23.998  13.834
12334W        W76542   2.464  13.178   3.764
12335W        W76543  10.296  15.725  12.483
12336W        W76544   9.215  17.588  13.492
12337W        W76545  27.561  13.614  12.020
12338W        W76546  41.423  44.914   0.297
12339W        W76547  19.179  29.978  14.292
12340W        W76548  29.126   9.865   0.337
12341W        W76549  18.060  41.456   1.817
12342W        W76550  10.641  19.187   3.767
12343W        W76551  29.632  13.656  14.989
12344W        W76552   5.749  39.380  13.895
12345W        W76553  34.870  37.389   2.263
12346W        W76554  41.356  24.991   3.211
12347W        W76555   5.765   4.288   0.328
12348W        W76556  26.997  27.463   0.453
12349W        W76557  33.586   4.735   3.305
12350W        W76558   7.406  38.559  13.959
12351W        W76559  19.720   7.394   2.205
12352W        W76560   8.775  42.016  14.400
12353W        W76561  22.652  36.924  12.863
12354W        W76562  40.503  17.169   2.720
12355W        W76563   1.405  23.542  12.024
12356W        W76564  22.235  30.037   4.279
12357W        W76565   8.185  11.307   1.924
12358W        W76566  30.133   8.193   3.304
12359W        W76567  32.981  27.079   1.796
12360W        W76568   9.284  30.621   3.716
12361W        W76569   0.322  18.635  12.910
12362W        W76570  42.354  28.622  13.320
12363W        W76571  12.739   8.826   2.708
12364W        W76572  34.923  25.014   3.860
12365W        W76573   3.885  40.899  13.807
12366W        W76574   1.449  19.749  10.997
12367W        W76575  15.784  11.785   5.279
12368W        W76576  24.482  11.796   4.279
12369W        W76577  12.741  27.529   4.347
12370W        W76578  39.906  18.182   3.631
12371W        W76579   4.861  27.157  12.398
12372W        W76580  21.068   9.711   2.689
12373W        W76581  35.404  38.470  14.321
12374W        W76582  35.556   8.760   5.288
12375W        W76583  13.298   4.243   2.273
12376W        W76584  34.875  23.549   3.721
12377W        W76585  17.636  40.369   9.968
12378W        W76586  39.010  14.642   4.623
12379W        W76587  15.608   5.757   4.699
12380W        W76588  16.079  30.636  12.475
12381W        W76589  31.465   1.418  10.640
12382W        W76590   2.725  41.894  13.395
12383W        W76591  40.912  42.433  12.962
12384W        W76592  40.371  16.570   2.418
12385W        W76593   4.780   5.273   4.344
12386W        W76594  39.451  43.285  13.371
12387W        W76595  36.352  34.498  11.030
12388W        W76596  25.670  30.484   4.125
12389W        W76597  43.003  39.525  10.458
12390W        W76598  10.150   3.785  10.554
12391W        W76599  20.724  11.331   4.281
12392W        W76600  41.020  39.395  14.932
12393W        W76601   0.383  25.697  12.879
12394W        W76602  17.665  17.218  10.470
12395W        W76603  10.202  31.061  11.381
12396W        W76604  27.049  36.967  13.396
12397W        W76605  15.258  16.808   2.742
12398W        W76606  34.559  38.028   4.725
12399W        W76607  24.497  44.982   0.771
12400W        W76608  44.433  43.306   1.297
12401W        W76609  16.156   8.237  14.356
12402W        W76610  31.473   5.839  11.427
12403W        W76611  29.526  30.917   1.442
12404W        W76612  43.493  12.194   2.737
12405W        W76613  18.660  30.933  10.980
12406W        W76614   7.393  34.042  10.500
12407W        W76615  36.883  10.384  12.905
12408W        W76616  10.327  41.908   3.776
12409W        W76617  34.887   5.868  14.875
12410W        W76618  25.614   7.815  12.980
12411W        W76619  29.480  36.542  13.885
12412W        W76620   2.278  42.454  12.882
12413W        W76621  13.297  15.258  14.941
12414W        W76622  24.041  19.204   3.651
12415W        W76623   8.853  19.158  10.403
12416W        W76624  27.002  25.070   5.219
12417W        W76625  43.939  13.205  10.894
12418W        W76626   2.355  27.090  10.964
12419W        W76627  20.174  24.620   1.753
12420W        W76628  27.990  36.868  11.093
12421W        W76629  14.253  10.220   3.752
12422W        W76630  20.033  38.965  11.889
12423W        W76631  34.066   7.394  11.493
12424W        W76632  28.145  35.463  14.763
12425W        W76633  32.890   4.890  12.019
12426W        W76634  26.104  17.574  11.986
12427W        W76635  11.215   7.707  14.447
12428W        W76636   7.206  29.170   4.308
12429W        W76637  11.795  21.629  13.474
12430W        W76638   5.749  17.271  14.896
12431W        W76639  40.526  21.115   1.912
12432W        W76640  43.436  30.509  13.476
12433W        W76641  38.853   2.282  11.073
12434W        W76642   8.208  43.309   3.855
12435W        W76643  19.603  38.018   1.796
12436W        W76644  15.143  39.898   1.751
12437W        W76645   4.887  16.639   0.436
12438W        W76646  29.023  36.355  11.516
12439W        W76647  32.086  14.708  11.066
12440W        W76648  34.600  43.845   0.250
12441W        W76649  11.137  41.877   2.901
12442W        W76650  40.801   9.694  14.415
12443W        W76651  35.603  25.538  14.930
12444W        W76652  21.065   4.292  12.540
12445W        W76653  12.214  40.449   4.343
12446W        W76654  31.033  38.043   1.795
12447W        W76655  20.161  26.594   0.742
12448W        W76656  30.989  34.489  11.522
12449W        W76657  23.505  36.915  10.407
12450W        W76658   4.788  26.091   3.863
12451W        W76659  39.044  12.189   1.243
12452W        W76660  28.088  31.546   0.789
12453W        W76661   6.779  36.590   4.756
12454W        W76662  14.610  14.727   3.702
12455W        W76663   5.763  15.087   2.809
12456W        W76664  36.011  37.446   0.834
12457W        W76665  11.144  40.389   4.127
12458W        W76666  43.455  38.369  11.944
12459W        W76667  15.177  36.416   2.663
12460W        W76668  27.065  32.496  12.546
12461W        W76669   0.478  41.948   1.889
12462W        W76670  33.049  11.644  12.396
12463W        W76671   9.200  29.549   4.355
12464W        W76672  10.340  32.982   2.713
12465W        W76673  22.666  36.582  13.949
12466W        W76674   8.240  17.114  14.909
12467W        W76675  44.335  13.263   2.866
12468W        W76676  25.175  24.023  12.920
12469W        W76677  30.442  17.168   1.888
12470W        W76678  18.679  28.168  14.906
12471W        W76679  28.538  25.513   4.345
12472W        W76680  43.771   5.773  14.294
12473W        W76681  17.289  30.436  10.460
12474W        W76682  15.662  16.676  12.085
12475W        W76683   9.773  11.745   4.722
12476W        W76684   2.277  30.114   2.254
12477W        W76685  16.689  36.982   1.854
12478W        W76686  10.375   5.240  11.121
12479W        W76687   5.389  16.140   0.481
12480W        W76688  20.728   2.954  12.080
12481W        W76689  34.045  34.424   3.803
12482W        W76690  29.492  22.581  10.891
12483W        W76691  41.488  12.129   2.220
12484W        W76692   9.258   4.265  14.370
12485W        W76693   3.288   8.872   0.425
12486W        W76694  25.554  44.906  10.994
12487W        W76695  15.319   0.280  14.430
12488W        W76696   1.269  13.663   0.304
12489W        W76697  20.053  43.994   4.217
12490W        W76698  18.106   8.884   4.693
12491W        W76699  12.763  33.077  11.432
12492W        W76700  32.619   1.877   4.242
12493W        W76701   0.321  25.980  12.935
12494W        W76702  43.865  42.823  14.963
12495W        W76703  20.552  36.064   0.256
12496W        W76704  14.733   0.866   2.402
12497W        W76705  43.809  36.348   3.159
12498W        W76706  23.160  16.125   4.139
12499W        W76707   0.453  27.970  12.458
12500W        W76708  35.927  34.450   1.255
12501W        W76709  32.886  21.673   2.792
12502W        W76710  42.445   0.251   1.313
12503W        W76711  36.367  10.718  13.962
12504W        W76712  31.899  36.875   4.715
12505W        W76713   8.287  28.949   1.730
12506W        W76714  14.164  38.538  12.396
12507W        W76715  33.617  43.416  14.507
12508W        W76716  27.503  38.872   0.893
12509W        W76717  40.893  29.636  14.432
12510W        W76718  25.682  33.568  12.851
12511W        W76719  28.593   5.760  11.896
12512W        W76720  18.129  17.219   4.656
12513W        W76721  36.959  29.944  14.277
12514W        W76722  36.037  35.945   2.410
12515W        W76723   8.199  14.774   0.805
12516W        W76724   5.761  37.925   1.832
12517W        W76725  32.935   2.364  14.801
12518W        W76726  12.236  21.057   2.694
12519W        W76727  17.062  38.458  11.964
12520W        W76728  15.100  41.499  11.076
12521W        W76729  22.112   2.420  13.880
12522W        W76730  43.984  36.091   9.511
12523W        W76731  34.996   5.707   4.260
12524W        W76732  18.578  18.656  12.001
12525W        W76733  32.014  14.302   2.781
12526W        W76734  13.701  21.642   1.789
12527W        W76735   9.241  19.685  14.447
12528W        W76736  17.179  18.732  12.549
12529W        W76737  32.122  40.848   3.729
12530W        W76738  11.667  35.891   2.891
12531W        W76739   3.866  17.297  12.925
12532W        W76740  19.227  26.627   4.602
12533W        W76741   5.326  35.533   1.273
12534W        W76742  41.527  29.005  12.837
12535W        W76743   1.830  19.564   1.859
12536W        W76744  25.705   6.230   3.719
12537W        W76745   1.749  10.319   0.322
12538W        W76746  26.952  43.909   2.371
12539W        W76747  12.652   5.206  13.990
12540W        W76748  19.266  42.948  12.006
12541W        W76749   2.830  25.164   3.186
12542W        W76750   2.398  40.820  10.487
12543W        W76751  12.284  21.212   3.264
12544W        W76752  40.520  34.520   0.958
12545W        W76753  44.758  10.710  10.492
12546W        W76754   2.402  23.016   0.886
12547W        W76755  42.803  32.464   4.311
12548W        W76756  35.878  19.122  12.560
12549W        W76757  33.518   8.281  12.075
12550W        W76758  41.844  18.766   0.290
12551W        W76759   1.339  42.305   0.956
12552W        W76760  43.325  16.092  11.916
12553W        W76761  38.439  44.362  11.085
12554W        W76762  23.987  42.969  11.104
12555W        W76763  11.275  28.657   4.775
12556W        W76764  43.427  15.195   2.708
12557W        W76765  13.618  17.703   3.331
12558W        W76766  36.535  29.123  13.374
12559W        W76767   4.711  21.111  10.459
12560W        W76768  30.053   0.304   0.433
12561W        W76769  12.195  34.567  14.420
12562W        W76770  32.965  24.694  12.578
12563W        W76771  21.079  30.102  13.997
12564W        W76772  23.073   5.900   2.816
12565W        W76773  39.940  37.515  11.560
12566W        W76774  38.970  13.279  13.041
12567W        W76775  15.200  34.934   1.422
12568W        W76776  33.469  34.065   0.855
12569W        W76777   1.756  21.251  14.901
12570W        W76778   4.772  38.387  10.117
12571W        W76779  39.016  12.647  12.378
12572W        W76780  37.883  44.403   4.773
12573W        W76781  42.938  34.536  12.417
12574W        W76782  33.905  36.858  12.829
12575W        W76783  11.649  42.354  13.963
12576W        W76784  40.001  21.549   1.783
12577W        W76785  30.605   3.346   3.319
12578W        W76786  27.101  42.898  14.980
12579W        W76787  39.046  44.007   3.198
12580W        W76788  30.507   4.370  13.343
12581W        W76789  30.648   2.362   4.246
12582W        W76790  29.993   0.979   4.713
12583W        W76791   3.287  32.462  13.897
12584W        W76792  28.666  29.457   0.418
12585W        W76793   2.774  32.529   1.836
12586W        W76794   8.800  41.435   0.262
12587W        W76795   0.409  14.199   3.284
12588W        W76796   1.330  35.380  12.089
12589W        W76797  13.777  37.876  11.585
12590W        W76798   8.808  15.261   1.849
12591W        W76799  11.345  10.791   3.669
12592W        W76800  29.986  34.439   2.852
12593W        W76801  38.904  41.878   2.231
12594W        W76802  44.951  23.725   3.247
12595W        W76803  18.724  22.607  12.564
12596W        W76804  27.593  34.955   4.213
12597W        W76805   9.365   8.758   0.962
12598W        W76806  38.006  20.268   0.791
12599W        W76807  19.735  10.316  11.502
12600W        W76808  43.455  27.625  14.944
12601W        W76809  12.287  18.255   3.177
12602W        W76810  24.105  26.568   1.314
12603W        W76811  44.825  44.943   0.846
12604W        W76812  28.940  41.511  14.019
12605W        W76813  40.381  33.883   2.203
12606W        W76814  20.111  34.610  10.153
12607W        W76815  19.659  37.377   3.820
12608W        W76816  18.574  34.428   2.662
12609W        W76817   4.827  27.028   1.431
12610W        W76818   8.341  33.989   2.882
12611W        W76819  12.186  22.168   0.266
12612W        W76820   2.957   6.185  14.829
12613W        W76821  11.843   4.370  10.484
12614W        W76822  15.322  41.969   2.210
12615W        W76823  20.085  37.872  13.003
12616W        W76824  31.433  27.599  13.372
12617W        W76825  19.758  22.166  10.504
12618W        W76826  34.102  15.614  14.901
12619W        W76827  27.102   7.329  12.032
12620W        W76828  16.612   2.228   1.441
12621W        W76829  35.496  21.228  12.425
12622W        W76830  28.603  25.963   1.230
12623W        W76831  19.737  11.191  14.908
12624W        W76832   4.440   1.900  12.468
12625W        W76833  10.834  35.414   1.709
12626W        W76834   3.401   1.327  13.797
12627W        W76835  12.706   2.750   0.387
12628W        W76836   7.736  31.123  11.948
12629W        W76837  39.421  29.003   2.774
12630W        W76838  42.407  25.024  14.291
12631W        W76839  44.262  21.524   4.267
12632W        W76840  32.131  29.536  13.492
12633W        W76841   6.807   0.891  13.037
12634W        W76842   6.707   3.255  14.362
12635W        W76843   4.352   5.927  14.345
12636W        W76844  22.044  35.507  11.937
12637W        W76845  17.618   8.744   3.736
12638W        W76846  19.680   0.828   1.932
12639W        W76847   2.756  34.950  13.323
12640W        W76848  24.994  42.989   0.915
12641W        W76849  35.954  24.216  11.497
12642W        W76850  13.276  33.527  12.505
12643W        W76851   3.785  33.878  12.550
12644W        W76852  16.126  43.984   0.832
12645W        W76853  31.043  26.562  11.512
12646W        W76854   0.287  31.641  13.516
12647W        W76855  23.709  36.856   2.389
12648W        W76856   9.767   4.224   2.897
12649W        W76857  22.669  39.018   2.731
12650W        W76858   6.424  41.951  11.875
12651W        W76859   7.849   0.250  14.353
12652W        W76860   8.719  11.709  13.017
12653W        W76861   5.369  40.029  10.532
12654W        W76862  22.021  38.851  13.815
12655W        W76863  36.500  13.161   4.630
12656W        W76864   7.179   2.392   1.398
12657W        W76865  24.671  11.725  14.942
12658W        W76866  17.718  11.267  14.406
12659W        W76867  19.582  31.081  11.056
12660W        W76868   2.469   5.904  10.992
12661W        W76869  19.741  15.191  11.463
12662W        W76870  25.975  31.079   3.860
12663W        W76871  43.988  34.594   3.763
12664W        W76872  26.630  44.334   1.310
12665W        W76873  31.467  10.220  13.311
12666W        W76874   3.223  43.947  11.575
12667W        W76875  41.518  25.078  11.028
12668W        W76876  40.802   3.927  13.480
12669W        W76877  29.980   3.448  13.034
12670W        W76878  37.022   6.760   3.779
12671W        W76879  11.297  30.649   2.380
12672W        W76880  35.868  39.871   2.363
12673W        W76881  27.555  41.416   3.787
12674W        W76882  36.349  23.180   2.404
12675W        W76883  42.936  41.408  13.342
12676W        W76884  14.684  32.572   3.331
12677W        W76885  41.523  21.253   1.437
12678W        W76886  33.908   5.258  12.985
12679W        W76887  23.998  24.596  14.510
12680W        W76888   2.818  42.403   1.723
12681W        W76889  37.875  16.199   3.726
12682W        W76890  14.655  21.160   1.791
12683W        W76891   9.748  31.526   2.409
12684W        W76892  16.120  28.092   3.251
12685W        W76893  25.217  40.441  11.417
12686W        W76894   0.344   1.751   2.680
12687W        W76895  14.835  41.342   3.754
12688W        W76896  25.562  15.663  13.837
12689W        W76897  34.042  33.415  11.413
12690W        W76898   6.692  39.386  13.383
12691W        W76899  14.217   1.279  11.949
12692W        W76900  42.448  18.214  13.417
12693W        W76901   3.871  44.778  12.885
12694W        W76902  12.723  28.127   3.264
12695W        W76903   3.744  39.476  11.525
12696W        W76904  14.814  35.561  11.515
12697W        W76905  18.547  29.552   2.824
12698W        W76906  12.328  29.938  14.839
12699W        W76907  20.044  31.097   1.420
12700W        W76908  37.936  38.923  13.426
12701W        W76909  43.924  43.323   0.853
12702W        W76910  17.574  14.107  12.088
12703W        W76911  42.860  33.991  11.010
12704W        W76912  21.596  42.853  13.003
12705W        W76913  39.925   1.283  10.525
12706W        W76914  11.832  13.751   2.243
12707W        W76915  19.063  19.211   1.912
12708W        W76916  27.637  11.666  12.935
12709W        W76917   2.333  44.779   3.164
12710W        W76918  36.590  21.052   5.091
12711W        W76919  28.537  23.545   2.295
12712W        W76920  30.477  14.235   9.937
12713W        W76921   1.853  38.340  14.870
12714W        W76922  33.972  16.778  12.030
12715W        W76923   3.280   3.366   1.844
12716W        W76924  40.371  26.153   3.850
12717W        W76925  16.295   2.229  13.478
12718W        W76926   0.759   4.906   3.787
12719W        W76927  12.297  21.748  10.957
12720W        W76928   9.342  34.069   1.232
12721W        W76929   6.262  13.841   1.929
12722W        W76930  38.864  28.480  13.822
12723W        W76931  42.355   8.206   4.345
12724W        W76932  14.159  20.569   0.399
12725W        W76933   1.239  42.920  14.358
12726W        W76934   6.900  38.399  10.574
12727W        W76935  43.857  24.012   1.436
12728W        W76936  11.799  32.014   5.235
12729W        W76937  32.616  23.649  11.037
12730W        W76938  28.167  26.561   0.324
12731W        W76939  28.086  36.018   1.873
12732W        W76940  39.331  29.077  12.385
12733W        W76941  16.708   3.244  11.554
12734W        W76942  15.269  16.785   3.804
12735W        W76943  43.846   0.764  13.967
12736W        W76944  37.573  12.836   4.280
12737W        W76945  17.204   6.820   4.251
12738W        W76946  16.215   9.678   3.193
12739W        W76947  23.515  40.029  12.088
12740W        W76948  25.467  43.289   2.850
12741W        W76949  42.968   9.248   4.205
12742W        W76950   9.741  31.637  10.637
12743W        W76951  25.522  31.550  14.404
12744W        W76952  13.331  40.966   2.360
12745W        W76953  27.451  37.043  11.564
12746W        W76954   2.465  34.028   1.713
12747W        W76955  30.114  23.209   1.342
12748W        W76956  17.756  20.165   4.193
12749W        W76957  30.460   4.726   2.704
12750W        W76958  42.429  13.347   0.349
12751W        W76959  30.479  11.130   0.287
12752W        W76960   2.906  42.892  10.982
12753W        W76961  23.179   8.742   2.861
12754W        W76962  12.706  31.019   0.323
12755W        W76963  19.126  37.403  11.599
12756W        W76964  10.829  25.997  12.499
12757W        W76965  16.137  32.989   0.799
12758W        W76966  25.561  27.505   0.437
12759W        W76967   5.240  24.506  12.030
12760W        W76968   7.717  44.356   0.413
12761W        W76969  34.529  34.568   2.299
12762W        W76970  41.036  27.572  13.346
12763W        W76971  24.101  18.142  11.596
12764W        W76972  19.063  14.646  12.993
12765W        W76973  38.935  12.125   0.307
12766W        W76974  19.543  44.406   1.420
12767W        W76975  15.755  15.642   0.926
12768W        W76976  14.713  43.007  10.437
12769W        W76977  29.635   9.838   4.700
12770W        W76978   5.881   0.760   2.270
12771W        W76979   7.755  12.340  10.908
12772W        W76980   8.207  14.767  11.531
12773W        W76981  19.168  20.254  13.465
12774W        W76982   1.960   4.412  12.903
12775W        W76983  37.497  26.534   3.775
12776W        W76984   4.727  35.879   4.661
12777W        W76985  44.997  15.170  13.482
12778W        W76986  37.936   2.934  11.906
12779W        W76987   5.195  35.920   1.365
12780W        W76988  23.994  44.295   1.279
12781W        W76989  40.489  36.568  11.426
12782W        W76990  14.208  20.761   0.784
12783W        W76991   2.405  15.641  13.374
12784W        W76992  21.218   5.319   0.740
12785W        W76993   1.917  32.067   3.855
12786W        W76994  20.629  17.703   3.727
12787W        W76995  14.794   3.711   3.324
12788W        W76996  14.216  15.629   3.380
12789W        W76997  24.485  34.119   2.336
12790W        W76998  30.514  36.381  12.435
12791W        W76999  39.315  20.679  12.952
12792W        W77000  15.277  41.500   2.864
12793W        W77001  14.182  44.793   3.249
12794W        W77002  33.557   0.753  12.559
12795W        W77003  15.263  18.722  12.938
12796W        W77004  27.659  27.604   3.785
12797W        W77005   2.459  41.037   2.207
12798W        W77006  37.504   5.262  13.500
12799W        W77007  27.576   0.412   0.792
12800W        W77008  30.596  13.799  14.464
12801W        W77009  37.485  29.566   1.273
12802W        W77010  13.178  27.590   3.736
12803W        W77011  30.071  28.126  12.457
12804W        W77012  41.933  31.991  10.532
12805W        W77013   1.303   7.872  14.312
12806W        W77014   9.822  32.469  13.524
12807W        W77015  41.856  40.337  14.440
12808W        W77016  29.457   7.373  14.009
12809W        W77017  37.850  12.191  12.025
12810W        W77018   3.328  41.401  14.491
12811W        W77019  33.576   9.304  10.420
12812W        W77020  26.093  13.147  10.900
12813W        W77021   7.416  28.462   3.729
12814W        W77022   2.898   5.259  13.853
12815W        W77023   8.295   3.711  12.995
12816W        W77024   3.420  41.029   0.423
12817W        W77025   3.373  11.739   1.710
12818W        W77026  41.834  22.018  11.975
12819W        W77027  42.404  39.532  14.926
12820W        W77028  27.058  24.677  14.899
12821W        W77029  17.308  39.494   1.340
12822W        W77030  35.972  20.138   0.470
12823W        W77031  21.212  18.104   5.618
12824W        W77032  43.287   1.253   3.156
12825W        W77033   0.309  35.492   2.378
12826W        W77034  23.597  20.143   3.212
12827W        W77035  38.053  44.008  14.802
12828W        W77036   1.365  14.603  12.901
12829W        W77037  27.466  35.406   4.215
12830W        W77038  24.550  13.785   2.333
12831W        W77039  33.002   6.846   3.322
12832W        W77040  37.390  27.682   3.149
12833W        W77041   7.397  30.939   2.207
12834W        W77042  36.950  36.966   1.789
12835W        W77043   5.719  42.018  10.981
12836W        W77044  43.019  32.416   0.906
12837W        W77045  40.948  35.433   4.319
12838W        W77046  35.365  37.866   3.276
12839W        W77047  36.432  14.205   1.341
12840W        W77048  36.953  36.917   2.804
12841W        W77049  17.555  38.952  10.060
12842W        W77050   4.224  34.983   4.338
12843W        W77051  36.437  30.137   1.316
12844W        W77052   1.443  40.798   1.902
12845W        W77053  37.365  18.223  14.805
12846W        W77054  21.697  37.841  14.903
12847W        W77055  11.346  17.185   4.727
12848W        W77056  36.980   3.308  14.835
12849W        W77057  30.496  29.995  12.823
12850W        W77058  32.479   8.840  12.960
12851W        W77059  34.928  36.504   2.283
12852W        W77060  35.438  14.165   1.394
12853W        W77061  23.220   9.887  10.538
12854W        W77062   0.853  31.028   5.718
12855W        W77063  12.769   9.695   2.833
12856W        W77064  32.086  24.488   1.265
12857W        W77065  34.390  22.505   4.277
12858W        W77066  10.699  19.184  12.047
12859W        W77067   8.899  41.797  14.844
12860W        W77068  20.224  33.403   4.747
12861W        W77069  25.705  44.462  12.876
12862W        W77070   0.769  34.606   0.950
12863W        W77071  12.643  33.002  10.427
12864W        W77072  41.349  19.713  10.950
12865W        W77073   9.365   9.173  10.573
12866W        W77074  12.780  30.939  11.545
12867W        W77075  10.158  12.658  12.884
12868W        W77076   9.863  10.837  13.381
12869W        W77077  31.019  17.689   4.681
12870W        W77078  20.139   8.194   4.726
12871W        W77079  42.314  19.668  13.818
12872W        W77080  35.936  10.334  10.546
12873W        W77081  24.217   1.963   4.189
12874W        W77082  22.155   3.340  13.355
12875W        W77083  20.577  28.613  10.894
12876W        W77084  34.551   2.359  12.437
12877W        W77085  38.045  34.503  13.026
12878W        W77086   1.905   1.856  13.421
12879W        W77087   7.321  34.956  14.409
12880W        W77088  11.337  21.553  11.099
12881W        W77089   3.792  22.045   1.436
12882W        W77090  39.887  25.560  14.280
12883W        W77091  35.465  18.264  10.928
12884W        W77092  36.395  26.143   1.880
12885W        W77093  14.184   9.683  12.510
12886W        W77094   0.331  12.268  11.886
12887W        W77095  26.167   8.749  14.325
12888W        W77096  27.102  20.621  13.540
12889W        W77097  26.459   5.231  10.426
12890W        W77098  38.881  44.359   3.232
12891W        W77099  35.089  10.664   3.215
12892W        W77100   5.712  43.898  14.915
12893W        W77101  26.069  21.250  13.979
12894W        W77102   2.807  41.981  11.566
12895W        W77103  34.538   5.841  12.993
12896W        W77104  33.897  42.984   1.373
12897W        W77105  40.537  17.583   4.826
12898W        W77106  43.427  44.868   1.218
12899W        W77107  16.266   8.731   1.810
12900W        W77108  14.159  42.286  14.905
12901W        W77109  35.525   3.839   0.349
12902W        W77110  19.630   4.403   5.760
12903W        W77111  30.507   7.779  12.441
12904W        W77112  13.652   2.868  11.070
12905W        W77113  27.994  42.313   2.794
12906W        W77114   8.390  11.248  14.303
12907W        W77115   2.441  28.035  11.608
12908W        W77116   9.332  34.004   2.296
12909W        W77117   2.727  30.572  10.959
12910W        W77118   5.752  24.155   0.380
12911W        W77119  31.954  10.743  14.496
12912W        W77120  37.084   8.666   1.934
12913W        W77121  33.380  37.929   2.388
12914W        W77122  26.650   4.266  11.875
12915W        W77123  31.964  43.429  12.856
12916W        W77124   6.243   8.406   2.297
12917W        W77125  25.034   5.702  12.058
12918W        W77126   4.433  44.825   2.375
12919W        W77127  18.112   3.436  11.398
12920W        W77128  32.584  43.931   1.702
12921W        W77129  15.644  36.577   2.257
12922W        W77130  38.038  40.855   1.701
12923W        W77131   1.806  15.750   4.677
12924W        W77132  33.506  36.853  14.970
12925W        W77133  18.144  27.568  12.344
12926W        W77134  44.484   9.860   1.920
12927W        W77135   2.962  22.110   1.215
12928W        W77136  20.619  43.447   2.829
12929W        W77137  34.410  22.607  12.009
12930W        W77138  24.653  34.957   3.743
12931W        W77139  21.701  22.067  12.048
12932W        W77140   0.248  17.666   4.658
12933W        W77141  33.067   8.802   4.804
12934W        W77142  30.603  15.746  12.083
12935W        W77143   0.303  21.083  11.059
12936W        W77144  28.438  43.454   4.129
12937W        W77145  12.802  40.880   0.344
12938W        W77146  19.061  12.810   1.367
12939W        W77147  40.804  35.872   0.964
12940W        W77148  31.998  14.227   0.736
12941W        W77149  21.609   5.415   2.196
12942W        W77150   1.733  23.643  10.426
12943W        W77151  16.589  36.977  12.342
12944W        W77152  23.008  28.044   3.254
12945W        W77153  33.900  27.156  11.604
12946W        W77154  37.014  40.470   0.957
12947W        W77155  26.115  10.836   2.333
12948W        W77156  44.771  36.415  12.566
12949W        W77157  36.497   8.261   2.724
12950W        W77158  35.451   2.300  12.841
12951W        W77159  19.741  20.561  11.928
12952W        W77160  12.165  43.906  11.982
12953W        W77161  16.172  21.134  13.534
12954W        W77162  27.645  14.753   1.935
12955W        W77163  38.929  24.986  12.032
12956W        W77164  16.793  27.516   4.133
12957W        W77165  40.898  42.897  12.396
12958W        W77166  28.054  15.668   3.635
12959W        W77167  41.509  21.123  13.020
12960W        W77168  12.729   7.261  14.498
12961W        W77169   5.358  30.622   2.364
12962W        W77170   2.461  39.036  11.988
12963W        W77171   3.352  44.259  13.479
12964W        W77172  23.560  37.465  11.116
12965W        W77173  15.819  35.369   2.872
12966W        W77174   8.740  40.332  12.566
12967W        W77175  44.978  10.257  14.480
12968W        W77176  43.503  31.591  13.855
12969W        W77177  36.843  22.699  12.470
12970W        W77178  15.091  14.624  11.906
12971W        W77179  25.077  16.723   1.329
12972W        W77180  32.438  28.548  13.438
12973W        W77181   4.234  14.728  13.478
12974W        W77182   8.682  10.298   5.156
12975W        W77183  26.563  37.842   3.175
12976W        W77184  39.031  31.899   0.387
12977W        W77185  30.915   1.390   2.716
12978W        W77186  44.959   2.249  12.372
12979W        W77187  18.580  31.146  11.387
12980W        W77188   5.828  38.065  13.882
12981W        W77189  40.502  18.079   4.235
12982W        W77190  18.663  18.214   1.399
12983W        W77191   7.268  18.628   3.281
12984W        W77192  43.780  38.992   1.754
12985W        W77193  12.639  16.199  12.893
12986W        W77194   0.814  23.108   1.287
12987W        W77195  32.605  12.651   3.268
12988W        W77196   6.729  31.424   2.275
12989W        W77197  11.335  10.791   0.843
12990W        W77198  29.162  37.339  12.403
12991W        W77199  33.056   5.929  11.489
12992W        W77200   7.172  44.265   0.299
12993W        W77201   3.834   7.743  14.401
12994W        W77202  22.522  32.889   2.354
12995W        W77203  34.878  42.874  11.516
12996W        W77204  44.328  28.514  11.023
12997W        W77205  13.600  33.588  13.522
12998W        W77206  44.355  35.591   1.879
12999W        W77207  23.592  35.540  12.996
13000W        W77208  32.076  31.978   2.211
13001W        W77209   4.334  39.519  14.988
13002W        W77210  40.311  18.099  14.967
13003W        W77211   9.799  33.912  10.449
13004W        W77212  15.677  21.542   4.269
13005W        W77213   3.751  25.702   1.747
13006W        W77214  30.010  32.926  13.407
13007W        W77215  32.612  14.306  13.991
13008W        W77216   8.196  21.057   4.618
13009W        W77217  44.854   0.453  11.899
13010W        W77218   1.769  12.770  11.925
13011W        W77219  24.596  19.093   3.326
13012W        W77220  35.556  16.619  13.337
13013W        W77221  13.758  13.777   0.308
13014W        W77222  19.616  14.607  11.008
13015W        W77223   4.765  23.017  11.021
13016W        W77224  24.186  42.476   4.306
13017W        W77225  34.932  18.756  13.539
13018W        W77226  36.002   1.365   0.342
13019W        W77227  35.880  29.582  12.474
13020W        W77228  29.458   9.265   0.908
13021W        W77229   1.793  39.377  13.540
13022W        W77230  42.022  23.633  12.935
13023W        W77231  30.602  41.038   4.761
13024W        W77232   5.689   6.872  14.979
13025W        W77233  34.897  40.922   0.897
13026W        W77234  18.616  29.542  10.519
13027W        W77235  41.463  37.060  11.864
13028W        W77236  28.646  24.185   2.240
13029W        W77237  31.068   5.757  11.941
13030W        W77238   5.858  36.964   4.194
13031W        W77239   4.793  31.910   5.302
13032W        W77240  24.561  40.347   2.318
13033W        W77241  26.974   9.364   2.739
13034W        W77242  36.451  30.605   4.264
13035W        W77243  16.210  21.605  11.034
13036W        W77244   0.295  19.256   3.380
13037W        W77245  16.761  24.637   4.666
13038W        W77246  30.060  27.456  14.873
13039W        W77247  25.508  29.172   3.787
13040W        W77248  37.991  34.478   3.691
13041W        W77249  13.213   3.937   0.925
13042W        W77250   8.216   8.756   2.786
13043W        W77251  21.174  10.867  12.444
13044W        W77252  13.614  20.670  10.939
13045W        W77253  11.132  36.371   2.807
13046W        W77254  16.671  23.056   0.343
13047W        W77255  35.889  10.170   5.284
13048W        W77256  26.548  13.147   3.319
13049W        W77257  20.244  26.975  14.960
13050W        W77258  43.507  10.332  12.427
13051W        W77259  42.921  12.136  14.942
13052W        W77260  15.630   6.689   3.251
13053W        W77261  34.504  40.863  11.531
13054W        W77262  33.606  31.011   2.902
13055W        W77263  24.702   1.967  11.087
13056W        W77264   2.428  32.419  13.378
13057W        W77265  12.615  33.491  12.375
13058W        W77266  29.056   2.290   4.758
13059W        W77267  44.325   9.224  14.347
13060W        W77268  25.111  22.581   2.276
13061W        W77269  19.598  22.645  12.000
13062W        W77270  42.311  44.763   4.227
13063W        W77271  27.989  11.171  10.022
13064W        W77272  36.544   7.825  13.026
13065W        W77273  26.612  35.882  14.437
13066W        W77274  17.085  12.724   4.703
13067W        W77275  35.046  27.963  11.988
13068W        W77276  12.121  30.603  11.941
13069W        W77277  31.452  20.742   3.791
13070W        W77278  29.549  29.563   1.727
13071W        W77279  41.877  22.015  14.987
13072W        W77280  30.909  19.247  12.020
13073W        W77281  31.146   2.845  10.621
13074W        W77282   8.386  19.185   3.660
13075W        W77283  10.366  18.147   9.927
13076W        W77284  32.399   0.418  13.984
13077W        W77285  15.321  27.100  12.518
13078W        W77286  37.052  43.932  12.075
13079W        W77287  33.556  10.716  10.460
13080W        W77288  34.474  29.615  12.983
13081W        W77289  18.563   0.335  14.387
13082W        W77290  20.143  11.145  12.040
13083W        W77291  34.032  29.616   0.360
13084W        W77292  18.662  20.618   0.840
13085W        W77293  26.488  37.518  11.533
13086W        W77294  39.451   1.281  12.414
13087W        W77295  24.481   1.445  13.055
13088W        W77296  18.755  33.534   2.181
13089W        W77297   9.222  20.527  14.426
13090W        W77298  15.167  11.136  12.924
13091W        W77299   3.857  40.457   2.692
13092W        W77300  36.860  20.605   4.126
13093W        W77301   1.893   4.913  11.019
13094W        W77302  39.928  37.549   1.920
13095W        W77303  44.852  18.203  10.912
13096W        W77304   0.477  18.064  11.522
13097W        W77305  27.535  41.973  14.019
13098W        W77306  10.836  29.955  11.001
13099W        W77307  21.740   7.326  10.043
13100W        W77308   4.756  32.576   4.716
13101W        W77309  18.619  19.564   2.274
13102W        W77310   4.433  43.398  11.996
13103W        W77311  28.573   6.867   1.847
13104W        W77312   2.453   7.403   0.847
13105W        W77313  32.451   5.787  13.520
13106W        W77314  19.593   6.769   0.901
13107W        W77315  15.280   8.794  11.524
13108W        W77316   0.754  24.638   2.303
13109W        W77317  40.491   5.741  11.557
13110W        W77318  36.567  38.031  12.058
13111W        W77319   5.208  38.940  12.358
13112W        W77320   4.305  25.694   4.621
13113W        W77321  22.117  18.115  13.382
13114W        W77322  23.708  11.176  11.436
13115W        W77323  32.593   6.230  13.493
13116W        W77324  36.048  28.500  10.906
13117W        W77325  30.068  12.842   1.796
13118W        W77326  19.625  22.595  13.493
13119W        W77327  40.802  25.042  10.470
13120W        W77328  36.378  42.801   0.908
13121W        W77329  30.006  19.648   2.202
13122W        W77330  13.747  27.075   4.647
13123W        W77331   7.850   6.406  12.823
13124W        W77332  29.510  44.980  12.463
13125W        W77333  17.232  42.450   3.847
13126W        W77334   6.344  27.988  14.857
13127W        W77335  16.783  10.290  11.934
13128W        W77336  12.241  17.802  13.413
13129W        W77337  28.142  29.000   2.360
13130W        W77338   7.717  14.184  13.820
13131W        W77339  12.157  10.646  14.413
13132W        W77340   8.743  26.668   3.385
13133W        W77341  41.347  16.703  14.941
13134W        W77342  22.093  25.119   1.857
13135W        W77343   5.379   1.407  14.379
13136W        W77344  30.513  17.774   1.758
13137W        W77345  29.440  12.296  12.459
13138W        W77346  43.278  19.653  11.008
13139W        W77347  40.873  42.500  14.904
13140W        W77348  25.063   8.257  10.462
13141W        W77349   5.296  31.944  13.935
13142W        W77350  21.073   4.895  12.085
13143W        W77351  17.123   7.290   0.803
13144W        W77352  19.626  33.909  13.060
13145W        W77353  37.060  13.105   4.161
13146W        W77354  20.651  10.330  12.954
13147W        W77355  14.827  11.762  10.435
13148W        W77356  13.229  32.129  10.155
13149W        W77357   4.211  20.168  11.462
13150W        W77358  28.496   2.375  11.102
13151W        W77359  23.624  16.779   1.721
13152W        W77360   2.461  22.199   1.708
13153W        W77361  17.237  13.676   0.395
13154W        W77362   6.874  25.990   2.191
13155W        W77363  40.949  31.115   1.792
13156W        W77364  15.748   6.356   4.120
13157W        W77365   8.325  20.549   2.730
13158W        W77366  37.056  10.308   0.861
13159W        W77367  25.074  11.139   0.734
13160W        W77368  18.603   4.241   4.691
13161W        W77369  23.548  18.242   0.420
13162W        W77370   5.409  32.123  10.070
13163W        W77371   4.428  43.002  10.428
13164W        W77372  14.651  20.661  13.338
13165W        W77373  40.305  31.134  14.429
13166W        W77374  42.944  35.542  14.802
13167W        W77375  31.111   8.217   4.205
13168W        W77376  43.299   6.201  13.948
13169W        W77377  44.918  41.390  11.492
13170W        W77378  32.008   9.775  12.533
13171W        W77379  26.981  15.822   2.200
13172W        W77380  11.256  17.746  14.364
13173W        W77381  30.622  43.283  11.936
13174W        W77382  10.355   5.389  13.433
13175W        W77383  19.617  20.111   4.179
13176W        W77384  38.517  37.486   0.352
13177W        W77385  38.050  37.913   1.260
13178W        W77386  34.079   5.888  10.534
13179W        W77387  36.041  30.158   4.161
13180W        W77388  14.823   1.258  10.558
13181W        W77389  29.952  35.973   4.304
13182W        W77390   0.837   6.864  12.058
13183W        W77391  17.306  39.469  13.038
13184W        W77392  24.034  32.066   4.634
13185W        W77393  21.563  34.940  14.335
13186W        W77394  33.035   5.307   3.250
13187W        W77395  26.652  32.119  11.528
13188W        W77396  33.624  33.522   2.222
13189W        W77397  22.585  25.037   4.679
13190W        W77398  14.252  37.934   0.414
13191W        W77399  40.817  32.955   1.807
13192W        W77400  21.511  27.018   3.361
13193W        W77401  38.387  38.030   3.744
13194W        W77402  39.009  39.986  10.918
13195W        W77403  31.951   3.249   4.688
13196W        W77404  16.221   0.917  12.847
13197W        W77405  11.735   1.351   2.819
13198W        W77406  33.461  12.761   3.149
13199W        W77407   9.843  42.303  14.490
13200W        W77408   6.740   5.811   2.355
13201W        W77409  33.434  10.869  12.866
13202W        W77410  13.295  30.088   0.375
13203W        W77411  39.934   7.790  10.446
13204W        W77412   5.710  25.543  12.002
13205W        W77413  12.321  30.090  11.588
13206W        W77414  37.941  10.797   2.286
13207W        W77415  21.148  30.949   4.675
13208W        W77416  17.257  41.387  11.439
13209W        W77417  10.684  30.603  13.025
13210W        W77418  36.970   7.411  11.591
13211W        W77419   4.832  40.810   0.797
13212W        W77420  18.786  27.617  13.415
13213W        W77421  32.516   8.305   0.812
13214W        W77422  35.095   7.392   3.673
13215W        W77423  42.023  29.529  12.372
13216W        W77424  21.032  33.531   1.907
13217W        W77425  38.993  27.573  14.471
13218W        W77426  26.074  30.613  10.576
13219W        W77427  32.071  29.569   3.731
13220W        W77428  21.758  17.252   3.654
13221W        W77429  34.882   9.306   1.892
13222W        W77430  41.375  13.125  12.455
13223W        W77431  37.864   5.330   0.778
13224W        W77432   8.683  41.512  12.429
13225W        W77433   8.896  35.386  13.893
13226W        W77434   4.247   4.243  11.053
13227W        W77435  39.878  20.079   4.270
13228W        W77436  34.494  20.158   3.215
13229W        W77437  27.451   7.382   2.191
13230W        W77438  27.541  41.372  11.115
13231W        W77439  27.621   8.339  10.963
13232W        W77440  13.828   6.843   2.795
13233W        W77441  16.149  26.528  14.976
13234W        W77442  13.145  22.740   2.896
13235W        W77443   5.880  30.996   1.292
13236W        W77444  22.513  27.449   2.784
13237W        W77445  33.434  34.404   3.684
13238W        W77446  25.575  17.131  10.003
13239W        W77447  33.033  44.987   2.406
13240W        W77448  40.005  26.048  10.977
13241W        W77449  30.001  42.436  11.595
13242W        W77450  27.078  13.114   0.349
13243W        W77451   9.344  28.533   0.737
13244W        W77452  17.138   7.271  13.337
13245W        W77453  16.626   4.849  12.057
13246W        W77454   6.832  38.918  13.979
13247W        W77455  28.505  16.244   0.274
13248W        W77456  23.686  35.951  11.427
13249W        W77457  27.997  39.033   3.270
13250W        W77458  29.656  37.535   1.342
13251W        W77459  13.685  21.516   2.745
13252W        W77460  40.008  37.430   1.362
13253W        W77461  21.533  35.992  12.525
13254W        W77462  43.399  22.637   1.449
13255W        W77463  38.014  25.140   0.412
13256W        W77464  27.082  34.476  12.936
13257W        W77465   2.250  43.453   3.648
13258W        W77466  42.866   9.295   1.322
13259W        W77467  10.192   8.301  11.891
13260W        W77468  32.628  27.014  12.540
13261W        W77469   4.920  40.350  11.576
13262W        W77470   0.494  16.203  12.519
13263W        W77471  19.654  27.027   4.307
13264W        W77472  11.201  28.555  10.431
13265W        W77473  39.423  44.887  13.949
13266W        W77474  39.515  16.141   0.951
13267W        W77475   0.839   8.726  10.565
13268W        W77476  41.033   2.794  14.989
13269W        W77477  43.785  42.894   3.250
13270W        W77478  25.525  29.602   4.750
13271W        W77479  33.018   9.854   4.319
13272W        W77480  36.532  27.100  11.031
13273W        W77481   1.369  18.080  12.423
13274W        W77482  14.614  21.748   0.442
13275W        W77483  19.736  22.694   3.289
13276W        W77484  13.698  40.019   4.139
13277W        W77485  14.801  11.300   4.338
13278W        W77486  19.704  37.407   0.942
13279W        W77487   1.386  10.764   0.887
13280W        W77488  25.130  14.826   4.806
13281W        W77489   4.239  33.107   2.797
13282W        W77490  31.004   2.899   3.378
13283W        W77491  10.847  22.561   2.784
13284W        W77492  37.030  27.947  14.400
13285W        W77493  32.633  11.325   1.902
13286W        W77494   0.359  37.532  14.882
13287W        W77495  18.113  35.465   5.161
13288W        W77496  23.583  25.500  13.804
13289W        W77497   3.831   3.766   2.866
13290W        W77498  16.709   0.748   0.781
13291W        W77499  43.355  42.445  12.936
13292W        W77500  33.513   0.936   4.346
13293W        W77501  41.018  39.418   3.639
13294W        W77502   8.282  27.060   2.797
13295W        W77503  16.198  25.041   0.773
13296W        W77504   0.428   4.415   0.425
13297W        W77505   1.370  10.662   3.864
13298W        W77506  13.251  26.695   3.691
13299W        W77507   0.830  24.033   1.734
13300W        W77508  19.040  21.739  11.538
13301W        W77509  27.551  31.926  10.566
13302W        W77510  39.975  38.888   2.862
13303W        W77511  30.553  39.063  14.458
13304W        W77512  13.685   2.911   3.766
13305W        W77513  30.156  34.111   0.945
13306W        W77514  25.201   4.860  14.289
13307W        W77515  21.723  10.784   2.403
13308W        W77516   0.338  23.011   3.377
13309W        W77517  24.725  25.562  10.966
13310W        W77518  27.984  34.937  12.982
13311W        W77519  20.132  39.909   2.741
13312W        W77520  43.376  23.568   0.749
13313W        W77521   2.396  40.544   2.783
13314W        W77522  24.218   6.329  10.034
13315W        W77523   3.776  13.834  14.451
13316W        W77524  25.637   7.889   0.811
13317W        W77525  15.131  27.170   4.635
13318W        W77526  30.425  39.896   3.207
13319W        W77527   4.761  26.619   4.756
13320W        W77528   8.670   5.746  12.967
13321W        W77529   1.320  29.079  13.310
13322W        W77530  39.050  19.262   4.774
13323W        W77531  18.763  38.421  14.390
13324W        W77532  22.638  19.562   3.722
13325W        W77533  28.059  10.690  10.424
13326W        W77534  12.296  37.925  14.837
13327W        W77535  41.922  39.843  14.308
13328W        W77536  12.312   5.849   2.762
13329W        W77537  15.598  18.105   3.254
13330W        W77538  39.880  17.576  13.872
13331W        W77539  13.300   0.418   3.658
13332W        W77540   0.905  17.591  14.972
13333W        W77541  32.910  20.229  10.594
13334W        W77542  33.974  29.160  14.294
13335W        W77543   3.237   3.350  10.609
13336W        W77544  29.158  18.195  13.362
13337W        W77545  31.423  44.808   0.753
13338W        W77546  29.584  23.052  14.383
13339W        W77547  40.351   2.745  12.539
13340W        W77548  22.671  19.207  11.494
13341W        W77549  14.623  23.622   4.711
13342W        W77550  22.704  33.029   2.780
13343W        W77551  36.909  39.430   2.901
13344W        W77552  11.795  22.087   2.403
13345W        W77553  30.598  17.165   2.695
13346W        W77554  44.963  12.121   3.336
13347W        W77555  11.816  19.708  12.888
13348W        W77556  43.346  23.583   0.371
13349W        W77557   6.204   5.288   2.862
13350W        W77558  24.677   1.257  12.578
13351W        W77559  41.387  31.147  12.964
13352W        W77560   7.734   9.885   2.411
13353W        W77561  26.032   1.408  11.423
13354W        W77562   3.776  40.327   1.332
13355W        W77563  11.208  26.060  14.980
13356W        W77564   1.926  13.322  13.419
13357W        W77565  11.231  35.955  14.349
13358W        W77566   8.330  18.687   4.277
13359W        W77567  26.953  31.504  13.371
13360W        W77568  11.358  33.475  13.405
13361W        W77569  25.107  17.275   0.924
13362W        W77570  13.650  13.326   4.191
13363W        W77571  21.752  15.178   2.327
13364W        W77572  31.593  32.420  10.587
13365W        W77573  38.857  41.832   4.253
13366W        W77574  11.225   7.902   2.207
13367W        W77575  22.690  32.962  11.372
13368W        W77576  41.918   0.331   0.806
13369W        W77577  34.019  14.711   0.744
13370W        W77578   6.398   4.899   9.954
13371W        W77579  13.231   4.717   3.728
13372W        W77580  19.103   8.705  12.950
13373W        W77581  31.459  24.559  12.394
13374W        W77582  43.305   1.279   0.746
13375W        W77583   3.878  33.518  13.884
13376W        W77584  27.671  16.154  11.913
13377W        W77585  43.966  13.313  11.957
13378W        W77586   7.231  18.609   1.847
13379W        W77587  30.933  34.612  12.341
13380W        W77588  36.034  27.968  12.548
13381W        W77589  30.452  28.936  12.432
13382W        W77590  38.019  38.520   0.481
13383W        W77591  37.973   0.851  10.912
13384W        W77592   6.694   6.814   3.815
13385W        W77593  42.793  30.634  11.431
13386W        W77594  24.549  13.248   3.281
13387W        W77595   8.222  13.795  12.930
13388W        W77596   1.932  41.945   1.286
13389W        W77597  16.139  44.916  12.051
13390W        W77598  42.312  29.986   0.378
13391W        W77599   7.866  27.069   0.797
13392W        W77600  27.023  16.278  11.550
13393W        W77601  37.362  36.362  14.952
13394W        W77602  20.062  21.750  11.988
13395W        W77603  38.420  18.094   0.410
13396W        W77604  40.007  44.774   1.412
13397W        W77605  10.328  24.573   1.927
13398W        W77606  38.046  24.637   0.247
13399W        W77607  35.553  43.361   4.793
13400W        W77608  13.176  33.898   1.897
13401W        W77609   8.691  12.161   5.279
13402W        W77610  14.277  15.177  13.838
13403W        W77611  15.796   7.703  11.520
13404W        W77612   3.753   6.343  12.835
13405W        W77613  36.846  22.550  14.321
13406W        W77614  17.167  32.025  14.298
13407W        W77615  17.157  20.549   4.249
13408W        W77616  38.013  43.841  11.912
13409W        W77617   6.251  29.619   0.327
13410W        W77618  43.345  14.109  11.969
13411W        W77619  37.021  29.153  14.375
13412W        W77620  28.482   3.218  11.524
13413W        W77621  40.996  23.985  13.519
13414W        W77622  39.899  10.277   2.217
13415W        W77623   7.365  44.981  11.420
13416W        W77624  33.547   5.758  11.049
13417W        W77625  28.503   0.846  13.418
13418W        W77626  26.471  26.672  14.806
13419W        W77627  43.309  19.239  10.474
13420W        W77628  40.544  16.195  13.478
13421W        W77629  38.470  39.951  12.484
13422W        W77630  41.003  13.221   3.814
13423W        W77631  20.232  37.040   3.705
13424W        W77632  13.124  11.186  12.039
13425W        W77633  17.565  23.545   0.296
13426W        W77634   8.885  25.535  13.504
13427W        W77635  41.395  23.095   0.792
13428W        W77636  32.954  38.362  14.992
13429W        W77637   3.340  29.053   4.829
13430W        W77638  19.136  40.992  14.393
13431W        W77639  25.998  14.237   2.369
13432W        W77640  30.920  22.634   5.203
13433W        W77641   6.871   6.230   4.219
13434W        W77642   0.838   3.809  10.942
13435W        W77643  18.775  22.695  11.409
13436W        W77644  37.439  15.109  12.071
13437W        W77645  27.044  43.456   0.896
13438W        W77646  44.954  11.859  11.079
13439W        W77647   4.338  35.883  13.390
13440W        W77648  38.820  33.056  13.999
13441W        W77649  37.839   2.426  14.478
13442W        W77650  27.497  30.042   1.388
13443W        W77651  18.644   2.426   3.367
13444W        W77652   0.821  22.185   1.283
13445W        W77653  42.375  35.925  14.443
13446W        W77654  35.448  28.561   4.202
13447W        W77655   6.866  19.578   0.350
13448W        W77656  41.394  35.054   0.744
13449W        W77657  31.101  43.280   0.812
13450W        W77658  33.413  39.029  14.368
13451W        W77659  28.155  39.341   0.903
13452W        W77660   9.667  10.641   1.295
13453W        W77661  36.539  24.647  10.908
13454W        W77662  11.815  11.791  11.916
13455W        W77663  24.604   5.401  13.942
13456W        W77664   7.729   5.776   1.285
13457W        W77665  16.275  19.240   3.338
13458W        W77666  25.024   8.786   1.397
13459W        W77667  39.363   0.253   4.813
13460W        W77668  29.965  43.788  10.909
13461W        W77669  44.455  24.700   0.815
13462W        W77670  42.030  43.380  13.046
13463W        W77671  25.471  19.546   4.778
13464W        W77672  29.014  36.442   2.863
13465W        W77673   6.274  41.845  14.350
13466W        W77674  11.727  39.006  13.488
13467W        W77675  20.599   2.253   2.257
13468W        W77676  14.635  14.810  14.822
13469W        W77677   2.437  10.167  13.354
13470W        W77678   6.423  26.472  12.954
13471W        W77679  29.935  17.247   4.757
13472W        W77680  29.569  13.143   4.756
13473W        W77681  41.446  25.576  11.012
13474W        W77682   4.339   0.880   2.894
13475W        W77683   4.233  26.022   2.799
13476W        W77684   5.718  10.257   3.777
13477W        W77685   1.944   7.795  13.406
13478W        W77686  36.544  10.644  11.540
13479W        W77687   3.912  37.475  10.510
13480W        W77688  25.630  35.892   0.740
13481W        W77689  36.399   7.823  13.998
13482W        W77690  21.633  12.623   0.900
13483W        W77691   9.842  15.770   3.344
13484W        W77692  29.424  31.090   2.859
13485W        W77693   7.862  31.017  12.850
13486W        W77694   7.796  14.137   1.902
13487W        W77695  13.631  24.560  12.574
13488W        W77696  19.098  17.774   0.313
13489W        W77697   3.433  26.578  10.540
13490W        W77698  39.362  31.126  11.867
13491W        W77699   9.299   6.346  14.835
13492W        W77700  43.515  37.889   0.951
13493W        W77701  16.572  37.348   2.241
13494W        W77702  19.131  28.585  13.313
13495W        W77703  21.514  26.547  12.086
13496W        W77704  27.115  40.519  12.898
13497W        W77705  16.267   0.463  13.834
13498W        W77706  22.607  25.555  10.623
13499W        W77707   7.255   2.374   3.741
13500W        W77708  14.629   3.419   1.261
13501W        W77709  12.642  42.414  10.987
13502W        W77710   3.789  44.786   3.836
13503W        W77711  44.489   0.414  11.427
13504W        W77712  35.563  36.456   2.417
13505W        W77713  19.145  31.136   1.219
13506W        W77714  17.201  40.915   3.209
13507W        W77715  21.223  27.991   2.871
13508W        W77716  39.379  36.432  10.937
13509W        W77717  18.746  10.324  13.855
13510W        W77718  29.590  19.565   3.211
13511W        W77719  17.661  44.882   3.765
13512W        W77720  30.491  33.389   2.823
13513W        W77721  35.538  42.806  14.885
13514W        W77722  14.308  22.517  12.020
13515W        W77723  30.986  15.813   3.230
13516W        W77724  28.086  40.819   1.884
13517W        W77725   7.267  12.146   0.772
13518W        W77726  31.419   5.929   4.231
13519W        W77727  36.889  21.670  11.416
13520W        W77728  29.013  16.145  11.888
13521W        W77729  16.727  29.459   2.755
13522W        W77730   4.297  26.194  13.002
13523W        W77731  15.803  19.103  13.843
13524W        W77732  35.081  38.923   3.188
13525W        W77733  13.625   6.183  11.405
13526W        W77734  10.789  16.688   1.362
13527W        W77735  20.768  34.499  11.021
13528W        W77736  42.307  36.407   3.283
13529W        W77737  35.508   0.877   3.637
13530W        W77738  22.610  31.513  10.422
13531W        W77739  29.121  39.839   4.767
13532W        W77740  36.576  22.551   4.149
13533W        W77741  28.568   2.897   4.284
13534W        W77742  44.992  40.364  11.594
13535W        W77743  39.896  22.108  12.079
13536W        W77744  13.683  22.011   1.357
13537W        W77745   6.806  27.548  10.525
13538W        W77746  34.491  38.934   0.897
13539W        W77747  39.003  42.460  12.513
13540W        W77748   6.680  25.073  13.375
13541W        W77749  26.534  33.584  11.905
13542W        W77750  31.637  43.342   1.297
13543W        W77751  30.948   7.879  14.945
13544W        W77752  33.533   0.755  14.501
13545W        W77753  38.878   3.710  14.408
13546W        W77754  41.522  22.150   0.422
13547W        W77755  21.686  22.526  11.393
13548W        W77756  21.043  19.776  12.470
13549W        W77757   7.885  35.085   9.936
13550W        W77758  16.276  27.197  12.901
13551W        W77759   1.861  28.151  12.933
13552W        W77760  24.585  29.626   4.223
13553W        W77761  15.244  33.486  14.317
13554W        W77762   6.323  40.529  10.946
13555W        W77763  13.769  32.975  12.938
13556W        W77764   2.355   8.654  12.003
13557W        W77765   9.204   3.387  11.031
13558W        W77766  38.905  28.112  13.832
13559W        W77767  38.905  16.718  11.103
13560W        W77768  17.689   3.923  12.972
13561W        W77769  31.116  18.679  14.933
13562W        W77770  42.421  17.304   0.328
13563W        W77771  41.955  13.193   0.314
13564W        W77772  36.554  36.457   4.237
13565W        W77773  21.037   7.193  14.921
13566W        W77774  26.014  11.255  11.039
13567W        W77775   3.461   2.304   5.129
13568W        W77776  27.132  20.070  10.531
13569W        W77777  12.821   3.313  13.412
13570W        W77778  29.985  37.975  11.962
13571W        W77779  33.903  37.578  11.427
13572W        W77780  12.251  26.497  10.988
13573W        W77781   9.345   4.944   0.746
13574W        W77782  21.739   8.246  13.471
13575W        W77783  24.109  11.689   5.131
13576W        W77784  22.247  40.520   3.799
13577W        W77785  29.542   5.808  14.487
13578W        W77786  11.311   7.231  11.041
13579W        W77787  17.205  37.030  10.462
13580W        W77788  34.112   2.931   1.287
13581W        W77789  17.633   9.170  14.832
13582W        W77790   9.241  40.818   2.858
13583W        W77791   0.466   7.727  13.857
13584W        W77792  38.365  21.178  12.370
13585W        W77793   8.392  31.983   4.636
13586W        W77794  11.289  21.180   4.227
13587W        W77795   3.380  44.503  12.498
13588W        W77796   3.264   0.398  10.149
13589W        W77797  32.896  23.497  14.884
13590W        W77798  39.001   3.836   0.390
13591W        W77799  21.242  27.121   2.198
13592W        W77800   8.662  14.636  12.969
13593W        W77801  43.301  37.052  11.490
13594W        W77802   5.266  23.023   2.704
13595W        W77803  43.829  16.297  14.761
13596W        W77804  34.503  42.005   3.846
13597W        W77805  15.749  38.857   0.775
13598W        W77806  27.560  32.913  10.440
13599W        W77807  33.903  26.043   1.795
13600W        W77808  11.808  43.810   1.333
13601W        W77809  34.902  27.100   3.641
13602W        W77810  27.630  23.116   4.210
13603W        W77811  12.747  35.926  14.837
13604W        W77812  12.651  14.168  10.985
13605W        W77813  44.418  32.471  12.091
13606W        W77814  44.934  24.178  13.064
13607W        W77815  12.774  30.531  12.546
13608W        W77816  14.135  24.032  14.405
13609W        W77817  16.182  13.169   1.868
13610W        W77818  22.157  38.011  12.997
13611W        W77819  23.204  17.752  12.460
13612W        W77820  40.421  40.422  10.945
13613W        W77821  24.042  28.143   3.242
13614W        W77822  33.099  23.105  14.870
13615W        W77823   7.838  17.715   4.717
13616W        W77824  44.460  21.023   4.638
13617W        W77825  17.292  27.983  12.944
13618W        W77826  11.171  28.997   3.869
13619W        W77827  42.333   3.793   4.141
13620W        W77828   1.441  42.924   0.325
13621W        W77829  42.282   7.873   4.213
13622W        W77830   4.816  31.088   1.298
13623W        W77831  35.082  41.902   2.266
13624W        W77832  29.613  15.601   1.438
13625W        W77833  40.396  37.965  14.326
13626W        W77834  22.052  17.733   4.272
13627W        W77835  10.650  38.933  14.774
13628W        W77836   2.317  32.051  12.070
13629W        W77837  11.768   5.780  12.381
13630W        W77838  23.998  26.161   3.859
13631W        W77839  41.456  36.501  11.887
13632W        W77840  23.139  17.257  10.642
13633W        W77841   8.866  35.099  12.070
13634W        W77842   2.242  39.930   0.763
13635W        W77843  40.481  39.939  12.375
13636W        W77844  43.943  17.645   3.722
13637W        W77845  39.828  24.189   1.763
13638W        W77846  12.766  42.419  13.425
13639W        W77847  40.876  33.429   0.361
13640W        W77848  18.772  35.537   4.261
13641W        W77849  28.116   4.768  13.055
13642W        W77850  17.195  32.617   3.820
13643W        W77851   7.196  25.645   3.211
13644W        W77852  23.600   8.164   2.270
13645W        W77853  42.814  14.207  10.532
13646W        W77854   1.771  34.899  11.573
13647W        W77855  11.140   0.480   2.664
13648W        W77856  43.394  15.589   1.281
13649W        W77857  38.861   6.679   1.444
13650W        W77858  27.164  30.944  12.341
13651W        W77859  17.669   3.951   3.301
13652W        W77860   3.790  40.542   4.140
13653W        W77861   5.862  22.511  11.960
13654W        W77862  37.440  17.225   2.401
13655W        W77863   3.803  31.054   0.332
13656W        W77864  35.417   6.211   2.752
13657W        W77865  33.488   4.718   0.736
13658W        W77866  23.081  43.502   3.291
13659W        W77867  30.531  20.230   3.356
13660W        W77868   6.803  18.067  14.304
13661W        W77869  18.606  15.102  14.814
13662W        W77870  27.572  12.634  13.061
13663W        W77871  14.662  39.961  14.805
13664W        W77872  24.644  37.507   3.803
13665W        W77873  28.581  36.071  14.764
13666W        W77874   9.748  33.612  12.852
13667W        W77875  40.923   8.765  13.957
13668W        W77876  16.217  12.805   3.818
13669W        W77877  38.510  13.299  11.385
13670W        W77878  35.023  28.591   0.330
13671W        W77879  33.546  15.689   5.200
13672W        W77880  21.129  23.123   4.234
13673W        W77881  10.653  44.264  13.502
13674W        W77882  34.370  13.828   2.770
13675W        W77883   7.385  42.447   2.879
13676W        W77884  12.297  40.435   0.923
13677W        W77885  12.226  42.812  11.384
13678W        W77886  29.585   7.267  12.386
13679W        W77887  43.991  23.209  13.830
13680W        W77888  11.665  18.706  12.466
13681W        W77889  36.089  35.024   2.808
13682W        W77890   3.935   4.879  14.884
13683W        W77891  39.315  36.560  13.039
13684W        W77892  36.857  28.559  11.936
13685W        W77893  28.547  31.080  10.987
13686W        W77894  32.452   2.261  13.442
13687W        W77895  24.138   4.800   0.320
13688W        W77896  14.145  42.847   0.730
13689W        W77897  17.156  43.512   3.166
13690W        W77898  28.932  11.229   4.257
13691W        W77899  34.016  16.318   3.716
13692W        W77900   7.683  12.335   3.659
13693W        W77901   1.871  24.661   2.859
13694W        W77902  25.083  40.366   2.695
13695W        W77903  32.136  31.981   0.247
13696W        W77904  27.613  30.646   3.780
13697W        W77905  14.099  41.839  12.973
13698W        W77906  23.222  23.736   1.748
13699W        W77907  20.723  19.203  11.957
13700W        W77908   0.260   9.328  11.406
13701W        W77909  11.817  12.686   3.739
13702W        W77910  25.973  13.778  10.925
13703W        W77911  31.586   1.859   3.819
13704W        W77912   1.791  34.508  11.013
13705W        W77913  30.994   3.905  12.570
13706W        W77914  35.545  10.377  11.995
13707W        W77915  20.078  43.445   3.376
13708W        W77916  35.098  39.043  10.005
13709W        W77917  15.090  11.208   2.832
13710W        W77918  28.079  43.473   1.369
13711W        W77919   9.325  21.164   3.152
13712W        W77920  41.420   3.410  13.961
13713W        W77921  39.372   6.884  14.914
13714W        W77922   1.876  19.715  12.527
13715W        W77923  27.515   1.805  14.950
13716W        W77924  18.729   7.381  10.460
13717W        W77925  26.175  21.028  11.581
13718W        W77926   1.311  12.839  12.397
13719W        W77927  35.104  18.190   0.857
13720W        W77928   4.357  41.479   2.670
13721W        W77929  42.864  29.046   2.411
13722W        W77930  32.521  15.612  12.855
13723W        W77931   4.772  30.609   0.329
13724W        W77932  18.639  17.282   3.724
13725W        W77933  22.747  29.510   3.227
13726W        W77934  24.188   3.386   3.793
13727W        W77935  42.330  25.035   2.196
13728W        W77936   0.395  18.694   2.678
13729W        W77937  39.931  42.842  11.385
13730W        W77938  30.659  11.755  13.323
13731W        W77939  40.340   4.836  14.338
13732W        W77940   3.248   1.300  12.401
13733W        W77941  38.974  26.635   2.341
13734W        W77942  43.855   3.935   1.905
13735W        W77943   3.861   1.835   2.409
13736W        W77944   0.303  10.656  12.844
13737W        W77945  28.557  12.848  11.919
13738W        W77946  29.599  27.115   0.863
13739W        W77947  19.129  21.170   0.778
13740W        W77948  17.259  21.680   1.354
13741W        W77949  19.133  19.156   2.397
13742W        W77950  16.100   6.755   2.355
13743W        W77951  16.623  31.953   0.323
13744W        W77952   1.900  43.017   1.233
13745W        W77953  39.876  29.659  10.443
13746W        W77954  15.110  21.180  12.381
13747W        W77955  38.940  29.627  12.834
13748W        W77956  19.709  10.254  13.372
13749W        W77957  15.162  17.270   0.874
13750W        W77958  20.213   0.968  11.945
13751W        W77959   8.330  10.170  12.443
13752W        W77960   5.917  42.956  12.414
13753W        W77961  11.710  25.570   2.192
13754W        W77962  20.047  14.760   1.736
13755W        W77963  24.984  31.067   2.308
13756W        W77964  21.732  31.449  12.386
13757W        W77965   7.871  37.571   4.647
13758W        W77966  15.174  15.147  11.382
13759W        W77967  17.140  22.016  12.409
13760W        W77968  43.434   2.294  14.888
13761W        W77969  27.628  23.148   0.902
13762W        W77970  38.539  26.135   3.225
13763W        W77971  20.589  43.295  11.940
13764W        W77972   9.854  34.897  13.437
13765W        W77973  10.238  35.907   2.892
13766W        W77974  42.383   6.762   0.877
13767W        W77975   5.432   6.242  13.419
13768W        W77976  31.988  41.866  11.540
13769W        W77977  35.577   7.348   0.469
13770W        W77978  33.435   7.846  11.936
13771W        W77979   7.183  21.612   1.829
13772W        W77980   3.871  19.192  11.440
13773W        W77981  38.374   6.866   2.339
13774W        W77982  26.617  43.963  12.951
13775W        W77983  27.187   7.376   2.413
13776W        W77984  29.967   0.316  11.403
13777W        W77985  17.272   6.863   0.406
13778W        W77986  27.472  27.137   4.659
13779W        W77987   2.856  43.000  12.981
13780W        W77988  21.716  23.042  11.608
13781W        W77989  37.933   4.882   0.808
13782W        W77990  12.231   3.851   3.197
13783W        W77991  29.171  29.443  11.908
13784W        W77992  24.125   8.892   2.179
13785W        W77993  20.256   5.728   4.148
13786W        W77994   0.910  16.109  14.356
13787W        W77995  21.160  36.502   2.842
13788W        W77996  18.192  20.233  12.922
13789W        W77997  21.110  13.327  12.966
13790W        W77998  22.171  39.989   2.843
13791W        W77999  22.011  27.162  14.395
13792W        W78000   4.900   0.417  14.975
13793W        W78001  38.895  40.544  10.930
13794W        W78002  39.981  28.673  13.534
13795W        W78003   3.791   1.919   3.654
13796W        W78004  34.402  11.258   1.298
13797W        W78005  25.064  12.730   0.965
13798W        W78006  41.929  20.047   1.874
13799W        W78007  10.853  29.619  10.502
13800W        W78008  21.641   1.325  12.554
13801W        W78009  25.647  28.616   1.410
13802W        W78010  41.811  42.287  12.532
13803W        W78011  27.520  21.721  14.987
13804W        W78012  15.608  38.410   2.270
13805W        W78013  42.868   2.737   3.719
13806W        W78014   5.336  29.558   3.312
13807W        W78015   8.220  25.644  12.077
13808W        W78016  38.027   7.344   3.326
13809W        W78017   2.364  40.402   1.296
13810W        W78018  38.542  44.843   4.766
13811W        W78019  38.948  35.096   0.370
13812W        W78020   0.252  31.936  11.122
13813W        W78021  29.459  18.613   3.822
13814W        W78022   4.254   7.195  13.407
13815W        W78023  33.556  33.416   3.688
13816W        W78024  26.604   6.835  11.092
13817W        W78025  19.738  43.882  13.952
13818W        W78026  34.371  30.992   4.712
13819W        W78027  40.954  24.206   1.406
13820W        W78028  27.098  38.543   4.314
13821W        W78029   5.262   7.301  13.470
13822W        W78030  20.249   3.822   3.250
13823W        W78031  34.413  35.051   1.712
13824W        W78032  41.306  32.551   4.679
13825W        W78033  37.411  28.006  13.386
13826W        W78034  20.643  12.794   1.253
13827W        W78035   2.364  44.003   1.828
13828W        W78036   2.958  33.878   4.699
13829W        W78037  22.040  32.586  11.447
13830W        W78038   8.708   6.716   2.807
13831W        W78039   8.189  25.541  14.906
13832W        W78040  38.534  39.402  10.489
13833W        W78041  34.566  14.286   1.273
13834W        W78042  27.974  33.054   0.842
13835W        W78043  11.370  20.542   1.760
13836W        W78044  21.262  32.057   2.323
13837W        W78045   1.848  19.591  12.934
13838W        W78046  28.638  30.516   3.636
13839W        W78047  25.132  24.714  11.929
13840W        W78048  13.643  27.189   2.310
13841W        W78049  15.648  17.244   1.919
13842W        W78050  40.458   5.393   3.328
13843W        W78051   0.894  34.479  14.846
13844W        W78052  13.648  42.403   3.654
13845W        W78053  21.650  17.645  13.922
13846W        W78054  36.382  41.951  14.865
13847W        W78055  10.722  19.537   0.251
13848W        W78056  26.474  33.911   1.343
13849W        W78057  15.272   2.331  10.420
13850W        W78058  41.507  42.493   3.685
13851W        W78059  12.247  37.943   1.898
13852W        W78060  23.990  30.995   0.872
13853W        W78061  25.708  36.536   3.246
13854W        W78062  37.996  34.900  13.932
13855W        W78063  23.499   0.788  10.483
13856W        W78064   6.835  37.485  13.968
13857W        W78065  15.782  30.641   0.856
13858W        W78066  34.604   8.334   3.857
13859W        W78067  31.950   3.412  11.038
13860W        W78068   9.344  29.628  13.494
13861W        W78069  40.996  36.455   1.723
13862W        W78070  30.936  39.049  10.479
13863W        W78071  24.226  12.122  14.327
13864W        W78072  36.848  22.187  10.608
13865W        W78073   2.956  39.330   4.788
13866W        W78074  19.143  13.305  14.888
13867W        W78075  40.037  40.922   3.353
13868W        W78076   6.788  37.483   2.772
13869W        W78077   1.861  10.177  11.862
13870W        W78078  14.185  39.940  13.375
13871W        W78079  35.377  41.478  13.362
13872W        W78080  32.576  20.114  12.852
13873W        W78081   4.325  18.079   0.384
13874W        W78082  39.956  13.187  14.956
13875W        W78083  42.847  43.304  14.499
13876W        W78084  26.182  12.349   3.740
13877W        W78085   8.692  39.526   0.479
13878W        W78086  23.547   4.918   1.822
13879W        W78087  16.108  23.516   5.291
13880W        W78088  43.942  31.968  11.902
13881W        W78089   1.471   6.726   2.407
13882W        W78090  14.254  15.252  12.902
13883W        W78091  13.787   1.432   1.793
13884W        W78092  19.540  29.584   1.800
13885W        W78093  28.982  36.591  14.474
13886W        W78094   0.868  28.504  14.873
13887W        W78095  27.101  42.986  12.544
13888W        W78096  44.453  30.573   3.631
13889W        W78097  13.152  15.813  12.856
13890W        W78098   6.294  30.449   9.928
13891W        W78099   8.814  34.095   4.729
13892W        W78100  38.835  34.904  14.499
13893W        W78101  32.428  27.511   1.280
13894W        W78102  10.786  33.082   0.450
13895W        W78103  34.485  25.145  11.389
13896W        W78104  26.969   8.350  10.594
13897W        W78105   8.730   9.325   2.787
13898W        W78106  22.632  32.984  14.467
13899W        W78107  20.169  29.554   1.729
13900W        W78108  10.753  27.024  13.475
13901W        W78109  43.447  40.973   0.423
13902W        W78110  24.139  18.659   3.331
13903W        W78111  30.581   0.753  13.058
13904W        W78112   1.426   7.856  10.518
13905W        W78113  41.514  16.112   3.315
13906W        W78114   7.735  36.014   4.609
13907W        W78115  19.235  13.273   2.279
13908W        W78116  30.137  18.272  12.556
13909W        W78117  36.887  23.090  12.039
13910W        W78118  21.553  32.095  12.951
13911W        W78119   2.872   1.909   0.907
13912W        W78120  33.508  31.149  12.073
13913W        W78121  39.494   5.907   0.244
13914W        W78122  18.246  36.068  11.051
13915W        W78123  32.536  37.459  14.363
13916W        W78124   9.842  23.018  10.408
13917W        W78125  18.064  17.660   3.353
13918W        W78126  28.455  26.665   3.276
13919W        W78127  29.501  10.266  10.620
13920W        W78128  41.407   8.350   1.767
13921W        W78129  14.214  14.100  13.460
13922W        W78130  36.412  22.559   0.464
13923W        W78131   5.437   5.763  11.108
13924W        W78132  30.462   9.291  12.852
13925W        W78133  38.473   4.400   3.346
13926W        W78134  36.502  34.447  10.154
13927W        W78135  29.005  32.487  14.915
13928W        W78136   1.851  40.819  12.562
13929W        W78137  41.463  38.363  12.020
13930W        W78138  13.261  25.156  13.472
13931W        W78139  12.648  44.820  10.437
13932W        W78140  32.080  29.145  11.584
13933W        W78141  17.161  11.216  13.440
13934W        W78142  20.078  27.450   4.322
13935W        W78143  36.873  38.566   3.795
13936W        W78144  30.494   2.800   0.439
13937W        W78145   5.370   0.454  14.308
13938W        W78146  43.513  17.791  14.759
13939W        W78147  26.621   9.748   2.393
13940W        W78148  35.072  32.123   3.832
13941W        W78149   5.418  11.765   3.745
13942W        W78150  42.938  21.032  13.436
13943W        W78151  15.115  41.372   4.354
13944W        W78152  30.545  18.243   1.273
13945W        W78153  32.004   8.859  13.534
13946W        W78154  33.014  33.010   4.660
13947W        W78155  34.438   9.821  13.996
13948W        W78156   5.383  43.309  11.056
13949W        W78157  44.406   0.864  10.483
13950W        W78158   7.862   7.193   4.188
13951W        W78159  44.915   4.233   2.663
13952W        W78160  16.685  25.593   3.254
13953W        W78161  21.729  13.141   0.911
13954W        W78162   8.708  20.134   3.805
13955W        W78163  23.549  13.744  13.501
13956W        W78164  18.120  32.966  13.910
13957W        W78165   0.906  14.300   3.641
13958W        W78166   3.839   8.713   4.768
13959W        W78167   9.751  18.586  13.483
13960W        W78168  18.700  27.008   4.733
13961W        W78169   8.329  18.737   1.705
13962W        W78170  17.089  12.155  11.454
13963W        W78171  42.012  18.741  13.429
13964W        W78172  15.167  19.183  12.832
13965W        W78173   0.346  26.118  14.432
13966W        W78174   8.695   7.316   1.413
13967W        W78175  18.278  36.401   9.965
13968W        W78176  31.618  32.472   0.253
13969W        W78177  27.670  28.552   2.846
13970W        W78178  19.185  20.190   3.367
13971W        W78179   8.302  42.868  11.593
13972W        W78180   2.280  39.999  12.384
13973W        W78181  25.485  35.008   1.342
13974W        W78182  14.773   7.877   4.226
13975W        W78183  13.189  17.792  14.916
13976W        W78184  42.940  42.322   1.401
13977W        W78185  10.191  44.339   0.452
13978W        W78186  40.831   4.228  12.895
13979W        W78187   7.810   0.438   1.300
13980W        W78188   1.752  14.208   0.279
13981W        W78189  40.489  30.140   1.918
13982W        W78190  19.255  19.263  12.359
13983W        W78191  41.923  43.002  12.402
13984W        W78192  30.492  25.186   3.799
13985W        W78193  42.929  27.197  14.376
13986W        W78194  17.599   2.870  14.505
13987W        W78195  22.549  43.405   2.314
13988W        W78196  13.241  30.034  14.448
13989W        W78197  31.607  34.447  13.847
13990W        W78198  18.276   9.789  13.816
13991W        W78199  23.079  20.762   0.878
13992W        W78200  31.080  39.824  14.348
13993W        W78201  22.033   0.893  14.789
13994W        W78202  31.509  28.963  11.601
13995W        W78203   3.814  23.137  14.492
13996W        W78204  11.770  10.248   4.599
13997W        W78205  36.841   9.716   0.380
13998W        W78206  21.208  16.098  12.439
13999W        W78207  19.757  32.140  13.380
14000W        W78208   0.760  33.412   3.238
14001W        W78209  22.573  19.088   3.840
14002W        W78210  33.982  30.659  12.959
14003W        W78211  17.186  12.835   4.189
14004W        W78212  10.201  37.532  12.394
14005W        W78213   2.840  42.466  12.904
14006W        W78214  28.092  32.066   0.924
14007W        W78215  38.492  24.535   4.115
14008W        W78216  43.896  38.913  11.935
14009W        W78217  30.544  23.687  14.393
14010W        W78218   8.307  10.221  13.919
14011W        W78219  34.867  42.784   3.183
14012W        W78220  40.928   6.756  14.382
14013W        W78221  37.079  17.267   3.179
14014W        W78222  27.508  34.897  11.121
14015W        W78223  17.075  25.199   2.280
14016W        W78224   6.782  11.228   4.741
14017W        W78225  41.916  27.553  14.444
14018W        W78226  16.120  17.249   0.783
14019W        W78227  43.910   5.817   1.700
14020W        W78228  43.990  27.953  11.419
14021W        W78229  42.935   3.318  13.457
14022W        W78230   8.868  25.171  13.509
14023W        W78231  30.512  18.731   2.801
14024W        W78232  19.616   9.257   2.210
14025W        W78233   8.401  26.465  11.493
14026W        W78234  24.084  13.110  13.435
14027W        W78235  23.052  17.199   2.295
14028W        W78236  23.010   3.710   4.248
14029W        W78237  26.467  15.705   0.306
14030W        W78238  37.997   7.310   5.290
14031W        W78239  28.936  18.582  13.921
14032W        W78240   1.406  31.575  10.134
14033W        W78241  10.765  35.917  12.052
14034W        W78242  14.647  17.252   1.896
14035W        W78243  37.015  30.974   1.210
14036W        W78244  36.997   5.829  11.505
14037W        W78245  30.561  26.117  14.377
14038W        W78246  22.629  43.328  12.849
14039W        W78247  11.739  19.200   4.812
14040W        W78248   6.715  26.678  14.982
14041W        W78249   5.716  25.974   3.260
14042W        W78250  37.908  32.394  11.889
14043W        W78251  16.629  28.671   1.376
14044W        W78252  21.183  25.188  10.134
14045W        W78253  33.565  26.524   4.707
14046W        W78254  36.428  35.992  13.939
14047W        W78255  30.510   6.396  13.542
14048W        W78256   3.229  42.429   1.422
14049W        W78257  39.046  36.421   0.782
14050W        W78258  33.545   3.386  12.923
14051W        W78259  37.990  22.177   0.935
14052W        W78260  28.947   0.324   2.372
14053W        W78261  40.411  24.032  12.902
14054W        W78262   7.412  12.315   0.348
14055W        W78263  11.645  35.581  11.116
14056W        W78264   8.770  33.968   4.272
14057W        W78265   3.228  22.683   2.833
14058W        W78266  36.993   5.239  14.843
14059W        W78267  24.668  43.865   4.731
14060W        W78268  43.370  32.964   1.288
14061W        W78269  19.541   7.786   3.241
14062W        W78270  15.769  37.989  14.002
14063W        W78271   3.715  36.075  11.398
14064W        W78272   9.725  34.999   2.205
14065W        W78273  16.671  39.518  13.357
14066W        W78274   7.393  10.811   3.770
14067W        W78275  35.410  14.160   1.818
14068W        W78276  28.181   5.777   1.858
14069W        W78277  22.727  30.618   4.614
14070W        W78278  36.872  15.083  10.559
14071W        W78279  34.103   4.733   3.279
14072W        W78280   3.860   6.882   3.765
14073W        W78281  13.242   0.315  10.964
14074W        W78282   1.898  37.476  10.909
14075W        W78283   9.754   3.428   4.341
14076W        W78284  43.435  12.136   3.720
14077W        W78285  12.775  28.550  11.002
14078W        W78286  17.700  27.627   1.298
14079W        W78287  23.732   6.871   1.230
14080W        W78288  42.949  37.582   1.919
14081W        W78289   7.809  32.138   4.155
14082W        W78290  16.280   8.844   3.862
14083W        W78291  32.468  44.338   4.600
14084W        W78292   2.934  23.136   0.318
14085W        W78293  32.631  27.667  13.947
14086W        W78294  44.891  31.069  13.401
14087W        W78295  11.739  21.257   2.381
14088W        W78296  18.732  24.633   4.292
14089W        W78297  16.633   8.165  11.565
14090W        W78298  17.294  17.204   3.707
14091W        W78299  15.589  35.997   9.929
14092W        W78300  25.475  38.862   3.350
14093W        W78301  40.340  35.053  13.464
14094W        W78302  32.541  31.414   4.127
14095W        W78303  30.066  23.080  11.492
14096W        W78304  23.073   0.483  14.859
14097W        W78305  15.594  41.035   1.871
14098W        W78306   9.199   7.384   0.340
14099W        W78307   3.301  23.180   1.884
14100W        W78308  33.536   7.302  10.086
14101W        W78309  11.730  26.606  11.610
14102W        W78310  13.157  12.187   1.378
14103W        W78311  17.098   2.764   2.316
14104W        W78312  28.486  35.500   4.282
14105W        W78313   3.382  35.079  14.475
14106W        W78314  44.846  18.180  12.998
14107W        W78315  34.414  25.503   0.322
14108W        W78316  15.784   1.905  14.433
14109W        W78317   1.302  21.681  11.518
14110W        W78318   7.757   8.166  12.399
14111W        W78319  38.914  43.915  14.392
14112W        W78320  25.472  44.403   3.708
14113W        W78321  18.251   3.856  10.479
14114W        W78322  42.323  12.668   4.797
14115W        W78323   1.333   7.808  12.448
14116W        W78324  31.644  21.624  10.969
14117W        W78325  43.317  41.346   4.166
14118W        W78326  42.826  16.684   3.369
14119W        W78327  26.578  35.998  10.624
14120W        W78328  35.996  12.208  11.440
14121W        W78329  11.860  12.281   2.744
14122W        W78330  26.070  37.967  11.944
14123W        W78331  29.054  11.728   1.719
14124W        W78332  41.460  11.185  10.445
14125W        W78333   5.702  14.825   4.118
14126W        W78334   9.222   5.757   9.936
14127W        W78335  30.114  41.804  11.411
14128W        W78336  38.821   6.880   2.852
14129W        W78337  44.358  40.442   3.274
14130W        W78338  34.897  19.187   0.868
14131W        W78339  27.109  30.110  12.924
14132W        W78340  30.428  19.540  12.848
14133W        W78341   1.397  31.111   4.327
14134W        W78342  40.032   6.387  11.920
14135W        W78343  21.155  43.287   1.723
14136W        W78344  27.461  17.782  12.001
14137W        W78345  33.055  10.228   0.458
14138W        W78346  24.071   6.365  14.774
14139W        W78347  16.587  39.313  10.507
14140W        W78348   6.246  31.942   4.227
14141W        W78349   0.744  22.728   9.921
14142W        W78350   7.778  16.246  13.396
14143W        W78351  39.894  34.894  12.398
14144W        W78352  42.823   7.841  11.108
14145W        W78353  37.484  28.512  10.998
14146W        W78354  37.565  23.659   2.292
14147W        W78355  21.247  19.543  10.927
14148W        W78356  11.297  15.269   4.216
14149W        W78357  12.667  31.945   3.279
14150W        W78358  21.702   8.218   0.316
14151W        W78359  23.049  15.719   3.291
14152W        W78360  15.324  25.145  14.866
14153W        W78361   7.750  13.201  10.965
14154W        W78362  13.679  44.978   3.245
14155W        W78363  24.599  13.124   4.639
14156W        W78364  11.760  40.441  12.451
14157W        W78365  34.108   0.893   0.403
14158W        W78366  14.704   7.864  14.438
14159W        W78367  32.623  42.959  10.022
14160W        W78368  29.560   6.397   3.196
14161W        W78369  38.839  36.078  14.767
14162W        W78370  30.533  29.078  14.420
14163W        W78371  34.104  13.240   2.354
14164W        W78372  36.526  38.463   0.369
14165W        W78373  18.160   0.804  12.836
14166W        W78374   7.400   0.491   3.681
14167W        W78375   5.398  33.474   2.350
14168W        W78376  21.072  43.362  11.959
14169W        W78377  44.775  22.675   4.736
14170W        W78378  42.335   4.879   3.708
14171W        W78379  36.585  26.069   4.687
14172W        W78380   0.492  10.820   0.337
14173W        W78381  13.179   6.273  13.841
14174W        W78382  19.229  21.696   1.802
14175W        W78383  40.361   6.265  11.383
14176W        W78384  27.497  12.677  13.388
14177W        W78385   5.326  42.981   0.896
14178W        W78386  30.087   2.421  11.567
14179W        W78387   7.398  12.632  14.846
14180W        W78388  30.083  13.822   1.775
14181W        W78389  38.341  36.554   2.678
14182W        W78390  39.978  38.040   3.257
14183W        W78391  37.417  27.670  11.604
14184W        W78392  32.068  33.422  14.397
14185W        W78393  18.688  34.933  11.099
14186W        W78394   0.859  31.897   2.856
14187W        W78395  44.395  31.420  12.562
14188W        W78396  34.547  29.457  11.586
14189W        W78397   5.325  32.999   3.146
14190W        W78398   8.171   8.272   3.224
14191W        W78399  14.167  28.051  13.307
14192W        W78400  17.621  42.844  13.334
14193W        W78401   1.776  25.976  12.823
14194W        W78402  33.941  22.188   4.139
14195W        W78403   3.866  44.497  12.060
14196W        W78404  10.156   2.428   4.213
14197W        W78405  10.794  35.996  14.967
14198W        W78406  28.086  21.078  13.376
14199W        W78407  13.694  28.510   3.759
14200W        W78408  22.653   1.357   3.324
14201W        W78409  18.286  40.417   1.442
14202W        W78410  41.818   1.809   0.773
14203W        W78411  10.362  20.738  12.076
14204W        W78412  13.274   0.959   0.727
14205W        W78413  15.265  10.217   4.714
14206W        W78414  19.213  44.820   4.811
14207W        W78415  42.809  43.939   9.943
14208W        W78416  13.794  14.270  10.495
14209W        W78417  27.600  16.626   2.688
14210W        W78418  14.257  31.528   1.929
14211W        W78419  22.661  38.546  10.466
14212W        W78420  20.186  23.593   4.207
14213W        W78421   0.462  19.771  12.070
14214W        W78422  19.097  16.613  12.852
14215W        W78423   2.278  21.229   0.830
14216W        W78424  42.831  19.700   3.737
14217W        W78425  43.997  21.674   2.804
14218W        W78426  19.115  38.508   2.722
14219W        W78427   6.355  31.997  10.546
14220W        W78428  36.428  25.496   2.736
14221W        W78429  40.861  41.848   2.781
14222W        W78430   3.285  34.457  11.419
14223W        W78431   0.784  26.990  12.831
14224W        W78432  10.712  23.643  14.816
14225W        W78433   8.377   2.960   1.697
14226W        W78434  12.141  25.180  14.779
14227W        W78435  10.643   7.902  10.556
14228W        W78436  35.950  23.647  14.000
14229W        W78437  22.199   8.804   1.406
14230W        W78438   3.349  25.128  13.840
14231W        W78439  36.887  15.254  13.960
14232W        W78440  17.770  11.784  13.856
14233W        W78441  34.450  13.629   0.748
14234W        W78442  19.696  24.647   1.909
14235W        W78443   8.702  30.426   0.426
14236W        W78444  43.279  31.097   4.229
14237W        W78445  22.165  13.683  14.835
14238W        W78446  43.882   1.414   4.146
14239W        W78447  33.501  13.144   3.382
14240W        W78448   1.386  10.305  14.457
14241W        W78449   5.851  14.595   4.749
14242W        W78450  35.523  19.069  13.867
14243W        W78451  25.703   7.250  12.985
14244W        W78452  29.649  10.254   0.246
14245W        W78453  10.669  19.711   4.164
14246W        W78454  31.137  39.842  10.571
14247W        W78455  12.159  32.110  14.285
14248W        W78456  10.315  27.170   4.826
14249W        W78457  38.014  32.632   0.301
14250W        W78458  26.622   6.391  14.366
14251W        W78459  16.790  32.516   2.899
14252W        W78460  26.996  44.290   0.409
14253W        W78461   5.865  11.855   2.208
14254W        W78462  13.152   6.276  10.005
14255W        W78463  15.301  30.570   4.341
14256W        W78464  42.413   3.241   1.789
14257W        W78465  34.481  30.121   1.250
14258W        W78466   2.774  14.157   3.311
14259W        W78467  32.954   6.858   0.431
14260W        W78468  15.732   0.256  13.496
14261W        W78469  32.991  42.892   3.269
14262W        W78470  36.024  11.814   1.761
14263W        W78471  41.361  20.219  14.350
14264W        W78472  25.994  12.329   2.237
14265W        W78473   5.215   1.802   2.255
14266W        W78474  17.266  28.930   2.844
14267W        W78475   3.748  36.371   2.299
14268W        W78476  36.587  19.744  11.098
14269W        W78477  11.294  26.018   3.262
14270W        W78478  28.649  44.847  12.004
14271W        W78479  32.009  40.984   3.163
14272W        W78480  39.446   6.826   3.684
14273W        W78481  14.184  14.771  10.446
14274W        W78482  38.494  19.101  11.487
14275W        W78483  36.895  24.127   4.696
14276W        W78484  37.851  40.961  13.965
14277W        W78485  21.758  35.889   1.712
14278W        W78486  19.611  41.432   0.317
14279W        W78487  28.150  29.130  11.058
14280W        W78488   6.272  12.270  11.015
14281W        W78489  20.156   8.666  11.028
14282W        W78490  34.610  23.603  11.984
14283W        W78491  19.225  16.119   3.230
14284W        W78492  28.634  14.679  10.499
14285W        W78493   6.909   2.442  12.063
14286W        W78494  43.847  24.493   0.886
14287W        W78495  33.007  27.666  13.439
14288W        W78496  29.145   4.892  10.470
14289W        W78497  21.099  24.226   5.280
14290W        W78498  10.300  12.265   4.765
14291W        W78499  37.931  28.015   1.835
14292W        W78500  22.016  35.934   2.356
14293W        W78501  21.649  11.214  14.007
14294W        W78502  42.807   2.467  12.886
14295W        W78503  22.189  39.366  14.325
14296W        W78504   7.320   8.780  10.436
14297W        W78505  12.740  17.710   1.306
14298W        W78506   1.439  42.386  13.038
14299W        W78507   2.951   6.761   0.782
14300W        W78508   1.854  20.241  12.365
14301W        W78509  27.150   4.788  14.504
14302W        W78510  12.163  15.697   1.268
14303W        W78511   5.722  36.358   4.663
14304W        W78512  43.360  15.620   3.841
14305W        W78513   3.407   1.268  14.369
14306W        W78514  25.039  10.704   4.721
14307W        W78515  12.133  23.113  12.893
14308W        W78516   6.373   6.405   4.207
14309W        W78517  36.545   6.244  13.914
14310W        W78518  38.477   7.331  11.079
14311W        W78519  12.769  30.982   4.745
14312W        W78520  15.719   2.371   5.299
14313W        W78521  40.399  21.180   5.100
14314W        W78522  34.957   6.901  11.581
14315W        W78523   4.329  27.973   2.877
14316W        W78524  38.429  35.382  14.781
14317W        W78525  37.527  10.748   0.402
14318W        W78526  30.952  27.469  11.867
14319W        W78527  18.271  39.527  14.978
14320W        W78528  22.745  31.529  13.354
14321W        W78529  22.592  14.813   0.393
14322W        W78530   9.831   4.335   0.896
14323W        W78531   8.292  36.999  10.460
14324W        W78532  19.768  30.595  13.837
14325W        W78533  14.665  44.301  14.960
14326W        W78534  43.784  25.553  12.991
14327W        W78535  38.486  20.574   4.234
14328W        W78536  40.374  27.660   4.702
14329W        W78537  12.841  14.318  11.588
14330W        W78538  31.521  30.164  13.824
14331W        W78539  22.157  29.072   0.326
14332W        W78540  33.610   9.291  12.964
14333W        W78541  39.897  34.945  14.483
14334W        W78542   5.432  16.753   2.264
14335W        W78543  41.446  36.420  12.548
14336W        W78544  36.916  31.571   3.654
14337W        W78545  43.390  17.759  10.614
14338W        W78546  18.278  16.254  13.496
14339W        W78547  18.118   0.491  12.446
14340W        W78548  34.930  11.153   1.245
14341W        W78549  29.463  28.518   4.741
14342W        W78550   5.312  28.126   1.862
14343W        W78551  30.993   1.872   0.732
14344W        W78552  27.073   0.439   3.635
14345W        W78553  11.249   8.848  14.798
14346W        W78554   4.910  28.986   9.996
14347W        W78555  28.615  11.840   2.326
14348W        W78556  10.773  40.381   4.182
14349W        W78557  29.043  40.855  11.896
14350W        W78558  28.632  43.338  10.418
14351W        W78559  28.968   3.887   1.406
14352W        W78560  31.037  17.739  10.120
14353W        W78561  29.064  22.504  11.428
14354W        W78562  40.044   0.927  13.326
14355W        W78563  26.029  23.071   4.709
14356W        W78564   9.354  27.522  14.779
14357W        W78565  29.652  22.061   0.746
14358W        W78566  15.168   6.209   3.702
14359W        W78567  12.757  41.356  13.809
14360W        W78568  25.054  16.240  13.501
14361W        W78569  29.441  23.210   3.246
14362W        W78570  36.360   2.334  12.962
14363W        W78571   0.441   0.378  14.313
14364W        W78572  34.033   2.913  13.422
14365W        W78573  31.551  33.074  11.080
14366W        W78574   3.434   3.443   2.297
14367W        W78575  10.293   6.701   2.662
14368W        W78576  13.343   1.914  10.069
14369W        W78577  28.025  25.668  13.893
14370W        W78578  37.539  41.427   1.225
14371W        W78579   7.219  29.471   3.228
14372W        W78580  36.451  27.029  12.421
14373W        W78581  33.460  16.769  13.061
14374W        W78582  12.337  23.671   3.796
14375W        W78583   5.759  20.155   2.182
14376W        W78584   3.317  12.348   1.766
14377W        W78585  30.578  42.331   1.275
14378W        W78586   5.395  30.595  11.975
14379W        W78587  12.666  15.660  12.407
14380W        W78588  27.588  11.216  14.489
14381W        W78589  37.376  18.290   2.896
14382W        W78590  25.093   5.901   1.734
14383W        W78591  36.095   5.244  11.908
14384W        W78592  16.635   1.438  13.914
14385W        W78593  13.819  44.981   1.378
14386W        W78594  18.726  37.390   0.814
14387W        W78595  16.694  11.315   4.354
14388W        W78596  25.689  32.407   2.255
14389W        W78597  37.397  17.206   1.415
14390W        W78598  13.222  14.261  12.839
14391W        W78599  13.607  37.901   1.320
14392W        W78600   0.935  42.877  10.990
14393W        W78601   7.717  20.176   0.314
14394W        W78602  37.908  13.825   0.731
14395W        W78603  35.420  44.868  14.438
14396W        W78604  40.323  37.519  10.535
14397W        W78605   0.479  44.964   1.221
14398W        W78606  13.762  14.198  13.804
14399W        W78607  25.035  14.247   5.290
14400W        W78608  15.802  34.428  12.927
14401W        W78609  28.570  21.621   3.629
14402W        W78610  17.076  13.711   1.264
14403W        W78611   7.393  17.101   0.253
14404W        W78612   3.282  13.677  12.460
14405W        W78613  42.996  24.215   0.895
14406W        W78614  13.145   4.314  13.952
14407W        W78615  18.061  43.833   0.388
14408W        W78616  22.732  39.990   4.791
14409W        W78617  10.253  24.627   3.832
14410W        W78618  16.725  43.859   4.247
14411W        W78619  31.561  20.080   1.839
14412W        W78620  39.516   6.688   0.927
14413W        W78621  11.807  23.008  10.604
14414W        W78622   7.675  23.990   0.465
14415W        W78623   9.852   3.756  13.445
14416W        W78624  10.735   6.731  14.937
14417W        W78625   9.393  15.305   0.747
14418W        W78626   8.309  25.541   4.746
14419W        W78627   9.739  24.116  14.853
14420W        W78628  15.126  19.285  14.304
14421W        W78629   2.249   3.339   1.344
14422W        W78630  22.568  33.516   0.821
14423W        W78631  10.771   1.338  12.406
14424W        W78632  24.506   3.357   2.796
14425W        W78633  16.096  44.874   3.845
14426W        W78634  15.271   7.883  14.772
14427W        W78635  31.003   1.358   0.920
14428W        W78636  35.505  16.151   0.322
14429W        W78637  12.660   1.262   1.227
14430W        W78638  40.002  21.211  11.054
14431W        W78639  10.784  42.498  13.535
14432W        W78640  17.142  41.526  11.117
14433W        W78641  29.918   3.829   2.296
14434W        W78642  34.399  39.360  10.442
14435W        W78643   2.299  29.944  12.414
14436W        W78644   1.811  39.365   3.187
14437W        W78645  15.292  31.628  12.499
14438W        W78646  40.999  30.586  13.863
14439W        W78647  31.021  19.761  13.381
14440W        W78648  16.704  23.707   1.395
14441W        W78649  42.842  15.110   2.670
14442W        W78650  37.079  23.652   0.471
14443W        W78651  19.681  10.338   4.741
14444W        W78652  21.608   8.287   2.789
14445W        W78653  31.509  40.484   1.321
14446W        W78654  24.992  21.598   3.642
14447W        W78655  29.444  40.495   4.133
14448W        W78656   0.321  42.340   0.319
14449W        W78657  37.383  39.425   2.756
14450W        W78658  15.120  37.464  11.055
14451W        W78659  39.912   8.319  12.865
14452W        W78660  16.712  10.788  13.452
14453W        W78661  21.084  17.076  14.354
14454W        W78662  26.523  30.933   3.840
14455W        W78663  37.984  43.977  13.050
14456W        W78664  38.825  44.772   4.272
14457W        W78665  17.206  17.705  14.946
14458W        W78666   2.428  19.618  13.891
14459W        W78667  27.950  33.618   3.327
14460W        W78668  30.471  35.952  12.989
14461W        W78669   4.217  43.477   3.647
14462W        W78670  24.680   3.879   1.760
14463W        W78671  14.785  24.591   4.275
14464W        W78672   7.733  26.652   4.832
14465W        W78673  30.126   7.897   3.850
14466W        W78674  31.141  19.243   1.879
14467W        W78675   9.786  13.277  14.853
14468W        W78676  41.418  39.462   3.749
14469W        W78677  15.594  17.185  14.997
14470W        W78678  19.213  36.997  13.965
14471W        W78679   0.311  13.726   4.269
14472W        W78680  19.095   8.679   3.641
14473W        W78681  43.382  35.417  13.372
14474W        W78682  32.993  19.275   2.188
14475W        W78683  18.080  11.159  13.389
14476W        W78684  21.119  25.100  11.488
14477W        W78685  24.085  19.141  13.357
14478W        W78686  10.666  33.595  12.039
14479W        W78687  10.383  15.191   1.934
14480W        W78688  21.203   3.312  13.050
14481W        W78689  26.129  37.066   1.736
14482W        W78690  27.156  41.989   3.846
14483W        W78691  26.165  21.540   4.283
14484W        W78692  14.131  21.684  10.446
14485W        W78693  26.526  32.568   4.281
14486W        W78694   4.744   2.406  14.440
14487W        W78695  18.093  39.986   4.326
14488W        W78696  27.970  30.013   0.892
14489W        W78697  11.172  36.868   0.281
14490W        W78698  40.322  33.523  12.471
14491W        W78699  25.084   6.920   2.843
14492W        W78700   8.260  10.710  13.878
14493W        W78701  39.054  36.933  12.830
14494W        W78702  43.852  42.800   2.189
14495W        W78703  12.853  20.708   0.318
14496W        W78704  28.169   3.394  13.868
14497W        W78705  32.984  11.340   4.604
14498W        W78706   0.406  30.145  13.342
14499W        W78707   1.901  14.336   1.814
14500W        W78708   1.885  37.448   4.627
14501W        W78709  38.325  10.747   3.253
14502W        W78710  25.965  32.402   1.390
14503W        W78711  36.360  10.381  12.061
14504W        W78712  18.225  12.183  12.367
14505W        W78713   9.300  28.015  12.361
14506W        W78714   6.322  13.325  12.088
14507W        W78715  35.515   2.843  10.518
14508W        W78716   1.379   0.749   2.803
14509W        W78717  25.028  42.815  12.068
14510W        W78718  12.226  22.689  14.940
14511W        W78719  16.137  43.328   3.651
14512W        W78720  43.385  16.124   2.344
14513W        W78721  36.351  20.765   2.718
14514W        W78722   8.881  37.472  10.924
14515W        W78723  22.048  17.226   4.336
14516W        W78724   6.328   4.249   3.638
14517W        W78725   5.306  26.593  13.450
14518W        W78726   3.712   0.844  10.997
14519W        W78727   4.389   2.875  11.040
14520W        W78728   5.907   2.436   4.325
14521W        W78729  26.528   2.367  14.343
14522W        W78730  13.605  41.838   3.696
14523W        W78731  24.608  34.426  14.013
14524W        W78732  12.617  15.116  11.028
14525W        W78733   7.881  24.586   2.760
14526W        W78734   8.884  21.673   3.747
14527W        W78735   2.267   0.412   2.200
14528W        W78736  23.174  14.144  13.864
14529W        W78737  34.972  15.139  14.409
14530W        W78738  33.986   9.828   0.244
14531W        W78739  28.529   4.421  10.477
14532W        W78740  39.486  36.881   3.374
14533W        W78741  21.213  12.179   4.684
14534W        W78742  19.673  36.972  14.938
14535W        W78743  41.349  35.596  12.413
14536W        W78744  44.770  11.728   4.306
14537W        W78745   4.757   4.719  10.129
14538W        W78746  26.499  10.188  10.641
14539W        W78747  22.632  34.008  10.121
14540W        W78748  26.012  36.371   0.790
14541W        W78749  30.590  38.852  12.062
14542W        W78750  33.400  10.230   3.383
14543W        W78751  38.909  10.221  14.782
14544W        W78752  15.641  24.703   4.350
14545W        W78753  29.547   0.339  12.554
14546W        W78754  33.019  39.352   0.960
14547W        W78755  21.572   7.323   4.223
14548W        W78756   3.316  14.264  10.528
14549W        W78757  10.254  22.572  14.325
14550W        W78758  34.398  28.533  13.006
14551W        W78759  21.659  37.015  10.952
14552W        W78760  23.666  27.159   1.883
14553W        W78761   0.327  21.236   4.792
14554W        W78762  36.920   7.212  12.005
14555W        W78763  19.636  24.566  12.990
14556W        W78764  26.115  42.956  14.334
14557W        W78765  18.667   0.884  11.906
14558W        W78766  29.167  23.543   2.716
14559W        W78767  16.157  20.713  12.347
14560W        W78768  20.585  35.386  14.880
14561W        W78769   3.267  33.972   2.350
14562W        W78770  27.485  13.815   4.352
14563W        W78771  43.908   1.330  13.991
14564W        W78772  31.970  24.223   1.251
14565W        W78773  21.063  19.274  11.546
14566W        W78774  15.787  37.551   2.369
14567W        W78775  32.431  15.658   2.838
14568W        W78776  35.061  33.411  11.457
14569W        W78777  18.575  12.757   2.338
14570W        W78778   4.331   1.765   1.788
14571W        W78779  19.195   5.711  13.388
14572W        W78780  19.553  25.098   1.726
14573W        W78781  36.984  11.668   2.207
14574W        W78782  39.459  35.365  13.030
14575W        W78783  29.607  31.610  14.817
14576W        W78784  41.936  35.401   2.179
14577W        W78785  18.698  25.171  12.937
14578W        W78786  25.188   6.881   0.733
14579W        W78787  13.241  28.978  13.852
14580W        W78788  41.813  41.399   0.848
14581W        W78789   8.764  27.025   3.667
14582W        W78790  40.384  21.235  10.628
14583W        W78791  14.156   9.198  10.485
14584W        W78792  25.127  34.078   4.689
14585W        W78793  28.994   7.185   1.429
14586W        W78794  26.112  31.614   2.283
14587W        W78795  42.842  38.060   1.329
14588W        W78796  30.559   9.329  12.032
14589W        W78797  34.115  38.956   1.273
14590W        W78798  19.283  39.430   3.303
14591W        W78799  12.160  19.560  13.537
14592W        W78800  32.111  18.708   1.813
14593W        W78801   8.739  10.731   1.241
14594W        W78802   6.722  28.068   4.710
14595W        W78803  32.420  20.678   4.696
14596W        W78804   7.852   1.755   1.833
14597W        W78805  11.835  15.580  12.418
14598W        W78806  11.838   7.853   1.362
14599W        W78807  11.214  12.686   0.759
14600W        W78808  17.672   3.329  14.867
14601W        W78809  36.979  37.367  11.979
14602W        W78810  21.233  26.999   2.728
14603W        W78811   5.378  36.455   1.285
14604W        W78812  35.876  19.778   2.765
14605W        W78813   4.879  33.044  12.903
14606W        W78814   7.203   6.300  13.452
14607W        W78815  31.575   1.457  12.012
14608W        W78816   0.897  37.523   1.758
14609W        W78817   7.736   6.735   1.889
14610W        W78818   6.323  33.533  10.478
14611W        W78819  22.170   3.319   0.834
14612W        W78820  31.478  17.588  11.538
14613W        W78821  11.290   7.864   0.247
14614W        W78822  10.366   1.878   2.713
14615W        W78823  14.212  34.507  10.478
14616W        W78824  29.582  29.626  11.939
14617W        W78825  44.319  40.343   4.287
14618W        W78826  30.114  36.011   0.837
14619W        W78827  34.601  20.166  10.525
14620W        W78828  23.637   9.798  14.907
14621W        W78829  12.808  40.317  14.476
14622W        W78830   1.774  20.178   0.480
14623W        W78831   0.413   1.335  11.404
14624W        W78832  30.057  39.059  13.020
14625W        W78833  28.438  30.619   0.965
14626W        W78834  33.102  29.657   1.810
14627W        W78835  14.155  37.981   1.696
14628W        W78836  10.353  32.087   5.236
14629W        W78837  44.820  24.573   0.841
14630W        W78838  31.442  13.791  10.617
14631W        W78839  35.076  10.701  14.816
14632W        W78840  40.021  24.504  10.505
14633W        W78841  12.738  32.606  12.548
14634W        W78842  36.396  17.587  12.571
14635W        W78843  38.895  35.567   2.401
14636W        W78844  27.091  24.108  12.427
14637W        W78845   2.397  31.964   4.640
14638W        W78846  34.867  43.979  13.850
14639W        W78847  10.854  18.569  14.810
14640W        W78848  18.245   9.222   2.892
14641W        W78849  35.084  12.748   1.788
14642W        W78850  29.475   6.780   0.836
14643W        W78851  44.782   4.777   0.451
14644W        W78852  43.870  31.458  13.913
14645W        W78853  35.931   5.716  14.816
14646W        W78854  20.087   3.303  13.847
14647W        W78855   1.871  43.778   3.356
14648W        W78856  29.072  23.991   0.824
14649W        W78857  24.627   9.311   4.113
14650W        W78858  18.106  15.605  11.472
14651W        W78859  23.681   5.234  14.390
14652W        W78860   3.299  34.114  10.483
14653W        W78861  17.306   7.177   4.606
14654W        W78862  17.183   9.751   0.379
14655W        W78863   6.829  39.935   2.407
14656W        W78864  15.250  40.934  11.538
14657W        W78865  41.525  27.655   3.830
14658W        W78866  30.103  41.534  11.018
14659W        W78867  24.481  38.832   0.413
14660W        W78868   6.754  36.432  14.874
14661W        W78869  25.487  10.208  14.019
14662W        W78870  34.391  22.139   4.304
14663W        W78871   5.772  41.478   4.785
14664W        W78872  15.293  43.960   0.778
14665W        W78873  26.576  34.089  11.583
14666W        W78874  15.165  15.129  10.973
14667W        W78875  36.421  31.497  13.909
14668W        W78876   6.367   5.933   0.814
14669W        W78877  37.023  21.667  14.853
14670W        W78878  28.574  24.010  12.873
14671W        W78879  10.850   4.206  12.963
14672W        W78880  40.400  13.819  14.776
14673W        W78881  39.812  36.897   4.739
14674W        W78882  38.978   2.289   2.678
14675W        W78883  42.413  28.546  14.442
14676W        W78884  15.651  33.542   2.730
14677W        W78885  15.582   9.719  13.017
14678W        W78886   5.861  14.618  14.952
14679W        W78887  15.229  22.121  10.989
14680W        W78888  34.011  12.653  12.470
14681W        W78889  12.130  10.147  10.095
14682W        W78890   4.250  17.106  13.819
14683W        W78891  26.688  26.122  11.585
14684W        W78892  30.118   5.209   4.811
14685W        W78893   1.272  29.040   5.132
14686W        W78894  16.566  12.245   3.340
14687W        W78895  20.624  43.457  10.616
14688W        W78896   6.272  32.415  10.053
14689W        W78897  31.466  26.465  12.986
14690W        W78898   4.270   3.714  10.940
14691W        W78899  40.825  28.933  13.866
14692W        W78900  16.131  21.538  12.411
14693W        W78901  25.145  33.501   4.326
14694W        W78902  21.171   9.366  14.496
14695W        W78903   5.307  44.274  13.518
14696W        W78904   2.831  10.201  14.840
14697W        W78905  19.148  37.055   1.904
14698W        W78906  34.512  30.423   2.249
14699W        W78907  43.921  12.735  12.843
14700W        W78908  28.069  35.585   0.788
14701W        W78909  21.733  37.337  11.990
14702W        W78910  22.719  20.526   0.831
14703W        W78911   1.956  26.657  12.545
14704W        W78912  22.617  21.124   4.149
14705W        W78913  42.500  41.451   1.255
14706W        W78914  16.078  12.326  12.429
14707W        W78915  29.433   6.905  11.881
14708W        W78916  42.830  18.621  14.814
14709W        W78917   2.260  11.360  10.448
14710W        W78918  26.014  43.779   3.348
14711W        W78919  14.289   6.407  10.500
14712W        W78920  21.152  30.571  11.459
14713W        W78921  40.866  19.655   1.294
14714W        W78922  39.036   5.246   3.319
14715W        W78923  14.642  22.513   1.451
14716W        W78924  38.989  19.720  13.883
14717W        W78925  12.613  11.312  12.998
14718W        W78926  36.537  20.678   1.449
14719W        W78927   5.773  36.003  14.855
14720W        W78928  32.122   4.936   3.856
14721W        W78929  29.568   8.802   1.226
14722W        W78930   0.905  24.689  11.450
14723W        W78931  14.109  37.398  14.998
14724W        W78932   3.934  20.718   3.866
14725W        W78933  41.395  35.454  14.410
14726W        W78934   1.464  34.915  14.844
14727W        W78935  14.303  14.213  14.280
14728W        W78936  11.362  24.100   1.307
14729W        W78937  35.464  27.049   2.697
14730W        W78938  40.386  30.939   0.736
14731W        W78939  43.992  14.750  11.989
14732W        W78940  37.369  42.810  14.927
14733W        W78941  38.853   7.320   1.347
14734W        W78942  39.022  25.180   0.777
14735W        W78943  34.598  25.507   4.786
14736W        W78944  38.907  25.592   3.219
14737W        W78945  29.474   2.940   1.216
14738W        W78946  21.108  27.977   1.730
14739W        W78947  30.557  29.170  11.377
14740W        W78948  31.902  25.128   2.884
14741W        W78949   4.734   9.696   4.693
14742W        W78950  18.668   4.765   0.394
14743W        W78951   6.767  21.074  13.391
14744W        W78952  43.448  38.934  14.484
14745W        W78953   0.878  40.970  11.032
14746W        W78954  33.116  28.059   2.202
14747W        W78955  36.482   8.656   0.438
14748W        W78956   5.331  26.485  10.471
14749W        W78957  18.213  39.966   2.661
14750W        W78958  11.700  28.938   2.801
14751W        W78959   7.751  20.702  12.428
14752W        W78960  14.608  13.126  10.431
14753W        W78961  42.518  16.122   3.270
14754W        W78962  16.691  19.772   0.424
14755W        W78963  36.438  28.071  13.838
14756W        W78964   2.729  10.778  14.332
14757W        W78965  27.530   0.861  11.858
14758W        W78966  42.784   7.349  13.362
14759W        W78967  16.727  26.579   0.942
14760W        W78968  10.382   7.765  14.838
14761W        W78969  30.448  24.706  10.566
14762W        W78970  42.358  44.406   2.273
14763W        W78971  19.176  39.470  12.923
14764W        W78972  31.499  34.540   1.307
14765W        W78973   6.324  24.713  11.945
14766W        W78974  40.477  40.892   0.773
14767W        W78975  37.015   0.985  12.357
14768W        W78976  13.710   1.956  11.552
14769W        W78977   9.797  37.533   2.808
14770W        W78978  25.120  22.519  11.451
14771W        W78979  25.133  31.571   0.854
14772W        W78980  25.508   2.952  14.790
14773W        W78981  23.077  42.861   3.655
14774W        W78982  25.049  30.044   2.678
14775W        W78983   1.381  33.049   4.598
14776W        W78984  34.057  33.017  13.337
14777W        W78985   0.288  39.980  11.404
14778W        W78986  41.484  21.207  11.028
14779W        W78987  29.002  44.433   4.712
14780W        W78988  11.331   2.827  14.442
14781W        W78989  16.587  26.614  12.984
14782W        W78990  14.240  18.200  11.863
14783W        W78991  27.599  12.314  13.509
14784W        W78992  24.492  16.754  12.981
14785W        W78993  39.465   0.777  12.053
14786W        W78994  13.743  32.937  11.551
14787W        W78995  26.555  29.088   2.841
14788W        W78996  34.066  28.676   1.743
14789W        W78997   1.375  15.137  11.027
14790W        W78998  28.453  27.535   4.668
14791W        W78999  19.737  12.358  13.838
14792W        W79000  20.551  23.095  14.863
14793W        W79001  13.140  40.446  14.478
14794W        W79002  20.528  26.475  11.600
14795W        W79003  29.001  36.084  13.532
14796W        W79004   6.203  33.881   4.309
14797W        W79005   4.275  12.783  14.509
14798W        W79006  42.390   7.329   1.212
14799W        W79007   4.736  37.867   2.279
14800W        W79008  14.321   8.689   4.115
14801W        W79009   8.733  40.423   5.148
14802W        W79010   4.861   1.949  14.917
14803W        W79011  43.467  40.837   2.745
14804W        W79012  38.917  25.642  12.923
14805W        W79013  33.409  43.308  13.441
14806W        W79014  23.033  29.546  13.498
14807W        W79015   6.323   0.753   1.296
14808W        W79016  24.714  19.767   3.645
14809W        W79017  36.977   1.242   4.803
14810W        W79018   5.818   9.260   2.197
14811W        W79019   7.836  31.982   1.224
14812W        W79020   5.231  21.129   0.247
14813W        W79021  44.798  23.186  14.012
14814W        W79022   0.300  31.418   3.633
14815W        W79023   6.314  16.307  12.885
14816W        W79024  18.623  28.085   4.142
14817W        W79025  21.540  13.752   3.175
14818W        W79026   8.317  36.920  11.493
14819W        W79027  33.437  11.234  12.829
14820W        W79028  44.009  39.448  14.883
14821W        W79029  15.114  24.503   2.179
14822W        W79030   6.399  28.108   3.352
14823W        W79031  27.461  23.661  14.762
14824W        W79032  31.506   5.823  13.034
14825W        W79033   9.732  32.061  11.582
14826W        W79034  15.257  32.635  12.901
14827W        W79035   5.299  28.935  10.934
14828W        W79036  12.121  14.794  10.083
14829W        W79037  39.965  26.150  10.490
14830W        W79038  44.888  35.465  10.946
14831W        W79039  29.038   8.243  13.854
14832W        W79040  34.899  42.879  12.524
14833W        W79041  36.895  42.879  13.966
14834W        W79042  16.246  36.510  14.382
14835W        W79043  37.954  33.007   1.762
14836W        W79044  28.436  22.142  13.353
14837W        W79045  24.220   7.775   2.305
14838W        W79046  18.277  17.700  11.033
14839W        W79047  31.502  32.894  14.910
14840W        W79048  34.909  30.958  11.414
14841W        W79049  14.683  23.034   2.813
14842W        W79050  19.574  30.042  13.521
14843W        W79051  31.132  33.066  13.795
14844W        W79052  35.582  16.312   1.763
14845W        W79053  34.462  20.629   1.815
14846W        W79054   6.188  12.835  11.085
14847W        W79055  38.919   3.223  12.416
14848W        W79056  25.481  36.040   5.256
14849W        W79057  29.963  39.951   4.189
14850W        W79058   9.289   3.392   2.883
14851W        W79059  20.191   1.785   4.171
14852W        W79060  15.198  25.139   4.832
14853W        W79061   7.235   5.813   0.285
14854W        W79062  35.026  43.931   1.425
14855W        W79063  42.921  43.878   2.902
14856W        W79064  33.971  32.585   1.861
14857W        W79065  28.448  24.061   2.825
14858W        W79066  10.303  29.468   0.824
14859W        W79067  21.091  25.509  14.410
14860W        W79068  40.036  37.509  11.023
14861W        W79069  21.208   5.835   1.803
14862W        W79070  16.600  29.566  11.103
14863W        W79071  34.575   1.388   2.842
14864W        W79072  21.142  35.075   1.803
14865W        W79073  28.087   2.953  10.896
14866W        W79074  31.027  41.372   1.853
14867W        W79075  34.974  17.252   3.823
14868W        W79076  12.667   9.866   0.424
14869W        W79077  16.306  41.797   4.813
14870W        W79078   7.904  41.029   2.261
14871W        W79079  36.093  24.126   4.712
14872W        W79080  23.713  27.016   2.301
14873W        W79081  40.321   5.292   4.792
14874W        W79082  15.744  30.060   3.373
14875W        W79083  15.153  17.740  13.869
14876W        W79084   3.395  18.081  12.868
14877W        W79085  37.488  33.968  13.868
14878W        W79086  28.046  16.752  14.832
14879W        W79087  37.421  30.050   2.380
14880W        W79088  18.744  24.491  12.842
14881W        W79089   3.761  18.785  13.047
14882W        W79090  35.079  20.757   2.357
14883W        W79091  22.223  20.177  11.458
14884W        W79092   5.196  41.291  13.445
14885W        W79093  37.576  28.544   4.178
14886W        W79094  44.299  25.143   0.462
14887W        W79095   9.280  37.961  13.435
14888W        W79096  22.612  17.600  14.504
14889W        W79097  19.719  30.546   4.113
14890W        W79098  38.819  39.320  13.467
14891W        W79099  26.457   3.220   2.383
14892W        W79100  10.172  43.965  13.415
14893W        W79101   3.314  41.354   0.794
14894W        W79102   4.835  18.628  14.506
14895W        W79103   9.808  28.438   0.761
14896W        W79104  43.918  44.480   0.904
14897W        W79105  43.808   6.766   2.224
14898W        W79106  27.957   0.305  10.562
14899W        W79107  43.978   5.693  13.896
14900W        W79108  43.425  35.455  14.279
14901W        W79109   6.183  25.595   2.748
14902W        W79110  34.606  44.773  12.491
14903W        W79111  44.856  10.853   3.280
14904W        W79112   9.334  21.172  12.895
14905W        W79113   6.797   4.916  14.407
14906W        W79114   9.188   5.404  11.000
14907W        W79115   4.775  36.034   2.673
14908W        W79116  10.810  33.614  10.472
14909W        W79117  20.178  34.904  10.596
14910W        W79118  31.621  37.366  10.919
14911W        W79119  10.201  22.514  13.842
14912W        W79120   4.710   6.202   3.146
14913W        W79121  17.112  43.302  13.937
14914W        W79122  31.140  16.145   3.147
14915W        W79123  29.618  12.812   5.111
14916W        W79124   9.772  28.540  14.957
14917W        W79125   9.806   2.747   4.129
14918W        W79126  17.786  17.198  11.933
14919W        W79127  14.783  35.964  14.405
14920W        W79128   2.809   9.219   0.772
14921W        W79129  37.512  41.350  11.109
14922W        W79130   7.781  25.204   0.267
14923W        W79131  21.226  36.005  10.501
14924W        W79132  17.564  10.817   4.754
14925W        W79133  33.996  12.656   3.267
14926W        W79134  10.732   6.332   2.844
14927W        W79135   4.780  11.701  11.469
14928W        W79136  32.500  18.143  13.001
14929W        W79137  19.190  35.592   3.341
14930W        W79138  43.491  13.840  11.972
14931W        W79139  36.035  32.886   4.155
14932W        W79140   5.712  18.573   3.677
14933W        W79141   4.793  31.051  13.052
14934W        W79142  25.202  19.723   3.639
14935W        W79143  44.828   2.350  11.380
14936W        W79144  44.491  27.095  12.465
14937W        W79145  24.647  40.048  12.919
14938W        W79146   2.852  33.483   5.241
14939W        W79147  31.522   1.784  13.542
14940W        W79148  12.225  32.061   4.609
14941W        W79149  34.953  32.962   0.392
14942W        W79150  25.963  11.230   3.374
14943W        W79151  38.536   0.923   2.309
14944W        W79152   3.840  23.026   2.851
14945W        W79153  15.093   7.789  10.968
14946W        W79154  42.297  30.460   3.213
14947W        W79155  35.095  33.993  13.502
14948W        W79156   4.922  35.039   5.198
14949W        W79157  18.191   5.803   4.657
14950W        W79158  36.510   7.214  13.969
14951W        W79159  11.233  43.874  11.039
14952W        W79160  24.664  28.561   2.290
14953W        W79161  40.913  21.152   3.659
14954W        W79162  40.506  40.510   1.269
14955W        W79163  12.143  17.214   4.758
14956W        W79164  42.875   7.390  11.011
14957W        W79165  17.657  33.589   4.161
14958W        W79166  20.600  27.536  12.412
14959W        W79167  20.043  41.372   3.729
14960W        W79168  36.018  30.138   2.677
14961W        W79169  16.616  38.855  13.360
14962W        W79170   9.295  38.985  12.506
14963W        W79171  23.712  36.556   2.296
14964W        W79172   7.757   6.830   2.891
14965W        W79173   0.299  12.613  14.338
14966W        W79174  41.361  13.214   1.769
14967W        W79175  15.665  16.750  11.476
14968W        W79176   8.161  12.245   1.902
14969W        W79177  33.390   9.315   3.182
14970W        W79178  31.515  13.163  13.521
14971W        W79179   0.921  34.516   9.550
14972W        W79180  35.036   7.762   2.373
14973W        W79181   8.835   2.260  12.848
14974W        W79182  41.326  24.503  10.898
14975W        W79183  35.591  37.501   1.414
14976W        W79184  42.815  21.544   4.684
14977W        W79185  12.657  37.529   2.321
14978W        W79186  38.539   1.819   1.378
14979W        W79187  11.150   2.857   3.348
14980W        W79188  20.238  10.677   3.669
14981W        W79189   9.680  10.703  14.938
14982W        W79190  40.876  29.662  11.930
14983W        W79191  32.981  36.409  14.502
14984W        W79192  26.038  26.628   3.853
14985W        W79193  44.807  17.198   4.777
14986W        W79194  44.351   7.868   2.671
14987W        W79195  12.694  39.545  12.915
14988W        W79196  25.501  32.059  13.803
14989W        W79197   6.320   5.920  14.874
14990W        W79198  37.501   6.816   1.698
14991W        W79199  34.535  27.182   0.411
14992W        W79200  22.648   1.938   2.794
14993W        W79201   6.760  44.926   0.254
14994W        W79202  41.854  34.959  14.438
14995W        W79203  17.186  17.672  13.928
14996W        W79204  11.627   9.763  12.580
14997W        W79205  33.529   1.409   4.261
14998W        W79206   6.273  36.535  11.571
14999W        W79207  11.867  24.081   3.263
15000W        W79208  20.233  11.213   1.447
15001W        W79209  44.478  22.157   1.927
15002W        W79210  42.296  35.974   1.785
15003W        W79211  35.014  44.276   2.714
15004W        W79212  44.900  39.384   4.295
15005W        W79213   4.352   5.399   3.857
15006W        W79214  15.197  39.532   0.872
15007W        W79215   0.413   4.263   1.759
15008W        W79216  26.956  23.202   4.298
15009W        W79217   9.387  20.065  11.047
15010W        W79218  10.196  36.571  11.569
15011W        W79219  28.126  18.159  11.101
15012W        W79220  24.219  42.873  10.039
15013W        W79221  44.289  31.483   4.801
15014W        W79222  11.673   5.916  13.331
15015W        W79223   8.185   1.750  12.906
15016W        W79224  29.626  34.984   4.694
15017W        W79225   8.790  36.857  11.420
15018W        W79226  41.358  43.938  11.434
15019W        W79227  28.030   3.879   1.410
15020W        W79228  38.477  16.203  12.482
15021W        W79229  10.709  13.151  14.019
15022W        W79230  38.504   9.840   3.650
15023W        W79231  26.530  30.043  11.526
15024W        W79232  20.096  11.314   3.858
15025W        W79233  13.209  41.497  13.887
15026W        W79234  14.248  40.871   4.731
15027W        W79235  20.580  22.156   4.612
15028W        W79236  29.071  12.754   2.233
15029W        W79237  42.778  27.546   3.702
15030W        W79238   0.763   3.425   0.882
15031W        W79239  24.052  21.054   2.307
15032W        W79240   6.689  27.136  10.562
15033W        W79241  10.151  18.171  10.567
15034W        W79242  44.955  30.027   2.834
15035W        W79243  23.563  36.407   2.875
15036W        W79244  36.543  27.049   1.293
15037W        W79245   8.182  21.538  12.019
15038W        W79246  42.473  36.388  12.351
15039W        W79247  11.659  34.914  14.761
15040W        W79248  12.173  41.346  12.891
15041W        W79249  37.955   0.289  11.464
15042W        W79250  20.676   4.744  14.002
15043W        W79251   4.870  42.499  13.399
15044W        W79252  30.420  39.537  11.460
15045W        W79253  35.482  11.863  13.842
15046W        W79254  36.370  11.215  14.488
15047W        W79255  28.619   1.381   4.621
15048W        W79256  18.217  37.987   2.320
15049W        W79257  17.188   3.731   4.210
15050W        W79258  33.060   1.731   1.307
15051W        W79259  16.245  32.594  10.926
15052W        W79260  42.484  35.396  11.880
15053W        W79261  22.647  32.982   3.305
15054W        W79262  29.517  12.177  13.427
15055W        W79263  39.368  38.561   2.692
15056W        W79264  24.665  36.470  11.039
15057W        W79265  40.883  25.501   0.787
15058W        W79266  34.030   4.860   0.459
15059W        W79267  35.517  43.903   4.295
15060W        W79268  26.694  22.737  11.560
15061W        W79269   7.196  40.807   0.922
15062W        W79270  12.169  40.531   3.221
15063W        W79271  43.889   7.405   4.734
15064W        W79272   4.289   7.837   4.237
15065W        W79273  29.634   5.932  13.545
15066W        W79274  21.718  10.266  10.106
15067W        W79275  22.236  15.219  13.394
15068W        W79276  12.297   4.715   4.220
15069W        W79277   0.942  33.884  11.874
15070W        W79278  32.522  39.996   3.868
15071W        W79279   1.748  12.688  13.381
15072W        W79280  28.624   8.675   0.906
15073W        W79281  29.937  33.482   2.192
15074W        W79282  33.427  34.460   0.834
15075W        W79283  37.565   0.751  13.044
15076W        W79284   4.258  28.995   2.224
15077W        W79285   0.287   0.894  12.492
15078W        W79286  37.561  16.754  12.528
15079W        W79287  26.543  10.344   1.719
15080W        W79288  19.743   4.830   3.262
15081W        W79289   9.206   8.806  11.529
15082W        W79290  15.213  23.085  10.554
15083W        W79291   7.363  25.572  11.050
15084W        W79292  21.129  41.513  12.883
15085W        W79293  43.839  36.942  10.906
15086W        W79294   3.386  28.050  10.425
15087W        W79295  42.363  33.481   3.773
15088W        W79296  36.083  43.280  14.458
15089W        W79297   0.332  21.091  12.401
15090W        W79298  30.524  28.095  13.887
15091W        W79299  30.060  18.778   3.770
15092W        W79300   4.408  29.489   4.206
15093W        W79301  20.532   0.931   1.757
15094W        W79302  28.999   0.802   0.849
15095W        W79303  40.868  38.411  14.468
15096W        W79304  37.037  37.996  14.824
15097W        W79305  22.205  20.243  10.606
15098W        W79306  17.159   4.275  11.478
15099W        W79307  19.731  27.041  11.100
15100W        W79308  24.552  17.182   1.358
15101W        W79309   5.280  24.040   2.409
15102W        W79310  23.097  30.999  11.895
15103W        W79311  22.185   4.361  13.059
15104W        W79312  16.747   8.179   3.322
15105W        W79313  41.482   4.782  13.981
15106W        W79314  18.579  34.612  14.018
15107W        W79315  19.664  17.700  12.473
15108W        W79316  33.620  18.293   1.865
15109W        W79317  28.064  44.923   2.368
15110W        W79318   0.392  31.452   2.666
15111W        W79319  27.008  19.264   4.242
15112W        W79320  16.776  41.005   0.727
15113W        W79321   4.774  21.053   0.800
15114W        W79322  24.215  35.453  12.018
15115W        W79323  30.534  39.524   0.866
15116W        W79324  44.456  42.471   9.972
15117W        W79325  33.951  13.721   0.316
15118W        W79326   0.411  43.978   3.249
15119W        W79327  31.552   6.812  14.380
15120W        W79328  10.818  10.650   9.964
15121W        W79329  12.625  15.088   1.376
15122W        W79330  10.804  17.639   0.395
15123W        W79331  25.674  13.290   4.704
15124W        W79332  13.126  22.657   4.762
15125W        W79333  34.097  18.683   2.851
15126W        W79334  16.106  34.459  13.057
15127W        W79335   6.314  33.607   3.726
15128W        W79336  35.021  24.072  13.336
15129W        W79337  21.068  17.646  13.977
15130W        W79338   3.767  36.515  10.139
15131W        W79339  24.130   3.867  10.490
15132W        W79340  25.020   0.852   3.795
15133W        W79341  38.957   5.847   2.344
15134W        W79342  31.477  32.902  13.307
15135W        W79343  35.002  38.565   3.734
15136W        W79344  37.435  35.876   1.265
15137W        W79345  40.026   5.741   1.346
15138W        W79346   4.809   7.866  13.824
15139W        W79347  36.894  26.507  11.512
15140W        W79348  21.749  43.879  13.878
15141W        W79349  26.521  15.134   3.311
15142W        W79350   2.748   3.435  11.530
15143W        W79351  23.715  21.547   0.287
15144W        W79352  26.499  18.660  11.482
15145W        W79353  16.318  26.616  12.053
15146W        W79354  12.709   7.383   3.767
15147W        W79355  11.807  37.997   3.709
15148W        W79356   0.486  22.227  10.628
15149W        W79357  27.671  23.657  13.008
15150W        W79358  20.766  16.133  12.060
15151W        W79359  44.874   0.982  10.445
15152W        W79360  37.037  21.714  11.009
15153W        W79361  35.461   9.685  10.624
15154W        W79362  13.301  42.382  13.976
15155W        W79363  43.816  26.144   2.765
15156W        W79364  14.267  39.950   1.758
15157W        W79365  14.804  31.951  14.813
15158W        W79366  41.325  16.284   4.202
15159W        W79367  11.633  32.452   2.826
15160W        W79368  25.058  23.537  11.487
15161W        W79369  16.735  15.324   4.341
15162W        W79370  23.074  41.838   0.895
15163W        W79371  22.612  27.611   3.181
15164W        W79372   9.846   2.818   3.821
15165W        W79373   2.760   4.871  11.942
15166W        W79374  38.845  35.484  11.454
15167W        W79375  36.876  11.742  10.434
15168W        W79376  27.990  38.428   4.291
15169W        W79377  17.202  31.138   2.796
15170W        W79378  18.240   5.855  11.600
15171W        W79379  23.685  14.760   3.766
15172W        W79380  26.138  19.099   0.457
15173W        W79381  25.193   8.288   3.794
15174W        W79382   5.709  42.337   4.221
15175W        W79383  40.028   4.815   4.287
15176W        W79384  27.124  13.697   3.687
15177W        W79385  33.463   2.305   3.712
15178W        W79386  37.375  39.376  12.034
15179W        W79387  43.357  19.776   5.293
15180W        W79388  24.576  28.116  11.889
15181W        W79389  10.348  19.701  14.998
15182W        W79390  35.418   9.183  12.025
15183W        W79391  23.086  10.771   1.870
15184W        W79392   7.218  14.164   4.735
15185W        W79393  18.647  21.236   3.249
15186W        W79394   3.812  43.933   1.233
15187W        W79395  21.074   3.828  12.834
15188W        W79396  43.812  26.144   3.831
15189W        W79397  12.679  35.364   1.231
15190W        W79398  39.007   4.213  12.909
15191W        W79399  43.364   9.351  11.585
15192W        W79400   1.243  15.090  14.376
15193W        W79401  12.825  15.139  14.412
15194W        W79402  28.047   9.244   1.807
15195W        W79403  38.049  20.189   3.335
15196W        W79404  16.206  25.984  13.328
15197W        W79405   0.811   9.798   0.770
15198W        W79406   2.755   8.194   1.434
15199W        W79407  42.862   9.264  13.024
15200W        W79408  38.832  22.585  11.893
15201W        W79409  29.028  18.094   0.744
15202W        W79410  14.175  17.653  13.040
15203W        W79411  31.578  29.163  14.987
15204W        W79412   3.768   9.820  10.475
15205W        W79413  30.453  16.312   0.256
15206W        W79414  29.557  19.127   3.351
15207W        W79415  38.842   9.812  12.040
15208W        W79416  32.926   2.425   1.738
15209W        W79417  23.680   2.742  11.472
15210W        W79418  31.550  21.024  13.882
15211W        W79419  35.467  27.952   2.877
15212W        W79420  18.067  20.133   2.895
15213W        W79421  26.988  37.442  13.493
15214W        W79422   2.430  23.705  10.605
15215W        W79423  22.154  43.312   4.793
15216W        W79424  32.420  19.568   0.859
15217W        W79425  10.635  38.027   1.441
15218W        W79426  33.426  35.470   3.644
15219W        W79427  39.945  42.800   1.398
15220W        W79428  37.064  23.211   1.841
15221W        W79429   4.861   8.216  11.970
15222W        W79430  15.284  37.996   1.824
15223W        W79431   2.463  32.528  12.072
15224W        W79432  31.991   6.368   2.802
15225W        W79433  27.109  35.498  13.508
15226W        W79434  27.030  35.052  14.481
15227W        W79435  14.205  43.300  14.307
15228W        W79436  43.303  29.014   0.312
15229W        W79437  43.903  34.081   9.969
15230W        W79438   2.885  40.010   3.235
15231W        W79439  36.463   6.253  14.328
15232W        W79440  33.578  17.571   3.163
15233W        W79441  37.872  21.248  11.106
15234W        W79442  29.949  14.225   5.322
15235W        W79443  15.768  35.555   1.246
15236W        W79444  41.493  40.896   2.204
15237W        W79445  16.602   2.461   1.784
15238W        W79446  13.124  26.111  11.873
15239W        W79447  39.861  12.300  10.959
15240W        W79448  23.541  31.525  12.574
15241W        W79449  31.941  19.661  14.993
15242W        W79450  12.118   1.295   3.796
15243W        W79451  30.934  43.470  13.319
15244W        W79452  22.073  13.281  14.436
15245W        W79453  19.677   4.802   0.874
15246W        W79454  12.795   8.178  11.960
15247W        W79455  40.429  19.261   1.370
15248W        W79456   6.827  17.738   4.721
15249W        W79457  31.944  21.647  13.020
15250W        W79458  40.397   2.462   3.848
15251W        W79459  43.472  31.506   4.210
15252W        W79460  19.620  16.282   1.387
15253W        W79461  19.160  19.221  13.344
15254W        W79462  43.353  40.958   0.774
15255W        W79463  27.149  23.077   1.742
15256W        W79464   0.251  36.076   3.630
15257W        W79465  31.131   1.902  14.418
15258W        W79466  41.031  12.256   1.708
15259W        W79467  26.559  20.744  12.494
15260W        W79468   8.181  13.139   3.830
15261W        W79469  39.874  21.091   1.351
15262W        W79470  31.469   0.383   3.230
15263W        W79471  22.044  36.469   0.360
15264W        W79472   7.359  35.445  14.840
15265W        W79473   7.743  43.406  14.026
15266W        W79474   1.763   3.780   0.350
15267W        W79475  28.107  36.493  12.387
15268W        W79476  30.433  28.446  14.513
15269W        W79477  23.595  18.154   0.910
15270W        W79478  15.823  36.049   0.287
15271W        W79479  15.767  17.657  12.445
15272W        W79480  32.561  23.232   1.388
15273W        W79481   9.152  25.642  13.876
15274W        W79482  24.150   3.437   1.229
15275W        W79483  30.429  32.439  11.935
15276W        W79484   0.482   0.272   0.382
15277W        W79485  10.334   1.873   3.786
15278W        W79486  20.603  17.238   1.914
15279W        W79487  37.039  33.934  14.988
15280W        W79488  22.578  12.819   0.393
15281W        W79489   1.449  35.574   4.159
15282W        W79490  17.216  37.372  14.888
15283W        W79491  13.298  18.215   2.330
15284W        W79492  23.030   0.404   2.344
15285W        W79493  25.686  31.454  11.878
15286W        W79494  42.405  35.358   3.158
15287W        W79495   0.772  36.376  13.411
15288W        W79496  11.227  17.723   3.865
15289W        W79497  32.981  30.923   1.387
15290W        W79498  26.070   0.853   0.949
15291W        W79499  32.908  40.930  14.281
15292W        W79500   0.349  28.644   1.854
15293W        W79501   4.742  21.144  14.801
15294W        W79502  44.779  25.004   4.790
15295W        W79503  37.560  28.115  14.930
15296W        W79504   5.208  43.016  12.517
15297W        W79505  13.200  24.538   0.916
15298W        W79506  44.835  18.227  13.830
15299W        W79507  14.276  32.442  14.301
15300W        W79508  38.924  38.026  14.827
15301W        W79509  33.032  35.013  13.063
15302W        W79510  13.225  35.513  13.543
15303W        W79511   8.827  18.676  11.547
15304W        W79512  17.203   8.304   3.671
15305W        W79513  22.663  15.789   1.401
15306W        W79514  33.066  12.121  10.520
15307W        W79515  23.055  26.189  13.500
15308W        W79516  33.965  44.327   2.888
15309W        W79517  15.668  39.820  12.362
15310W        W79518  17.128   1.744   1.757
15311W        W79519  24.550  41.890  12.422
15312W        W79520  34.608  32.545   2.778
15313W        W79521   1.756   2.926   4.274
15314W        W79522  23.228  22.573  12.990
15315W        W79523  38.525  11.339   3.271
15316W        W79524  24.478  40.517  10.588
15317W        W79525  20.597  16.255   2.669
15318W        W79526  40.544  41.445   3.191
15319W        W79527   6.355  35.568  14.513
15320W        W79528  28.655  38.441   1.371
15321W        W79529  41.326  35.427  13.970
15322W        W79530  27.611  27.470  10.898
15323W        W79531  39.861  13.739   1.402
15324W        W79532  26.504  35.067  11.999
15325W        W79533  22.077  40.930   3.310
15326W        W79534  21.579  13.683   1.406
15327W        W79535  21.088  37.530  13.506
15328W        W79536  30.963  39.373   4.747
15329W        W79537  15.647  15.696   2.246
15330W        W79538  10.641  42.877   4.809
15331W        W79539   2.388  43.956   0.844
15332W        W79540   3.755  40.884  14.429
15333W        W79541  24.175  30.583  11.436
15334W        W79542  34.612  31.925  11.578
15335W        W79543  13.238  40.442   3.367
15336W        W79544  24.625  22.570   1.931
15337W        W79545  15.645   9.274  13.851
15338W        W79546  26.171  26.614  12.501
15339W        W79547   0.939   0.292   4.782
15340W        W79548  39.043  34.968  10.487
15341W        W79549   0.285  33.927   0.294
15342W        W79550  38.455   9.833   4.287
15343W        W79551  35.936  15.804   4.665
15344W        W79552  23.109  24.041   2.896
15345W        W79553  23.716  42.983   2.342
15346W        W79554  12.837   2.400   1.262
15347W        W79555  43.492  34.409   4.239
15348W        W79556  26.519  18.256   1.436
15349W        W79557  21.705  43.368  10.496
15350W        W79558  29.451   3.246  12.414
15351W        W79559  22.608  36.870   3.669
15352W        W79560  20.653  35.934   2.715
15353W        W79561   6.426  11.689  14.321
15354W        W79562  32.496  28.512   2.368
15355W        W79563  25.664   0.468   1.699
15356W        W79564  41.307  42.802   4.285
15357W        W79565  34.002  42.393  12.979
15358W        W79566  12.703  14.182  13.906
15359W        W79567   4.847  15.746   0.273
15360W        W79568   9.738  36.966  12.000
15361W        W79569  26.550   3.734  11.882
15362W        W79570  36.406  34.918  12.969
15363W        W79571  20.647  30.070  13.328
15364W        W79572  41.945  43.350  10.541
15365W        W79573  22.541  27.973   4.199
15366W        W79574  23.029  40.406   4.264
15367W        W79575  13.163  10.353  10.983
15368W        W79576   2.913   7.891  12.340
15369W        W79577  38.538  24.660  13.964
15370W        W79578  19.238  40.330   0.302
15371W        W79579  24.575  11.720   4.605
15372W        W79580  19.727   4.777   4.176
15373W        W79581  22.190  32.959  12.408
15374W        W79582  44.324  12.694  10.099
15375W        W79583  42.881  28.959  10.554
15376W        W79584  19.262  14.318   3.243
15377W        W79585  40.392  23.501  13.369
15378W        W79586   6.710  40.387  10.544
15379W        W79587   1.469  22.565   1.347
15380W        W79588  26.175  27.112   4.745
15381W        W79589  11.180  35.995   3.221
15382W        W79590  42.852   9.273   2.718
15383W        W79591   3.343  34.016  14.900
15384W        W79592  22.507  24.127  14.887
15385W        W79593  36.475  44.806   4.620
15386W        W79594  10.383  31.933  10.940
15387W        W79595  11.835  36.023   4.773
15388W        W79596  30.527  23.158   3.687
15389W        W79597  15.196  24.503   2.742
15390W        W79598  30.152  42.326  10.500
15391W        W79599  25.639  22.222  13.394
15392W        W79600  13.148  42.407  12.862
15393W        W79601  22.049   7.858  11.910
15394W        W79602   5.361  26.990   4.205
15395W        W79603   9.353   9.691   1.729
15396W        W79604  14.096  17.158  10.633
15397W        W79605  25.035  40.976  11.516
15398W        W79606  24.633  26.637   2.346
15399W        W79607  17.223  26.592  14.950
15400W        W79608  31.933  22.567   1.432
15401W        W79609  38.943  18.611  14.898
15402W        W79610  40.342  25.065   1.414
15403W        W79611  23.650   1.379  14.018
15404W        W79612  14.742  36.370  13.003
15405W        W79613  23.018   3.732  14.484
15406W        W79614   0.265  23.170   0.804
15407W        W79615  41.318   4.747  12.076
15408W        W79616  40.890  19.574  11.993
15409W        W79617  18.560  36.381  12.497
15410W        W79618   7.805  18.777   4.652
15411W        W79619  27.145  34.106   4.279
15412W        W79620  24.624  13.217  13.000
15413W        W79621  12.254  38.971   1.284
15414W        W79622  44.763  20.736  11.451
15415W        W79623  19.671  38.865   1.379
15416W        W79624  16.281  26.693   3.814
15417W        W79625  17.222  28.057   3.795
15418W        W79626  24.186   7.680   2.729
15419W        W79627   3.450  42.898  10.158
15420W        W79628  11.773  36.083  11.097
15421W        W79629   1.308  32.574  11.105
15422W        W79630  37.488  43.353  11.907
15423W        W79631  22.082   0.286   4.164
15424W        W79632  36.083  32.077  14.335
15425W        W79633  32.557  41.875   3.188
15426W        W79634  32.916  21.554  14.448
15427W        W79635  13.723  27.469  10.560
15428W        W79636  39.383   8.196  13.813
15429W        W79637  24.518  24.128   2.383
15430W        W79638  14.304   5.790   4.140
15431W        W79639  37.526  24.090   1.858
15432W        W79640  11.648  21.738   3.761
15433W        W79641  27.629   5.421  13.965
15434W        W79642  16.746  32.419   3.184
15435W        W79643   6.822  42.875   1.410
15436W        W79644  19.611  29.005  14.427
15437W        W79645   5.898  43.982  11.042
15438W        W79646  22.113   0.875   2.407
15439W        W79647  13.199   9.726  14.833
15440W        W79648  38.861  13.709  11.894
15441W        W79649  14.785  21.223   2.192
15442W        W79650  28.144   9.858   1.852
15443W        W79651  32.618  26.591   4.209
15444W        W79652  10.179  41.031  13.391
15445W        W79653   8.372   1.770  14.349
15446W        W79654  20.762   6.864   2.360
15447W        W79655   6.894  15.153  13.794
15448W        W79656   9.809  29.081  13.383
15449W        W79657  20.633  23.123   2.753
15450W        W79658   0.486   9.866  14.487
15451W        W79659   5.321   5.728  10.635
15452W        W79660  33.481  12.350  12.482
15453W        W79661  43.404   6.277  11.546
15454W        W79662  22.549  14.763  13.542
15455W        W79663   7.752   8.817  14.822
15456W        W79664  31.897  31.039   4.168
15457W        W79665  30.565  37.014  12.493
15458W        W79666   3.738  17.188   4.253
15459W        W79667  44.456  22.553   1.806
15460W        W79668   4.310  42.867   4.729
15461W        W79669  35.541  17.767  14.854
15462W        W79670   0.472   1.250  11.867
15463W        W79671  14.334  33.901  14.760
15464W        W79672  22.677   9.295  10.072
15465W        W79673  29.662  14.154   4.335
15466W        W79674  31.141   2.723   4.123
15467W        W79675  27.651  35.952  11.567
15468W        W79676  43.000  27.525  14.277
15469W        W79677  33.547  32.990  14.393
15470W        W79678  28.519  33.535   2.274
15471W        W79679  18.654  33.084  11.417
15472W        W79680  35.911  16.638   0.852
15473W        W79681   8.350  32.009  14.494
15474W        W79682  32.500  27.660   0.922
15475W        W79683   9.189  38.881  10.058
15476W        W79684   3.417  25.573  12.076
15477W        W79685  36.511  26.172   2.398
15478W        W79686  24.725  11.351   2.379
15479W        W79687  43.008  35.520   1.346
15480W        W79688  22.619  31.920  12.928
15481W        W79689  35.039   7.228  10.410
15482W        W79690  38.929  30.626   4.281
15483W        W79691  29.472  30.147   3.696
15484W        W79692  43.928   3.347   2.790
15485W        W79693  39.522   3.386  11.921
15486W        W79694   2.280  29.495   1.312
15487W        W79695   1.837  18.066  14.394
15488W        W79696  41.417  17.192  12.427
15489W        W79697  13.710   9.395  14.824
15490W        W79698  23.578  43.300  11.395
15491W        W79699   9.203  32.912  14.789
15492W        W79700  42.334  30.130  12.882
15493W        W79701  35.455  30.944   4.173
15494W        W79702   5.716  35.041   4.806
15495W        W79703  39.898  33.027   0.413
15496W        W79704  30.008  41.985  14.920
15497W        W79705  42.501  32.524  13.378
15498W        W79706  31.533   2.308  14.883
15499W        W79707  33.920  35.920   4.161
15500W        W79708   5.708  11.755  11.967
15501W        W79709  20.237  44.431   2.337
15502W        W79710   8.276  43.446  12.376
15503W        W79711  18.758  16.164  13.499
15504W        W79712  30.971   8.384   1.371
15505W        W79713  26.544  12.199  13.523
15506W        W79714  20.251  14.827  11.066
15507W        W79715  43.890  40.832   0.263
15508W        W79716  37.041   5.754   0.966
15509W        W79717  37.001   8.731  13.517
15510W        W79718  44.419   0.886   2.863
15511W        W79719  37.476  14.591   1.717
15512W        W79720  31.454  41.811   1.273
15513W        W79721  36.056  19.195  11.579
15514W        W79722  32.143  37.860  13.430
15515W        W79723  21.143  31.072   4.181
15516W        W79724  42.967  34.996   4.743
15517W        W79725  22.179   4.227   3.832
15518W        W79726  32.052  24.634  12.986
15519W        W79727  39.431   2.813   1.346
15520W        W79728  34.077  26.122  10.926
15521W        W79729  11.249  33.454   1.735
15522W        W79730  10.379   9.393   4.629
15523W        W79731  20.689   1.733  14.841
15524W        W79732   0.411  44.286   0.783
15525W        W79733  28.664  15.150  14.884
15526W        W79734  40.311  23.619  14.515
15527W        W79735   0.270   1.355   2.707
15528W        W79736  15.311  19.075  13.480
15529W        W79737  23.101  20.198   0.760
15530W        W79738  38.013  19.103   4.614
15531W        W79739  21.087  34.088  14.462
15532W        W79740   4.911   7.677  10.470
15533W        W79741   2.948  41.512  14.894
15534W        W79742   8.844   2.816   1.730
15535W        W79743  19.751  23.666   4.159
15536W        W79744  43.357  24.547  14.304
15537W        W79745  26.560   2.393   0.875
15538W        W79746  12.304   9.160  11.932
15539W        W79747   9.780  19.575   2.833
15540W        W79748   4.917   6.270   2.723
15541W        W79749  28.585  33.071   3.668
15542W        W79750  23.541  27.489  10.409
15543W        W79751  32.067  12.636  14.374
15544W        W79752  22.725  24.674  11.419
15545W        W79753   1.477  38.932   3.152
15546W        W79754   1.919  43.464  14.973
15547W        W79755   9.369  33.524  11.526
15548W        W79756  42.922  22.177  14.922
15549W        W79757  29.474   1.916   5.305
15550W        W79758  21.609  38.897  11.086
15551W        W79759   5.740  26.497   1.789
15552W        W79760   8.204   7.351  14.025
15553W        W79761   3.762  19.126   2.828
15554W        W79762  36.507  21.245   0.942
15555W        W79763  11.664  44.792  10.509
15556W        W79764  42.353   0.491  14.453
15557W        W79765  10.262  13.613   1.839
15558W        W79766  10.691  31.006  12.861
15559W        W79767  33.906  32.105   5.127
15560W        W79768  23.215   7.201   0.429
15561W        W79769  13.210  37.541  10.937
15562W        W79770  37.921  36.953  12.839
15563W        W79771  41.403  44.485   4.205
15564W        W79772   1.785  14.622   1.770
15565W        W79773  26.698  22.148   4.159
15566W        W79774  14.207  17.662   2.889
15567W        W79775   0.909   1.846   1.449
15568W        W79776  41.974  17.682   3.801
15569W        W79777  33.382  22.641   4.607
15570W        W79778  34.446  19.630   1.830
15571W        W79779  41.984  14.601   4.334
15572W        W79780  26.072  24.108   4.654
15573W        W79781  23.718   0.378   4.123
15574W        W79782   4.233  40.895   4.222
15575W        W79783  12.286  29.544  11.550
15576W        W79784  27.446  24.127   2.302
15577W        W79785  13.302  37.850  12.938
15578W        W79786  25.495  30.492   2.845
15579W        W79787  24.681  23.644  12.852
15580W        W79788  14.651  31.620  10.503
15581W        W79789  25.669  11.816   0.872
15582W        W79790  22.107  28.043  12.563
15583W        W79791  18.160   8.403  14.952
15584W        W79792  40.968  31.089   3.258
15585W        W79793  27.684  32.134  11.554
15586W        W79794  23.583  10.339   1.441
15587W        W79795  10.876  10.641   5.173
15588W        W79796   4.412  35.421   0.263
15589W        W79797  22.514  32.567  14.794
15590W        W79798  44.796   1.906   0.377
15591W        W79799  13.140  42.465   3.255
15592W        W79800  19.139  24.558   2.671
15593W        W79801  21.185  13.808   3.675
15594W        W79802  24.229   4.306   4.215
15595W        W79803  18.215  18.148   4.769
15596W        W79804   0.756  26.007   2.783
15597W        W79805   8.297   0.412  14.339
15598W        W79806   0.820  29.128   1.411
15599W        W79807  42.489  10.315   3.675
15600W        W79808  16.302  32.910  13.045
15601W        W79809  25.213  19.668   1.212
15602W        W79810  20.112  11.672   5.130
15603W        W79811   4.804  27.687  10.114
15604W        W79812   1.290   1.864  12.988
15605W        W79813  13.645  29.501  10.940
15606W        W79814  32.508  44.969  13.360
15607W        W79815   2.835  14.294  13.816
15608W        W79816  36.363  26.662  13.817
15609W        W79817  27.162  43.946   2.718
15610W        W79818  24.540  41.021   0.968
15611W        W79819  28.007   7.221  11.396
15612W        W79820  25.585   9.804  12.987
15613W        W79821  28.601  18.235   3.669
15614W        W79822   4.931  20.707  11.031
15615W        W79823  15.747  37.926   1.894
15616W        W79824   7.762  32.510   0.312
15617W        W79825   1.270  23.578  10.574
15618W        W79826  13.606   2.295   1.427
15619W        W79827  11.763  19.194   3.796
15620W        W79828  24.089   6.881  12.878
15621W        W79829  15.266   9.653  10.610
15622W        W79830  31.063  34.596  10.950
15623W        W79831  25.707   2.228   2.368
15624W        W79832  18.195  15.653  12.967
15625W        W79833  11.296  33.997  12.000
15626W        W79834  41.509  26.960   4.227
15627W        W79835  17.070  40.954  13.400
15628W        W79836  16.121  35.026  12.064
15629W        W79837   5.246  17.155  12.352
15630W        W79838  35.478   0.376   1.830
15631W        W79839  16.811  41.919  12.439
15632W        W79840  35.012  29.155  13.389
15633W        W79841  30.163  26.067   0.815
15634W        W79842  10.317  12.123   0.390
15635W        W79843  38.493  27.025  14.871
15636W        W79844   3.450  14.630   2.811
15637W        W79845  25.577   9.360   0.314
15638W        W79846   4.235   1.389   3.295
15639W        W79847  32.952  36.370   2.187
15640W        W79848  40.467  28.517   3.786
15641W        W79849  34.580  31.565  14.287
15642W        W79850  20.725  31.495  13.021
15643W        W79851   4.888  34.921  13.467
15644W        W79852   3.855  12.653  11.918
15645W        W79853  38.924  30.615  10.577
15646W        W79854   0.868  37.534   0.290
15647W        W79855   7.900   3.345  11.086
15648W        W79856  10.263  40.836   0.765
15649W        W79857  26.140   3.936  13.311
15650W        W79858  42.478  24.016   0.429
15651W        W79859  29.939  30.651   1.444
15652W        W79860  25.519  13.823  12.357
15653W        W79861   1.311  32.096  11.061
15654W        W79862  21.254  12.694  10.464
15655W        W79863   9.870   6.841  13.307
15656W        W79864  37.933  38.005  11.536
15657W        W79865  11.803  40.975  11.077
15658W        W79866  17.628   8.339   2.258
15659W        W79867  36.583   8.840  11.029
15660W        W79868   1.740  29.614   4.176
15661W        W79869  28.973  38.875   0.368
15662W        W79870  11.350  38.059  11.580
15663W        W79871  12.196  36.465   3.272
15664W        W79872  13.827  23.986   3.665
15665W        W79873   3.251  31.591  14.291
15666W        W79874   9.734  30.426   4.118
15667W        W79875  12.188  11.781  10.060
15668W        W79876  40.947  18.604   0.913
15669W        W79877  15.157  36.357   0.854
15670W        W79878  32.479   3.420   3.182
15671W        W79879  17.723  41.823   3.667
15672W        W79880  23.579  12.727  10.645
15673W        W79881  13.620  44.505   0.372
15674W        W79882   7.905  43.787   1.257
15675W        W79883  21.611  16.753  11.554
15676W        W79884   1.918   5.349   2.222
15677W        W79885  28.453  18.240   1.364
15678W        W79886  13.768  34.016  10.926
15679W        W79887  19.773  42.314  14.938
15680W        W79888  14.625  25.648  12.553
15681W        W79889  21.748  30.563   3.671
15682W        W79890  15.227  11.219   1.432
15683W        W79891  32.096  20.534   2.690
15684W        W79892  35.959  16.207  14.401
15685W        W79893  26.695  40.483  14.342
15686W        W79894  27.635  28.538   4.218
15687W        W79895  14.307  25.126   4.818
15688W        W79896  25.573  20.731   1.780
15689W        W79897  10.762  29.534   4.233
15690W        W79898  31.479  10.772   0.801
15691W        W79899  14.799  22.180   4.775
15692W        W79900  10.817  25.691  13.036
15693W        W79901  26.183  38.399   3.743
15694W        W79902   8.218  16.217   4.700
15695W        W79903  14.183  39.946  11.431
15696W        W79904   9.677  23.503   4.135
15697W        W79905  27.064  26.457  13.033
15698W        W79906   7.807   4.378   3.181
15699W        W79907  10.853  13.758  12.575
15700W        W79908  27.642   7.362  13.370
15701W        W79909  22.676  12.117   4.709
15702W        W79910  17.698   7.665   0.465
15703W        W79911   4.338  38.983   0.391
15704W        W79912  19.111  25.623  11.476
15705W        W79913  20.191  12.832   3.321
15706W        W79914  19.125  22.737  11.510
15707W        W79915  24.649  39.935   4.173
15708W        W79916  18.648  11.841  13.450
15709W        W79917  37.413  12.705  12.853
15710W        W79918  38.008  37.977   2.246
15711W        W79919   2.843  21.677  11.429
15712W        W79920  35.515  36.079  13.374
15713W        W79921  11.354  41.848  14.344
15714W        W79922   6.824  15.748  12.962
15715W        W79923  19.141  11.292  13.371
15716W        W79924  40.525  23.559  10.963
15717W        W79925  24.688  23.645  10.905
15718W        W79926  32.922  26.665  11.076
15719W        W79927  26.525   9.296  14.918
15720W        W79928  14.663  44.325  10.639
15721W        W79929  25.214  25.014  14.434
15722W        W79930  31.012  21.703   4.317
15723W        W79931  42.395  25.687   1.310
15724W        W79932  22.207  12.803   4.193
15725W        W79933  21.713  18.177   0.353
15726W        W79934  32.605   3.326  14.352
15727W        W79935   3.737   3.259  11.383
15728W        W79936  18.670   2.797   2.740
15729W        W79937  14.270   2.471  12.868
15730W        W79938   9.880  23.577   2.211
15731W        W79939  30.552  21.259  10.890
15732W        W79940  44.335  26.034  14.866
15733W        W79941  41.330  18.705  14.293
15734W        W79942  17.217  18.290   0.387
15735W        W79943  12.241  25.031   4.140
15736W        W79944  22.681  37.911   1.875
15737W        W79945   0.270  18.193  14.784
15738W        W79946  14.812  11.803  12.851
15739W        W79947  15.699   0.441   1.768
15740W        W79948   6.791  12.293   4.795
15741W        W79949   8.244  12.689  10.109
15742W        W79950  39.510  40.543  12.358
15743W        W79951  10.365  23.058   1.857
15744W        W79952  13.208  27.592   1.761
15745W        W79953  28.014  39.531   9.987
15746W        W79954  17.562  44.849  14.770
15747W        W79955  36.002  12.244  13.529
15748W        W79956  26.998  37.999  11.056
15749W        W79957  16.689  20.095   2.698
15750W        W79958  33.052  11.673  13.017
15751W        W79959  24.720  39.468  11.589
15752W        W79960  16.687  26.204   3.859
15753W        W79961  38.993  38.040  10.468
15754W        W79962  41.845  15.580  10.433
15755W        W79963  32.576  18.091   3.711
15756W        W79964   4.853  38.378  11.887
15757W        W79965  13.824  26.642  11.998
15758W        W79966  40.821  30.498   4.813
15759W        W79967  26.996  31.404  14.958
15760W        W79968   7.705  15.771   3.754
15761W        W79969   4.775   7.205   1.765
15762W        W79970   4.245  23.197   3.671
15763W        W79971  36.000   2.322   2.260
15764W        W79972  30.475  44.830  13.435
15765W        W79973  35.549  30.146   4.334
15766W        W79974  22.007  36.474  11.552
15767W        W79975  12.237  40.870   4.703
15768W        W79976  24.204  33.403  11.859
15769W        W79977  17.206  14.588   2.327
15770W        W79978  38.993   8.708  10.088
15771W        W79979  13.197  13.782   1.433
15772W        W79980   3.752  41.826  13.967
15773W        W79981  35.058  27.593  13.029
15774W        W79982  22.090  33.894   2.241
15775W        W79983  19.175  36.844   1.243
15776W        W79984  15.699   7.819   4.264
15777W        W79985  21.223  36.857  11.985
15778W        W79986   8.395  34.908   2.336
15779W        W79987  31.112  19.547   3.302
15780W        W79988   2.253   1.391   9.954
15781W        W79989  43.829  34.515   4.803
15782W        W79990  36.926  11.219  14.323
15783W        W79991  11.181  28.141   1.401
15784W        W79992   4.251   0.972   0.327
15785W        W79993  12.357  44.840  14.407
15786W        W79994  37.857  42.508  12.924
15787W        W79995  40.043  21.181   5.282
15788W        W79996  31.580  37.923  12.417
15789W        W79997  44.863  11.171   3.309
15790W        W79998  35.949  28.619  13.330
15791W        W79999   0.751  42.365  12.859
15792W        W80000  13.824   0.928   1.720
15793W        W80001  30.640   4.795   4.601
15794W        W80002  23.627  20.686   4.647
15795W        W80003  32.936  33.510   3.374
15796W        W80004   7.285  28.661  14.870
15797W        W80005  44.859  11.327   0.864
15798W        W80006  19.181  35.922  12.075
15799W        W80007   6.726   2.291   3.833
15800W        W80008  39.547  20.090   0.469
15801W        W80009   7.298   0.484   0.803
15802W        W80010  26.029  41.839   2.240
15803W        W80011  30.146  15.177  11.550
15804W        W80012  22.132  44.315  10.057
15805W        W80013  16.272   3.371   4.780
15806W        W80014   2.802  28.541  11.918
15807W        W80015  39.817   1.806  12.868
15808W        W80016   4.343   1.823   3.280
15809W        W80017  14.697   6.352   0.808
15810W        W80018   1.967  11.320  10.433
15811W        W80019  13.248  15.141  14.021
15812W        W80020  11.127  30.612   4.737
15813W        W80021  17.724   7.910   0.750
15814W        W80022  30.914  20.736  12.077
15815W        W80023  43.338  24.507  13.329
15816W        W80024  20.052  38.491  10.911
15817W        W80025  22.520  35.379   0.876
15818W        W80026   3.941  27.535   4.294
15819W        W80027   0.847  12.265   0.964
15820W        W80028  24.529  27.057   4.170
15821W        W80029  30.045   0.795  13.505
15822W        W80030  26.490   6.829   4.815
15823W        W80031  17.635  43.470   3.640
15824W        W80032  14.812   8.286   0.927
15825W        W80033   6.323  19.606   2.724
15826W        W80034  38.370  10.365  14.477
15827W        W80035  28.445  25.206   3.191
15828W        W80036  36.995  11.278  14.913
15829W        W80037  31.016  39.346  13.886
15830W        W80038   3.374  29.632   3.757
15831W        W80039  41.999  39.005  14.997
15832W        W80040   4.450  15.807  11.085
15833W        W80041  11.248  38.034   2.847
15834W        W80042  12.611  29.098   0.340
15835W        W80043   6.254  40.053  13.431
15836W        W80044  16.199  42.504   3.862
15837W        W80045   2.416  12.780   2.790
15838W        W80046  30.981   7.842  12.013
15839W        W80047   0.815  10.759  14.475
15840W        W80048  36.841  16.647  11.099
15841W        W80049  32.516  41.855  13.815
15842W        W80050   9.665   5.356   3.657
15843W        W80051  28.061  12.256   2.674
15844W        W80052  24.620   5.772  10.970
15845W        W80053  34.463  14.805  11.096
15846W        W80054  43.279  31.990   3.847
15847W        W80055  10.346  32.589  14.990
15848W        W80056  40.828  15.166  13.817
15849W        W80057  18.637  29.146   1.427
15850W        W80058  35.108  37.548  12.090
15851W        W80059  44.795  19.146   0.883
15852W        W80060  25.642  23.533  11.124
15853W        W80061   8.855  37.385   3.712
15854W        W80062   3.257   1.401  11.480
15855W        W80063  19.676  27.670   1.348
15856W        W80064   8.183  10.223   3.670
15857W        W80065  32.127   1.460   3.179
15858W        W80066  12.805  20.270  14.790
15859W        W80067  15.298  21.746   1.702
15860W        W80068  23.060  27.535   4.610
15861W        W80069  39.488  40.874  14.476
15862W        W80070  13.620   3.374   4.131
15863W        W80071  19.561  38.546  14.957
15864W        W80072  23.604   1.243   2.189
15865W        W80073  21.157  27.588  11.486
15866W        W80074  37.993  20.239   4.347
15867W        W80075  27.646  14.603  12.487
15868W        W80076  36.945   5.216   1.354
15869W        W80077  39.466  21.078  12.897
15870W        W80078  22.046  37.086  12.922
15871W        W80079  42.003  38.850  11.524
15872W        W80080  32.579  44.971  10.635
15873W        W80081  34.506  15.320   0.738
15874W        W80082  33.086  30.064  12.880
15875W        W80083  25.978  44.494   4.352
15876W        W80084   5.217  40.832   3.804
15877W        W80085  14.320  30.082   0.751
15878W        W80086  27.516  19.104   0.891
15879W        W80087  12.740  33.453  12.959
15880W        W80088  31.907  10.781   0.409
15881W        W80089  34.402  38.880  11.494
15882W        W80090   9.703  17.737   4.157
15883W        W80091  30.599  23.735  12.370
15884W        W80092  35.586  30.495  13.937
15885W        W80093  16.196  14.215   2.224
15886W        W80094  18.687  18.687  10.916
15887W        W80095  15.740  38.049  14.503
15888W        W80096  33.499  26.081  13.417
15889W        W80097  21.044  23.159   2.284
15890W        W80098  33.621  12.835  11.987
15891W        W80099  10.879  27.060   4.670
15892W        W80100  37.938  19.626   3.770
15893W        W80101  39.454  21.690   1.774
15894W        W80102  31.642   7.329   4.838
15895W        W80103  20.745  40.485   1.845
15896W        W80104  11.681   3.892   3.165
15897W        W80105  14.636   5.203   4.209
15898W        W80106  21.729  41.012   1.840
15899W        W80107  35.996  37.526  10.511
15900W        W80108  15.747   6.209  12.048
15901W        W80109  21.049  34.373   1.776
15902W        W80110  14.287   1.847  12.929
15903W        W80111  21.171  13.846  11.383
15904W        W80112  14.335  22.099  13.539
15905W        W80113  11.770  28.965   4.331
15906W        W80114  42.888  35.876  14.846
15907W        W80115   5.860   7.795   3.340
15908W        W80116  32.510  19.667  13.809
15909W        W80117   2.905  26.512  13.923
15910W        W80118  39.947  44.272   3.223
15911W        W80119  37.057   9.834  13.892
15912W        W80120  22.524  41.841   3.631
15913W        W80121   6.869  42.373   2.407
15914W        W80122   7.839  28.945  14.283
15915W        W80123  33.058   6.821   1.918
15916W        W80124  32.588  10.682   1.893
15917W        W80125   6.197  37.563  11.978
15918W        W80126  33.408  18.614  14.469
15919W        W80127  26.148  14.616  11.987
15920W        W80128  37.378  40.307  13.818
15921W        W80129  44.774  38.960   0.442
15922W        W80130   0.313   1.281   9.519
15923W        W80131  32.619  29.146   1.272
15924W        W80132  44.926  36.484   0.441
15925W        W80133   9.214  12.816   2.814
15926W        W80134  17.180   0.757   3.673
15927W        W80135  37.483   3.752  10.901
15928W        W80136  16.239  27.471   1.318
15929W        W80137  26.137  15.640   2.782
15930W        W80138  35.897   4.205  12.849
15931W        W80139   9.867  32.615   0.446
15932W        W80140   6.246  43.349   1.305
15933W        W80141  20.691   4.740  11.595
15934W        W80142  32.487  13.754   2.205
15935W        W80143  23.550  44.295   1.382
15936W        W80144  34.007  24.045   2.361
15937W        W80145   1.873  29.641   2.784
15938W        W80146  21.214   4.401  11.038
15939W        W80147  16.085  25.513  11.578
15940W        W80148  27.561  25.964  11.383
15941W        W80149  39.888  39.519   3.736
15942W        W80150  10.267  17.212   1.762
15943W        W80151  14.696  37.538  12.449
15944W        W80152  41.905  39.331  12.384
15945W        W80153   4.754  12.736   0.763
15946W        W80154  44.441  33.878  14.876
15947W        W80155  21.127  42.957  13.408
15948W        W80156  35.602  16.082   0.844
15949W        W80157  16.205  39.543  10.054
15950W        W80158  35.091  25.550  14.399
15951W        W80159   6.677  43.001  11.029
15952W        W80160  11.671   1.306   3.368
15953W        W80161  14.122   7.843  14.843
15954W        W80162  41.451   4.415  11.503
15955W        W80163  10.638   9.358  10.464
15956W        W80164  23.182  12.275   3.759
15957W        W80165  20.264  34.455   2.362
15958W        W80166  18.119  41.336   1.359
15959W        W80167  27.584  41.516  13.339
15960W        W80168  38.436  30.605  10.424
15961W        W80169  22.545  23.240   4.226
15962W        W80170  22.668  17.668   0.249
15963W        W80171  18.770  17.286  14.889
15964W        W80172   2.236  38.563  13.313
15965W        W80173  44.273   6.748  12.409
15966W        W80174  22.503  32.548   3.818
15967W        W80175  19.234  40.969   2.722
15968W        W80176  35.098  14.589  12.038
15969W        W80177  24.534  37.000   1.284
15970W        W80178  16.746  21.228   2.386
15971W        W80179   8.729  18.784   0.945
15972W        W80180  42.795  26.660  11.090
15973W        W80181   5.204  23.578   3.182
15974W        W80182  37.562   8.255   3.283
15975W        W80183  19.268  23.495  12.917
15976W        W80184  35.951  42.516  12.903
15977W        W80185  13.690  43.801   0.773
15978W        W80186  33.546  26.201  13.854
15979W        W80187  33.913  43.896   1.320
15980W        W80188   0.908  39.484  12.991
15981W        W80189   4.375  12.663  14.983
15982W        W80190  41.017  13.304   2.800
15983W        W80191  20.604  18.577  14.392
15984W        W80192  30.526  43.418   4.803
15985W        W80193  11.200  42.328  13.484
15986W        W80194  36.077  24.191  14.801
15987W        W80195  16.271  12.717   1.758
15988W        W80196   1.466  22.659  10.993
15989W        W80197  22.073  41.483   3.664
15990W        W80198  28.679  15.147   4.672
15991W        W80199  32.606   5.709  10.524
15992W        W80200  38.901  30.995  12.495
15993W        W80201  12.217   9.201   1.788
15994W        W80202  28.599  33.965   1.339
15995W        W80203  23.035  28.139   0.766
15996W        W80204  19.589  32.107  10.472
15997W        W80205  18.667  16.745   2.274
15998W        W80206  20.195  34.863  13.321
15999W        W80207  41.464  20.602   1.701
16000W        W80208  35.084   5.277   2.377
16001W        W80209  17.589  21.134  14.774
16002W        W80210  26.103  32.551  13.826
16003W        W80211  37.467  34.998  12.564
16004W        W80212  13.235  25.000   9.998
16005W        W80213  24.980  18.584  13.021
16006W        W80214   5.820  30.598  13.937
16007W        W80215  26.660  12.746   4.145
16008W        W80216   3.411   4.725  11.533
16009W        W80217  17.754  31.070   2.883
16010W        W80218  31.129  30.039  13.527
16011W        W80219   2.760   1.280  13.484
16012W        W80220  40.393   0.270  12.053
16013W        W80221   7.319  24.994  13.971
16014W        W80222  30.438   5.911  11.041
16015W        W80223  24.517   9.203   1.341
16016W        W80224   3.452  12.854   2.688
16017W        W80225  43.921  18.113  11.407
16018W        W80226   8.299  22.216  12.483
16019W        W80227  29.066  10.786  13.893
16020W        W80228  14.612  29.530  12.072
16021W        W80229  26.652  25.618   0.469
16022W        W80230  21.702  23.578  13.800
16023W        W80231  43.934  32.608  13.941
16024W        W80232  31.898  18.786  10.472
16025W        W80233   0.491  15.309  14.423
16026W        W80234  12.242   2.952  14.435
16027W        W80235  16.606  24.553   1.831
16028W        W80236   7.912  38.439  11.040
16029W        W80237  33.103  30.568   2.764
16030W        W80238  28.668  37.529   2.712
16031W        W80239  31.102  12.343   3.332
16032W        W80240  11.757  30.050  11.426
16033W        W80241  22.641  38.455   1.905
16034W        W80242  19.047  14.202   1.877
16035W        W80243  16.289  27.587  12.982
16036W        W80244   0.952  20.619  10.544
16037W        W80245  21.075  28.613  11.012
16038W        W80246  17.069  20.030  11.431
16039W        W80247  42.988  12.798   0.433
16040W        W80248  39.932  36.508  14.336
16041W        W80249  32.048  40.962   1.759
16042W        W80250  31.473  36.489   3.272
16043W        W80251  30.536  30.583  13.877
16044W        W80252   6.338  23.066   1.810
16045W        W80253  24.223   2.280  11.388
16046W        W80254   6.330  33.423   4.277
16047W        W80255  43.767  39.557   3.630
16048W        W80256  40.547  44.984  13.346
16049W        W80257  38.989  12.787   2.829
16050W        W80258   3.273  33.470   4.748
16051W        W80259  24.519  16.229  13.969
16052W        W80260  30.500   0.969  14.789
16053W        W80261  33.053  44.414   1.792
16054W        W80262  23.024  39.890   2.364
16055W        W80263  43.895  21.632  11.394
16056W        W80264  21.675  35.574  13.975
16057W        W80265  22.584  41.884  13.538
16058W        W80266  35.396  35.883   2.235
16059W        W80267  31.898  38.912  14.275
16060W        W80268   7.762  25.509   3.675
16061W        W80269  19.123  35.863   3.326
16062W        W80270  22.075   5.328  11.410
16063W        W80271   1.803  34.032  12.954
16064W        W80272  41.300  14.678   1.340
16065W        W80273   5.831  40.043   1.442
16066W        W80274  21.511  29.052  11.004
16067W        W80275   9.754   7.671   3.864
16068W        W80276   8.846  21.117   3.849
16069W        W80277   8.251   7.691  10.949
16070W        W80278   2.841   5.861  11.394
16071W        W80279   1.355  26.976  13.799
16072W        W80280  34.984  27.550   3.191
16073W        W80281   8.262  21.182  10.479
16074W        W80282   0.833  43.514   0.799
16075W        W80283   2.334   3.257  12.850
16076W        W80284  21.521  13.340   4.691
16077W        W80285  37.941  11.153  12.025
16078W        W80286   2.418  37.916  11.057
16079W        W80287  11.757  26.193  12.009
16080W        W80288  37.342  31.543   2.807
16081W        W80289  22.697  34.605  12.362
16082W        W80290   7.404   7.355  12.533
16083W        W80291  28.638  15.776   5.297
16084W        W80292   1.303  22.188   1.356
16085W        W80293  23.008  17.679  14.759
16086W        W80294  33.104  42.781  11.387
16087W        W80295  25.147   2.236   4.322
16088W        W80296   8.334  24.552   0.266
16089W        W80297   8.689   6.805   4.216
16090W        W80298  23.140   4.863   0.472
16091W        W80299   3.828  28.572   2.826
16092W        W80300  40.541  42.863   3.786
16093W        W80301  36.575  38.348  10.910
16094W        W80302  25.471   5.899  11.111
16095W        W80303   1.757  33.445   3.241
16096W        W80304  17.202  23.715   1.913
16097W        W80305  24.104  32.581   0.438
16098W        W80306  38.551  17.082   0.414
16099W        W80307  14.797  32.960  11.399
16100W        W80308  16.722  22.630  10.502
16101W        W80309  33.005  27.159  12.870
16102W        W80310  44.505   6.233  10.019
16103W        W80311  24.561  25.621  11.488
16104W        W80312  10.262  20.078   0.385
16105W        W80313  30.529   2.782  13.400
16106W        W80314  34.050   0.458  11.398
16107W        W80315  31.525  10.179  11.999
16108W        W80316  30.641  27.651  14.352
16109W        W80317   4.793  36.962  13.434
16110W        W80318  26.156  33.123  14.991
16111W        W80319  43.315  28.624  14.760
16112W        W80320   8.794  12.231  10.565
16113W        W80321  29.553  22.519   1.779
16114W        W80322  14.278  40.357  10.525
16115W        W80323  36.359  29.618  14.922
16116W        W80324  13.187  13.339  12.980
16117W        W80325  42.013  32.982   4.228
16118W        W80326  21.256   5.316  14.454
16119W        W80327  28.448  14.210  14.446
16120W        W80328  29.583  10.829  12.455
16121W        W80329   8.241   2.404   3.236
16122W        W80330  13.821  15.626   1.279
16123W        W80331   6.778  27.999  12.831
16124W        W80332  41.318  40.029  13.968
16125W        W80333  40.475  26.066   2.780
16126W        W80334  31.447  44.771  13.034
16127W        W80335  14.673  32.559   0.375
16128W        W80336  11.648  26.613  12.024
16129W        W80337  26.619   3.305  12.068
16130W        W80338   2.883  10.352   0.289
16131W        W80339  19.136  39.555  14.309
16132W        W80340  24.149  35.852   4.722
16133W        W80341  12.774  33.563   3.829
16134W        W80342  42.320  44.921  14.973
16135W        W80343  10.792   3.891  10.987
16136W        W80344   9.347  24.093  13.999
16137W        W80345   4.802   1.296   3.785
16138W        W80346   5.895  11.685  11.021
16139W        W80347  11.623  23.649   4.251
16140W        W80348   3.934  20.597   3.178
16141W        W80349  21.192  37.521   1.750
16142W        W80350  29.939  24.657  14.869
16143W        W80351  25.966   1.967   4.819
16144W        W80352  19.111   0.339  14.475
16145W        W80353   1.805  25.611  10.960
16146W        W80354   3.304  31.529  11.550
16147W        W80355  41.862  11.210  14.867
16148W        W80356   3.230  34.070   4.721
16149W        W80357  11.131   7.769  10.632
16150W        W80358   2.786  18.281   1.236
16151W        W80359  13.333  17.764  12.069
16152W        W80360  41.400   9.749   0.899
16153W        W80361  38.502  44.389  13.004
16154W        W80362  10.288  26.006  11.431
16155W        W80363  37.487   2.960  12.914
16156W        W80364  30.641   5.339   2.377
16157W        W80365  42.289  23.619   1.761
16158W        W80366  23.221   1.936  14.998
16159W        W80367  15.252   8.681   1.348
16160W        W80368  42.383  28.649   1.784
16161W        W80369   5.719  18.641  10.991
16162W        W80370  15.241  28.939   1.381
16163W        W80371  18.582  38.452  13.966
16164W        W80372  13.656   3.249  13.358
16165W        W80373  20.054  15.615   1.701
16166W        W80374  44.957  12.749   1.774
16167W        W80375  31.018  38.483  12.377
16168W        W80376  32.600  41.441   0.413
16169W        W80377  44.816   1.321   0.785
16170W        W80378   0.349  17.160   0.877
16171W        W80379  18.781  28.509   1.923
16172W        W80380  33.485   6.911   3.754
16173W        W80381  20.651  32.604   1.357
16174W        W80382  38.904   2.928  11.018
16175W        W80383  34.497   8.824  14.295
16176W        W80384  15.177  41.920  11.051
16177W        W80385  11.339  33.394   3.174
16178W        W80386  10.673  30.503   0.897
16179W        W80387  39.378  20.537   3.846
16180W        W80388  19.743  34.944  13.907
16181W        W80389  18.601  22.080  14.510
16182W        W80390  43.878  24.176   2.340
16183W        W80391   8.781  28.519  13.026
16184W        W80392  11.250  12.288  12.563
16185W        W80393  41.537  34.886  13.947
16186W        W80394  17.285  43.818   1.734
16187W        W80395   0.259  19.547  14.760
16188W        W80396  18.722  41.870   4.664
16189W        W80397  11.832  41.987   1.700
16190W        W80398  19.760   6.287   2.895
16191W        W80399  21.133  44.353  11.431
16192W        W80400  25.019  11.861  13.544
16193W        W80401  27.960  19.152   5.313
16194W        W80402  19.746  42.987  11.428
16195W        W80403  30.448  40.319   3.672
16196W        W80404   9.856  33.106  12.854
16197W        W80405  11.182  19.549   3.812
16198W        W80406  21.513  13.321  13.970
16199W        W80407  18.648  18.178   2.808
16200W        W80408  28.166  29.471  13.515
16201W        W80409  18.154  37.846   1.890
16202W        W80410  11.149  38.039  12.027
16203W        W80411  11.279  42.853  13.045
16204W        W80412  35.049   0.342   0.434
16205W        W80413   6.906   4.423  14.852
16206W        W80414  40.448  30.445  11.982
16207W        W80415  34.913  26.535  14.412
16208W        W80416  21.158  10.640   3.735
16209W        W80417  16.585  41.042  12.496
16210W        W80418   3.743  10.307   1.256
16211W        W80419   1.858   7.211   2.285
16212W        W80420  30.601   0.430  14.396
16213W        W80421  39.394  44.940  13.361
16214W        W80422  34.529  28.955   1.381
16215W        W80423  18.136  17.111   2.411
16216W        W80424  33.531  28.540   4.777
16217W        W80425  41.337   2.856  12.358
16218W        W80426  10.752  42.996   0.309
16219W        W80427   4.386  20.689  14.509
16220W        W80428  40.902   8.893  12.998
16221W        W80429  33.102  26.112  10.553
16222W        W80430   5.403  28.518  13.916
16223W        W80431   3.326  15.121   3.812
16224W        W80432  10.818  28.568  11.948
16225W        W80433  37.073   6.358   2.345
16226W        W80434  33.121  11.227   3.243
16227W        W80435  41.311  37.076   0.323
16228W        W80436  34.041  43.421   3.747
16229W        W80437  26.142  35.989   4.755
16230W        W80438  42.904  22.095  10.486
16231W        W80439  26.032  29.594   3.629
16232W        W80440  29.630  42.490  12.076
16233W        W80441  25.165  37.927  12.886
16234W        W80442   6.677  22.688  14.024
16235W        W80443  15.744   4.810   2.741
16236W        W80444   9.150   3.714  14.508
16237W        W80445   9.161   1.384  10.614
16238W        W80446  23.096  21.729   4.211
16239W        W80447  15.261  16.087   4.766
16240W        W80448   5.820  28.060  11.098
16241W        W80449  23.680  41.790   0.890
16242W        W80450  23.107  33.052  13.884
16243W        W80451   9.229  43.787   3.655
16244W        W80452  42.978   5.360   0.872
16245W        W80453   8.869  42.027   2.387
16246W        W80454   0.352  42.937   0.743
16247W        W80455   3.898  20.741  12.396
16248W        W80456  27.970  30.602  12.906
16249W        W80457  33.110  41.405   2.713
16250W        W80458  18.735  32.476  13.840
16251W        W80459   7.407  33.493   2.370
16252W        W80460  31.506  34.435   4.341
16253W        W80461  12.271   4.335  13.523
16254W        W80462  21.046   9.182   2.748
16255W        W80463  30.656  37.845  14.402
16256W        W80464  18.636  44.936  13.836
16257W        W80465  25.693  42.299   3.863
16258W        W80466   3.366   2.285   3.651
16259W        W80467   2.942  34.582   1.894
16260W        W80468  30.945  35.514   3.341
16261W        W80469  35.096  37.554   3.666
16262W        W80470  38.024  41.786   3.365
16263W        W80471  25.521  26.537   0.248
16264W        W80472  10.636  35.072  11.972
16265W        W80473  40.832   0.462  13.355
16266W        W80474  38.374  19.222   4.695
16267W        W80475  10.697  10.377   2.794
16268W        W80476  23.695  24.693   0.433
16269W        W80477  11.803   3.875   0.372
16270W        W80478  42.386  22.649  14.934
16271W        W80479  16.116  16.291   4.287
16272W        W80480  12.345  42.802   3.718
16273W        W80481  38.472   1.445  11.044
16274W        W80482  35.074   7.899  12.962
16275W        W80483  41.297  24.160   2.766
16276W        W80484   5.906   5.728  11.935
16277W        W80485  22.607   1.924  11.035
16278W        W80486  22.532  17.589   0.818
16279W        W80487  36.544  26.622   2.346
16280W        W80488  14.753  35.003  10.983
16281W        W80489  18.695  12.183   0.962
16282W        W80490  23.613   2.945  14.942
16283W        W80491  37.834  40.375  13.861
16284W        W80492  40.319  26.147  10.946
16285W        W80493   6.914   5.835  11.582
16286W        W80494  40.810  24.112  10.922
16287W        W80495  10.775  37.423  12.549
16288W        W80496  40.828  24.173  13.950
16289W        W80497  14.661   2.427  11.408
16290W        W80498  24.170  16.315  11.001
16291W        W80499  28.593  21.640   2.740
16292W        W80500  39.060  10.259  12.993
16293W        W80501   1.353   0.468  13.935
16294W        W80502  15.257  13.668   3.236
16295W        W80503  26.470  37.850   4.605
16296W        W80504  11.329  30.973   4.697
16297W        W80505  41.409   1.821   2.687
16298W        W80506  37.348  13.222   2.798
16299W        W80507  38.858  10.764  14.978
16300W        W80508  33.123   8.756  11.883
16301W        W80509  18.108   8.291  13.429
16302W        W80510  32.425  25.513   0.920
16303W        W80511  31.622  18.093  12.530
16304W        W80512  39.460  28.493  11.013
16305W        W80513   3.225  37.998  12.576
16306W        W80514  28.569  44.483   0.963
16307W        W80515   8.737  34.916  13.989
16308W        W80516  23.714   7.873  14.937
16309W        W80517   4.860  37.086   5.306
16310W        W80518  19.572  27.050   1.859
16311W        W80519  44.439   6.204   3.262
16312W        W80520  37.483  22.245  12.514
16313W        W80521   3.230   4.336  10.942
16314W        W80522  28.117  13.680  14.838
16315W        W80523  27.092  29.077   0.345
16316W        W80524  21.259   2.309   4.717
16317W        W80525   0.434  25.988  10.917
16318W        W80526  27.085  17.796  13.920
16319W        W80527  43.449  14.781   1.326
16320W        W80528  10.828  17.718   2.857
16321W        W80529  31.631   1.856  10.606
16322W        W80530  32.913  27.471  11.897
16323W        W80531  29.482  24.074   2.353
16324W        W80532   2.783  23.022   4.210
16325W        W80533   3.381  21.657   4.316
16326W        W80534  34.393  10.818   0.855
16327W        W80535  30.476  35.103  10.626
16328W        W80536   9.293  12.685  14.949
16329W        W80537  35.499  31.118   3.740
16330W        W80538   5.857   5.750  14.893
16331W        W80539  35.568   7.885   4.155
16332W        W80540  36.435  30.578  13.354
16333W        W80541  16.278  36.451   1.716
16334W        W80542  23.150  31.579  10.531
16335W        W80543  35.014  16.176  11.492
16336W        W80544   3.870   8.299  11.906
16337W        W80545  10.306  33.475   1.388
16338W        W80546  29.001  16.162   2.247
16339W        W80547  23.528   5.902   2.347
16340W        W80548   6.207  26.562  12.044
16341W        W80549  35.106  43.425  11.093
16342W        W80550  32.974  17.570   2.340
16343W        W80551  27.129  34.051  12.862
16344W        W80552  40.334  44.879   0.953
16345W        W80553   8.732  20.565   0.786
16346W        W80554  19.247  15.704  11.120
16347W        W80555  36.056  11.314  14.773
16348W        W80556  12.790   0.925  12.348
16349W        W80557  42.980  34.596  11.489
16350W        W80558  15.095   3.245   4.696
16351W        W80559  43.873  35.442   9.922
16352W        W80560  39.814  22.605  12.532
16353W        W80561  10.319  15.744   4.117
16354W        W80562  17.651  37.387  10.415
16355W        W80563   2.393  27.585   1.368
16356W        W80564  14.146  31.979  10.550
16357W        W80565  31.445  28.494   1.331
16358W        W80566  33.931  40.530   0.326
16359W        W80567  29.053   9.186   4.142
16360W        W80568  17.290  13.128   1.744
16361W        W80569   7.203  43.993   1.721
16362W        W80570   9.395  22.039  13.509
16363W        W80571  41.392  28.116   0.796
16364W        W80572  21.572  34.902  11.433
16365W        W80573  38.514   3.311  11.878
16366W        W80574  36.356   3.795  14.290
16367W        W80575  27.516  31.535   2.180
16368W        W80576  26.964  44.369  11.866
16369W        W80577  28.608  21.615  14.438
16370W        W80578  19.072  13.240  12.383
16371W        W80579   3.221  19.622  11.986
16372W        W80580  23.153  24.126  10.542
16373W        W80581  20.639  21.678  12.456
16374W        W80582  35.469  13.119  13.953
16375W        W80583  43.321  35.482   4.782
16376W        W80584  29.068  37.441   1.270
16377W        W80585  13.105  29.137  12.397
16378W        W80586  33.522   7.191   1.812
16379W        W80587  10.230  24.992   4.773
16380W        W80588  19.092  32.093   1.348
16381W        W80589  15.808  15.298   3.665
16382W        W80590   2.403  20.608   3.239
16383W        W80591  24.181   8.868  11.454
16384W        W80592  13.209  33.620   4.161
16385W        W80593   5.430  18.772  11.536
16386W        W80594  26.011  12.336   4.343
16387W        W80595  28.102   5.251   4.751
16388W        W80596  43.343  13.256  11.958
16389W        W80597  31.068  35.879   3.709
16390W        W80598  11.326   6.763   0.766
16391W        W80599  16.224  15.234  11.543
16392W        W80600  34.473   3.315  14.821
16393W        W80601  11.354   0.775   2.408
16394W        W80602  29.003  20.032  14.507
16395W        W80603   6.372  21.697  12.991
16396W        W80604  44.451  11.282   4.694
16397W        W80605  11.846  37.002   0.382
16398W        W80606   9.357  21.577   3.857
16399W        W80607  36.880   1.379   3.845
16400W        W80608   6.723   5.414   3.796
16401W        W80609   4.739  11.291   0.269
16402W        W80610  10.695  17.276  10.560
16403W        W80611  40.333  11.683  11.857
16404W        W80612   9.692   9.669  13.937
16405W        W80613   2.798  30.155  11.468
16406W        W80614  11.170  43.846   4.688
16407W        W80615  32.458  33.026  13.822
16408W        W80616  22.553  14.258   0.332
16409W        W80617   4.865  41.509  14.909
16410W        W80618  34.459  30.065   4.198
16411W        W80619  14.669   3.805  11.010
16412W        W80620  11.701  19.068  11.587
16413W        W80621  35.878  28.573   4.628
16414W        W80622  42.817  32.567   3.707
16415W        W80623  25.557  18.155  11.882
16416W        W80624  40.471  16.626  10.092
16417W        W80625  16.308  42.992   3.246
16418W        W80626  21.112   0.830  13.824
16419W        W80627  40.010   1.736  11.427
16420W        W80628   4.712  35.056   4.661
16421W        W80629  19.281  11.836  14.473
16422W        W80630  22.173  19.114   1.873
16423W        W80631  41.426  38.888   0.437
16424W        W80632  21.241  11.722  13.831
16425W        W80633  14.224  43.892  11.465
16426W        W80634   3.449   0.902   5.262
16427W        W80635   1.387  12.662   2.274
16428W        W80636  29.646  15.324   2.333
16429W        W80637   0.926   2.340   0.334
16430W        W80638   9.749   7.787  12.965
16431W        W80639  38.986   0.445   1.316
16432W        W80640  35.366   2.821  11.405
16433W        W80641  11.629  24.108   4.739
16434W        W80642  11.785  12.710   2.859
16435W        W80643  29.965  36.526  10.490
16436W        W80644  24.643  17.113   3.221
16437W        W80645  43.909   4.910  13.511
16438W        W80646   8.300  10.864   1.810
16439W        W80647  20.107  10.833   2.268
16440W        W80648  40.879  31.498  10.488
16441W        W80649  17.693  42.302   4.115
16442W        W80650  35.577   4.434  12.343
16443W        W80651   9.155  41.903   2.838
16444W        W80652  38.998  37.455   4.703
16445W        W80653  22.539  14.242  12.833
16446W        W80654   1.293  33.945  14.358
16447W        W80655  28.132  34.038  14.898
16448W        W80656  38.936  19.163  14.356
16449W        W80657  26.059  24.597  11.947
16450W        W80658  36.957  29.576  12.930
16451W        W80659   7.364  22.107   4.631
16452W        W80660   6.768   0.851  11.944
16453W        W80661  28.445  32.092  12.844
16454W        W80662  24.604  40.008  13.339
16455W        W80663  37.850  24.716   4.350
16456W        W80664   7.789  30.061  14.321
16457W        W80665  32.446  34.872   3.243
16458W        W80666  33.496  12.845   3.647
16459W        W80667  35.485  34.483   4.802
16460W        W80668  42.924  38.975   0.301
16461W        W80669  21.126  29.136   4.115
16462W        W80670  32.911  12.627  10.943
16463W        W80671  27.180  28.066  14.794
16464W        W80672  21.033  18.701   4.264
16465W        W80673   8.354   0.930  11.046
16466W        W80674  36.548  40.889   1.238
16467W        W80675  29.563  18.758  14.007
16468W        W80676  24.185  40.023  11.546
16469W        W80677  40.529   4.816   2.275
16470W        W80678  33.125  43.501  13.448
16471W        W80679  40.449  21.644  12.860
16472W        W80680  11.776  26.083  13.427
16473W        W80681   5.700  44.779  12.841
16474W        W80682  14.290  33.070   0.323
16475W        W80683  18.656  36.978  11.973
16476W        W80684  22.068   3.860   1.844
16477W        W80685  28.166  23.127  13.815
16478W        W80686  18.549  19.257   3.699
16479W        W80687  19.739  16.090  12.948
16480W        W80688  11.809  31.432  11.126
16481W        W80689   2.259   3.441   0.292
16482W        W80690  31.078   4.887  10.901
16483W        W80691  11.187  19.279   4.194
16484W        W80692  29.608  26.679   1.316
16485W        W80693   8.250  17.782   2.752
16486W        W80694  27.575  26.126  13.895
16487W        W80695  10.323  15.623   2.887
16488W        W80696  44.336  15.261   1.332
16489W        W80697  18.067   8.330   2.815
16490W        W80698  30.121  14.721   1.364
16491W        W80699   3.429  29.605   2.388
16492W        W80700  22.629  35.437   4.293
16493W        W80701  14.693   8.691  13.946
16494W        W80702  22.513  36.576  13.539
16495W        W80703  42.883   7.764   1.714
16496W        W80704   2.911  39.003  13.819
16497W        W80705  24.190  43.445  12.883
16498W        W80706  43.008  15.748   0.370
16499W        W80707  33.124  43.438  12.565
16500W        W80708  24.035  23.216   2.865
16501W        W80709  26.674  21.565   4.236
16502W        W80710  10.670  26.654   1.264
16503W        W80711  36.378   0.776   1.930
16504W        W80712  38.500   6.401   2.662
16505W        W80713  32.473  28.123   0.816
16506W        W80714  33.614  25.485   2.299
16507W        W80715  30.970  33.532   3.367
16508W        W80716  44.376  23.038   2.770
16509W        W80717  16.736  26.077  10.598
16510W        W80718  14.245  12.275   0.902
16511W        W80719  24.524  37.507  10.633
16512W        W80720  33.115   9.667  14.894
16513W        W80721  31.077  37.968   0.754
16514W        W80722  41.412  18.134   3.267
16515W        W80723  19.692   4.363  14.339
16516W        W80724  23.175  14.107   3.731
16517W        W80725  22.618  44.810  13.433
16518W        W80726  39.356  36.909   2.872
16519W        W80727  18.130  10.667  11.869
16520W        W80728  18.145  28.680   3.196
16521W        W80729   5.808   0.492   3.189
16522W        W80730  32.623  28.057  11.405
16523W        W80731  17.741  42.412  14.362
16524W        W80732   9.230  10.679  12.423
16525W        W80733   5.283  10.194  13.874
16526W        W80734  33.449  11.840  12.002
16527W        W80735  39.996  21.214  14.873
16528W        W80736  40.030  21.576  12.423
16529W        W80737   4.419   7.216   4.207
16530W        W80738  10.734   3.372  10.642
16531W        W80739  44.893   7.261   1.437
16532W        W80740  15.125   7.671  11.559
16533W        W80741   2.349  18.143  12.512
16534W        W80742  10.285  42.329  11.095
16535W        W80743  18.192  22.595  10.604
16536W        W80744  27.447  15.595  13.832
16537W        W80745  32.625  33.381  10.044
16538W        W80746  11.259  11.820  13.857
16539W        W80747  20.030  23.603  13.000
16540W        W80748  43.458  43.003  11.549
16541W        W80749  41.427  17.163   9.668
16542W        W80750  29.480  28.985  12.359
16543W        W80751  13.345  38.423   1.362
16544W        W80752   1.463   7.174  10.580
16545W        W80753  38.480  17.210   4.305
16546W        W80754  26.543   1.298   2.230
16547W        W80755  41.408  43.289  10.547
16548W        W80756  41.966  24.186   3.203
16549W        W80757  26.649  22.996  11.857
16550W        W80758  17.144  27.676   0.255
16551W        W80759  37.450   4.234  11.554
16552W        W80760  21.716  29.478   1.919
16553W        W80761   9.871   5.770   0.849
16554W        W80762  33.541   9.808   3.315
16555W        W80763  21.238  31.605   0.896
16556W        W80764  24.057  23.578   0.811
16557W        W80765  16.272  21.031  13.982
16558W        W80766  33.474  26.502   0.901
16559W        W80767  39.468   9.707   1.845
16560W        W80768  28.950  43.476   3.171
16561W        W80769  42.971   2.414  14.770
16562W        W80770  39.350  14.226  14.329
16563W        W80771  44.495  39.052  13.797
16564W        W80772  23.041  24.578   1.368
16565W        W80773  39.464  36.035  10.461
16566W        W80774  37.455  32.920   4.749
16567W        W80775  32.080  27.591   4.144
16568W        W80776   4.920   3.890   0.959
16569W        W80777  11.834  22.083  13.538
16570W        W80778   1.891  42.366  10.632
16571W        W80779  13.116  14.702  13.506
16572W        W80780  31.501  37.057   0.815
16573W        W80781  29.521  15.085   3.372
16574W        W80782  22.141  36.439   4.218
16575W        W80783  37.912   3.818  11.908
16576W        W80784  39.065  18.748   3.744
16577W        W80785  33.892  32.552   3.297
16578W        W80786  35.961  30.113   2.224
16579W        W80787  12.358  11.198   4.267
16580W        W80788   2.907  36.532  14.313
16581W        W80789  39.559   1.832   9.664
16582W        W80790   7.187  23.557   4.677
16583W        W80791  40.477  28.615  13.881
16584W        W80792  40.940  22.232  11.952
16585W        W80793  13.226   8.734  11.482
16586W        W80794  15.747  29.996  11.924
16587W        W80795  15.609  32.477  14.441
16588W        W80796  14.617  43.879   1.358
16589W        W80797  12.332  12.736  14.478
16590W        W80798   0.975  12.313  13.452
16591W        W80799  32.524  27.956   9.948
16592W        W80800  35.857  38.440  10.506
16593W        W80801  37.484  10.182   2.766
16594W        W80802  37.364  35.939   2.405
16595W        W80803  37.539  39.475  14.766
16596W        W80804  19.045  41.934  14.942
16597W        W80805  18.217   0.335   3.655
16598W        W80806   3.449  24.578  12.897
16599W        W80807   6.852  26.627   3.355
16600W        W80808  31.518  33.624   0.791
16601W        W80809  16.215   5.728   4.199
16602W        W80810  43.354  36.560   2.690
16603W        W80811   8.297   1.874  13.901
16604W        W80812  10.329  10.720   9.931
16605W        W80813  37.962  12.343   1.766
16606W        W80814  21.531  25.598   1.260
16607W        W80815   4.211  32.594  11.916
16608W        W80816  20.062   7.732  12.845
16609W        W80817   3.310   6.383  10.961
16610W        W80818  11.240   9.646   2.890
16611W        W80819  30.046  44.830  12.867
16612W        W80820  33.088  18.787   4.701
16613W        W80821   4.271  18.621  11.084
16614W        W80822   0.463   2.961   0.301
16615W        W80823   6.378   3.289   4.266
16616W        W80824  37.553  17.186   5.097
16617W        W80825  29.603  10.289  10.914
16618W        W80826   0.475  14.613  10.435
16619W        W80827  37.582  27.684  14.862
16620W        W80828  22.995  14.159   1.441
16621W        W80829  20.101  10.335  13.947
16622W        W80830   6.848   2.304   4.793
16623W        W80831  19.586   7.896   3.666
16624W        W80832  16.676   5.744   1.914
16625W        W80833  10.667  35.958   0.389
16626W        W80834  26.548  23.496   3.326
16627W        W80835  18.253  12.356  11.863
16628W        W80836   1.825  24.630  10.494
16629W        W80837   1.873  14.640  13.821
16630W        W80838  32.131  33.886  14.011
16631W        W80839  17.596  39.362   3.191
16632W        W80840  20.569  29.630   4.766
16633W        W80841  27.679  10.752   1.720
16634W        W80842  32.637   7.417  14.887
16635W        W80843  17.140  33.526   2.703
16636W        W80844   9.697   2.949  13.313
16637W        W80845  41.469  36.478  13.792
16638W        W80846  33.062  37.037  12.473
16639W        W80847  28.074  29.934  12.084
16640W        W80848   2.302  25.524   0.813
16641W        W80849  41.858  38.491  11.079
16642W        W80850  14.212   6.691   3.162
16643W        W80851   0.397  33.560   0.438
16644W        W80852  27.143  13.164  14.964
16645W        W80853  33.938  23.064   4.682
16646W        W80854  27.468  33.488   3.235
16647W        W80855  16.581  30.006   4.249
16648W        W80856  15.143   0.781   3.807
16649W        W80857  15.803  38.866   5.317
16650W        W80858  13.167  22.564  13.809
16651W        W80859  39.465   9.203   2.769
16652W        W80860   7.727  26.161   1.307
16653W        W80861  34.496  30.934   4.165
16654W        W80862  29.049   7.733   2.720
16655W        W80863  13.171   0.899   0.298
16656W        W80864  21.600  44.806   2.691
16657W        W80865  43.378   3.791   1.726
16658W        W80866  37.011  30.532  12.522
16659W        W80867  39.553  19.250  11.087
16660W        W80868  29.592  41.302  14.436
16661W        W80869  32.422  21.238  10.467
16662W        W80870   4.221  14.778  12.009
16663W        W80871  12.123  22.522  13.510
16664W        W80872   0.949  25.030  13.513
16665W        W80873  18.745  31.414  12.550
16666W        W80874  35.385  37.879  12.520
16667W        W80875  15.605  44.496  12.057
16668W        W80876  43.424   3.914   0.438
16669W        W80877  21.019  16.588  14.846
16670W        W80878  40.857  25.119   5.156
16671W        W80879   8.675  43.953  11.534
16672W        W80880  37.518  36.474  11.112
16673W        W80881  16.211  35.375   0.341
16674W        W80882  28.127  35.518   3.808
16675W        W80883  26.024   5.269  11.590
16676W        W80884  20.755  17.283   4.627
16677W        W80885  41.351  19.570  14.448
16678W        W80886  16.302  35.892   0.841
16679W        W80887  24.191   6.407   0.887
16680W        W80888  24.574  18.679   3.381
16681W        W80889  20.146  24.614  11.437
16682W        W80890   3.291  21.717  12.942
16683W        W80891  10.301  13.320   1.736
16684W        W80892   6.857   9.719  10.411
16685W        W80893  26.994  28.141   3.263
16686W        W80894  14.278  33.006   1.856
16687W        W80895   5.922  12.342   3.780
16688W        W80896  18.167  17.561  12.001
16689W        W80897  11.345   4.770  13.953
16690W        W80898   4.399  25.553  11.533
16691W        W80899  10.367   1.344   3.227
16692W        W80900  24.132  27.991  13.805
16693W        W80901   9.307  13.771   1.697
16694W        W80902   3.848   3.387   0.839
16695W        W80903  42.417  41.923  14.933
16696W        W80904  42.439  23.599   4.297
16697W        W80905  22.106  26.161  11.081
16698W        W80906  38.947   9.812   4.209
16699W        W80907  37.353  38.551   1.221
16700W        W80908  29.100  27.047  12.866
16701W        W80909  20.087  13.827   3.300
16702W        W80910   4.827   0.470   4.806
16703W        W80911   7.392  43.899  14.343
16704W        W80912   9.166  10.720  10.537
16705W        W80913  26.703  14.130   4.240
16706W        W80914   1.353  26.545  12.365
16707W        W80915  39.995  42.848  14.489
16708W        W80916  27.626  28.640   0.349
16709W        W80917  17.703  10.168   1.751
16710W        W80918  37.392   8.212  13.818
16711W        W80919  30.996   6.848  12.397
16712W        W80920  13.342  44.827   3.206
16713W        W80921  11.174  10.256   0.905
16714W        W80922  44.831  16.575   0.872
16715W        W80923  28.993  22.184   2.727
16716W        W80924  13.260  44.986   1.864
16717W        W80925  27.127  24.591   0.273
16718W        W80926  31.979   0.456   2.319
16719W        W80927  16.165   0.367   3.300
16720W        W80928  28.158  30.084   2.868
16721W        W80929  17.122  39.983   0.865
16722W        W80930  38.532   7.236  14.409
16723W        W80931  37.385  23.115  11.375
16724W        W80932  29.458  21.166  12.424
16725W        W80933  24.486  32.059   4.352
16726W        W80934  11.282   8.677  12.441
16727W        W80935  33.126   7.765   2.893
16728W        W80936  29.544  44.957  11.545
16729W        W80937  28.122  14.669  12.424
16730W        W80938  23.169  14.690   4.664
16731W        W80939  18.250  39.922   3.690
16732W        W80940   1.954  10.155   0.850
16733W        W80941  24.004  27.535   3.702
16734W        W80942   2.313  26.084   0.824
16735W        W80943  44.794  33.092  12.860
16736W        W80944  41.882  39.482   4.628
16737W        W80945  41.970   6.347  11.878
16738W        W80946   2.893   9.867  13.883
16739W        W80947  19.762   8.708  10.621
16740W        W80948  12.144   6.868  10.935
16741W        W80949  18.601  19.217  11.447
16742W        W80950   0.936   3.349   3.822
16743W        W80951  25.133   3.759   1.868
16744W        W80952  33.437  22.573   3.224
16745W        W80953  33.103  38.984  11.856
16746W        W80954  25.506   7.910   4.741
16747W        W80955   3.461  31.962   3.695
16748W        W80956  32.427  16.730  14.347
16749W        W80957   9.726  33.078  14.778
16750W        W80958   8.367   6.304   4.344
16751W        W80959  40.513  15.659   2.844
16752W        W80960  38.409  34.022   1.832
16753W        W80961   9.647   9.296  14.812
16754W        W80962  27.964  39.034   2.296
16755W        W80963   8.358  29.446   0.889
16756W        W80964  38.434  13.208  12.578
16757W        W80965   8.687   9.301   4.660
16758W        W80966  21.039   1.968  14.998
16759W        W80967   0.815  31.923   0.274
16760W        W80968  16.093   0.893   3.367
16761W        W80969  11.304  24.534  11.603
16762W        W80970  10.311  24.520  14.482
16763W        W80971   6.723   6.271  14.961
16764W        W80972  25.517  31.633  12.383
16765W        W80973  25.969   1.416  12.989
16766W        W80974  19.229   0.965   3.214
16767W        W80975  18.150  12.684  10.901
16768W        W80976  15.598  42.311  12.050
16769W        W80977  20.638  15.662   2.700
16770W        W80978  40.917  35.436   0.365
16771W        W80979  44.264   8.353   1.880
16772W        W80980  10.774  41.008   2.900
16773W        W80981   4.229  31.547   2.790
16774W        W80982  13.212   0.815  13.320
16775W        W80983  24.648  18.631   2.679
16776W        W80984  37.051  35.503   4.722
16777W        W80985  14.669   6.266   2.743
16778W        W80986  20.706  28.042   4.178
16779W        W80987  11.846  41.967  12.403
16780W        W80988  14.697  40.808   0.326
16781W        W80989  31.046   9.816   0.910
16782W        W80990   4.943   0.962   3.867
16783W        W80991  22.012  30.458  13.041
16784W        W80992  26.634   7.253   2.766
16785W        W80993  27.188  29.582  11.589
16786W        W80994   3.436  36.562  14.948
16787W        W80995  25.072  32.585  10.514
16788W        W80996  44.807  23.636  14.362
16789W        W80997  18.216  27.045  12.096
16790W        W80998   3.230  36.555   0.817
16791W        W80999   8.718  18.668   5.319
16792W        W81000  32.887  42.897   1.261
16793W        W81001  27.508   1.889  11.462
16794W        W81002   9.696  12.623  13.499
16795W        W81003  18.075  34.494  13.461
16796W        W81004  34.475  40.010   4.331
16797W        W81005  43.516  32.391  13.798
16798W        W81006  18.274  25.016   0.440
16799W        W81007  13.605  17.271  11.491
16800W        W81008  13.663   7.323  13.001
16801W        W81009  37.886  16.627   0.887
16802W        W81010   5.718  18.155   1.833
16803W        W81011  19.271  19.592   3.348
16804W        W81012  39.959  12.236  11.405
16805W        W81013   7.356  36.081  10.501
16806W        W81014  13.838  31.966  14.514
16807W        W81015  35.975  36.493  13.512
16808W        W81016  38.378   0.391  14.404
16809W        W81017   9.854  32.937   3.847
16810W        W81018   3.764  14.659  13.419
16811W        W81019  44.991   7.823   2.230
16812W        W81020   8.175  37.883  10.464
16813W        W81021  34.394  26.017  10.972
16814W        W81022   2.795  14.267  10.969
16815W        W81023  25.053  42.362  12.958
16816W        W81024  13.309  29.122  11.470
16817W        W81025  36.000  40.957   4.328
16818W        W81026  23.651  22.514  10.962
16819W        W81027  13.677  39.000  11.482
16820W        W81028  39.396  22.658   2.317
16821W        W81029  41.860   1.365   1.918
16822W        W81030  12.254  29.584   3.683
16823W        W81031  24.614  44.482   0.353
16824W        W81032  22.188  20.113  14.839
16825W        W81033   4.893  25.543   2.896
16826W        W81034  25.174  22.604  13.881
16827W        W81035   0.292  42.504   2.734
16828W        W81036   6.257  37.527   5.321
16829W        W81037  30.964  42.871  14.848
16830W        W81038  29.489  44.443  13.812
16831W        W81039   8.709  20.090  12.079
16832W        W81040  13.690  23.064  12.409
16833W        W81041  17.066  44.995   0.292
16834W        W81042   3.227  18.641   2.246
16835W        W81043  33.587  13.316  11.887
16836W        W81044  25.547   2.727  10.643
16837W        W81045  37.550   7.782  14.001
16838W        W81046  36.886  40.503  13.513
16839W        W81047   0.491  23.638  12.087
16840W        W81048   5.252  32.394   2.842
16841W        W81049   5.732  30.491   2.226
16842W        W81050   7.689  21.124   1.287
16843W        W81051  44.297   7.337   3.697
16844W        W81052  36.422  35.425   3.695
16845W        W81053   9.876  11.669   0.333
16846W        W81054   6.706   3.850   3.381
16847W        W81055  40.936  17.119  14.022
16848W        W81056  39.857  41.986   2.704
16849W        W81057   9.240   7.228  11.402
16850W        W81058  31.637  31.983   2.302
16851W        W81059  35.007  17.585  13.373
16852W        W81060  10.792  38.346   3.159
16853W        W81061  30.653  42.391  13.450
16854W        W81062  14.094  32.549  11.449
16855W        W81063  27.006  20.610  12.982
16856W        W81064  40.050  19.765  13.903
16857W        W81065  43.270  36.019   3.631
16858W        W81066   3.752  22.528   3.735
16859W        W81067  35.397  44.275   0.278
16860W        W81068  17.657   9.790   3.854
16861W        W81069  39.317  30.628  12.942
16862W        W81070  41.351  13.753   1.443
16863W        W81071  21.159  37.030   0.816
16864W        W81072  34.906  13.802   0.893
16865W        W81073  41.361  25.662  13.965
16866W        W81074   4.797  26.956   3.378
16867W        W81075  33.086  10.751  13.510
16868W        W81076  36.059  28.089   1.427
16869W        W81077  23.048  18.268   4.144
16870W        W81078  24.585  23.095  14.895
16871W        W81079  39.831  12.328   3.763
16872W        W81080  13.632  19.780   2.775
16873W        W81081   8.870   5.802  11.937
16874W        W81082  33.116  22.067   0.881
16875W        W81083  18.141  15.213   1.428
16876W        W81084  36.522  18.656   4.673
16877W        W81085  25.658  29.580  11.922
16878W        W81086  31.627   5.341   1.755
16879W        W81087  28.444  30.084   4.779
16880W        W81088   5.718  10.174   0.859
16881W        W81089  23.177  24.621  13.472
16882W        W81090  16.730  35.597  12.453
16883W        W81091  38.974  22.524   4.235
16884W        W81092  41.496   6.416  14.511
16885W        W81093   2.370  42.025  13.314
16886W        W81094   0.448  40.007  10.481
16887W        W81095   9.263  33.575  12.935
16888W        W81096   2.373  41.468  10.409
16889W        W81097  42.500  24.525   4.621
16890W        W81098  36.000  44.760  10.404
16891W        W81099  19.754  38.903   5.201
16892W        W81100  21.246   0.345   0.908
16893W        W81101   6.360  12.238   3.233
16894W        W81102  19.577  26.045   1.385
16895W        W81103  42.367  33.103   3.280
16896W        W81104  37.512  39.939   1.349
16897W        W81105  35.534  15.221   0.894
16898W        W81106  21.047  10.815   1.378
16899W        W81107  40.008  14.758   2.833
16900W        W81108  13.753  36.375   2.322
16901W        W81109  25.484  21.249  11.482
16902W        W81110   0.928   3.915   1.350
16903W        W81111  42.968  27.162  12.076
16904W        W81112  27.128  18.208  13.027
16905W        W81113  11.754  43.880  11.496
16906W        W81114  12.838  42.972  13.361
16907W        W81115   4.784  27.965  14.808
16908W        W81116  29.531  35.915  10.126
16909W        W81117   1.463  44.935   4.190
16910W        W81118  20.182  27.110   4.221
16911W        W81119  44.928  18.242   4.136
16912W        W81120  38.044  18.197  12.840
16913W        W81121   4.237   2.790   3.298
16914W        W81122   2.773  24.141   2.338
16915W        W81123  29.938   3.834   1.421
16916W        W81124  12.272  22.633  11.420
16917W        W81125   3.239  18.127  12.425
16918W        W81126  15.731  20.580   4.806
16919W        W81127  20.044  34.965   3.146
16920W        W81128   4.210  18.263  14.361
16921W        W81129  15.692  30.413   4.200
16922W        W81130  32.073  13.224  14.327
16923W        W81131   6.850  31.409  13.818
16924W        W81132  43.449  24.034  13.847
16925W        W81133   6.887  26.182  11.083
16926W        W81134  16.252  35.443  11.572
16927W        W81135  13.810  18.222  10.579
16928W        W81136  16.613  39.981  13.928
16929W        W81137  30.582  42.442  13.040
16930W        W81138  40.926  35.023   3.808
16931W        W81139  27.477  29.103   3.215
16932W        W81140  12.194   9.180   0.455
16933W        W81141   8.346   0.481   3.294
16934W        W81142  26.124  36.452  13.906
16935W        W81143  15.763  17.191   1.265
16936W        W81144  39.891  44.802  12.826
16937W        W81145  16.079  29.462   4.170
16938W        W81146   9.764   2.932  10.482
16939W        W81147  43.297  11.704  13.492
16940W        W81148  30.937   2.429  13.385
16941W        W81149  11.783  40.476  12.934
16942W        W81150  23.008  44.451   1.794
16943W        W81151  16.218  11.715   2.860
16944W        W81152  37.553  34.549  13.898
16945W        W81153  36.477  16.105  11.073
16946W        W81154   9.225   1.905  11.016
16947W        W81155  30.157  39.442  11.557
16948W        W81156  38.905  42.009  11.414
16949W        W81157   7.339  42.975  10.415
16950W        W81158  36.022  39.469  14.468
16951W        W81159  22.729  34.066  14.925
16952W        W81160   3.880  11.190   2.208
16953W        W81161  19.131  35.994  13.521
16954W        W81162  19.042   4.815   4.824
16955W        W81163  43.893  22.007   1.379
16956W        W81164  39.039  29.511  11.971
16957W        W81165  23.520  41.943  12.988
16958W        W81166   9.309  28.980   3.201
16959W        W81167  42.504  23.024  11.507
16960W        W81168  43.894  17.646  12.925
16961W        W81169  35.384  30.564  13.351
16962W        W81170  20.675  14.770  14.432
16963W        W81171  17.670  16.307  14.513
16964W        W81172  37.579  19.667  12.458
16965W        W81173   0.307  12.304   3.353
16966W        W81174  26.662  11.803  14.367
16967W        W81175  27.637  39.816   4.603
16968W        W81176   6.819   4.381  13.019
16969W        W81177  25.557  10.673   2.896
16970W        W81178   9.658  19.687  13.971
16971W        W81179   0.970  28.559   3.803
16972W        W81180  29.652  17.300   3.176
16973W        W81181   3.337   9.217   3.820
16974W        W81182  42.822   5.799   9.948
16975W        W81183  41.830  32.122  12.901
16976W        W81184  20.115   4.345  10.628
16977W        W81185  20.097  19.593  10.620
16978W        W81186  23.201  33.570  13.902
16979W        W81187  13.114   5.380   2.894
16980W        W81188  17.094  28.149  14.997
16981W        W81189  15.134  20.652   4.631
16982W        W81190  14.180  24.997   3.775
16983W        W81191  26.679  19.066   4.748
16984W        W81192  15.708  31.897   4.167
16985W        W81193  29.124  18.748   4.170
16986W        W81194  19.066   9.824   4.318
16987W        W81195  19.599   8.338   4.298
16988W        W81196  32.979  28.004  11.943
16989W        W81197  38.984  14.334   1.317
16990W        W81198   8.332  32.064  11.902
16991W        W81199  15.193  23.629   1.348
16992W        W81200  22.733   2.765  14.389
16993W        W81201   3.295   1.929  12.950
16994W        W81202  13.750  25.974  14.844
16995W        W81203   9.826  36.853   3.157
16996W        W81204  39.901  31.086  10.954
16997W        W81205  17.170  14.323  10.621
16998W        W81206  44.435   4.361   3.345
16999W        W81207  15.105  31.045  10.462
17000W        W81208  40.927  14.319  14.834
17001W        W81209  40.882  20.132  14.829
17002W        W81210   7.386  42.380  10.507
17003W        W81211   9.271  13.290   2.192
17004W        W81212   8.245  14.653   4.761
17005W        W81213  22.046   8.213  11.497
17006W        W81214  13.243  40.310  10.605
17007W        W81215  43.994  25.491   3.345
17008W        W81216   4.305  27.559  12.859
17009W        W81217  23.987  43.838   3.774
17010W        W81218   2.279   9.218  13.011
17011W        W81219  14.724  10.856  13.907
17012W        W81220  37.833  26.208  14.807
17013W        W81221  13.765  10.215   1.766
17014W        W81222   5.277  34.567   2.754
17015W        W81223  35.079  35.509   1.261
17016W        W81224  40.866  43.965   1.336
17017W        W81225   8.362  25.704  10.492
17018W        W81226  22.018  25.548  12.060
17019W        W81227  35.554  43.465   4.350
17020W        W81228  14.163  27.493  12.018
17021W        W81229  15.155   5.256   2.408
17022W        W81230  39.890  26.488   2.336
17023W        W81231  41.838  40.022   9.981
17024W        W81232  23.224  18.774  13.795
17025W        W81233  35.897   0.958   4.730
17026W        W81234  37.028   8.851  11.010
17027W        W81235  26.096   0.283   2.365
17028W        W81236  11.700  31.147   1.792
17029W        W81237  16.753  23.082  13.038
17030W        W81238  14.102  22.038   2.882
17031W        W81239  14.262  44.825   2.749
17032W        W81240  32.006  31.093  13.825
17033W        W81241   7.257  41.345   3.817
17034W        W81242  39.541  39.485  11.382
17035W        W81243  36.443  28.678  10.567
17036W        W81244   6.297  31.013   2.311
17037W        W81245  24.696  34.460  11.377
17038W        W81246   7.757  13.167  10.055
17039W        W81247   9.392  24.036   4.234
17040W        W81248  28.131   2.426   2.733
17041W        W81249  33.526  27.592   1.288
17042W        W81250  21.581  16.746   2.809
17043W        W81251   6.206  17.156   4.704
17044W        W81252  44.380   8.188   0.281
17045W        W81253  15.584   1.298   4.266
17046W        W81254  15.746   0.893  14.288
17047W        W81255  38.421   4.921  12.031
17048W        W81256  33.611  24.996   4.685
17049W        W81257  43.770  31.514  11.524
17050W        W81258  26.527  27.146   2.410
17051W        W81259   1.883   1.790  11.989
17052W        W81260   6.219  21.227   1.302
17053W        W81261  35.534  40.049  10.955
17054W        W81262  14.718  16.129  12.091
17055W        W81263  22.743  25.200  13.411
17056W        W81264  42.313  19.047  10.564
17057W        W81265  29.946  24.505  13.394
17058W        W81266  31.898   3.847   4.196
17059W        W81267  38.393  34.110   2.386
17060W        W81268  14.093   9.211  12.042
17061W        W81269  20.146  17.126   0.915
17062W        W81270  20.559  37.439   3.252
17063W        W81271  44.347  11.355  10.444
17064W        W81272  26.492  15.668  10.069
17065W        W81273   9.244  16.273   1.908
17066W        W81274  33.106  22.083  13.863
17067W        W81275  22.116  18.723  13.954
17068W        W81276  36.463  29.055   1.791
17069W        W81277  10.256  14.768  13.430
17070W        W81278  28.503  25.656  12.853
17071W        W81279  34.118  11.363   0.395
17072W        W81280  43.419   0.760  13.884
17073W        W81281   5.263  41.423   4.174
17074W        W81282  31.064   5.283   1.389
17075W        W81283  38.451  11.797   0.851
17076W        W81284  20.727  20.706   0.322
17077W        W81285  41.021  29.007   4.194
17078W        W81286  15.221  13.225   3.780
17079W        W81287   7.321  42.287  12.538
17080W        W81288  31.958  20.070   2.235
17081W        W81289  13.616   0.757  11.376
17082W        W81290  32.500  31.511  12.060
17083W        W81291  38.958  37.023  13.434
17084W        W81292  16.806  42.978  14.980
17085W        W81293  43.444   7.778   4.334
17086W        W81294  15.666   8.737   1.834
17087W        W81295  11.837  17.561   2.251
17088W        W81296  14.241   1.293  13.020
17089W        W81297  10.224  40.477  11.928
17090W        W81298  43.427  37.888  14.946
17091W        W81299  28.605   0.927   2.667
17092W        W81300  30.505  34.408   0.375
17093W        W81301   1.791  26.185  13.989
17094W        W81302  29.924  33.595  11.943
17095W        W81303  15.628   6.709  11.052
17096W        W81304  29.443  34.515  10.120
17097W        W81305  21.214  25.155   2.884
17098W        W81306   1.456  23.062  10.585
17099W        W81307   2.281  23.066  14.279
17100W        W81308  44.496   1.334   3.780
17101W        W81309  34.077  36.082  12.940
17102W        W81310  22.688  41.892  12.990
17103W        W81311  23.574  14.722  14.788
17104W        W81312  30.910  24.139   4.190
17105W        W81313  14.776   1.734   5.198
17106W        W81314   6.269  15.284   2.684
17107W        W81315   5.869  19.198   3.805
17108W        W81316  12.116   6.198   3.167
17109W        W81317  35.931   2.803  12.455
17110W        W81318  22.039  10.247   0.754
17111W        W81319  34.466  36.016   3.797
17112W        W81320  16.110  16.141  13.022
17113W        W81321  32.006  17.672  10.960
17114W        W81322  30.148   1.814  13.838
17115W        W81323  22.590  10.817   1.731
17116W        W81324  25.589  19.675  13.457
17117W        W81325  15.327  28.452  12.853
17118W        W81326  18.619  15.667  10.951
17119W        W81327  24.176   5.299  13.017
17120W        W81328  12.715   4.427  10.645
17121W        W81329  21.110  12.831  13.500
17122W        W81330  41.870  18.703  13.054
17123W        W81331   6.704  12.165   3.319
17124W        W81332  34.397  22.016  14.316
17125W        W81333  22.188   2.935  10.619
17126W        W81334   8.393  29.479  14.773
17127W        W81335  38.359  31.467  10.488
17128W        W81336   9.759  38.912   4.316
17129W        W81337  26.601  39.937   9.932
17130W        W81338  17.695  31.577  14.870
17131W        W81339  24.026  13.285   4.334
17132W        W81340  24.482   2.940  14.279
17133W        W81341  24.103   1.783   2.317
17134W        W81342   2.910   2.463   5.608
17135W        W81343   4.376   1.861  11.606
17136W        W81344  10.683  24.569  13.463
17137W        W81345  44.009  25.674   4.604
17138W        W81346  27.949  10.307  14.892
17139W        W81347  12.638   0.383  12.960
17140W        W81348   9.156  11.285   2.276
17141W        W81349  12.764  24.702  13.877
17142W        W81350  26.128  25.482   4.702
17143W        W81351  18.230   5.397  11.374
17144W        W81352  16.657  28.053   0.872
17145W        W81353  12.798  22.209   1.859
17146W        W81354  20.690  36.017  11.962
17147W        W81355  15.809  18.063   4.184
17148W        W81356   3.289  27.514  12.094
17149W        W81357  42.454   4.820  13.904
17150W        W81358  12.250  35.933  12.851
17151W        W81359   1.765  16.169   3.701
17152W        W81360  14.677  42.818   0.776
17153W        W81361  28.451  35.105  14.515
17154W        W81362   4.414   6.287   4.655
17155W        W81363  31.646  44.488   2.359
17156W        W81364  28.107  25.205   0.947
17157W        W81365  38.411  25.132   1.279
17158W        W81366  30.048  32.977   0.328
17159W        W81367  24.630  33.118  14.964
17160W        W81368  18.237   9.189  13.885
17161W        W81369   1.397  12.225   2.189
17162W        W81370  18.560  18.120  13.014
17163W        W81371   4.284  30.079   2.187
17164W        W81372   3.374  28.167  11.371
17165W        W81373   1.814  15.140  12.949
17166W        W81374  33.542  21.563   2.288
17167W        W81375  10.678   4.264  11.124
17168W        W81376  32.394  43.792   0.266
17169W        W81377  36.456  11.354  12.528
17170W        W81378  16.251  32.998  10.909
17171W        W81379  20.761   2.746   2.685
17172W        W81380  31.452  37.069   2.236
17173W        W81381  38.910   7.331   4.767
17174W        W81382  41.010  20.153   4.603
17175W        W81383  42.296  32.605  12.956
17176W        W81384   5.879  29.542   1.335
17177W        W81385   6.410  10.304  14.812
17178W        W81386  43.771   1.761  10.904
17179W        W81387  11.194  26.047  13.834
17180W        W81388   9.770   3.227  11.045
17181W        W81389   2.743   7.879   2.715
17182W        W81390  18.761  24.224  10.553
17183W        W81391  34.908  29.583  14.354
17184W        W81392  25.619  38.999  11.453
17185W        W81393  19.267  27.018  14.032
17186W        W81394   1.410  28.168   0.384
17187W        W81395  11.670  12.712  10.506
17188W        W81396  13.767   5.707  13.332
17189W        W81397  41.358  31.490  12.907
17190W        W81398   3.229   3.907  12.467
17191W        W81399  36.093  13.842  13.369
17192W        W81400  12.175  35.009   2.312
17193W        W81401  30.439  35.541  11.007
17194W        W81402  19.157   7.343  14.472
17195W        W81403  32.599  29.169  10.585
17196W        W81404  12.827  17.065   2.368
17197W        W81405  25.662  12.805   1.374
17198W        W81406   4.213  36.511  10.555
17199W        W81407  32.136  15.803   0.274
17200W        W81408  18.279  21.755   0.338
17201W        W81409  41.491  37.839   4.317
17202W        W81410  42.879  26.476   3.385
17203W        W81411  15.280  33.986   3.303
17204W        W81412  15.223  13.676  10.506
17205W        W81413  12.130  40.549  12.342
17206W        W81414  22.590  38.893  11.861
17207W        W81415  23.515  14.614  10.624
17208W        W81416  34.888  33.080  11.480
17209W        W81417   2.916  30.448  13.355
17210W        W81418  19.670  16.177   4.674
17211W        W81419  23.558  11.219   0.864
17212W        W81420   5.399  39.402  13.443
17213W        W81421   0.268  41.948  14.978
17214W        W81422  36.900  41.844  12.832
17215W        W81423  17.687  16.158  10.507
17216W        W81424  18.557   9.801  11.572
17217W        W81425  38.933  21.204   4.746
17218W        W81426   9.166  14.256   3.710
17219W        W81427  24.062   4.336   1.882
17220W        W81428   8.901  12.252   4.130
17221W        W81429   9.276   9.763  12.372
17222W        W81430  14.116  21.164  12.460
17223W        W81431  31.635  19.564   1.718
17224W        W81432  21.063   9.707  12.029
17225W        W81433  21.685  41.985  14.497
17226W        W81434   5.429   0.402  11.422
17227W        W81435  39.917   0.841   3.217
17228W        W81436   3.328  12.330  12.929
17229W        W81437  39.868  15.260  11.566
17230W        W81438  34.945  28.631   2.899
17231W        W81439   4.394  43.407   4.694
17232W        W81440  17.139  36.990   1.895
17233W        W81441  43.792  35.052   0.396
17234W        W81442  12.697   7.900   4.626
17235W        W81443  26.113  38.403  13.985
17236W        W81444  30.447  37.542  10.543
17237W        W81445   3.331  26.163   1.255
17238W        W81446  34.545   3.215  14.030
17239W        W81447  22.131  16.188   0.863
17240W        W81448  20.749   6.350   2.877
17241W        W81449  20.555  23.504   4.660
17242W        W81450  33.059  19.586   4.767
17243W        W81451   7.289  43.833  11.432
17244W        W81452  44.902  10.203   1.750
17245W        W81453  18.728   1.250   2.872
17246W        W81454  23.179  17.679  14.312
17247W        W81455  12.822  21.145  11.503
17248W        W81456  33.941   0.760  10.617
17249W        W81457  20.063  27.945   1.218
17250W        W81458  28.141  34.033   3.782
17251W        W81459  22.999  35.951   0.886
17252W        W81460  21.660  29.431  14.459
17253W        W81461  24.621   3.808   3.180
17254W        W81462  32.514  35.970   1.845
17255W        W81463   5.733  10.157   2.196
17256W        W81464  38.418  20.679  13.482
17257W        W81465  17.205  30.630   0.266
17258W        W81466  43.401  37.556  14.793
17259W        W81467  26.615  29.601  10.592
17260W        W81468  12.320  21.568   3.293
17261W        W81469  39.816  11.303   0.952
17262W        W81470  18.121  19.050  14.959
17263W        W81471  38.353  11.866   1.337
17264W        W81472  38.354  15.114   0.293
17265W        W81473   9.370  16.681  10.493
17266W        W81474  38.473   5.801   2.737
17267W        W81475  32.422  26.641  11.111
17268W        W81476   9.157  12.846   1.798
17269W        W81477  40.503   9.777   3.697
17270W        W81478  39.009  22.529  14.788
17271W        W81479  40.853  38.844   2.206
17272W        W81480  37.936  27.521   3.859
17273W        W81481   6.195  26.539   5.290
17274W        W81482  13.751  41.327  12.436
17275W        W81483  35.370  21.569  14.989
17276W        W81484  37.919  42.520   3.751
17277W        W81485   6.804  42.317   0.344
17278W        W81486  24.040  22.532  14.391
17279W        W81487  30.619  42.913  10.161
17280W        W81488  21.657   6.806   0.860
17281W        W81489  29.006  20.124  11.383
17282W        W81490  40.446  38.838  10.443
17283W        W81491  20.173  38.968   2.665
17284W        W81492  14.651  18.125   4.805
17285W        W81493  32.117  17.247   1.233
17286W        W81494   3.755  22.028   4.193
17287W        W81495  12.825  35.911   1.857
17288W        W81496  15.123  26.093  11.101
17289W        W81497   1.424  21.696   2.410
17290W        W81498  31.419  27.647  10.635
17291W        W81499   7.326  37.026   0.310
17292W        W81500  10.784  41.491   3.340
17293W        W81501  10.298   8.880  12.048
17294W        W81502  26.994  37.574   2.670
17295W        W81503  16.786  34.028  11.401
17296W        W81504  10.286  22.169   2.244
17297W        W81505   5.726  21.122  14.930
17298W        W81506  24.015   9.720  10.428
17299W        W81507  27.091  18.791  12.540
17300W        W81508  24.179   1.349   1.444
17301W        W81509  11.308  34.480  11.530
17302W        W81510  13.279  24.522   2.852
17303W        W81511  28.452  42.293   1.334
17304W        W81512  17.149   7.740  14.484
17305W        W81513  26.479  27.614   9.954
17306W        W81514  24.545  43.902   0.262
17307W        W81515   6.243  22.701  10.063
17308W        W81516  12.119  31.504  12.460
17309W        W81517  18.622  40.982  11.573
17310W        W81518  25.542  41.360   4.657
17311W        W81519   4.252  43.826   0.909
17312W        W81520  40.819   4.860   4.138
17313W        W81521  28.642  11.134   1.894
17314W        W81522  30.628  38.913  13.804
17315W        W81523  16.716  18.567   4.683
17316W        W81524  11.137  42.876  13.493
17317W        W81525  44.964  35.940  14.770
17318W        W81526  19.210  26.582  12.913
17319W        W81527  38.362   6.711  11.508
17320W        W81528  35.558  18.548  11.011
17321W        W81529  38.424  14.310   2.188
17322W        W81530  27.956  40.918  13.808
17323W        W81531  12.768  11.219  13.476
17324W        W81532  16.215  13.128  13.469
17325W        W81533  24.032  22.012  11.877
17326W        W81534  15.809  10.824   0.769
17327W        W81535   1.311  28.497  14.453
17328W        W81536   2.750  14.612  12.886
17329W        W81537  30.476   5.393   0.249
17330W        W81538   2.450  10.674   0.808
17331W        W81539  36.041  36.488  12.997
17332W        W81540  36.355  21.137  10.438
17333W        W81541  30.915   7.361  10.893
17334W        W81542   3.407   3.798   5.652
17335W        W81543  35.017  14.133  12.567
17336W        W81544   9.793  18.603  14.964
17337W        W81545   6.699  37.934   1.297
17338W        W81546  12.811   9.662  11.946
17339W        W81547  30.619  37.509  12.885
17340W        W81548  33.605  22.533   2.748
17341W        W81549  14.782  35.927   4.135
17342W        W81550  40.427   8.737  10.026
17343W        W81551  17.206  33.464   0.887
17344W        W81552  16.308   7.847  12.927
17345W        W81553  36.351  24.985  13.327
17346W        W81554   5.764   4.911   4.129
17347W        W81555  15.140  37.530  13.526
17348W        W81556  19.107  12.783   3.296
17349W        W81557   7.189  25.583   1.307
17350W        W81558  40.452  24.989   0.244
17351W        W81559  33.987  38.073   3.332
17352W        W81560  13.681  35.425   2.390
17353W        W81561   9.883  23.124  14.446
17354W        W81562  35.478  37.945   0.889
17355W        W81563  26.956  18.099  11.997
17356W        W81564  14.706  20.605   3.769
17357W        W81565   4.345  34.012  13.012
17358W        W81566   3.722   2.817  11.028
17359W        W81567  15.268  25.147   1.781
17360W        W81568   1.823  40.392  14.321
17361W        W81569  25.595   5.433   1.729
17362W        W81570  14.216   4.220   2.801
17363W        W81571  15.577  35.540  12.438
17364W        W81572  17.201  32.945  11.393
17365W        W81573  26.065  42.835   1.711
17366W        W81574  17.764  13.288   2.874
17367W        W81575  21.163  28.143   3.795
17368W        W81576  31.554  15.606  13.056
17369W        W81577  26.054  22.147  10.955
17370W        W81578  26.578   4.891   2.672
17371W        W81579   2.720  41.825   3.312
17372W        W81580   6.811  38.381  13.401
17373W        W81581   9.184   4.379   0.389
17374W        W81582  13.620  41.819  10.629
17375W        W81583   5.754  14.804  11.416
17376W        W81584   5.230  38.054   4.609
17377W        W81585  35.998   1.776  13.515
17378W        W81586  40.419  41.515   0.269
17379W        W81587  11.795   2.936   0.896
17380W        W81588  35.922  17.765  10.524
17381W        W81589  24.025  18.065  14.498
17382W        W81590  12.727   1.773  11.375
17383W        W81591  32.445  43.012   1.913
17384W        W81592  14.192   8.221   1.808
17385W        W81593  36.842  36.454   1.313
17386W        W81594  27.495   7.854  13.922
17387W        W81595  17.654   5.717   5.147
17388W        W81596  42.359   2.935  14.845
17389W        W81597  10.201  26.061   1.385
17390W        W81598  24.180  42.473   3.365
17391W        W81599  40.474  33.072   1.841
17392W        W81600  17.611  27.064  11.514
17393W        W81601   8.282   7.227   3.382
17394W        W81602   8.697  13.606   4.205
17395W        W81603  10.295   6.418  13.992
17396W        W81604  38.416  32.111   3.372
17397W        W81605  18.293   1.361   2.358
17398W        W81606  30.130  18.663   1.840
17399W        W81607  36.465  16.095   1.917
17400W        W81608  21.568  35.584   3.644
17401W        W81609  40.938   3.901   2.311
17402W        W81610  10.768  31.482   2.384
17403W        W81611  14.755  18.790   4.679
17404W        W81612  26.157   1.805  12.519
17405W        W81613  33.554  21.674  11.912
17406W        W81614   8.816  35.408  11.579
17407W        W81615  17.220   2.263   1.220
17408W        W81616   5.820  44.474  13.868
17409W        W81617   1.370   6.396  13.465
17410W        W81618  29.013  38.943   3.763
17411W        W81619  19.679  40.362   1.408
17412W        W81620  41.310  26.673   3.790
17413W        W81621  44.425  13.344   4.337
17414W        W81622  28.528  22.099   4.833
17415W        W81623  15.590  43.504  12.044
17416W        W81624  24.109  21.032  14.028
17417W        W81625   2.298   0.484   1.447
17418W        W81626  21.638  44.974  12.401
17419W        W81627   1.419  33.131   5.690
17420W        W81628  40.320   1.956   3.815
17421W        W81629   9.174  22.559  11.129
17422W        W81630  22.135   9.182  13.923
17423W        W81631  38.982  42.798  13.857
17424W        W81632  18.187   7.194  14.414
17425W        W81633   9.258  35.866   4.135
17426W        W81634  27.978  19.130   0.786
17427W        W81635  30.111   8.664   3.251
17428W        W81636  29.564  28.675   0.266
17429W        W81637  43.797   0.818  14.773
17430W        W81638  36.414   4.840  10.570
17431W        W81639   9.692  18.723   3.853
17432W        W81640  36.077  29.003  12.558
17433W        W81641   3.326   4.389   2.406
17434W        W81642  18.251  15.708   0.283
17435W        W81643   9.382  39.917   1.339
17436W        W81644  21.528  15.657   2.834
17437W        W81645  36.860   4.763  11.009
17438W        W81646   0.907  25.135  12.519
17439W        W81647  19.096  37.972   2.829
17440W        W81648  21.661  17.174  11.960
17441W        W81649  19.739  16.756   0.768
17442W        W81650  28.660  27.076  12.423
17443W        W81651   4.758   3.271  13.541
17444W        W81652  35.877  38.917  13.038
17445W        W81653  19.739  15.577   2.674
17446W        W81654   0.905  12.745   2.733
17447W        W81655  12.790  20.630  14.032
17448W        W81656  22.712  21.640  14.459
17449W        W81657  33.391  17.565   2.270
17450W        W81658   0.937  17.119  11.562
17451W        W81659   1.264  15.163  14.998
17452W        W81660  36.880  29.057   2.319
17453W        W81661  33.433  36.846   3.856
17454W        W81662  37.389  33.437  13.430
17455W        W81663  27.060  11.715  10.541
17456W        W81664  32.137  36.882  11.944
17457W        W81665  44.414   6.231  10.616
17458W        W81666   0.384   5.927   1.841
17459W        W81667   2.850  35.929  12.011
17460W        W81668  28.088  40.352  13.800
17461W        W81669  14.745   8.798  10.998
17462W        W81670  30.534  42.936   4.806
17463W        W81671   0.315  34.107   5.749
17464W        W81672   9.229  36.563  11.121
17465W        W81673  28.176  10.295   9.931
17466W        W81674   2.388  33.610   4.626
17467W        W81675  38.523  11.286  14.014
17468W        W81676  16.616  29.007  14.981
17469W        W81677  43.006  20.091  14.454
17470W        W81678  30.986  41.911  12.077
17471W        W81679  11.201  37.372  13.981
17472W        W81680  24.982  22.501   3.647
17473W        W81681  19.725  33.999   0.826
17474W        W81682   4.913   9.854   3.798
17475W        W81683   8.694   4.284   9.957
17476W        W81684  19.108  11.704   3.277
17477W        W81685  35.097  43.351  13.392
17478W        W81686   9.310  31.499   4.703
17479W        W81687  21.671  18.177   1.338
17480W        W81688  44.377  38.970  14.772
17481W        W81689  19.124  32.496  11.037
17482W        W81690  31.589   2.230   1.868
17483W        W81691   7.175  23.536  11.911
17484W        W81692  26.968  11.768  11.452
17485W        W81693  40.322  20.139   3.817
17486W        W81694  20.648  20.645  12.865
17487W        W81695  18.233  30.068  13.320
17488W        W81696  19.078  10.180   0.782
17489W        W81697   9.332  33.571  10.995
17490W        W81698  38.540   1.769  12.457
17491W        W81699  21.062   6.812  11.998
17492W        W81700  34.379  31.108   3.740
17493W        W81701  38.522  17.175   3.210
17494W        W81702   3.852  14.247   3.709
17495W        W81703  21.217  12.719   2.259
17496W        W81704   4.923  26.484  11.919
17497W        W81705   6.408  32.623   3.355
17498W        W81706  11.738  10.160  11.117
17499W        W81707   0.764  31.627   3.728
17500W        W81708  23.735  39.940  11.486
17501W        W81709   2.344  26.990   2.672
17502W        W81710  16.666  15.592   4.804
17503W        W81711   7.822  10.196   4.636
17504W        W81712   1.333  11.283   3.763
17505W        W81713  35.392  17.706   0.775
17506W        W81714   6.704   5.439  14.997
17507W        W81715  22.591  32.125   3.675
17508W        W81716  37.342  25.060   0.800
17509W        W81717   0.953  39.903   1.760
17510W        W81718  31.997  17.591   1.710
17511W        W81719   8.856  24.061  12.367
17512W        W81720  27.044  43.871  13.838
17513W        W81721  11.231  34.005   1.416
17514W        W81722  36.906  34.587  12.523
17515W        W81723  24.618  29.622  13.843
17516W        W81724   1.247  36.037  12.463
17517W        W81725  32.061   9.784  12.918
17518W        W81726  10.329  22.689   3.702
17519W        W81727  19.715  36.866  13.400
17520W        W81728  28.954  24.657  11.387
17521W        W81729  29.427  18.581  13.433
17522W        W81730  10.231  24.709   4.830
17523W        W81731  17.587   4.738  12.519
17524W        W81732  30.919   7.892   0.797
17525W        W81733  32.454  10.735   2.392
17526W        W81734   0.391   3.413  10.956
17527W        W81735   2.373  30.027   0.776
17528W        W81736  25.980  25.523  10.476
17529W        W81737   5.225  41.487   2.222
17530W        W81738   4.303  27.148  13.355
17531W        W81739   6.403  11.702   0.738
17532W        W81740  25.645  42.305   1.302
17533W        W81741  32.985  12.687   4.205
17534W        W81742   3.723  28.521   3.843
17535W        W81743  13.224  11.802  10.530
17536W        W81744  41.922  16.221   0.387
17537W        W81745  37.517   9.854  10.933
17538W        W81746  33.125  13.106   0.478
17539W        W81747  27.552  22.243   0.966
17540W        W81748  41.501  29.481   4.144
17541W        W81749  38.922  27.474  14.941
17542W        W81750  44.273  32.113   4.215
17543W        W81751  29.593  32.071   0.897
17544W        W81752  27.499  25.695  14.367
17545W        W81753  17.287   7.294   1.225
17546W        W81754  44.407  31.495   9.670
17547W        W81755  37.071  38.349   3.205
17548W        W81756  18.617  35.921  10.969
17549W        W81757  38.949  12.838   1.246
17550W        W81758  20.055   1.455  13.481
17551W        W81759  21.233  33.544  10.932
17552W        W81760  34.055   8.179  12.487
17553W        W81761  42.314   6.211   0.331
17554W        W81762  42.402  29.423   4.308
17555W        W81763  19.098  40.362   4.624
17556W        W81764  10.705   0.912  14.475
17557W        W81765  30.094  36.884   3.258
17558W        W81766  10.774   3.256   3.659
17559W        W81767  16.294  36.993   2.373
17560W        W81768  30.037  20.071  14.835
17561W        W81769   2.277  20.274  10.525
17562W        W81770   3.460  32.450  11.386
17563W        W81771   9.212  44.767   3.802
17564W        W81772  36.428  25.497   0.866
17565W        W81773  18.686  19.712  12.858
17566W        W81774  28.534  33.570   4.268
17567W        W81775  14.713  27.605   4.237
17568W        W81776  42.397  32.505  13.835
17569W        W81777  30.471   2.865  14.310
17570W        W81778  31.613  42.995   3.643
17571W        W81779  29.609  11.851   4.832
17572W        W81780  38.010  44.970  14.287
17573W        W81781  44.431  41.325   4.167
17574W        W81782   9.666  13.340  13.479
17575W        W81783  23.996  29.071  14.013
17576W        W81784  14.595  26.149  14.293
17577W        W81785  17.612   7.795   4.258
17578W        W81786  14.095  10.787   0.885
17579W        W81787  11.663  38.452  13.803
17580W        W81788  38.947  16.686   0.361
17581W        W81789  21.087  19.094   2.717
17582W        W81790  27.970   5.915   3.745
17583W        W81791   2.840  44.271   1.439
17584W        W81792  29.959  25.031   1.375
17585W        W81793  17.620  18.163  13.908
17586W        W81794  14.636  11.238  14.305
17587W        W81795   2.391  20.258  12.385
17588W        W81796  12.278  29.095  12.027
17589W        W81797  19.061  18.223   3.739
17590W        W81798  12.651  17.306  10.919
17591W        W81799  29.497  10.825   3.226
17592W        W81800   1.314  39.489  10.932
17593W        W81801  24.677  39.986  14.432
17594W        W81802  26.541  34.121  10.504
17595W        W81803  40.359  43.276   0.338
17596W        W81804  34.918  19.547  12.864
17597W        W81805  11.733   4.323  13.451
17598W        W81806  23.046  43.810  13.359
17599W        W81807  39.991  32.939  10.951
17600W        W81808  19.120  43.949   0.783
17601W        W81809  16.214   0.763  10.006
17602W        W81810   0.813   2.779   4.329
17603W        W81811  23.547  40.322  13.851
17604W        W81812   0.437  27.658  11.881
17605W        W81813  22.554  37.914   3.180
17606W        W81814   4.396  17.163   0.952
17607W        W81815  18.161  24.493  14.847
17608W        W81816  44.474  35.861   9.543
17609W        W81817   8.662   3.272   2.306
17610W        W81818   4.895   6.771   3.182
17611W        W81819  42.991  40.864  11.126
17612W        W81820  10.776  25.529  13.316
17613W        W81821  35.978  25.149   2.361
17614W        W81822   0.491  23.203  13.867
17615W        W81823  11.784   9.880  12.014
17616W        W81824   0.899  17.117   3.674
17617W        W81825  27.069  18.146  10.442
17618W        W81826   1.267  14.166   4.351
17619W        W81827  20.073  25.555  14.878
17620W        W81828  17.792  16.769   3.814
17621W        W81829   5.410  15.806  14.966
17622W        W81830  44.978  33.962  13.966
17623W        W81831  20.712   1.317   2.178
17624W        W81832   4.287   8.309   0.878
17625W        W81833  21.540  14.111   4.775
17626W        W81834   7.837  29.627  12.842
17627W        W81835  35.972  10.253   1.449
17628W        W81836  35.470  19.624  11.483
17629W        W81837   5.356   0.427  14.897
17630W        W81838  34.441  15.286   4.612
17631W        W81839  15.210  17.714   1.820
17632W        W81840  35.369  14.780   1.859
17633W        W81841   4.775   7.241  11.461
17634W        W81842  27.095  38.865   2.833
17635W        W81843  22.052  41.952  11.515
17636W        W81844  27.994  19.194  12.441
17637W        W81845  36.561  38.373  10.588
17638W        W81846  35.584  26.513   0.933
17639W        W81847  28.611  44.301  12.380
17640W        W81848  32.455  24.521  10.934
17641W        W81849   4.335  42.444   2.324
17642W        W81850  41.949  37.085   3.661
17643W        W81851   9.334  24.107  14.306
17644W        W81852   3.298  21.624   2.797
17645W        W81853  29.075  24.692  14.458
17646W        W81854   7.384  37.479   3.270
17647W        W81855  21.118   6.381   2.214
17648W        W81856  26.063   1.766  12.949
17649W        W81857  42.334  27.664   4.234
17650W        W81858  44.350  16.571   0.276
17651W        W81859  37.573   0.770   0.856
17652W        W81860   6.392  13.155  13.022
17653W        W81861   9.384  24.023  10.996
17654W        W81862  32.919  31.592  14.778
17655W        W81863  25.973  12.266  14.020
17656W        W81864   3.724   9.311   0.477
17657W        W81865   2.743  43.916   1.360
17658W        W81866  42.411  10.322  12.934
17659W        W81867  33.955  17.297   0.765
17660W        W81868  39.052  29.020   2.382
17661W        W81869  20.153  34.055  10.584
17662W        W81870   0.770  18.289   0.281
17663W        W81871  34.597   1.892  14.779
17664W        W81872  28.045  41.528   0.862
17665W        W81873  29.638  40.055   0.401
17666W        W81874  17.634  18.130  13.054
17667W        W81875   1.416  38.926   3.834
17668W        W81876   3.863  30.050  10.932
17669W        W81877  41.452  14.593  14.375
17670W        W81878  42.885   4.945   1.852
17671W        W81879  10.724  10.164   4.115
17672W        W81880  36.403  37.353  13.019
17673W        W81881   7.807   0.287  12.384
17674W        W81882   5.709  11.829   0.949
17675W        W81883   0.324  38.328   2.346
17676W        W81884  14.296  16.774  13.530
17677W        W81885  28.632   3.244  14.974
17678W        W81886   5.330   6.733   0.475
17679W        W81887  15.673  34.914  10.566
17680W        W81888  42.325  13.323   2.801
17681W        W81889  43.819  42.781   3.687
17682W        W81890  19.127  11.632   4.800
17683W        W81891  21.190  17.247  12.874
17684W        W81892  10.307  15.156   5.218
17685W        W81893  29.031   8.775   0.338
17686W        W81894   7.206  13.708   4.310
17687W        W81895  23.148  34.950  10.566
17688W        W81896  19.712  42.457  11.126
17689W        W81897  32.443   8.183  12.844
17690W        W81898  23.230  32.601  10.532
17691W        W81899  35.517   7.191   3.382
17692W        W81900  23.692  37.933  11.436
17693W        W81901   4.348  41.424   3.320
17694W        W81902  16.251  12.681   0.770
17695W        W81903  22.696   6.423   5.630
17696W        W81904  21.648  33.901   2.360
17697W        W81905  35.906  41.536   4.810
17698W        W81906  22.014  18.286   1.343
17699W        W81907   1.961   2.821   2.663
17700W        W81908  27.633   4.363  10.579
17701W        W81909  20.756  26.607   4.682
17702W        W81910  35.471   4.823  10.072
17703W        W81911  25.708  31.413   4.640
17704W        W81912  41.865   3.954   3.315
17705W        W81913  38.371  35.515   4.154
17706W        W81914   0.828  20.615  14.803
17707W        W81915  39.447  18.668  12.442
17708W        W81916  44.431  30.163  14.941
17709W        W81917  26.958   0.980  10.522
17710W        W81918  37.972  36.408  11.001
17711W        W81919  35.397  19.099   2.255
17712W        W81920   5.286  28.048  14.774
17713W        W81921  12.221  11.139  14.474
17714W        W81922  10.807   5.368  14.939
17715W        W81923  11.786  26.695   4.340
17716W        W81924  35.110   9.857   4.781
17717W        W81925  17.770  34.962   4.290
17718W        W81926  22.515  10.200  13.869
17719W        W81927  39.516   0.438   1.825
17720W        W81928  16.686   9.296   4.351
17721W        W81929  39.841  36.869  10.548
17722W        W81930  10.790  24.499   1.789
17723W        W81931  20.609  17.164   0.928
17724W        W81932  38.886  18.257  11.610
17725W        W81933  27.666  16.179  12.465
17726W        W81934   8.229  11.176  13.846
17727W        W81935   2.726  34.531   9.953
17728W        W81936   0.326  42.902   4.650
17729W        W81937  39.988  23.623   4.753
17730W        W81938  43.853  37.995   5.721
17731W        W81939   6.800   9.244   3.221
17732W        W81940  17.730   8.811  13.960
17733W        W81941  35.854   3.305  13.944
17734W        W81942  23.204  16.751   5.769
17735W        W81943  34.907  12.201   0.895
17736W        W81944   3.373  19.278   1.322
17737W        W81945  17.664  40.832   0.281
17738W        W81946   4.415  44.279   0.446
17739W        W81947   3.351  23.202  14.309
17740W        W81948  31.504  35.900  10.937
17741W        W81949   3.855  44.843  13.453
17742W        W81950  41.455  22.027  13.428
17743W        W81951  11.181  18.145  14.279
17744W        W81952  11.806  43.472  11.857
17745W        W81953  38.857  24.507  11.474
17746W        W81954  39.985  39.398   2.192
17747W        W81955  43.299  36.482   5.581
17748W        W81956  14.729  19.233  10.468
17749W        W81957   5.391  40.443  11.497
17750W        W81958   2.828  29.010   1.784
17751W        W81959  39.546  27.052   1.413
17752W        W81960  30.051  25.671   2.394
17753W        W81961  40.945   4.439   0.273
17754W        W81962  37.870  15.674  13.854
17755W        W81963  12.189  24.067  12.900
17756W        W81964   2.411   0.744   3.328
17757W        W81965  30.969   9.166  11.392
17758W        W81966   4.371  25.069   2.251
17759W        W81967   0.898  23.532  11.067
17760W        W81968  25.649  19.100  11.468
17761W        W81969  43.864  37.392   2.268
17762W        W81970  18.731  35.888  14.013
17763W        W81971  36.995  13.748   1.336
17764W        W81972  42.515   6.850   3.849
17765W        W81973  16.612   9.770  13.822
17766W        W81974  33.017  13.624   9.980
17767W        W81975  22.123  39.030   3.381
17768W        W81976  24.498  30.576  12.076
17769W        W81977  44.319  14.327  14.847
17770W        W81978  25.070  22.115   4.723
17771W        W81979  36.401  21.563   1.394
17772W        W81980  28.469  16.718  14.429
17773W        W81981  10.671  12.317  11.531
17774W        W81982  23.659  17.643   4.235
17775W        W81983  36.593  28.612  13.547
17776W        W81984  44.447  32.090   5.303
17777W        W81985  39.013   6.237   0.313
17778W        W81986  25.501  40.490  11.532
17779W        W81987  21.070  43.426  13.417
17780W        W81988   0.925  25.599  12.039
17781W        W81989  44.323  11.336   0.727
17782W        W81990  25.552   0.887  10.507
17783W        W81991   2.813  12.346   0.446
17784W        W81992  24.179  10.155  12.090
17785W        W81993  34.456  26.574   0.835
17786W        W81994  10.805  16.275  12.055
17787W        W81995  43.896  13.284   2.723
17788W        W81996   1.426  24.524   1.232
17789W        W81997  12.702  31.974   4.598
17790W        W81998  38.849   1.794  14.828
17791W        W81999  11.134  21.062   4.710
17792W        W82000  23.605  23.519   3.726
17793W        W82001  22.039   0.744   4.184
17794W        W82002   1.323  40.862   3.735
17795W        W82003  21.023  28.998   3.682
17796W        W82004  10.240   6.192   5.121
17797W        W82005  15.729  37.070  10.893
17798W        W82006  34.410   3.228   1.257
17799W        W82007  35.996  36.002  11.542
17800W        W82008  42.463  43.508   0.329
17801W        W82009  28.147  11.678  11.999
17802W        W82010  24.120   5.889   2.765
17803W        W82011   1.950   0.860   4.836
17804W        W82012  17.633  36.948   4.828
17805W        W82013  34.068  28.123   0.467
17806W        W82014  40.937   1.451   2.718
17807W        W82015   6.404   4.342  11.877
17808W        W82016  17.699  14.628  11.064
17809W        W82017  29.493  31.963   3.814
17810W        W82018   6.692  21.110  10.501
17811W        W82019  32.508  38.849   3.307
17812W        W82020  17.643   2.456  10.636
17813W        W82021  27.961  25.538  10.489
17814W        W82022  31.457  35.407  12.952
17815W        W82023  16.314  18.750  13.980
17816W        W82024  39.927  40.017  11.517
17817W        W82025   8.359  39.427   0.908
17818W        W82026  37.574  21.019   0.918
17819W        W82027   2.845   1.870  14.436
17820W        W82028  26.021  30.157  10.451
17821W        W82029  36.972  27.982   2.335
17822W        W82030   5.744  32.574  12.482
17823W        W82031  37.480  13.770  11.903
17824W        W82032  16.768  14.794  11.548
17825W        W82033   0.319  17.625  14.781
17826W        W82034  22.747  39.843  14.783
17827W        W82035  36.411   7.410  11.126
17828W        W82036  36.511  17.134   2.344
17829W        W82037  36.433  43.787  11.038
17830W        W82038  30.939  34.541   2.199
17831W        W82039  21.173  31.615  13.450
17832W        W82040  34.119  14.331   0.297
17833W        W82041  39.403   3.882   2.325
17834W        W82042  18.598   8.392   3.283
17835W        W82043  23.001  28.012  13.529
17836W        W82044   8.661  42.376   4.728
17837W        W82045   1.422   8.198   1.893
17838W        W82046  34.436  11.276  13.440
17839W        W82047  18.152  25.082  12.358
17840W        W82048  41.474  20.717  12.994
17841W        W82049  27.468  11.628  11.969
17842W        W82050  35.584  26.978   0.282
17843W        W82051  25.017  21.632  11.016
17844W        W82052  34.046   9.176   3.704
17845W        W82053  25.078   9.889   1.404
17846W        W82054  40.928  16.705  14.876
17847W        W82055  23.594  25.053   2.730
17848W        W82056  24.121  12.618  12.865
17849W        W82057   5.894  37.356   4.216
17850W        W82058   9.717  37.397   5.273
17851W        W82059   9.306  12.619  12.062
17852W        W82060   5.291   2.345   0.350
17853W        W82061   9.189   0.253  13.906
17854W        W82062   0.390  35.003  12.473
17855W        W82063  19.182  10.303  10.506
17856W        W82064  36.958  30.649  10.446
17857W        W82065  40.836   7.763  11.034
17858W        W82066  12.747  11.653   4.717
17859W        W82067  35.514  29.453   0.398
17860W        W82068  25.981  43.385  11.886
17861W        W82069  29.630  21.642  13.978
17862W        W82070  16.080  28.007  12.023
17863W        W82071  34.882  39.474  13.955
17864W        W82072   1.372  26.097  14.484
17865W        W82073   5.835   6.387   0.730
17866W        W82074  34.401   6.745  12.357
17867W        W82075  32.939   9.155  13.923
17868W        W82076   0.899  31.476   2.760
17869W        W82077  20.269  31.459   1.286
17870W        W82078  39.464  31.437  10.519
17871W        W82079  42.004  31.561  13.871
17872W        W82080  10.710  12.740   4.225
17873W        W82081  30.068  36.470  13.360
17874W        W82082   7.180  14.109   2.277
17875W        W82083   3.746  32.111   4.608
17876W        W82084  25.514  12.702   3.189
17877W        W82085  19.574  32.938  13.813
17878W        W82086  38.399  43.809   3.152
17879W        W82087  17.676  23.183   1.341
17880W        W82088  12.245  22.082   4.707
17881W        W82089  20.656  14.259  11.461
17882W        W82090  41.902  19.245   2.849
17883W        W82091  17.136   8.848   4.240
17884W        W82092  20.533   4.752   2.866
17885W        W82093   6.311  21.565   0.820
17886W        W82094  16.608  14.710   4.179
17887W        W82095   1.313  39.463   1.922
17888W        W82096  27.147  14.132   1.865
17889W        W82097  15.148  42.885  10.434
17890W        W82098   4.707  43.925   3.721
17891W        W82099  43.384  22.599  14.858
17892W        W82100   7.821  43.877  14.831
17893W        W82101  17.796  38.869  11.610
17894W        W82102  43.416   9.299   1.768
17895W        W82103   0.287  14.227   2.817
17896W        W82104  29.000   1.393   3.228
17897W        W82105   2.874   3.728   0.456
17898W        W82106   8.884  42.368   3.769
17899W        W82107   0.868  14.829  10.065
17900W        W82108   6.300  42.835   4.350
17901W        W82109   8.401  10.873   2.853
17902W        W82110  20.626  25.498  14.843
17903W        W82111   2.892  31.113   2.689
17904W        W82112  21.702  12.799  13.535
17905W        W82113  25.553  40.807   1.346
17906W        W82114  37.450   2.728   1.376
17907W        W82115   0.786   0.392  10.994
17908W        W82116  16.204  40.880  11.523
17909W        W82117  34.045  17.646  14.995
17910W        W82118  43.945   7.175  13.027
17911W        W82119  25.609  10.321   4.245
17912W        W82120  27.950  31.951  14.874
17913W        W82121  40.425  21.030  13.041
17914W        W82122  38.484  11.867   2.665
17915W        W82123   1.356  27.052  11.857
17916W        W82124  17.148  15.137   1.264
17917W        W82125  14.790  26.157  11.112
17918W        W82126   8.232  39.826   3.327
17919W        W82127  22.682   2.470   1.818
17920W        W82128  43.286  14.764  11.874
17921W        W82129  26.047  26.128  11.018
17922W        W82130  40.806   0.489   3.159
17923W        W82131  23.221  29.595   3.227
17924W        W82132  10.210  27.583  12.932
17925W        W82133  44.894  41.293   4.834
17926W        W82134  38.562  13.762   0.731
17927W        W82135  26.456   0.787  13.841
17928W        W82136  17.639  39.983   1.429
17929W        W82137  41.395  34.594  10.598
17930W        W82138  21.717  15.314   3.748
17931W        W82139  31.109  26.169  12.074
17932W        W82140   0.904   4.871   9.985
17933W        W82141  28.485  25.590   2.669
17934W        W82142  44.839   2.851   0.372
17935W        W82143  18.127  42.462  10.973
17936W        W82144  22.015  39.394   1.909
17937W        W82145   8.256   0.411   1.346
17938W        W82146  29.127   8.684  11.451
17939W        W82147   6.690   1.931  14.365
17940W        W82148  35.477  15.675   4.147
17941W        W82149  22.564  26.998   3.287
17942W        W82150  26.096  22.206  11.413
17943W        W82151  19.083  28.064   0.430
17944W        W82152  31.605   8.382  11.059
17945W        W82153  25.010  24.158  10.966
17946W        W82154  24.678  35.024   4.269
17947W        W82155   3.361   5.404   4.806
17948W        W82156  27.611   6.869  11.863
17949W        W82157  12.634  44.421  13.364
17950W        W82158  42.911  13.119   4.203
17951W        W82159  36.363  42.965  12.518
17952W        W82160   8.830  29.077   0.886
17953W        W82161  30.098  11.839   2.758
17954W        W82162  24.674  30.499  14.297
17955W        W82163  39.325  11.278   3.272
17956W        W82164  14.286  40.054   4.679
17957W        W82165   6.807   7.392   4.711
17958W        W82166  14.270  11.292  11.385
17959W        W82167   1.735   9.239  14.412
17960W        W82168  27.046  19.542  14.971
17961W        W82169  10.180  38.337   0.867
17962W        W82170  23.606   9.851   0.425
17963W        W82171   2.771   0.760   4.826
17964W        W82172  24.666  25.605   2.367
17965W        W82173  44.774  31.631  11.527
17966W        W82174  38.073  15.297  12.971
17967W        W82175  37.541  17.282  11.071
17968W        W82176  10.668   0.326  10.618
17969W        W82177  18.063   5.831   0.405
17970W        W82178  28.500   1.386   0.479
17971W        W82179  39.873   6.231   0.318
17972W        W82180   8.386  41.430  13.885
17973W        W82181  41.530  11.358  13.462
17974W        W82182   3.829  16.152   1.853
17975W        W82183  37.845   7.243  13.333
17976W        W82184  36.357  35.104   4.228
17977W        W82185   4.826  36.904   1.762
17978W        W82186  36.053  23.721   2.811
17979W        W82187  22.042  24.012  10.422
17980W        W82188  44.851   6.303  14.303
17981W        W82189   8.294   6.903   0.395
17982W        W82190  23.207  40.830   1.282
17983W        W82191  31.003  36.445   2.701
17984W        W82192  13.296  16.654   4.808
17985W        W82193  16.637   9.279  11.917
17986W        W82194  13.185  11.183  14.011
17987W        W82195  42.346  23.033   3.691
17988W        W82196  21.192  35.418  11.414
17989W        W82197  41.312  23.020   4.324
17990W        W82198  14.300   9.715   1.751
17991W        W82199   0.430  27.083   4.700
17992W        W82200  18.129  31.941  13.506
17993W        W82201  30.978  23.986  12.971
17994W        W82202  25.607  28.539   2.389
17995W        W82203  35.548   9.789  11.462
17996W        W82204  27.086   7.184  13.339
17997W        W82205  40.893  43.354   3.735
17998W        W82206  23.554  19.137   3.814
17999W        W82207  42.296  26.543   1.850
18000W        W82208  31.628  44.860  13.885
18001W        W82209  21.183  32.491   4.316
18002W        W82210  28.954  21.094  10.071
18003W        W82211  28.108  18.684   4.698
18004W        W82212  15.286   6.274   2.207
18005W        W82213  36.978  41.366   1.284
18006W        W82214  22.643  31.043   3.784
18007W        W82215  14.799   3.421   2.220
18008W        W82216  18.668  11.169   4.722
18009W        W82217  20.080  27.078   1.425
18010W        W82218  18.224  12.818   2.793
18011W        W82219  26.573  26.620   1.863
18012W        W82220   9.309  15.300   1.866
18013W        W82221  28.133  25.516  11.875
18014W        W82222  29.134  30.141   0.268
18015W        W82223  25.191  38.561  14.339
18016W        W82224  38.558  40.031   2.838
18017W        W82225  38.443  43.464  13.919
18018W        W82226  26.100   8.771   3.712
18019W        W82227  15.820  21.193  14.906
18020W        W82228  25.493   5.291   4.215
18021W        W82229  23.696  40.831   4.712
18022W        W82230  44.335  12.197  11.859
18023W        W82231  10.236  34.008   3.832
18024W        W82232   4.308  21.139   1.793
18025W        W82233  30.516   9.252   1.707
18026W        W82234  28.599  40.822   2.395
18027W        W82235  10.171  25.677  13.322
18028W        W82236  28.547  14.264  12.470
18029W        W82237  33.484  39.008   3.680
18030W        W82238   6.421  28.491  14.454
18031W        W82239  23.234   7.378   4.323
18032W        W82240  38.851  29.944   4.148
18033W        W82241  30.439  36.010   0.375
18034W        W82242   7.670  19.064   0.369
18035W        W82243  17.726  37.935  10.066
18036W        W82244  12.244  32.926   4.280
18037W        W82245  36.952  33.987  11.879
18038W        W82246   7.416   0.449  13.310
18039W        W82247   9.860  36.052  12.091
18040W        W82248  41.965  39.949  10.572
18041W        W82249  36.985  21.242  13.970
18042W        W82250  31.579  42.857   2.404
18043W        W82251  31.640  25.573  14.304
18044W        W82252  11.195  36.484  12.369
18045W        W82253  28.034  20.643  12.540
18046W        W82254  20.136  36.019  11.033
18047W        W82255  29.434   6.336   4.648
18048W        W82256  35.997  40.391  12.979
18049W        W82257  14.304  19.627   4.116
18050W        W82258  29.572   1.734   0.381
18051W        W82259   6.835   2.778   1.869
18052W        W82260  35.934  25.021  13.906
18053W        W82261  35.882  22.583  12.868
18054W        W82262   4.445  14.244   0.246
18055W        W82263  18.639  11.153  12.052
18056W        W82264  35.460  33.085  12.348
18057W        W82265  17.153  11.678   1.746
18058W        W82266   3.306  41.489   2.374
18059W        W82267   1.870  41.968  13.924
18060W        W82268  14.138   0.282  12.402
18061W        W82269   4.922  24.985   0.400
18062W        W82270  39.357   7.885  12.954
18063W        W82271   1.910   1.272  14.307
18064W        W82272  44.882   9.806  14.827
18065W        W82273  14.624   5.275   3.315
18066W        W82274  33.586  11.785   0.750
18067W        W82275   4.787  19.098   2.804
18068W        W82276   5.771   9.206   4.120
18069W        W82277  31.986  31.943   1.308
18070W        W82278  11.624  10.160  13.527
18071W        W82279   0.816   9.772   0.454
18072W        W82280  30.974  29.095   0.811
18073W        W82281   4.302  15.641   4.175
18074W        W82282  12.343  23.169   2.360
18075W        W82283   2.924   8.216  14.948
18076W        W82284  44.768  14.260  12.848
18077W        W82285  20.075  41.951   2.302
18078W        W82286  23.710  23.577   2.253
18079W        W82287   0.828  35.094  11.012
18080W        W82288   8.307  11.178   1.311
18081W        W82289  27.489  19.726   1.844
18082W        W82290  21.682  34.088   0.753
18083W        W82291   8.378  38.845   4.653
18084W        W82292   2.300  40.462   1.732
18085W        W82293  10.278  40.889  11.374
18086W        W82294  21.689  10.677  10.527
18087W        W82295  39.558  27.127  12.930
18088W        W82296  12.694  12.826   3.698
18089W        W82297  40.947   3.895  11.975
18090W        W82298   1.334  31.560   3.630
18091W        W82299   5.272  26.685   1.712
18092W        W82300  15.784   1.854   0.802
18093W        W82301  39.342  43.800   0.438
18094W        W82302  40.045  29.507   3.379
18095W        W82303  31.631   4.931   5.159
18096W        W82304  24.604   3.393   0.384
18097W        W82305  29.619  20.553  14.278
18098W        W82306   4.384   6.372  11.577
18099W        W82307  43.444  19.278   4.793
18100W        W82308  31.973  43.865  10.547
18101W        W82309  32.140  33.040   2.405
18102W        W82310  34.024  21.747   3.353
18103W        W82311  18.669  42.503   3.222
18104W        W82312  24.105  15.196  12.934
18105W        W82313  30.936  34.369  12.072
18106W        W82314  31.595   0.293  10.636
18107W        W82315  29.651   0.894   3.681
18108W        W82316  31.509  11.750  14.818
18109W        W82317  27.602   6.274  12.491
18110W        W82318  12.831  28.586   4.679
18111W        W82319  32.017   8.248   2.352
18112W        W82320   8.396   9.783   1.437
18113W        W82321   1.962  11.748  12.562
18114W        W82322  44.429  21.207  11.864
18115W        W82323   0.802  17.095  10.980
18116W        W82324   4.382  25.500  14.472
18117W        W82325  17.079   0.923  12.004
18118W        W82326  30.429  39.943  10.939
18119W        W82327  14.122  42.789  14.013
18120W        W82328  18.551   3.289   2.721
18121W        W82329  39.898  42.306   0.250
18122W        W82330  37.945  37.580   4.685
18123W        W82331  13.730  23.658   0.869
18124W        W82332   9.838  16.747   0.409
18125W        W82333  43.987  27.520   0.849
18126W        W82334  19.096  31.641  12.357
18127W        W82335  29.943  43.359  12.403
18128W        W82336  12.638   7.876   1.341
18129W        W82337  22.118   0.424  13.847
18130W        W82338  14.180  36.473  13.840
18131W        W82339  31.094  41.525  11.576
18132W        W82340  15.694  18.785  13.392
18133W        W82341  21.578   0.823   0.866
18134W        W82342  27.043  19.554   2.403
18135W        W82343  10.375  39.414  10.921
18136W        W82344  15.709   1.926   3.751
18137W        W82345  26.658   9.692   3.721
18138W        W82346  14.733  11.678   0.925
18139W        W82347   5.263  44.453   1.907
18140W        W82348   7.680  23.212   0.277
18141W        W82349  20.735  30.637   4.692
18142W        W82350  21.669  29.166  11.884
18143W        W82351  25.531  33.969  11.392
18144W        W82352  38.937  15.770  14.950
18145W        W82353  18.070  37.968  13.511
18146W        W82354  29.095  34.898  13.011
18147W        W82355  29.094   0.932   3.834
18148W        W82356   5.883  23.688  10.409
18149W        W82357   8.393  17.606   3.340
18150W        W82358  29.599  12.681   1.217
18151W        W82359  11.345   7.201  12.427
18152W        W82360   3.851  40.818  11.388
18153W        W82361   9.199  18.111   0.385
18154W        W82362  31.959  26.578  11.067
18155W        W82363  24.153   5.425   2.830
18156W        W82364  33.561   0.266  13.950
18157W        W82365   0.397  13.338   4.346
18158W        W82366   9.172  33.493  14.342
18159W        W82367  25.571  34.387  13.547
18160W        W82368  12.755  14.611  13.056
18161W        W82369   8.744  10.183   0.326
18162W        W82370  16.773  19.775   4.135
18163W        W82371  16.253  24.687  13.543
18164W        W82372  21.076   0.491   2.711
18165W        W82373  43.784  38.558  14.515
18166W        W82374  39.521  10.147  11.606
18167W        W82375  15.256   7.374  11.051
18168W        W82376   7.910  10.242   3.259
18169W        W82377  17.199  16.197   3.348
18170W        W82378  22.624  21.245   1.213
18171W        W82379  15.228  19.715   0.297
18172W        W82380  21.040  20.668  10.042
18173W        W82381  35.103  44.498  13.405
18174W        W82382  37.532  18.732  13.831
18175W        W82383   7.305  11.208   0.458
18176W        W82384  29.617  28.481   1.767
18177W        W82385   2.297  29.132  11.008
18178W        W82386   3.382  34.048  14.003
18179W        W82387   5.394  11.679   1.903
18180W        W82388  16.308  36.415   2.385
18181W        W82389  17.120  37.914  13.476
18182W        W82390  34.996  18.206  11.487
18183W        W82391  32.944   0.434  11.067
18184W        W82392  16.309  30.061   3.725
18185W        W82393  19.122  15.668   4.113
18186W        W82394   5.842  29.039   0.283
18187W        W82395  32.483  30.937   3.339
18188W        W82396  19.586   2.931  12.517
18189W        W82397  12.283  28.006   3.355
18190W        W82398  22.556  18.263   0.385
18191W        W82399  17.687  30.480   4.339
18192W        W82400  28.075  37.382   0.798
18193W        W82401  27.041  33.402  14.412
18194W        W82402  44.487   1.924   0.243
18195W        W82403  39.430   0.753   2.865
18196W        W82404  24.221  20.609  13.479
18197W        W82405  39.879  34.011  13.914
18198W        W82406   0.875  11.705   1.358
18199W        W82407  15.702  32.568  14.852
18200W        W82408  19.600  30.954   1.737
18201W        W82409  12.680  37.518  10.972
18202W        W82410  13.706   3.217  11.445
18203W        W82411  43.356  15.756   4.164
18204W        W82412  12.142  14.185   4.282
18205W        W82413  12.672  36.089   0.904
18206W        W82414  23.505  24.015   3.861
18207W        W82415  44.979  22.091   2.834
18208W        W82416  14.602  29.445   3.252
18209W        W82417   7.699  19.689  12.392
18210W        W82418  10.845   6.732   0.808
18211W        W82419  12.848  36.925   2.895
18212W        W82420   2.829  19.145  14.334
18213W        W82421  42.359  35.859   3.343
18214W        W82422  21.741  21.154   3.197
18215W        W82423  19.706  30.595   4.829
18216W        W82424  20.646  37.473  14.484
18217W        W82425  40.508  42.499  10.603
18218W        W82426   0.882  26.110  13.373
18219W        W82427  35.877  20.539   3.337
18220W        W82428  34.868   5.236   3.256
18221W        W82429   2.746   9.813  11.957
18222W        W82430   9.826  32.552  14.449
18223W        W82431  36.842   7.839  12.963
18224W        W82432   3.331   4.776   0.425
18225W        W82433  26.185  34.574   4.681
18226W        W82434  20.175  29.495  13.862
18227W        W82435  17.717  17.097   4.710
18228W        W82436  18.074  24.677   2.858
18229W        W82437  21.162   2.466  14.992
18230W        W82438  42.416  35.369  13.001
18231W        W82439   9.187  24.545  14.299
18232W        W82440  23.705   3.878  12.936
18233W        W82441  11.275  24.005   2.335
18234W        W82442   0.288   1.338   3.659
18235W        W82443  17.221  16.665  12.030
18236W        W82444   1.450  44.429   2.340
18237W        W82445  35.054  20.674  10.589
18238W        W82446  12.669  21.086  14.304
18239W        W82447  12.687  15.211   1.727
18240W        W82448  34.496  34.460   4.677
18241W        W82449  31.962  31.424  11.971
18242W        W82450  33.518  23.734  14.840
18243W        W82451  16.619  13.719  10.600
18244W        W82452   5.359   1.927   4.802
18245W        W82453  14.718  34.534  14.898
18246W        W82454  27.514  18.733  11.602
18247W        W82455  28.937  42.474   3.839
18248W        W82456   9.846   3.891  11.856
18249W        W82457  42.505  30.116   5.309
18250W        W82458  11.348  30.118   4.600
18251W        W82459  18.110  20.738  14.831
18252W        W82460  12.727  12.331   9.489
18253W        W82461  39.473   2.897  12.048
18254W        W82462  38.002  23.678  12.536
18255W        W82463  32.562  39.834   2.766
18256W        W82464  22.659  16.760  10.002
18257W        W82465  43.860  14.312   3.715
18258W        W82466  43.900  10.197   1.252
18259W        W82467  42.899  17.117   4.653
18260W        W82468   5.338  34.531  12.089
18261W        W82469  12.354  32.080  10.521
18262W        W82470  31.141  25.614   0.400
18263W        W82471  19.161   1.866  14.863
18264W        W82472  20.738  22.237   1.867
18265W        W82473  35.577  25.154   0.821
18266W        W82474   0.326  18.225   4.240
18267W        W82475  22.698  13.162   1.865
18268W        W82476  29.919  25.056  14.367
18269W        W82477  44.335  22.540  13.329
18270W        W82478  12.666   2.794   2.222
18271W        W82479   8.240  11.232  11.979
18272W        W82480  12.299   7.402   0.937
18273W        W82481  21.263  12.291   3.667
18274W        W82482  44.933  33.522  10.637
18275W        W82483  27.549  43.820   2.346
18276W        W82484  31.568  27.131   0.416
18277W        W82485  24.497  35.465  13.852
18278W        W82486  23.180  27.466   2.806
18279W        W82487  22.651  28.170  11.576
18280W        W82488  20.163  11.128  11.441
18281W        W82489   1.747  12.666   4.321
18282W        W82490  23.054  26.702   2.295
18283W        W82491  15.089  15.245  13.319
18284W        W82492  13.190  22.174   4.144
18285W        W82493  24.604  34.974   4.699
18286W        W82494   6.685  13.683   0.350
18287W        W82495   3.337  17.270   4.278
18288W        W82496  25.986  41.976   1.917
18289W        W82497  12.325  22.152   0.931
18290W        W82498  39.026  29.060   9.977
18291W        W82499  39.024   9.159   4.305
18292W        W82500  24.106   6.182  14.394
18293W        W82501  11.864   1.908  14.857
18294W        W82502  11.768  41.420  11.935
18295W        W82503  30.566  31.005  11.908
18296W        W82504  14.616  38.395  11.399
18297W        W82505   0.771  35.923  11.563
18298W        W82506  26.567   4.850  11.019
18299W        W82507  31.061  28.636   3.194
18300W        W82508  40.945   2.251  12.478
18301W        W82509  18.066  24.010  12.387
18302W        W82510  11.756  24.618  11.110
18303W        W82511  23.086  36.875   0.749
18304W        W82512  38.020  13.240  14.932
18305W        W82513  34.388  32.589  13.530
18306W        W82514  41.956  25.126  12.432
18307W        W82515  17.266  34.519  12.520
18308W        W82516  11.854  25.059  14.298
18309W        W82517  28.177  38.074  10.586
18310W        W82518  42.935  30.039   4.765
18311W        W82519   0.387   6.777   0.801
18312W        W82520  41.886   5.892  12.542
18313W        W82521  35.462  13.775  12.861
18314W        W82522   1.330  20.638  10.932
18315W        W82523  30.966  41.033  11.606
18316W        W82524  15.327   6.759   2.191
18317W        W82525  33.601   1.833   2.716
18318W        W82526   5.875  26.081  14.829
18319W        W82527  10.774  14.103  13.807
18320W        W82528   1.368  13.665  12.854
18321W        W82529   8.878  17.248   0.959
18322W        W82530   8.214  24.061  14.277
18323W        W82531  35.902  29.578   0.315
18324W        W82532  42.411  39.989  10.530
18325W        W82533  30.463   8.308  11.881
18326W        W82534  16.197  24.030  11.508
18327W        W82535  31.572  42.400  14.283
18328W        W82536  38.985   4.219   2.735
18329W        W82537   8.842  35.932  11.585
18330W        W82538   6.310  33.592  12.900
18331W        W82539  20.625  39.448   4.598
18332W        W82540  43.314  21.690  10.916
18333W        W82541  10.700   4.770  10.445
18334W        W82542  12.834  38.462   1.900
18335W        W82543   5.228   1.454  10.543
18336W        W82544  30.615   3.721  14.888
18337W        W82545  19.174  16.106   0.757
18338W        W82546  38.975  21.261   4.249
18339W        W82547  30.135  12.818   0.734
18340W        W82548  18.606  20.728   2.798
18341W        W82549  19.102  33.413   1.255
18342W        W82550  30.491  40.540   3.212
18343W        W82551  37.968  10.818  11.867
18344W        W82552  21.657  20.231  13.891
18345W        W82553  39.945  38.396  11.112
18346W        W82554  13.807  27.111   3.660
18347W        W82555  29.103  28.617   1.702
18348W        W82556  16.650  10.690   0.366
18349W        W82557  37.868  30.569   3.300
18350W        W82558  12.159   4.367  12.360
18351W        W82559  15.587  31.071  14.767
18352W        W82560  30.436  25.138   1.341
18353W        W82561  34.014  10.851  14.373
18354W        W82562  21.582  23.125  14.278
18355W        W82563  24.224  10.859  13.389
18356W        W82564  33.060  41.482   3.158
18357W        W82565  44.912  16.676  14.380
18358W        W82566  44.877   0.354  12.440
18359W        W82567   5.870  30.029  13.331
18360W        W82568  12.637  37.503   1.298
18361W        W82569  28.446   1.880   1.249
18362W        W82570  31.008  32.048   4.305
18363W        W82571  32.454  26.686   3.382
18364W        W82572  10.294   8.372   0.338
18365W        W82573  17.601  14.766   3.219
18366W        W82574  40.803  16.669   3.345
18367W        W82575  29.161  12.352   0.887
18368W        W82576  21.678  20.568   3.764
18369W        W82577  24.014  15.123   2.353
18370W        W82578  41.366   6.266   0.297
18371W        W82579  19.589  17.123  14.303
18372W        W82580  37.381   3.379   1.833
18373W        W82581  12.298  12.317   0.334
18374W        W82582  28.097  17.561   4.298
18375W        W82583  41.312   5.908   2.693
18376W        W82584  20.764  21.087  14.317
18377W        W82585  11.247  41.378   2.854
18378W        W82586   1.471   2.725   1.229
18379W        W82587  12.120  12.210   0.816
18380W        W82588  22.542  19.579  10.979
18381W        W82589  23.666  21.757   4.184
18382W        W82590  20.670  30.960  12.545
18383W        W82591   1.965  14.824   4.641
18384W        W82592  43.018  22.555  12.972
18385W        W82593  25.714   6.265   3.337
18386W        W82594  26.456  37.411   0.469
18387W        W82595  18.278  33.381   3.353
18388W        W82596   1.293  32.536   3.240
18389W        W82597  15.178  38.374  12.379
18390W        W82598   1.314  42.011  13.541
18391W        W82599  23.168  34.076   4.662
18392W        W82600  37.471  35.064   5.321
18393W        W82601  33.945  27.566   2.825
18394W        W82602  19.752  40.460  11.058
18395W        W82603   1.311  38.864  10.444
18396W        W82604  25.637  23.569  13.809
18397W        W82605  42.425  10.644  12.838
18398W        W82606  21.030   1.739  13.053
18399W        W82607   0.820  36.850  13.883
18400W        W82608  37.955  12.816  10.527
18401W        W82609   5.274  17.563   2.771
18402W        W82610  33.111  35.917   0.768
18403W        W82611  44.928  18.785  10.462
18404W        W82612  29.652  37.545   3.290
18405W        W82613  14.588  29.020  11.882
18406W        W82614  20.186   4.914   4.597
18407W        W82615  19.228   2.843   2.255
18408W        W82616   1.291  35.897  14.412
18409W        W82617  21.052  35.101   4.171
18410W        W82618   2.861  34.885  14.479
18411W        W82619  33.452  27.159  11.561
18412W        W82620   4.865  32.000  11.021
18413W        W82621  42.469   0.343   4.344
18414W        W82622  43.419   2.894  12.056
18415W        W82623   3.777  26.481   3.805
18416W        W82624  20.184  10.855  10.458
18417W        W82625  44.301  22.164   4.137
18418W        W82626  37.074  36.585   3.809
18419W        W82627  18.210  34.952  14.765
18420W        W82628  41.379  38.899  12.931
18421W        W82629   7.838  40.395  11.118
18422W        W82630  42.011   1.794   2.359
18423W        W82631   0.923  26.995  14.513
18424W        W82632  42.519  10.150  10.119
18425W        W82633   3.350  24.481  13.509
18426W        W82634  15.629  28.079  11.609
18427W        W82635   6.355  40.466   2.364
18428W        W82636  25.187   8.216  12.010
18429W        W82637  23.122   9.824  13.950
18430W        W82638  19.609  29.559   3.812
18431W        W82639  42.474  31.542   1.221
18432W        W82640   8.808  26.578  10.158
18433W        W82641  19.109  18.080  11.505
18434W        W82642  12.241  33.903  12.536
18435W        W82643  25.195  16.163   2.316
18436W        W82644   6.887  43.423   0.912
18437W        W82645   8.194  34.086  11.881
18438W        W82646  42.835  35.947  12.522
18439W        W82647  29.566   7.259   2.873
18440W        W82648  22.629  15.594   1.815
18441W        W82649   5.279  37.921  13.941
18442W        W82650  43.937  42.837  12.400
18443W        W82651  10.139  30.433   0.341
18444W        W82652  39.479  43.300  10.458
18445W        W82653  33.381  44.787   1.713
18446W        W82654   9.389  26.017   1.719
18447W        W82655  11.206   1.237  11.594
18448W        W82656  33.996  13.722  12.544
18449W        W82657   3.436  16.229   3.277
18450W        W82658  30.095  32.088  12.878
18451W        W82659  33.117  34.488  10.544
18452W        W82660  25.000  43.911  11.495
18453W        W82661  39.977  29.517   4.201
18454W        W82662  29.619  25.596   2.218
18455W        W82663   8.810  13.111  11.608
18456W        W82664  17.276  25.565   1.762
18457W        W82665  22.664   7.408  14.448
18458W        W82666  33.609  40.503  13.363
18459W        W82667  22.732  40.934  14.913
18460W        W82668  27.136  36.540   1.856
18461W        W82669   5.241  23.496   1.406
18462W        W82670  44.935  12.784  14.831
18463W        W82671  42.445   4.810   1.758
18464W        W82672  40.427  16.631  12.042
18465W        W82673  28.659  32.040  11.475
18466W        W82674   7.710  33.534  10.475
18467W        W82675  10.294  26.084   2.261
18468W        W82676  28.060   7.281   1.790
18469W        W82677  43.953  42.032  14.903
18470W        W82678  14.646  40.466  14.936
18471W        W82679  13.687  12.622   4.745
18472W        W82680  38.384  34.904  11.882
18473W        W82681  14.813  27.684  10.591
18474W        W82682  26.111  27.568   2.413
18475W        W82683   5.400   8.763   0.961
18476W        W82684   6.389  30.467  13.399
18477W        W82685  21.580  43.431   4.600
18478W        W82686  37.903   9.847  13.517
18479W        W82687  28.932  42.389  14.912
18480W        W82688  44.484   3.345  14.913
18481W        W82689  27.582  22.581   4.157
18482W        W82690  16.233  24.073   3.751
18483W        W82691   7.707  32.915  11.905
18484W        W82692  23.097  10.688  14.470
18485W        W82693  15.267   2.323  12.851
18486W        W82694  33.468  33.969  14.864
18487W        W82695  43.336  41.908  10.417
18488W        W82696  25.164   5.431  12.073
18489W        W82697   6.772  13.757  14.942
18490W        W82698   3.459   4.760  10.026
18491W        W82699  11.789   0.447  13.458
18492W        W82700  12.216  44.484   0.782
18493W        W82701  15.655  24.587  11.066
18494W        W82702  21.521  17.140  14.000
18495W        W82703  32.488   5.895   2.889
18496W        W82704  34.966  41.800   5.252
18497W        W82705   0.420  30.648  14.918
18498W        W82706  12.146  11.797   4.127
18499W        W82707   4.215   8.314   0.374
18500W        W82708  10.380  11.758   2.706
18501W        W82709  29.447  34.422   4.349
18502W        W82710  12.845   5.262   4.635
18503W        W82711  27.537  26.535   2.398
18504W        W82712  26.013  24.209  11.612
18505W        W82713  19.698  32.941   1.920
18506W        W82714  43.361  21.576  14.429
18507W        W82715  18.237   2.905   0.300
18508W        W82716  10.325  13.648  11.407
18509W        W82717  21.625  26.542  14.995
18510W        W82718  33.544   7.737  14.831
18511W        W82719  29.566  22.161   3.262
18512W        W82720  30.061  37.491  14.918
18513W        W82721  12.633  38.031  13.430
18514W        W82722  16.291  10.217  14.449
18515W        W82723  42.311   4.210   1.280
18516W        W82724  33.879   2.776   0.922
18517W        W82725  17.607  40.961  13.370
18518W        W82726  22.161  12.840   2.864
18519W        W82727   9.821  33.120   2.669
18520W        W82728   8.380  27.095   2.283
18521W        W82729  11.186  34.396  13.981
18522W        W82730  29.155   0.904  11.417
18523W        W82731  37.543  22.248   4.234
18524W        W82732  44.809  32.390  10.087
18525W        W82733   2.269  33.425  11.561
18526W        W82734  10.279  33.613  13.518
18527W        W82735   6.698  19.544   1.211
18528W        W82736  17.711  22.046  10.621
18529W        W82737  37.920  39.923   1.434
18530W        W82738  42.842  27.548  11.472
18531W        W82739  37.550   4.362   1.295
18532W        W82740  42.905  41.944  11.019
18533W        W82741  22.057   4.261  13.899
18534W        W82742  27.970   1.814  14.960
18535W        W82743  18.057  14.680   4.750
18536W        W82744  34.594  23.196   3.219
18537W        W82745  32.531  44.302  13.544
18538W        W82746  39.988   1.390  12.551
18539W        W82747  44.403  29.645   0.806
18540W        W82748  28.165  18.106   3.741
18541W        W82749  31.058  39.881   3.867
18542W        W82750  34.522  37.948  14.027
18543W        W82751  33.107  26.548  13.977
18544W        W82752  20.663  26.205   4.810
18545W        W82753  18.698  25.140  14.977
18546W        W82754  28.535  23.995   0.845
18547W        W82755  35.037  43.788   0.330
18548W        W82756  20.646  26.604   0.446
18549W        W82757   7.326  33.559   4.322
18550W        W82758  38.563  31.036  10.521
18551W        W82759  20.254  28.944   3.715
18552W        W82760  34.371  42.351  10.558
18553W        W82761   8.690  37.567   1.778
18554W        W82762  40.960  36.538  10.599
18555W        W82763  19.638  39.501  14.329
18556W        W82764   7.406   9.806   3.864
18557W        W82765  25.520  11.769  11.468
18558W        W82766  11.704   0.834  12.578
18559W        W82767  31.016  39.829   3.330
18560W        W82768  30.003  41.414  11.894
18561W        W82769  24.990  31.556   4.607
18562W        W82770  26.595  38.972   1.793
18563W        W82771   0.929  42.352  12.428
18564W        W82772  39.853  20.574  13.507
18565W        W82773  19.675  32.890  12.556
18566W        W82774  31.053  24.540   3.223
18567W        W82775  13.820  39.344  12.896
18568W        W82776  18.231  23.012   4.711
18569W        W82777   9.286  17.597   3.374
18570W        W82778   6.199  36.069  11.007
18571W        W82779   4.210  37.366  12.039
18572W        W82780  38.986  42.909  14.480
18573W        W82781  43.777   0.903   3.865
18574W        W82782   6.745  10.866  11.124
18575W        W82783  26.505  18.058  13.970
18576W        W82784  11.170   7.373  13.807
18577W        W82785  38.428   0.838  12.396
18578W        W82786  11.236  22.016  13.911
18579W        W82787  24.617  19.217  11.556
18580W        W82788  14.627  29.114   3.824
18581W        W82789  42.282  17.677   5.322
18582W        W82790  31.013  23.508   9.967
18583W        W82791  15.328  21.153  12.890
18584W        W82792   4.426  33.507  13.815
18585W        W82793  38.488  37.967  10.935
18586W        W82794  21.739  20.116   3.785
18587W        W82795  23.119  25.003  11.464
18588W        W82796  17.722  10.323   3.778
18589W        W82797  21.693  14.591  11.431
18590W        W82798  29.488  25.061   2.761
18591W        W82799  11.196  37.448   5.181
18592W        W82800  24.558  23.572   4.151
18593W        W82801  21.584   1.452   3.255
18594W        W82802  41.517  27.532   2.862
18595W        W82803  42.302  40.938   4.688
18596W        W82804  15.636  10.638  11.069
18597W        W82805  14.666  19.719   4.346
18598W        W82806  11.243  34.975  11.931
18599W        W82807   9.880   0.274   2.213
18600W        W82808  30.138  14.236  11.543
18601W        W82809  38.991  31.114  14.973
18602W        W82810  40.053  23.666   4.117
18603W        W82811  25.619   0.861  11.016
18604W        W82812  40.896  12.735   3.808
18605W        W82813  23.502  20.086   4.186
18606W        W82814  17.093  43.885   2.319
18607W        W82815  12.670  26.609   9.938
18608W        W82816  32.612   2.867  11.044
18609W        W82817  17.288  30.075   1.327
18610W        W82818  42.982  35.395   3.812
18611W        W82819  25.158  29.071   2.289
18612W        W82820  33.032  31.609   4.790
18613W        W82821  15.244  18.064  12.572
18614W        W82822  41.386  22.509  11.082
18615W        W82823  20.603  33.602  12.088
18616W        W82824  22.647  12.179   2.202
18617W        W82825  19.263   0.388   4.209
18618W        W82826  15.225  41.879   1.396
18619W        W82827  44.271   7.884   1.696
18620W        W82828   3.271  33.981   3.348
18621W        W82829  44.782  24.112  11.037
18622W        W82830  31.452  17.122  12.048
18623W        W82831  20.255  20.062   2.881
18624W        W82832   5.280  25.574   3.267
18625W        W82833  24.557  32.501  10.445
18626W        W82834  25.596  23.617  14.492
18627W        W82835  41.525  24.528  12.548
18628W        W82836  37.856   3.309  12.423
18629W        W82837  37.085  29.511   4.256
18630W        W82838  39.401  39.041   0.413
18631W        W82839  42.476  25.106   1.398
18632W        W82840  37.412  36.914   1.215
18633W        W82841  15.219  14.755  13.506
18634W        W82842   5.901  31.085   4.191
18635W        W82843  14.591  29.058  10.999
18636W        W82844  20.166  18.286   0.748
18637W        W82845  29.651  19.651  11.590
18638W        W82846   1.896   8.187   1.240
18639W        W82847  34.476  37.342   0.297
18640W        W82848  15.269  20.037   0.386
18641W        W82849  44.851  27.129  11.532
18642W        W82850  36.580  41.296  13.823
18643W        W82851  12.121  17.580  14.492
18644W        W82852  44.916  32.530   3.738
18645W        W82853   9.222  23.232   3.269
18646W        W82854  19.764  27.584  13.885
18647W        W82855  18.168  32.945   0.306
18648W        W82856   3.771  37.506   5.225
18649W        W82857  42.400  29.492  13.055
18650W        W82858  28.068  13.818  11.857
18651W        W82859   6.264  34.443  12.466
18652W        W82860   6.372   7.698  14.514
18653W        W82861  37.559  27.510  11.916
18654W        W82862   7.880   4.901   4.244
18655W        W82863  32.589  22.172   1.452
18656W        W82864  26.123  29.660   2.199
18657W        W82865  43.969  19.121   4.275
18658W        W82866  38.989  13.111  11.067
18659W        W82867  26.061  40.830  12.491
18660W        W82868   5.318  42.402   3.344
18661W        W82869  23.626   8.220   3.719
18662W        W82870  15.792   4.289  10.526
18663W        W82871  44.793  38.874   1.366
18664W        W82872  44.905  42.821   1.730
18665W        W82873  12.685  24.534   0.431
18666W        W82874  40.366  26.052   1.321
18667W        W82875  10.292  16.244  13.878
18668W        W82876  22.081  25.165   4.721
18669W        W82877  44.268  12.695  10.887
18670W        W82878  31.432   0.397  13.910
18671W        W82879  35.521  13.284  13.307
18672W        W82880  44.816   7.213   1.789
18673W        W82881  32.889   7.281   4.755
18674W        W82882  37.964   8.658  10.086
18675W        W82883   5.926  37.037  13.517
18676W        W82884  29.173   0.938  14.944
18677W        W82885  21.215   4.212  13.330
18678W        W82886  34.615  29.570   3.779
18679W        W82887  34.484   4.822   9.922
18680W        W82888  11.174  23.687  13.497
18681W        W82889  15.740  36.894  14.985
18682W        W82890  26.626  13.707  13.370
18683W        W82891  42.342  17.677   9.523
18684W        W82892  29.545   4.865  11.607
18685W        W82893  12.160  11.797  11.960
18686W        W82894   5.889  29.560  11.384
18687W        W82895  22.740  38.046  12.485
18688W        W82896  40.030  30.116  14.006
18689W        W82897  31.044   7.764  13.890
18690W        W82898  33.013   5.355  11.551
18691W        W82899  17.727  10.306   5.289
18692W        W82900  17.560   1.408  13.938
18693W        W82901  30.430  37.560   4.207
18694W        W82902   8.795  29.997   3.362
18695W        W82903   7.297  15.084  10.001
18696W        W82904  27.973  35.519   3.253
18697W        W82905   3.799   1.440  13.027
18698W        W82906   0.302  27.162  10.553
18699W        W82907  38.856  42.780   3.854
18700W        W82908  35.453  21.051  14.022
18701W        W82909  32.571  28.578   1.400
18702W        W82910  37.080  42.978   2.187
18703W        W82911  10.849  40.489   2.195
18704W        W82912  16.134  20.039  12.067
18705W        W82913  19.563  37.042   2.379
18706W        W82914  11.367   5.334   0.761
18707W        W82915  18.576  15.220  12.900
18708W        W82916  36.390  24.638   1.423
18709W        W82917  21.203  14.646   9.922
18710W        W82918  29.653   6.786  10.602
18711W        W82919  31.425  21.154   0.401
18712W        W82920  23.139   0.892   2.876
18713W        W82921   4.896  30.435  12.989
18714W        W82922   5.411  40.495   2.230
18715W        W82923  24.595   6.212   4.171
18716W        W82924  15.201  32.989   2.266
18717W        W82925   5.755  26.988   2.725
18718W        W82926  35.481  38.364  11.877
18719W        W82927  18.148  35.426  12.845
18720W        W82928  34.901  13.163   4.184
18721W        W82929   1.387  36.012  11.387
18722W        W82930  32.931  25.640  13.512
18723W        W82931   1.740  34.509  13.910
18724W        W82932  18.108  40.511  14.340
18725W        W82933  11.787  35.547   1.902
18726W        W82934   9.790  24.226   1.360
18727W        W82935  13.133  39.877   1.287
18728W        W82936  27.182  41.416   0.792
18729W        W82937  38.393  23.234  11.947
18730W        W82938  36.442  20.226   2.402
18731W        W82939   6.815   6.317   1.241
18732W        W82940  25.480  20.666  10.592
18733W        W82941  42.940  42.457   2.242
18734W        W82942   0.879  42.857   2.378
18735W        W82943  28.979  37.522  13.388
18736W        W82944  35.889  14.181   2.335
18737W        W82945  27.102  13.808   3.258
18738W        W82946  12.116   5.231  10.562
18739W        W82947  25.102  36.364  11.074
18740W        W82948  14.317  39.871   0.310
18741W        W82949  28.652   3.808  14.759
18742W        W82950  27.557  27.955   0.823
18743W        W82951  15.091  24.126  12.389
18744W        W82952  29.109  17.275   1.248
18745W        W82953  36.519   2.737   0.407
18746W        W82954  36.435  44.279   1.708
18747W        W82955  12.247  12.240  11.383
18748W        W82956  20.599  40.939  14.321
18749W        W82957  17.300  17.223  12.847
18750W        W82958  19.583  39.879   1.321
18751W        W82959  10.197  17.082   0.444
18752W        W82960  19.734  42.460   0.330
18753W        W82961  17.563  36.501  13.405
18754W        W82962  35.934  11.369   0.852
18755W        W82963  25.210  37.849  13.384
18756W        W82964  41.493   9.322   4.607
18757W        W82965  41.005  34.104  12.969
18758W        W82966  27.502  31.402   1.725
18759W        W82967   2.722  20.148  12.339
18760W        W82968  30.907  11.852  10.556
18761W        W82969  29.068  41.518   2.691
18762W        W82970  39.507  42.899   1.384
18763W        W82971  38.044  16.664   0.333
18764W        W82972  11.775   3.766  14.339
18765W        W82973  27.132  38.048   4.753
18766W        W82974  21.600  34.581  12.011
18767W        W82975   4.451  20.577   4.652
18768W        W82976  41.847  35.023  14.875
18769W        W82977  44.362  17.673   0.281
18770W        W82978   9.753  31.004   3.284
18771W        W82979  41.916  21.755   0.842
18772W        W82980  24.675  31.520   0.769
18773W        W82981   4.291   0.888   1.852
18774W        W82982  33.015  15.766   1.336
18775W        W82983  39.968  32.025  10.427
18776W        W82984  12.775  16.610   4.114
18777W        W82985  28.550  27.575  12.072
18778W        W82986  39.917  16.268   5.594
18779W        W82987  21.049   1.883   2.287
18780W        W82988  18.674  22.588   0.905
18781W        W82989  29.945  34.866  10.599
18782W        W82990  28.469  21.121  10.450
18783W        W82991  17.733  11.211   2.224
18784W        W82992   8.806   9.296   3.226
18785W        W82993   1.880  33.024  12.528
18786W        W82994  29.549   2.229   4.337
18787W        W82995  16.792  20.640   0.333
18788W        W82996  10.801  23.131   3.708
18789W        W82997  44.008   5.399  11.586
18790W        W82998  19.567  37.556  10.483
18791W        W82999  18.644  13.779  11.509
18792W        W83000  34.046  29.956   2.735
18793W        W83001  35.533  25.198   1.323
18794W        W83002  40.523  23.050   2.286
18795W        W83003  38.438  13.229  12.888
18796W        W83004   9.178  12.737  12.441
18797W        W83005  35.940  11.138   2.223
18798W        W83006  22.078   9.330  14.860
18799W        W83007  33.500  20.586  14.369
18800W        W83008   7.746   7.307  14.910
18801W        W83009  10.785  40.006  11.929
18802W        W83010  18.272  25.510  10.443
18803W        W83011   0.397  39.931   1.800
18804W        W83012  36.918  43.839  10.538
18805W        W83013  16.290  33.576   3.789
18806W        W83014  33.886   4.394  14.504
18807W        W83015  28.955  43.903  14.003
18808W        W83016   3.375   9.276   5.178
18809W        W83017  14.099  41.862  11.385
18810W        W83018   6.373  22.142   2.680
18811W        W83019  20.698  14.184  10.406
18812W        W83020  38.065  35.072  10.888
18813W        W83021   0.903  11.757  10.038
18814W        W83022   7.313  11.653  14.394
18815W        W83023   9.173   0.864   2.754
18816W        W83024   0.401  10.689  11.008
18817W        W83025  21.732   2.957  14.887
18818W        W83026   0.357   8.673  14.821
18819W        W83027  18.124  21.114  11.383
18820W        W83028  30.928  17.143  12.364
18821W        W83029   7.835  42.515   3.292
18822W        W83030  34.998   8.687   2.326
18823W        W83031  29.524   6.805  13.837
18824W        W83032  25.113  20.629   0.912
18825W        W83033  10.371  32.043   3.672
18826W        W83034  10.230  40.006  11.467
18827W        W83035   1.773   7.735   1.403
18828W        W83036  25.594  27.052   0.808
18829W        W83037  27.568  35.093  10.531
18830W        W83038  37.361  37.847   1.410
18831W        W83039  18.750  41.432   4.144
18832W        W83040  29.129  36.457   0.435
18833W        W83041  31.615   4.871   3.831
18834W        W83042  41.425  42.010  11.068
18835W        W83043   7.827   3.888   0.858
18836W        W83044  20.068  39.966  14.970
18837W        W83045  11.641  31.947   2.839
18838W        W83046  13.172  37.034   3.253
18839W        W83047  32.402  27.074  14.003
18840W        W83048  16.580   8.672   3.317
18841W        W83049  17.609  22.675  13.501
18842W        W83050  15.184  35.442  13.475
18843W        W83051  14.181   3.795  14.891
18844W        W83052   5.807  12.135  13.384
18845W        W83053  16.276  32.995  13.808
18846W        W83054  23.048  27.671   1.273
18847W        W83055  38.819   6.299  10.624
18848W        W83056  25.998  14.809  13.308
18849W        W83057   5.212  15.654  10.981
18850W        W83058  39.042  20.671  11.041
18851W        W83059   0.394  25.644   4.652
18852W        W83060  37.505  22.207  12.857
18853W        W83061  37.356  13.716  10.541
18854W        W83062  42.342  19.553  12.506
18855W        W83063  33.614  12.622   2.859
18856W        W83064  30.133   4.878   3.237
18857W        W83065  33.888  19.244  11.573
18858W        W83066  26.032  18.086  11.449
18859W        W83067  22.644  32.426  13.521
18860W        W83068   6.369  26.474  11.099
18861W        W83069   2.408  26.515   1.345
18862W        W83070   5.417   7.726  12.542
18863W        W83071  44.922  24.581   3.805
18864W        W83072   3.726   9.358  12.408
18865W        W83073  18.125   1.810   3.746
18866W        W83074   5.759  38.427  13.030
18867W        W83075   0.419   0.905  11.129
18868W        W83076  38.351   3.221  14.924
18869W        W83077  11.774  29.061   3.717
18870W        W83078   2.922  13.172  13.935
18871W        W83079  29.005  43.913  12.917
18872W        W83080  10.866   3.725  11.948
18873W        W83081   2.958  11.720   0.814
18874W        W83082  26.967  34.093   4.633
18875W        W83083  33.469  29.067  10.413
18876W        W83084  20.636  11.310   0.808
18877W        W83085   2.365  33.007  11.449
18878W        W83086  24.090  18.552   2.703
18879W        W83087  12.183   1.469   0.926
18880W        W83088  42.489   7.772   1.419
18881W        W83089  38.340  34.387   0.759
18882W        W83090  43.914  13.206   1.930
18883W        W83091  35.388   4.860   4.804
18884W        W83092  22.042  15.218   1.909
18885W        W83093  18.073  42.823   0.451
18886W        W83094  20.186  37.411   5.802
18887W        W83095  15.803  29.599  11.494
18888W        W83096  29.069  25.516   3.660
18889W        W83097  21.600  23.137  10.411
18890W        W83098  11.679  11.373  11.569
18891W        W83099  42.017  16.677   0.932
18892W        W83100  13.179  27.098   1.812
18893W        W83101   4.206  38.020   1.726
18894W        W83102  30.565  15.736   1.322
18895W        W83103  24.073  23.505  13.308
18896W        W83104  14.621  36.357  14.939
18897W        W83105  10.259  34.070  10.591
18898W        W83106  14.779   6.857   4.827
18899W        W83107  36.980  42.893  13.360
18900W        W83108  13.297  12.849  12.066
18901W        W83109   2.352   2.865   4.174
18902W        W83110  12.735  20.096   2.349
18903W        W83111  34.987  42.829   0.806
18904W        W83112   3.728  37.005  11.099
18905W        W83113  22.612   1.809  12.068
18906W        W83114   6.244  13.812  13.466
18907W        W83115  34.903   4.851  12.017
18908W        W83116   7.748  43.002   3.664
18909W        W83117  29.533  26.095  11.528
18910W        W83118   0.806   1.958  14.027
18911W        W83119  20.625  35.960   1.305
18912W        W83120   4.936  10.765   0.945
18913W        W83121   3.857   2.895   2.387
18914W        W83122  24.621  15.619   3.379
18915W        W83123   7.743  34.487  14.303
18916W        W83124  30.061  29.092   3.755
18917W        W83125  18.753  44.891   3.231
18918W        W83126  21.250  19.228   1.390
18919W        W83127  19.203  35.376   0.343
18920W        W83128   7.794   5.891  14.017
18921W        W83129  33.997  36.440  13.928
18922W        W83130   0.331  44.973   2.809
18923W        W83131   2.912   7.276   2.711
18924W        W83132  44.852  27.467  12.416
18925W        W83133  15.623  21.227   2.209
18926W        W83134  37.375   0.304   0.256
18927W        W83135   1.963   6.323  14.434
18928W        W83136  44.792  34.477  13.457
18929W        W83137  27.173  18.665  10.136
18930W        W83138   8.373  18.100  13.828
18931W        W83139  44.980  14.630  14.783
18932W        W83140  38.518   1.331   3.244
18933W        W83141  16.638  22.534   2.866
18934W        W83142  15.822   6.350   1.353
18935W        W83143  30.015  39.840   2.807
18936W        W83144  27.992  36.926  10.424
18937W        W83145  37.538  15.310  10.420
18938W        W83146  41.450  18.783  12.374
18939W        W83147   0.750  10.317  13.449
18940W        W83148  39.372  13.134   0.472
18941W        W83149  10.740  29.145   2.802
18942W        W83150  36.533  37.485   2.378
18943W        W83151  39.867  43.017   4.168
18944W        W83152  44.855  26.582  14.010
18945W        W83153  40.947  10.777   4.717
18946W        W83154  21.529  25.085   0.386
18947W        W83155  19.051  38.438  13.317
18948W        W83156   3.950  10.259   2.739
18949W        W83157   0.788  23.681   3.214
18950W        W83158  31.416  12.215   4.283
18951W        W83159  25.550  18.592  13.860
18952W        W83160   8.655   5.691   0.366
18953W        W83161  25.075   8.721   3.662
18954W        W83162  20.091  15.680   0.760
18955W        W83163  41.787   1.933  14.439
18956W        W83164  38.986  38.378  13.380
18957W        W83165  38.540  37.036   3.725
18958W        W83166  18.678  39.949   3.636
18959W        W83167  31.534   4.763  13.815
18960W        W83168  25.981   3.737   0.365
18961W        W83169   4.322  36.983  12.967
18962W        W83170  29.054  39.356  14.427
18963W        W83171   1.900  36.437  13.547
18964W        W83172   0.798  23.107  10.625
18965W        W83173  15.171  28.058   3.224
18966W        W83174  21.631  16.106  10.528
18967W        W83175   9.890  37.981   1.708
18968W        W83176   9.758  27.451  14.435
18969W        W83177  21.612   9.759  10.576
18970W        W83178  34.885  27.056  13.044
18971W        W83179  30.483  10.716   2.414
18972W        W83180  22.098  25.036  13.912
18973W        W83181  11.813  34.598   1.344
18974W        W83182  14.653  42.517   0.433
18975W        W83183  32.500  27.459  10.589
18976W        W83184  35.094   6.758  12.532
18977W        W83185   8.168   2.371   0.395
18978W        W83186  17.284  33.993  11.970
18979W        W83187  32.467  31.454   3.726
18980W        W83188  25.209  40.340  11.909
18981W        W83189  42.840  43.320   1.422
18982W        W83190  41.353   4.399   3.677
18983W        W83191  30.984   7.323   2.818
18984W        W83192  20.617  20.594  12.023
18985W        W83193  40.804  28.542  10.405
18986W        W83194  26.656  14.264   3.659
18987W        W83195  34.963  43.434   3.309
18988W        W83196  40.899  16.811  11.116
18989W        W83197  24.120  38.873   1.240
18990W        W83198  41.969  26.666   2.201
18991W        W83199  35.362  19.756   0.790
18992W        W83200  30.577  40.983   0.923
18993W        W83201  16.796   2.266  10.512
18994W        W83202  17.750   5.224  13.993
18995W        W83203   0.986   8.342   3.229
18996W        W83204  24.162   6.356   1.700
18997W        W83205  22.726  23.600   0.420
18998W        W83206  27.580  42.911  11.088
18999W        W83207   2.382  44.783  13.411
19000W        W83208  15.311  25.617   1.921
19001W        W83209  26.157  17.618  11.525
19002W        W83210  12.714   4.310   0.452
19003W        W83211  29.099  14.174   4.345
19004W        W83212  26.575  16.082   3.358
19005W        W83213   4.793  16.235  13.862
19006W        W83214  40.009  23.670   2.857
19007W        W83215  26.586  44.276  10.116
19008W        W83216  19.064  37.027   0.756
19009W        W83217  27.579  39.528   3.304
19010W        W83218  28.932  27.476   2.221
19011W        W83219  18.278  21.107  14.440
19012W        W83220  27.968  33.504  14.410
19013W        W83221  37.834  19.699  11.533
19014W        W83222   3.432  10.215   3.209
19015W        W83223  30.933  35.996  11.433
19016W        W83224  10.304  42.890  11.119
19017W        W83225  22.084   7.229  11.995
19018W        W83226  36.888  33.480   4.661
19019W        W83227   8.847  27.941   1.268
19020W        W83228  37.878  30.134  12.084
19021W        W83229   7.670  23.692  10.040
19022W        W83230  33.392  10.862  11.978
19023W        W83231  24.011  22.149  13.501
19024W        W83232  40.032  19.681  10.046
19025W        W83233  30.052  33.122  11.957
19026W        W83234   8.771   7.231   4.696
19027W        W83235   4.844  11.663  12.864
19028W        W83236  42.315   8.753   1.269
19029W        W83237  33.953  36.375   4.609
19030W        W83238   2.397  27.624  12.539
19031W        W83239   4.293   5.200   2.304
19032W        W83240  33.066  29.529  13.917
19033W        W83241  33.559  16.254   9.442
19034W        W83242  21.595  13.639   1.905
19035W        W83243  44.875  21.531   0.467
19036W        W83244  14.274   9.176   0.967
19037W        W83245  12.248  32.013   0.924
19038W        W83246   3.825  20.154  12.517
19039W        W83247   4.866  16.227  12.022
19040W        W83248  37.065   1.881  13.441
19041W        W83249   6.693  19.536  13.058
19042W        W83250  43.766   5.380   4.310
19043W        W83251  29.042  37.463   0.359
19044W        W83252  35.873  34.873   1.885
19045W        W83253  40.951  31.418  11.896
19046W        W83254  36.528   4.446  12.377
19047W        W83255  42.868  21.219  14.860
19048W        W83256   9.776  27.183  12.019
19049W        W83257  43.998  19.749   1.750
19050W        W83258  40.816   9.865   4.344
19051W        W83259  15.297  27.641   1.250
19052W        W83260  23.620   6.707  13.459
19053W        W83261  12.750  17.624  13.477
19054W        W83262  17.127  37.031   4.334
19055W        W83263  17.080  19.636  12.411
19056W        W83264  23.629   4.750   1.424
19057W        W83265  20.232  12.753  12.079
19058W        W83266  22.575  28.612   2.374
19059W        W83267   7.186  38.542   4.644
19060W        W83268   9.368  27.447   4.144
19061W        W83269  40.803   8.260  12.379
19062W        W83270  16.766  17.646   0.401
19063W        W83271  25.183  24.544  10.560
19064W        W83272  41.385  43.428  13.916
19065W        W83273  42.476  44.478  13.456
19066W        W83274  10.277  36.017  13.340
19067W        W83275   5.802  19.739   3.844
19068W        W83276  28.528  15.751   0.345
19069W        W83277  32.072   6.193  14.006
19070W        W83278  35.496   4.921  13.027
19071W        W83279  28.945  31.045   3.194
19072W        W83280  18.151  32.519  13.872
19073W        W83281  18.231  28.030  10.445
19074W        W83282  24.171  24.505  11.470
19075W        W83283  16.079  19.192  12.414
19076W        W83284   3.837   6.234   0.468
19077W        W83285  17.707  40.346  11.529
19078W        W83286  11.163  28.963  12.909
19079W        W83287  18.677   3.217  14.845
19080W        W83288  43.335  26.963  12.880
19081W        W83289  29.160  42.339  10.529
19082W        W83290  27.654  42.404  13.802
19083W        W83291  38.908  23.531   0.441
19084W        W83292   1.334  23.160  14.489
19085W        W83293  34.079  14.725  14.818
19086W        W83294   3.301  11.291  13.907
19087W        W83295   3.424  20.652   2.759
19088W        W83296   6.419  19.539   5.210
19089W        W83297  18.156  19.674  11.912
19090W        W83298  15.657  43.862   1.403
19091W        W83299  10.766  15.762  14.353
19092W        W83300  18.773   9.330  11.963
19093W        W83301  32.998   7.334   3.676
19094W        W83302  23.719  31.932   4.262
19095W        W83303  36.934  22.251   1.385
19096W        W83304  21.593  19.210   1.776
19097W        W83305  14.289  31.473  14.770
19098W        W83306  20.542  26.628   3.346
19099W        W83307  42.502   2.826   0.393
19100W        W83308   9.644  11.251  13.866
19101W        W83309  39.825  42.961  13.008
19102W        W83310   0.376  30.617  12.907
19103W        W83311  17.658  31.535   1.261
19104W        W83312  43.346   7.271   4.628
19105W        W83313  37.506  25.022  10.964
19106W        W83314  37.445  18.172  13.349
19107W        W83315   1.379  30.570  11.449
19108W        W83316  43.909   9.301  10.611
19109W        W83317   2.939  34.440   0.942
19110W        W83318  35.467  43.374   1.324
19111W        W83319  17.224  43.774  14.784
19112W        W83320   4.874  23.526  12.907
19113W        W83321  20.097  38.982  13.400
19114W        W83322  22.690  20.566  14.901
19115W        W83323  44.844  10.661   2.813
19116W        W83324  35.427  44.289  11.881
19117W        W83325  37.046   0.898   1.422
19118W        W83326  40.881  18.077   3.226
19119W        W83327  23.032   8.298  12.545
19120W        W83328  31.548  23.237   1.264
19121W        W83329  43.469   9.153   1.288
19122W        W83330  42.916  21.254   4.653
19123W        W83331   8.390  27.608   4.603
19124W        W83332  32.433  12.161   2.415
19125W        W83333  15.638  25.024  14.021
19126W        W83334  23.041  12.229  13.010
19127W        W83335  19.540  36.511   3.795
19128W        W83336  30.440  28.078   2.843
19129W        W83337  30.428  16.647   4.728
19130W        W83338  17.093   1.237  11.464
19131W        W83339  42.365  32.987  14.492
19132W        W83340  12.202  41.328   4.815
19133W        W83341  15.822  32.996  13.002
19134W        W83342  32.898  34.410  12.873
19135W        W83343   9.783  23.096   1.225
19136W        W83344  12.136   6.422  13.822
19137W        W83345  11.303  44.961   2.731
19138W        W83346  32.024  16.689   0.344
19139W        W83347  16.110  42.820  12.031
19140W        W83348  27.688  35.018  14.800
19141W        W83349  34.581   4.306  13.897
19142W        W83350  42.424  21.078   0.429
19143W        W83351   2.862  26.589   5.220
19144W        W83352  42.282  13.226  11.504
19145W        W83353  27.947  36.095  10.618
19146W        W83354  38.366  16.793  10.083
19147W        W83355  43.004  12.233   0.782
19148W        W83356  18.682   6.884  14.968
19149W        W83357  12.333   8.205  13.915
19150W        W83358  43.895  26.059  10.522
19151W        W83359  25.483   0.800   2.210
19152W        W83360  13.806  38.981   0.948
19153W        W83361  20.120  15.691   0.411
19154W        W83362  33.066   6.681   0.837
19155W        W83363  23.663  10.849  10.922
19156W        W83364  31.986  17.174   2.374
19157W        W83365  15.244  15.627  13.990
19158W        W83366   9.748   7.191   2.805
19159W        W83367  32.571  10.202  12.901
19160W        W83368  42.412  38.373  12.902
19161W        W83369  35.029  40.998   1.904
19162W        W83370  30.547  39.457   0.470
19163W        W83371   1.479  21.748   1.220
19164W        W83372  29.554  38.049   3.674
19165W        W83373  41.391   1.745  10.922
19166W        W83374  17.167  11.332   3.648
19167W        W83375  43.503  11.724  12.852
19168W        W83376  12.782  32.632  14.979
19169W        W83377  24.623  10.149  11.588
19170W        W83378  13.254  28.448   2.750
19171W        W83379   3.739  20.567  14.857
19172W        W83380   5.736  32.962   2.209
19173W        W83381  14.328   6.236   0.884
19174W        W83382  28.466   9.672  13.340
19175W        W83383  18.282  21.088  12.957
19176W        W83384  28.966  11.159  14.934
19177W        W83385   0.412  31.427  11.428
19178W        W83386  31.555  15.594   1.271
19179W        W83387  29.983  40.381   3.227
19180W        W83388  36.397  39.820  14.029
19181W        W83389  37.933   2.842  14.824
19182W        W83390   3.426   4.382  14.818
19183W        W83391  18.573  25.563  12.854
19184W        W83392  17.800  27.107   4.805
19185W        W83393  25.609  30.532   1.281
19186W        W83394  39.984  38.539  14.772
19187W        W83395   6.382  13.222   2.250
19188W        W83396   3.932  13.331  13.399
19189W        W83397  23.134  10.238   2.179
19190W        W83398  41.416  34.559  12.027
19191W        W83399  11.684  33.439  14.858
19192W        W83400  31.065   2.830  13.959
19193W        W83401  29.106  16.280  10.947
19194W        W83402  32.061  22.656  14.463
19195W        W83403  25.213  44.423  11.073
19196W        W83404  24.529  23.598   1.307
19197W        W83405  23.663  43.781   2.765
19198W        W83406  36.491  16.303  13.465
19199W        W83407  40.350  30.644  10.409
19200W        W83408  21.108  33.123  13.837
19201W        W83409  37.042  16.074  14.282
19202W        W83410  38.951  14.654   0.851
19203W        W83411  39.437  43.317   2.221
19204W        W83412  40.901  35.488   3.648
19205W        W83413  42.828  31.412  11.049
19206W        W83414  20.172  34.903   4.256
19207W        W83415  31.629  23.065  13.508
19208W        W83416  36.447  27.026   4.233
19209W        W83417  13.737   4.424   2.318
19210W        W83418  27.597  17.647   2.844
19211W        W83419  17.770  34.107  12.848
19212W        W83420  37.438  15.238   0.442
19213W        W83421  16.704  21.735   2.246
19214W        W83422   2.412   4.792  14.374
19215W        W83423  38.415  40.370   0.272
19216W        W83424   4.253  23.641   4.114
19217W        W83425  10.261   6.851   4.702
19218W        W83426  17.168   7.249   0.403
19219W        W83427  41.381  32.541   0.433
19220W        W83428  40.864  15.318   3.831
19221W        W83429  18.078  11.771  12.075
19222W        W83430  30.082   8.687   4.649
19223W        W83431  13.344   2.297   2.878
19224W        W83432  22.048  12.684   4.639
19225W        W83433  11.232  43.475   3.345
19226W        W83434  11.268  17.112   2.740
19227W        W83435  25.204  16.812   4.332
19228W        W83436  24.982  33.474  12.573
19229W        W83437  35.938  12.175   4.241
19230W        W83438   5.286  33.403   2.684
19231W        W83439   7.284  22.113  11.049
19232W        W83440   0.866   5.875  12.493
19233W        W83441  40.330  18.210   3.850
19234W        W83442  26.996  22.663  13.000
19235W        W83443  31.559   7.680   3.743
19236W        W83444  11.723  41.490  12.883
19237W        W83445  35.547  19.724   2.689
19238W        W83446   5.805  26.025  12.882
19239W        W83447  13.212  24.620  14.759
19240W        W83448  27.668   3.337  14.776
19241W        W83449  34.942   9.341  13.980
19242W        W83450  33.572  13.668  13.049
19243W        W83451  12.763  40.002   4.219
19244W        W83452  38.031  27.447  14.319
19245W        W83453  22.156  20.694   3.717
19246W        W83454  21.555   0.950  11.951
19247W        W83455  18.122  17.583   4.681
19248W        W83456   7.849  33.425  12.093
19249W        W83457  15.251  14.806   1.731
19250W        W83458   8.337  23.104   2.865
19251W        W83459  24.642  22.722  11.064
19252W        W83460  29.145  33.536  14.468
19253W        W83461  33.877   0.846   2.800
19254W        W83462   4.425  24.120  13.515
19255W        W83463   0.812  43.489  11.606
19256W        W83464  12.228  12.261  10.976
19257W        W83465  36.391   9.150  12.391
19258W        W83466  36.505  37.434   2.865
19259W        W83467   3.868  35.071   1.449
19260W        W83468  40.042  21.644   0.746
19261W        W83469   6.424   9.767   2.380
19262W        W83470  37.411  40.802   0.917
19263W        W83471  34.081  38.053  11.084
19264W        W83472  32.118  13.662   2.887
19265W        W83473  36.424  14.291   3.313
19266W        W83474  31.106  41.039   0.761
19267W        W83475   2.357  24.596  12.973
19268W        W83476  40.912  37.976   1.917
19269W        W83477  31.572  22.524  10.443
19270W        W83478   3.910   7.362  14.497
19271W        W83479   6.916  38.924   0.824
19272W        W83480  30.657   8.740   2.259
19273W        W83481  20.535  25.652   3.208
19274W        W83482  10.751  35.478  12.832
19275W        W83483  18.195  11.792   4.319
19276W        W83484  23.162  39.049  12.963
19277W        W83485  27.190  40.408  11.611
19278W        W83486  40.017  18.670  13.970
19279W        W83487  11.318  15.579   0.783
19280W        W83488   8.882   4.440   1.935
19281W        W83489   7.415  10.660  14.916
19282W        W83490  37.871  31.126  10.539
19283W        W83491  24.140  18.268   9.974
19284W        W83492  11.209  23.179   3.192
19285W        W83493  31.968  15.101  11.380
19286W        W83494   0.427  22.146  13.890
19287W        W83495  44.869  17.732   1.768
19288W        W83496  22.632  16.793  14.293
19289W        W83497  23.235  40.035  10.585
19290W        W83498  27.077  23.071   3.762
19291W        W83499   2.781   2.256   0.443
19292W        W83500  19.776  23.120  12.971
19293W        W83501  30.935  32.066  11.921
19294W        W83502  22.090  35.996   1.699
19295W        W83503  31.405  20.135   3.360
19296W        W83504   2.898  40.492  11.893
19297W        W83505  11.774  27.542  14.279
19298W        W83506  29.923  32.063  14.330
19299W        W83507  16.197   3.253   0.763
19300W        W83508  24.556   0.903  14.928
19301W        W83509   1.878  26.679  14.368
19302W        W83510  17.180   5.291   3.225
19303W        W83511  36.879  16.080   0.938
19304W        W83512  12.781  41.029  12.014
19305W        W83513  13.814  21.565  11.026
19306W        W83514   3.807   6.387  13.994
19307W        W83515  14.737  33.055  14.943
19308W        W83516  30.117  13.122  10.610
19309W        W83517   5.236  23.610   3.745
19310W        W83518  17.284  16.089  11.544
19311W        W83519   7.811   0.352   0.848
19312W        W83520  15.155  42.319  12.555
19313W        W83521  37.955   8.808  14.820
19314W        W83522  13.190  40.413  13.497
19315W        W83523  27.955  26.459  13.819
19316W        W83524  21.649   3.720  13.492
19317W        W83525   9.195  32.944   0.942
19318W        W83526  30.093  31.959  13.821
19319W        W83527  13.607  20.248   2.366
19320W        W83528  26.498   8.260   2.765
19321W        W83529  32.936  11.271   0.869
19322W        W83530  34.100   6.767  10.473
19323W        W83531  12.819  41.811   3.220
19324W        W83532  42.806  23.071  13.013
19325W        W83533  40.807   8.275   2.234
19326W        W83534  13.159  41.012  11.458
19327W        W83535   0.899   1.423   2.373
19328W        W83536  11.202  17.760  10.420
19329W        W83537  12.629  44.897   3.330
19330W        W83538  40.369  18.288  10.154
19331W        W83539  13.313  32.020  11.910
19332W        W83540  25.505  36.507  14.863
19333W        W83541  33.970  29.090  12.874
19334W        W83542   3.385  19.626  12.526
19335W        W83543   8.371  23.082  10.599
19336W        W83544   8.876  44.482   9.920
19337W        W83545   2.927  11.316   4.147
19338W        W83546  31.581  35.853   1.728
19339W        W83547  12.744  26.984   1.910
19340W        W83548  17.088  31.519  14.497
19341W        W83549   4.205  41.412   1.886
19342W        W83550  18.093   2.311   0.363
19343W        W83551   3.782  26.557   1.897
19344W        W83552   8.688   2.910  11.459
19345W        W83553  10.280  26.618   3.805
19346W        W83554  32.989  44.461   4.792
19347W        W83555  39.841  21.702  11.985
19348W        W83556   0.933  12.186  13.855
19349W        W83557  41.425   1.329  11.388
19350W        W83558  17.717   1.758   0.759
19351W        W83559  10.324  40.443  14.963
19352W        W83560  12.256   1.840   2.241
19353W        W83561  43.981  18.656  13.808
19354W        W83562  14.668  23.095   1.389
19355W        W83563  32.033  32.123   4.320
19356W        W83564  32.508  23.702  12.480
19357W        W83565  35.945  29.066  14.780
19358W        W83566  17.593  23.230   3.324
19359W        W83567  12.832  12.200  11.524
19360W        W83568  40.829  11.369   3.761
19361W        W83569  30.950  17.682  14.830
19362W        W83570  19.164  18.218   9.975
19363W        W83571  35.060  12.661   0.269
19364W        W83572  43.300  14.755  10.436
19365W        W83573  18.110   0.423  11.043
19366W        W83574   8.300   1.783   4.726
19367W        W83575  35.509  31.989  10.040
19368W        W83576   9.679  14.127   0.757
19369W        W83577  19.280   3.922  10.642
19370W        W83578  10.811  44.953  12.940
19371W        W83579  42.926   4.904   5.128
19372W        W83580  43.295  33.130  14.950
19373W        W83581   3.820  34.067  10.936
19374W        W83582  16.759  21.605   1.751
19375W        W83583  25.026   9.253   0.818
19376W        W83584  28.664  44.421  14.964
19377W        W83585  31.536  33.390   2.692
19378W        W83586  35.001  35.007   2.278
19379W        W83587  37.344  19.748   3.190
19380W        W83588  30.129  15.305   2.692
19381W        W83589  20.146  19.757   0.727
19382W        W83590  33.117  22.646  12.050
19383W        W83591   7.903  27.110   4.120
19384W        W83592  11.714   2.259  14.375
19385W        W83593  36.505  20.201   3.862
19386W        W83594  42.518   8.253  14.410
19387W        W83595   4.717  16.170   1.438
19388W        W83596  30.481  39.474  11.991
19389W        W83597  35.100  32.890  11.993
19390W        W83598  14.191  31.137   1.783
19391W        W83599  23.029   0.948  11.991
19392W        W83600  24.184  35.098  10.094
19393W        W83601   5.814  10.333  13.050
19394W        W83602   9.764  42.823  11.409
19395W        W83603   0.488  40.513  10.932
19396W        W83604  37.027  42.400   4.615
19397W        W83605  35.082  32.486  10.458
19398W        W83606  42.989  29.470   1.323
19399W        W83607  35.919  42.487   0.939
19400W        W83608  21.666   5.334   4.156
19401W        W83609   4.700   6.319  11.074
19402W        W83610  12.125  26.996   1.778
19403W        W83611  20.151  31.411   0.286
19404W        W83612  10.323  18.273   3.800
19405W        W83613  23.175  26.155  11.054
19406W        W83614  36.946  37.376   1.419
19407W        W83615  22.686  19.567   4.764
19408W        W83616   8.802   1.929  14.935
19409W        W83617  24.214  38.992   0.807
19410W        W83618  35.909  20.273   1.439
19411W        W83619  25.180  40.351  10.460
19412W        W83620  25.696   2.234   1.229
19413W        W83621   3.225   2.889  11.891
19414W        W83622  34.380  16.638   1.389
19415W        W83623  29.478   3.370   3.206
19416W        W83624  34.882  23.185   0.947
19417W        W83625  42.823  19.752  13.331
19418W        W83626  37.547  15.620   2.179
19419W        W83627  16.711  15.611   2.813
19420W        W83628   9.322  20.766   3.673
19421W        W83629   1.934  12.854   0.301
19422W        W83630  43.978  20.177  12.013
19423W        W83631  23.733  16.650   5.112
19424W        W83632  12.174  33.089  11.426
19425W        W83633  41.929  33.069   3.685
19426W        W83634  38.415   8.728   1.731
19427W        W83635   4.268  39.545  13.386
19428W        W83636  43.503  17.605   9.985
19429W        W83637  10.289   6.358   1.311
19430W        W83638   0.785  10.823   1.788
19431W        W83639  23.560  27.130  10.957
19432W        W83640  29.552  21.018   3.262
19433W        W83641   2.322   5.897   3.726
19434W        W83642   6.883   0.978   2.224
19435W        W83643   7.716  12.280   2.263
19436W        W83644  31.475   9.865   0.833
19437W        W83645   8.277  44.313  14.413
19438W        W83646  42.945  24.699  14.915
19439W        W83647  22.713  37.914   0.261
19440W        W83648   2.246   5.706  10.635
19441W        W83649  44.811  37.502   1.247
19442W        W83650  14.298  17.679  14.917
19443W        W83651   2.893  17.587   2.272
19444W        W83652  20.060  16.133  11.990
19445W        W83653  27.479   4.918   0.355
19446W        W83654  15.193  35.937  13.988
19447W        W83655  25.976  16.595  11.609
19448W        W83656  23.634  27.532  14.423
19449W        W83657  44.759  42.378   2.415
19450W        W83658  39.907   0.853   1.921
19451W        W83659  22.711  12.144  10.625
19452W        W83660  19.761  21.127   3.187
19453W        W83661  28.566  40.512   3.722
19454W        W83662   4.307  21.574  14.907
19455W        W83663  33.418  33.103  10.138
19456W        W83664  19.075  34.517  10.567
19457W        W83665  22.532   2.349   4.186
19458W        W83666  28.483  41.990  13.475
19459W        W83667  41.002  17.627  11.447
19460W        W83668  38.332  34.988  13.483
19461W        W83669   4.828  11.775  12.058
19462W        W83670  32.427  31.504   1.299
19463W        W83671  37.963  21.595  14.499
19464W        W83672  33.914  40.519  14.966
19465W        W83673  12.189  14.640  11.938
19466W        W83674  39.319   9.337  12.000
19467W        W83675  39.015  40.974  13.458
19468W        W83676   4.244  24.193   4.266
19469W        W83677  25.557  44.836  14.284
19470W        W83678  29.137  38.408  11.466
19471W        W83679  32.134  35.438   2.674
19472W        W83680  27.968  33.111  13.327
19473W        W83681   4.350  26.612  13.027
19474W        W83682   8.842   9.889  13.310
19475W        W83683   8.832  33.012  11.592
19476W        W83684  35.899  23.082  13.370
19477W        W83685  36.454  11.695  13.522
19478W        W83686  26.694  42.969  14.866
19479W        W83687   7.688   2.791   2.336
19480W        W83688  37.382  15.728  12.838
19481W        W83689   2.304  18.770  11.561
19482W        W83690  35.426   9.190   1.770
19483W        W83691  23.028   5.224  13.933
19484W        W83692   2.794  33.034   4.664
19485W        W83693   8.280  35.525  11.910
19486W        W83694  22.107   2.283  10.598
19487W        W83695  38.481  32.571  14.503
19488W        W83696  29.124  15.700  14.868
19489W        W83697  28.665  22.557  14.015
19490W        W83698   2.817  38.345  14.492
19491W        W83699  44.498  14.766   2.716
19492W        W83700  15.294  25.627   1.310
19493W        W83701   7.401   2.735  13.979
19494W        W83702   6.891  18.107   1.223
19495W        W83703  17.101  14.132   0.754
19496W        W83704  32.458   0.462  12.346
19497W        W83705  38.893  41.320   5.202
19498W        W83706   7.197  23.675  13.030
19499W        W83707   6.191  41.863  10.524
19500W        W83708  34.500  30.110  14.371
19501W        W83709  26.079  25.650   2.374
19502W        W83710  41.471  43.790  13.341
19503W        W83711  35.983   5.312   4.797
19504W        W83712   6.278  21.621  13.920
19505W        W83713  25.478   4.886  10.627
19506W        W83714   9.707  42.839  13.494
19507W        W83715  41.355   2.356   4.126
19508W        W83716  30.001  17.588  13.847
19509W        W83717  41.886   2.887  12.506
19510W        W83718  32.528  19.727  10.979
19511W        W83719   6.262  27.089  14.905
19512W        W83720  39.945  13.808  14.295
19513W        W83721  26.529  36.044  11.126
19514W        W83722  36.031  22.172  10.977
19515W        W83723   2.255  38.371  10.895
19516W        W83724  33.503   1.439   2.413
19517W        W83725  12.787  38.487  11.047
19518W        W83726  23.617   6.841   3.306
19519W        W83727  20.092  42.446  14.386
19520W        W83728  27.678  28.596  14.473
19521W        W83729   6.798  34.383   1.368
19522W        W83730  24.167  19.551  11.911
19523W        W83731  21.026  13.313   3.820
19524W        W83732   7.378   8.222  12.008
19525W        W83733   4.293   6.838   2.289
19526W        W83734  23.598  34.025  14.819
19527W        W83735  34.076  43.960  13.034
19528W        W83736  22.129  29.637  14.812
19529W        W83737  35.029  10.375   4.642
19530W        W83738   0.255  19.703   4.346
19531W        W83739  31.613  34.032  13.043
19532W        W83740   3.788   9.369  10.479
19533W        W83741  32.050  27.493  10.613
19534W        W83742  38.829  34.474   4.715
19535W        W83743  23.660   1.371  10.951
19536W        W83744  25.015  33.008  13.918
19537W        W83745  35.001  24.697   1.750
19538W        W83746  40.945   0.454  12.824
19539W        W83747  26.136  29.108  11.064
19540W        W83748   6.746  44.317  11.526
19541W        W83749  27.978   2.279  10.143
19542W        W83750   5.766   1.252  12.046
19543W        W83751  33.931  23.625  11.426
19544W        W83752  25.999  13.151  13.423
19545W        W83753  15.690  17.233  10.594
19546W        W83754  37.045  14.638  13.407
19547W        W83755  16.247   1.412   1.755
19548W        W83756  10.140   8.262  10.525
19549W        W83757   6.711  44.816  10.999
19550W        W83758  26.046   2.834  13.997
19551W        W83759  23.608   4.844  11.404
19552W        W83760  39.423  13.336  12.855
19553W        W83761  21.071  35.475   3.806
19554W        W83762   8.883  27.547  11.438
19555W        W83763  26.513  24.658   2.226
19556W        W83764  14.647  10.172   3.731
19557W        W83765  27.172   8.825  14.417
19558W        W83766  35.951  30.533   2.742
19559W        W83767  27.143  22.602   9.987
19560W        W83768  44.264   8.800   4.239
19561W        W83769  38.034  10.258   2.781
19562W        W83770  23.727  15.313   1.444
19563W        W83771  36.445   8.260  11.088
19564W        W83772  40.541  12.771   4.236
19565W        W83773  17.154  35.451   3.342
19566W        W83774  33.063  38.542   3.754
19567W        W83775  25.657  19.738  10.632
19568W        W83776  21.676  28.467  13.052
19569W        W83777  28.037  43.341   1.720
19570W        W83778   1.855  24.585  14.300
19571W        W83779  42.385  44.935   1.923
19572W        W83780   3.870  41.831  12.994
19573W        W83781  12.308  29.053   1.836
19574W        W83782  11.316  38.034   3.737
19575W        W83783   6.192  11.276   2.806
19576W        W83784  31.975   0.986   4.712
19577W        W83785  37.503  10.357   0.377
19578W        W83786  38.344  42.859  13.356
19579W        W83787   2.413   2.440  12.003
19580W        W83788  35.989  43.859  14.954
19581W        W83789  37.904  38.440  13.345
19582W        W83790   5.206   1.931   1.694
19583W        W83791  13.619  12.802  13.044
19584W        W83792  41.360  38.524  14.275
19585W        W83793  13.642  30.522  10.622
19586W        W83794  39.349  28.552  11.448
19587W        W83795  39.817  25.014  12.979
19588W        W83796  24.201  20.148  12.442
19589W        W83797  24.073  25.179  10.893
19590W        W83798  19.633  30.494   0.771
19591W        W83799  10.685  36.467  11.873
19592W        W83800   9.304   9.297  13.019
19593W        W83801  31.972  44.907   0.401
19594W        W83802   1.795  24.177   4.681
19595W        W83803  11.837  36.914   4.742
19596W        W83804  22.662  26.534   5.224
19597W        W83805  42.795   0.746  14.798
19598W        W83806  36.967   9.889   1.377
19599W        W83807  11.164  41.503  13.938
19600W        W83808  10.237  39.933   3.775
19601W        W83809  31.625   4.790   2.821
19602W        W83810   8.778  44.504  13.377
19603W        W83811  40.386  22.550  10.124
19604W        W83812   0.940  42.486  13.316
19605W        W83813  23.178  21.259   4.662
19606W        W83814  25.206  15.670  12.492
19607W        W83815  20.071  43.020   1.889
19608W        W83816  29.613  41.965   2.395
19609W        W83817  11.724   8.210   1.853
19610W        W83818  40.331  22.163   1.349
19611W        W83819  20.066  37.435   1.923
19612W        W83820   7.354  42.367   4.288
19613W        W83821  40.538  10.148  12.017
19614W        W83822   7.868  44.467  13.969
19615W        W83823  23.055  36.847  13.916
19616W        W83824  31.600  24.100  11.888
19617W        W83825   7.389  41.927   4.313
19618W        W83826   6.805  22.598   3.191
19619W        W83827  19.256  39.815   0.836
19620W        W83828  26.135  40.958   2.724
19621W        W83829  38.455  30.462  13.364
19622W        W83830  40.799  36.038   3.635
19623W        W83831  34.044  34.383   0.756
19624W        W83832  44.767  23.108  14.315
19625W        W83833   6.805  37.370   3.291
19626W        W83834  15.305  44.910   0.901
19627W        W83835  19.539   9.345  14.942
19628W        W83836  12.191  38.571  13.888
19629W        W83837  25.593  13.248   2.323
19630W        W83838  17.780  41.023  12.953
19631W        W83839   6.743  38.488  11.398
19632W        W83840  23.044   0.293  10.593
19633W        W83841  13.753  40.322   2.679
19634W        W83842  22.175   2.401   3.171
19635W        W83843  11.635  14.633   2.758
19636W        W83844   2.762  42.449   1.226
19637W        W83845  44.772   4.819   4.288
19638W        W83846  43.481   2.726   1.822
19639W        W83847  11.189  34.941  10.514
19640W        W83848  43.991   5.734   2.695
19641W        W83849  33.521  24.094  12.992
19642W        W83850  16.231  35.929  12.541
19643W        W83851  11.735  27.139  12.902
19644W        W83852  36.996  29.945   3.202
19645W        W83853  26.958  14.216   0.292
19646W        W83854  27.505  20.056   1.354
19647W        W83855  14.302  37.464   4.712
19648W        W83856  10.719   0.819   0.928
19649W        W83857  44.287  11.153   3.632
19650W        W83858  28.492   1.287   3.814
19651W        W83859   6.760  27.585  12.935
19652W        W83860  42.844  20.254   2.730
19653W        W83861   5.427   7.812  14.795
19654W        W83862  10.665  13.342  12.574
19655W        W83863  22.236  21.605  13.339
19656W        W83864  18.125  36.967   4.754
19657W        W83865  11.276   2.253   0.839
19658W        W83866  25.641  41.996  12.086
19659W        W83867  27.125  31.619   2.703
19660W        W83868  21.580   0.490  13.041
19661W        W83869  16.101  14.221  12.348
19662W        W83870   6.709  29.436   0.349
19663W        W83871  24.007  22.009  12.398
19664W        W83872  28.648   1.782  10.996
19665W        W83873  33.004   1.288   4.775
19666W        W83874   0.383  44.425  14.309
19667W        W83875  15.099  29.935  14.776
19668W        W83876   3.245  17.602   1.827
19669W        W83877  18.728  19.556  14.776
19670W        W83878  16.570  30.568  14.938
19671W        W83879   2.923  43.275  11.464
19672W        W83880  26.505   6.239  11.550
19673W        W83881  29.446  24.569   1.809
19674W        W83882  16.168   3.879   1.369
19675W        W83883  40.867  12.245  10.548
19676W        W83884  29.082  12.321   4.261
19677W        W83885  24.673   2.868  12.020
19678W        W83886  43.800  16.233  11.402
19679W        W83887   0.483  32.588   2.706
19680W        W83888  22.658   2.777   4.705
19681W        W83889   1.884   6.727   3.853
19682W        W83890   8.706  20.170   0.378
19683W        W83891  31.065   3.866   2.373
19684W        W83892  39.326  22.696  12.009
19685W        W83893  26.104   7.902   3.711
19686W        W83894  23.142   2.267   2.896
19687W        W83895  37.057  44.828   3.309
19688W        W83896  28.137  17.640  11.107
19689W        W83897  16.128  43.500  14.937
19690W        W83898  20.701  20.271   1.752
19691W        W83899  35.509  14.697  13.409
19692W        W83900  15.678  24.648  10.556
19693W        W83901   6.888   0.850  12.445
19694W        W83902  31.086  22.120  12.025
19695W        W83903   3.955  17.168   0.850
19696W        W83904  22.527   8.855   4.708
19697W        W83905  41.032  38.375  13.827
19698W        W83906  11.648  13.216   3.183
19699W        W83907  11.189  36.871  12.349
19700W        W83908   0.905  28.666  11.446
19701W        W83909   3.844  11.160  12.576
19702W        W83910  41.899  18.645  14.890
19703W        W83911   4.842  34.382   2.186
19704W        W83912  11.863   6.391   4.607
19705W        W83913  15.148  33.516  13.545
19706W        W83914   1.398  19.203  14.938
19707W        W83915   5.224  30.103   2.829
19708W        W83916  21.086  39.986  13.942
19709W        W83917  33.601  25.703  14.904
19710W        W83918  13.308  34.867   4.201
19711W        W83919  19.721  34.598   1.913
19712W        W83920  27.453  13.652  13.864
19713W        W83921  30.542  21.595  13.462
19714W        W83922  18.558  17.641   4.771
19715W        W83923  12.682   8.793   0.728
19716W        W83924  42.430  16.300  11.469
19717W        W83925  39.052   4.859  11.383
19718W        W83926  13.201   2.924   0.469
19719W        W83927  17.222  25.661  13.541
19720W        W83928   8.162  13.190  14.387
19721W        W83929  15.747   6.327   3.343
19722W        W83930  15.673  13.177   2.757
19723W        W83931   9.777  30.047  13.448
19724W        W83932  27.153  35.387   2.705
19725W        W83933   2.812   4.431   0.801
19726W        W83934  27.585  30.503  11.071
19727W        W83935  15.150   5.715   3.848
19728W        W83936  24.019  11.184  11.050
19729W        W83937  41.337  37.994  12.517
19730W        W83938  24.109  19.071   1.255
19731W        W83939  43.859   8.892   0.290
19732W        W83940  38.435   5.438   0.325
19733W        W83941   9.684  34.082  13.479
19734W        W83942  37.448   0.794   3.283
19735W        W83943  32.459  26.105  13.924
19736W        W83944  13.252   0.982   5.264
19737W        W83945  20.206  14.815  13.954
19738W        W83946  31.598  31.421  12.367
19739W        W83947  23.503  38.994  13.822
19740W        W83948  25.031  13.350  13.410
19741W        W83949  12.223  37.984  11.581
19742W        W83950   1.823  25.072   3.221
19743W        W83951  16.604   6.348  11.095
19744W        W83952  34.543  33.925  13.488
19745W        W83953  38.981  40.846  13.994
19746W        W83954   0.786  13.637  11.094
19747W        W83955   4.375  34.046   4.735
19748W        W83956  21.032  10.703  10.550
19749W        W83957  41.450  25.695  12.081
19750W        W83958  27.180  21.074  12.010
19751W        W83959   5.332  23.061  14.888
19752W        W83960  18.165  36.988  12.356
19753W        W83961  19.219  23.674   2.717
19754W        W83962   7.391  41.329  13.342
19755W        W83963  14.176  23.533   4.702
19756W        W83964   7.409  31.622   1.228
19757W        W83965  15.768   7.310  10.076
19758W        W83966  28.558  26.053  14.946
19759W        W83967  36.355  34.907   0.847
19760W        W83968  19.208  16.151   0.424
19761W        W83969   8.831  40.896  13.442
19762W        W83970  31.519  40.519  12.087
19763W        W83971  36.389  34.557   0.860
19764W        W83972   6.718  39.329  12.910
19765W        W83973  22.548  11.177  11.403
19766W        W83974  37.431  37.497  14.420
19767W        W83975  39.046   0.756  14.901
19768W        W83976  11.717  23.150  13.885
19769W        W83977  20.595  37.023   3.809
19770W        W83978  17.678   8.326   0.258
19771W        W83979  15.251  32.584   4.262
19772W        W83980   8.242   8.753   5.235
19773W        W83981  37.968  12.839  13.367
19774W        W83982  39.921   1.958   2.806
19775W        W83983  20.753  21.687  12.963
19776W        W83984  44.352   6.688   0.901
19777W        W83985  43.821   4.221   0.783
19778W        W83986  25.995  22.627   4.744
19779W        W83987  25.144   7.800  14.963
19780W        W83988   2.314  44.820  10.539
19781W        W83989  14.186  19.555  14.503
19782W        W83990  39.996   2.403  11.402
19783W        W83991   0.972  24.109  13.946
19784W        W83992  25.527  17.205  14.501
19785W        W83993  36.018  13.276   4.175
19786W        W83994  34.477   0.769  12.399
19787W        W83995   0.369  40.313   3.293
19788W        W83996  22.592   0.751   3.775
19789W        W83997  18.156  10.760   0.927
19790W        W83998  44.853  43.790  12.034
19791W        W83999  26.089  33.978  10.439
19792W        W84000  37.368   6.859  11.541
19793W        W84001  41.491   2.723   0.389
19794W        W84002  21.178  24.710  11.968
19795W        W84003  40.478  33.393   5.278
19796W        W84004   1.314  30.112  10.483
19797W        W84005  29.969  40.310  13.928
19798W        W84006  40.476  31.046   3.766
19799W        W84007  28.595  17.161   5.236
19800W        W84008   9.717  13.212   2.378
19801W        W84009  21.115  27.615   1.451
19802W        W84010  20.132  17.565   0.277
19803W        W84011  34.890  41.346   2.772
19804W        W84012   8.261  40.906   0.471
19805W        W84013   3.857  21.619   2.260
19806W        W84014  43.420  14.261   0.907
19807W        W84015   0.441  15.292   2.690
19808W        W84016   3.399  18.669  14.405
19809W        W84017  35.922  33.412   3.797
19810W        W84018   5.894  29.492   2.379
19811W        W84019  30.594   2.779  13.991
19812W        W84020  29.639  32.134  14.364
19813W        W84021  18.191  38.354  13.002
19814W        W84022  42.867  24.059   1.859
19815W        W84023  11.278  42.834  10.577
19816W        W84024   2.294   8.820   3.681
19817W        W84025  20.671  16.140  10.538
19818W        W84026  42.405  34.428   2.688
19819W        W84027  28.493  11.658  10.904
19820W        W84028   0.903  22.512  11.022
19821W        W84029  32.448  30.123   1.255
19822W        W84030  15.304  33.881   0.444
19823W        W84031   3.224  43.346  14.905
19824W        W84032  20.068   1.349   4.631
19825W        W84033  11.329  12.646  13.995
19826W        W84034  10.706  33.053  13.311
19827W        W84035   2.378  35.371   2.291
19828W        W84036  21.659   6.405  13.910
19829W        W84037  33.404  14.263   1.846
19830W        W84038  31.067  44.965  11.878
19831W        W84039  38.820   9.269   3.713
19832W        W84040  44.982  33.401  14.856
19833W        W84041  22.615  35.888  13.008
19834W        W84042  31.598  11.357   3.633
19835W        W84043  36.089  27.646   1.311
19836W        W84044   7.239  11.705   0.761
19837W        W84045  38.328  38.415  12.991
19838W        W84046   8.364  21.229  11.882
19839W        W84047  44.488  27.948  10.145
19840W        W84048   7.767   4.911   2.798
19841W        W84049  11.675  36.485  14.424
19842W        W84050  28.600  12.238  13.517
19843W        W84051  21.598  11.193  10.971
19844W        W84052  41.880  13.352   0.938
19845W        W84053  16.201  43.858   2.751
19846W        W84054  33.552  16.632  11.390
19847W        W84055  32.561  36.896  13.006
19848W        W84056   0.895  19.669   2.757
19849W        W84057  15.755   2.424  12.402
19850W        W84058   8.357   2.821   4.789
19851W        W84059  17.153  43.000  14.900
19852W        W84060  13.638  40.345  11.018
19853W        W84061  41.323  39.892  11.128
19854W        W84062   5.786  27.088  10.596
19855W        W84063  19.668   2.362   1.215
19856W        W84064  35.863  16.685  12.887
19857W        W84065  21.079  13.225   0.934
19858W        W84066  39.400  32.934   0.756
19859W        W84067  20.221  11.684  14.897
19860W        W84068  32.977   1.778   4.257
19861W        W84069   8.278  23.085  12.351
19862W        W84070  35.383   8.881  14.014
19863W        W84071  43.928  44.811  12.956
19864W        W84072  32.516  20.227   1.867
19865W        W84073   6.216  37.570   4.701
19866W        W84074  20.140  42.864  10.064
19867W        W84075   3.264  36.367  11.468
19868W        W84076  31.957   5.259   0.288
19869W        W84077  30.567   7.282  12.401
19870W        W84078  43.857  40.487   1.796
19871W        W84079  37.409   6.206  13.010
19872W        W84080   5.748  30.500  12.380
19873W        W84081  36.947  21.739  13.350
19874W        W84082  32.626  25.629  13.049
19875W        W84083   9.844   3.819  14.281
19876W        W84084  26.545  41.834   3.700
19877W        W84085   5.921  25.549   1.409
19878W        W84086  26.515  23.612  13.538
19879W        W84087  16.113  11.217   1.241
19880W        W84088  17.193  22.648  11.584
19881W        W84089  32.982  33.903  12.989
19882W        W84090   1.913  30.642  14.916
19883W        W84091  25.211   2.809  14.761
19884W        W84092  37.531  27.021   0.443
19885W        W84093  14.809  29.544  11.386
19886W        W84094   3.459   5.276  11.912
19887W        W84095  39.865  28.141  13.386
19888W        W84096   5.421  11.300  12.355
19889W        W84097  33.890   7.723  10.982
19890W        W84098  44.399  14.180  10.489
19891W        W84099  44.379  29.669  12.049
19892W        W84100   5.784  28.528  14.932
19893W        W84101  16.659  15.655   1.361
19894W        W84102  17.240  29.079   0.250
19895W        W84103   6.337  13.177  12.367
19896W        W84104  11.313   0.263  14.295
19897W        W84105  37.346   8.753   3.259
19898W        W84106  15.135  13.624   2.326
19899W        W84107  33.380  22.692   0.406
19900W        W84108  37.410  35.390  12.343
19901W        W84109  30.446  24.118  12.467
19902W        W84110  39.463  25.592   0.391
19903W        W84111  42.960  37.493  14.970
19904W        W84112  27.686  38.857   4.734
19905W        W84113   0.421  13.650  10.630
19906W        W84114  36.011  29.520  13.970
19907W        W84115   6.677   7.291  10.444
19908W        W84116  31.123  41.315   2.300
19909W        W84117  41.477  26.090   1.222
19910W        W84118  39.004   2.858  14.774
19911W        W84119  31.568  34.507  12.008
19912W        W84120  20.231   9.857   4.325
19913W        W84121  23.538  33.092   0.793
19914W        W84122  16.098   7.415  12.957
19915W        W84123  39.421   7.797   1.815
19916W        W84124   1.900   7.184   1.791
19917W        W84125  17.636  10.758  14.902
19918W        W84126  24.661  25.565  11.991
19919W        W84127  24.505  43.281   0.366
19920W        W84128  18.579  30.582   0.787
19921W        W84129  24.531   4.726   4.827
19922W        W84130  19.194  16.280  13.982
19923W        W84131   9.298  10.809  13.059
19924W        W84132   8.171  44.304   9.923
19925W        W84133   2.849  18.593   4.224
19926W        W84134  23.700  14.808  14.445
19927W        W84135  37.963  39.544   2.417
19928W        W84136   1.885  29.040  13.971
19929W        W84137  24.552   8.706   0.392
19930W        W84138  32.115  35.051   1.422
19931W        W84139  29.011  13.762   3.343
19932W        W84140   7.258  25.105   2.376
19933W        W84141  35.994  27.997  14.853
19934W        W84142   4.709  42.503   4.155
19935W        W84143  36.895  21.183  11.955
19936W        W84144  32.544   2.934  12.059
19937W        W84145  34.527  16.257   3.740
19938W        W84146   5.716  11.763  11.556
19939W        W84147  17.599  35.391  12.016
19940W        W84148   3.751  16.196   2.836
19941W        W84149   2.438   9.648   2.708
19942W        W84150  28.558  30.164   1.853
19943W        W84151  28.659  20.199  13.053
19944W        W84152  39.908  15.120  12.339
19945W        W84153  37.839  34.067   3.266
19946W        W84154  43.350  36.536  10.935
19947W        W84155  43.840  16.170   1.776
19948W        W84156  44.864  35.408  14.819
19949W        W84157  12.627  10.640   2.684
19950W        W84158   5.863  34.001   3.171
19951W        W84159  40.830  33.046  11.882
19952W        W84160  37.352  33.528  13.984
19953W        W84161  42.514  27.968   2.858
19954W        W84162  18.205  30.004   1.450
19955W        W84163  12.698  19.042   1.893
19956W        W84164  31.134   6.740  10.479
19957W        W84165  44.810  19.150  12.939
19958W        W84166  12.718   5.212  14.402
19959W        W84167  23.727  32.580   3.678
19960W        W84168   3.821  22.238   0.731
19961W        W84169  40.929  35.909   3.307
19962W        W84170  35.872  17.695   0.268
19963W        W84171  10.345  43.315   2.740
19964W        W84172  16.705   5.258  11.564
19965W        W84173  15.175  29.135  13.971
19966W        W84174   4.776  44.866   1.267
19967W        W84175  32.635   3.851   4.760
19968W        W84176  16.714  26.969  11.934
19969W        W84177   1.902  23.220  13.464
19970W        W84178  43.377   1.851   1.366
19971W        W84179  24.049   5.324  11.440
19972W        W84180  33.093  30.420  14.767
19973W        W84181  39.451  34.565  14.390
19974W        W84182  44.759  29.094   4.613
19975W        W84183  27.007  13.623  13.435
19976W        W84184  35.548  26.478   4.823
19977W        W84185  21.241   6.397   4.264
19978W        W84186  13.783  31.972  10.990
19979W        W84187  35.852  39.992  12.342
19980W        W84188   0.792  12.126  14.804
19981W        W84189  41.312  40.039  13.396
19982W        W84190  41.954  34.904   0.746
19983W        W84191  20.176   4.769   1.405
19984W        W84192  41.808  44.499  10.039
19985W        W84193   6.208  41.345   5.123
19986W        W84194  35.534  44.900   2.764
19987W        W84195   8.823  35.520   2.220
19988W        W84196   2.299   6.871   2.371
19989W        W84197  22.542  31.415  11.105
19990W        W84198  21.749  39.904   0.346
19991W        W84199   0.936  11.679  11.479
19992W        W84200  29.945  44.829   3.735
19993W        W84201  44.295  18.761  11.590
19994W        W84202  16.113   6.776  11.883
19995W        W84203   6.803  27.197  13.880
19996W        W84204  37.836  33.877  11.949
19997W        W84205  27.546  24.126   3.800
19998W        W84206  12.730  38.546  11.526
19999W        W84207  28.116  19.560   1.373
20000W        W84208  28.093  27.073  14.853
20001W        W84209  30.640  20.735  11.513
20002W        W84210  20.036  23.583   3.379
20003W        W84211   8.749   4.391  12.570
20004W        W84212  12.242  18.296   2.211
20005W        W84213   2.465  11.237   4.613
20006W        W84214   5.235   8.778   3.332
20007W        W84215   8.319   5.298  11.938
20008W        W84216   0.757  18.574   4.742
20009W        W84217  42.893  27.026   3.345
20010W        W84218  33.021  32.473  14.499
20011W        W84219   8.728  33.890   1.260
20012W        W84220  10.293   8.890  12.848
20013W        W84221  28.497  13.691   3.774
20014W        W84222  19.091   0.972   0.751
20015W        W84223  21.662  27.660   4.334
20016W        W84224  19.092  44.912   0.353
20017W        W84225  22.179  19.057  13.949
20018W        W84226  37.928   9.243   2.863
20019W        W84227  29.666  13.821   2.731
20020W        W84228  23.008  10.171  13.942
20021W        W84229  41.026   6.408  11.864
20022W        W84230  23.004  12.348   1.228
20023W        W84231  11.862  12.719   3.260
20024W        W84232  21.674  35.981   3.179
20025W        W84233   2.420  14.620   4.286
20026W        W84234  42.515  14.339  14.276
20027W        W84235   2.465  32.488  12.969
20028W        W84236  21.231  37.458  12.950
20029W        W84237  21.045  25.615  11.543
20030W        W84238  21.219  24.612   2.743
20031W        W84239   1.462   0.980  12.071
20032W        W84240  37.024  11.234   0.921
20033W        W84241  24.104  27.141   3.221
20034W        W84242   2.848   9.763   1.308
20035W        W84243   6.853   5.396  10.981
20036W        W84244  29.925  27.995   1.776
20037W        W84245  32.921  40.482  13.439
20038W        W84246  36.968  17.202  13.844
20039W        W84247   8.297  28.661  10.584
20040W        W84248  33.409   1.886  11.592
20041W        W84249   1.352  35.489  10.944
20042W        W84250  34.997  21.717   2.310
20043W        W84251  43.906  10.241   3.243
20044W        W84252  17.649  41.307  11.549
20045W        W84253  36.562   4.859   0.447
20046W        W84254  44.754  11.773  10.599
20047W        W84255   2.952   1.873  12.391
20048W        W84256   8.707  15.604   3.798
20049W        W84257  16.082  25.709   1.904
20050W        W84258   1.788  29.008   0.860
20051W        W84259  35.954  32.569   2.850
20052W        W84260   3.346  11.695  14.422
20053W        W84261  28.443  15.251   1.232
20054W        W84262  30.485  14.099  14.938
20055W        W84263  12.818  20.576  11.383
20056W        W84264  22.590  40.942  11.018
20057W        W84265  13.663  36.378   4.135
20058W        W84266  23.013  17.136   1.845
20059W        W84267  13.188  16.225  14.485
20060W        W84268  37.911  17.588  12.952
20061W        W84269  25.612  44.426   0.245
20062W        W84270   1.422  33.567  11.581
20063W        W84271  26.118  20.538   2.384
20064W        W84272   2.288  43.798   4.675
20065W        W84273   2.769  32.111   3.218
20066W        W84274  12.233   1.445   3.271
20067W        W84275   9.167  16.647  12.058
20068W        W84276  12.841  36.542  12.830
20069W        W84277  27.105  16.704  14.407
20070W        W84278   2.454  36.059  14.913
20071W        W84279   7.249  19.057   0.425
20072W        W84280  13.675  23.536   4.724
20073W        W84281  36.020  31.560  13.488
20074W        W84282   1.307  16.187   4.731
20075W        W84283  31.984  15.648   1.311
20076W        W84284  22.031  29.576  11.053
20077W        W84285  40.445  23.617   2.406
20078W        W84286  23.582  10.686  13.991
20079W        W84287  21.697  42.344   3.789
20080W        W84288  12.137  35.505   0.296
20081W        W84289  21.254   6.815   2.396
20082W        W84290  26.493   5.875   0.790
20083W        W84291  21.167  33.394   4.296
20084W        W84292  15.250  40.861  12.358
20085W        W84293  37.930  23.685  12.827
20086W        W84294  31.633   3.411  12.403
20087W        W84295  26.594  10.262   2.697
20088W        W84296  16.734  26.089   4.620
20089W        W84297  20.624  36.888  13.989
20090W        W84298   7.773  14.729   1.822
20091W        W84299  13.250   3.951   3.333
20092W        W84300  12.117  24.500   0.306
20093W        W84301   4.901  19.745   4.790
20094W        W84302  24.697  25.067   2.222
20095W        W84303  33.423  37.556   3.843
20096W        W84304  22.134  32.514   3.229
20097W        W84305   7.414  10.341   3.261
20098W        W84306  29.484   0.294  10.417
20099W        W84307  26.514   4.286   1.755
20100W        W84308  12.122  37.470   0.811
20101W        W84309  37.483  31.912   3.195
20102W        W84310  11.336  35.505   3.245
20103W        W84311  18.064  30.053   2.785
20104W        W84312  17.228   0.456  13.322
20105W        W84313   5.321  25.652   4.629
20106W        W84314  34.936   2.392   4.821
20107W        W84315  13.153  29.622  10.579
20108W        W84316  31.588   5.816   2.258
20109W        W84317  28.950  38.004  12.977
20110W        W84318  17.155  17.134   4.726
20111W        W84319  42.851  17.723   0.853
20112W        W84320  13.624  25.101  13.489
20113W        W84321   1.340  44.400  11.903
20114W        W84322   5.707   9.689   4.225
20115W        W84323   5.914  44.948   2.745
20116W        W84324  25.038  10.801  12.870
20117W        W84325  29.521   4.398   1.318
20118W        W84326  25.680  36.061   0.410
20119W        W84327  36.966  32.116  11.427
20120W        W84328  16.161  17.256  11.050
20121W        W84329   7.189  44.389   4.289
20122W        W84330  37.882  21.605   4.339
20123W        W84331  41.976  29.024  11.589
20124W        W84332  32.446  39.505   1.341
20125W        W84333   5.211   4.213  14.295
20126W        W84334  24.689  35.987  14.907
20127W        W84335  43.901  25.590   1.339
20128W        W84336   5.865   8.225  13.410
20129W        W84337   7.236  38.973   1.734
20130W        W84338   3.228  28.984   2.417
20131W        W84339  36.937   4.319  14.814
20132W        W84340   1.444  34.497  14.027
20133W        W84341  12.120  18.736   1.836
20134W        W84342  40.381  17.156   0.400
20135W        W84343  39.353  42.473   1.838
20136W        W84344  37.979  25.024  14.395
20137W        W84345  39.890   6.866   1.313
20138W        W84346   3.244  38.513  11.886
20139W        W84347  16.654   7.245   1.900
20140W        W84348  13.836  24.084  12.056
20141W        W84349  23.667  38.908   4.654
20142W        W84350  36.483   8.271   3.340
20143W        W84351   5.304  40.038  14.433
20144W        W84352  43.997  21.742   0.807
20145W        W84353   6.866   4.307   2.401
20146W        W84354   2.859  22.642  14.814
20147W        W84355  38.013  19.612   5.274
20148W        W84356  29.457  13.798   4.235
20149W        W84357  39.025   5.326  12.086
20150W        W84358  12.850  26.636  14.854
20151W        W84359  12.687  42.843   4.660
20152W        W84360  20.751  21.528   0.389
20153W        W84361   6.768  15.239   1.311
20154W        W84362  20.527  21.564   2.783
20155W        W84363  13.699  14.177   2.324
20156W        W84364  30.616  24.523  14.492
20157W        W84365   2.289  13.824   4.273
20158W        W84366  24.137  20.535   4.697
20159W        W84367  42.443   7.238  14.287
20160W        W84368   2.825  12.694  13.819
20161W        W84369  44.807  11.728  13.522
20162W        W84370  21.159  34.435  10.007
20163W        W84371  34.007  10.819  13.419
20164W        W84372  35.377  39.519  14.897
20165W        W84373  25.074  37.080  13.459
20166W        W84374  22.708  30.119   3.843
20167W        W84375  19.048  25.083  12.086
20168W        W84376  41.398  41.388  10.407
20169W        W84377   6.773   0.492  11.118
20170W        W84378   5.239   2.286  14.847
20171W        W84379   7.831  40.351   3.211
20172W        W84380  24.572  14.697  14.983
20173W        W84381  32.546  32.123   4.817
20174W        W84382  26.030  12.621  14.284
20175W        W84383  29.659  40.031  14.922
20176W        W84384   5.407  37.949   4.315
20177W        W84385   3.725  15.106  13.831
20178W        W84386  14.703  23.649  14.322
20179W        W84387  24.682  24.483  11.390
20180W        W84388   1.972   8.261  12.874
20181W        W84389  22.574  44.880   0.785
20182W        W84390  11.731  43.954   3.249
20183W        W84391  12.839   1.375  11.882
20184W        W84392  27.141  37.342  11.075
20185W        W84393  29.494   3.819   2.186
20186W        W84394  16.253  17.287  12.518
20187W        W84395  30.957   8.178  14.028
20188W        W84396  25.492  10.335   3.682
20189W        W84397  27.449  35.539   3.355
20190W        W84398  24.095   4.293   2.770
20191W        W84399   4.447  17.186  13.498
20192W        W84400   9.365  43.775   0.428
20193W        W84401  37.396  44.963  11.385
20194W        W84402  29.960  41.305  12.901
20195W        W84403   8.338  43.858   1.744
20196W        W84404  35.547  35.399   1.904
20197W        W84405  41.987  36.846   4.191
20198W        W84406  37.002   1.395   2.230
20199W        W84407  13.688   2.923   4.660
20200W        W84408  33.922  20.204  13.900
20201W        W84409  32.093   5.435  13.959
20202W        W84410  37.870   2.843  12.506
20203W        W84411  42.938  12.663   0.926
20204W        W84412   9.215   2.397  14.792
20205W        W84413  27.059  37.846  10.468
20206W        W84414   0.895   3.447  12.881
20207W        W84415  17.269  15.661  14.848
20208W        W84416  27.154  41.415   4.185
20209W        W84417   6.423  35.938   0.895
20210W        W84418   2.399  19.094   3.849
20211W        W84419  19.058  23.200  10.644
20212W        W84420  21.584   8.382  14.459
20213W        W84421  13.241   7.230   0.307
20214W        W84422  16.750  33.079  13.458
20215W        W84423  31.430  21.655  10.440
20216W        W84424  13.304  14.217   4.146
20217W        W84425  13.823  32.605  12.389
20218W        W84426  23.676   6.773   0.258
20219W        W84427  37.518   6.854   2.743
20220W        W84428  37.368   8.221   1.265
20221W        W84429  32.460   7.379  11.876
20222W        W84430  25.181   9.163  11.065
20223W        W84431  24.199  16.725  13.333
20224W        W84432  25.982  20.558  12.005
20225W        W84433  29.060  40.335  11.880
20226W        W84434  23.677  34.599   1.222
20227W        W84435  26.673   7.263  11.863
20228W        W84436  11.789   6.424   4.196
20229W        W84437  19.764  19.622  11.114
20230W        W84438   6.267  28.619  14.761
20231W        W84439   4.719  37.056  11.014
20232W        W84440  44.442  12.119   4.696
20233W        W84441  28.654  12.299  10.606
20234W        W84442  19.641  14.680   5.141
20235W        W84443  31.995   6.199   0.853
20236W        W84444  37.349   8.255  10.435
20237W        W84445   0.803  27.661   0.938
20238W        W84446  39.540  30.491  13.791
20239W        W84447  29.466  17.555  13.949
20240W        W84448   3.939  35.453  13.954
20241W        W84449  16.215  30.079   2.766
20242W        W84450  19.768  20.606  10.911
20243W        W84451  17.169   4.289   3.186
20244W        W84452  28.064  21.556   3.651
20245W        W84453   5.214  36.353   4.734
20246W        W84454   9.879  17.594   0.844
20247W        W84455   6.878  26.162  14.340
20248W        W84456  36.076  31.105   0.392
20249W        W84457  22.726   8.845  14.420
20250W        W84458  37.580   2.417  10.533
20251W        W84459  14.678  29.602   1.875
20252W        W84460   0.940  25.965  11.438
20253W        W84461  18.747  42.458   3.660
20254W        W84462  39.047  38.378  11.514
20255W        W84463  18.772   8.806   3.656
20256W        W84464   3.899  43.787  12.511
20257W        W84465  24.099   2.327  14.335
20258W        W84466  35.547   2.835  12.485
20259W        W84467  23.068  39.814   3.722
20260W        W84468   9.283  29.045   1.920
20261W        W84469  37.563   4.261   4.195
20262W        W84470  24.130  42.527   1.915
20263W        W84471  14.335  41.872   3.188
20264W        W84472  13.803  26.087   0.321
20265W        W84473  24.044  21.081   3.865
20266W        W84474  38.456  10.365   4.271
20267W        W84475  17.245  11.629  13.388
20268W        W84476  10.293  30.118  13.942
20269W        W84477  12.164  32.937  13.509
20270W        W84478  22.654  24.485   2.894
20271W        W84479   4.777  26.659   2.235
20272W        W84480   4.309  20.629  10.630
20273W        W84481  25.604  12.155   1.339
20274W        W84482  40.396   0.850  14.985
20275W        W84483  11.749  13.720  13.318
20276W        W84484   4.813   0.311   0.738
20277W        W84485  29.516  11.709   3.325
20278W        W84486   2.305   7.238  13.823
20279W        W84487   0.345  31.140  11.899
20280W        W84488  32.902  33.076   1.873
20281W        W84489  33.935   4.257  12.889
20282W        W84490   9.865  29.001   0.896
20283W        W84491  26.674  13.224  12.095
20284W        W84492  28.999  20.222   1.867
20285W        W84493  30.474  23.676   1.403
20286W        W84494  31.449  11.272   2.846
20287W        W84495  22.747   6.261   0.465
20288W        W84496  31.147  32.002  11.498
20289W        W84497  17.155  43.491  11.901
20290W        W84498  34.892  40.014  10.959
20291W        W84499  25.114   9.262   2.815
20292W        W84500  11.311  31.943   4.709
20293W        W84501  24.516   0.783  13.039
20294W        W84502  32.904  14.656  14.886
20295W        W84503  41.038  21.752  10.051
20296W        W84504  18.665  39.975   2.767
20297W        W84505  42.858   2.355   1.831
20298W        W84506  15.155   0.768   2.199
20299W        W84507  24.106  10.294  12.403
20300W        W84508  34.560  18.674   3.795
20301W        W84509  35.502  14.645   3.654
20302W        W84510   7.718  10.856  10.955
20303W        W84511  44.898  18.264   0.899
20304W        W84512  15.730  28.625  14.509
20305W        W84513   8.817  43.511   1.818
20306W        W84514   1.292  13.250  14.472
20307W        W84515  43.779  22.679   2.770
20308W        W84516  37.085  19.060  11.523
20309W        W84517   5.852   6.415   2.318
20310W        W84518  42.290  16.175   5.228
20311W        W84519  33.965  20.765  10.989
20312W        W84520  32.987  40.466   0.906
20313W        W84521   1.786  44.869   3.299
20314W        W84522  27.034  30.153  14.764
20315W        W84523  37.009   3.824  14.386
20316W        W84524  15.194  41.435  14.430
20317W        W84525  32.608   8.886  10.957
20318W        W84526  30.098   9.199  11.013
20319W        W84527  25.542   8.666  13.856
20320W        W84528   1.399  41.965   4.163
20321W        W84529  23.032  37.357   1.294
20322W        W84530  43.823  38.947   0.860
20323W        W84531  12.257  15.090  11.594
20324W        W84532  23.032  34.468  13.040
20325W        W84533   9.338  17.689  12.884
20326W        W84534  29.169   5.868   2.280
20327W        W84535  37.437   0.935  10.633
20328W        W84536   7.245   0.850  14.765
20329W        W84537  14.782  13.161   2.394
20330W        W84538  28.110  13.122   2.345
20331W        W84539  29.633  32.920   2.873
20332W        W84540  37.033  29.424   2.271
20333W        W84541  39.359   3.258  14.905
20334W        W84542  28.449  12.262   1.379
20335W        W84543  23.035  44.848  12.079
20336W        W84544  38.852  39.954   4.301
20337W        W84545  38.017   7.725   4.240
20338W        W84546  23.005  28.482   2.196
20339W        W84547  21.108   5.201   1.336
20340W        W84548  35.531  26.123  14.862
20341W        W84549   4.338  29.430  14.829
20342W        W84550  31.598   9.833  14.388
20343W        W84551  22.223   3.413   0.415
20344W        W84552   9.161  11.824   4.720
20345W        W84553  18.198  41.446  13.936
20346W        W84554  40.393   8.289   3.234
20347W        W84555  31.035  19.097  12.913
20348W        W84556   6.345   2.942  13.902
20349W        W84557  27.134  31.110   0.418
20350W        W84558   1.955  43.842  11.908
20351W        W84559  14.336  34.113   4.661
20352W        W84560   1.737  11.157  11.456
20353W        W84561  11.311   7.318  11.470
20354W        W84562  24.097  25.979  11.506
20355W        W84563  22.523   7.269  12.572
20356W        W84564  13.745   2.928  11.888
20357W        W84565   6.386   1.272  13.484
20358W        W84566  28.578  30.463   2.276
20359W        W84567  41.505   0.493  14.939
20360W        W84568  37.471  34.578  14.922
20361W        W84569  43.776   9.746   4.700
20362W        W84570  23.205  22.554  11.612
20363W        W84571  25.989  27.994  11.452
20364W        W84572  35.406  26.065  13.020
20365W        W84573  24.111   7.393  11.998
20366W        W84574  22.611  35.987  10.026
20367W        W84575   3.873  14.268  11.858
20368W        W84576  29.174  33.613  12.444
20369W        W84577   7.676  28.994  13.365
20370W        W84578  23.129  34.001  10.444
20371W        W84579  12.740   3.376   4.239
20372W        W84580  16.753  18.627   2.780
20373W        W84581   5.692  24.716   4.197
20374W        W84582  32.548  25.079   2.739
20375W        W84583  10.865  23.517   4.276
20376W        W84584  35.483  38.374   4.650
20377W        W84585  24.173  37.462   0.823
20378W        W84586  29.937   6.822   1.326
20379W        W84587   8.789  20.602  14.948
20380W        W84588  33.100   2.275   0.398
20381W        W84589  39.851  35.879  12.975
20382W        W84590  25.621  31.063  12.442
20383W        W84591  20.241  42.005   3.326
20384W        W84592  43.476   0.378   3.361
20385W        W84593  17.090  20.174   0.314
20386W        W84594  15.134   6.834  11.464
20387W        W84595  16.655  16.713  14.817
20388W        W84596  26.663  10.657  13.970
20389W        W84597  32.000  21.112   3.150
20390W        W84598  38.988   9.847   0.958
20391W        W84599  38.837  20.685   0.358
20392W        W84600  40.825  35.104   3.354
20393W        W84601  21.615  36.902  10.435
20394W        W84602  35.990  40.919  11.049
20395W        W84603  35.940  23.131   1.417
20396W        W84604  43.453  10.325   1.290
20397W        W84605  21.571   4.329   2.798
20398W        W84606   3.754  15.666   1.865
20399W        W84607   5.206  44.925  14.305
20400W        W84608  40.519  42.780  12.471
20401W        W84609  28.455   6.710   4.735
20402W        W84610  32.932  20.145   1.232
20403W        W84611   8.839   3.883  14.832
20404W        W84612   0.335   1.409   5.577
20405W        W84613  37.997  34.525  10.438
20406W        W84614  11.837  10.228  14.427
20407W        W84615   0.748  42.782   0.484
20408W        W84616  11.810  18.251   4.748
20409W        W84617  15.201  11.727  14.483
20410W        W84618  21.556  28.105   1.904
20411W        W84619  43.892  38.826  12.971
20412W        W84620  27.033   4.812   3.658
20413W        W84621   4.833  24.186   1.927
20414W        W84622  40.856  25.696  10.569
20415W        W84623  14.339   8.873  12.341
20416W        W84624  40.998   6.684   0.960
20417W        W84625  22.675  40.314   2.179
20418W        W84626  18.126  40.007  12.356
20419W        W84627  19.133   7.412   3.822
20420W        W84628  31.532  33.434  13.797
20421W        W84629   5.413  40.472   3.846
20422W        W84630  30.121  31.554   2.739
20423W        W84631   5.371  11.148   3.725
20424W        W84632   1.908  39.838  14.439
20425W        W84633  19.588   6.843  13.058
20426W        W84634  19.714  41.372  13.520
20427W        W84635  28.174  44.394  10.570
20428W        W84636   0.491  13.193  14.759
20429W        W84637  43.474  23.024   4.724
20430W        W84638  35.056  23.996   3.319
20431W        W84639  34.369  35.937  11.468
20432W        W84640  14.814   7.798  10.963
20433W        W84641  28.437  39.330   4.354
20434W        W84642   3.347  12.211  14.857
20435W        W84643  33.417   0.801  13.523
20436W        W84644  38.385  21.029   4.307
20437W        W84645  22.736  36.054   1.434
20438W        W84646  18.292  44.959  12.359
20439W        W84647  22.161  21.524  10.987
20440W        W84648   5.374  30.947  14.809
20441W        W84649  13.728   6.771  14.814
20442W        W84650  16.640  13.199   3.271
20443W        W84651  31.952   5.800  14.320
20444W        W84652   2.811  34.422  13.859
20445W        W84653   0.261  23.718   0.430
20446W        W84654  11.181   6.382  10.450
20447W        W84655  23.717  21.162  13.421
20448W        W84656   0.747  29.437   4.325
20449W        W84657   2.763  15.098  10.418
20450W        W84658  28.587  27.466   1.892
20451W        W84659  34.926   6.361  13.921
20452W        W84660   9.174  32.091  13.960
20453W        W84661  36.476   1.826   0.788
20454W        W84662   1.330   0.902   1.808
20455W        W84663  23.505   0.413  10.914
20456W        W84664  10.143  12.769  13.895
20457W        W84665   7.315  11.288  13.410
20458W        W84666  37.577  27.635   4.114
20459W        W84667  18.753  40.887  12.445
20460W        W84668  27.947   2.846   1.823
20461W        W84669   1.964  29.629   2.239
20462W        W84670  14.235  37.051  12.986
20463W        W84671  38.460   1.870   5.309
20464W        W84672  12.656  17.624   3.748
20465W        W84673  27.446  41.443   1.920
20466W        W84674   6.777  43.839  13.909
20467W        W84675  41.441   7.721   2.749
20468W        W84676   5.255  44.370  11.913
20469W        W84677  41.415  40.937   4.750
20470W        W84678   6.308   6.829  13.524
20471W        W84679  32.546  23.077  14.846
20472W        W84680  30.156  18.593  14.400
20473W        W84681  23.655   5.864   1.933
20474W        W84682  35.020  26.609   4.632
20475W        W84683   0.932  15.085   4.676
20476W        W84684   3.916  44.320  14.909
20477W        W84685  37.461  39.548   1.867
20478W        W84686  33.016  27.517   1.926
20479W        W84687  35.433  14.615  10.554
20480W        W84688  32.590  40.992   1.297
20481W        W84689  33.450  25.585   3.837
20482W        W84690   4.798  15.722   1.885
20483W        W84691   1.860  43.328   2.794
20484W        W84692  44.947   1.363  13.398
20485W        W84693  25.505  12.774   2.309
20486W        W84694  34.518  10.305  11.098
20487W        W84695  42.928  36.350  14.774
20488W        W84696   5.826  40.524   0.832
20489W        W84697  23.664  43.846  13.912
20490W        W84698  17.723  25.624  13.528
20491W        W84699  36.930   1.855   3.289
20492W        W84700  39.050  16.214  11.602
20493W        W84701  36.948  16.694   4.221
20494W        W84702  24.505   4.803   9.961
20495W        W84703   1.315  30.494   3.787
20496W        W84704  29.445  10.263   1.820
20497W        W84705  10.296  33.514  10.116
20498W        W84706  29.027  44.926   1.727
20499W        W84707  34.563   1.887   4.631
20500W        W84708  16.802  22.500  12.014
20501W        W84709   9.675  17.767   4.620
20502W        W84710   4.310   2.755   3.806
20503W        W84711  39.942  33.021  14.286
20504W        W84712  27.138  15.284  14.947
20505W        W84713  37.390  26.055  12.860
20506W        W84714  32.391  28.157  13.327
20507W        W84715  32.539  17.600   3.729
20508W        W84716  36.903  25.680   4.271
20509W        W84717  15.740  16.223  14.428
20510W        W84718  14.284  31.995   4.805
20511W        W84719  10.363  20.750   3.669
20512W        W84720  43.901  29.140   1.271
20513W        W84721  21.152  10.832  11.465
20514W        W84722  18.788   0.987   2.232
20515W        W84723   8.813  26.634  11.044
20516W        W84724  21.207  39.507  11.567
20517W        W84725  39.349  34.454  13.917
20518W        W84726  23.669   2.374   4.298
20519W        W84727  37.510  41.369  12.875
20520W        W84728  21.199  29.606   3.174
20521W        W84729  21.039  16.747   2.383
20522W        W84730  41.412   6.368   2.346
20523W        W84731  38.508  13.738   1.240
20524W        W84732  37.870  21.734   4.758
20525W        W84733  19.161   6.304   3.768
20526W        W84734  24.995  12.191  12.379
20527W        W84735   9.214  26.504   3.683
20528W        W84736  13.781   9.321   2.224
20529W        W84737  42.891  12.346  11.499
20530W        W84738   4.255  13.827   0.800
20531W        W84739  33.043  23.639  10.420
20532W        W84740  18.564  19.710   9.987
20533W        W84741  29.041  44.302  13.011
20534W        W84742  27.455  18.153   0.774
20535W        W84743   4.836  18.271   3.360
20536W        W84744  12.273  21.676   2.382
20537W        W84745   3.926  15.618  11.083
20538W        W84746  16.233  18.090  10.437
20539W        W84747  20.640  21.752  10.427
20540W        W84748  11.357  39.988  14.918
20541W        W84749   1.357  40.838   4.632
20542W        W84750  27.103  43.790  10.550
20543W        W84751  38.858  33.499   2.325
20544W        W84752  23.691  35.049   0.261
20545W        W84753  27.659  28.562  11.586
20546W        W84754  20.553   6.811  10.085
20547W        W84755  13.295  40.385   4.816
20548W        W84756   6.278  22.699   1.410
20549W        W84757   1.295  23.166   4.774
20550W        W84758   2.351   1.365  12.564
20551W        W84759   4.236  38.480   0.887
20552W        W84760  34.962  25.088   2.296
20553W        W84761  12.814  27.979  11.966
20554W        W84762  36.072  37.338  11.458
20555W        W84763  31.626  41.790  13.449
20556W        W84764   6.208  42.431   0.883
20557W        W84765  38.961  19.113  13.363
20558W        W84766  31.051   7.863  14.308
20559W        W84767  14.101   2.292   2.314
20560W        W84768  28.588   3.361   3.865
20561W        W84769  15.772   4.699   1.726
20562W        W84770  33.465  21.068   1.733
20563W        W84771  39.826  39.872   3.298
20564W        W84772  23.994  42.458   3.788
20565W        W84773  16.143  33.390  14.277
20566W        W84774  18.151  38.012  12.535
20567W        W84775  27.471  11.245  11.980
20568W        W84776  25.992   0.488   2.736
20569W        W84777  30.020  31.501  11.884
20570W        W84778  34.060  22.630   0.425
20571W        W84779  21.043   2.947  10.907
20572W        W84780  38.930  30.949   0.481
20573W        W84781  35.370   0.962  10.418
20574W        W84782   0.494  34.036  10.141
20575W        W84783  36.984  41.375   4.771
20576W        W84784  41.939  12.727   1.899
20577W        W84785  18.290  41.388  12.045
20578W        W84786  23.036  11.229  11.865
20579W        W84787  15.255  20.703  12.475
20580W        W84788  16.139  40.409  13.880
20581W        W84789  11.156  34.435   2.668
20582W        W84790  42.933   5.698   2.305
20583W        W84791  43.462   5.323  13.310
20584W        W84792  16.607   5.736   0.825
20585W        W84793  31.104  10.708   2.795
20586W        W84794  14.257  10.789   4.167
20587W        W84795  38.339  15.698  13.910
20588W        W84796  35.484  20.143   1.706
20589W        W84797  27.079  20.662  13.860
20590W        W84798  28.994  25.158  12.389
20591W        W84799  38.520  18.287  11.958
20592W        W84800  41.364  36.468   4.688
20593W        W84801   5.726  41.354   4.144
20594W        W84802  17.583   9.224   3.183
20595W        W84803   6.766  15.307  10.988
20596W        W84804   9.816  25.980   0.850
20597W        W84805   6.816  19.207   2.329
20598W        W84806  36.884  18.158   2.186
20599W        W84807  41.523  36.889   1.912
20600W        W84808   2.884  26.646   4.674
20601W        W84809  32.958  42.808  13.007
20602W        W84810  28.066  22.584   3.638
20603W        W84811   1.307  22.711  14.806
20604W        W84812  13.243  21.571   0.786
20605W        W84813  19.087  14.604  14.839
20606W        W84814  31.469  19.169  14.363
20607W        W84815  32.604   4.428   3.155
20608W        W84816  33.402  44.268   2.808
20609W        W84817  33.455  18.708   1.908
20610W        W84818  21.754  37.468   0.806
20611W        W84819  26.568  19.586   0.780
20612W        W84820  14.183   8.802  10.141
20613W        W84821  12.816  42.969  14.345
20614W        W84822  43.804  37.478  10.152
20615W        W84823  42.400  15.237   0.963
20616W        W84824  23.696  21.115  14.276
20617W        W84825   2.916  28.949   2.320
20618W        W84826   5.788  11.358  10.909
20619W        W84827  12.809  32.521  13.495
20620W        W84828  44.973   4.232  11.954
20621W        W84829  34.401  31.640   3.771
20622W        W84830   7.798   1.410   2.758
20623W        W84831  41.368  32.441  10.595
20624W        W84832  36.537  10.185  10.479
20625W        W84833  10.798   8.188  13.443
20626W        W84834  39.843  22.503   4.713
20627W        W84835  41.504  30.970  12.373
20628W        W84836  18.618  37.524  13.344
20629W        W84837  34.418  34.024  14.476
20630W        W84838  11.185  42.959   2.672
20631W        W84839  34.567   2.886  14.313
20632W        W84840  43.957  41.408   4.282
20633W        W84841  28.119  37.464  11.398
20634W        W84842  44.004  28.101  10.559
20635W        W84843  22.209  17.234   3.196
20636W        W84844   7.684  41.858  10.485
20637W        W84845  30.918  38.036   2.697
20638W        W84846   7.685  12.157   2.824
20639W        W84847   4.725  13.157   1.391
20640W        W84848  18.260   1.846  10.891
20641W        W84849  15.790  39.020  12.884
20642W        W84850  22.234   0.971   0.958
20643W        W84851  38.926   1.803   3.315
20644W        W84852  29.029  28.461   3.298
20645W        W84853  37.987  40.531   2.249
20646W        W84854  11.286  42.408  10.896
20647W        W84855  27.591  14.764   4.167
20648W        W84856  39.465   8.315   2.252
20649W        W84857  25.526  14.184   3.798
20650W        W84858  40.878   1.384  14.401
20651W        W84859  34.876   8.243  12.439
20652W        W84860  37.061  26.121  13.041
20653W        W84861  35.538  41.527  10.915
20654W        W84862  35.523  22.023   1.305
20655W        W84863  20.106  30.077  13.844
20656W        W84864  42.398  34.097   1.310
20657W        W84865  28.645   6.232   4.223
20658W        W84866  27.969  37.410  11.117
20659W        W84867   9.324  19.113   2.325
20660W        W84868  16.810  31.077  11.505
20661W        W84869  24.640   3.276  14.918
20662W        W84870  23.547  23.133  12.531
20663W        W84871   6.232  22.176   2.279
20664W        W84872  20.108   7.260   4.228
20665W        W84873  18.158  43.891   0.822
20666W        W84874  21.698  43.908   4.144
20667W        W84875  12.761  34.386  11.858
20668W        W84876  16.102   4.724   1.350
20669W        W84877  43.821  32.908   5.632
20670W        W84878  20.680  44.945   1.750
20671W        W84879  21.724  22.196  12.540
20672W        W84880   9.186  27.988  14.999
20673W        W84881  26.064  42.983   0.903
20674W        W84882  15.167  24.123   0.941
20675W        W84883  16.735   5.403  10.597
20676W        W84884   1.875   7.281  13.365
20677W        W84885  34.880  10.324  10.516
20678W        W84886   4.328  32.941  12.555
20679W        W84887  19.092  36.379   2.238
20680W        W84888   6.827  33.097   0.469
20681W        W84889   7.855  14.205  12.409
20682W        W84890  14.248   6.681   0.400
20683W        W84891   2.422  39.329  11.489
20684W        W84892  19.746  24.080  11.073
20685W        W84893   1.944  36.534   5.227
20686W        W84894   0.986  39.321   4.715
20687W        W84895  14.175   7.758   1.769
20688W        W84896  32.392  18.652  10.632
20689W        W84897  35.465  22.729   1.921
20690W        W84898  19.144  13.274  13.801
20691W        W84899  12.809  28.181   0.797
20692W        W84900  41.802  17.196   3.213
20693W        W84901   7.688  42.466  10.413
20694W        W84902  43.910  11.776  12.913
20695W        W84903  11.342   2.256  13.830
20696W        W84904   5.912   8.196   2.272
20697W        W84905  17.692  13.792  13.855
20698W        W84906  14.166  14.794  12.902
20699W        W84907   9.382  33.909  12.838
20700W        W84908  23.006   4.224  11.547
20701W        W84909  29.988   4.207  14.976
20702W        W84910  33.970  21.699  10.994
20703W        W84911   7.818  28.990  10.522
20704W        W84912   5.421   8.199   1.704
20705W        W84913  44.869  41.788   3.863
20706W        W84914  14.276  34.106  13.963
20707W        W84915  26.984  29.976   3.810
20708W        W84916   2.276  26.011  12.479
20709W        W84917  42.472  23.209  10.620
20710W        W84918  19.575  12.282  12.924
20711W        W84919  31.943  17.663   0.289
20712W        W84920  17.763  39.959   4.630
20713W        W84921  37.497  33.049   1.238
20714W        W84922  18.120  11.140   0.795
20715W        W84923   4.409  13.651  13.847
20716W        W84924   0.912  32.408   4.126
20717W        W84925  29.135  19.735  13.034
20718W        W84926   0.391  14.821   3.233
20719W        W84927  39.463  19.706   0.756
20720W        W84928  11.704  29.603  14.986
20721W        W84929  24.482   4.205   3.321
20722W        W84930  43.788  13.739  14.287
20723W        W84931  38.547  13.263  10.639
20724W        W84932  18.094   8.785  11.440
20725W        W84933   3.327  34.445   5.151
20726W        W84934  27.550  39.056  12.046
20727W        W84935  27.125  30.519  11.113
20728W        W84936  32.913  40.367   4.783
20729W        W84937  34.514   0.383  13.424
20730W        W84938  33.502   7.893   1.830
20731W        W84939  39.869  22.030  10.621
20732W        W84940  30.514  12.738   3.151
20733W        W84941  13.330   6.423   5.161
20734W        W84942  22.723  25.159   4.234
20735W        W84943  29.637  10.252  11.486
20736W        W84944  40.488   4.894  13.009
20737W        W84945  29.069  37.866   4.631
20738W        W84946  12.187  18.736  10.412
20739W        W84947   3.778  27.523   1.832
20740W        W84948   8.664  28.083   2.888
20741W        W84949  43.369  33.942  14.785
20742W        W84950   8.173  21.615  14.889
20743W        W84951  18.574  22.106   3.757
20744W        W84952  23.679  41.862   2.347
20745W        W84953   2.926  41.831  12.486
20746W        W84954  36.855  19.777  11.560
20747W        W84955  42.362  36.583  11.487
20748W        W84956  24.164  25.171   4.123
20749W        W84957  23.504  26.591  10.977
20750W        W84958  15.592   0.836  10.979
20751W        W84959  10.633   2.447   1.251
20752W        W84960  14.182  16.150   0.795
20753W        W84961  34.475  37.527  12.086
20754W        W84962  41.390  23.070  12.569
20755W        W84963  19.704  26.662   3.253
20756W        W84964  32.622  35.101   1.385
20757W        W84965   7.179  40.396   4.788
20758W        W84966  13.312  20.565   0.962
20759W        W84967  15.630  38.415   5.142
20760W        W84968  19.079  11.801  13.335
20761W        W84969  35.480  39.032  10.546
20762W        W84970  27.639  26.508   3.835
20763W        W84971  34.071  14.263  11.930
20764W        W84972  41.904  18.122   1.389
20765W        W84973   1.339  10.770  14.808
20766W        W84974  25.119   8.836  14.900
20767W        W84975  11.804  33.563  10.540
20768W        W84976   6.304  27.555  11.553
20769W        W84977  36.981  27.497  13.504
20770W        W84978   2.232   3.872   1.791
20771W        W84979  44.796  37.504   1.929
20772W        W84980  38.896  10.652   2.406
20773W        W84981  41.428  43.925  10.629
20774W        W84982  13.759   5.422   3.363
20775W        W84983  40.031  40.008   4.600
20776W        W84984  16.585  39.921  13.399
20777W        W84985  10.834   1.441  10.519
20778W        W84986   1.306   2.452   0.814
20779W        W84987   9.848  11.740   5.265
20780W        W84988  24.018  40.448   3.850
20781W        W84989   1.967  43.442  11.123
20782W        W84990  44.857  20.605   0.748
20783W        W84991  37.894  27.556  14.968
20784W        W84992  10.757   1.358  14.758
20785W        W84993  33.488  29.638   0.854
20786W        W84994  19.218  34.465   0.776
20787W        W84995  36.491  35.939  13.523
20788W        W84996  29.427  24.556  13.499
20789W        W84997  40.951   4.315   4.179
20790W        W84998  18.111  25.136   2.738
20791W        W84999  36.396   9.667   2.735
20792W        W85000  29.125  39.527   0.303
20793W        W85001  38.868  21.253  12.458
20794W        W85002  13.299  29.526   3.336
20795W        W85003  41.805  17.205  10.544
20796W        W85004  27.623  39.505  11.003
20797W        W85005  12.610  40.829   1.239
20798W        W85006   5.235  32.127   0.371
20799W        W85007   1.264  10.286  14.969
20800W        W85008  32.628  36.938  10.411
20801W        W85009  30.573  30.984   4.136
20802W        W85010  30.056  42.935   1.373
20803W        W85011  31.137  23.685   1.848
20804W        W85012  15.678  37.541  10.046
20805W        W85013   1.308  29.142  11.117
20806W        W85014  19.665  31.018   2.843
20807W        W85015  24.135  27.154   2.313
20808W        W85016  10.741   5.909   4.305
20809W        W85017   9.842  42.444  10.906
20810W        W85018   1.929   4.945  13.341
20811W        W85019  11.188  20.159   2.736
20812W        W85020  28.493  14.338   4.614
20813W        W85021   6.233  41.297  11.511
20814W        W85022  27.051   9.362   4.289
20815W        W85023  26.156   2.939   4.635
20816W        W85024  31.599  42.953   0.414
20817W        W85025   9.323  41.949   2.309
20818W        W85026  40.055   7.218  14.844
20819W        W85027  18.196  44.818  11.887
20820W        W85028  11.303  11.622  14.433
20821W        W85029  37.505  15.811  13.500
20822W        W85030  25.062  33.058  10.561
20823W        W85031   8.824  29.623   4.200
20824W        W85032  23.095  40.394  10.461
20825W        W85033  41.948  27.171  13.807
20826W        W85034  16.724  30.473   3.654
20827W        W85035  14.650  31.126   4.239
20828W        W85036  28.652  38.998  14.506
20829W        W85037  34.564   6.901  14.359
20830W        W85038  16.681  19.233  12.352
20831W        W85039   1.797  12.625  13.963
20832W        W85040  39.907  18.220   1.402
20833W        W85041   8.848   6.384   4.163
20834W        W85042  20.164  32.496  12.841
20835W        W85043  37.494   3.380   4.730
20836W        W85044  23.031  17.661   3.162
20837W        W85045  33.511  29.923   0.466
20838W        W85046  32.541  15.200   2.363
20839W        W85047  26.986  13.636  13.927
20840W        W85048   7.215   5.922   3.850
20841W        W85049  14.180   1.810  10.572
20842W        W85050  19.575  12.847   2.200
20843W        W85051  11.774  34.600   2.202
20844W        W85052  34.581   6.894   2.838
20845W        W85053  13.740   5.708   4.325
20846W        W85054  38.408  26.514   1.795
20847W        W85055  40.346  43.892  11.940
20848W        W85056  21.578   4.311   3.807
20849W        W85057  41.019  42.376   1.737
20850W        W85058  41.870   9.196  14.906
20851W        W85059  11.769  25.522  13.954
20852W        W85060  37.024  33.460   3.657
20853W        W85061  13.110  31.116  14.359
20854W        W85062   9.731   8.181  13.444
20855W        W85063  30.509   1.781   3.852
20856W        W85064  25.986  25.180  11.406
20857W        W85065  24.010  37.081  12.568
20858W        W85066   1.829  10.179   1.926
20859W        W85067  16.718  10.346  13.902
20860W        W85068  36.348  18.082  14.468
20861W        W85069  37.476  37.000   3.848
20862W        W85070   8.750  42.321  11.957
20863W        W85071  12.310  28.463  14.390
20864W        W85072  38.935  23.153   0.298
20865W        W85073  36.402  26.981  14.457
20866W        W85074  10.838  29.515  11.876
20867W        W85075  18.108   2.345  12.380
20868W        W85076  15.676  44.385  13.460
20869W        W85077  29.497   8.254  12.897
20870W        W85078  15.190  36.871  10.063
20871W        W85079  43.393  44.470  14.015
20872W        W85080  12.840  10.796   0.936
20873W        W85081   2.819  12.727   2.767
20874W        W85082   4.883  25.556  13.348
20875W        W85083  42.414   1.308  14.857
20876W        W85084  38.058  24.160   4.164
20877W        W85085  10.704  30.650  11.559
20878W        W85086  31.459   0.379   2.337
20879W        W85087  19.733  30.948  11.373
20880W        W85088  14.313  33.043  11.939
20881W        W85089  27.589  32.065  11.860
20882W        W85090  20.117   8.658   1.325
20883W        W85091  22.563  34.438  13.326
20884W        W85092  20.616  30.975   0.355
20885W        W85093  40.415  32.552   4.785
20886W        W85094  38.931  20.553  10.508
20887W        W85095  30.909  15.254   0.773
20888W        W85096  10.685  13.112   0.888
20889W        W85097   0.277   7.896  13.319
20890W        W85098   8.718  16.625  13.515
20891W        W85099  29.503  41.944   3.869
20892W        W85100  15.121  20.250   2.366
20893W        W85101  37.834  30.601   1.424
20894W        W85102  41.488  14.685  12.550
20895W        W85103  26.978  35.852   0.419
20896W        W85104  18.194   6.425  12.917
20897W        W85105  21.647  28.672   4.776
20898W        W85106  11.653  25.009  12.889
20899W        W85107  20.692  37.051  10.521
20900W        W85108  21.180  44.977   4.315
20901W        W85109  33.445  28.940  14.363
20902W        W85110  30.542  38.004  11.020
20903W        W85111   5.728  44.390   3.227
20904W        W85112  41.916  26.605  10.077
20905W        W85113   3.902   4.849  14.435
20906W        W85114   2.755   1.268  14.839
20907W        W85115   7.866  42.809   5.280
20908W        W85116   3.846  39.811  12.546
20909W        W85117  14.114   6.813  11.541
20910W        W85118  16.663   0.880   2.269
20911W        W85119  30.481  35.440  12.893
20912W        W85120  19.125   7.682  12.030
20913W        W85121   8.856  22.579  10.418
20914W        W85122  10.665  44.776   0.950
20915W        W85123  12.807   6.311   4.331
20916W        W85124  29.165  37.016   1.226
20917W        W85125   4.305  30.036  12.980
20918W        W85126  34.942   1.921   3.345
20919W        W85127   0.855  17.142   2.252
20920W        W85128   2.822  25.536  11.495
20921W        W85129  28.119  43.489   0.482
20922W        W85130   6.247  22.698   0.431
20923W        W85131  16.220  16.742  13.914
20924W        W85132   4.267  35.577   2.722
20925W        W85133  32.953   1.900  14.505
20926W        W85134  44.784  38.477   0.918
20927W        W85135  20.702  37.981  13.987
20928W        W85136  44.883  35.055   2.363
20929W        W85137  20.049  30.435  10.520
20930W        W85138  38.857  40.442   9.931
20931W        W85139  30.981  42.331   0.378
20932W        W85140   7.685   9.351   3.761
20933W        W85141  44.759  29.629  12.545
20934W        W85142  10.184  28.054  13.911
20935W        W85143  25.003  43.364   4.631
20936W        W85144   6.727  30.951  14.837
20937W        W85145  41.831  32.576   4.306
20938W        W85146   3.222   5.714  12.350
20939W        W85147  24.047  10.637  12.530
20940W        W85148  20.219  30.527   2.197
20941W        W85149  19.692   6.886  13.841
20942W        W85150   8.782  39.419   2.270
20943W        W85151  15.118  40.507   2.833
20944W        W85152  23.596  43.919   1.248
20945W        W85153  34.045  27.473   3.840
20946W        W85154   6.271  12.748  10.552
20947W        W85155  18.096  36.419   1.428
20948W        W85156  39.898  30.513   3.801
20949W        W85157  44.762  18.249  14.337
20950W        W85158  26.528   4.935   4.279
20951W        W85159  32.885  16.581   1.729
20952W        W85160  28.124   9.239  13.405
20953W        W85161  39.991  10.802   1.369
20954W        W85162  10.363   3.772  12.064
20955W        W85163  17.786  41.408  14.903
20956W        W85164  43.817   3.390   1.752
20957W        W85165  41.987   1.819  14.030
20958W        W85166  24.643  24.592   2.889
20959W        W85167  26.491  30.141  14.370
20960W        W85168   0.425  42.368  12.529
20961W        W85169  29.518  17.246  10.461
20962W        W85170  23.217  25.193  14.873
20963W        W85171  34.927  39.409  14.989
20964W        W85172   6.404  22.534  13.385
20965W        W85173  35.367  11.669   2.325
20966W        W85174  17.163  27.633  10.483
20967W        W85175  30.506  43.889  12.972
20968W        W85176   9.339   7.309  14.885
20969W        W85177  31.581  25.673  13.793
20970W        W85178  30.920  10.820  12.852
20971W        W85179  27.013  28.582   0.825
20972W        W85180  31.618  10.727  11.588
20973W        W85181  36.536  24.532  12.948
20974W        W85182   4.324   6.824  10.578
20975W        W85183  40.394  21.099   9.931
20976W        W85184  33.385  16.724   2.777
20977W        W85185   6.351  42.843   1.862
20978W        W85186   6.886  24.130  13.023
20979W        W85187  38.377   2.385   5.258
20980W        W85188  30.964  10.193   3.323
20981W        W85189   6.830   5.386   0.250
20982W        W85190  38.532  15.586  11.536
20983W        W85191  29.505  16.269  14.768
20984W        W85192   0.441  28.101  13.930
20985W        W85193  12.759  17.150  10.436
20986W        W85194  22.046  14.787  13.457
20987W        W85195  10.296  39.050  12.428
20988W        W85196   5.909  27.626  11.020
20989W        W85197   7.272  33.451  12.415
20990W        W85198  41.816  39.388  10.539
20991W        W85199  15.190  20.263  10.988
20992W        W85200  20.620  23.122   2.412
20993W        W85201  30.027  21.712  13.038
20994W        W85202  16.713  37.410  12.345
20995W        W85203  31.009  44.942   0.359
20996W        W85204  15.315   1.746  10.480
20997W        W85205  42.980  40.808  11.885
20998W        W85206  38.439  39.469  11.078
20999W        W85207  28.163  19.180   4.288
21000W        W85208   1.396  30.037   0.905
21001W        W85209  18.782  33.484  14.941
21002W        W85210  14.772  18.604   1.776
21003W        W85211  27.063  18.788   4.706
21004W        W85212  12.177  29.098  13.013
21005W        W85213  12.787  18.777   3.745
21006W        W85214  28.617  14.689  14.988
21007W        W85215  32.438  43.807  14.295
21008W        W85216  23.717   0.807   0.737
21009W        W85217  21.691  30.027  12.500
21010W        W85218  41.368  18.280   3.781
21011W        W85219  33.917   9.844   1.746
21012W        W85220   4.865  30.525   9.967
21013W        W85221  30.130  26.206   3.657
21014W        W85222   5.249  35.544   0.334
21015W        W85223   8.180  42.966   0.259
21016W        W85224  38.453  19.565  11.378
21017W        W85225   0.898  40.955   0.883
21018W        W85226  33.980  40.944  14.870
21019W        W85227  11.678  44.878   2.721
21020W        W85228   3.396   5.224   2.363
21021W        W85229  11.648  20.755   4.807
21022W        W85230  29.122  26.544  10.986
21023W        W85231  17.202  29.491   4.177
21024W        W85232  15.209  40.501  14.017
21025W        W85233  19.115  29.497   0.271
21026W        W85234  27.112  28.658   2.767
21027W        W85235  13.713  40.519  13.465
21028W        W85236  16.278  19.545  14.813
21029W        W85237  44.891  22.636  10.059
21030W        W85238  41.909  30.964   1.853
21031W        W85239  31.453  22.185  12.392
21032W        W85240  32.540  32.897   0.905
21033W        W85241  34.378   5.367   0.256
21034W        W85242  39.868  20.524  14.426
21035W        W85243  21.525  44.009   4.813
21036W        W85244  20.738  36.913  14.778
21037W        W85245  13.352  10.293  10.599
21038W        W85246  24.183  43.287   4.655
21039W        W85247  44.840  12.828  11.377
21040W        W85248   2.901  30.953  12.992
21041W        W85249   4.383   6.804  14.453
21042W        W85250  44.009   9.198  13.540
21043W        W85251   7.357  17.223  11.474
21044W        W85252  34.869  37.522   4.238
21045W        W85253  24.596  16.709  14.031
21046W        W85254  44.444   7.700  13.311
21047W        W85255  23.230  36.493   2.393
21048W        W85256  26.484  16.592   1.697
21049W        W85257  11.156  42.022  14.845
21050W        W85258  42.427  15.086   1.233
21051W        W85259  28.568  30.503  13.024
21052W        W85260  12.159   6.257   4.259
21053W        W85261  36.439  20.166   3.267
21054W        W85262   1.912  41.496  12.934
21055W        W85263   2.966   2.372   2.803
21056W        W85264   1.449   0.763  10.443
21057W        W85265  25.147  23.606  11.121
21058W        W85266   2.853  27.051  13.430
21059W        W85267  40.326  31.559  13.523
21060W        W85268  20.644  22.711  11.459
21061W        W85269  31.129   2.876  11.596
21062W        W85270  37.997  25.603   0.466
21063W        W85271  32.920  43.940   4.675
21064W        W85272  38.044  13.629  11.381
21065W        W85273  44.434  17.724  14.970
21066W        W85274   8.672  14.807  13.528
21067W        W85275  20.554  35.515   1.232
21068W        W85276  23.102   1.369  14.337
21069W        W85277  30.099   7.836   4.123
21070W        W85278   8.337  37.901  13.328
21071W        W85279   3.896  28.034  14.459
21072W        W85280  37.918  39.011   4.673
21073W        W85281   4.938  34.536  13.390
21074W        W85282   4.939  33.495  14.445
21075W        W85283  24.082   6.693   0.396
21076W        W85284  19.268   7.862  12.480
21077W        W85285  17.663  20.696  12.440
21078W        W85286  35.507  41.801  11.936
21079W        W85287  18.279  31.525   1.263
21080W        W85288  36.849  32.473   2.408
21081W        W85289  30.478  26.078   1.407
21082W        W85290  41.537  33.016  11.592
21083W        W85291   4.293   0.362   2.184
21084W        W85292   9.368  13.788   3.173
21085W        W85293  36.897  35.574  13.860
21086W        W85294  26.165  36.419   0.277
21087W        W85295  39.418   2.788  12.414
21088W        W85296   0.400  34.963  13.325
21089W        W85297   6.813  12.714   3.700
21090W        W85298  19.666  25.649  11.125
21091W        W85299  23.503  21.167  13.882
21092W        W85300  27.049  32.901   0.752
21093W        W85301   0.466  12.780   3.238
21094W        W85302   4.379  28.000   4.667
21095W        W85303  19.137  31.916  11.483
21096W        W85304   9.889  13.289   1.317
21097W        W85305  11.253  20.042  13.969
21098W        W85306  32.024  38.852  11.531
21099W        W85307  43.402  23.216   4.160
21100W        W85308   2.927  10.185   3.169
21101W        W85309  34.391  30.633  12.479
21102W        W85310  17.722  30.430  13.352
21103W        W85311  41.344  40.399   1.376
21104W        W85312  12.320  43.422  14.395
21105W        W85313  38.981   2.432  11.864
21106W        W85314  41.794  40.372   1.737
21107W        W85315  27.574  16.642   9.929
21108W        W85316  24.565  32.955  13.974
21109W        W85317   8.664   4.848  11.541
21110W        W85318  32.626   2.760   3.174
21111W        W85319  41.821  40.946   2.208
21112W        W85320   1.274  40.996  11.481
21113W        W85321  44.339   8.807   0.828
21114W        W85322   0.376  43.944   0.332
21115W        W85323  34.453  17.676   4.200
21116W        W85324  43.881  39.495   4.148
21117W        W85325  43.906  34.920   2.707
21118W        W85326   5.207  24.052   4.199
21119W        W85327  19.049   5.767  14.819
21120W        W85328  18.050  15.824  13.841
21121W        W85329  10.294   0.943  11.519
21122W        W85330  16.312  29.510   3.195
21123W        W85331  15.637   2.299  10.543
21124W        W85332  13.804  25.539  14.301
21125W        W85333   8.394   6.840  13.325
21126W        W85334   3.245  38.514  10.555
21127W        W85335  10.325  14.678  12.544
21128W        W85336  22.725  12.278  14.367
21129W        W85337  38.025  42.462  11.041
21130W        W85338  28.085  20.575   1.927
21131W        W85339  32.051  33.492  10.972
21132W        W85340  29.082  19.170  14.327
21133W        W85341   6.885  30.939   4.799
21134W        W85342   1.410  43.447   1.277
21135W        W85343  24.644   7.360  12.427
21136W        W85344  40.832  44.841   1.221
21137W        W85345   2.812  23.544  10.967
21138W        W85346  41.933  13.692  13.959
21139W        W85347  10.775   2.927   2.868
21140W        W85348  24.973  11.858   5.183
21141W        W85349  44.952   8.316  13.820
21142W        W85350  33.540  42.020  12.379
21143W        W85351   7.275  14.284   3.767
21144W        W85352   2.318  43.867   1.395
21145W        W85353  30.516  40.048   2.271
21146W        W85354  22.685   6.195   3.842
21147W        W85355   5.425  11.129  13.544
21148W        W85356  21.247  42.992   0.369
21149W        W85357  11.236   3.297  14.840
21150W        W85358   2.434  39.850   9.996
21151W        W85359  15.718  35.973   0.874
21152W        W85360  25.704  18.570   0.768
21153W        W85361  35.603  16.188  14.902
21154W        W85362   1.745   1.261   5.248
21155W        W85363  16.311  11.214  10.494
21156W        W85364  22.056  21.084   1.774
21157W        W85365  41.853  23.539   3.241
21158W        W85366  39.359  30.568   1.848
21159W        W85367  17.579  34.484  13.962
21160W        W85368  39.030  38.897  13.460
21161W        W85369  42.018  29.653  10.113
21162W        W85370  29.003  37.998  14.422
21163W        W85371  38.962  21.088  10.943
21164W        W85372  19.626  42.378  12.864
21165W        W85373  38.423  23.077  12.435
21166W        W85374  38.975  12.630   4.121
21167W        W85375  38.902  23.090   3.234
21168W        W85376  34.378  10.834   1.822
21169W        W85377  34.578  32.056   1.786
21170W        W85378   0.335  36.456  11.602
21171W        W85379  13.247  38.976  13.021
21172W        W85380  10.277  40.404   1.863
21173W        W85381  27.538  26.646  12.023
21174W        W85382  23.726  12.620  14.432
21175W        W85383  14.255  28.057  12.950
21176W        W85384  39.379  15.594  14.450
21177W        W85385   5.420   1.900   5.310
21178W        W85386  38.437  32.636   2.829
21179W        W85387  27.653   0.412   2.773
21180W        W85388  16.582   1.854  14.513
21181W        W85389   6.911   8.780   5.248
21182W        W85390   8.711  20.119   4.227
21183W        W85391   7.279  23.211   0.273
21184W        W85392  35.381  27.093  11.023
21185W        W85393  44.785  25.163   2.235
21186W        W85394  24.195   4.899  10.644
21187W        W85395  31.416   9.722   2.867
21188W        W85396  41.358  14.743  11.586
21189W        W85397   3.269  37.482   9.963
21190W        W85398  19.159   4.777   0.474
21191W        W85399  32.956  38.404  12.959
21192W        W85400  43.950  23.172   4.163
21193W        W85401  44.451  37.023  10.591
21194W        W85402  43.976  13.781   3.810
21195W        W85403  44.971  40.368  14.396
21196W        W85404  38.473   0.413  11.409
21197W        W85405   8.693  35.868   4.121
21198W        W85406  10.307  14.165   1.339
21199W        W85407  28.550  28.123  11.911
21200W        W85408  32.089  43.977  14.883
21201W        W85409  18.585  21.561  12.430
21202W        W85410  23.229  10.872  12.012
21203W        W85411  25.628   7.198  10.546
21204W        W85412  19.712  12.252   0.885
21205W        W85413   6.699   0.353   1.364
21206W        W85414  16.779  31.014  14.004
21207W        W85415  19.709  18.160  14.790
21208W        W85416  30.598  21.181   5.273
21209W        W85417   8.774   4.840   3.259
21210W        W85418  37.879   5.295  12.533
21211W        W85419  42.844  39.847  14.933
21212W        W85420   7.361  23.616  13.363
21213W        W85421  19.556   7.848   5.121
21214W        W85422   9.158   3.899  14.955
21215W        W85423  31.588   8.210   2.756
21216W        W85424   8.727  28.017  10.929
21217W        W85425   2.294  28.646   0.357
21218W        W85426  26.194  33.503  11.444
21219W        W85427  43.413  19.165  11.102
21220W        W85428  25.005  38.399   2.183
21221W        W85429  22.155  21.721   0.883
21222W        W85430   4.290  39.497  14.335
21223W        W85431  12.844  23.188   0.830
21224W        W85432  11.314   8.841  11.038
21225W        W85433  37.450  17.651   0.395
21226W        W85434  15.191   1.775  14.478
21227W        W85435  25.991   8.875   0.475
21228W        W85436  37.078  37.087  14.362
21229W        W85437  24.146   1.426   3.737
21230W        W85438  24.593  32.518   0.904
21231W        W85439  42.305  11.767   2.768
21232W        W85440  43.470  15.768  12.844
21233W        W85441  30.978  35.397   2.280
21234W        W85442  27.645  32.044   0.450
21235W        W85443  16.614  29.440  12.463
21236W        W85444  29.656   5.832   3.196
21237W        W85445  23.546   2.332  12.048
21238W        W85446  27.582  22.635   0.809
21239W        W85447   3.217  10.149  12.443
21240W        W85448  26.518  14.613   2.876
21241W        W85449  35.859  33.555   0.297
21242W        W85450  14.713   3.429  10.135
21243W        W85451  23.655  35.874   1.329
21244W        W85452   6.405   4.308   0.252
21245W        W85453  24.672  15.793  14.022
21246W        W85454   7.887   3.797   0.334
21247W        W85455  10.780  40.337   1.834
21248W        W85456  42.018   3.246   0.342
21249W        W85457  20.200  34.491   1.804
21250W        W85458  12.297  20.582   4.744
21251W        W85459  20.757  14.748   5.126
21252W        W85460  17.686  38.023   1.414
21253W        W85461  23.496   9.369  11.424
21254W        W85462  42.788  31.145   3.160
21255W        W85463  15.254   2.930   1.440
21256W        W85464  15.125  28.575  14.352
21257W        W85465  27.989  26.520   5.236
21258W        W85466  21.167   1.867   9.927
21259W        W85467  42.821  21.618  14.418
21260W        W85468   3.911  24.613  12.837
21261W        W85469  41.355   6.819  14.429
21262W        W85470  22.187  13.749   4.213
21263W        W85471  16.271  30.467  14.769
21264W        W85472  10.686  24.181   0.279
21265W        W85473  15.585  42.856   2.311
21266W        W85474  18.145  35.939  13.364
21267W        W85475  35.860  34.560   3.821
21268W        W85476  26.004  25.163   4.758
21269W        W85477  34.475  37.061   0.275
21270W        W85478  31.073  15.812   0.282
21271W        W85479  36.487   3.333   1.887
21272W        W85480  13.646  44.868   3.853
21273W        W85481  39.055   2.364   2.394
21274W        W85482  27.132  15.270   0.322
21275W        W85483   3.922  29.122  11.890
21276W        W85484  33.580  30.153  12.532
21277W        W85485   5.897  18.286  13.831
21278W        W85486  37.491   5.201  12.962
21279W        W85487  21.118  29.941   3.160
21280W        W85488  13.136  29.127  14.834
21281W        W85489   2.796   3.308   1.718
21282W        W85490  43.829   9.313   1.784
21283W        W85491  28.143  39.958  10.422
21284W        W85492  14.148  17.215  11.046
21285W        W85493  44.304   2.291   3.193
21286W        W85494  15.698  26.569  11.401
21287W        W85495   8.746   2.751  10.406
21288W        W85496   2.277  39.558  14.373
21289W        W85497  44.932  15.181  11.452
21290W        W85498  26.204  17.074   1.779
21291W        W85499  11.301  42.363  14.426
21292W        W85500  35.496  21.660   0.268
21293W        W85501  22.184  33.054   3.299
21294W        W85502  36.063  34.544  13.032
21295W        W85503   5.392  28.530  11.457
21296W        W85504   0.481  26.605  13.431
21297W        W85505   2.727  21.108  13.006
21298W        W85506  31.516   1.253  14.452
21299W        W85507   2.425  36.908   0.291
21300W        W85508  31.576   9.235  11.510
21301W        W85509  43.429  15.745   0.327
21302W        W85510  15.819  33.982  13.986
21303W        W85511   0.295  27.601   3.688
21304W        W85512  40.425  23.541  12.945
21305W        W85513  32.591  20.194  11.878
21306W        W85514   7.817   8.816  11.939
21307W        W85515  16.230  24.497   3.262
21308W        W85516   1.285   2.408  12.532
21309W        W85517   2.411   6.354   4.148
21310W        W85518  30.620   9.671  12.012
21311W        W85519  31.521  14.167   4.140
21312W        W85520  22.135   9.215  12.828
21313W        W85521  24.055  19.659   4.151
21314W        W85522  43.504   4.904  10.990
21315W        W85523  27.112  36.036   1.363
21316W        W85524  34.596  18.720  13.510
21317W        W85525  29.058  31.573   2.367
21318W        W85526   3.768   3.398  14.507
21319W        W85527  38.917  42.931   0.251
21320W        W85528  19.650  20.049  11.431
21321W        W85529   8.871  21.177   2.785
21322W        W85530  33.602  33.414   5.219
21323W        W85531  20.527  39.550   3.312
21324W        W85532   2.343   6.809  11.012
21325W        W85533   8.341  39.817  13.031
21326W        W85534  26.641  42.008  11.855
21327W        W85535   2.467   7.718  11.386
21328W        W85536  36.090  27.160   4.218
21329W        W85537  23.498  30.436  12.929
21330W        W85538   5.272   1.929   3.835
21331W        W85539  14.709  32.481  12.568
21332W        W85540  11.214  30.604  10.925
21333W        W85541  41.417  27.040   2.311
21334W        W85542   4.444  24.597  12.034
21335W        W85543  17.189  38.519  12.993
21336W        W85544  22.092   4.789  10.437
21337W        W85545   0.910   8.197   0.248
21338W        W85546  30.512  20.059   0.930
21339W        W85547  17.732  22.210   3.349
21340W        W85548  24.710   8.333   0.445
21341W        W85549   8.207  33.460   1.253
21342W        W85550  19.730  23.715  11.869
21343W        W85551  39.017   8.193  14.336
21344W        W85552  38.031  39.519   2.677
21345W        W85553  36.966  21.108   1.258
21346W        W85554  26.456  35.539   3.232
21347W        W85555  13.609   4.919   3.767
21348W        W85556  30.926  23.164   1.305
21349W        W85557   9.712  37.424  11.424
21350W        W85558  27.606  16.722  12.872
21351W        W85559  28.510   1.336   1.886
21352W        W85560  24.171  26.541   5.268
21353W        W85561  39.336  35.370  13.446
21354W        W85562  16.154  44.274  12.520
21355W        W85563  32.898  43.010   2.740
21356W        W85564   8.386  41.865   1.831
21357W        W85565  26.473  40.005   4.715
21358W        W85566  10.829  27.035   0.933
21359W        W85567  13.623  17.675  12.976
21360W        W85568  26.611  43.895   3.153
21361W        W85569  37.928   7.691  10.416
21362W        W85570  21.606  39.998   3.766
21363W        W85571  28.096  41.984   4.192
21364W        W85572   2.778   8.888  10.458
21365W        W85573  43.348  21.223  14.441
21366W        W85574  34.386  44.446  12.509
21367W        W85575  12.791  31.133  13.445
21368W        W85576   5.208   6.880  11.448
21369W        W85577  11.158  35.421  14.329
21370W        W85578  15.165  24.205  11.077
21371W        W85579  40.945  39.348   2.254
21372W        W85580  12.820   3.774  11.073
21373W        W85581  19.674  16.788  14.929
21374W        W85582   4.430  10.210   2.337
21375W        W85583  14.341  22.724   0.461
21376W        W85584   3.458   7.713   3.244
21377W        W85585  25.974  31.591  14.787
21378W        W85586  22.562  33.981  11.957
21379W        W85587  12.171  24.201  14.984
21380W        W85588   9.792  35.458   1.368
21381W        W85589  42.357  16.631   0.377
21382W        W85590  42.990  33.087  11.924
21383W        W85591  24.090   8.668   4.607
21384W        W85592  17.082   4.702   1.749
21385W        W85593  24.696   1.275  10.629
21386W        W85594  37.891  17.247  11.087
21387W        W85595  38.040  44.479   4.220
21388W        W85596  11.354  27.550  13.505
21389W        W85597   9.733  19.281  11.941
21390W        W85598  26.190  41.797  13.936
21391W        W85599  16.572  15.718  12.036
21392W        W85600   2.226  40.921   2.764
21393W        W85601  28.174   2.916  12.948
21394W        W85602   3.739  27.976   2.856
21395W        W85603  21.061   1.870   0.308
21396W        W85604  12.170  34.517  12.982
21397W        W85605  26.668  42.313  11.613
21398W        W85606  25.603   2.764  11.544
21399W        W85607  16.225  31.907   1.697
21400W        W85608   0.376  19.128  14.876
21401W        W85609  35.596  11.298   4.321
21402W        W85610  14.146   4.282  14.334
21403W        W85611   2.842   6.345   4.710
21404W        W85612  36.434  38.367  14.947
21405W        W85613   5.196  30.997  12.057
21406W        W85614  40.371  13.234  14.337
21407W        W85615   0.871  26.177   0.332
21408W        W85616   8.678  29.578  10.608
21409W        W85617  21.555  22.572   3.181
21410W        W85618  33.980  24.552   0.460
21411W        W85619  41.506  20.240   0.849
21412W        W85620   0.764   9.806   1.788
21413W        W85621   2.803  31.529   2.264
21414W        W85622  25.036   5.699   2.743
21415W        W85623  32.897  24.181  14.887
21416W        W85624  13.722  18.116  11.474
21417W        W85625  31.147  20.560  14.872
21418W        W85626  36.969  25.040   2.730
21419W        W85627  24.015  30.488   3.868
21420W        W85628  33.943  21.043   3.749
21421W        W85629  13.664  21.171   3.836
21422W        W85630   7.702   2.267  12.849
21423W        W85631  37.419  10.297   5.240
21424W        W85632  24.689  43.803   3.649
21425W        W85633  29.146  34.085  12.937
21426W        W85634   2.853  41.876  13.871
21427W        W85635  18.169   4.844  13.869
21428W        W85636  14.150  38.837  10.977
21429W        W85637  16.645   5.230   3.714
21430W        W85638   7.848   2.361   0.470
21431W        W85639  16.132  22.237   1.304
21432W        W85640  23.168  34.940  12.876
21433W        W85641  10.257  21.701   4.136
21434W        W85642   5.429  41.302   3.735
21435W        W85643  27.460  15.781   1.698
21436W        W85644  23.988  15.772   3.238
21437W        W85645  30.968  39.819   9.983
21438W        W85646   5.835  18.788   1.375
21439W        W85647   8.390  27.635  12.935
21440W        W85648  38.968  17.721   2.370
21441W        W85649  17.573  24.530  11.084
21442W        W85650   3.737  16.192  14.818
21443W        W85651   7.188  19.244   1.703
21444W        W85652   9.657   7.202  14.337
21445W        W85653  37.939   3.828  13.979
21446W        W85654   2.226  41.445   4.210
21447W        W85655  39.504  41.034   3.250
21448W        W85656  32.513  19.251   3.810
21449W        W85657  17.068  38.417   3.633
21450W        W85658  33.421  20.727   0.358
21451W        W85659  22.072  42.776   2.767
21452W        W85660   9.873  37.997  14.797
21453W        W85661   7.843  41.309  10.575
21454W        W85662  41.028   1.738  10.591
21455W        W85663  28.634  24.652  11.377
21456W        W85664  28.444  34.443   0.967
21457W        W85665  38.055   3.225  11.984
21458W        W85666  18.623  37.051   2.335
21459W        W85667  34.938  12.733   2.406
21460W        W85668  19.138   8.194   4.114
21461W        W85669  36.477  35.955  14.403
21462W        W85670  28.981  37.005  11.612
21463W        W85671  30.055  39.531   2.298
21464W        W85672   0.869  29.956   0.338
21465W        W85673  26.085  21.555  11.004
21466W        W85674  37.514  16.775   0.315
21467W        W85675  31.462  29.175   1.268
21468W        W85676  37.432   0.979  11.052
21469W        W85677  28.608  36.065   2.781
21470W        W85678  43.962  43.331  13.432
21471W        W85679  11.226   1.478   0.754
21472W        W85680   7.758   8.184   0.313
21473W        W85681   8.313  29.143  10.977
21474W        W85682  21.709  29.918  14.929
21475W        W85683   9.306  12.828   3.757
21476W        W85684  18.197   1.469   2.881
21477W        W85685  28.079  16.603  10.081
21478W        W85686  36.371  42.501  12.951
21479W        W85687  40.052  17.163   3.765
21480W        W85688  38.013  17.151   0.458
21481W        W85689  30.555   0.464   1.224
21482W        W85690  29.099  34.370   2.719
21483W        W85691  19.540   9.779  13.925
21484W        W85692  27.552  32.032   4.646
21485W        W85693  35.866  10.875   4.234
21486W        W85694  18.565  26.153  14.380
21487W        W85695  33.880   1.309   1.359
21488W        W85696   8.753  19.755   3.855
21489W        W85697  43.880  36.571   2.896
21490W        W85698   0.914  10.151  10.951
21491W        W85699  40.805  28.167   3.775
21492W        W85700  23.058  31.988  10.893
21493W        W85701  16.072  27.987  14.895
21494W        W85702  29.483   6.700   2.309
21495W        W85703  44.454   5.844  13.341
21496W        W85704  37.559   2.943   2.830
21497W        W85705   7.175  39.910  13.793
21498W        W85706  38.937  37.045   4.257
21499W        W85707  33.102  37.560  14.278
21500W        W85708  25.025  19.238   4.336
21501W        W85709   5.400  10.648  13.333
21502W        W85710  44.432  11.863   3.310
21503W        W85711   5.749  32.927  14.478
21504W        W85712  23.520  22.052   4.763
21505W        W85713   7.888   6.914  11.503
21506W        W85714  11.132  40.890  13.063
21507W        W85715  34.111  44.882   1.348
21508W        W85716  31.024  23.525  13.830
21509W        W85717   8.237  28.646   3.670
21510W        W85718  19.276  44.904  11.537
21511W        W85719   8.170  40.423  10.922
21512W        W85720  19.660  36.892  10.500
21513W        W85721  24.216  36.416   0.960
21514W        W85722   1.372  37.460   3.328
21515W        W85723  15.593  43.333  14.938
21516W        W85724  33.012   7.798  13.511
21517W        W85725  11.784  20.660  14.398
21518W        W85726  30.162  34.532  10.592
21519W        W85727  35.491  38.965   0.291
21520W        W85728  32.072  22.698   0.792
21521W        W85729  33.498  19.172  13.806
21522W        W85730  33.113  19.599  14.397
21523W        W85731  17.244   1.440  12.571
21524W        W85732  39.499  14.637   4.286
21525W        W85733  26.473  27.687  13.051
21526W        W85734   3.845  21.154  13.909
21527W        W85735   2.759  36.079   1.222
21528W        W85736  25.696  41.808   3.187
21529W        W85737  33.013  38.964   1.756
21530W        W85738  22.543   1.913   0.458
21531W        W85739  31.975  43.822   4.814
21532W        W85740  43.440  41.378  13.061
21533W        W85741  13.342   7.176   1.359
21534W        W85742  44.763  38.999  13.325
21535W        W85743  15.214  41.428   0.803
21536W        W85744  16.211  14.689   0.242
21537W        W85745  44.920  38.399   3.327
21538W        W85746   0.783   0.960   9.940
21539W        W85747  22.592  43.833  13.360
21540W        W85748  35.959  20.555   0.806
21541W        W85749   2.351   2.452   3.308
21542W        W85750   7.222  34.476  13.547
21543W        W85751  23.701  30.072  12.954
21544W        W85752  43.945  42.853  10.636
21545W        W85753   3.783  35.053   0.883
21546W        W85754  36.864   2.835  10.031
21547W        W85755  37.870  17.185  12.466
21548W        W85756  38.976  16.665   2.410
21549W        W85757  16.718  17.085  11.539
21550W        W85758  32.481  33.126   1.788
21551W        W85759  43.884  22.509   1.732
21552W        W85760  13.693  21.743  14.387
21553W        W85761  31.600  33.121   0.310
21554W        W85762  12.330  40.542  10.621
21555W        W85763  10.676   5.319   2.821
21556W        W85764  14.665  14.161  12.543
21557W        W85765  23.498  43.439   0.422
21558W        W85766   5.916  10.719   0.847
21559W        W85767  43.810  34.450  13.906
21560W        W85768  20.545  29.466  12.446
21561W        W85769  28.469   8.335  14.801
21562W        W85770  39.389  43.892   1.226
21563W        W85771   8.183  15.132  10.566
21564W        W85772  29.661  18.071   3.837
21565W        W85773   2.906  27.144   3.194
21566W        W85774  28.040  21.591  11.059
21567W        W85775  38.331  14.741  14.847
21568W        W85776   2.453  32.998  13.446
21569W        W85777  13.322   8.824  14.027
21570W        W85778   5.757  34.389  13.511
21571W        W85779  14.793   7.362  14.765
21572W        W85780  41.442  36.910  13.027
21573W        W85781   5.928  25.578  13.933
21574W        W85782  41.362  31.897  13.442
21575W        W85783  31.905  10.176   1.266
21576W        W85784   4.420  39.808   3.645
21577W        W85785  32.085  15.124   0.309
21578W        W85786  40.984  43.817   0.853
21579W        W85787  28.947  15.790   3.697
21580W        W85788  19.081  41.908  13.389
21581W        W85789  34.394  11.292   2.759
21582W        W85790  21.154  41.379   2.770
21583W        W85791   7.243  14.095  14.501
21584W        W85792   3.943  30.063   2.318
21585W        W85793  14.299  26.624  13.008
21586W        W85794   4.842  29.604  13.798
21587W        W85795  44.462  40.845   0.947
21588W        W85796  41.873  29.663   4.817
21589W        W85797  15.622  35.426  10.899
21590W        W85798  39.949  32.566   3.676
21591W        W85799  25.472   1.244  14.981
21592W        W85800  32.457  16.124  12.891
21593W        W85801  16.807  41.794  12.093
21594W        W85802  15.621  31.961  11.902
21595W        W85803  26.671  37.057  13.389
21596W        W85804  35.475  11.702   1.282
21597W        W85805   0.957  18.260  11.398
21598W        W85806  41.377  16.803   2.320
21599W        W85807   5.293  28.676  10.542
21600W        W85808   7.897  26.697   2.714
21601W        W85809  22.515  42.360   0.252
21602W        W85810  23.004  44.945  14.874
21603W        W85811  13.265  14.221   3.364
21604W        W85812  38.843  20.074   0.460
21605W        W85813  16.779  12.188   0.371
21606W        W85814   9.330  22.091  11.377
21607W        W85815  14.309   2.814   1.904
21608W        W85816   5.860  19.723   3.332
21609W        W85817  39.940  27.681  11.605
21610W        W85818   9.668  34.082   4.705
21611W        W85819   5.358  14.313   3.707
21612W        W85820  34.542  25.687   4.240
21613W        W85821  33.015  21.698   3.838
21614W        W85822  15.288  15.798  12.407
21615W        W85823  44.309  42.930   9.967
21616W        W85824  26.462  31.083  14.362
21617W        W85825  11.207   9.692  14.797
21618W        W85826  11.364  35.893   4.763
21619W        W85827   4.788  13.616   2.849
21620W        W85828   7.257  12.118  14.865
21621W        W85829  16.703  14.327   2.230
21622W        W85830   8.338  37.356  13.039
21623W        W85831   9.293   9.868  11.548
21624W        W85832  27.465  24.182   0.957
21625W        W85833  40.862   6.190  12.482
21626W        W85834  39.537  19.147   9.950
21627W        W85835  19.279  38.899  13.409
21628W        W85836   6.314  24.046  14.989
21629W        W85837   6.271  26.167   1.804
21630W        W85838   7.408  41.417  10.424
21631W        W85839  17.693  23.494  12.083
21632W        W85840   3.883   6.421   2.250
21633W        W85841   1.352   0.280  13.535
21634W        W85842   5.435  40.943  14.415
21635W        W85843   9.877  39.984   3.650
21636W        W85844  11.843   9.155   0.960
21637W        W85845   7.906  13.640  11.478
21638W        W85846  14.190  39.024   5.097
21639W        W85847  10.378   8.805   4.146
21640W        W85848  33.616   3.392   2.903
21641W        W85849  35.599  44.763   0.385
21642W        W85850  35.556  44.936   3.372
21643W        W85851   4.823  10.741   1.327
21644W        W85852   5.755  31.031  14.304
21645W        W85853  17.169   8.736  13.530
21646W        W85854  31.152  17.156   1.285
21647W        W85855  35.884   3.939   1.730
21648W        W85856  34.901  22.579  14.835
21649W        W85857  43.771  11.348   4.349
21650W        W85858  13.834  18.641   3.643
21651W        W85859  16.781  13.172   0.840
21652W        W85860  29.010   9.686   1.813
21653W        W85861  37.580  33.039   4.284
21654W        W85862  28.500  15.290  12.494
21655W        W85863  42.945  27.123  14.853
21656W        W85864  39.811   4.376   0.294
21657W        W85865   5.746  17.259  11.980
21658W        W85866  41.817   4.830   0.264
21659W        W85867  26.125  19.698  11.102
21660W        W85868  16.738  18.256  11.397
21661W        W85869   5.692  25.620   0.360
21662W        W85870  14.236   0.266  13.060
21663W        W85871  18.093  17.602  13.416
21664W        W85872  36.952  42.026   0.339
21665W        W85873  30.121   3.275   1.245
21666W        W85874  31.978   5.413  12.541
21667W        W85875  14.818  33.021   1.415
21668W        W85876  25.962  18.182   3.695
21669W        W85877  10.831  43.954   2.902
21670W        W85878   8.219  27.946   2.840
21671W        W85879  36.035  42.356   3.738
21672W        W85880  44.424  21.193   5.106
21673W        W85881  30.457   8.234   4.639
21674W        W85882  36.862  10.262  14.351
21675W        W85883  28.619  40.989   2.746
21676W        W85884  30.052  30.079   1.798
21677W        W85885  22.725  27.503  12.910
21678W        W85886   6.735  23.152  14.335
21679W        W85887  36.071  25.558  10.581
21680W        W85888  37.397  16.280   2.733
21681W        W85889  13.685   2.347   3.767
21682W        W85890  23.588  20.077  11.044
21683W        W85891  12.202  28.617   0.799
21684W        W85892  40.448   2.339  14.323
21685W        W85893   0.779   4.831  12.572
21686W        W85894  16.197  20.617  10.929
21687W        W85895   4.284  27.684   2.728
21688W        W85896   3.230  29.572   1.307
21689W        W85897  12.192  28.070   1.926
21690W        W85898  10.748  10.724  14.476
21691W        W85899  15.748  26.639  13.515
21692W        W85900   0.840  28.957   4.179
21693W        W85901  37.528  18.735   1.372
21694W        W85902   0.877  35.442  12.528
21695W        W85903  42.486   3.719   5.142
21696W        W85904  34.581  37.522   4.779
21697W        W85905  42.855   5.819  10.629
21698W        W85906  22.714  20.604  12.511
21699W        W85907  39.450  25.015  13.316
21700W        W85908  26.151  16.737   1.893
21701W        W85909  28.149  19.046  14.513
21702W        W85910  41.886   7.832   1.748
21703W        W85911  25.139  30.036   0.895
21704W        W85912   4.702  19.186   4.316
21705W        W85913  29.074  16.647  14.513
21706W        W85914  33.053  20.080  12.441
21707W        W85915   8.263  13.260  13.494
21708W        W85916  25.204   8.734  12.956
21709W        W85917  21.704  31.523   0.469
21710W        W85918  23.712  43.516   1.782
21711W        W85919  44.918  40.350   4.270
21712W        W85920  34.078  18.056   2.887
21713W        W85921   7.665   9.151  13.876
21714W        W85922  11.631  31.086  12.081
21715W        W85923  31.524  25.662   4.134
21716W        W85924   1.868  31.549   1.244
21717W        W85925  15.711   5.377   2.416
21718W        W85926  43.291   2.788   0.812
21719W        W85927  17.113   7.866  10.982
21720W        W85928  38.415  43.993  13.416
21721W        W85929   2.381  42.318  13.819
21722W        W85930  12.274  18.127  13.527
21723W        W85931   9.672  12.149   1.725
21724W        W85932   2.273  34.429   2.757
21725W        W85933   0.493  35.549  12.003
21726W        W85934   6.823  40.405   4.326
21727W        W85935  31.441  34.495   0.367
21728W        W85936  16.108   1.253  12.853
21729W        W85937  23.200  15.753  13.801
21730W        W85938  21.248  24.045   0.823
21731W        W85939  27.079  37.838   2.385
21732W        W85940  31.410  30.154  14.332
21733W        W85941   9.314   1.297  11.425
21734W        W85942   7.753  43.933   2.688
21735W        W85943   7.205  13.335  10.555
21736W        W85944   0.409  24.618   1.833
21737W        W85945  36.860  10.660  10.445
21738W        W85946  36.537  40.024   4.782
21739W        W85947   8.867  10.821  14.388
21740W        W85948  35.991  17.613  14.978
21741W        W85949   0.436   3.461   4.161
21742W        W85950  21.695  30.053   4.162
21743W        W85951  32.130  37.582  14.888
21744W        W85952  35.103  44.457   5.180
21745W        W85953  36.951  23.723  14.910
21746W        W85954   8.828  31.932  13.349
21747W        W85955  15.230  20.523   2.704
21748W        W85956   4.779  10.294   9.928
21749W        W85957   8.186   1.419   0.930
21750W        W85958  25.970   3.722  11.017
21751W        W85959  26.987  44.906   0.925
21752W        W85960  41.788  44.849  11.975
21753W        W85961  17.579  24.617   0.913
21754W        W85962  15.696  42.909   5.141
21755W        W85963  37.875  39.066   1.323
21756W        W85964  42.494  14.627  11.986
21757W        W85965  25.983   9.862  14.968
21758W        W85966  25.483  19.213   1.746
21759W        W85967  12.347  18.783   4.612
21760W        W85968  16.296  28.486   0.329
21761W        W85969  29.469  32.045  11.387
21762W        W85970  21.082  36.575  12.058
21763W        W85971  26.010  25.181   4.313
21764W        W85972  34.400  17.223  12.361
21765W        W85973   6.188  18.733  13.454
21766W        W85974  20.523  39.824   3.781
21767W        W85975  10.192  27.446   0.873
21768W        W85976   2.338  32.535  10.972
21769W        W85977  33.892   5.730  12.890
21770W        W85978  13.821  30.448  12.434
21771W        W85979  24.069   7.799  14.391
21772W        W85980  23.996   9.796   2.759
21773W        W85981  11.223  41.832  13.815
21774W        W85982   4.942  34.090   2.662
21775W        W85983  22.688  43.785  11.993
21776W        W85984  35.544  29.174   4.793
21777W        W85985   0.846  20.529   3.284
21778W        W85986  38.547  19.216  13.331
21779W        W85987   6.823  41.319   4.170
21780W        W85988   2.720  17.592  12.904
21781W        W85989  14.136  15.089   4.237
21782W        W85990  38.962   6.374  13.816
21783W        W85991  13.652  43.320  14.799
21784W        W85992   1.753  34.483   4.309
21785W        W85993  36.058   0.388  13.821
21786W        W85994   7.234  27.101  14.382
21787W        W85995  30.138  21.644  10.422
21788W        W85996  29.564  11.348   0.748
21789W        W85997  16.694  30.591  10.902
21790W        W85998  21.661  30.109  12.915
21791W        W85999  20.102  18.763   4.195
21792W        W86000  29.633   2.943   1.831
21793W        W86001  19.127  20.732  13.945
21794W        W86002   1.970   2.249  11.500
21795W        W86003   1.734  10.263  13.017
21796W        W86004   4.757   1.928  10.633
21797W        W86005   3.831  36.586   0.813
21798W        W86006   7.264  32.557   2.812
21799W        W86007  30.438   1.852   4.647
21800W        W86008  37.546  44.801   4.303
21801W        W86009  22.224   7.746   3.242
21802W        W86010   6.260  38.007  12.083
21803W        W86011  35.034  38.823  10.515
21804W        W86012  42.801  35.451   3.212
21805W        W86013  24.612  40.880  10.478
21806W        W86014  21.198  40.446   1.860
21807W        W86015  22.247   4.349  11.610
21808W        W86016  31.030   2.263  11.902
21809W        W86017  17.791  41.040  11.959
21810W        W86018  15.116  12.167   4.136
21811W        W86019  33.585   1.297  12.505
21812W        W86020  42.383   7.227  12.504
21813W        W86021  10.309  28.644   4.241
21814W        W86022   8.805  34.436  14.899
21815W        W86023  11.725  16.270  11.961
21816W        W86024  16.644  22.512  12.945
21817W        W86025  37.876  32.535   2.877
21818W        W86026  19.735  42.023  13.332
21819W        W86027   6.286   2.785   4.320
21820W        W86028  17.220  37.943  14.330
21821W        W86029  34.416  34.436   3.175
21822W        W86030   8.675  21.621  11.016
21823W        W86031  20.580  24.533  11.544
21824W        W86032  23.158   2.234  12.500
21825W        W86033  22.091  29.619   0.896
21826W        W86034  29.108   5.719   0.314
21827W        W86035  13.152  35.360   2.757
21828W        W86036   9.773  19.768   1.910
21829W        W86037  22.218   0.332  10.934
21830W        W86038  18.073  13.797   3.281
21831W        W86039  42.978  39.811  14.326
21832W        W86040  30.636  34.075  12.510
21833W        W86041  36.092  31.643  14.915
21834W        W86042  28.435   4.808   4.151
21835W        W86043   0.415  14.191   3.868
21836W        W86044  22.014  20.181   3.161
21837W        W86045  20.071  40.432   3.733
21838W        W86046  44.277  36.492   3.241
21839W        W86047  31.089  15.277   3.246
21840W        W86048  26.186  26.703   0.365
21841W        W86049  34.901  26.121   0.443
21842W        W86050  39.320   0.389   0.906
21843W        W86051   9.158  42.954   1.728
21844W        W86052  37.914  36.092   2.288
21845W        W86053  27.539  15.134   1.753
21846W        W86054  29.140  42.880   0.922
21847W        W86055  34.438  16.223  11.034
21848W        W86056  18.164   0.816   1.272
21849W        W86057  24.191  32.886   4.303
21850W        W86058  16.602  16.788  10.404
21851W        W86059  11.277  20.718   4.181
21852W        W86060  23.602  13.163   0.380
21853W        W86061  27.113  21.568  13.356
21854W        W86062  11.766  15.142   2.196
21855W        W86063  18.269   8.314   3.740
21856W        W86064  27.115  10.175  14.335
21857W        W86065  21.227  20.221   0.837
21858W        W86066  33.897  23.607  12.362
21859W        W86067  17.088  32.391   0.362
21860W        W86068   1.890  11.162   3.293
21861W        W86069  39.956  34.078  12.882
21862W        W86070   3.320  24.979   1.855
21863W        W86071  42.857  18.139   1.916
21864W        W86072  40.807  11.345  12.477
21865W        W86073  10.715   5.435   0.314
21866W        W86074  30.949  26.164  14.457
21867W        W86075  41.015  13.694   4.743
21868W        W86076   7.894  15.287   9.924
21869W        W86077  44.421  12.661  11.567
21870W        W86078  40.455  36.914   3.636
21871W        W86079  38.034  10.842  12.362
21872W        W86080  44.862  41.886   2.257
21873W        W86081  40.826  11.772   0.918
21874W        W86082  20.611  12.769   4.819
21875W        W86083   4.830  20.249   0.242
21876W        W86084  42.955   6.810   4.330
21877W        W86085  18.600  41.476  12.450
21878W        W86086  35.451  25.498   4.682
21879W        W86087   6.212  32.628   2.264
21880W        W86088   2.450  34.438  14.432
21881W        W86089  44.867  27.470  11.484
21882W        W86090  19.108  42.311   0.953
21883W        W86091   9.796  29.062   2.840
21884W        W86092  34.591  28.070   1.444
21885W        W86093  41.526  13.105  11.056
21886W        W86094  34.584   5.687   4.249
21887W        W86095  15.722   3.223  12.857
21888W        W86096  41.417   6.393   2.880
21889W        W86097  22.703  33.060   4.604
21890W        W86098  30.643   5.891   2.386
21891W        W86099  32.572  28.954   0.901
21892W        W86100  35.926  39.350   3.799
21893W        W86101  18.222  27.656   2.310
21894W        W86102  42.020  26.981  11.901
21895W        W86103  41.890  35.455   4.345
21896W        W86104   3.731  36.464  13.976
21897W        W86105   5.798  27.046   4.212
21898W        W86106  15.124  12.612  12.055
21899W        W86107   2.873  11.697   1.718
21900W        W86108  16.732  20.108  13.469
21901W        W86109  39.835   9.819  12.402
21902W        W86110   0.765  18.191   5.157
21903W        W86111  34.097   9.344   2.417
21904W        W86112  22.179   5.901   4.130
21905W        W86113   6.298  14.644  12.410
21906W        W86114  33.503  19.541   4.226
21907W        W86115  39.038  18.071   1.861
21908W        W86116   1.849  39.007   3.186
21909W        W86117   2.785  37.030   4.627
21910W        W86118  41.968   2.781   3.648
21911W        W86119  11.804  31.641   0.462
21912W        W86120  27.158  24.569  13.994
21913W        W86121  10.685  40.975  10.552
21914W        W86122  17.655  13.145  12.497
21915W        W86123  39.997   1.758   1.369
21916W        W86124  11.798  18.690   3.204
21917W        W86125   9.352  24.023  12.547
21918W        W86126  42.502  15.241  10.954
21919W        W86127  20.080  39.873  10.938
21920W        W86128  29.460  10.141   0.760
21921W        W86129  11.179  20.628  13.538
21922W        W86130  30.546  22.698  11.115
21923W        W86131   6.288  36.541   4.173
21924W        W86132   9.687  18.191  10.560
21925W        W86133  33.897   8.708   3.833
21926W        W86134  23.636  36.920  11.092
21927W        W86135  41.831   8.785  12.873
21928W        W86136  31.461  36.476  14.952
21929W        W86137  35.067  39.867   2.331
21930W        W86138  33.965  43.404   0.885
21931W        W86139   6.780   3.789  11.049
21932W        W86140  14.688  41.291   0.444
21933W        W86141  23.673  30.432  14.884
21934W        W86142  11.229  39.881  14.292
21935W        W86143   2.344   2.227   4.309
21936W        W86144   1.868  41.019  14.944
21937W        W86145  28.945  44.815  11.499
21938W        W86146  25.663  27.498  12.378
21939W        W86147  17.218  12.840  12.544
21940W        W86148  12.649  34.507  12.571
21941W        W86149  14.317  10.218   2.796
21942W        W86150  14.114  43.374   4.622
21943W        W86151   5.746  36.841   3.161
21944W        W86152   2.889  28.957   0.385
21945W        W86153  26.488  11.632   2.668
21946W        W86154   7.273  37.504   1.905
21947W        W86155  38.973  26.037   1.769
21948W        W86156   4.879  14.715   2.195
21949W        W86157   8.658  21.137   0.393
21950W        W86158   9.270  42.410   0.935
21951W        W86159  14.201   3.285   1.389
21952W        W86160  41.341  14.642   1.873
21953W        W86161  36.875  14.704   2.670
21954W        W86162  27.089  12.281  12.877
21955W        W86163  38.853   8.275   0.312
21956W        W86164  43.801  20.145  14.448
21957W        W86165  23.677  36.962   4.233
21958W        W86166  14.651  23.713   2.262
21959W        W86167  26.020  25.710   1.883
21960W        W86168  40.383   4.415   3.712
21961W        W86169  43.971  41.318  13.451
21962W        W86170  12.730  12.836   3.307
21963W        W86171  14.738  44.408  14.497
21964W        W86172   7.303   9.194  13.420
21965W        W86173  41.950  12.211  12.369
21966W        W86174   1.783  36.458   1.255
21967W        W86175  41.329  11.657  13.023
21968W        W86176  15.220  34.456  14.287
21969W        W86177  17.177  13.630  10.633
21970W        W86178  18.760   9.806  14.874
21971W        W86179  32.072  41.386  10.526
21972W        W86180   2.812  15.801   4.777
21973W        W86181  11.737   5.336   2.757
21974W        W86182  18.252  21.585  14.295
21975W        W86183  36.448   7.415   1.811
21976W        W86184  22.576  36.950   3.385
21977W        W86185  23.561   0.988   4.294
21978W        W86186  11.848  42.488  12.960
21979W        W86187  13.181   3.956  12.003
21980W        W86188  31.962   1.766   4.311
21981W        W86189  44.340  30.975  14.336
21982W        W86190   0.250  35.064  12.086
21983W        W86191  32.554  18.106  13.800
21984W        W86192  42.897  12.641  13.922
21985W        W86193  29.056   5.753  11.900
21986W        W86194  29.619  12.614  14.282
21987W        W86195   7.248  30.098  11.575
21988W        W86196  12.800  32.995  12.057
21989W        W86197  37.548   2.300   3.280
21990W        W86198  44.875   5.233  14.513
21991W        W86199  40.864  29.958   3.825
21992W        W86200   9.669  37.369  13.933
21993W        W86201   4.802  23.698   3.728
21994W        W86202  20.231  34.932   1.279
21995W        W86203  17.556  38.329   1.802
21996W        W86204  30.149  24.086  11.035
21997W        W86205  27.112  22.603   4.726
21998W        W86206  32.032  18.238  10.101
21999W        W86207  29.625  26.185  11.867
22000W        W86208  30.603  22.998  11.532
22001W        W86209  19.725  40.857  12.508
22002W        W86210  27.571  26.077  11.925
22003W        W86211  31.930  19.069  11.602
22004W        W86212  17.124   6.399   3.732
22005W        W86213  36.889  10.163   2.876
22006W        W86214   1.929  15.791  12.555
22007W        W86215   4.883  25.478  11.449
22008W        W86216  22.655   2.239   2.224
22009W        W86217  19.225   6.335  13.345
22010W        W86218  11.840  34.469  12.914
22011W        W86219  43.497  15.152  14.981
22012W        W86220  21.235  10.804  10.970
22013W        W86221  16.750   8.262  14.490
22014W        W86222  27.983  23.106   0.792
22015W        W86223   6.862  15.083  11.459
22016W        W86224   6.350  30.045  11.993
22017W        W86225  32.558  43.914  11.446
22018W        W86226  41.849  35.520   3.727
22019W        W86227  21.620  26.146  10.974
22020W        W86228  39.462  33.015   2.406
22021W        W86229  34.505  42.982   2.841
22022W        W86230   2.848  35.045  14.806
22023W        W86231  24.063  42.028   0.910
22024W        W86232   0.360   5.281  14.004
22025W        W86233  18.716   6.237  11.429
22026W        W86234   3.933  38.492   1.273
22027W        W86235  28.638   9.667   2.306
22028W        W86236   0.288   8.180  14.855
22029W        W86237  40.387  40.942   4.354
22030W        W86238  36.369   3.305   2.281
22031W        W86239   5.820  30.475   0.326
22032W        W86240  44.439   5.223   4.249
22033W        W86241  17.570  36.396  12.361
22034W        W86242  28.929  19.562   4.254
22035W        W86243  28.669  16.763  12.557
22036W        W86244  34.491  36.995  10.924
22037W        W86245  40.931  14.124   3.717
22038W        W86246  25.599  33.079  10.990
22039W        W86247  36.487  20.735  10.905
22040W        W86248  44.929  22.513   1.758
22041W        W86249  34.033  41.325  14.397
22042W        W86250  35.485  40.382   4.631
22043W        W86251  30.159  10.174   5.192
22044W        W86252  36.915  11.240   4.624
22045W        W86253  19.186  39.923   2.341
22046W        W86254  10.321  12.842   3.711
22047W        W86255   4.715  36.843  13.952
22048W        W86256  17.611  25.199   0.909
22049W        W86257  14.778   8.190  13.416
22050W        W86258   6.728  17.126   4.714
22051W        W86259  27.012  30.430   0.736
22052W        W86260  31.486  15.113  14.901
22053W        W86261  33.595  34.388   5.277
22054W        W86262  27.562   5.709  11.087
22055W        W86263  30.573  18.076   4.815
22056W        W86264  40.542  43.324   2.787
22057W        W86265   2.350  12.284  11.961
22058W        W86266  24.695  35.045   1.919
22059W        W86267  32.909   8.751   9.948
22060W        W86268  32.915  26.951   4.838
22061W        W86269  35.489  44.838  12.092
22062W        W86270  22.526  43.288  10.561
22063W        W86271  38.429  28.177   4.316
22064W        W86272  29.005  32.440  11.494
22065W        W86273  40.884   0.856   1.365
22066W        W86274   3.323  38.918  12.858
22067W        W86275  11.320  16.317  14.462
22068W        W86276  39.489   1.919   3.363
22069W        W86277  17.792  26.470  12.389
22070W        W86278  35.487  44.818   1.285
22071W        W86279   2.841  11.322  10.457
22072W        W86280  31.077  36.949  13.354
22073W        W86281  40.009   5.331  11.089
22074W        W86282   7.848  39.543  13.917
22075W        W86283  12.151   7.899   3.382
22076W        W86284  29.985   3.759  13.833
22077W        W86285  37.354  20.101   3.198
22078W        W86286  20.090  12.669  12.469
22079W        W86287  15.674   8.404  11.951
22080W        W86288  36.851  21.562   0.806
22081W        W86289   8.705   5.240   2.330
22082W        W86290  40.017   7.688  14.348
22083W        W86291  33.129  44.911  14.347
22084W        W86292   6.885  28.974   3.858
22085W        W86293  27.559  35.495  14.824
22086W        W86294  39.412  32.037   4.281
22087W        W86295  42.950  31.648  13.540
22088W        W86296   7.412  12.677  10.628
22089W        W86297  21.522  18.173   5.312
22090W        W86298   8.900  11.829  13.962
22091W        W86299  33.050  21.597   0.761
22092W        W86300   5.881  29.023   1.396
22093W        W86301   6.236  35.587  11.101
22094W        W86302  36.943   2.884   3.209
22095W        W86303  32.589  39.012   4.252
22096W        W86304  38.044  43.791  11.564
22097W        W86305  32.913  28.988  10.903
22098W        W86306  44.448   5.688   2.385
22099W        W86307  18.740  15.258   1.844
22100W        W86308  38.007   5.826  13.397
22101W        W86309  19.620  28.666   1.732
22102W        W86310  38.892  35.910   0.935
22103W        W86311  28.672  40.848  11.933
22104W        W86312  16.191  43.864  14.280
22105W        W86313  33.549  14.106  10.597
22106W        W86314   7.721   4.204   2.719
22107W        W86315  12.619   4.221   3.813
22108W        W86316   9.150  36.959   2.676
22109W        W86317   7.199  15.583   3.224
22110W        W86318  25.011  19.658   0.411
22111W        W86319  18.266  23.050  12.918
22112W        W86320  36.541   3.298   0.872
22113W        W86321  21.227   4.747  12.836
22114W        W86322   8.784  33.600  12.565
22115W        W86323  22.233  33.878   2.860
22116W        W86324  12.172  41.888   0.380
22117W        W86325  27.644  16.282   2.731
22118W        W86326  21.030   5.730  13.483
22119W        W86327   1.319   5.353  11.551
22120W        W86328  11.631  38.521   1.423
22121W        W86329  40.464  30.054  13.833
22122W        W86330  36.574  17.669   4.629
22123W        W86331  29.161  39.824  10.487
22124W        W86332  40.855  31.027   4.807
22125W        W86333  24.682  33.594  11.953
22126W        W86334   8.788  20.750  12.003
22127W        W86335  41.441  43.891   0.405
22128W        W86336  36.910  26.992   1.319
22129W        W86337   1.971  19.273  14.837
22130W        W86338   7.687  17.573  10.440
22131W        W86339  26.587  10.252  14.435
22132W        W86340  24.011  32.464  13.373
22133W        W86341   2.332  19.761   1.422
22134W        W86342  31.550  33.399   3.175
22135W        W86343  34.431   9.753   3.652
22136W        W86344  41.402  44.381   4.632
22137W        W86345  27.941   4.308   0.353
22138W        W86346  20.126   3.334   5.214
22139W        W86347  40.856  31.590   0.841
22140W        W86348  24.685  28.966  11.056
22141W        W86349  14.811  26.077   1.774
22142W        W86350  31.515  18.110  12.948
22143W        W86351  21.574  30.460   0.825
22144W        W86352  29.518   8.182   4.230
22145W        W86353  27.947   6.379  12.364
22146W        W86354  41.803   3.379  14.468
22147W        W86355  33.575  29.512   2.185
22148W        W86356  28.098  35.568   4.663
22149W        W86357  12.849   1.302  12.967
22150W        W86358  37.875  25.116  10.929
22151W        W86359  35.094  31.944  11.562
22152W        W86360  10.303  23.073  11.934
22153W        W86361  25.682  26.553   3.349
22154W        W86362  42.319  20.702   0.351
22155W        W86363  18.210   6.836   4.175
22156W        W86364   1.254  41.331  11.891
22157W        W86365  38.074  20.739   1.704
22158W        W86366  31.042  22.537  11.581
22159W        W86367  17.305  42.894  10.579
22160W        W86368  32.014  43.485   3.371
22161W        W86369   1.933  25.566   3.157
22162W        W86370  33.055  31.408  13.986
22163W        W86371   7.254  29.001  12.986
22164W        W86372  10.677  34.023  11.521
22165W        W86373  17.767  28.103  13.889
22166W        W86374  27.611  10.350  13.493
22167W        W86375   7.876   7.750  13.006
22168W        W86376  41.012  21.519  14.890
22169W        W86377  40.545  14.236  14.282
22170W        W86378   1.792   6.338   4.755
22171W        W86379   0.484   0.841   3.719
22172W        W86380  20.575  44.855  14.015
22173W        W86381  32.953  22.709  11.527
22174W        W86382  43.443  38.448  10.959
22175W        W86383  42.828  33.578  12.073
22176W        W86384   5.214  28.630   2.774
22177W        W86385  27.579  20.646  13.839
22178W        W86386  27.486   7.870   1.406
22179W        W86387   4.736  16.747  11.515
22180W        W86388   6.244   9.707   0.882
22181W        W86389   5.839  17.140   3.794
22182W        W86390  31.985  38.066  14.490
22183W        W86391  37.841  30.935   4.275
22184W        W86392  24.636  22.733  14.933
22185W        W86393  21.225  13.178  13.852
22186W        W86394  26.625  21.715   2.876
22187W        W86395   8.392  37.018  13.501
22188W        W86396  44.372  39.523  13.042
22189W        W86397  15.585  26.622   4.263
22190W        W86398   3.823  35.991   5.162
22191W        W86399  31.907  16.775   3.322
22192W        W86400   0.492  34.602   2.697
22193W        W86401  19.559  15.139  11.085
22194W        W86402  27.105  41.857   4.355
22195W        W86403  19.158  39.328  11.053
22196W        W86404  29.582  36.422  14.338
22197W        W86405  29.979  17.669  14.371
22198W        W86406  35.603   8.819   0.774
22199W        W86407  11.195  28.151  14.505
22200W        W86408  29.548  31.100  11.387
22201W        W86409  21.544   9.242   1.796
22202W        W86410  26.131  20.194   4.703
22203W        W86411  24.581  14.115  12.459
22204W        W86412  43.764   6.869   0.728
22205W        W86413  19.126  15.196  11.024
22206W        W86414  40.320   8.891   4.152
22207W        W86415  34.931  44.810  13.380
22208W        W86416  30.429  10.671  11.581
22209W        W86417  40.352  18.190  11.408
22210W        W86418  30.596   4.271  12.530
22211W        W86419  39.937  42.433   4.234
22212W        W86420  42.923  33.472  13.928
22213W        W86421  40.331  37.363   1.833
22214W        W86422  28.676   6.413  14.369
22215W        W86423  36.885   2.344  12.896
22216W        W86424  37.009   7.817  10.644
22217W        W86425  21.734  14.163   0.908
22218W        W86426   2.927  27.098   0.339
22219W        W86427   1.370  26.469   1.769
22220W        W86428   7.271  14.817  14.480
22221W        W86429  29.070   4.857   1.697
22222W        W86430  42.882   7.825  13.949
22223W        W86431  20.631  16.781   3.317
22224W        W86432   9.207  29.517   2.826
22225W        W86433  16.718   0.919  13.010
22226W        W86434  43.782  25.171   3.659
22227W        W86435  37.347  20.528   3.765
22228W        W86436  25.496   5.254  11.548
22229W        W86437  16.651  24.714   0.737
22230W        W86438  11.689   2.359  10.944
22231W        W86439  44.328  36.540   3.690
22232W        W86440  26.195  30.586  14.475
22233W        W86441  25.694   0.484  12.960
22234W        W86442  19.066  28.582   4.282
22235W        W86443  28.485   0.818  12.066
22236W        W86444   4.832  36.556  13.415
22237W        W86445  13.739  38.351   0.816
22238W        W86446  27.507  17.631   0.362
22239W        W86447  42.026   1.441  11.372
22240W        W86448  18.214  33.537   1.273
22241W        W86449  30.093   2.911   1.731
22242W        W86450  35.537  13.276   2.766
22243W        W86451  15.600  35.983  12.502
22244W        W86452  41.367  13.317   0.871
22245W        W86453  15.591   0.416  10.629
22246W        W86454   7.759  19.248   3.754
22247W        W86455  22.139  26.663  12.022
22248W        W86456  19.596  29.172  13.892
22249W        W86457  34.023  32.611  13.446
22250W        W86458  16.691   7.720  11.982
22251W        W86459  13.601  39.353   3.692
22252W        W86460  25.119  17.569  12.438
22253W        W86461  28.074  36.569   0.352
22254W        W86462  21.263  44.335   2.308
22255W        W86463  30.498   8.182  10.900
22256W        W86464   9.212  20.107  11.873
22257W        W86465  34.611   2.926  11.007
22258W        W86466  15.294  31.121   2.700
22259W        W86467   4.371   2.271  11.440
22260W        W86468  31.961   9.884  14.285
22261W        W86469  16.587   3.900  10.905
22262W        W86470  29.651  10.697   3.708
22263W        W86471  42.477   6.301   2.276
22264W        W86472  15.800   9.787   0.967
22265W        W86473   8.160  39.877  11.392
22266W        W86474   4.364  11.148   2.279
22267W        W86475  14.666  38.864  14.434
22268W        W86476   5.346  17.630  13.841
22269W        W86477  24.709  31.440   0.266
22270W        W86478  40.048  37.492   0.465
22271W        W86479   4.368   5.867  12.491
22272W        W86480   3.710  44.410  13.321
22273W        W86481  25.607   2.235   2.895
22274W        W86482  29.494  34.564   0.272
22275W        W86483  29.435   2.733  10.965
22276W        W86484  28.573  34.586  11.980
22277W        W86485  16.752  33.564  12.927
22278W        W86486  16.713   1.360   0.393
22279W        W86487   6.392  43.471   3.215
22280W        W86488  35.533  42.984   4.230
22281W        W86489  24.637   0.322   1.318
22282W        W86490  28.536  10.721   3.327
22283W        W86491  20.758  28.647   2.775
22284W        W86492  12.272   7.748  11.551
22285W        W86493  27.653   7.763   4.197
22286W        W86494   5.876  10.638   3.695
22287W        W86495  32.483  25.136   2.313
22288W        W86496  17.154   1.341  10.954
22289W        W86497  11.279  29.097   2.827
22290W        W86498  11.299  10.712   4.259
22291W        W86499  31.939  16.713   1.413
22292W        W86500  18.790  31.910   2.263
22293W        W86501  22.081  22.503   0.808
22294W        W86502   8.387  31.405  11.478
22295W        W86503  39.941   1.322   4.347
22296W        W86504  40.979  35.916   4.208
22297W        W86505  42.367   0.395   0.355
22298W        W86506  19.560  33.600   3.261
22299W        W86507   9.763  43.471  11.542
22300W        W86508   5.196   2.924   3.227
22301W        W86509  11.214  23.716   4.232
22302W        W86510   6.409   6.265  10.444
22303W        W86511  18.576   2.363   0.899
22304W        W86512  38.893  24.016  10.962
22305W        W86513   8.312   7.758  12.421
22306W        W86514   1.871  30.443   3.689
22307W        W86515  13.327  21.106   1.331
22308W        W86516  11.753   0.462  11.066
22309W        W86517   8.374  17.164  12.468
22310W        W86518  40.960  21.758  11.595
22311W        W86519  37.408   9.276  11.993
22312W        W86520  40.807   2.346   3.728
22313W        W86521  21.518  37.349   2.683
22314W        W86522  29.118  25.498  14.930
22315W        W86523  21.597  16.141   4.659
22316W        W86524  28.521  40.377  13.523
22317W        W86525  28.501  26.594  11.539
22318W        W86526  16.740  22.531   3.287
22319W        W86527  16.199  28.452   2.786
22320W        W86528  17.077  35.557  11.003
22321W        W86529   1.853  39.392  12.871
22322W        W86530  13.689   1.395   3.859
22323W        W86531  17.735   4.828  14.819
22324W        W86532  44.776  27.145   4.677
22325W        W86533   9.395   8.863   1.353
22326W        W86534  32.982  39.817  10.971
22327W        W86535  39.495  25.090  12.995
22328W        W86536  36.054  18.296  11.917
22329W        W86537   7.762  17.775  12.004
22330W        W86538  25.565  37.343   0.458
22331W        W86539   7.374  22.130   2.883
22332W        W86540  40.986   2.469  13.446
22333W        W86541  24.643   7.384   0.760
22334W        W86542  15.264  29.089  13.391
22335W        W86543  20.584  36.949   5.661
22336W        W86544  36.031  23.636   1.712
22337W        W86545  35.002  16.689  12.829
22338W        W86546  24.991  12.684   3.277
22339W        W86547  26.120  43.333   4.729
22340W        W86548   4.797  27.186  10.420
22341W        W86549  28.028  38.058   0.426
22342W        W86550  17.557   4.326  14.513
22343W        W86551   5.755  37.912   3.789
22344W        W86552  39.466  28.157  12.922
22345W        W86553   3.218  10.723   3.737
22346W        W86554  33.892  43.328   4.709
22347W        W86555  10.145  43.794   4.820
22348W        W86556  35.550  10.724   1.768
22349W        W86557  23.570   2.335  14.302
22350W        W86558   6.904  11.169  12.525
22351W        W86559  17.110  31.105   3.824
22352W        W86560  35.909   2.472   3.708
22353W        W86561  21.124  32.994  13.328
22354W        W86562  32.433  30.088  13.367
22355W        W86563  23.513  34.470  12.383
22356W        W86564  38.875   1.742   4.141
22357W        W86565   9.298  40.503   2.178
22358W        W86566  11.701  26.637   5.084
22359W        W86567  41.947   2.407   1.440
22360W        W86568  13.296   7.270   3.848
22361W        W86569  42.449  28.932   3.684
22362W        W86570  26.551  12.277  10.529
22363W        W86571  33.552   0.361   1.273
22364W        W86572  10.165  16.164   0.767
22365W        W86573  30.518   8.710   0.270
22366W        W86574  18.619   7.216  14.303
22367W        W86575  23.203  24.698   0.448
22368W        W86576   9.851  44.761   1.757
22369W        W86577  25.510  35.359   1.724
22370W        W86578  23.984  40.528  12.378
22371W        W86579   7.170  33.050   1.442
22372W        W86580  33.475   0.430  13.535
22373W        W86581  36.570  15.744  10.630
22374W        W86582  23.501  17.224  12.512
22375W        W86583  40.815  21.681   1.776
22376W        W86584   2.723  24.133  11.460
22377W        W86585   7.839  16.293   1.262
22378W        W86586  30.025  38.558   3.690
22379W        W86587   9.654  34.382   4.622
22380W        W86588  26.589  34.929   1.264
22381W        W86589  41.460   3.724  11.446
22382W        W86590  40.838  18.115  13.996
22383W        W86591  43.409   7.779   2.663
22384W        W86592  12.190  30.928  11.603
22385W        W86593  31.921  36.962  14.800
22386W        W86594  35.857   3.754  13.991
22387W        W86595  29.641  13.114  14.836
22388W        W86596  32.889   8.218   1.807
22389W        W86597   0.851  42.893  12.433
22390W        W86598  33.029   1.469  11.575
22391W        W86599  42.332  13.617   4.341
22392W        W86600  29.962  10.365   2.798
22393W        W86601  17.109   8.807   2.210
22394W        W86602  40.009  12.721  13.954
22395W        W86603  17.182   4.759   3.273
22396W        W86604  27.663   6.321   3.305
22397W        W86605   6.186  19.044   2.856
22398W        W86606  19.175  29.957  14.844
22399W        W86607  34.596  42.970   3.855
22400W        W86608  13.112   0.838   1.847
22401W        W86609  17.101  25.172   4.678
22402W        W86610  14.811  44.412  11.433
22403W        W86611  40.895  10.760  10.945
22404W        W86612  32.899  17.133   3.174
22405W        W86613  28.452   9.724  14.009
22406W        W86614  27.994  16.737  14.341
22407W        W86615   8.847  24.165   1.795
22408W        W86616  17.752  24.046  12.873
22409W        W86617  13.760  25.098  13.898
22410W        W86618  31.043  27.605  14.848
22411W        W86619  32.988  14.743   5.277
22412W        W86620  29.529  38.022  12.434
22413W        W86621  44.479  44.471   0.930
22414W        W86622  40.881  23.665  12.575
22415W        W86623   2.330   6.681   0.867
22416W        W86624  27.583  20.587  11.029
22417W        W86625  24.978   4.416   4.349
22418W        W86626  42.994   3.296   1.405
22419W        W86627   3.379  22.084  10.575
22420W        W86628   0.829  18.062  12.563
22421W        W86629   8.371   4.245   1.279
22422W        W86630  44.317  27.019   2.340
22423W        W86631  26.069  10.268   1.220
22424W        W86632  38.429  29.636   1.852
22425W        W86633  24.211   5.306  12.032
22426W        W86634  38.438  22.107   4.171
22427W        W86635  23.727  22.636   3.829
22428W        W86636  39.409   1.282  14.364
22429W        W86637  36.873  22.078   3.837
22430W        W86638  36.485   9.226   4.342
22431W        W86639  19.602  27.547   4.758
22432W        W86640  25.015  41.448  14.352
22433W        W86641  35.451  34.521  13.534
22434W        W86642  42.287   9.206  14.469
22435W        W86643  38.952  21.737  10.590
22436W        W86644  15.100   9.318   1.737
22437W        W86645  37.872   8.686  14.030
22438W        W86646  26.062   9.290  10.911
22439W        W86647  17.138   7.731   3.662
22440W        W86648  24.023  37.973  12.891
22441W        W86649  16.568  44.425  12.884
22442W        W86650  26.973  30.149   4.229
22443W        W86651  25.136   5.195   4.277
22444W        W86652  26.610  26.491   5.171
22445W        W86653  13.221   6.844   4.354
22446W        W86654  21.517  17.654   1.356
22447W        W86655  17.564  35.970   4.654
22448W        W86656  29.071  19.215  12.396
22449W        W86657  11.748   8.400   2.809
22450W        W86658  37.478   0.412   3.272
22451W        W86659  25.553  41.460  11.861
22452W        W86660  30.069  19.271  11.524
22453W        W86661  43.480   2.324   1.286
22454W        W86662  30.579  42.294   2.382
22455W        W86663   9.740  41.405  13.989
22456W        W86664  36.995   2.946  14.444
22457W        W86665  33.896   7.385   4.344
22458W        W86666  31.034   7.815  13.525
22459W        W86667   5.433  26.023  11.420
22460W        W86668   8.701   3.941   3.201
22461W        W86669   3.290  20.137  14.308
22462W        W86670  21.141   0.412  13.018
22463W        W86671  39.476  37.559  12.839
22464W        W86672  11.742  10.665   4.275
22465W        W86673  32.628   5.348  11.947
22466W        W86674  31.902  14.261  12.577
22467W        W86675   9.781  15.147   4.699
22468W        W86676  32.561  30.147  10.480
22469W        W86677  43.498  27.977  11.553
22470W        W86678  35.484  41.443   0.757
22471W        W86679   1.300  14.245   1.706
22472W        W86680  21.018  23.014   3.839
22473W        W86681  10.188  16.699  10.055
22474W        W86682  22.704   0.295  12.853
22475W        W86683  38.345  42.392   0.823
22476W        W86684  36.482   9.294  13.543
22477W        W86685   1.348  12.726  14.368
22478W        W86686   2.833  19.051   3.688
22479W        W86687   7.364  24.643  14.293
22480W        W86688  28.155  10.318  11.930
22481W        W86689  19.079   0.974  12.087
22482W        W86690  36.451  26.483  12.062
22483W        W86691  27.454  19.666   4.244
22484W        W86692  10.216  34.436  10.123
22485W        W86693  31.495  27.185   3.271
22486W        W86694   6.285  43.998  13.927
22487W        W86695  36.037  24.493  13.876
22488W        W86696   6.854  37.874   2.817
22489W        W86697  43.952  22.636   3.673
22490W        W86698  44.269  40.039   3.818
22491W        W86699  21.100  10.308  10.488
22492W        W86700  27.543  20.273  11.074
22493W        W86701  35.019  35.521   0.314
22494W        W86702  29.433  42.896   3.710
22495W        W86703   8.740  22.593  12.880
22496W        W86704  42.799  44.372   4.809
22497W        W86705  24.091   8.364   0.476
22498W        W86706  11.751  22.625   0.827
22499W        W86707  32.025  25.981  11.027
22500W        W86708  25.027  39.065  11.462
22501W        W86709   2.431  42.484   2.811
22502W        W86710  10.263  32.029  12.429
22503W        W86711  36.953  22.179   0.292
22504W        W86712  30.462  18.072   4.326
22505W        W86713   7.187  19.105  13.442
22506W        W86714  31.152  12.128  14.993
22507W        W86715  25.706  10.759   3.225
22508W        W86716   2.760   6.767  13.334
22509W        W86717  29.470  24.204  11.983
22510W        W86718  29.598  23.734   9.942
22511W        W86719   0.913   1.785   4.172
22512W        W86720  38.873  41.516  14.304
22513W        W86721  30.105  35.051  13.468
22514W        W86722  24.178  39.496   3.247
22515W        W86723  27.634  24.695  10.465
22516W        W86724  16.667  41.429  11.577
22517W        W86725  17.120   6.743  11.553
22518W        W86726  15.587  33.941   1.817
22519W        W86727  25.479  31.547   4.122
22520W        W86728   6.307  17.158  12.952
22521W        W86729  30.085  29.558   2.407
22522W        W86730  14.225   9.162   1.385
22523W        W86731   3.451  20.724   2.382
22524W        W86732  21.032  25.531  12.484
22525W        W86733  15.735  38.886  10.134
22526W        W86734  42.932   5.795  11.946
22527W        W86735  19.662   8.231   2.668
22528W        W86736  13.708  11.676  11.578
22529W        W86737  23.214   0.313  12.966
22530W        W86738  16.119   9.234   1.828
22531W        W86739  17.726  40.826   2.802
22532W        W86740  30.479  11.750   1.709
22533W        W86741  29.952  14.762   2.678
22534W        W86742  25.630  19.597  12.917
22535W        W86743  31.632   6.277   0.898
22536W        W86744  20.067  17.181  12.405
22537W        W86745  40.531  44.398  13.374
22538W        W86746  16.155  23.090  11.920
22539W        W86747  25.147  16.626  14.969
22540W        W86748  44.975  14.714   1.373
22541W        W86749  44.357   8.336   2.201
22542W        W86750  42.512  20.548   0.797
22543W        W86751   5.884  34.564  11.091
22544W        W86752   1.449  21.743   2.771
22545W        W86753   0.456  33.574   3.232
22546W        W86754  39.444  42.826   0.737
22547W        W86755  37.513  29.040  13.416
22548W        W86756  34.430  39.924   0.776
22549W        W86757   3.430  11.796  11.569
22550W        W86758  16.631  24.092  12.863
22551W        W86759   8.863  11.802   4.818
22552W        W86760  20.563  17.582   2.711
22553W        W86761  14.236  39.355  10.611
22554W        W86762  14.216  37.077   1.316
22555W        W86763  31.596   3.385   1.821
22556W        W86764   8.299  14.751  14.971
22557W        W86765   7.705   5.769  11.957
22558W        W86766   7.211  39.555  10.464
22559W        W86767  33.103  20.150  12.942
22560W        W86768  30.442   9.393   4.708
22561W        W86769  14.695  19.774  12.393
22562W        W86770  38.900  27.467   3.317
22563W        W86771   4.927   1.447   2.800
22564W        W86772  39.844  23.098  14.459
22565W        W86773  16.122  27.652  13.912
22566W        W86774  20.703  39.889  14.885
22567W        W86775  39.877  44.435  14.773
22568W        W86776  22.655  11.867   3.176
22569W        W86777  20.680   2.389  11.956
22570W        W86778  43.827  19.091   0.741
22571W        W86779  31.957   6.183   1.369
22572W        W86780   3.891  41.882   1.380
22573W        W86781  31.915  32.401   4.338
22574W        W86782  31.516  22.009   4.652
22575W        W86783  27.520  35.888   0.405
22576W        W86784  39.314  43.967   1.825
22577W        W86785  14.626   1.873   3.238
22578W        W86786  32.051  31.039   0.848
22579W        W86787  39.491  29.623   1.871
22580W        W86788  30.082  17.606   4.279
22581W        W86789  43.502  44.840  12.924
22582W        W86790  42.436  24.480   2.401
22583W        W86791  33.504  38.903   1.263
22584W        W86792  30.908  12.806  13.548
22585W        W86793  30.068  18.748   2.778
22586W        W86794  37.029  17.774  10.963
22587W        W86795  23.729  11.299  10.907
22588W        W86796  41.801  39.043  10.449
22589W        W86797  10.355  34.569  11.067
22590W        W86798  31.516  26.055   3.763
22591W        W86799   7.908  34.607   1.771
22592W        W86800  29.514  16.294   0.254
22593W        W86801  29.022   1.766   1.934
22594W        W86802  27.011  44.784   4.653
22595W        W86803  14.142  42.469  14.507
22596W        W86804  12.823  31.152  11.922
22597W        W86805  31.078   3.301   9.931
22598W        W86806  40.900  22.619   3.271
22599W        W86807  16.708  35.469  14.808
22600W        W86808  15.300  35.107  13.957
22601W        W86809  17.657  36.404  14.817
22602W        W86810  43.778  13.808  12.870
22603W        W86811   3.918  33.567  11.398
22604W        W86812  20.034  39.850   1.912
22605W        W86813   5.195  18.591  13.546
22606W        W86814  36.360   0.402  10.515
22607W        W86815  28.470  28.481   4.605
22608W        W86816  41.295  44.871  10.589
22609W        W86817   8.321  32.566  13.905
22610W        W86818  18.162   4.844  12.487
22611W        W86819   0.279  16.597   1.819
22612W        W86820   9.713  20.101   3.661
22613W        W86821   4.872  19.182   3.655
22614W        W86822  42.900   4.296  14.429
22615W        W86823  27.546  43.419  10.618
22616W        W86824  37.557  31.920  10.962
22617W        W86825  38.063  39.397  13.324
22618W        W86826  37.949  26.023   2.315
22619W        W86827  29.110  37.542   4.306
22620W        W86828  11.712   2.753   3.644
22621W        W86829  18.135  21.605  13.431
22622W        W86830   2.935  33.611   2.734
22623W        W86831  35.358  11.769  10.491
22624W        W86832  41.853  18.103   3.633
22625W        W86833  24.039  21.676  14.366
22626W        W86834   4.773   8.760   5.152
22627W        W86835  43.369  43.988   2.708
22628W        W86836   8.345  29.427  11.997
22629W        W86837  39.367   6.704  10.521
22630W        W86838  40.852  39.487  11.934
22631W        W86839  16.217  33.622  10.419
22632W        W86840  15.116  17.157   1.321
22633W        W86841  20.087   6.862  10.617
22634W        W86842   7.305  12.255  13.537
22635W        W86843  18.687  18.062  14.993
22636W        W86844  12.340  40.526  14.904
22637W        W86845  35.914   2.299   0.789
22638W        W86846  35.516  18.265  13.528
22639W        W86847  38.461  29.638   0.963
22640W        W86848  20.654  16.213  10.112
22641W        W86849  23.520   4.424   1.333
22642W        W86850  18.766  22.537   1.735
22643W        W86851  30.592  16.261  14.775
22644W        W86852   3.395   2.944  14.394
22645W        W86853  41.404  22.251  12.496
22646W        W86854  36.001   3.433  13.352
22647W        W86855  24.118  28.679  11.983
22648W        W86856  37.424  44.781  14.779
22649W        W86857   6.428  41.494   0.376
22650W        W86858  11.772  28.553   1.878
22651W        W86859   9.298  18.554  10.547
22652W        W86860  36.398   9.846  12.481
22653W        W86861  25.042   1.868   2.384
22654W        W86862  11.843  36.411   1.235
22655W        W86863  35.044  21.233  13.879
22656W        W86864  31.998  35.106  13.528
22657W        W86865  37.002   3.818   0.893
22658W        W86866  38.909  23.199  11.027
22659W        W86867  32.512  14.701  13.537
22660W        W86868  32.518  24.043  11.391
22661W        W86869   6.428  25.569   1.383
22662W        W86870  32.444  37.431  14.012
22663W        W86871  26.193  22.713   2.257
22664W        W86872  14.154  33.049  13.859
22665W        W86873  25.654  13.166   0.376
22666W        W86874  40.516  23.534   1.293
22667W        W86875  14.221  40.929  14.804
22668W        W86876  19.273   3.230  14.497
22669W        W86877  28.122  39.520  14.943
22670W        W86878   0.868  43.490  14.838
22671W        W86879  30.506  30.977   3.269
22672W        W86880  34.390  14.203   0.897
22673W        W86881  38.569   9.719   2.317
22674W        W86882  17.714  13.768  12.361
22675W        W86883  29.425  39.057   1.356
22676W        W86884   8.872  32.029   0.935
22677W        W86885   9.199  27.448   1.735
22678W        W86886  16.274  29.117   0.746
22679W        W86887  22.726  42.839   0.311
22680W        W86888   7.746   0.986  12.878
22681W        W86889   1.351  43.413  13.850
22682W        W86890  40.428  28.022   2.885
22683W        W86891  30.045   5.803  14.956
22684W        W86892   4.333  25.151   4.608
22685W        W86893   0.359  10.276  11.464
22686W        W86894   2.227  20.754   4.352
22687W        W86895  18.229  12.709   2.259
22688W        W86896  23.085  34.423   3.146
22689W        W86897   7.273  39.834   4.726
22690W        W86898   1.433  36.926   2.396
22691W        W86899  29.056  25.713   0.798
22692W        W86900  13.617  33.408   4.244
22693W        W86901  27.677   0.463  14.833
22694W        W86902   5.290  18.123   4.187
22695W        W86903  28.656   1.768   0.371
22696W        W86904  28.099  24.159   0.355
22697W        W86905  25.513  25.128   3.287
22698W        W86906  22.027  13.122   3.801
22699W        W86907   9.693  25.552  14.359
22700W        W86908  37.557  12.150   2.737
22701W        W86909  26.484  20.194   4.300
22702W        W86910  15.214  31.606  11.937
22703W        W86911   5.313  27.668   1.932
22704W        W86912  16.757  40.379  13.479
22705W        W86913  33.935  28.670  12.487
22706W        W86914  23.676   7.314  11.868
22707W        W86915   4.849  40.439   4.147
22708W        W86916  25.118  31.995   4.315
22709W        W86917  21.255  33.897   2.249
22710W        W86918   2.370   9.770   0.282
22711W        W86919  42.507  38.003   3.764
22712W        W86920  30.564  38.963  13.369
22713W        W86921  15.286  10.827   3.222
22714W        W86922  22.519  17.252   0.291
22715W        W86923   2.290  42.895   4.285
22716W        W86924  10.296  12.340  12.493
22717W        W86925  35.398  31.119   0.350
22718W        W86926  25.976  30.164  14.421
22719W        W86927  11.742  36.379  12.078
22720W        W86928  23.013  20.187   1.319
22721W        W86929  40.807  20.696   1.285
22722W        W86930   1.969  37.360   2.241
22723W        W86931   1.811  33.897  14.800
22724W        W86932  20.257   9.709   2.274
22725W        W86933   6.335  18.172  12.095
22726W        W86934  16.222   9.858  12.932
22727W        W86935  23.643  41.314   3.165
22728W        W86936  40.494  27.684  13.515
22729W        W86937  38.516  15.131   2.900
22730W        W86938  27.121  29.016   4.271
22731W        W86939  16.588  31.615   2.672
22732W        W86940  34.391  11.800  11.605
22733W        W86941  24.169   8.181   0.808
22734W        W86942  38.922  34.940  14.797
22735W        W86943  39.002   7.701   3.331
22736W        W86944  28.086  10.804  11.592
22737W        W86945  39.049   6.245   2.294
22738W        W86946  31.560   4.801   2.336
22739W        W86947  33.876  21.710  14.395
22740W        W86948  42.804   2.812   4.229
22741W        W86949  20.663  14.653  10.593
22742W        W86950  44.826  27.450  11.884
22743W        W86951  29.162   0.444  10.635
22744W        W86952   9.348  17.600   0.402
22745W        W86953  19.112  20.177   0.414
22746W        W86954  10.350   8.249  14.887
22747W        W86955  35.588  36.512  13.986
22748W        W86956  44.985   5.404   0.939
22749W        W86957  34.894  33.906  13.017
22750W        W86958  36.572  28.506  12.380
22751W        W86959  30.964  10.243   1.330
22752W        W86960  28.476  13.199   0.299
22753W        W86961  17.712  34.408  14.941
22754W        W86962   9.158  23.178   1.776
22755W        W86963  27.132  23.730   2.868
22756W        W86964  24.639   8.805   4.700
22757W        W86965  32.500  39.491  14.302
22758W        W86966  12.338  10.344   0.881
22759W        W86967  19.748  30.054   2.243
22760W        W86968   8.244  42.953  10.511
22761W        W86969  24.697  14.641  14.406
22762W        W86970  37.869   7.309  11.980
22763W        W86971  19.554  19.201  13.404
22764W        W86972  41.982  10.234  10.618
22765W        W86973  26.077  35.051  10.917
22766W        W86974  14.699  27.446   4.685
22767W        W86975   0.323  34.404   1.881
22768W        W86976   7.326  26.121  11.421
22769W        W86977  19.542  18.672  12.852
22770W        W86978   0.329   6.317   1.813
22771W        W86979   9.688  17.752   1.902
22772W        W86980  27.945  39.426  10.531
22773W        W86981  11.765  37.573  11.574
22774W        W86982  28.939  16.288   5.202
22775W        W86983  22.620  12.631   1.443
22776W        W86984  41.884  33.987  14.904
22777W        W86985  36.927  34.866  14.959
22778W        W86986  29.008  32.478  10.925
22779W        W86987  22.510  12.219  11.915
22780W        W86988  39.026  17.211   4.793
22781W        W86989  22.216   2.440   4.234
22782W        W86990  21.025   8.269  10.464
22783W        W86991  30.161  37.478  13.898
22784W        W86992  24.587  43.424  11.412
22785W        W86993   2.312   8.286  13.393
22786W        W86994  27.512  27.535   1.407
22787W        W86995  13.154  43.788   2.330
22788W        W86996  16.254  13.662  13.991
22789W        W86997  38.390  41.360   2.891
22790W        W86998   2.293  14.787  10.636
22791W        W86999  14.731   6.722  10.532
22792W        W87000  42.021  30.640   0.788
22793W        W87001  42.962  32.957   1.258
22794W        W87002  28.987  31.590   1.344
22795W        W87003   0.254  11.205   0.255
22796W        W87004  14.812   4.721  12.996
22797W        W87005   1.416  29.924  11.516
22798W        W87006  21.136  40.875  13.961
22799W        W87007  30.502  27.110  11.982
22800W        W87008  20.171  18.072  11.377
22801W        W87009   9.306  38.559  12.502
22802W        W87010  32.090  42.980  13.548
22803W        W87011  16.148  15.721   4.815
22804W        W87012  17.293   9.794  14.446
22805W        W87013  34.076  16.650  12.496
22806W        W87014   3.927  26.043   2.736
22807W        W87015  19.546  21.517   0.885
22808W        W87016  34.093  35.871  10.915
22809W        W87017   5.722  44.498   3.751
22810W        W87018  40.304   1.829   1.723
22811W        W87019  30.086  16.772  12.884
22812W        W87020  29.485   4.244  13.991
22813W        W87021  10.298  33.604   3.386
22814W        W87022   5.872  17.204  13.001
22815W        W87023  43.829   5.309  11.997
22816W        W87024  37.399  14.805  10.913
22817W        W87025  34.418  34.424  13.952
22818W        W87026  41.002  26.688   5.199
22819W        W87027  33.975  33.933   2.400
22820W        W87028  36.057  22.529  10.897
22821W        W87029   3.389  33.404   1.843
22822W        W87030   9.228  12.317  11.094
22823W        W87031  14.247   7.673  13.911
22824W        W87032  16.120  13.234  12.076
22825W        W87033  33.038  20.142  11.072
22826W        W87034   3.397  41.373  11.586
22827W        W87035   9.846  44.782  10.471
22828W        W87036  17.609  34.902   3.837
22829W        W87037   4.424  44.947  10.941
22830W        W87038  35.451  18.560  10.534
22831W        W87039  40.511   0.876  11.062
22832W        W87040  34.432  34.102  12.430
22833W        W87041  20.061  10.304  14.339
22834W        W87042   3.881  15.152  10.987
22835W        W87043  12.761   0.983  13.064
22836W        W87044  34.505  43.292   2.731
22837W        W87045  37.081  11.714  11.007
22838W        W87046  17.597  35.902  12.339
22839W        W87047  15.223  34.508  12.474
22840W        W87048   6.340  34.062  11.949
22841W        W87049  29.978  10.788  10.932
22842W        W87050  23.593   7.241  13.870
22843W        W87051  27.683  34.582  11.870
22844W        W87052  27.622  25.665   1.761
22845W        W87053  21.174  16.304   9.980
22846W        W87054  36.951   8.799   0.277
22847W        W87055   1.858  22.012   3.371
22848W        W87056  31.898  15.808   3.719
22849W        W87057  26.469  36.064   3.308
22850W        W87058  15.110  21.154   3.709
22851W        W87059  16.294  14.110  14.398
22852W        W87060  44.272   6.755   4.133
22853W        W87061  35.429   4.864   0.822
22854W        W87062  41.347  24.127   4.195
22855W        W87063  10.810   9.696   2.898
22856W        W87064  23.720  39.434   0.726
22857W        W87065  31.426   9.849  12.474
22858W        W87066  31.973   4.914  10.965
22859W        W87067  24.026  14.612   3.348
22860W        W87068  39.998  40.355  11.928
22861W        W87069  44.960  12.123  11.031
22862W        W87070  35.048  16.265  10.564
22863W        W87071  15.122  18.262   2.714
22864W        W87072  36.859   5.806   4.681
22865W        W87073  14.126  12.322  13.426
22866W        W87074   3.275   0.761   4.171
22867W        W87075   3.345  39.463  11.545
22868W        W87076  28.623   3.828  12.517
22869W        W87077  41.333  12.768   1.257
22870W        W87078  27.682  39.025   2.695
22871W        W87079  13.750  41.451  12.995
22872W        W87080  37.004  31.971   1.301
22873W        W87081  34.033  15.588  11.507
22874W        W87082  34.405   1.457   4.769
22875W        W87083  42.785  43.290  14.949
22876W        W87084  17.706  42.920   0.365
22877W        W87085  11.625  32.486   2.212
22878W        W87086  21.136  39.960  12.443
22879W        W87087  21.664  40.365  11.126
22880W        W87088  42.813  34.481  12.852
22881W        W87089  21.220  12.315   1.212
22882W        W87090  28.940  38.939  11.090
22883W        W87091  24.530   5.905  14.028
22884W        W87092  27.648  40.953  13.825
22885W        W87093  22.635   1.803  14.874
22886W        W87094  41.318  44.344  13.338
22887W        W87095  11.795  29.057   4.751
22888W        W87096  27.655  21.527   1.332
22889W        W87097  20.245  34.424  11.546
22890W        W87098  24.538  41.467   1.291
22891W        W87099  28.450  36.861   0.881
22892W        W87100  20.086  42.402  11.055
22893W        W87101  20.063   1.458  11.954
22894W        W87102   3.729  37.360   2.361
22895W        W87103  31.558  39.388   1.348
22896W        W87104  24.975  26.657   0.814
22897W        W87105  36.415   1.354  13.048
22898W        W87106  25.693   0.460   1.438
22899W        W87107  13.323  15.824  11.965
22900W        W87108  19.062  27.532  14.790
22901W        W87109  33.543   5.363   1.779
22902W        W87110  14.294  21.556   2.774
22903W        W87111   2.358  12.637   1.384
22904W        W87112  26.460  41.473   2.897
22905W        W87113   6.893   3.364  14.780
22906W        W87114  29.039  11.716  11.418
22907W        W87115   6.718   4.442  10.602
22908W        W87116  12.228  42.417  11.101
22909W        W87117  42.441  40.453  14.382
22910W        W87118  16.128  44.398  11.882
22911W        W87119   8.354  18.101   2.305
22912W        W87120   1.895  44.826   2.747
22913W        W87121  17.064   5.826  14.897
22914W        W87122  17.738  32.970   2.272
22915W        W87123  39.498  39.416   3.384
22916W        W87124  43.019  36.529  10.035
22917W        W87125  36.855  18.249  13.312
22918W        W87126  29.922  22.647  14.953
22919W        W87127  28.490   3.719   1.389
22920W        W87128   1.399  44.790  14.360
22921W        W87129  44.305  24.490   4.217
22922W        W87130  19.749  15.695   3.155
22923W        W87131  27.149  29.615   3.157
22924W        W87132  37.423  32.606  14.281
22925W        W87133  19.226  24.140  10.970
22926W        W87134  12.657  21.693   2.234
22927W        W87135  17.594   4.704   0.778
22928W        W87136  44.462  43.791  13.507
22929W        W87137  13.147  17.212   1.335
22930W        W87138  14.170  31.429  13.314
22931W        W87139  23.576  11.781   0.430
22932W        W87140   4.774  23.023  13.483
22933W        W87141  20.636   8.251  11.415
22934W        W87142  38.972  12.176   4.248
22935W        W87143  18.275  16.605  10.500
22936W        W87144  32.522   1.394   4.681
22937W        W87145  15.124  18.054  11.533
22938W        W87146  33.973   6.786  10.922
22939W        W87147  29.947  40.819   1.418
22940W        W87148  14.684  14.254   4.259
22941W        W87149  28.651  44.310   4.667
22942W        W87150  29.438   6.922   4.217
22943W        W87151  19.631  41.483  13.995
22944W        W87152  22.085  29.571   1.926
22945W        W87153  36.464  12.306   0.747
22946W        W87154   9.741   2.234   4.293
22947W        W87155  34.945  37.849   0.768
22948W        W87156   8.778  21.248  13.345
22949W        W87157  13.774  43.276   1.740
22950W        W87158  22.512  10.359  12.446
22951W        W87159   2.321  38.397  13.891
22952W        W87160  21.186  15.174   2.707
22953W        W87161  36.499  35.464  13.888
22954W        W87162   1.811  23.531  12.468
22955W        W87163  25.170   0.291  13.521
22956W        W87164  34.978  29.948   3.208
22957W        W87165  12.759   3.742   2.719
22958W        W87166   6.919   7.708  11.593
22959W        W87167  38.934  40.478  10.643
22960W        W87168   0.752  44.347   4.175
22961W        W87169  27.040  31.114   4.132
22962W        W87170  30.980  14.671  12.482
22963W        W87171  38.828  33.542  11.061
22964W        W87172  25.964  19.580  14.429
22965W        W87173   8.182  11.306   0.391
22966W        W87174  30.011   9.733   3.633
22967W        W87175  32.121   7.715   4.672
22968W        W87176  40.832  22.132  12.863
22969W        W87177  17.158  31.994   5.221
22970W        W87178  27.033  18.190   3.769
22971W        W87179  37.932  22.098  10.982
22972W        W87180  31.917  27.675   2.253
22973W        W87181  30.950  36.040   1.733
22974W        W87182   4.400  26.144   1.318
22975W        W87183  34.875   2.369   4.118
22976W        W87184  40.972  19.672  13.798
22977W        W87185  12.708  20.764  14.424
22978W        W87186  25.110  32.494  14.298
22979W        W87187  32.633   4.887   4.204
22980W        W87188  43.803  17.265  11.111
22981W        W87189  31.120  14.700   1.368
22982W        W87190  43.925  41.931   1.718
22983W        W87191  35.032   1.760   4.826
22984W        W87192  27.497  42.345   2.766
22985W        W87193  34.415  34.107  12.976
22986W        W87194  22.726  32.585   2.409
22987W        W87195  31.603  42.925   3.265
22988W        W87196  21.158   0.920   3.835
22989W        W87197  39.939  28.010  14.984
22990W        W87198   2.305  25.035  12.545
22991W        W87199   4.359  25.146   2.892
22992W        W87200  16.710   0.310   4.827
22993W        W87201  16.192   5.708  11.109
22994W        W87202  18.681  19.223   1.397
22995W        W87203  25.631  21.061   3.217
22996W        W87204  23.689   1.442   0.731
22997W        W87205  40.009  11.309  12.828
22998W        W87206  39.423  30.615   5.099
22999W        W87207   0.400  39.524  14.328
23000W        W87208  21.029   4.378   3.779
23001W        W87209   8.378  16.752   1.904
23002W        W87210  12.144  20.694   1.371
23003W        W87211  15.238  34.042   4.270
23004W        W87212  28.484  19.284  13.332
23005W        W87213  25.578  15.613   4.780
23006W        W87214   1.965  39.363  11.412
23007W        W87215  43.768  28.631  13.790
23008W        W87216  43.979  22.073   2.760
23009W        W87217  26.556  31.150   2.304
23010W        W87218   7.373  40.390   0.879
23011W        W87219  42.993  21.681  12.992
23012W        W87220  21.263  43.881   1.863
23013W        W87221  41.316   9.242  12.021
23014W        W87222  32.906  28.503   1.744
23015W        W87223  23.714   0.882   0.430
23016W        W87224  33.958  33.121  13.926
23017W        W87225  33.996  32.395  10.584
23018W        W87226  39.982  34.054   2.247
23019W        W87227  20.630  14.247  14.402
23020W        W87228  30.442  25.535   3.770
23021W        W87229  19.712  34.384  10.974
23022W        W87230  43.444  11.855  11.907
23023W        W87231  11.129   8.395  14.764
23024W        W87232  30.654  36.534  10.458
23025W        W87233  26.466  15.580  14.875
23026W        W87234  19.081  38.854   5.271
23027W        W87235  42.311  23.143   4.806
23028W        W87236  36.850   7.781  12.449
23029W        W87237  11.745  18.719  11.127
23030W        W87238  42.010  30.912   3.185
23031W        W87239  29.078  15.084  14.823
23032W        W87240   8.191   1.803   0.255
23033W        W87241  35.451  17.655   2.415
23034W        W87242  17.246  11.166  13.803
23035W        W87243  23.678   9.355  13.852
23036W        W87244  25.469  29.601   1.776
23037W        W87245   7.796  43.290  14.385
23038W        W87246  24.551  15.667  11.866
23039W        W87247   1.913   4.873   1.838
23040W        W87248  36.550  42.311   0.875
23041W        W87249   0.279  28.492  11.974
23042W        W87250  18.769   1.336   1.318
23043W        W87251  30.959  29.150   4.120
23044W        W87252  32.593   2.465   4.695
23045W        W87253  44.950  35.530   3.682
23046W        W87254  42.902  19.141   3.194
23047W        W87255  35.042  22.182  12.088
23048W        W87256   4.249  24.549  14.822
23049W        W87257  37.540  35.034  13.491
23050W        W87258  40.862  29.976   0.863
23051W        W87259  16.587  29.515  13.504
23052W        W87260  27.027  27.132  12.877
23053W        W87261  22.199  15.311  12.478
23054W        W87262  44.427   9.650   3.687
23055W        W87263   0.268  24.657  13.803
23056W        W87264   3.760  36.867  14.863
23057W        W87265  32.961  19.086   3.271
23058W        W87266  15.693  18.281  11.478
23059W        W87267  43.464   3.897   3.190
23060W        W87268   3.916   8.888  14.421
23061W        W87269  20.091   7.375   2.773
23062W        W87270   6.704  25.662   1.928
23063W        W87271  26.011  28.443  10.621
23064W        W87272  25.614  34.060  11.910
23065W        W87273  10.877  15.165  10.066
23066W        W87274  36.427   2.788   1.370
23067W        W87275  16.782  15.631  14.804
23068W        W87276  23.152  44.877   2.200
23069W        W87277  12.186  33.949  11.372
23070W        W87278  10.315  38.564   0.353
23071W        W87279  32.438  12.758   4.805
23072W        W87280  26.605  18.217  14.947
23073W        W87281  18.593  39.032   1.892
23074W        W87282   7.877   8.370  10.492
23075W        W87283  24.589   9.163   4.703
23076W        W87284  27.584  29.986  10.939
23077W        W87285  27.584   3.293   1.873
23078W        W87286  22.042  27.543  10.506
23079W        W87287   1.324  26.003  10.534
23080W        W87288  14.236  35.975  11.006
23081W        W87289  38.878  38.460  12.391
23082W        W87290  26.650  37.909   1.353
23083W        W87291  42.887  41.024  12.464
23084W        W87292  31.996  31.594  13.503
23085W        W87293  25.558  41.391   1.872
23086W        W87294   9.302  15.794   5.312
23087W        W87295  16.607  24.550   3.289
23088W        W87296  40.854  20.224  12.351
23089W        W87297  24.482  40.826  12.443
23090W        W87298  40.465   4.403  14.901
23091W        W87299   9.889   6.766   0.393
23092W        W87300  28.678   4.223   4.296
23093W        W87301  28.116  30.468   5.320
23094W        W87302  33.568  26.004  11.879
23095W        W87303  32.064  28.662  14.971
23096W        W87304  30.594  14.172   2.855
23097W        W87305  15.688   1.259   3.272
23098W        W87306  36.449  26.972   3.368
23099W        W87307  35.045   0.403  12.350
23100W        W87308  15.780  14.624   1.909
23101W        W87309  21.114  22.680   0.829
23102W        W87310  41.378   3.455   2.211
23103W        W87311  11.160   6.332   0.858
23104W        W87312   3.888  21.207   1.903
23105W        W87313  25.553  13.688   0.474
23106W        W87314  18.767   8.852  12.011
23107W        W87315  42.387  10.316  14.280
23108W        W87316  19.226  26.033   1.919
23109W        W87317   8.726  35.077  11.549
23110W        W87318  14.826  42.844   1.742
23111W        W87319  34.884  33.098  13.310
23112W        W87320  25.098  19.207   2.734
23113W        W87321  18.568  40.490   4.790
23114W        W87322   4.837  28.116   3.801
23115W        W87323  13.780   8.800   0.282
23116W        W87324   3.368  27.081   3.157
23117W        W87325  29.952  43.901  10.428
23118W        W87326  13.843  13.644   1.815
23119W        W87327  41.812  44.945  13.840
23120W        W87328  29.102   5.359   1.913
23121W        W87329  27.115   5.256  14.977
23122W        W87330   9.395  43.347   1.440
23123W        W87331   5.207   1.448   1.410
23124W        W87332  15.810  31.504  10.479
23125W        W87333  26.500   8.757   3.243
23126W        W87334  27.684  21.633  11.582
23127W        W87335  17.796   0.954  11.484
23128W        W87336   0.752  35.030  11.880
23129W        W87337   5.801  44.972   3.828
23130W        W87338  20.063   3.374  12.521
23131W        W87339   7.677  38.420  14.425
23132W        W87340  36.927  44.367  12.063
23133W        W87341  37.853  36.855  14.889
23134W        W87342   6.384  29.563  10.530
23135W        W87343  17.101  15.709  12.449
23136W        W87344  40.515  19.605  10.966
23137W        W87345  37.996  25.665   1.282
23138W        W87346  44.828   2.726   0.769
23139W        W87347  31.036  21.622  13.379
23140W        W87348  15.168  13.305   1.913
23141W        W87349  24.110   9.788   1.750
23142W        W87350   8.832   9.665  10.906
23143W        W87351   4.426   9.775   0.904
23144W        W87352  21.683  11.240   4.273
23145W        W87353   6.851  23.703   2.313
23146W        W87354  19.650   2.754   3.815
23147W        W87355  14.134  23.620  11.861
23148W        W87356  22.703  18.566  14.943
23149W        W87357  11.717   6.801  14.319
23150W        W87358  22.080  17.186   0.944
23151W        W87359   0.898  21.541  14.285
23152W        W87360  25.121  26.119  13.926
23153W        W87361  36.899  37.022   0.278
23154W        W87362  30.521  36.922  11.951
23155W        W87363   6.776  25.119   1.443
23156W        W87364  36.986  26.526   2.307
23157W        W87365  30.445   0.938   4.768
23158W        W87366  37.047   2.433   4.815
23159W        W87367  14.707  19.255  14.030
23160W        W87368  40.403  39.556  12.366
23161W        W87369  37.959  34.056  12.421
23162W        W87370   7.759  33.583   9.982
23163W        W87371  23.577  15.663  12.367
23164W        W87372   1.292  44.499   0.848
23165W        W87373  27.578  41.381  14.434
23166W        W87374   3.381   9.247  14.854
23167W        W87375  30.527  38.485  14.902
23168W        W87376  18.741  30.501   2.796
23169W        W87377  42.901  29.578  12.433
23170W        W87378  34.876  28.088   1.336
23171W        W87379  27.504  22.131  12.891
23172W        W87380   5.265  27.588  13.870
23173W        W87381  15.647  21.240   3.764
23174W        W87382  29.107  15.215   4.296
23175W        W87383  28.620  10.338  10.936
23176W        W87384  43.822   0.811  12.078
23177W        W87385  32.626  36.858   1.815
23178W        W87386  12.794  21.639   1.774
23179W        W87387  38.921  44.803  11.055
23180W        W87388  26.204  23.209  14.335
23181W        W87389  34.913  38.894   3.766
23182W        W87390  14.817  22.007  10.521
23183W        W87391   3.762  37.544  12.552
23184W        W87392   5.878  15.137  10.919
23185W        W87393  41.385   8.880   0.291
23186W        W87394  19.740  32.016   5.289
23187W        W87395   6.331  14.690   4.670
23188W        W87396  31.421  12.669  14.506
23189W        W87397  17.095  10.182  11.906
23190W        W87398  33.590   5.216   0.736
23191W        W87399  13.786  23.516  12.349
23192W        W87400  12.832  11.759   3.730
23193W        W87401  21.555  38.076   0.800
23194W        W87402  15.635  20.623   1.746
23195W        W87403  19.692  26.502  13.441
23196W        W87404  20.648  23.015  10.631
23197W        W87405  41.857  14.239   1.332
23198W        W87406  27.947   9.297   3.168
23199W        W87407  28.463   9.206  13.443
23200W        W87408  29.080  13.106  14.996
23201W        W87409   3.838  34.443  14.879
23202W        W87410  14.802  32.888   4.732
23203W        W87411   9.720  44.984   4.207
23204W        W87412  29.503  22.601  14.864
23205W        W87413  18.676  34.870   3.332
23206W        W87414  14.280  35.927  10.439
23207W        W87415  21.197  31.090  13.902
23208W        W87416   7.274   4.807  11.973
23209W        W87417   5.288   6.301   2.191
23210W        W87418  20.586  19.195  12.357
23211W        W87419  28.534  18.776  13.402
23212W        W87420   6.285   2.870   3.838
23213W        W87421  20.715  11.215  12.906
23214W        W87422  38.554  11.149  10.574
23215W        W87423  12.696  13.776   9.583
23216W        W87424  15.293  24.675  11.077
23217W        W87425  38.992  40.018   1.218
23218W        W87426  31.618  17.277   0.961
23219W        W87427  28.604  44.995   4.157
23220W        W87428  41.318  23.633   1.391
23221W        W87429  20.643  28.673  11.917
23222W        W87430   1.742  44.337   0.295
23223W        W87431   5.286  26.485   2.726
23224W        W87432  33.913   4.929   2.263
23225W        W87433   3.350  21.183   2.707
23226W        W87434   1.972  18.766  10.941
23227W        W87435  36.593   9.796   0.293
23228W        W87436  40.964   1.264  12.908
23229W        W87437  43.463  26.063  13.989
23230W        W87438  17.766   8.816  10.958
23231W        W87439  30.918  34.057   0.481
23232W        W87440  38.502   9.868   3.249
23233W        W87441  34.611  12.659   3.222
23234W        W87442  40.038   7.897  11.078
23235W        W87443  39.399  30.997   3.317
23236W        W87444  33.527  12.316  12.862
23237W        W87445  12.623  41.802  11.526
23238W        W87446  14.116  13.143   1.717
23239W        W87447  27.472   3.406  12.028
23240W        W87448  24.484   6.411  14.486
23241W        W87449  27.569  11.249   2.831
23242W        W87450  29.078  34.502  10.428
23243W        W87451  19.162   5.767  12.080
23244W        W87452   7.314  30.070   1.294
23245W        W87453  25.526  39.886  14.002
23246W        W87454   1.901  28.048   4.154
23247W        W87455  17.139  18.738   4.351
23248W        W87456   2.291  19.039  10.924
23249W        W87457  24.067  43.823   4.814
23250W        W87458  30.950  29.635   2.386
23251W        W87459  23.523   0.770  13.427
23252W        W87460  32.532   5.341  12.543
23253W        W87461  20.204  11.236   3.190
23254W        W87462   7.295  33.076   1.769
23255W        W87463  15.152   4.869   4.297
23256W        W87464  43.404   1.942  13.324
23257W        W87465  32.003  22.155   3.728
23258W        W87466  21.244  41.949  13.929
23259W        W87467   1.376  11.346  12.047
23260W        W87468  15.161   5.272  12.880
23261W        W87469  30.926   1.445   4.135
23262W        W87470  25.072  13.705   2.238
23263W        W87471  12.163   3.250   3.286
23264W        W87472   9.867  40.338   1.921
23265W        W87473  30.530  13.149   1.842
23266W        W87474  34.453   5.352  14.398
23267W        W87475  10.167   1.482   4.814
23268W        W87476  10.670   1.409  11.962
23269W        W87477  22.704  25.571   4.123
23270W        W87478  41.982  27.473  11.864
23271W        W87479  18.651   8.795   4.777
23272W        W87480  18.588  21.051  10.569
23273W        W87481  24.559  28.149   4.203
23274W        W87482  22.107  19.619   4.792
23275W        W87483  29.554  34.866   5.110
23276W        W87484  41.786  37.069  11.928
23277W        W87485   2.793  38.909  12.408
23278W        W87486  36.553  40.971   2.413
23279W        W87487   4.433   0.918  11.409
23280W        W87488  32.925  30.556   1.916
23281W        W87489   3.430  30.600   0.855
23282W        W87490  28.176   6.724   2.190
23283W        W87491  19.640  44.768   0.274
23284W        W87492   2.891   4.244   2.828
23285W        W87493   2.805  36.064   3.721
23286W        W87494  35.024  13.288  12.445
23287W        W87495  32.593  19.149  13.058
23288W        W87496   8.303  27.552  11.537
23289W        W87497  29.086  14.099  14.028
23290W        W87498  44.311  17.764  12.058
23291W        W87499  24.520   3.937   4.353
23292W        W87500  21.556  10.183   1.238
23293W        W87501  42.859  15.713  12.574
23294W        W87502  11.214   3.382   1.734
23295W        W87503  26.118  33.590  13.439
23296W        W87504  13.149  12.822  13.432
23297W        W87505  39.889  23.553  12.857
23298W        W87506   9.281   1.385  14.934
23299W        W87507   1.413  17.127  10.898
23300W        W87508  13.845  31.426   1.897
23301W        W87509  44.831  14.738  10.624
23302W        W87510  33.421  41.817   2.703
23303W        W87511  37.987  14.707   3.761
23304W        W87512  40.821  42.420  11.471
23305W        W87513   2.401  35.540  13.918
23306W        W87514   0.903  40.854   0.442
23307W        W87515   9.878  31.031  12.885
23308W        W87516  14.335  41.972   4.223
23309W        W87517   5.738  15.229  13.969
23310W        W87518  41.420  21.553   3.802
23311W        W87519   9.726  30.603  13.975
23312W        W87520  42.973  31.005  13.811
23313W        W87521  27.654   9.661   4.826
23314W        W87522   1.776  29.111  14.773
23315W        W87523  42.300  15.301  12.012
23316W        W87524   0.260   4.367  11.916
23317W        W87525  22.116  18.280  11.014
23318W        W87526   1.326  14.704  13.408
23319W        W87527  23.606  34.016  11.912
23320W        W87528  26.113  15.641  10.450
23321W        W87529  31.012  10.731  13.864
23322W        W87530  41.931  38.470   0.871
23323W        W87531  38.057  20.172   9.983
23324W        W87532   4.856  41.000  12.000
23325W        W87533  14.741   5.890  13.461
23326W        W87534  28.972   0.363   2.800
23327W        W87535  39.828  19.149  11.544
23328W        W87536  24.055  33.428   3.763
23329W        W87537  11.684  38.950   3.192
23330W        W87538   5.425   1.417   4.275
23331W        W87539  17.271  19.690   4.778
23332W        W87540  14.658  42.943   1.313
23333W        W87541   6.252  14.176   5.175
23334W        W87542  24.183  33.477   3.241
23335W        W87543  33.125  35.047   1.854
23336W        W87544  22.524  23.060  11.940
23337W        W87545  24.522  11.207   3.679
23338W        W87546   1.806  22.538   4.312
23339W        W87547  35.050   6.749   2.820
23340W        W87548   6.408  32.944  10.586
23341W        W87549  16.133  44.771   1.721
23342W        W87550   7.241  31.430  10.413
23343W        W87551  21.095  20.594   4.671
23344W        W87552   7.882  21.538  13.427
23345W        W87553   4.702  34.001  12.419
23346W        W87554  34.375  33.625  14.993
23347W        W87555  29.502  43.849  14.769
23348W        W87556   4.911  31.467   1.728
23349W        W87557   6.882  42.296   1.281
23350W        W87558  37.002  39.901   1.898
23351W        W87559  20.067  38.398   1.282
23352W        W87560   7.236  20.588  11.889
23353W        W87561  20.650  18.151  12.940
23354W        W87562  22.022   5.776  10.089
23355W        W87563  38.346   0.319   0.822
23356W        W87564  40.839  18.085   2.356
23357W        W87565   6.332   5.749   2.696
23358W        W87566  29.618  18.720   2.286
23359W        W87567   0.806   0.949   2.348
23360W        W87568  12.736  41.310   3.809
23361W        W87569   4.423  10.876   0.931
23362W        W87570   9.672  17.677   3.727
23363W        W87571  19.088  28.013  10.593
23364W        W87572  21.189  23.112   3.345
23365W        W87573  12.346   4.364  14.391
23366W        W87574  41.456  23.586  14.504
23367W        W87575  36.470   3.246   4.616
23368W        W87576   8.886  19.278   2.349
23369W        W87577  34.429  21.590  11.061
23370W        W87578  18.774  11.340   2.235
23371W        W87579   1.875  16.802   0.255
23372W        W87580  41.351  32.615   5.235
23373W        W87581  12.668  10.282   0.801
23374W        W87582  26.191  40.817   1.808
23375W        W87583  15.748   3.819   4.699
23376W        W87584   3.789  41.849  11.605
23377W        W87585  14.727  30.553   9.942
23378W        W87586  31.118   9.795   4.628
23379W        W87587   2.390  21.157  10.961
23380W        W87588  40.520   3.220  13.875
23381W        W87589  34.517  41.982  13.814
23382W        W87590   8.215  23.714  10.465
23383W        W87591  13.674   4.789  13.318
23384W        W87592   3.753  11.765   3.663
23385W        W87593  28.140  42.407   0.470
23386W        W87594  21.524   4.435  11.472
23387W        W87595  26.663  40.331  14.943
23388W        W87596  13.149  36.047   4.647
23389W        W87597   3.933  15.145   4.336
23390W        W87598   0.961   9.882  12.512
23391W        W87599   8.296  12.638  10.926
23392W        W87600  42.340  29.564   2.187
23393W        W87601  37.963  34.032   1.336
23394W        W87602  40.350   3.892   3.375
23395W        W87603   0.300   3.735  11.949
23396W        W87604  19.278  22.165  12.031
23397W        W87605  20.037  25.694   2.818
23398W        W87606  20.198  18.198  13.804
23399W        W87607  40.969  20.530  11.950
23400W        W87608  18.109  35.054   1.267
23401W        W87609   7.364  17.216   2.216
23402W        W87610   7.208  35.522   3.754
23403W        W87611  18.783  25.978   0.352
23404W        W87612  30.508  29.428   0.736
23405W        W87613  28.158  42.371   1.805
23406W        W87614  41.517   9.786   0.474
23407W        W87615  16.115   1.380   3.633
23408W        W87616  16.196  15.664  10.567
23409W        W87617  40.366  29.661  11.053
23410W        W87618  42.443   0.968   1.383
23411W        W87619  37.471  33.390   4.261
23412W        W87620  10.183  13.324   2.374
23413W        W87621  20.535  36.472   2.205
23414W        W87622  24.553   4.354   1.784
23415W        W87623  20.636  13.767   4.131
23416W        W87624  33.959   1.938   4.304
23417W        W87625  13.791   7.678  13.795
23418W        W87626  31.611  41.504  12.958
23419W        W87627   0.953   9.358   4.186
23420W        W87628  42.393   9.154   3.218
23421W        W87629  22.135  20.221   4.807
23422W        W87630  37.382  40.819  11.418
23423W        W87631  36.484  32.023  10.601
23424W        W87632  19.129   5.339   1.231
23425W        W87633  39.506  17.684   0.735
23426W        W87634  44.432  41.787  14.294
23427W        W87635   1.439  39.898  13.937
23428W        W87636  36.879  38.341   4.679
23429W        W87637  22.590   4.699   0.291
23430W        W87638   9.838  39.856  14.307
23431W        W87639  10.691   4.909   3.696
23432W        W87640  42.440   7.365   2.317
23433W        W87641  26.008  41.292   0.950
23434W        W87642   4.825  17.284  10.436
23435W        W87643  29.009  28.643   0.334
23436W        W87644  11.365  21.139   3.818
23437W        W87645  37.437   7.355  13.444
23438W        W87646  11.160  19.160   2.343
23439W        W87647   9.251  22.709   3.866
23440W        W87648   5.400  24.197  11.042
23441W        W87649  20.591  44.856   0.305
23442W        W87650  41.942   1.748   2.826
23443W        W87651  18.779   2.468  11.859
23444W        W87652  11.213   2.449   3.325
23445W        W87653  38.519  27.445   3.247
23446W        W87654  31.412  34.085   2.752
23447W        W87655  17.774   9.804  11.588
23448W        W87656  32.920  36.877   2.252
23449W        W87657  32.113   1.367   0.352
23450W        W87658   7.414  40.484  10.942
23451W        W87659  39.978  13.272   3.179
23452W        W87660  31.046   7.183  10.597
23453W        W87661  25.004   8.890   3.305
23454W        W87662  42.507   4.699  12.096
23455W        W87663  39.519  30.094   3.150
23456W        W87664  12.844   2.322  10.626
23457W        W87665  42.852  42.468  11.109
23458W        W87666  12.813  29.068   4.309
23459W        W87667  12.611  37.033   4.301
23460W        W87668  26.027  11.773   1.724
23461W        W87669   0.283   8.822   0.259
23462W        W87670   2.721  18.675   2.812
23463W        W87671  32.054  40.976   4.169
23464W        W87672  31.133  31.935   5.117
23465W        W87673   3.872  29.020   9.960
23466W        W87674  15.694  22.225  13.868
23467W        W87675  18.084  35.407  12.469
23468W        W87676   6.384  22.157   0.467
23469W        W87677  25.980  30.607  13.914
23470W        W87678   6.377  25.094   3.362
23471W        W87679  14.322  17.289   3.653
23472W        W87680  26.001  30.562  12.433
23473W        W87681  30.518  43.766  12.398
23474W        W87682  36.525  17.115  10.504
23475W        W87683  30.442  24.637   4.351
23476W        W87684  37.466  26.546   1.928
23477W        W87685   9.293   0.351  12.360
23478W        W87686  19.194   3.449   2.879
23479W        W87687  19.648   1.950  14.291
23480W        W87688  35.539  44.411  11.013
23481W        W87689   0.291   7.321  14.480
23482W        W87690  28.669  29.124   1.335
23483W        W87691   6.307   7.374  12.362
23484W        W87692  29.549  22.715  12.854
23485W        W87693   2.841   9.714  11.577
23486W        W87694  44.490  22.511   3.643
23487W        W87695   3.804  34.071   3.774
23488W        W87696  34.381  14.653  13.332
23489W        W87697  27.102   7.254  10.414
23490W        W87698  32.535  34.534   2.370
23491W        W87699  34.881   5.691  10.592
23492W        W87700  39.353  21.181   2.727
23493W        W87701  37.990  35.100   0.766
23494W        W87702  41.402  23.204  11.522
23495W        W87703  39.948  42.918  13.458
23496W        W87704  38.954  18.140  12.350
23497W        W87705  13.624  29.649   0.245
23498W        W87706  14.639  25.067  14.323
23499W        W87707   7.840  33.554   4.664
23500W        W87708  14.200  28.648  14.408
23501W        W87709  34.422  23.071   0.440
23502W        W87710  17.576  43.440   3.351
23503W        W87711  27.448  15.715   4.711
23504W        W87712  30.581   2.362   2.820
23505W        W87713  26.038   0.315   0.950
23506W        W87714  42.360  20.701   3.811
23507W        W87715  31.091  25.992  13.515
23508W        W87716  39.460  37.388   2.256
23509W        W87717  28.156  14.273  14.848
23510W        W87718  42.305  17.687  11.055
23511W        W87719  18.151  42.527   4.179
23512W        W87720  12.777  20.200  12.500
23513W        W87721  27.112  12.848   4.197
23514W        W87722  30.483  15.104  10.593
23515W        W87723   7.195   3.376  10.607
23516W        W87724  40.363  14.263  12.339
23517W        W87725  13.822  36.034  13.857
23518W        W87726  10.288  19.540   4.269
23519W        W87727  44.438   5.700  10.597
23520W        W87728  10.793   2.929  14.873
23521W        W87729   3.885   3.250  13.308
23522W        W87730  29.619   6.207  10.637
23523W        W87731  19.191  18.296   0.810
23524W        W87732  13.302   0.431  12.441
23525W        W87733  30.584  44.996  12.408
23526W        W87734  38.035   3.407  13.015
23527W        W87735  27.047  25.531  11.110
23528W        W87736  20.178  25.552  12.078
23529W        W87737   6.850   9.697   0.789
23530W        W87738   6.290  19.743   0.903
23531W        W87739  25.663   4.298   4.699
23532W        W87740  30.943  34.041   2.370
23533W        W87741  42.342  19.764  13.311
23534W        W87742  22.667  27.968  14.031
23535W        W87743  36.377  32.422   0.736
23536W        W87744   8.838  15.257   0.474
23537W        W87745   3.346   0.455  12.455
23538W        W87746  37.944   7.273  14.845
23539W        W87747  13.748   4.804   9.922
23540W        W87748  26.676  20.615   2.809
23541W        W87749  21.726  30.417  14.925
23542W        W87750  17.779  15.659   4.257
23543W        W87751  39.549   9.734  12.493
23544W        W87752  17.745  10.746   1.272
23545W        W87753  12.290  19.644   2.800
23546W        W87754   8.696   1.418   2.880
23547W        W87755  16.589  31.970   2.739
23548W        W87756  35.572  15.138   1.444
23549W        W87757  18.597   9.318  13.534
23550W        W87758  41.474  11.751   2.291
23551W        W87759  30.095  37.555  11.886
23552W        W87760  25.111  34.493  14.420
23553W        W87761  43.955   7.304  13.972
23554W        W87762   9.769   9.819   1.806
23555W        W87763  28.551  37.072  13.792
23556W        W87764   9.377  39.814   2.211
23557W        W87765   7.205  11.136  12.548
23558W        W87766   0.843  40.337  11.496
23559W        W87767  11.734  12.276   1.791
23560W        W87768   3.778  31.898  12.953
23561W        W87769  35.443  29.465  14.513
23562W        W87770  25.695  33.431   9.946
23563W        W87771  33.515   2.322  11.972
23564W        W87772  38.488   0.317   4.285
23565W        W87773   0.438   9.789   3.784
23566W        W87774   8.255  40.992   0.939
23567W        W87775  13.806   1.842  10.607
23568W        W87776  28.545  22.654  12.019
23569W        W87777  26.603  17.679  14.942
23570W        W87778   4.358  29.069   1.318
23571W        W87779  34.920   2.944  12.850
23572W        W87780  42.997  39.890   2.382
23573W        W87781  10.827   6.796   2.876
23574W        W87782   6.267  28.591   0.960
23575W        W87783   9.286  19.221  11.542
23576W        W87784  35.408   6.836  11.930
23577W        W87785  37.082  11.247  12.357
23578W        W87786  38.962   2.788   1.769
23579W        W87787  30.964  35.889  14.321
23580W        W87788   1.769  38.869   2.215
23581W        W87789   4.341  11.278  10.431
23582W        W87790  39.912  17.203   4.170
23583W        W87791   3.860  32.547  11.440
23584W        W87792   0.460  41.471   4.613
23585W        W87793  22.575   4.285  14.815
23586W        W87794  15.672  31.980   1.248
23587W        W87795  12.842  32.555  11.589
23588W        W87796  32.072  14.731   1.397
23589W        W87797  31.055  11.857   0.742
23590W        W87798  17.149  29.667   2.759
23591W        W87799   5.398  40.004   4.181
23592W        W87800  13.107  43.022  14.794
23593W        W87801  44.318  14.750  10.476
23594W        W87802  33.625   6.724  12.952
23595W        W87803  23.032  25.038   1.347
23596W        W87804   9.349  37.035  11.473
23597W        W87805  19.178  19.779  11.492
23598W        W87806  32.590  44.874   1.839
23599W        W87807   9.207   2.935   2.319
23600W        W87808  15.329   6.778   0.864
23601W        W87809  14.097  20.728   2.317
23602W        W87810  27.095  35.871   1.744
23603W        W87811   8.392  33.531   2.186
23604W        W87812  19.058  34.876  12.353
23605W        W87813   4.911  14.166  12.828
23606W        W87814  27.553  28.628   2.227
23607W        W87815  14.258  37.848  14.351
23608W        W87816  24.698   9.228  12.831
23609W        W87817   0.457  11.247  13.418
23610W        W87818  11.322   7.892   4.693
23611W        W87819  19.275   0.492  10.412
23612W        W87820  39.854  36.571  13.056
23613W        W87821   4.422   7.377  14.340
23614W        W87822  33.976  41.971   4.142
23615W        W87823   4.829   8.890  11.041
23616W        W87824  17.746   7.373   0.478
23617W        W87825  16.790   5.284  14.346
23618W        W87826   8.271  18.269   0.835
23619W        W87827  40.912  16.096   5.222
23620W        W87828  43.396  20.211   3.269
23621W        W87829  10.633  14.638  11.097
23622W        W87830  15.186   6.219  11.377
23623W        W87831  24.999  16.709   1.706
23624W        W87832  27.487  37.857  14.775
23625W        W87833   9.213  14.601  12.348
23626W        W87834  26.072  44.308  14.341
23627W        W87835  19.640  37.056   1.390
23628W        W87836   1.424   6.371   2.201
23629W        W87837  40.958  27.195  13.336
23630W        W87838  37.522  17.606  10.064
23631W        W87839   5.323  20.120  13.016
23632W        W87840  15.202  19.742  13.490
23633W        W87841  41.301  36.468  10.913
23634W        W87842  27.490  25.101  12.535
23635W        W87843  15.789  36.362   3.331
23636W        W87844  25.673  28.142  13.527
23637W        W87845   4.770  35.959  12.912
23638W        W87846  28.013   6.371   2.204
23639W        W87847  14.594   7.213   3.286
23640W        W87848  23.676  33.118   3.159
23641W        W87849  24.225   1.240  13.849
23642W        W87850  32.135  36.560  12.462
23643W        W87851  27.448  30.134  10.506
23644W        W87852  24.658  31.982  10.580
23645W        W87853  10.275  35.572   4.674
23646W        W87854  30.588  23.127  14.813
23647W        W87855  21.172   4.254   2.216
23648W        W87856  28.576   7.745   1.847
23649W        W87857  27.989  39.946   2.201
23650W        W87858  15.628   3.419  14.812
23651W        W87859  26.092  38.380   2.221
23652W        W87860   6.819  13.246   4.308
23653W        W87861   8.229  30.936  13.429
23654W        W87862  16.597   6.226  12.506
23655W        W87863   1.817  39.395   4.630
23656W        W87864  42.945  13.843  11.935
23657W        W87865  35.965  24.659  14.352
23658W        W87866  10.840  32.636   0.328
23659W        W87867  26.166  28.468  12.038
23660W        W87868  23.118  39.866   0.793
23661W        W87869   9.811   8.398   3.180
23662W        W87870  29.456  17.728   0.926
23663W        W87871   2.915   2.889  10.981
23664W        W87872  16.642  11.272   0.321
23665W        W87873  11.856   7.722  11.491
23666W        W87874  19.265  26.518   2.246
23667W        W87875   6.222   1.240  11.451
23668W        W87876   2.416  16.094   0.251
23669W        W87877  26.076  36.407  11.078
23670W        W87878  36.921  24.508  11.994
23671W        W87879  17.716  14.693  14.886
23672W        W87880  11.746  18.661  12.003
23673W        W87881  21.713   2.880  14.021
23674W        W87882  43.948   8.314  14.349
23675W        W87883  16.129   2.720   3.803
23676W        W87884  14.642   9.260   4.343
23677W        W87885  37.505   0.763   5.244
23678W        W87886   2.947  26.051  11.489
23679W        W87887  37.010  23.038  13.428
23680W        W87888   7.220   5.237   4.127
23681W        W87889  17.304  23.172   3.327
23682W        W87890  22.696   8.362  14.379
23683W        W87891   8.221  20.253  14.502
23684W        W87892  44.483   8.224  14.310
23685W        W87893   3.231  28.565  11.950
23686W        W87894   5.846  11.325  14.385
23687W        W87895  41.313  36.051  11.867
23688W        W87896   9.815  21.059  12.838
23689W        W87897  15.665  39.885  11.521
23690W        W87898  24.519  35.568  12.824
23691W        W87899  22.523  34.597   0.428
23692W        W87900  44.904   5.766   1.356
23693W        W87901  13.684  17.287  13.917
23694W        W87902  24.201   7.333   5.233
23695W        W87903  44.495  32.484   3.690
23696W        W87904  24.614  44.894   3.710
23697W        W87905  15.697  30.436  13.426
23698W        W87906  38.864   1.453  14.321
23699W        W87907   3.261  13.621  13.901
23700W        W87908  20.548   5.371   3.765
23701W        W87909  13.262  41.422  12.864
23702W        W87910  41.392   9.321   0.278
23703W        W87911  16.587  19.235   3.154
23704W        W87912  15.682  19.556   0.285
23705W        W87913   3.754  37.952   3.310
23706W        W87914  26.129  30.646  11.076
23707W        W87915  19.078  25.026  14.868
23708W        W87916   1.850  42.784   0.432
23709W        W87917  22.550  21.084  13.884
23710W        W87918  44.397  33.495   3.258
23711W        W87919  20.215  24.526  12.862
23712W        W87920  25.069  29.442   3.333
23713W        W87921  16.227  30.514  10.638
23714W        W87922  15.649   3.937   1.893
23715W        W87923  15.724  31.420  11.064
23716W        W87924  35.441  20.609  13.419
23717W        W87925  12.214  19.045   4.769
23718W        W87926   0.841  25.152   9.977
23719W        W87927   8.824  36.448  14.391
23720W        W87928  11.294  44.324  10.586
23721W        W87929  38.039   9.745  12.891
23722W        W87930  38.905  44.470  10.894
23723W        W87931  18.727  21.257  14.447
23724W        W87932   8.898  18.099   3.343
23725W        W87933  22.225  22.037  10.971
23726W        W87934  42.030  13.804   2.352
23727W        W87935  12.195  29.990   0.880
23728W        W87936  15.702  31.094  12.556
23729W        W87937  12.836  10.673   2.280
23730W        W87938  32.005  16.172  14.331
23731W        W87939  33.391   1.948  13.868
23732W        W87940  32.987  10.870  14.874
23733W        W87941  20.144  20.537   3.229
23734W        W87942   2.881  13.653  14.319
23735W        W87943  11.844  18.254   0.383
23736W        W87944  12.360  41.391  14.321
23737W        W87945  11.832  20.569   2.702
23738W        W87946  40.964  13.739   1.305
23739W        W87947   6.917  18.136   2.729
23740W        W87948   0.348   4.231  11.031
23741W        W87949  34.085   8.203   3.778
23742W        W87950   6.810  31.056  13.432
23743W        W87951  17.764  12.742  14.313
23744W        W87952   9.279  43.309  11.518
23745W        W87953  25.071  35.038  10.612
23746W        W87954  13.654  35.542  14.343
23747W        W87955  25.552  18.713  11.925
23748W        W87956  36.020   6.213  13.410
23749W        W87957   7.839  12.315  12.525
23750W        W87958   1.838   4.285  14.862
23751W        W87959  31.552  28.075   3.206
23752W        W87960  24.503  42.914  11.955
23753W        W87961  42.903  12.677  14.334
23754W        W87962  29.428  14.233   1.733
23755W        W87963  41.411  44.996  11.572
23756W        W87964   5.855  42.323   4.667
23757W        W87965  40.432  34.113   0.399
23758W        W87966   5.768  14.708   3.835
23759W        W87967  24.072   1.346  12.349
23760W        W87968  11.129   4.407  10.626
23761W        W87969  18.170  17.141  10.624
23762W        W87970  15.584  30.596  10.575
23763W        W87971  44.337  24.208  12.832
23764W        W87972  10.326  13.293   2.725
23765W        W87973  28.115  13.734   2.666
23766W        W87974  13.707  28.610   4.125
23767W        W87975  25.031  34.514   2.706
23768W        W87976   0.395  30.917  14.322
23769W        W87977   6.304  11.833  11.048
23770W        W87978  13.703  12.237  13.857
23771W        W87979  23.134  17.603   5.264
23772W        W87980  18.103  17.777  14.875
23773W        W87981  39.976  34.454   0.737
23774W        W87982   4.361  14.818   0.350
23775W        W87983  36.413  21.179   3.796
23776W        W87984  24.519  22.135   0.439
23777W        W87985  28.678  18.148   0.789
23778W        W87986  33.394  30.993  13.798
23779W        W87987  39.438  11.326   3.662
23780W        W87988  35.072  32.634   4.812
23781W        W87989   2.887  11.654   2.798
23782W        W87990   2.734  14.247  14.303
23783W        W87991  27.006   5.333   3.189
23784W        W87992  14.149   3.404   0.893
23785W        W87993  44.982  17.197   1.305
23786W        W87994  19.553  21.103  14.891
23787W        W87995  16.263  42.797  12.869
23788W        W87996  44.775   4.825  12.044
23789W        W87997  13.733  30.587  14.962
23790W        W87998   4.214  29.141   3.352
23791W        W87999  36.397  35.583  11.120
23792W        W88000  31.564  24.174  13.431
23793W        W88001  31.578   0.835  14.458
23794W        W88002   3.888  44.349   9.958
23795W        W88003  44.295  13.776   4.252
23796W        W88004  30.041  20.088   4.228
23797W        W88005  32.633   0.857  11.570
23798W        W88006  26.064  26.050  13.497
23799W        W88007   4.740  14.695   3.167
23800W        W88008  35.580  28.680  10.450
23801W        W88009  43.346  20.566  10.447
23802W        W88010   7.365  11.258   0.890
23803W        W88011  14.815  18.682  12.579
23804W        W88012  35.959  36.424   4.133
23805W        W88013   6.424   3.818  13.370
23806W        W88014   5.418  30.524  12.441
23807W        W88015  30.050  26.980  10.403
23808W        W88016  24.097  29.169   1.707
23809W        W88017  27.007   3.727  10.620
23810W        W88018  42.954  31.432   1.785
23811W        W88019  33.535  12.296  13.905
23812W        W88020  31.547  14.807   1.695
23813W        W88021  34.448  11.347   2.301
23814W        W88022  14.211   4.371   1.932
23815W        W88023  13.832  29.103   1.221
23816W        W88024  29.985   3.346  12.339
23817W        W88025  10.681  35.929   2.855
23818W        W88026  30.530  32.447  10.529
23819W        W88027  37.026  44.386  11.570
23820W        W88028  24.201  22.663  13.382
23821W        W88029  34.374   4.416   1.399
23822W        W88030   0.260  13.648  12.430
23823W        W88031  38.064   5.797  14.314
23824W        W88032  21.044  27.040  13.408
23825W        W88033  25.142  20.265  13.921
23826W        W88034  35.081  10.809  12.371
23827W        W88035  40.974  15.661   1.365
23828W        W88036  12.276  13.307   0.243
23829W        W88037  13.193  34.076   2.692
23830W        W88038  34.028  20.639  12.915
23831W        W88039  36.954  24.976   1.414
23832W        W88040  25.581  19.669  10.053
23833W        W88041  39.968  15.642   4.744
23834W        W88042  28.034  19.700  13.479
23835W        W88043  39.471  23.086  14.926
23836W        W88044  14.589  25.692   2.760
23837W        W88045  11.738  38.328   4.279
23838W        W88046   0.444   1.323   0.847
23839W        W88047  35.083  25.091  10.589
23840W        W88048  22.587  24.511   4.689
23841W        W88049  32.477  36.516  11.930
23842W        W88050   4.372   2.763  14.774
23843W        W88051  42.404  21.254  14.893
23844W        W88052  13.147  16.127   3.213
23845W        W88053  11.269  33.027   0.932
23846W        W88054  25.990  12.232  12.902
23847W        W88055  34.455   5.748   0.413
23848W        W88056  26.671  13.311  12.440
23849W        W88057  32.449  13.324  14.813
23850W        W88058  32.443  42.993  11.115
23851W        W88059  11.664  40.923  10.535
23852W        W88060  39.932  21.657  13.482
23853W        W88061  40.021  26.661  14.462
23854W        W88062   9.207   6.712   4.159
23855W        W88063  36.461  30.928   3.649
23856W        W88064  43.282  38.991   2.381
23857W        W88065  32.897  34.911   1.244
23858W        W88066  22.089   2.226   4.726
23859W        W88067   1.874  44.973  11.549
23860W        W88068  42.026  42.502  10.447
23861W        W88069  26.697  20.239   2.358
23862W        W88070  39.852  38.967  13.832
23863W        W88071  36.069  19.165  14.506
23864W        W88072  41.413  38.481  14.024
23865W        W88073  27.653  36.430   2.406
23866W        W88074  16.629  44.356  13.316
23867W        W88075   6.744  39.374   0.880
23868W        W88076   3.790  28.176  10.421
23869W        W88077  27.991  17.132  10.467
23870W        W88078  39.003  30.607   4.823
23871W        W88079  41.310  23.990  14.480
23872W        W88080  19.235  17.781   2.344
23873W        W88081   2.443  39.554  11.092
23874W        W88082  35.535  12.313  14.784
23875W        W88083   9.250  37.345   0.441
23876W        W88084  14.181  18.705  11.530
23877W        W88085  24.173  16.575  13.874
23878W        W88086   9.247   6.372  11.916
23879W        W88087  33.485  21.176  14.872
23880W        W88088   0.367  38.522   2.703
23881W        W88089  40.493   9.382  13.312
23882W        W88090   6.776  21.615   0.866
23883W        W88091   0.317  38.411   4.772
23884W        W88092   6.886  38.986  11.038
23885W        W88093   4.414  31.137   1.329
23886W        W88094  18.676  23.014   0.898
23887W        W88095  16.153  24.589   4.203
23888W        W88096  18.071  24.010   1.880
23889W        W88097  11.277  38.438  14.908
23890W        W88098  27.068  25.071  12.837
23891W        W88099  35.546  42.349  12.012
23892W        W88100  32.073  35.984  13.547
23893W        W88101  28.170  23.010   3.295
23894W        W88102   5.223  34.037   3.321
23895W        W88103  27.672  29.525  13.859
23896W        W88104  43.461   1.970   3.299
23897W        W88105  33.076  32.547   0.886
23898W        W88106  19.251  39.327   0.311
23899W        W88107  19.117  41.907   3.373
23900W        W88108  22.112  36.080  10.447
23901W        W88109  30.005  38.929   0.423
23902W        W88110  21.135  11.201   0.818
23903W        W88111   9.771  37.445  10.949
23904W        W88112  38.378   8.808  13.486
23905W        W88113  28.975  31.533  13.429
23906W        W88114  24.136  15.782  10.147
23907W        W88115  43.765  40.820  10.450
23908W        W88116   5.309  28.467   4.676
23909W        W88117  29.011  20.157  13.805
23910W        W88118  20.666   4.808   1.310
23911W        W88119  35.566  22.576  14.287
23912W        W88120  32.141  14.818  11.886
23913W        W88121  25.545  41.306  10.568
23914W        W88122  36.494  35.397   0.257
23915W        W88123  18.158  36.033   2.251
23916W        W88124   6.854   2.435   4.207
23917W        W88125  25.702  20.689   2.271
23918W        W88126  31.024  35.981  12.533
23919W        W88127  19.078  15.107   5.208
23920W        W88128  31.942  15.143   1.767
23921W        W88129  32.438  27.490   3.370
23922W        W88130  12.633   1.481  12.508
23923W        W88131  30.920   5.253  11.914
23924W        W88132   0.878  22.193   2.884
23925W        W88133  33.415  34.084  10.486
23926W        W88134  12.833  18.288   2.233
23927W        W88135  28.162  18.670   4.229
23928W        W88136   5.694  22.125  13.010
23929W        W88137   2.924   5.271  11.419
23930W        W88138  11.816  28.438   3.667
23931W        W88139  17.172  27.633  11.985
23932W        W88140   8.671  26.490  13.959
23933W        W88141  14.695  32.010   0.416
23934W        W88142   4.450  26.037   4.644
23935W        W88143  32.964  23.547   1.702
23936W        W88144   9.760  33.502  13.384
23937W        W88145  26.119   8.395   0.295
23938W        W88146  25.168  20.610  11.520
23939W        W88147  29.430  38.330   1.370
23940W        W88148  42.977  27.066  12.891
23941W        W88149  32.974  19.263   4.618
23942W        W88150  41.001  36.356   2.696
23943W        W88151  14.757  38.539   0.459
23944W        W88152  17.723  36.082   0.413
23945W        W88153  10.693  39.508  13.525
23946W        W88154  43.784  12.263  10.913
23947W        W88155  13.824  17.298   1.921
23948W        W88156   7.205  11.808  11.943
23949W        W88157   7.328   3.285  14.998
23950W        W88158  35.863  31.923  10.056
23951W        W88159  40.479  44.411  13.987
23952W        W88160   1.861  29.989  11.063
23953W        W88161  37.336  35.956   4.210
23954W        W88162  28.578  14.123   3.816
23955W        W88163  28.578   2.259   3.805
23956W        W88164   0.900  23.582  12.824
23957W        W88165  42.927  38.899  10.424
23958W        W88166  24.074  32.606   4.250
23959W        W88167  15.594   5.689   0.916
23960W        W88168  42.302  40.485   2.373
23961W        W88169  21.716   2.743   1.367
23962W        W88170  30.574  37.340   1.827
23963W        W88171  29.002  14.277  10.635
23964W        W88172   0.766   1.759   3.210
23965W        W88173  33.065  24.222   3.769
23966W        W88174  26.015  37.951  12.899
23967W        W88175  14.100  27.502   0.353
23968W        W88176  32.391   9.812   1.326
23969W        W88177  43.804  20.729  11.895
23970W        W88178  12.196  29.610   1.819
23971W        W88179  44.481  42.367  12.875
23972W        W88180  25.047  22.734  14.360
23973W        W88181  39.846  34.924   3.656
23974W        W88182  12.304  24.609  11.486
23975W        W88183   8.400  12.168   2.322
23976W        W88184  26.148  38.568  14.852
23977W        W88185  33.913  21.556   3.853
23978W        W88186  28.553  44.425   3.210
23979W        W88187  42.867   0.850   3.757
23980W        W88188  32.933  40.846  12.567
23981W        W88189   9.307  41.907  10.507
23982W        W88190  28.137  13.819   3.146
23983W        W88191  44.976  38.563  13.836
23984W        W88192  16.222  29.137  14.474
23985W        W88193   3.762  42.422  10.518
23986W        W88194  14.789   9.266   0.813
23987W        W88195  21.225  29.027  11.068
23988W        W88196  14.220  28.961   3.811
23989W        W88197  34.560  33.541  12.564
23990W        W88198  12.775   7.270  12.509
23991W        W88199   7.778  41.530   0.800
23992W        W88200  23.134  36.088  14.991
23993W        W88201  42.832  42.914   4.760
23994W        W88202  26.542  18.212   3.314
23995W        W88203  44.464  35.985  11.985
23996W        W88204  28.454  24.537  13.478
23997W        W88205  30.628  15.086  13.422
23998W        W88206  22.583  16.260  10.920
23999W        W88207  37.448   4.284   0.391
24000W        W88208   1.435   5.344   3.324
24001W        W88209  38.051  36.397  11.885
24002W        W88210  17.094  43.436   1.327
24003W        W88211  26.628  18.654   3.216
24004W        W88212   0.861  33.564   0.943
24005W        W88213  25.016  20.117  11.925
24006W        W88214  36.923  10.138  11.528
24007W        W88215   9.723  42.792   4.838
24008W        W88216  21.119  43.515  10.610
24009W        W88217  37.889   0.369  12.509
24010W        W88218  29.452  12.635   4.826
24011W        W88219  13.771  19.285   4.659
24012W        W88220  37.976  28.512  11.117
24013W        W88221  23.574  12.160  10.936
24014W        W88222  35.089  34.567  12.953
24015W        W88223  30.568   6.835  14.896
24016W        W88224  30.571  43.823   1.780
24017W        W88225  40.982  41.474   3.334
24018W        W88226   2.842   9.343  14.434
24019W        W88227   6.752  10.197   4.646
24020W        W88228  41.391  32.565   1.809
24021W        W88229  23.665  21.595   1.322
24022W        W88230  33.434  38.019  13.937
24023W        W88231  21.595   2.307   4.643
24024W        W88232  13.641  32.019  13.497
24025W        W88233  16.138   4.854   0.327
24026W        W88234  36.953  36.372  13.056
24027W        W88235  41.324  33.081  11.042
24028W        W88236   4.773  32.541  12.981
24029W        W88237  28.086  27.640  12.053
24030W        W88238   7.907  28.455   2.357
24031W        W88239   8.840  28.473   1.883
24032W        W88240  23.010  24.026  13.537
24033W        W88241  10.766   6.789  12.478
24034W        W88242  19.584  13.199  11.934
24035W        W88243   8.776  28.634  10.592
24036W        W88244  43.877  14.312  11.522
24037W        W88245   1.312   4.234   0.862
24038W        W88246  21.707  40.886  12.993
24039W        W88247  14.199   0.972   4.176
24040W        W88248  34.056  23.018  14.426
24041W        W88249   7.738  10.225  14.933
24042W        W88250   3.370  22.655   1.907
24043W        W88251  35.958  12.257   0.830
24044W        W88252  42.804  14.717   3.375
24045W        W88253   7.259   2.859   0.917
24046W        W88254  44.447  14.294   0.772
24047W        W88255   4.924  16.077   4.310
24048W        W88256  33.615  32.104   1.213
24049W        W88257   8.169  42.395   3.330
24050W        W88258  44.272  37.566  12.920
24051W        W88259  33.522  30.616  12.362
24052W        W88260   4.212   4.268  12.472
24053W        W88261  18.097  18.687   1.411
24054W        W88262  40.813  29.170  10.465
24055W        W88263  13.133  22.231   1.872
24056W        W88264  36.497  36.987   2.663
24057W        W88265   8.203  11.796  12.026
24058W        W88266  35.098  27.517  14.943
24059W        W88267  11.334  26.067  11.587
24060W        W88268  28.664  30.433   1.378
24061W        W88269  38.436  31.559   1.285
24062W        W88270  20.571   3.321  11.591
24063W        W88271   4.418   8.756   0.864
24064W        W88272  35.599  22.546  11.035
24065W        W88273  39.946  21.113   5.724
24066W        W88274  36.075  17.276  13.372
24067W        W88275   7.381  35.982   2.888
24068W        W88276  33.926   1.272  13.371
24069W        W88277   3.249  24.484   2.377
24070W        W88278  37.384   5.424   3.174
24071W        W88279  39.363  17.183  13.345
24072W        W88280  21.575  31.535  13.977
24073W        W88281  16.185  15.615   1.784
24074W        W88282   2.905  12.213   4.277
24075W        W88283  24.725  38.883   3.770
24076W        W88284  33.894  41.912   2.216
24077W        W88285  27.479  29.147   2.382
24078W        W88286   0.749  11.154   3.862
24079W        W88287  12.724  10.334  14.441
24080W        W88288  40.971  32.414   2.836
24081W        W88289  22.724  30.647   3.780
24082W        W88290  21.248   7.328   1.330
24083W        W88291  36.028  34.384   2.874
24084W        W88292   2.802  28.561  12.451
24085W        W88293  20.185  29.657   0.787
24086W        W88294   3.357  13.321  13.516
24087W        W88295  41.909   6.420  10.475
24088W        W88296  29.987  34.869   3.184
24089W        W88297  40.037   4.737  13.345
24090W        W88298  11.239  16.672   1.714
24091W        W88299  16.290  20.728  11.970
24092W        W88300  42.781  11.789  12.420
24093W        W88301   2.947  34.445  11.566
24094W        W88302  15.113  34.917  14.815
24095W        W88303  26.635  29.527  13.487
24096W        W88304  14.218  33.894   4.293
24097W        W88305  40.939   6.364   2.372
24098W        W88306   3.225  44.457  14.376
24099W        W88307  20.245  31.498  13.330
24100W        W88308  19.558   5.375  12.053
24101W        W88309  32.432  43.443   0.772
24102W        W88310  42.398  44.894  12.398
24103W        W88311  17.141  34.514   1.899
24104W        W88312  39.460  27.970  10.999
24105W        W88313   3.346  17.750   1.257
24106W        W88314  28.978   0.969  14.392
24107W        W88315   9.382  12.281   9.656
24108W        W88316  25.049   1.763  14.338
24109W        W88317   6.185   0.354   0.458
24110W        W88318   3.361  37.490  14.825
24111W        W88319  28.062  12.184   1.809
24112W        W88320  17.673  26.165  11.873
24113W        W88321  13.298  33.608  14.874
24114W        W88322  24.014  17.719  13.889
24115W        W88323  27.004  35.921  13.894
24116W        W88324   7.282  10.368  14.032
24117W        W88325   5.355  30.441  11.064
24118W        W88326  42.433  21.635   0.333
24119W        W88327  25.116  27.040   3.779
24120W        W88328  31.001  34.969   2.855
24121W        W88329  22.670  18.275  14.928
24122W        W88330  26.582   6.369   3.834
24123W        W88331  10.242  19.116  13.526
24124W        W88332   9.393  11.222   5.265
24125W        W88333  18.117  27.532   0.305
24126W        W88334  43.408   2.413  12.379
24127W        W88335  23.663   7.402   2.208
24128W        W88336  43.468  33.096   0.822
24129W        W88337  40.909   3.822  13.929
24130W        W88338  38.914   5.198  12.414
24131W        W88339  24.507  11.216  14.283
24132W        W88340  14.156  21.719  12.402
24133W        W88341  20.176   0.423  14.923
24134W        W88342  14.297  13.191   0.927
24135W        W88343  31.031  27.166   4.762
24136W        W88344  38.470  23.192   4.252
24137W        W88345  28.133  37.509  10.520
24138W        W88346  12.789  21.264   9.921
24139W        W88347  39.941  11.338  11.922
24140W        W88348   1.238  36.552  10.914
24141W        W88349  25.075  20.144  10.537
24142W        W88350  31.453  12.259  14.373
24143W        W88351  22.059  15.729  11.105
24144W        W88352  19.253  15.642   2.303
24145W        W88353   7.671  19.250  11.993
24146W        W88354  28.098  21.182   2.720
24147W        W88355  37.012  29.509  11.466
24148W        W88356   6.293  34.878  13.019
24149W        W88357  43.472  43.910   0.326
24150W        W88358  38.832  17.688   4.294
24151W        W88359  28.112  35.558   0.458
24152W        W88360  12.629  36.413   2.692
24153W        W88361  35.464  21.680   2.723
24154W        W88362  20.556  25.476  14.014
24155W        W88363   1.458  44.420  14.476
24156W        W88364   6.231  15.646   5.154
24157W        W88365  35.972  31.106   2.867
24158W        W88366  39.408  21.638   3.702
24159W        W88367  17.139  20.537  13.416
24160W        W88368  34.450  44.487   0.320
24161W        W88369   8.889  26.013  13.825
24162W        W88370  25.479  14.702   0.935
24163W        W88371  22.504  14.643  10.903
24164W        W88372  13.313  40.960   1.442
24165W        W88373  21.583   2.740  14.366
24166W        W88374  43.270  23.090   0.311
24167W        W88375   1.892  25.673  11.997
24168W        W88376  12.656  16.260  14.872
24169W        W88377  16.082   9.326  14.489
24170W        W88378  41.530  22.111  11.914
24171W        W88379  11.761  17.238   1.821
24172W        W88380  21.707   8.699  10.598
24173W        W88381  23.169  38.381  13.327
24174W        W88382  11.181   9.218   2.319
24175W        W88383   2.394  36.491  12.034
24176W        W88384  41.915   9.648   1.363
24177W        W88385  21.198  15.110  10.630
24178W        W88386  25.551  22.682  10.936
24179W        W88387  11.227  25.133   0.387
24180W        W88388  26.025  27.605  11.540
24181W        W88389   0.763  20.637  11.900
24182W        W88390  25.539  40.320  13.858
24183W        W88391  19.169  33.391  14.499
24184W        W88392   8.159  43.405  11.546
24185W        W88393   6.313  21.592   4.123
24186W        W88394  18.548  35.886   0.776
24187W        W88395   6.869  14.648  10.620
24188W        W88396   4.808  43.476  14.861
24189W        W88397  26.537  17.580  10.908
24190W        W88398  23.581  31.560  14.761
24191W        W88399  10.274  12.153   2.793
24192W        W88400  11.297  36.586  10.420
24193W        W88401   6.392   5.750  12.384
24194W        W88402  43.769  11.300  14.488
24195W        W88403   8.214  32.113  10.911
24196W        W88404  25.069  43.329   2.774
24197W        W88405  16.074  33.473  13.345
24198W        W88406  17.774  14.280   0.319
24199W        W88407  41.440   5.329   0.409
24200W        W88408  12.829  28.959  14.394
24201W        W88409  13.680  14.590  11.523
24202W        W88410  14.674  39.492   0.952
24203W        W88411  32.442  12.730  12.848
24204W        W88412  25.620   6.872   3.376
24205W        W88413   4.391  38.482  14.825
24206W        W88414  39.356   9.797   1.374
24207W        W88415   8.791  13.842   0.847
24208W        W88416   7.853  32.945  14.930
24209W        W88417  15.130   6.331   0.467
24210W        W88418   3.270   4.296  11.458
24211W        W88419  24.486  14.273  12.973
24212W        W88420  30.602  42.491  14.343
24213W        W88421   4.268  24.140  13.836
24214W        W88422  28.129  43.386  10.136
24215W        W88423   4.896  24.583  14.823
24216W        W88424  15.094  10.280  13.899
24217W        W88425  26.966  35.028   0.326
24218W        W88426  34.462  28.127   3.831
24219W        W88427  12.333  38.336  12.528
24220W        W88428  19.557  36.080   3.193
24221W        W88429  11.777  38.489   2.292
24222W        W88430  17.612  36.877   3.757
24223W        W88431  34.073  40.415  12.382
24224W        W88432   7.300   6.844  14.422
24225W        W88433  19.068  17.558   1.898
24226W        W88434  37.038  20.714   3.249
24227W        W88435  38.385  23.525   2.794
24228W        W88436   3.813   6.363   3.166
24229W        W88437  20.130  23.608   4.812
24230W        W88438  23.582  13.687  14.803
24231W        W88439   3.874  19.774  10.505
24232W        W88440  18.684  41.322  11.014
24233W        W88441  31.001  15.621  10.969
24234W        W88442  32.421  36.004   5.105
24235W        W88443   2.465  35.897   3.687
24236W        W88444   4.750   0.982  11.442
24237W        W88445  20.690  17.194   2.819
24238W        W88446  29.533  25.619  10.625
24239W        W88447  25.014  18.724   4.186
24240W        W88448  42.380  21.586   3.282
24241W        W88449   8.330  29.471  13.008
24242W        W88450  13.701  32.978   1.730
24243W        W88451  36.555  17.721  12.063
24244W        W88452  22.565   0.886   0.397
24245W        W88453   9.749  10.302  10.597
24246W        W88454  19.605  37.523  11.092
24247W        W88455  37.901  20.177  11.126
24248W        W88456  27.007  30.510  10.599
24249W        W88457  11.781  13.711  13.049
24250W        W88458  42.978  35.954   3.638
24251W        W88459  23.013   6.232  12.070
24252W        W88460  40.037  42.386  13.337
24253W        W88461  21.237   9.161  14.831
24254W        W88462  29.621  27.541   1.897
24255W        W88463  17.231  27.004  12.064
24256W        W88464   8.846  27.173   0.861
24257W        W88465  35.871  35.559  11.565
24258W        W88466   4.943  22.021   4.260
24259W        W88467  30.128  21.190   4.303
24260W        W88468  31.973  37.007   1.873
24261W        W88469   5.271   1.933   4.341
24262W        W88470  15.772  35.409   0.484
24263W        W88471   0.802  19.681   2.196
24264W        W88472  39.813  23.645  12.013
24265W        W88473   7.339   5.232  14.001
24266W        W88474   3.387  33.564  12.992
24267W        W88475  14.110   6.417  14.306
24268W        W88476   1.480  34.078   5.693
24269W        W88477  24.120   4.272  14.453
24270W        W88478  27.514  43.980  14.392
24271W        W88479  38.048  35.993   9.985
24272W        W88480   4.937   7.811   0.481
24273W        W88481   2.899  31.038  12.412
24274W        W88482  13.324   1.358  14.875
24275W        W88483  37.423  44.424  13.816
24276W        W88484  40.382  22.693  12.368
24277W        W88485  22.603  23.017   1.699
24278W        W88486  36.959  21.037  12.947
24279W        W88487  14.690  24.669  14.414
24280W        W88488   4.725  27.109  12.069
24281W        W88489  40.387   8.219   3.717
24282W        W88490   6.842  20.540   0.855
24283W        W88491  15.640   2.852   4.753
24284W        W88492  39.014  34.506   5.237
24285W        W88493   1.413   9.179  12.006
24286W        W88494  36.957   5.864  13.037
24287W        W88495  24.226  30.596   5.164
24288W        W88496  43.409  27.016  11.497
24289W        W88497   7.226   1.297   3.285
24290W        W88498   9.739  31.116   4.255
24291W        W88499  24.051  22.133  13.989
24292W        W88500  16.770   2.361   0.362
24293W        W88501  44.996  24.103   4.218
24294W        W88502  20.650  41.435  10.530
24295W        W88503  38.348  35.932  10.932
24296W        W88504   6.901  20.609   0.427
24297W        W88505  10.717  44.756  14.021
24298W        W88506  18.662  36.525   4.262
24299W        W88507  24.112   3.874  13.838
24300W        W88508  43.441  29.976  10.893
24301W        W88509   7.196  11.772  10.441
24302W        W88510  33.893  35.453  13.949
24303W        W88511  19.224   9.645  12.885
24304W        W88512  23.660  10.705  11.482
24305W        W88513  13.173  21.062   0.821
24306W        W88514  22.526  12.839   4.672
24307W        W88515  32.057  11.743   2.334
24308W        W88516  37.874   9.173   3.257
24309W        W88517   5.267  32.592  10.999
24310W        W88518  39.507   8.888  10.924
24311W        W88519  22.036   7.381   4.252
24312W        W88520  39.461  14.700  11.910
24313W        W88521   4.233  23.565  11.910
24314W        W88522  21.621   7.796   4.152
24315W        W88523  30.105   6.840  10.954
24316W        W88524  35.463  16.191  11.486
24317W        W88525  19.198   3.847   1.709
24318W        W88526  44.897  44.921  11.541
24319W        W88527  29.491   0.256  14.491
24320W        W88528  32.128  10.690  13.032
24321W        W88529  12.776  16.080   0.946
24322W        W88530   2.451  22.691   4.201
24323W        W88531  39.815  10.855   0.788
24324W        W88532  34.110  25.560   2.798
24325W        W88533   3.378  39.373   4.311
24326W        W88534   4.754  36.093   3.700
24327W        W88535  39.921  35.037  11.949
24328W        W88536  35.926  23.214   3.362
24329W        W88537   7.284  43.367  13.933
24330W        W88538  29.108  44.986   2.734
24331W        W88539  23.513   0.408  14.371
24332W        W88540   4.312  39.867   1.386
24333W        W88541  39.999  41.320  14.309
24334W        W88542   1.831   9.195   3.830
24335W        W88543  41.358  18.666   1.433
24336W        W88544  21.614  33.067  14.292
24337W        W88545   2.953  33.975  12.093
24338W        W88546  17.585  39.821   3.366
24339W        W88547  32.599  17.083  13.035
24340W        W88548  40.048  31.609   2.739
24341W        W88549   0.422   1.454   1.934
24342W        W88550  35.962  43.916   1.333
24343W        W88551  34.381  44.295   1.400
24344W        W88552   2.229   8.232   2.800
24345W        W88553   6.357  10.826  11.503
24346W        W88554  36.518  12.795   0.779
24347W        W88555   3.229  22.673  14.994
24348W        W88556  31.644  44.351  10.947
24349W        W88557   8.305  33.097  13.057
24350W        W88558  27.620  26.693  13.450
24351W        W88559  21.753   5.418   0.896
24352W        W88560  41.986  11.767  13.414
24353W        W88561   2.397  23.051  12.840
24354W        W88562  27.049  20.586  12.363
24355W        W88563   3.851  35.422   0.835
24356W        W88564  41.861  16.588  14.792
24357W        W88565  19.167  20.212   3.840
24358W        W88566   4.755  25.168   4.715
24359W        W88567  17.786  38.843   2.825
24360W        W88568   3.422  22.038   0.351
24361W        W88569  29.527  35.422   4.827
24362W        W88570  26.117  27.027   2.898
24363W        W88571  37.515  22.143   1.835
24364W        W88572  38.987   9.878   3.148
24365W        W88573  13.194  31.451  14.403
24366W        W88574  32.422  33.971  12.459
24367W        W88575   8.724   8.816   3.660
24368W        W88576   0.937  29.964  12.926
24369W        W88577  21.211   7.842  10.976
24370W        W88578  18.075  44.421   4.170
24371W        W88579  24.506   1.952   0.317
24372W        W88580  24.547  15.710   1.312
24373W        W88581  24.155  41.382   2.197
24374W        W88582   2.346  25.211   0.417
24375W        W88583  33.498  37.916  12.009
24376W        W88584  16.812   5.918  10.422
24377W        W88585  21.022  31.027  14.821
24378W        W88586  25.191  20.143   3.838
24379W        W88587  16.090  35.394   1.308
24380W        W88588  24.705  14.324  11.526
24381W        W88589  40.001   6.841  12.565
24382W        W88590  17.145  24.598   0.482
24383W        W88591  25.087  38.948   1.218
24384W        W88592  39.898   5.854   1.817
24385W        W88593   6.695  16.624   2.329
24386W        W88594  17.229  24.107   4.332
24387W        W88595   5.358   9.355  14.028
24388W        W88596  29.082  34.873  12.528
24389W        W88597  29.108   1.239  10.919
24390W        W88598  14.247  26.106   1.859
24391W        W88599   0.963  33.110   2.794
24392W        W88600  22.183  19.246  12.557
24393W        W88601  43.005   0.861  11.389
24394W        W88602  39.383  20.062   4.190
24395W        W88603  11.846  38.565  14.902
24396W        W88604  24.139  15.153   1.306
24397W        W88605   1.276  21.618   1.811
24398W        W88606  39.862  28.489  12.073
24399W        W88607  41.297  37.983   2.396
24400W        W88608  41.837  44.465   4.179
24401W        W88609  41.925  41.419  14.915
24402W        W88610  32.924  28.045  14.426
24403W        W88611  42.380   2.723  13.835
24404W        W88612  18.570  29.478  12.348
24405W        W88613  10.641   7.244  11.477
24406W        W88614  20.559  11.151  10.424
24407W        W88615  44.756  15.327   4.311
24408W        W88616  43.465  42.777  11.013
24409W        W88617  26.065  36.426   2.328
24410W        W88618   2.461  19.750  13.320
24411W        W88619  35.973  20.746  14.510
24412W        W88620  35.066  14.255   4.312
24413W        W88621  26.089  37.356  11.578
24414W        W88622  37.416  10.269  10.958
24415W        W88623  13.603  43.934  11.605
24416W        W88624  41.826  38.973   0.837
24417W        W88625  25.652   1.357   4.343
24418W        W88626  27.068   6.266   1.745
24419W        W88627  31.468  24.231  14.326
24420W        W88628  19.098   8.660   2.671
24421W        W88629  31.902  22.720   2.327
24422W        W88630   7.832  25.669  11.882
24423W        W88631  32.402  14.167  14.335
24424W        W88632  15.654  43.785   1.807
24425W        W88633  28.181  11.736  14.905
24426W        W88634   4.888  39.323   0.475
24427W        W88635  38.480  38.907  11.939
24428W        W88636  24.690  31.114   1.445
24429W        W88637  16.733  21.588  12.428
24430W        W88638  21.523  36.401  14.297
24431W        W88639   2.941  32.117  14.478
24432W        W88640   7.702  23.097  14.279
24433W        W88641   9.673  21.624  11.485
24434W        W88642  32.494  28.144   3.817
24435W        W88643   5.879  15.666  12.428
24436W        W88644   4.820   3.246  11.934
24437W        W88645  15.250  12.757  11.118
24438W        W88646  32.478  27.017  14.394
24439W        W88647  11.699  40.985   0.746
24440W        W88648  32.503   1.448   3.201
24441W        W88649   4.251  37.518   0.815
24442W        W88650  21.742  35.982  14.383
24443W        W88651   6.800  42.425  10.632
24444W        W88652  41.398   1.272   0.379
24445W        W88653  44.793   6.261   4.320
24446W        W88654   9.663  21.576   4.664
24447W        W88655  21.090   1.427   2.337
24448W        W88656   0.410   9.722  11.570
24449W        W88657   7.822  38.562  13.429
24450W        W88658  12.834  32.480   1.210
24451W        W88659  38.839   6.780   0.418
24452W        W88660  25.109   2.738  13.818
24453W        W88661  14.215  11.318   1.263
24454W        W88662  15.761   6.301   5.091
24455W        W88663  22.121  10.717   0.797
24456W        W88664  19.040  20.077   1.352
24457W        W88665  10.310  21.185  14.278
24458W        W88666  35.096  16.788   3.175
24459W        W88667  37.017   0.479  14.364
24460W        W88668  10.143  29.056   0.440
24461W        W88669   1.448   6.892  10.502
24462W        W88670  27.085  16.661   0.848
24463W        W88671  26.048  18.727  10.908
24464W        W88672  15.166  40.371   4.786
24465W        W88673   8.697   2.339   1.251
24466W        W88674   7.357  26.014  14.321
24467W        W88675  41.530  43.487   0.459
24468W        W88676  15.234  37.900   4.649
24469W        W88677  10.825   7.183  13.368
24470W        W88678  26.469   5.377  13.353
24471W        W88679  22.022   9.727  13.460
24472W        W88680   0.472   9.251  12.452
24473W        W88681   8.744   1.734  13.870
24474W        W88682  14.652  39.892   0.932
24475W        W88683  43.945   7.797  14.775
24476W        W88684   1.456  33.979   9.569
24477W        W88685  42.385  25.470  11.378
24478W        W88686  38.502  11.234  12.075
24479W        W88687  36.542  26.166   1.268
24480W        W88688  13.310  35.038  10.480
24481W        W88689  20.703  33.886  10.599
24482W        W88690  43.986  15.324  13.791
24483W        W88691  17.294  29.004  10.888
24484W        W88692  33.990  35.899  12.370
24485W        W88693  25.559   5.285   2.888
24486W        W88694  35.456  43.377   3.692
24487W        W88695  24.569  35.414   4.186
24488W        W88696  33.948  18.134  14.352
24489W        W88697  28.959  42.790   4.221
24490W        W88698   0.853   7.232   2.743
24491W        W88699  33.890   0.938   1.782
24492W        W88700  43.368  15.773   0.756
24493W        W88701   9.833  11.259  11.053
24494W        W88702  14.264  19.197   1.246
24495W        W88703  17.125  26.684  10.445
24496W        W88704  16.283  31.429   2.250
24497W        W88705  32.478  12.304  13.486
24498W        W88706   0.448   2.228  10.969
24499W        W88707   0.861  36.452  10.543
24500W        W88708  33.107   4.818   0.324
24501W        W88709  38.564  30.416   5.189
24502W        W88710   3.418  11.665   4.344
24503W        W88711  20.601  29.935   3.247
24504W        W88712  22.166  41.352  10.900
24505W        W88713  33.937  17.128   2.758
24506W        W88714  17.778   9.192   0.439
24507W        W88715  25.192  26.684   1.303
24508W        W88716  16.198   8.843   2.836
24509W        W88717  29.669   4.374   4.647
24510W        W88718  14.275  44.383   3.318
24511W        W88719  35.048  13.136  12.944
24512W        W88720  29.091   9.391   2.240
24513W        W88721  36.576   1.786   4.202
24514W        W88722   8.850  38.072   0.795
24515W        W88723  38.831  30.577  12.964
24516W        W88724  13.127   5.307   1.268
24517W        W88725  33.953  15.287   3.817
24518W        W88726   7.217  32.991  11.549
24519W        W88727   6.862  22.664   0.418
24520W        W88728   1.476   4.254   0.337
24521W        W88729  10.286  25.107   2.897
24522W        W88730  20.237   6.850   9.987
24523W        W88731  30.981  31.553   0.427
24524W        W88732  22.211   0.376   3.223
24525W        W88733  14.278  28.660   0.803
24526W        W88734  15.625  32.096   5.176
24527W        W88735  34.868  22.715   0.449
24528W        W88736  24.097  21.178   3.270
24529W        W88737  16.139  32.081  14.293
24530W        W88738  21.256  10.206   2.251
24531W        W88739  28.633   0.898   0.304
24532W        W88740  13.198  41.916   4.761
24533W        W88741  21.216   7.876  13.821
24534W        W88742  42.803   2.937   3.239
24535W        W88743  43.438  35.900   5.303
24536W        W88744  25.628  15.287  13.964
24537W        W88745  43.485   6.900   1.899
24538W        W88746  28.046  15.211  14.458
24539W        W88747   0.477  12.644   2.269
24540W        W88748  26.099   2.257   3.261
24541W        W88749  40.545  17.721  14.851
24542W        W88750  44.911  14.594   3.804
24543W        W88751  20.656  12.774   1.879
24544W        W88752  27.490  37.079  13.914
24545W        W88753  40.355  15.206  14.494
24546W        W88754  13.244  14.162   0.419
24547W        W88755  10.291  17.645  14.782
24548W        W88756  23.532  34.578  13.484
24549W        W88757  17.147  34.538  13.851
24550W        W88758   2.302  34.405  12.940
24551W        W88759  27.197  13.648  14.347
24552W        W88760   7.263   7.379  13.546
24553W        W88761   7.279   4.858   4.776
24554W        W88762  31.524   0.779  10.477
24555W        W88763  40.432  17.563  13.520
24556W        W88764  21.617  24.004  12.577
24557W        W88765  35.508  25.590   1.832
24558W        W88766   8.765   0.386   4.301
24559W        W88767   6.322   1.953   0.277
24560W        W88768  40.342  35.516   0.900
24561W        W88769  21.756   8.363  14.853
24562W        W88770  17.085  11.822  10.914
24563W        W88771   1.341   4.702  12.034
24564W        W88772  24.149  18.628   1.847
24565W        W88773   1.449  13.834   2.285
24566W        W88774   5.197  13.806   1.785
24567W        W88775  37.897  18.234   2.204
24568W        W88776   6.857   9.231  14.411
24569W        W88777  31.085   5.222   2.809
24570W        W88778  28.654  35.362   0.883
24571W        W88779   6.234  16.766  10.597
24572W        W88780   1.880  10.844   0.893
24573W        W88781  21.205  11.131  12.851
24574W        W88782  36.452  39.012  11.967
24575W        W88783   0.355   0.834   2.279
24576W        W88784  11.238  22.219   0.360
24577W        W88785   7.760  32.456  10.565
24578W        W88786   5.877  19.107  13.853
24579W        W88787  14.329  17.784  11.528
24580W        W88788  28.968  24.531  12.886
24581W        W88789  33.604   8.377  11.373
24582W        W88790  38.071   1.940  12.005
24583W        W88791   7.307  34.610  13.857
24584W        W88792  32.073  17.281  13.916
24585W        W88793  38.828  31.910  13.419
24586W        W88794  19.657   5.722  12.364
24587W        W88795  43.286  29.043  14.276
24588W        W88796  13.188  24.686   4.760
24589W        W88797  12.217  15.807  11.934
24590W        W88798   4.341  14.833   4.182
24591W        W88799  31.427  32.981   1.743
24592W        W88800  36.519  44.483   9.976
24593W        W88801   1.466  29.980  14.320
24594W        W88802  28.586  32.479  10.904
24595W        W88803  23.536  39.040   2.783
24596W        W88804  24.618  38.483  12.465
24597W        W88805   2.943  39.901  13.500
24598W        W88806  32.918  18.703  13.343
24599W        W88807  20.226   0.343  14.418
24600W        W88808   4.804  29.529  10.415
24601W        W88809  19.763  43.377   2.299
24602W        W88810  24.685  40.325   0.738
24603W        W88811  14.599  35.962   1.923
24604W        W88812   6.711  13.777  14.442
24605W        W88813  29.629  28.179  14.960
24606W        W88814  10.773  12.204   0.248
24607W        W88815  33.073  32.059   3.173
24608W        W88816  30.469  37.522  14.442
24609W        W88817  17.305  19.142   4.672
24610W        W88818  38.452  38.843   1.345
24611W        W88819   8.745  41.442  12.839
24612W        W88820  23.523  37.834  14.819
24613W        W88821  38.839   3.869   3.377
24614W        W88822   8.376  25.145   3.811
24615W        W88823  27.641   5.333  10.560
24616W        W88824   6.313  16.607   9.993
24617W        W88825   9.716  34.988   0.284
24618W        W88826  17.751  33.004  12.415
24619W        W88827  18.767   9.764   2.344
24620W        W88828  35.002   0.439  11.117
24621W        W88829   1.808   0.325  13.949
24622W        W88830  37.026  38.364   1.883
24623W        W88831  37.445  39.045  14.994
24624W        W88832  26.187  39.019   1.697
24625W        W88833   4.248  15.611   0.955
24626W        W88834  29.433  35.938  11.003
24627W        W88835   2.890  10.819   4.687
24628W        W88836  22.094   4.821  12.076
24629W        W88837   7.884  40.533  10.629
24630W        W88838   6.354   0.899  11.005
24631W        W88839  33.476   9.302   0.342
24632W        W88840  31.472  39.540  11.886
24633W        W88841  38.535  20.255  11.426
24634W        W88842  12.204  28.504  11.885
24635W        W88843  18.749  11.797   3.686
24636W        W88844  22.723   8.798  12.560
24637W        W88845  29.948   5.895  10.919
24638W        W88846  44.351  12.782   0.854
24639W        W88847  32.467  16.160   0.442
24640W        W88848  32.951  25.682  10.506
24641W        W88849   9.203  22.611  14.394
24642W        W88850   4.735   6.408  12.873
24643W        W88851  33.588   1.296   2.895
24644W        W88852   2.720  29.922  14.992
24645W        W88853  15.796  38.560  12.847
24646W        W88854   5.915  29.647  10.439
24647W        W88855  14.292   7.211   9.940
24648W        W88856  18.120   0.401  10.521
24649W        W88857  41.009  44.343  11.953
24650W        W88858  37.007  33.891  10.984
24651W        W88859  16.316   4.378   1.890
24652W        W88860  17.617  40.372  12.522
24653W        W88861  10.255  25.973   3.659
24654W        W88862  38.918  23.712  13.521
24655W        W88863  17.612  27.682   2.321
24656W        W88864  36.880  44.763  11.932
24657W        W88865  17.677  41.538   0.859
24658W        W88866  34.115  25.642  14.466
24659W        W88867  37.459  11.852  12.951
24660W        W88868   7.235  43.841   1.314
24661W        W88869  29.621  22.628   1.399
24662W        W88870   2.832  35.383   0.944
24663W        W88871   2.273  39.352  10.573
24664W        W88872  38.363  43.401   0.798
24665W        W88873   2.861  44.889   0.938
24666W        W88874   6.837  41.497  14.968
24667W        W88875  29.093  20.248  14.783
24668W        W88876  30.640  14.727  10.501
24669W        W88877  15.237   8.406   1.332
24670W        W88878  38.007  24.116  14.998
24671W        W88879  25.517  11.173   1.276
24672W        W88880  30.968  28.957  10.031
24673W        W88881  17.581  39.476  10.946
24674W        W88882  32.891  14.751  10.913
24675W        W88883   6.384   1.401  12.575
24676W        W88884   3.315  22.150  13.310
24677W        W88885  40.469  44.393   2.181
24678W        W88886  26.017  25.125   1.881
24679W        W88887  39.063  16.088  11.932
24680W        W88888  34.581  24.089   3.324
24681W        W88889  10.655  22.619  11.982
24682W        W88890  37.506  28.592   3.185
24683W        W88891   3.377   0.366   1.839
24684W        W88892   8.894  40.486  13.477
24685W        W88893  29.584   7.808   2.827
24686W        W88894  26.158  15.322   2.898
24687W        W88895  20.146  23.209   1.213
24688W        W88896  37.874  36.467   2.899
24689W        W88897  40.420  39.844  13.998
24690W        W88898  24.690  39.551   4.212
24691W        W88899  10.254   1.952   3.161
24692W        W88900  17.148   1.850  12.949
24693W        W88901  12.689  43.814   3.841
24694W        W88902  27.169  29.054  11.602
24695W        W88903   1.788   8.377   3.757
24696W        W88904  33.599  35.920  11.524
24697W        W88905  38.489  11.842  12.455
24698W        W88906  43.494  30.034   2.411
24699W        W88907  40.487  16.691   4.775
24700W        W88908  26.542  33.014   4.326
24701W        W88909  32.629  39.836  12.475
24702W        W88910   5.198  30.615   4.810
24703W        W88911  30.496  36.354   4.657
24704W        W88912   3.782  26.481   2.381
24705W        W88913  18.723  10.365   2.736
24706W        W88914   9.384  11.342  13.523
24707W        W88915  10.834  29.043   4.672
24708W        W88916   5.697  22.012   4.317
24709W        W88917  16.614  18.648  11.455
24710W        W88918  44.298  29.117  11.598
24711W        W88919  21.516   0.339   2.202
24712W        W88920  31.410  31.070  14.355
24713W        W88921  32.495  30.659   5.195
24714W        W88922  44.415   0.926  13.871
24715W        W88923   6.195  13.641  10.573
24716W        W88924   3.269  22.168   2.258
24717W        W88925   2.353  23.521  13.849
24718W        W88926  24.720   6.766   1.239
24719W        W88927  19.581  40.880  12.899
24720W        W88928  43.963   4.294  14.844
24721W        W88929  39.042  15.089   3.640
24722W        W88930  36.866   2.290   2.277
24723W        W88931   0.868   5.855   0.407
24724W        W88932  31.484  25.021   3.819
24725W        W88933  38.399   5.922  12.022
24726W        W88934  32.073  43.853  12.448
24727W        W88935   6.276  37.496   0.440
24728W        W88936  18.056  21.540  10.571
24729W        W88937   7.701   9.710   3.313
24730W        W88938  13.836  15.318   0.353
24731W        W88939  42.449  34.881  14.348
24732W        W88940  12.143   8.353   2.220
24733W        W88941  19.745  18.563  13.817
24734W        W88942  16.122  32.103   4.772
24735W        W88943  30.552  38.075   3.813
24736W        W88944   3.808  18.545  13.310
24737W        W88945   4.894  41.482   0.761
24738W        W88946  19.594  32.532   4.638
24739W        W88947  34.547   9.753  12.358
24740W        W88948  33.602  32.082   4.142
24741W        W88949  10.339  23.041   4.638
24742W        W88950   2.964   3.399   3.858
24743W        W88951  25.612   2.878   2.852
24744W        W88952   6.283  37.419   2.338
24745W        W88953  17.797  22.021  10.979
24746W        W88954   7.693  33.604   2.781
24747W        W88955  22.511  14.669   4.280
24748W        W88956  27.966  24.662   1.271
24749W        W88957  38.838  13.799  13.920
24750W        W88958  36.022  26.504   5.302
24751W        W88959  24.053  28.463  12.920
24752W        W88960  34.400  18.101  11.463
24753W        W88961   5.196   6.262   3.658
24754W        W88962  42.282  17.127  10.130
24755W        W88963   3.219  10.379   1.364
24756W        W88964   5.782  32.430  12.886
24757W        W88965  44.385   5.912  14.958
24758W        W88966   8.200  12.147   0.416
24759W        W88967  44.977  20.543   1.428
24760W        W88968  21.607  17.618  11.064
24761W        W88969  26.699  32.417  10.917
24762W        W88970   0.378  18.750  14.959
24763W        W88971  40.544   2.776  14.475
24764W        W88972  33.528  11.131   3.312
24765W        W88973   1.255  26.483   4.194
24766W        W88974  43.771  42.790  11.426
24767W        W88975   2.279  38.899  12.887
24768W        W88976   2.390  42.434   4.303
24769W        W88977  21.098  43.961  14.326
24770W        W88978  20.669  11.646   2.834
24771W        W88979  43.774   2.277  12.561
24772W        W88980  43.833  29.109   4.633
24773W        W88981   3.436   9.849   4.825
24774W        W88982   3.365  40.308   2.858
24775W        W88983  44.434  39.497  14.363
24776W        W88984  17.660  43.765   4.818
24777W        W88985  35.917  24.044   3.259
24778W        W88986  19.051  36.951   0.454
24779W        W88987  41.960  31.629   1.750
24780W        W88988  10.740  28.474  12.573
24781W        W88989  22.109  29.956  11.054
24782W        W88990  11.344  38.547   1.722
24783W        W88991  14.115  30.966  10.531
24784W        W88992  36.524  26.119  10.584
24785W        W88993  12.222  39.496   2.396
24786W        W88994  17.627  22.696   3.702
24787W        W88995  33.046  27.992  12.844
24788W        W88996  13.147  35.584   4.222
24789W        W88997  13.335  11.824   1.437
24790W        W88998  42.802  15.682   2.249
24791W        W88999  21.536  39.490  14.341
24792W        W89000  42.966  38.467  14.291
24793W        W89001   6.876  19.770   2.207
24794W        W89002  24.011  43.340  14.773
24795W        W89003  37.535  35.548  10.476
24796W        W89004   6.369  40.387   4.127
24797W        W89005  40.894  15.634   3.706
24798W        W89006   1.818  40.001  11.464
24799W        W89007   8.846  25.480  11.532
24800W        W89008   0.420  39.409  13.320
24801W        W89009  39.472  29.115  13.460
24802W        W89010  18.161   4.384  12.461
24803W        W89011  30.008  23.148  10.950
24804W        W89012   2.916  43.965   2.246
24805W        W89013  34.375  26.668  13.050
24806W        W89014   7.797  25.207  11.859
24807W        W89015   7.878   3.322   5.314
24808W        W89016   5.805  31.902  12.028
24809W        W89017  13.309  15.738   2.303
24810W        W89018  17.779  43.341   4.174
24811W        W89019   0.386   4.272  10.574
24812W        W89020  42.972  34.551  10.889
24813W        W89021  22.239   6.737  14.917
24814W        W89022  15.302   5.258  11.030
24815W        W89023   5.313  26.656  11.870
24816W        W89024  19.577  39.972   0.466
24817W        W89025  30.521   1.964  13.348
24818W        W89026  21.214  30.139   3.816
24819W        W89027  34.062  39.468  12.501
24820W        W89028  30.105   6.248   2.669
24821W        W89029   8.853  36.568  14.842
24822W        W89030   3.711  25.114   2.817
24823W        W89031  16.683   0.894   0.257
24824W        W89032   4.294  42.486  10.554
24825W        W89033  39.949  42.522   2.823
24826W        W89034  34.444  19.628  13.347
24827W        W89035  28.936  25.700  11.940
24828W        W89036   4.915   1.387  10.539
24829W        W89037   7.231  23.555  14.984
24830W        W89038   0.810  31.412   2.313
24831W        W89039  33.474   7.257  10.559
24832W        W89040  23.127  10.635   3.201
24833W        W89041  29.095  24.587  13.887
24834W        W89042  34.452  33.935  11.963
24835W        W89043  36.576   3.891   4.331
24836W        W89044  18.579   1.287  13.008
24837W        W89045  26.023   5.925  11.595
24838W        W89046  35.550  42.797  13.866
24839W        W89047  22.644   1.956  10.135
24840W        W89048   2.951   1.955   3.744
24841W        W89049   7.840   3.900  13.331
24842W        W89050  40.014  42.364   2.407
24843W        W89051  27.114  42.867   1.416
24844W        W89052  40.326  39.330  11.127
24845W        W89053  37.884  25.107  13.046
24846W        W89054  37.387  25.106  12.988
24847W        W89055  27.133  19.098  12.960
24848W        W89056  39.537  16.304  14.392
24849W        W89057  17.685  15.266  12.549
24850W        W89058  31.478   5.207  13.855
24851W        W89059  34.463  34.954  14.868
24852W        W89060  32.440  21.738  12.481
24853W        W89061  42.809  39.870   2.881
24854W        W89062  40.944   8.265  14.768
24855W        W89063   6.219  35.968  11.526
24856W        W89064  18.698   1.864  13.996
24857W        W89065  24.527  16.165   2.796
24858W        W89066  34.955  32.082  14.394
24859W        W89067   6.727  41.432   2.189
24860W        W89068  33.098   0.444   3.181
24861W        W89069  12.733  33.600   1.236
24862W        W89070   7.255   2.400   5.106
24863W        W89071  29.451   9.881   3.794
24864W        W89072  43.844  12.268   1.767
24865W        W89073  34.507  33.609  11.024
24866W        W89074   1.247  29.641   4.187
24867W        W89075  37.415  26.507  10.642
24868W        W89076  40.397  28.532   0.297
24869W        W89077   1.356   2.312   2.272
24870W        W89078  43.494  27.659   0.326
24871W        W89079   4.323  12.154   4.257
24872W        W89080  24.705  38.033   2.204
24873W        W89081  11.708  20.120   1.214
24874W        W89082  27.497  38.413  14.851
24875W        W89083  11.346  20.219  13.474
24876W        W89084   9.377  41.449   2.285
24877W        W89085  38.043   4.346   2.374
24878W        W89086  13.314   2.287   2.401
24879W        W89087  27.062  11.804  14.915
24880W        W89088   6.754  41.905   3.352
24881W        W89089  43.820  37.454  10.600
24882W        W89090  40.377  32.633   1.889
24883W        W89091   7.260  15.223  10.403
24884W        W89092   1.412  34.948   2.330
24885W        W89093  16.157  11.675   1.748
24886W        W89094  39.904  22.035  10.972
24887W        W89095  22.536  35.882   1.867
24888W        W89096  41.926   8.740   1.361
24889W        W89097   8.339   3.837   2.827
24890W        W89098   8.671  38.858   1.785
24891W        W89099   2.917  16.273  10.586
24892W        W89100  24.987   8.712  13.361
24893W        W89101  20.042  37.468  11.371
24894W        W89102  30.431  23.593   0.396
24895W        W89103  19.247  13.677   3.363
24896W        W89104  36.543  11.238   2.761
24897W        W89105   3.911  43.296   1.896
24898W        W89106  34.931  34.479  11.558
24899W        W89107  37.546  40.950   1.260
24900W        W89108  22.062  24.554  13.514
24901W        W89109   3.830  24.165   3.787
24902W        W89110  44.850  15.315   4.639
24903W        W89111  23.592  21.231   1.847
24904W        W89112  28.452  10.210   1.299
24905W        W89113  32.909  39.831  14.291
24906W        W89114  41.851  40.488   0.340
24907W        W89115  26.120  17.075  12.428
24908W        W89116  10.765   4.719   9.941
24909W        W89117  15.676  44.435   2.663
24910W        W89118  38.392  15.097   4.825
24911W        W89119   9.853  22.006   3.197
24912W        W89120  43.769  24.045  10.533
24913W        W89121   6.693  22.564  12.574
24914W        W89122  16.268  29.482  12.978
24915W        W89123  25.119  19.571   3.350
24916W        W89124  26.595  38.468   2.864
24917W        W89125   1.392  31.549  14.807
24918W        W89126  20.252  16.215  13.958
24919W        W89127   6.786  14.789   3.274
24920W        W89128   0.928  38.074   3.717
24921W        W89129  28.975  12.777  13.309
24922W        W89130  33.004   7.309   2.316
24923W        W89131  44.962  41.416  14.395
24924W        W89132  14.327   8.725   4.781
24925W        W89133  13.682   9.155   4.729
24926W        W89134   6.313   6.726  12.459
24927W        W89135  14.316   1.287  14.345
24928W        W89136  21.664   0.282   0.360
24929W        W89137  28.617  35.106  11.440
24930W        W89138  25.996  27.608  10.644
24931W        W89139  16.662  39.324  12.942
24932W        W89140   8.353   9.219   2.737
24933W        W89141   4.913  22.025  11.999
24934W        W89142  25.026  11.258   4.659
24935W        W89143  36.391  31.582  14.894
24936W        W89144  20.561  26.529   3.731
24937W        W89145  10.691  17.284  12.991
24938W        W89146  24.094   2.295   2.733
24939W        W89147  14.118  11.257  11.988
24940W        W89148  36.878   3.273   0.813
24941W        W89149  26.971   7.677  13.439
24942W        W89150   0.976  21.684   1.817
24943W        W89151  30.112  16.671   4.225
24944W        W89152  44.349   4.729  13.498
24945W        W89153  32.574  10.635  13.847
24946W        W89154  29.071  25.994   0.257
24947W        W89155   5.368  31.573   0.954
24948W        W89156   5.907  22.602   0.261
24949W        W89157   0.440  20.144   1.760
24950W        W89158  13.630  36.395   3.784
24951W        W89159  14.810  41.534  13.847
24952W        W89160  18.269  29.085  11.048
24953W        W89161  34.991   3.377   2.310
24954W        W89162  11.317  14.319  13.858
24955W        W89163   1.907  30.654   4.130
24956W        W89164  24.510  24.976  10.494
24957W        W89165  38.528   9.861   0.322
24958W        W89166   1.877  25.487   0.425
24959W        W89167  38.825  44.471   1.262
24960W        W89168  19.671  11.300   1.836
24961W        W89169  26.076   4.801   0.475
24962W        W89170  17.602  35.495  12.528
24963W        W89171   2.723  43.849  12.066
24964W        W89172  28.498  29.550  14.823
24965W        W89173  34.029   2.952   0.299
24966W        W89174   8.365  35.988  14.426
24967W        W89175  40.014  34.481   3.855
24968W        W89176  29.062  24.179  13.913
24969W        W89177   8.260   9.733   4.115
24970W        W89178   7.670  41.318   5.151
24971W        W89179   1.846  38.027  13.921
24972W        W89180  11.698  14.676   4.163
24973W        W89181  34.452  38.529  12.494
24974W        W89182  18.643  32.061  10.065
24975W        W89183   3.248  23.204   3.767
24976W        W89184  24.632  40.003  10.575
24977W        W89185   8.900  15.784  11.857
24978W        W89186  26.014  19.584   2.728
24979W        W89187  35.417   0.840   0.301
24980W        W89188  22.583  27.565  12.416
24981W        W89189  41.304  41.355  11.929
24982W        W89190  24.548  41.864   2.349
24983W        W89191  19.739  25.964  14.020
24984W        W89192  14.598  12.643   1.784
24985W        W89193  32.529   7.711  10.625
24986W        W89194  22.533  38.845  11.584
24987W        W89195  23.118  44.367   1.255
24988W        W89196  42.527  22.584  10.628
24989W        W89197   5.305  28.153   3.702
24990W        W89198  14.701  24.620   2.355
24991W        W89199  41.476   4.813   4.606
24992W        W89200   4.267   4.931  14.297
24993W        W89201   8.286   0.959   1.219
24994W        W89202  41.019   9.171  14.857
24995W        W89203  39.448   7.760   4.822
24996W        W89204  25.146  39.387  13.941
24997W        W89205  19.762  21.183  10.968
24998W        W89206   9.156  27.116   2.824
24999W        W89207  20.242  16.155  10.140
25000W        W89208  26.562  37.013   2.720
25001W        W89209  36.937  12.123  11.931
25002W        W89210   9.802   0.814  10.431
25003W        W89211  27.498  27.613  13.868
25004W        W89212   1.418  39.435   4.328
25005W        W89213   8.680  10.354  12.909
25006W        W89214  12.679   9.251  11.031
25007W        W89215  13.740  27.049  12.356
25008W        W89216  37.400  10.698   0.768
25009W        W89217  11.172  13.178  14.893
25010W        W89218   2.317   8.252   2.213
25011W        W89219  12.649  28.170  14.284
25012W        W89220  12.292  22.647   2.267
25013W        W89221  28.623  39.426  13.970
25014W        W89222   0.903  22.037   2.414
25015W        W89223  27.681  36.397   1.260
25016W        W89224  31.911  20.592  10.945
25017W        W89225  21.221  12.683  12.060
25018W        W89226  37.416   7.214   3.269
25019W        W89227  20.733  35.374  13.334
25020W        W89228  21.110  14.767   0.390
25021W        W89229  43.764  32.886   1.276
25022W        W89230   9.787  34.006   3.846
25023W        W89231  38.467  35.549   3.252
25024W        W89232  17.098  44.995   3.816
25025W        W89233  38.044   5.231   3.229
25026W        W89234   4.272  33.909  14.871
25027W        W89235  36.369  34.422   1.317
25028W        W89236  15.211  30.029  14.485
25029W        W89237  44.354  29.943  11.090
25030W        W89238   0.447  29.112   3.867
25031W        W89239  20.058  16.247   1.773
25032W        W89240  11.340   6.748   4.651
25033W        W89241  37.876  30.465  14.443
25034W        W89242  29.470  36.043  12.879
25035W        W89243   1.769   0.881   3.651
25036W        W89244  17.683   7.828  13.536
25037W        W89245  17.306  39.909  11.071
25038W        W89246  20.755   3.364  14.387
25039W        W89247  10.333   7.874   3.245
25040W        W89248  19.704  19.058  12.076
25041W        W89249  10.653  28.975   1.920
25042W        W89250  28.460   7.236   3.365
25043W        W89251  36.908   6.264   1.218
25044W        W89252  15.145  34.522   3.677
25045W        W89253  40.473  29.480   3.741
25046W        W89254  32.916  36.541   0.448
25047W        W89255  33.895  12.189   0.736
25048W        W89256  31.065  20.265   0.834
25049W        W89257  11.309  38.565   3.309
25050W        W89258  36.427  37.918  12.356
25051W        W89259  35.470  22.149   0.439
25052W        W89260  31.129  37.364  10.507
25053W        W89261  20.553  12.638  10.616
25054W        W89262  31.023   1.959   4.334
25055W        W89263  36.521   3.359  12.502
25056W        W89264   9.237   3.424   5.276
25057W        W89265  28.943  35.013  13.898
25058W        W89266   6.413  34.959   0.804
25059W        W89267  13.715  10.773  11.122
25060W        W89268  33.960   8.718   3.353
25061W        W89269  42.294  44.312   0.766
25062W        W89270  29.508  30.464  10.112
25063W        W89271  39.981  43.383   3.775
25064W        W89272  39.964  21.111   3.288
25065W        W89273  27.078  36.499  12.480
25066W        W89274  34.910   0.905  10.896
25067W        W89275  20.755  35.384  13.948
25068W        W89276   6.889  33.481  10.480
25069W        W89277  23.639  36.362  10.596
25070W        W89278  32.885  11.202   2.723
25071W        W89279  14.621  16.084   2.669
25072W        W89280  39.989  16.695   4.211
25073W        W89281  10.172  34.547  12.385
25074W        W89282  26.690  32.916   1.764
25075W        W89283  14.169  27.976   4.190
25076W        W89284  39.434  27.125  14.404
25077W        W89285  12.226  31.137  10.462
25078W        W89286  37.573  30.543   0.962
25079W        W89287  42.974   8.187  14.449
25080W        W89288  21.210  35.893   2.856
25081W        W89289  40.456  44.441   1.794
25082W        W89290  14.696  31.050  14.965
25083W        W89291   5.764   4.223  12.877
25084W        W89292  13.683   3.944   3.351
25085W        W89293  28.440   7.366   2.666
25086W        W89294  27.171  24.095  10.612
25087W        W89295   5.376  16.747  11.540
25088W        W89296  33.116  16.718  14.449
25089W        W89297  14.772  25.003  10.594
25090W        W89298   9.272  27.976   3.796
25091W        W89299   1.879  44.945  10.429
25092W        W89300  21.649  11.272  13.325
25093W        W89301  22.225  41.472  14.284
25094W        W89302  12.303   4.856  13.517
25095W        W89303  35.447  28.932  14.397
25096W        W89304   2.842  14.210   3.762
25097W        W89305  13.704  44.827   0.433
25098W        W89306  12.720  18.738   0.372
25099W        W89307  18.756  35.536   3.380
25100W        W89308  21.242   7.240  12.421
25101W        W89309  13.612  30.034   1.425
25102W        W89310  24.006  40.408  11.031
25103W        W89311  34.615  19.088  13.382
25104W        W89312  37.536  28.021  11.951
25105W        W89313  27.515  23.712   0.763
25106W        W89314  34.982   0.986   1.221
25107W        W89315   2.342   0.411   5.746
25108W        W89316   5.787  36.969   0.398
25109W        W89317  36.976   1.369  10.978
25110W        W89318  42.827   1.882   2.267
25111W        W89319  17.279  26.962   2.733
25112W        W89320  13.773  41.851  12.839
25113W        W89321  42.012  27.575  10.550
25114W        W89322   6.190   7.291   2.211
25115W        W89323  30.082  23.622   0.380
25116W        W89324   5.731  33.968   3.831
25117W        W89325  28.625  17.268  13.007
25118W        W89326   7.355  37.472   5.286
25119W        W89327   5.722  32.928  12.033
25120W        W89328  11.805  34.061   4.179
25121W        W89329  44.367  32.119  14.346
25122W        W89330  29.923  38.944   0.824
25123W        W89331   9.222  28.934   0.476
25124W        W89332  19.738  42.882  14.323
25125W        W89333  31.535  40.850   2.693
25126W        W89334  38.983  42.836  14.794
25127W        W89335  28.066   4.812   1.402
25128W        W89336  30.515  20.213   1.699
25129W        W89337  41.024  37.375  11.115
25130W        W89338  23.119  18.165   3.191
25131W        W89339  18.149   5.793   1.376
25132W        W89340  40.440   0.408  11.598
25133W        W89341  25.035  29.489   4.812
25134W        W89342   9.745  43.996  14.283
25135W        W89343   4.378  22.097  14.489
25136W        W89344   0.331   6.399   3.863
25137W        W89345  32.541   4.702   9.989
25138W        W89346  17.652  23.706   2.403
25139W        W89347  23.139  43.310   0.443
25140W        W89348   9.277  30.072   3.741
25141W        W89349  14.314   2.297   1.918
25142W        W89350   0.323  11.368  11.981
25143W        W89351  14.100  24.719  14.275
25144W        W89352   2.317  41.902   3.791
25145W        W89353  36.544  33.062   3.704
25146W        W89354   7.301  22.633  14.898
25147W        W89355  40.434  13.223  14.916
25148W        W89356  37.498  38.449  13.997
25149W        W89357  13.687  27.486   1.789
25150W        W89358  33.583  30.574   2.743
25151W        W89359  41.942   0.402  10.426
25152W        W89360  40.485  14.286   1.213
25153W        W89361  36.960   8.767   4.704
25154W        W89362   1.317  32.889  10.478
25155W        W89363  24.676   2.921   2.856
25156W        W89364   1.404  30.467  12.567
25157W        W89365  30.584  33.081  10.502
25158W        W89366  35.485  44.353   2.676
25159W        W89367  20.224  34.529  12.436
25160W        W89368  10.232  37.403   0.453
25161W        W89369  13.155   7.866   4.783
25162W        W89370  43.867  30.613  10.970
25163W        W89371  34.419  15.301  11.115
25164W        W89372  34.531   4.380   2.189
25165W        W89373  13.260  41.518   2.354
25166W        W89374   8.662  44.304   4.140
25167W        W89375  38.528   7.796  12.440
25168W        W89376  37.893  40.523   2.768
25169W        W89377  40.432  23.093   4.149
25170W        W89378  43.486  14.239  14.827
25171W        W89379  24.574  12.271   0.775
25172W        W89380  26.545  11.267  14.381
25173W        W89381  24.208   9.342   3.367
25174W        W89382  36.533   7.204   0.323
25175W        W89383  23.564  20.694  13.517
25176W        W89384  10.281  21.055   0.734
25177W        W89385   5.353   0.403   0.266
25178W        W89386  12.178  32.028  12.462
25179W        W89387   8.810   1.895   1.234
25180W        W89388   0.825  35.559   4.735
25181W        W89389  14.163  34.540  12.347
25182W        W89390   0.344  11.669   2.280
25183W        W89391  17.653   2.306   3.252
25184W        W89392   3.797  18.552   4.145
25185W        W89393  16.682   7.883  13.009
25186W        W89394  10.174  36.924  10.477
25187W        W89395  13.187  25.548  10.411
25188W        W89396  19.076  37.916   3.215
25189W        W89397  22.240  10.299  14.835
25190W        W89398   5.913   1.861   4.282
25191W        W89399   8.676  39.368   1.254
25192W        W89400   1.423  26.972  12.944
25193W        W89401  36.592  41.427  14.486
25194W        W89402  40.907  22.676  10.931
25195W        W89403   6.843   9.825  11.063
25196W        W89404   8.774  13.298   2.808
25197W        W89405  14.179  44.916  14.493
25198W        W89406  29.538  32.462   4.701
25199W        W89407  22.660  26.104   3.348
25200W        W89408  33.539  12.765  14.458
25201W        W89409  37.434   1.273   1.781
25202W        W89410  10.843  37.925  12.883
25203W        W89411  26.078  17.614   4.299
25204W        W89412  16.632  38.911  14.895
25205W        W89413  32.520   8.762   4.162
25206W        W89414   9.252  21.106   3.741
25207W        W89415  21.195  37.543   0.897
25208W        W89416  14.116  39.484   3.759
25209W        W89417  38.041  19.561  13.913
25210W        W89418  10.871  37.977   4.268
25211W        W89419  29.063   8.691  13.378
25212W        W89420  38.350  30.659  12.967
25213W        W89421  23.591  32.513   3.191
25214W        W89422  16.173   0.917   4.187
25215W        W89423   9.223  15.714  12.064
25216W        W89424  40.871  16.082   3.322
25217W        W89425  31.913  13.763  14.348
25218W        W89426   3.293  32.544   2.727
25219W        W89427  16.728   7.727  13.326
25220W        W89428  17.670   2.894   0.483
25221W        W89429   6.259   4.904  11.575
25222W        W89430  21.567  20.269  14.949
25223W        W89431  33.560  14.329  11.972
25224W        W89432  23.062   8.285   0.918
25225W        W89433  24.115   4.442   0.840
25226W        W89434  29.015   5.755  10.539
25227W        W89435   3.927  26.092   4.353
25228W        W89436  10.180   9.259   3.295
25229W        W89437  14.765  38.892   2.232
25230W        W89438   0.304  12.733  11.567
25231W        W89439  34.026  42.411  11.030
25232W        W89440  32.427   6.908   4.196
25233W        W89441  12.296   8.728   0.479
25234W        W89442   0.486  15.745  13.825
25235W        W89443  13.696  23.177   1.918
25236W        W89444   5.433  15.620   2.284
25237W        W89445   4.764   5.783  13.861
25238W        W89446  29.980   6.817   1.770
25239W        W89447  19.269  22.642  13.061
25240W        W89448  14.164  36.436   3.383
25241W        W89449  34.574   3.851   0.800
25242W        W89450  37.893   6.693   0.800
25243W        W89451   0.331  18.098   1.249
25244W        W89452   4.321  36.588   0.375
25245W        W89453  44.263  24.075   4.748
25246W        W89454   0.971  15.771  13.794
25247W        W89455  32.919  35.978   0.400
25248W        W89456  39.854   4.340   3.760
25249W        W89457  13.675  22.587  10.523
25250W        W89458  11.186   1.840   2.210
25251W        W89459  16.105  13.198   3.632
25252W        W89460  44.009  18.067   1.234
25253W        W89461  12.629  15.651  11.938
25254W        W89462  14.096  10.648  12.521
25255W        W89463   0.935  37.045   5.257
25256W        W89464  17.724  22.708   2.723
25257W        W89465  39.909  33.617   3.837
25258W        W89466  21.753  19.699   9.601
25259W        W89467  28.097   2.469   2.223
25260W        W89468  41.792  26.701   5.167
25261W        W89469  37.579  40.447   3.678
25262W        W89470  15.255  11.153   1.924
25263W        W89471  37.526  39.344   1.220
25264W        W89472   3.939  26.955  10.641
25265W        W89473  44.403   8.751   2.834
25266W        W89474  20.143  27.634  12.833
25267W        W89475  39.507  19.598   4.784
25268W        W89476   3.904  23.157  13.982
25269W        W89477  21.679  38.947   4.818
25270W        W89478  28.492  33.382  14.412
25271W        W89479   3.934  20.247  13.020
25272W        W89480  23.022  11.282   3.663
25273W        W89481  41.297  35.372  13.404
25274W        W89482  12.752   0.886   2.739
25275W        W89483  32.959   8.382   2.873
25276W        W89484  34.045  38.888   2.227
25277W        W89485  39.857   6.209  10.589
25278W        W89486  34.434  38.023   1.770
25279W        W89487  13.185   2.471   4.132
25280W        W89488  37.477  17.767  13.821
25281W        W89489  10.859   7.680   1.307
25282W        W89490  39.936  43.921   0.751
25283W        W89491  15.607   1.379  11.586
25284W        W89492  12.180   0.433  11.600
25285W        W89493  24.095  44.363  13.961
25286W        W89494  20.690  21.159   0.257
25287W        W89495  38.335  10.676   0.258
25288W        W89496  11.209  28.143   3.185
25289W        W89497  38.344  18.063   1.870
25290W        W89498  31.404  26.629   2.266
25291W        W89499  35.970   3.836  14.770
25292W        W89500  25.986  23.489  14.277
25293W        W89501  22.018  38.469  13.391
25294W        W89502  27.123   7.737   2.296
25295W        W89503  41.456   5.261  11.896
25296W        W89504  41.007  18.223   4.239
25297W        W89505  27.130   0.889  14.862
25298W        W89506  17.147  43.831   0.430
25299W        W89507  40.023  39.377  14.491
25300W        W89508  17.080  41.345  13.895
25301W        W89509  20.582  15.263  13.446
25302W        W89510  32.417  11.652   2.289
25303W        W89511  20.629   0.346  11.473
25304W        W89512  26.150  42.410  13.425
25305W        W89513  44.354   8.850  10.140
25306W        W89514  42.921   8.263   1.862
25307W        W89515   7.388  40.799  14.974
25308W        W89516  32.084  26.491   4.332
25309W        W89517  33.481  42.512   3.833
25310W        W89518  10.273  33.995   1.757
25311W        W89519   7.895   4.810  10.500
25312W        W89520  10.810  19.558   0.946
25313W        W89521  25.603  14.137   3.293
25314W        W89522  39.440  39.519   1.830
25315W        W89523  34.577  13.632  12.360
25316W        W89524  11.773   5.322   3.761
25317W        W89525   5.413  38.997  14.967
25318W        W89526  33.466   8.694  12.425
25319W        W89527  21.724   3.342   0.334
25320W        W89528  42.310  38.513  13.508
25321W        W89529  30.928  30.651   4.739
25322W        W89530  34.033  15.675   0.803
25323W        W89531  35.084  33.097   1.795
25324W        W89532  19.136  17.603  14.393
25325W        W89533  33.413  30.442  14.827
25326W        W89534  42.495  34.509  12.019
25327W        W89535  32.914   3.315  10.507
25328W        W89536  25.490   4.755   0.394
25329W        W89537  13.105   1.901  11.475
25330W        W89538  10.340  42.925  13.906
25331W        W89539   0.835  24.989   1.906
25332W        W89540  26.001  19.108  13.881
25333W        W89541  37.937  25.041  11.501
25334W        W89542  40.419   8.766  13.372
25335W        W89543  35.500  26.629  13.327
25336W        W89544  30.618  26.123  11.074
25337W        W89545  37.379  34.568  11.100
25338W        W89546  43.980  18.748   1.717
25339W        W89547   3.777  35.004  10.114
25340W        W89548  10.757   9.208   1.233
25341W        W89549  39.808  30.945   0.952
25342W        W89550  11.156  33.464  11.084
25343W        W89551   3.762  10.279   0.789
25344W        W89552  38.889  10.186  11.553
25345W        W89553  42.835   8.811   0.735
25346W        W89554  44.781  33.900   0.758
25347W        W89555  14.742  39.477  11.382
25348W        W89556  33.566   0.319  14.490
25349W        W89557  16.149  28.064   1.807
25350W        W89558  22.166  16.209  12.497
25351W        W89559  15.234  32.418  14.919
25352W        W89560  23.209   2.751  14.514
25353W        W89561  25.690  27.555  12.878
25354W        W89562   2.911   2.388  10.021
25355W        W89563  29.976  30.514   3.198
25356W        W89564  36.542  22.509  10.507
25357W        W89565  27.518  26.630   3.254
25358W        W89566  16.223  38.401   2.880
25359W        W89567  39.448   3.831  11.877
25360W        W89568  44.288   3.802  11.923
25361W        W89569  28.520  41.482  11.487
25362W        W89570  36.460  19.778   0.401
25363W        W89571  23.051  33.004  11.927
25364W        W89572  35.915  42.371  11.102
25365W        W89573  25.597  11.319   4.194
25366W        W89574   9.277  22.567   2.312
25367W        W89575   7.380  10.216   2.842
25368W        W89576  22.608  41.800   3.177
25369W        W89577  27.546  44.976  12.921
25370W        W89578  10.735  33.546  13.469
25371W        W89579  26.971  39.964   2.748
25372W        W89580  17.660  42.475  14.873
25373W        W89581   6.793  16.300  12.520
25374W        W89582   7.793   3.727   1.330
25375W        W89583  21.695  41.435  12.933
25376W        W89584   1.358   4.860   0.418
25377W        W89585  29.552  20.147   2.821
25378W        W89586  15.808  15.707  12.078
25379W        W89587  40.889  37.472  13.393
25380W        W89588  18.194   4.270   5.318
25381W        W89589  16.654   2.410  14.779
25382W        W89590  32.122   1.928  14.882
25383W        W89591  23.991  23.047  13.459
25384W        W89592  17.637  19.624   4.666
25385W        W89593  42.387  41.472   2.226
25386W        W89594  20.564   5.782   1.224
25387W        W89595  39.485   2.365   1.242
25388W        W89596  29.943  10.668   1.263
25389W        W89597  42.370  34.894  10.905
25390W        W89598  23.232  31.522   4.659
25391W        W89599  12.129  24.185   1.811
25392W        W89600  36.953  42.794   1.903
25393W        W89601  40.547  19.773   0.929
25394W        W89602  27.688   9.855  13.040
25395W        W89603  26.482   4.858  14.930
25396W        W89604  34.372  22.241  12.915
25397W        W89605  14.669   5.782   2.236
25398W        W89606  32.125  30.552  14.340
25399W        W89607  19.555  41.340  12.879
25400W        W89608  27.621  38.499  12.566
25401W        W89609  34.068  10.180  11.930
25402W        W89610  11.137  21.138  13.844
25403W        W89611  14.273   1.969   3.332
25404W        W89612  30.975  13.681   0.877
25405W        W89613  39.455  32.017   1.381
25406W        W89614  41.926  27.583  11.589
25407W        W89615  16.775  41.857  14.358
25408W        W89616   7.286  36.921  12.558
25409W        W89617  30.943  27.175  11.506
25410W        W89618  36.461  24.489  14.847
25411W        W89619   0.345   6.691  13.541
25412W        W89620  29.956  41.989   3.378
25413W        W89621  20.031  17.782  14.905
25414W        W89622  22.091  17.694  11.884
25415W        W89623  30.065  19.673  12.455
25416W        W89624  16.786   7.739   2.284
25417W        W89625  39.387  34.082   1.821
25418W        W89626  39.544  17.556  12.892
25419W        W89627  20.058  28.949  14.383
25420W        W89628   3.904  24.172  11.857
25421W        W89629  11.342  38.015   0.894
25422W        W89630  17.096  16.644  10.976
25423W        W89631  36.978  12.191  11.520
25424W        W89632  22.563  35.013  11.077
25425W        W89633   9.835  16.756  13.053
25426W        W89634  34.998   3.843  13.509
25427W        W89635  41.464  34.502   0.839
25428W        W89636   4.345  31.511   4.835
25429W        W89637  20.614  31.131  14.313
25430W        W89638  36.480   1.818  12.340
25431W        W89639   1.878  29.560  11.385
25432W        W89640  18.190  28.961   4.232
25433W        W89641  42.520  43.942   2.315
25434W        W89642  15.164  43.443  14.015
25435W        W89643  14.218  26.583   4.133
25436W        W89644  40.924   5.693  12.919
25437W        W89645  17.097  28.124   4.836
25438W        W89646  32.617  24.016   0.246
25439W        W89647  19.764   4.206   1.273
25440W        W89648   8.394   0.876   4.327
25441W        W89649  23.213  10.836   4.191
25442W        W89650  17.066  24.093  10.995
25443W        W89651  12.778  39.901  11.066
25444W        W89652   9.681  22.179  11.547
25445W        W89653  12.851   5.731  13.442
25446W        W89654  20.629   4.260   4.275
25447W        W89655  13.220  21.045  12.062
25448W        W89656  35.861   6.344   3.845
25449W        W89657  18.664  44.382  11.568
25450W        W89658  24.697   8.743  10.547
25451W        W89659  10.787  21.742  13.063
25452W        W89660  15.295  43.790  14.925
25453W        W89661  15.605  20.529  12.362
25454W        W89662  44.812  36.445   4.331
25455W        W89663  24.010   7.810  14.942
25456W        W89664  23.218  33.487   0.285
25457W        W89665   8.685  10.213   2.248
25458W        W89666  30.492  18.778  10.968
25459W        W89667  22.596  33.451  10.973
25460W        W89668  19.110   0.257   0.339
25461W        W89669  10.691  16.575   1.802
25462W        W89670   8.379  35.955  13.508
25463W        W89671  27.636   0.844  13.390
25464W        W89672  22.608   5.762  13.430
25465W        W89673   1.737   4.745   2.745
25466W        W89674  34.406  17.143  11.394
25467W        W89675  31.416  32.096  14.977
25468W        W89676  35.479  27.489   1.822
25469W        W89677   9.390  22.089  11.867
25470W        W89678  17.633  39.938  10.124
25471W        W89679  24.601  39.388   1.711
25472W        W89680  18.677  40.531  12.876
25473W        W89681  33.556  41.861   2.243
25474W        W89682   5.885  23.721  11.115
25475W        W89683  34.547  14.146   4.121
25476W        W89684  26.681  20.547  11.935
25477W        W89685   5.819  23.237   2.334
25478W        W89686  24.701  29.474   1.696
25479W        W89687   3.356   4.894   5.234
25480W        W89688   8.208  38.334   3.657
25481W        W89689  40.947  37.399   1.375
25482W        W89690  43.498  12.204   0.474
25483W        W89691  35.971  13.762   2.778
25484W        W89692  42.925  41.993  12.026
25485W        W89693  34.082  39.463   4.837
25486W        W89694  12.283  22.558   4.227
25487W        W89695   8.825  22.065   0.248
25488W        W89696  27.123  34.486   2.403
25489W        W89697  43.338  35.932  10.933
25490W        W89698  25.984  13.319   1.810
25491W        W89699   3.377  37.937   1.761
25492W        W89700  15.311  30.119   4.120
25493W        W89701  25.534  15.135  12.953
25494W        W89702  11.812  21.160   1.861
25495W        W89703  21.522  11.634   4.180
25496W        W89704  42.875  16.079  12.870
25497W        W89705   8.394  36.553   3.724
25498W        W89706  37.970  26.959  11.413
25499W        W89707  40.448  35.030  12.853
25500W        W89708  21.703  37.444  10.512
25501W        W89709   8.164  35.869  10.597
25502W        W89710  11.807   3.383   0.750
25503W        W89711  17.643  32.605  14.355
25504W        W89712  43.018  26.154  14.344
25505W        W89713  32.548  31.424   4.825
25506W        W89714  37.887  13.719   2.798
25507W        W89715  27.580  11.314   2.253
25508W        W89716  26.552  36.502  13.512
25509W        W89717  11.159  14.257   0.442
25510W        W89718  26.998  38.960   2.414
25511W        W89719  13.763  24.131  11.458
25512W        W89720  21.096  34.500   4.320
25513W        W89721  36.381  32.971  12.557
25514W        W89722  32.919   2.846   2.684
25515W        W89723  22.684  17.571  12.830
25516W        W89724  38.418  32.421   4.169
25517W        W89725   7.849  39.391  13.035
25518W        W89726  16.675  24.055   4.694
25519W        W89727  24.055  18.174  11.859
25520W        W89728  17.677  40.449   2.863
25521W        W89729  39.345   8.372  11.891
25522W        W89730   3.266  34.025  14.483
25523W        W89731  43.845  38.539  14.850
25524W        W89732  16.171   9.645   4.773
25525W        W89733  15.606  19.238   3.258
25526W        W89734  29.978  41.292   0.296
25527W        W89735  37.519  38.050  13.361
25528W        W89736   2.348  32.118  12.825
25529W        W89737   7.779   8.402   3.802
25530W        W89738  35.370  38.872  14.899
25531W        W89739  42.438  42.995  11.372
25532W        W89740  42.519  16.175   2.324
25533W        W89741  24.636  33.116  11.128
25534W        W89742  37.380   6.393   5.168
25535W        W89743  39.368  20.715  11.586
25536W        W89744  29.013   6.699   0.839
25537W        W89745  19.613   1.320  10.496
25538W        W89746  19.622  36.086  12.413
25539W        W89747  26.679  30.562   0.466
25540W        W89748  16.127  17.708   2.682
25541W        W89749  34.418  23.056   0.917
25542W        W89750  30.115  14.750   0.782
25543W        W89751  30.500  29.477   2.312
25544W        W89752  11.693  27.143   2.295
25545W        W89753   8.834   0.484   2.889
25546W        W89754   9.668  15.325  12.401
25547W        W89755   7.911   5.273   3.812
25548W        W89756  21.059  44.834  10.554
25549W        W89757   1.879  37.840  10.549
25550W        W89758   1.308  36.856   2.776
25551W        W89759  24.092  18.157   2.214
25552W        W89760  43.996  13.243  10.594
25553W        W89761  20.234   5.262  14.332
25554W        W89762  30.414  36.449   2.714
25555W        W89763  40.389  39.825  13.416
25556W        W89764  37.360  31.482  11.922
25557W        W89765  11.340  39.454   3.804
25558W        W89766  20.631  16.681  13.867
25559W        W89767  41.408  13.792   0.899
25560W        W89768  15.266  31.114   0.404
25561W        W89769  12.647  14.796  10.929
25562W        W89770  20.538  14.750  12.884
25563W        W89771  16.315  44.488  11.053
25564W        W89772   1.316  18.711  14.308
25565W        W89773  28.473  32.964   2.183
25566W        W89774   8.358  21.143   2.674
25567W        W89775  39.542  13.339   2.802
25568W        W89776  33.592  24.664  14.360
25569W        W89777  12.317  23.642  14.889
25570W        W89778  18.774  29.452  14.856
25571W        W89779  10.196  27.018  11.077
25572W        W89780  25.210   2.292   0.885
25573W        W89781  14.148  40.002  11.111
25574W        W89782  19.600   3.929   0.781
25575W        W89783   0.876  40.347   0.347
25576W        W89784  14.314  36.519   0.877
25577W        W89785  14.132  42.513  10.498
25578W        W89786  20.746  16.222  14.310
25579W        W89787  31.429  24.036   4.150
25580W        W89788  16.575  43.868  14.358
25581W        W89789  10.213  34.581  13.891
25582W        W89790   8.306  26.082   4.604
25583W        W89791   6.746  32.954  14.512
25584W        W89792   2.259  18.766  10.548
25585W        W89793  38.874  43.953   2.327
25586W        W89794   3.862  29.584   3.652
25587W        W89795  16.229  42.516   1.777
25588W        W89796  12.649  32.609   3.695
25589W        W89797  14.762   1.769  14.815
25590W        W89798  26.703  35.419   4.662
25591W        W89799  14.099   8.308  14.986
25592W        W89800  31.441  34.955  11.403
25593W        W89801   2.417  22.045  12.955
25594W        W89802  28.137  41.318  13.922
25595W        W89803  11.140   7.333   4.616
25596W        W89804  36.363  44.947   4.208
25597W        W89805  22.170  44.288  13.510
25598W        W89806  12.706   1.935   1.931
25599W        W89807  23.034  10.792   2.357
25600W        W89808  35.875  17.679  12.891
25601W        W89809  41.883  14.128   0.322
25602W        W89810  41.308  10.656   3.299
25603W        W89811   7.787  35.858  12.502
25604W        W89812   6.686   2.317  13.499
25605W        W89813  22.154   0.481   4.719
25606W        W89814  26.034   3.930  11.922
25607W        W89815  38.453  40.411  10.896
25608W        W89816  10.190  35.010   4.763
25609W        W89817  19.186  32.393   3.367
25610W        W89818  31.602  43.926  14.360
25611W        W89819  39.517  35.436  13.878
25612W        W89820  42.993   0.824  14.354
25613W        W89821  10.263  12.618  10.532
25614W        W89822   7.234  25.149  10.429
25615W        W89823  10.813   3.712  13.017
25616W        W89824  40.370  18.613   0.291
25617W        W89825  17.062  16.147  10.415
25618W        W89826  30.612  24.512   0.329
25619W        W89827  34.555  38.373   2.303
25620W        W89828  15.712  28.537  13.473
25621W        W89829  32.903   3.785  13.847
25622W        W89830   8.398  27.552   2.338
25623W        W89831  20.103  27.034  13.831
25624W        W89832  35.383  16.611  10.573
25625W        W89833  26.535  41.007   1.925
25626W        W89834  41.989   1.395  12.905
25627W        W89835  16.774  34.440   3.838
25628W        W89836   9.245  29.578   4.658
25629W        W89837   5.811   3.427   0.448
25630W        W89838  39.475  37.488   4.228
25631W        W89839  29.077  14.666   9.643
25632W        W89840  15.132  15.816  14.475
25633W        W89841  34.976   0.985  13.960
25634W        W89842  15.159  24.641  13.420
25635W        W89843  39.907  13.347   4.809
25636W        W89844  42.492  40.048   3.780
25637W        W89845  44.978  20.167   0.267
25638W        W89846  18.676  34.000  13.396
25639W        W89847  24.486  13.252  12.513
25640W        W89848  38.519  35.909   3.645
25641W        W89849  33.991  40.356   3.816
25642W        W89850  25.694  40.984   0.283
25643W        W89851  18.113  17.222  13.031
25644W        W89852  41.530  40.844  12.526
25645W        W89853   5.929  37.540  14.514
25646W        W89854   6.776  25.706   0.419
25647W        W89855  39.937  30.156   0.405
25648W        W89856   8.810  41.932  13.808
25649W        W89857   1.420   6.313   4.347
25650W        W89858  27.563  26.154  12.437
25651W        W89859  34.109  21.075  12.878
25652W        W89860  15.629  25.621   3.273
25653W        W89861   9.824  28.144  10.417
25654W        W89862  35.087  17.211  14.500
25655W        W89863  27.649  42.927   1.327
25656W        W89864  19.630   7.668   2.312
25657W        W89865  43.330   2.286   3.723
25658W        W89866   1.336  22.640  10.426
25659W        W89867   5.385  14.802  14.799
25660W        W89868  42.474  24.549   1.269
25661W        W89869  22.163  33.917  11.459
25662W        W89870  32.533  30.633  13.059
25663W        W89871  38.374   0.881   1.793
25664W        W89872  14.821  12.281  11.887
25665W        W89873   1.285  38.905   1.389
25666W        W89874   6.825  15.286  13.353
25667W        W89875  33.598  20.689  11.920
25668W        W89876  28.983  44.791  14.993
25669W        W89877  31.010   5.787  13.471
25670W        W89878   4.400   3.723   1.924
25671W        W89879  37.463  20.749   1.738
25672W        W89880  42.970  18.693  11.949
25673W        W89881  38.445  36.847  10.547
25674W        W89882   7.818  11.216  11.955
25675W        W89883  42.499  10.293  12.559
25676W        W89884  19.559  16.293  13.519
25677W        W89885  33.059  36.378  14.917
25678W        W89886   9.340  25.612   1.328
25679W        W89887  28.620   1.464  13.395
25680W        W89888  24.493   7.197   1.264
25681W        W89889  43.328  17.632   1.781
25682W        W89890  17.195  27.018   2.351
25683W        W89891  26.049   8.690  13.342
25684W        W89892  19.592   0.903  13.809
25685W        W89893   5.870  33.483  14.895
25686W        W89894   2.338  41.892   2.701
25687W        W89895  14.699  36.417   2.252
25688W        W89896  36.855  24.061  13.523
25689W        W89897  42.827  27.571   3.331
25690W        W89898   8.292  40.405   0.848
25691W        W89899  43.832  32.627  13.495
25692W        W89900   1.829  34.118   3.637
25693W        W89901  17.655   5.900  12.410
25694W        W89902  27.615  15.325   2.258
25695W        W89903  26.952  26.134  10.918
25696W        W89904  18.582   4.418   4.292
25697W        W89905  31.511  19.743   2.257
25698W        W89906  42.981   3.721  11.412
25699W        W89907  13.147  12.222   2.745
25700W        W89908  19.170   3.902   4.348
25701W        W89909   1.885  18.148   0.792
25702W        W89910  29.035  43.775   4.838
25703W        W89911   4.368  16.085   4.147
25704W        W89912   8.794  28.092  12.985
25705W        W89913   7.313  21.183   4.200
25706W        W89914  10.311  38.539   1.410
25707W        W89915  28.591   1.747   3.254
25708W        W89916  30.162  24.650   0.938
25709W        W89917  17.147  44.417  10.012
25710W        W89918  36.395  41.978   1.420
25711W        W89919  35.030  10.359  14.500
25712W        W89920   8.309  28.950  13.325
25713W        W89921  15.273  25.604   2.814
25714W        W89922  33.907  38.360   4.739
25715W        W89923   2.805  37.487   3.674
25716W        W89924   4.335  31.515  10.486
25717W        W89925  29.516  29.623  11.463
25718W        W89926  37.934   2.263   2.768
25719W        W89927  17.255  23.700  12.415
25720W        W89928  41.940  36.880   0.815
25721W        W89929  15.594  35.458  12.069
25722W        W89930  29.545  26.079  12.575
25723W        W89931  33.451  19.551  11.524
25724W        W89932  22.240  28.109  11.612
25725W        W89933  42.931  16.772   3.693
25726W        W89934  12.268   1.913  12.912
25727W        W89935  19.674   8.235  14.019
25728W        W89936  28.168  36.508  11.547
25729W        W89937  10.282  40.508   5.181
25730W        W89938   9.675  14.129  11.507
25731W        W89939   0.491  12.295   1.392
25732W        W89940  16.789  16.720   3.195
25733W        W89941  23.131  18.256   0.467
25734W        W89942  20.703  44.965   3.385
25735W        W89943  34.043  14.760  12.000
25736W        W89944  26.044   9.288  10.418
25737W        W89945  16.777  24.498   2.405
25738W        W89946  40.515  27.053   4.830
25739W        W89947  16.616   0.960  12.416
25740W        W89948   3.913  30.421   3.719
25741W        W89949  11.682  21.035  11.571
25742W        W89950  11.303  10.311   0.258
25743W        W89951  11.327  35.936  12.886
25744W        W89952   1.311  37.338   5.170
25745W        W89953  23.152  27.027   0.965
25746W        W89954  18.111   6.893   2.741
25747W        W89955  28.494  19.759   1.748
25748W        W89956  28.122  29.566   2.668
25749W        W89957  24.710  11.755   0.408
25750W        W89958  17.260   5.910   1.725
25751W        W89959  39.057  43.374  11.029
25752W        W89960  19.685  32.088  11.393
25753W        W89961  22.542  23.647  14.849
25754W        W89962  21.590  42.922   3.275
25755W        W89963   7.284  15.268  13.055
25756W        W89964  30.592  15.685   3.821
25757W        W89965  28.574  35.456   3.250
25758W        W89966   0.787   9.368  12.359
25759W        W89967   6.764   7.213  11.523
25760W        W89968  30.587  35.071   4.730
25761W        W89969   4.405  27.093   3.831
25762W        W89970   5.292   6.890   2.279
25763W        W89971  26.053  30.933   3.217
25764W        W89972  30.544  40.538  13.828
25765W        W89973  44.882  16.186  12.891
25766W        W89974  10.691  27.674   4.228
25767W        W89975  27.536  41.922  13.021
25768W        W89976  17.061  29.005  12.396
25769W        W89977  18.278   3.915   2.325
25770W        W89978   3.745  13.698   2.412
25771W        W89979  37.076  14.245   1.233
25772W        W89980   4.266  27.087  13.026
25773W        W89981  11.265   9.385   0.942
25774W        W89982  10.266  12.318  13.345
25775W        W89983  33.894  30.530   2.805
25776W        W89984  11.730  42.439  14.355
25777W        W89985  26.523  12.192  11.916
25778W        W89986  19.044   6.363   4.293
25779W        W89987  39.510   1.389   4.352
25780W        W89988  32.069  11.247   2.261
25781W        W89989  22.606  38.910   5.320
25782W        W89990  20.069  34.537  12.927
25783W        W89991   4.798  19.713  11.902
25784W        W89992  14.241  21.206   3.681
25785W        W89993  38.852  29.001  14.438
25786W        W89994  35.522  28.681  12.369
25787W        W89995  32.539   4.350   2.684
25788W        W89996  34.007  23.627  12.038
25789W        W89997  33.874  20.571   2.845
25790W        W89998  29.555  41.884  10.581
25791W        W89999   1.408  25.043   2.897
25792W        W90000  44.366  16.144   1.918
25793W        W90001  30.136  16.123   2.397
25794W        W90002  10.654   4.898   0.897
25795W        W90003   3.748  10.213   4.302
25796W        W90004  35.884   2.243   4.644
25797W        W90005  15.812  33.540   2.246
25798W        W90006  25.621  27.127  14.932
25799W        W90007   2.400  26.159  11.536
25800W        W90008  22.704  16.731  14.773
25801W        W90009  19.671  20.669  14.011
25802W        W90010  41.009  37.407  12.471
25803W        W90011   9.750  28.552  13.030
25804W        W90012  37.530  42.385   0.443
25805W        W90013  26.679   5.800  12.371
25806W        W90014   1.747  26.468   2.319
25807W        W90015  43.449   4.338   2.379
25808W        W90016  33.516  42.898  11.117
25809W        W90017  40.969   6.316   0.260
25810W        W90018  37.366  21.062  14.323
25811W        W90019  23.729  37.348   0.394
25812W        W90020  41.331   5.836   4.652
25813W        W90021  27.134   8.358   0.281
25814W        W90022  39.446  27.151  10.459
25815W        W90023   2.793  18.631  11.493
25816W        W90024  23.701  33.875   4.723
25817W        W90025  13.329  38.544  12.454
25818W        W90026  44.348   1.288   4.220
25819W        W90027   4.872  13.131   0.320
25820W        W90028  43.769  25.193   4.817
25821W        W90029  10.259  15.679   3.824
25822W        W90030  31.625  19.572  12.364
25823W        W90031   0.370  21.212   1.451
25824W        W90032  13.256  16.280  12.348
25825W        W90033   9.230   1.764   0.457
25826W        W90034  22.659  38.935  10.986
25827W        W90035  34.927  16.311  10.916
25828W        W90036  23.074  29.608  12.347
25829W        W90037  34.383  21.021   3.212
25830W        W90038  43.286  25.165  12.984
25831W        W90039  29.065  35.396  13.884
25832W        W90040  18.205  16.110   3.364
25833W        W90041  31.025  22.149   4.344
25834W        W90042   2.768   4.449  13.468
25835W        W90043   0.822  42.856   2.839
25836W        W90044   6.348  42.345   1.793
25837W        W90045   8.777  33.990  12.442
25838W        W90046  18.193  26.688   4.306
25839W        W90047  38.394  20.101  12.466
25840W        W90048  31.072  34.550   1.280
25841W        W90049   3.782  24.706   4.247
25842W        W90050  44.798  12.303  12.933
25843W        W90051  18.702  26.114   2.696
25844W        W90052  41.967  21.664  13.957
25845W        W90053  36.985   3.829  12.463
25846W        W90054  19.199  38.925   3.671
25847W        W90055   0.876  39.897  11.085
25848W        W90056  44.407  33.067  12.088
25849W        W90057  17.220   9.297  10.941
25850W        W90058   2.824  15.272  12.472
25851W        W90059  15.818  22.639   2.205
25852W        W90060   2.228  24.140  12.040
25853W        W90061  20.040  44.805  13.006
25854W        W90062  21.084  44.376  12.382
25855W        W90063  38.333  23.182   4.796
25856W        W90064   4.779  33.092  11.868
25857W        W90065   4.296   8.693  12.381
25858W        W90066  28.099   8.750  14.954
25859W        W90067  20.729   9.765   2.331
25860W        W90068   4.414   1.395  10.895
25861W        W90069   1.806  26.659   2.884
25862W        W90070   2.361  20.233   1.295
25863W        W90071  18.107  23.123  12.407
25864W        W90072   2.468   3.873   3.342
25865W        W90073  12.689  13.113  11.963
25866W        W90074  23.207  11.330  13.524
25867W        W90075   7.404  43.814   3.636
25868W        W90076  24.664  34.087   3.790
25869W        W90077  17.192  30.054   4.663
25870W        W90078  30.463   6.741   2.885
25871W        W90079   8.249   3.851   1.876
25872W        W90080  17.103   9.351  12.940
25873W        W90081   3.740  30.499  14.905
25874W        W90082  26.169  18.097   3.318
25875W        W90083   3.910  37.367  10.974
25876W        W90084  31.988  44.298   3.242
25877W        W90085   2.888  38.862   4.234
25878W        W90086  34.539   7.198  13.437
25879W        W90087  22.664  16.213  11.448
25880W        W90088   7.754  16.152   0.325
25881W        W90089  14.341  33.620   0.346
25882W        W90090  32.140  29.620   4.251
25883W        W90091  25.029   3.289  14.906
25884W        W90092   6.793   9.697   4.767
25885W        W90093   7.683  10.815  11.921
25886W        W90094  40.339  44.785   1.760
25887W        W90095  14.098  12.172   3.866
25888W        W90096  40.511  13.754  14.015
25889W        W90097  23.706  13.135   4.779
25890W        W90098   7.861  29.640  10.957
25891W        W90099  29.457  19.245   3.782
25892W        W90100   4.887   0.428   2.414
25893W        W90101   3.749  24.132   0.796
25894W        W90102   8.797  14.114  14.428
25895W        W90103  22.507  20.750   4.221
25896W        W90104  21.534  43.782  11.923
25897W        W90105  41.373   9.811  14.894
25898W        W90106  33.965  35.030  11.990
25899W        W90107  40.507  11.753   1.918
25900W        W90108   2.753  14.323   4.789
25901W        W90109  11.845  33.883  12.542
25902W        W90110  42.814  27.634   2.319
25903W        W90111   5.372  15.305   0.835
25904W        W90112  39.886  36.926  11.960
25905W        W90113  39.917  40.381  13.430
25906W        W90114  36.845  18.207  13.824
25907W        W90115  16.132  20.580   4.238
25908W        W90116  16.746  42.956  12.999
25909W        W90117  25.613  13.186   1.702
25910W        W90118  33.394  20.097  10.525
25911W        W90119  20.239  25.501   3.157
25912W        W90120  11.831  18.604   4.628
25913W        W90121  42.306  17.128  13.400
25914W        W90122  28.146   2.828   4.225
25915W        W90123   1.254  41.497  10.406
25916W        W90124  29.518  39.886   2.748
25917W        W90125   1.871  22.127  14.795
25918W        W90126   7.790  40.450  13.502
25919W        W90127  11.332  33.382   4.279
25920W        W90128  20.088  13.791  11.561
25921W        W90129  38.020  18.141   1.384
25922W        W90130  11.215  23.513   4.679
25923W        W90131  41.837  22.528   4.749
25924W        W90132   7.354  36.558  14.794
25925W        W90133  39.034   0.780   3.767
25926W        W90134  37.070  12.198  10.626
25927W        W90135  18.729  31.552  13.546
25928W        W90136   0.411  41.345  10.422
25929W        W90137  14.118   7.899  13.536
25930W        W90138  26.606   9.821  11.100
25931W        W90139  30.428  42.423   1.767
25932W        W90140  28.151  39.334  10.919
25933W        W90141  10.325  42.815   4.134
25934W        W90142   3.818  27.083   1.933
25935W        W90143  29.937  26.539   0.392
25936W        W90144   2.335  17.608  11.480
25937W        W90145  11.710   9.704  14.774
25938W        W90146  25.178  23.034  14.505
25939W        W90147  38.383  40.354  11.571
25940W        W90148   6.291  14.253   0.374
25941W        W90149  14.313  42.945   2.333
25942W        W90150   6.186   6.687  11.508
25943W        W90151  32.510   3.852   4.153
25944W        W90152  39.006   9.689  11.407
25945W        W90153   8.746  11.746  14.418
25946W        W90154  34.426  20.195  14.925
25947W        W90155  41.958  33.952  13.841
25948W        W90156   7.404  21.589   0.336
25949W        W90157  23.033  34.425  10.494
25950W        W90158   7.682  12.282   1.349
25951W        W90159  26.592  18.753  12.574
25952W        W90160   5.278  38.898   0.867
25953W        W90161  23.184  19.076   4.788
25954W        W90162  14.210   9.212  12.482
25955W        W90163   5.243  35.471  11.066
25956W        W90164  14.307  38.853   1.752
25957W        W90165  31.037  42.382  11.457
25958W        W90166  31.948  40.898   5.251
25959W        W90167  16.174  41.516  13.517
25960W        W90168  23.219  34.033   4.186
25961W        W90169   5.243  10.257   4.145
25962W        W90170  24.479   4.217  11.394
25963W        W90171   7.808  23.570   3.830
25964W        W90172  25.996  13.210   2.313
25965W        W90173  42.466  37.837  12.844
25966W        W90174   8.761  44.291   1.887
25967W        W90175  30.624  11.304   2.856
25968W        W90176  35.038  44.826  14.496
25969W        W90177  16.776   9.890  13.054
25970W        W90178  15.126  39.841  13.794
25971W        W90179  15.278  33.960  10.612
25972W        W90180  29.949  26.687  10.448
25973W        W90181  43.365  18.639   0.729
25974W        W90182  31.420  17.281  11.379
25975W        W90183  23.989  13.810  11.022
25976W        W90184  33.942  28.645   4.737
25977W        W90185  34.977  16.653   2.205
25978W        W90186  14.835  35.360   0.341
25979W        W90187  15.723  30.538  14.462
25980W        W90188   3.451  10.194   0.403
25981W        W90189  36.573  42.307  13.357
25982W        W90190  26.613  41.517   4.828
25983W        W90191  39.959  17.673   4.203
25984W        W90192  14.730  44.785   1.897
25985W        W90193   4.264  21.224  13.825
25986W        W90194  38.522  44.470   0.824
25987W        W90195  34.457  10.234  14.002
25988W        W90196  40.896   5.770   9.653
25989W        W90197  10.712  34.544   2.740
25990W        W90198  14.109  24.211   2.775
25991W        W90199   0.329  33.083   5.111
25992W        W90200  11.300   3.904   1.925
25993W        W90201  28.071  20.246   5.310
25994W        W90202  13.184  25.033   5.102
25995W        W90203  20.040  37.901   5.265
25996W        W90204  37.838  23.730   4.813
25997W        W90205  30.143  44.975  11.102
25998W        W90206   3.815  26.507   4.168
25999W        W90207  36.541   3.383   0.421
26000W        W90208  37.478   5.860  13.059
26001W        W90209  29.145  22.157   3.218
26002W        W90210  38.819  44.352  12.361
26003W        W90211  37.079  29.966   1.284
26004W        W90212  44.761  25.051   1.401
26005W        W90213  40.469  10.684   1.848
26006W        W90214  37.582  16.605  12.031
26007W        W90215  23.030  23.174  13.808
26008W        W90216  36.846  33.382  12.363
26009W        W90217  44.405  22.075  13.890
26010W        W90218   5.280   8.896   0.299
26011W        W90219   0.914   8.798   2.721
26012W        W90220  14.651   8.291  13.799
26013W        W90221  44.501  19.238  11.573
26014W        W90222  37.925  36.000  13.841
26015W        W90223  22.098   0.391  10.635
26016W        W90224  13.128  17.151  10.069
26017W        W90225  31.620  26.607  10.057
26018W        W90226  44.846  33.440   3.653
26019W        W90227  29.634   1.326   0.830
26020W        W90228  11.694  35.044  12.844
26021W        W90229  34.950  23.512   1.396
26022W        W90230  35.476  10.370  14.022
26023W        W90231  22.738  34.461  11.984
26024W        W90232  33.931  16.730  14.365
26025W        W90233   1.236  27.005  11.601
26026W        W90234   8.779  42.385   3.163
26027W        W90235  11.673  32.127  11.585
26028W        W90236  37.513   8.727  13.996
26029W        W90237  24.499  25.134   0.309
26030W        W90238  38.944  35.971  10.922
26031W        W90239  35.960  17.111   2.742
26032W        W90240  35.013  32.578   3.739
26033W        W90241  12.336  25.994   2.235
26034W        W90242  24.111  19.664  13.020
26035W        W90243  28.971  32.556  13.904
26036W        W90244  31.952  40.492   2.687
26037W        W90245  26.662  30.502  10.522
26038W        W90246  28.566  41.465  13.927
26039W        W90247   8.720  24.097  11.562
26040W        W90248  27.062  29.549  10.120
26041W        W90249  23.155   1.373   4.213
26042W        W90250  21.139  44.381  13.428
26043W        W90251   4.780  21.241   3.668
26044W        W90252  11.789  24.227  14.839
26045W        W90253  40.934  12.667   1.774
26046W        W90254  12.628   4.899   3.859
26047W        W90255  39.490  14.292   3.833
26048W        W90256   3.893  12.852  10.918
26049W        W90257  39.857   7.374   1.403
26050W        W90258  32.526   0.842   1.244
26051W        W90259  36.945  16.651  14.840
26052W        W90260  22.654  16.201   0.370
26053W        W90261  29.481   9.693   4.147
26054W        W90262  29.041  41.309   0.853
26055W        W90263  23.166  25.970   1.419
26056W        W90264  30.989  12.290  12.967
26057W        W90265  27.944  31.024   1.695
26058W        W90266  20.657  43.307   3.680
26059W        W90267  21.116  42.802  11.525
26060W        W90268  33.081  32.143  10.127
26061W        W90269  18.289  10.865  14.302
26062W        W90270   4.225  23.105   0.447
26063W        W90271  41.444  21.624  11.479
26064W        W90272   7.271  31.116   4.690
26065W        W90273  33.968   7.234  10.478
26066W        W90274   8.858  44.912  12.376
26067W        W90275  25.187   1.779  11.940
26068W        W90276   5.934  25.017   2.866
26069W        W90277  12.162  18.620  14.944
26070W        W90278  36.579  17.568   3.270
26071W        W90279  12.116  41.821  12.964
26072W        W90280  10.334  36.541  10.423
26073W        W90281  44.795  20.123  14.890
26074W        W90282   5.280  14.167  11.429
26075W        W90283  41.832  11.279  11.531
26076W        W90284   8.357   3.433   2.685
26077W        W90285  14.794  32.469  14.453
26078W        W90286   4.421  33.406  11.994
26079W        W90287  34.961  42.016  10.952
26080W        W90288   3.256   0.352   0.474
26081W        W90289   0.365  16.239   3.648
26082W        W90290  32.132   6.398   0.336
26083W        W90291  28.072   0.830  14.847
26084W        W90292  18.195   3.750  11.917
26085W        W90293  24.196  23.719   0.331
26086W        W90294  11.236  29.530   3.302
26087W        W90295  24.989  31.976   3.290
26088W        W90296  22.128  39.978   0.828
26089W        W90297   7.798  34.500   3.153
26090W        W90298  27.503   0.390   4.342
26091W        W90299   1.414  23.069   2.280
26092W        W90300   6.300  21.028   4.766
26093W        W90301  31.608  38.379  14.904
26094W        W90302   2.444  22.134  11.540
26095W        W90303  37.516  29.471  13.859
26096W        W90304  32.580  38.373  12.512
26097W        W90305  21.209  24.684  12.446
26098W        W90306  32.946   6.308   0.436
26099W        W90307   5.884  12.683   2.887
26100W        W90308  39.474  14.213   2.257
26101W        W90309  27.593  38.847   3.663
26102W        W90310  32.936  12.246   1.247
26103W        W90311   4.289  27.528   1.291
26104W        W90312  44.263   5.847   1.766
26105W        W90313  35.037  31.647   3.338
26106W        W90314  36.871  26.143   0.442
26107W        W90315  32.998   2.432  12.059
26108W        W90316  35.100  37.414  14.417
26109W        W90317  27.514  36.354  12.471
26110W        W90318  40.865   9.793   2.901
26111W        W90319   6.764   9.669   2.397
26112W        W90320  39.868  14.592   1.401
26113W        W90321  24.567  27.044  13.429
26114W        W90322  19.186  16.729   4.717
26115W        W90323  28.494  17.134   0.760
26116W        W90324  19.059  23.181  11.074
26117W        W90325  37.337  13.230  14.500
26118W        W90326  36.988  33.382  13.955
26119W        W90327  40.312  38.885   3.288
26120W        W90328  28.121   5.249   3.364
26121W        W90329  15.281  38.012   0.392
26122W        W90330   0.988  43.860   3.725
26123W        W90331  39.369  22.640  10.019
26124W        W90332  41.806  30.441   2.686
26125W        W90333   5.764   3.788   4.698
26126W        W90334  34.016  36.505   3.635
26127W        W90335  38.486  37.844   2.340
26128W        W90336  28.510  29.516   2.838
26129W        W90337  19.268  18.261  13.472
26130W        W90338  21.665   7.330   0.787
26131W        W90339  44.497  21.161  12.444
26132W        W90340   2.261  22.189  12.050
26133W        W90341  14.642  19.757   3.788
26134W        W90342  25.008   0.922   5.097
26135W        W90343  28.151  27.063  11.420
26136W        W90344  31.056  32.975  13.312
26137W        W90345  18.548  30.977   3.650
26138W        W90346  41.969  23.647  11.570
26139W        W90347  34.107  26.575  10.642
26140W        W90348  42.023   4.442   4.147
26141W        W90349   3.887  42.819  11.385
26142W        W90350  44.432  14.597   0.749
26143W        W90351   5.809  14.625  12.058
26144W        W90352   8.892  24.552   4.289
26145W        W90353  16.309  32.601  11.530
26146W        W90354  21.040   7.720  13.455
26147W        W90355  31.990  21.553  13.848
26148W        W90356  13.287  16.175   2.281
26149W        W90357  10.217   1.960   4.719
26150W        W90358  38.016  35.452   2.400
26151W        W90359  20.590  36.907  12.526
26152W        W90360  34.940  40.976  11.961
26153W        W90361  29.616  27.619  13.040
26154W        W90362  32.927  29.534  10.976
26155W        W90363   1.338  42.355  11.985
26156W        W90364  29.162   9.864  14.432
26157W        W90365  42.996  29.006   3.642
26158W        W90366  30.027  29.093   4.831
26159W        W90367  37.897  19.780   4.624
26160W        W90368  19.591  30.552  12.470
26161W        W90369   4.853  38.037   3.822
26162W        W90370  14.674  18.188  13.040
26163W        W90371  30.435  13.185   2.395
26164W        W90372  44.816  27.564   2.280
26165W        W90373  34.517  31.125  14.318
26166W        W90374  40.338  39.825   4.821
26167W        W90375  43.441  31.962  10.970
26168W        W90376   9.744  11.314   9.577
26169W        W90377   2.833  26.034  14.455
26170W        W90378  10.798  31.145   0.955
26171W        W90379  33.442   6.723  14.919
26172W        W90380  21.555  11.824  12.496
26173W        W90381  11.708   4.888   0.846
26174W        W90382  43.486  14.277  13.863
26175W        W90383  18.179   6.377  14.315
26176W        W90384  43.399   0.302  13.317
26177W        W90385  42.797  40.471   1.709
26178W        W90386   3.928  18.554   0.465
26179W        W90387  17.776  16.764  11.076
26180W        W90388  40.451  37.087  14.514
26181W        W90389   4.319  28.601   0.385
26182W        W90390  19.106   3.732   3.690
26183W        W90391  17.618  35.970  13.038
26184W        W90392   8.869  24.093  13.937
26185W        W90393  42.886   3.294  10.992
26186W        W90394  36.949  31.627  13.471
26187W        W90395   9.685   2.933   2.835
26188W        W90396  20.075   6.369  13.968
26189W        W90397  10.279   9.765   0.837
26190W        W90398  35.434   9.212  12.942
26191W        W90399  38.462  24.122  11.372
26192W        W90400  13.825  13.757   4.770
26193W        W90401  24.690  29.091   1.426
26194W        W90402  22.647  28.179   3.355
26195W        W90403   5.708   4.375   4.687
26196W        W90404  38.355  25.048   0.262
26197W        W90405  28.670   2.843   3.642
26198W        W90406  22.564  14.834  10.042
26199W        W90407   5.401  24.217  13.383
26200W        W90408  16.194  18.558  13.380
26201W        W90409  22.079  37.848   2.217
26202W        W90410   2.390   3.896  12.827
26203W        W90411  16.598  10.633  12.569
26204W        W90412   4.409   2.743  12.850
26205W        W90413   1.747  32.606  10.430
26206W        W90414   3.371  10.382  12.996
26207W        W90415  13.798  20.235   0.307
26208W        W90416   8.356  25.169  10.988
26209W        W90417  28.153  30.449  13.420
26210W        W90418  23.560  31.937  12.025
26211W        W90419  39.505  29.162  11.496
26212W        W90420  15.599  37.024   3.650
26213W        W90421  15.155   1.877  13.820
26214W        W90422  18.757  41.021   3.266
26215W        W90423   9.170  35.971  10.575
26216W        W90424  23.724   0.327   0.751
26217W        W90425  22.166   0.258  14.948
26218W        W90426  15.707  29.645  12.971
26219W        W90427   1.302   6.214   0.798
26220W        W90428  10.349  32.132   0.315
26221W        W90429  20.259  23.200   4.762
26222W        W90430  39.531   0.850  14.778
26223W        W90431  12.174  44.849  11.963
26224W        W90432   4.746   7.368  10.108
26225W        W90433   7.217  39.438   2.705
26226W        W90434  26.043  30.629   1.244
26227W        W90435  11.675  25.194  12.457
26228W        W90436   9.355   3.869   2.266
26229W        W90437  20.188  32.409   1.766
26230W        W90438  41.421  23.683  11.448
26231W        W90439  29.938  27.022  13.001
26232W        W90440  26.153  22.126  13.847
26233W        W90441  26.518  14.744  14.014
26234W        W90442  32.901  22.249   3.232
26235W        W90443  32.527  43.776   1.403
26236W        W90444  21.609   4.320  12.884
26237W        W90445  23.511  12.760  12.473
26238W        W90446   4.884   0.779   4.698
26239W        W90447  39.946   7.398   3.289
26240W        W90448   4.766  15.182   4.317
26241W        W90449   6.381  27.027  12.574
26242W        W90450  34.919   2.342  13.501
26243W        W90451   0.255  36.420   5.123
26244W        W90452  18.252  22.560  14.384
26245W        W90453  41.303  29.035   1.933
26246W        W90454  28.157  10.858   3.674
26247W        W90455  13.665  37.929  10.555
26248W        W90456  17.090  42.872  13.334
26249W        W90457  17.770  21.684   4.354
26250W        W90458   8.356   1.407   1.925
26251W        W90459   7.694  42.510   2.762
26252W        W90460  39.495   5.701   3.845
26253W        W90461  31.526  34.926  14.954
26254W        W90462  15.149  16.778   0.300
26255W        W90463  22.731  44.504  14.512
26256W        W90464  22.028  10.358  13.353
26257W        W90465  15.275  16.639  12.384
26258W        W90466  19.212  27.454   4.197
26259W        W90467   1.782   4.222   1.220
26260W        W90468   1.293  10.373   1.738
26261W        W90469  35.424   4.897  11.450
26262W        W90470   4.890  24.104  13.478
26263W        W90471  29.946  24.700   2.294
26264W        W90472   2.763   0.882  14.377
26265W        W90473  43.957  17.286  12.845
26266W        W90474  24.676  32.609  13.977
26267W        W90475  39.002  20.675   0.955
26268W        W90476  22.247  30.607  11.999
26269W        W90477  28.633  24.036   4.787
26270W        W90478  22.213  38.390   2.741
26271W        W90479  41.407  13.196  11.545
26272W        W90480  23.033  37.875  12.502
26273W        W90481  44.278  17.722   1.340
26274W        W90482   7.212  26.601  14.427
26275W        W90483  24.193  17.171   3.253
26276W        W90484  27.072  40.022   1.366
26277W        W90485  15.246  34.067  14.282
26278W        W90486  22.650   0.853  14.783
26279W        W90487  19.716  36.006  11.972
26280W        W90488   9.306   3.918   4.706
26281W        W90489   6.195  36.558   1.797
26282W        W90490  27.093  26.197  10.429
26283W        W90491   6.844  33.948   4.798
26284W        W90492  27.584  36.504  14.831
26285W        W90493  11.654  26.563   2.367
26286W        W90494  28.147  20.112  10.435
26287W        W90495  27.099  14.277  11.002
26288W        W90496  21.524  38.911   4.228
26289W        W90497  27.088  21.713  10.503
26290W        W90498   1.899  12.707  10.973
26291W        W90499   6.182  44.816   0.376
26292W        W90500  43.803  28.986  14.766
26293W        W90501   2.770  36.003  14.993
26294W        W90502  12.789  21.201  13.941
26295W        W90503  17.227  37.405   0.244
26296W        W90504  26.551  40.978   3.373
26297W        W90505  34.024  12.143  14.503
26298W        W90506  23.033   0.478   0.846
26299W        W90507  38.981  39.342   1.354
26300W        W90508  32.482  20.235   3.763
26301W        W90509   8.243  35.482  14.351
26302W        W90510   8.399  30.045   1.264
26303W        W90511   4.213  19.657  13.805
26304W        W90512  27.014  23.571  14.823
26305W        W90513   8.675  20.209   0.933
26306W        W90514  29.030  20.232   3.697
26307W        W90515  38.943  10.691   0.330
26308W        W90516   4.943  13.113   3.711
26309W        W90517  11.805  28.576  14.788
26310W        W90518  25.209  13.823   4.130
26311W        W90519  18.228   3.953  14.493
26312W        W90520  41.407   0.370  10.995
26313W        W90521   3.868   3.331   2.726
26314W        W90522  18.572  43.773   4.313
26315W        W90523  41.475  35.925  13.414
26316W        W90524  20.106   4.319   1.736
26317W        W90525  33.958  44.771   3.846
26318W        W90526  31.539   0.794  11.549
26319W        W90527   8.186  29.125   1.452
26320W        W90528   0.332  40.908   4.814
26321W        W90529  32.961  17.587   3.185
26322W        W90530  30.589  35.460   4.783
26323W        W90531   1.912   1.877   2.827
26324W        W90532  25.611  38.480  10.607
26325W        W90533  20.167  30.049   1.887
26326W        W90534  35.365  33.462   0.407
26327W        W90535  16.574  11.313   1.903
26328W        W90536  28.498  26.490   2.281
26329W        W90537  15.237  39.438  11.560
26330W        W90538  17.188  32.891   2.877
26331W        W90539  10.306  12.838  14.882
26332W        W90540  32.618  23.025  12.361
26333W        W90541  22.692   3.366  13.000
26334W        W90542  30.435   5.434  11.599
26335W        W90543  24.639  36.427  12.411
26336W        W90544  19.103  37.066   4.700
26337W        W90545  13.289  37.555  13.854
26338W        W90546  38.388  33.506   1.922
26339W        W90547  26.670  29.144   4.116
26340W        W90548  36.567  23.006   4.164
26341W        W90549  10.337  39.317   3.198
26342W        W90550  28.142   7.225  13.028
26343W        W90551  22.735  18.063  10.009
26344W        W90552  27.482   8.687   4.248
26345W        W90553  20.149  39.473  13.963
26346W        W90554  36.960  15.266   0.300
26347W        W90555  33.984  11.669   1.694
26348W        W90556  39.916   6.240  11.413
26349W        W90557   9.739  31.526  12.895
26350W        W90558  14.280  36.897  11.066
26351W        W90559  18.137  42.447   1.359
26352W        W90560   3.728  40.002   1.826
26353W        W90561  29.110  16.116   1.812
26354W        W90562  21.539   7.863   0.938
26355W        W90563  40.820  28.033  14.767
26356W        W90564  21.174   1.460   1.816
26357W        W90565  14.834  27.130  13.466
26358W        W90566  12.613   6.333  12.413
26359W        W90567  10.224  44.371  10.614
26360W        W90568  12.805  10.731   0.265
26361W        W90569  42.795  17.215  14.346
26362W        W90570  24.103   3.432   4.301
26363W        W90571  16.626  43.967   0.305
26364W        W90572  38.996   8.868  12.094
26365W        W90573  17.292   4.248   4.160
26366W        W90574  35.542  17.304  13.912
26367W        W90575  12.760  24.677   4.613
26368W        W90576  16.631  19.584  13.357
26369W        W90577   8.802  26.163  12.348
26370W        W90578   6.898  42.828  10.556
26371W        W90579   6.218   0.804   4.671
26372W        W90580   6.239  35.010   1.310
26373W        W90581   8.254  27.460  13.426
26374W        W90582  23.667  29.929  11.126
26375W        W90583  27.057  13.128  13.455
26376W        W90584  17.584  16.743   0.868
26377W        W90585  11.213  20.100  14.445
26378W        W90586   7.405   6.888  10.973
26379W        W90587   9.149  22.605  10.483
26380W        W90588  28.162  21.217  11.415
26381W        W90589  38.930  36.861   4.609
26382W        W90590  22.016  42.820  12.397
26383W        W90591   0.908  25.547   3.145
26384W        W90592  37.454  27.508  12.405
26385W        W90593  13.228  11.180  14.420
26386W        W90594  20.713  38.439   3.241
26387W        W90595  32.022  16.667  11.564
26388W        W90596  23.668  14.798  12.520
26389W        W90597  24.976  13.258   3.722
26390W        W90598  25.082   2.405   0.320
26391W        W90599  19.769  28.059  14.924
26392W        W90600  27.525   5.329  11.066
26393W        W90601  17.213  17.653   2.749
26394W        W90602  43.843  13.273  13.927
26395W        W90603   1.902  11.669  14.760
26396W        W90604  38.051  43.299  13.959
26397W        W90605  29.019  13.825  10.612
26398W        W90606   4.803  40.423   5.308
26399W        W90607  12.645  19.182  12.889
26400W        W90608  26.569   9.208   1.223
26401W        W90609   0.279  34.440  12.999
26402W        W90610  27.178  24.006   4.641
26403W        W90611   7.849  27.052  12.526
26404W        W90612  28.118   8.765  12.879
26405W        W90613   7.268   6.397   0.261
26406W        W90614  19.212  43.271   3.707
26407W        W90615  36.071  29.554  10.493
26408W        W90616  16.295  27.031   1.893
26409W        W90617  28.503  39.479  11.554
26410W        W90618   9.711  35.470  11.922
26411W        W90619  12.184  25.675  14.345
26412W        W90620  29.092   2.795   0.329
26413W        W90621   8.320  27.140  14.872
26414W        W90622  41.842  43.976  14.468
26415W        W90623  22.581  28.158   2.681
26416W        W90624  16.252  21.257  11.105
26417W        W90625  33.588  26.187   1.306
26418W        W90626   0.957   2.348  11.568
26419W        W90627   6.208  20.265  13.428
26420W        W90628   3.274  38.386  14.824
26421W        W90629   7.386  32.510   2.360
26422W        W90630  22.634  22.216  11.969
26423W        W90631   6.255  34.111   0.396
26424W        W90632  14.158   8.787   1.915
26425W        W90633  25.641  13.147  11.389
26426W        W90634  16.732   1.762  13.947
26427W        W90635  17.619  43.434   1.837
26428W        W90636  19.108  19.763   1.365
26429W        W90637  32.934   3.252   4.171
26430W        W90638  37.397   0.274  14.031
26431W        W90639  43.376   6.717  14.418
26432W        W90640   3.425  11.353  14.946
26433W        W90641  28.633  29.160   4.653
26434W        W90642  35.918  41.296  11.986
26435W        W90643  43.801  37.520   3.846
26436W        W90644  28.122  31.933  10.922
26437W        W90645  16.307  42.865   4.292
26438W        W90646  33.892  23.023  10.959
26439W        W90647  44.981  32.995   3.316
26440W        W90648  13.306  13.826   4.766
26441W        W90649  20.759  34.924  13.454
26442W        W90650  10.663  39.022  13.842
26443W        W90651  13.200  25.078  11.994
26444W        W90652  33.509  23.168  14.814
26445W        W90653   0.852  26.528  13.982
26446W        W90654  19.181  36.432  14.780
26447W        W90655  23.567  30.160   0.866
26448W        W90656  33.513   0.260   3.328
26449W        W90657   1.307  11.850  12.888
26450W        W90658  13.273  10.670   2.356
26451W        W90659  27.571  25.550   1.341
26452W        W90660   9.266  24.134  13.439
26453W        W90661  32.633  34.592  14.854
26454W        W90662  38.372   9.382  12.347
26455W        W90663   0.919  12.341  11.608
26456W        W90664  44.936   5.699  12.384
26457W        W90665  15.816   4.753  11.048
26458W        W90666   3.246   7.883   1.269
26459W        W90667  40.429   5.260   3.646
26460W        W90668  29.527  14.813  13.504
26461W        W90669   0.419   5.298  10.450
26462W        W90670  32.579   5.736   0.374
26463W        W90671  36.563  22.019  14.383
26464W        W90672  43.428  14.098   3.159
26465W        W90673  28.644  21.699   2.241
26466W        W90674  25.063  44.782   4.181
26467W        W90675  14.760  35.022  14.397
26468W        W90676   2.318  25.623   3.638
26469W        W90677  44.816  31.910   4.793
26470W        W90678  15.284  30.645  12.496
26471W        W90679  26.170  41.865  11.494
26472W        W90680   5.331   0.816  13.026
26473W        W90681  41.493  35.948  11.465
26474W        W90682  31.086  14.279  13.009
26475W        W90683  35.468  15.210  11.986
26476W        W90684  28.604  17.295   3.656
26477W        W90685  29.592   3.885  13.902
26478W        W90686  41.986   5.776  14.429
26479W        W90687  20.120   5.720  12.536
26480W        W90688  35.404   8.746  14.354
26481W        W90689  44.899  42.960   3.740
26482W        W90690  35.990  26.526  11.006
26483W        W90691  27.602  30.512  12.876
26484W        W90692  29.612  35.464   1.777
26485W        W90693  40.358  20.611  11.455
26486W        W90694  15.623  38.413   0.336
26487W        W90695  27.060  23.006  11.889
26488W        W90696  39.529  24.520   4.267
26489W        W90697  22.088  34.410   4.643
26490W        W90698  21.758  16.258   2.721
26491W        W90699  43.398  42.945   1.704
26492W        W90700  24.983  17.162  13.921
26493W        W90701  21.142  44.844   4.662
26494W        W90702  36.952  35.959   3.861
26495W        W90703  33.481  16.806   4.197
26496W        W90704  27.536  36.514   4.177
26497W        W90705  26.104  39.550   1.400
26498W        W90706  22.087   4.889   2.191
26499W        W90707  43.304  39.470   4.168
26500W        W90708  32.602  38.518   3.358
26501W        W90709   1.844  16.801  11.555
26502W        W90710  26.471   0.483  13.478
26503W        W90711  18.621  40.373   2.895
26504W        W90712   6.835  41.919  11.478
26505W        W90713  13.249  30.579  11.056
26506W        W90714  25.144  13.640   1.732
26507W        W90715  35.596  27.603  13.521
26508W        W90716  32.429  43.970  12.066
26509W        W90717   2.371  15.658   0.827
26510W        W90718  23.155  29.662   1.229
26511W        W90719  27.980  36.366   1.794
26512W        W90720  27.673  35.931   2.215
26513W        W90721  33.957  27.171  12.465
26514W        W90722  16.610  19.568   3.688
26515W        W90723  27.033  33.575  14.855
26516W        W90724  24.017  23.626  11.116
26517W        W90725  31.646  10.797   4.738
26518W        W90726  28.163   6.349   1.841
26519W        W90727  26.070   3.941  12.504
26520W        W90728  24.493  35.372  14.873
26521W        W90729  38.537  35.899  13.543
26522W        W90730  11.754  22.242  14.919
26523W        W90731  31.552  11.174   1.412
26524W        W90732  36.390  27.540  10.983
26525W        W90733   7.674  28.532  13.340
26526W        W90734  34.909  36.022   0.252
26527W        W90735  19.045  18.676  12.078
26528W        W90736  19.750  33.409   4.147
26529W        W90737   1.277  15.162  13.970
26530W        W90738   4.277  43.389   1.879
26531W        W90739  16.259  23.678  13.426
26532W        W90740   5.351  13.678  13.925
26533W        W90741  39.919  24.016   0.813
26534W        W90742  31.556  41.020  10.447
26535W        W90743   0.341   0.916  10.528
26536W        W90744  21.088   9.792   3.649
26537W        W90745  44.261   6.279   4.695
26538W        W90746   3.782  24.210  14.332
26539W        W90747  40.879  17.299  14.819
26540W        W90748  22.083  44.881  14.276
26541W        W90749  41.931   8.193  11.920
26542W        W90750   5.887  32.908   3.707
26543W        W90751  22.557  36.849  11.123
26544W        W90752   1.878  24.168  14.020
26545W        W90753  28.644  37.952  10.407
26546W        W90754  11.262  33.964   3.805
26547W        W90755   5.416  44.462  12.374
26548W        W90756  33.007  35.492   3.723
26549W        W90757  24.640   9.151  11.557
26550W        W90758  24.124  12.653   2.675
26551W        W90759   4.425  27.622  13.881
26552W        W90760  31.621  41.405   1.788
26553W        W90761  13.825  38.842  13.961
26554W        W90762  29.944  43.374  14.802
26555W        W90763   3.876  21.576  12.089
26556W        W90764  23.636  32.005   0.784
26557W        W90765  34.058  33.434   1.914
26558W        W90766  39.330  34.531  11.047
26559W        W90767  32.554  31.112   3.747
26560W        W90768  23.051  32.574   3.188
26561W        W90769   8.666  16.721  12.448
26562W        W90770  29.939  19.679   3.314
26563W        W90771  22.657  17.576   5.724
26564W        W90772  23.035  16.302  10.626
26565W        W90773  27.070  19.183   2.902
26566W        W90774  39.319  33.569  13.467
26567W        W90775  18.295   1.445  12.016
26568W        W90776   4.866  21.523  13.889
26569W        W90777  44.501  29.503   3.145
26570W        W90778   9.746  33.544   1.736
26571W        W90779  14.139  14.320   3.795
26572W        W90780  14.768   1.952   2.810
26573W        W90781   5.241  31.595   3.159
26574W        W90782   5.692   6.733   1.322
26575W        W90783  21.163  16.215   3.742
26576W        W90784  20.623   5.209  13.455
26577W        W90785   0.976  36.986   3.216
26578W        W90786   7.833   4.828  11.549
26579W        W90787  17.284   1.237  12.998
26580W        W90788  23.228   2.860   1.871
26581W        W90789  41.372   2.468   0.323
26582W        W90790  40.346  27.117   3.160
26583W        W90791  11.650  44.892  14.463
26584W        W90792  27.559  28.055   4.640
26585W        W90793  34.498  14.831   2.667
26586W        W90794   0.871   2.452   1.228
26587W        W90795   8.661  33.563  10.937
26588W        W90796  21.100  10.205   4.742
26589W        W90797  37.958   4.900  12.947
26590W        W90798  38.485   8.173   2.412
26591W        W90799  33.004  29.977  14.906
26592W        W90800  16.644  35.563   4.127
26593W        W90801  27.967  36.488   1.361
26594W        W90802   2.950  19.172   0.251
26595W        W90803   8.824  21.023   1.379
26596W        W90804  28.512  22.025   2.246
26597W        W90805  11.688  35.577  14.423
26598W        W90806  22.181  41.858   2.360
26599W        W90807  41.822  13.748   0.366
26600W        W90808  13.617  26.559  10.627
26601W        W90809   4.752  32.901   4.614
26602W        W90810  33.622  39.443   1.407
26603W        W90811   9.742   1.884   3.207
26604W        W90812  34.592  42.870   2.179
26605W        W90813  19.668  41.496  10.052
26606W        W90814  16.620   4.780   2.345
26607W        W90815  37.559  40.410   3.349
26608W        W90816  29.636  26.104   4.208
26609W        W90817   2.338  42.821   0.956
26610W        W90818  36.401  38.996   1.733
26611W        W90819  15.099  40.516   4.241
26612W        W90820  11.665  16.786   4.277
26613W        W90821  38.339  44.976   0.793
26614W        W90822  40.358  33.390   0.255
26615W        W90823  38.917   9.229  10.991
26616W        W90824  41.479  35.063   3.664
26617W        W90825  36.408  21.263   3.275
26618W        W90826  29.583   9.674  11.088
26619W        W90827  14.747   4.759  14.838
26620W        W90828   2.817   1.458  12.997
26621W        W90829   0.260   9.244   4.787
26622W        W90830  25.600  29.461  14.968
26623W        W90831  10.380  34.516   4.790
26624W        W90832   5.364  26.033  14.344
26625W        W90833  17.658  30.084  11.389
26626W        W90834  39.541   9.360  12.823
26627W        W90835  43.019  21.611   0.814
26628W        W90836  38.843  24.098  11.383
26629W        W90837  31.631  18.744   9.965
26630W        W90838  27.122  12.854   0.892
26631W        W90839   3.293  37.499   5.188
26632W        W90840  44.455  10.291  12.962
26633W        W90841  17.287  11.282  11.928
26634W        W90842  19.645   0.445  14.462
26635W        W90843  25.666  36.855   2.264
26636W        W90844  17.218  25.211  10.639
26637W        W90845  32.936   5.884  11.899
26638W        W90846  44.458  28.140   4.769
26639W        W90847   0.866  19.649   3.637
26640W        W90848  35.594   1.343  10.439
26641W        W90849   2.818   5.832  12.036
26642W        W90850   4.301   4.773  13.500
26643W        W90851  22.098  22.522  11.579
26644W        W90852  44.411   2.836  14.025
26645W        W90853  37.401   7.322   2.841
26646W        W90854  28.511  38.392   3.718
26647W        W90855  24.579  39.948   1.834
26648W        W90856  23.697  30.036   0.402
26649W        W90857  16.260  29.580   2.857
26650W        W90858  44.944  11.738   0.418
26651W        W90859  15.732   8.175   2.314
26652W        W90860   9.689  23.699   1.241
26653W        W90861  28.964  30.038  13.326
26654W        W90862   5.725  44.286   1.925
26655W        W90863  14.185  20.593  10.436
26656W        W90864   5.365  18.643   2.219
26657W        W90865  31.949  39.817  14.026
26658W        W90866  40.874  44.929  12.024
26659W        W90867  10.227  11.334   3.380
26660W        W90868  28.010   8.851   3.185
26661W        W90869  42.871  28.592   3.315
26662W        W90870   9.307  26.595  11.413
26663W        W90871  24.533   9.873  12.080
26664W        W90872  43.329   0.324  11.469
26665W        W90873  28.534  26.168  13.907
26666W        W90874  26.070   4.765   2.417
26667W        W90875  34.513  23.491   3.206
26668W        W90876  40.391  43.384   2.385
26669W        W90877   1.336   6.867  12.551
26670W        W90878  35.383  27.941   2.309
26671W        W90879  32.924  15.649   4.196
26672W        W90880  18.647  42.905   4.340
26673W        W90881   0.415  18.123  13.977
26674W        W90882   7.873   5.904  14.397
26675W        W90883   8.185  14.189   2.770
26676W        W90884   1.283  44.266  13.338
26677W        W90885  16.573  39.346  11.023
26678W        W90886   0.410  38.931   4.702
26679W        W90887   9.370  40.799  11.015
26680W        W90888  10.235   2.471   1.393
26681W        W90889   1.303  26.968   4.350
26682W        W90890  16.803  11.800   3.187
26683W        W90891  23.662  22.191  13.453
26684W        W90892  38.899  15.661   1.714
26685W        W90893  18.128  44.861   0.406
26686W        W90894   5.204  18.138  12.936
26687W        W90895  12.157   9.854  10.998
26688W        W90896  16.237   1.272   4.786
26689W        W90897   8.766  41.865   2.873
26690W        W90898   4.441  31.632  13.460
26691W        W90899  33.901   9.858   4.139
26692W        W90900   1.378  37.974   3.291
26693W        W90901  20.126  44.954  11.951
26694W        W90902  15.776  10.855   1.337
26695W        W90903  27.467  19.072   1.743
26696W        W90904  11.328  25.050  13.826
26697W        W90905  18.296  18.284  10.081
26698W        W90906  36.064  13.206   4.707
26699W        W90907  13.343  31.009   0.392
26700W        W90908  23.586   4.314  11.444
26701W        W90909   8.857  11.836   1.299
26702W        W90910  23.068   5.871  10.907
26703W        W90911  14.780  38.363  13.472
26704W        W90912   8.771  25.075   5.214
26705W        W90913  19.237  26.698   1.254
26706W        W90914  18.094  23.521  14.026
26707W        W90915  33.113  24.083  10.967
26708W        W90916  23.116   6.792  11.108
26709W        W90917  37.017  34.558   2.198
26710W        W90918  36.457  33.071  11.912
26711W        W90919   6.806  40.363   4.759
26712W        W90920   7.911  41.815  14.793
26713W        W90921  20.554   0.430  14.285
26714W        W90922  38.422  38.859   4.352
26715W        W90923   8.349  26.547  12.003
26716W        W90924  30.960   9.735   3.154
26717W        W90925  11.824  17.133   2.838
26718W        W90926  16.788   8.346  12.448
26719W        W90927  34.389  15.263   3.272
26720W        W90928  11.707   0.938  12.979
26721W        W90929  13.763  20.055  14.320
26722W        W90930   5.910   8.733  13.917
26723W        W90931   8.892  17.789   2.832
26724W        W90932  15.307  12.125  14.416
26725W        W90933  11.782  33.129   3.705
26726W        W90934  31.566  12.703  13.836
26727W        W90935  22.617  41.438   0.312
26728W        W90936  33.118   3.319  11.572
26729W        W90937  32.071  26.997   3.292
26730W        W90938   3.816  11.165   4.740
26731W        W90939  14.760  42.440  14.032
26732W        W90940  30.911  30.426  13.853
26733W        W90941  23.541  32.976   1.808
26734W        W90942  30.506  24.669  12.526
26735W        W90943  38.407  40.460   2.322
26736W        W90944  12.668   8.259   0.371
26737W        W90945   0.780  29.542   3.296
26738W        W90946  37.075  22.539   4.248
26739W        W90947  41.981  42.286   0.737
26740W        W90948  43.962  13.644   4.597
26741W        W90949   6.682  32.078  10.494
26742W        W90950  13.324   1.445   2.196
26743W        W90951  43.842  33.106   0.956
26744W        W90952  41.823   2.792   2.214
26745W        W90953  44.850  37.514   3.664
26746W        W90954  28.112  25.082   1.338
26747W        W90955   4.231  33.562  14.289
26748W        W90956   8.403  22.609  13.825
26749W        W90957  12.839  13.767  13.946
26750W        W90958  22.048  22.138   2.743
26751W        W90959  41.866   7.774   0.814
26752W        W90960  24.660  34.613   1.388
26753W        W90961  16.150  16.265  11.571
26754W        W90962   5.790  40.383  10.469
26755W        W90963   8.405  43.431   4.834
26756W        W90964  36.046  30.053   3.274
26757W        W90965  29.649  25.059   5.162
26758W        W90966  14.787  13.205  13.804
26759W        W90967   8.204   4.825  11.433
26760W        W90968  30.024   5.905  12.983
26761W        W90969  40.530  32.969  14.304
26762W        W90970  36.436  17.172   4.600
26763W        W90971  10.317  20.663  10.406
26764W        W90972  22.586  26.050  10.908
26765W        W90973  27.165   2.821   0.389
26766W        W90974  33.011  35.983  10.408
26767W        W90975  30.993  17.274  13.483
26768W        W90976  39.524  42.809  12.562
26769W        W90977  14.642  14.183   0.808
26770W        W90978  42.462   8.216  10.913
26771W        W90979   5.845  44.284  13.427
26772W        W90980  12.276   0.279   4.756
26773W        W90981  26.588  17.234   0.377
26774W        W90982  36.022  26.100   2.202
26775W        W90983  20.143  26.683  12.021
26776W        W90984  13.845  24.120   1.443
26777W        W90985  42.820  17.740  14.853
26778W        W90986  27.580  29.998  14.007
26779W        W90987  28.506   1.445  12.894
26780W        W90988   8.221  20.688   4.231
26781W        W90989   2.287  38.483   2.255
26782W        W90990  28.025  37.455  11.883
26783W        W90991  28.676   6.300  10.994
26784W        W90992   9.677   7.185   1.810
26785W        W90993  38.430  26.960  10.514
26786W        W90994  44.932  28.012  10.051
26787W        W90995  32.895   1.424  10.503
26788W        W90996  27.949  37.509   1.423
26789W        W90997   9.890  35.978  14.286
26790W        W90998   9.731  40.527  12.340
26791W        W90999  42.469   2.435  10.029
26792W        W91000  16.258  25.586  14.976
26793W        W91001   2.263   6.405  10.061
26794W        W91002   5.688  28.142  11.532
26795W        W91003  26.507  43.496  14.471
26796W        W91004  29.164  40.954   4.195
26797W        W91005   2.427  28.500   4.735
26798W        W91006  11.744   8.355  10.049
26799W        W91007  10.757  42.859  12.825
26800W        W91008  20.125   8.821  13.463
26801W        W91009  34.396   7.361  14.298
26802W        W91010  33.881  40.808  13.518
26803W        W91011  38.054  18.657  12.015
26804W        W91012  12.361   0.330   2.786
26805W        W91013  25.993  32.485  12.060
26806W        W91014  35.414  19.198   1.345
26807W        W91015   1.442  13.837  12.451
26808W        W91016  37.509   9.732   3.309
26809W        W91017  44.474  25.964   4.597
26810W        W91018  42.953  36.493   3.834
26811W        W91019   4.707  22.226  11.591
26812W        W91020  29.520   2.448  12.863
26813W        W91021  30.972   2.313   2.807
26814W        W91022  30.989   6.185   1.367
26815W        W91023  28.538   4.401  12.076
26816W        W91024   0.938   6.802   4.165
26817W        W91025   9.213  26.071   4.831
26818W        W91026   6.380  44.783  10.049
26819W        W91027  17.796  10.359  12.465
26820W        W91028  41.015  15.292   2.754
26821W        W91029  10.174  26.090   4.690
26822W        W91030  18.765  26.625   4.779
26823W        W91031  30.100  26.540  12.465
26824W        W91032  25.219  42.830  10.949
26825W        W91033  25.666  38.455   3.269
26826W        W91034  42.782  38.410   3.268
26827W        W91035  35.926  39.511   4.763
26828W        W91036   7.242  38.930   4.127
26829W        W91037   8.291  26.539   2.286
26830W        W91038  31.951   0.399  13.013
26831W        W91039  20.652  42.311   0.748
26832W        W91040  14.241  26.490  14.360
26833W        W91041   1.346  16.080  11.381
26834W        W91042  27.562   1.396  12.877
26835W        W91043  32.485  24.697   3.307
26836W        W91044  27.151  26.478  11.093
26837W        W91045  41.948  34.083  11.056
26838W        W91046  21.653   5.732  13.376
26839W        W91047  30.498  32.142   2.663
26840W        W91048   2.733  39.953  13.865
26841W        W91049  39.945   0.397  12.065
26842W        W91050  21.018   3.945   1.282
26843W        W91051  41.839  32.025  14.985
26844W        W91052  24.642   6.208   1.415
26845W        W91053  35.035  32.403   3.349
26846W        W91054  39.418  28.549  11.963
26847W        W91055  22.557  14.110   4.329
26848W        W91056  44.866  22.668  11.095
26849W        W91057  27.113   8.703  12.544
26850W        W91058  10.844   0.380  12.056
26851W        W91059   8.893  30.429  10.599
26852W        W91060  18.552   1.851   3.719
26853W        W91061   0.311   7.397  13.320
26854W        W91062  25.972  27.184  13.450
26855W        W91063   2.808   3.309  12.357
26856W        W91064  10.727   9.843  10.424
26857W        W91065   4.242  23.699   2.246
26858W        W91066  41.939   7.681  10.897
26859W        W91067   5.804  20.095  10.639
26860W        W91068  11.735  31.094   1.445
26861W        W91069   0.764  30.928  14.293
26862W        W91070   6.421  12.852   5.152
26863W        W91071  15.250  13.731  12.071
26864W        W91072  44.478  33.925  12.915
26865W        W91073  15.808   4.722  12.445
26866W        W91074  41.020  35.863  11.000
26867W        W91075   0.300  41.407  13.874
26868W        W91076   3.441  25.141   0.852
26869W        W91077  16.147  39.351   0.461
26870W        W91078  42.895  27.478  13.527
26871W        W91079  21.616  17.698  11.987
26872W        W91080   6.211  28.005   4.237
26873W        W91081  29.076  32.066  14.387
26874W        W91082  18.783  43.472   3.346
26875W        W91083  10.347  41.976   2.745
26876W        W91084  22.681  10.151  13.401
26877W        W91085  19.172  23.648   3.652
26878W        W91086  37.016  32.946   1.356
26879W        W91087   8.881  21.704   2.875
26880W        W91088  23.608   6.215   1.885
26881W        W91089  29.016  42.798  13.328
26882W        W91090  42.525  10.196   2.375
26883W        W91091  22.153  27.460   4.250
26884W        W91092   2.411  22.071  14.029
26885W        W91093  32.589  18.088  10.918
26886W        W91094  37.852  15.186   3.344
26887W        W91095  15.655  16.569   4.197
26888W        W91096  10.167  18.055   0.449
26889W        W91097  20.233   8.387   2.206
26890W        W91098  41.805  22.063  12.963
26891W        W91099  23.067  21.216  14.006
26892W        W91100   7.737  18.127   2.684
26893W        W91101  28.618   4.262   1.444
26894W        W91102  24.103  15.229   2.699
26895W        W91103  22.529  38.995   3.666
26896W        W91104  33.875  10.325  13.335
26897W        W91105  32.399  29.518   1.278
26898W        W91106  31.995  41.848   0.364
26899W        W91107  21.096  11.730  10.448
26900W        W91108  12.839  13.218   3.351
26901W        W91109   8.215  36.086   2.191
26902W        W91110   8.715  38.054  12.849
26903W        W91111  26.674  39.064  12.886
26904W        W91112  21.687  13.236  13.322
26905W        W91113   4.398  17.105  13.035
26906W        W91114   3.947   3.405   1.343
26907W        W91115  24.151  43.456  11.062
26908W        W91116  33.877   7.700  11.508
26909W        W91117  20.737  15.204   0.247
26910W        W91118  42.973  18.121   4.232
26911W        W91119  29.166  26.956   2.392
26912W        W91120  39.372  43.867   3.809
26913W        W91121  20.041  10.357   3.813
26914W        W91122  18.224  42.300  14.917
26915W        W91123  31.550   1.238   0.884
26916W        W91124   8.816  25.078  11.559
26917W        W91125   7.878   7.417   0.432
26918W        W91126  30.989  43.497   1.910
26919W        W91127  42.955  35.517   4.323
26920W        W91128   2.295  18.646   2.805
26921W        W91129  32.940  31.495   4.120
26922W        W91130   0.790   6.902   1.803
26923W        W91131  15.106  30.021   2.309
26924W        W91132  15.261  29.472  11.868
26925W        W91133  41.031  12.612  12.897
26926W        W91134  34.966   4.443  12.954
26927W        W91135  22.640  30.088  10.976
26928W        W91136  26.147  27.534   1.349
26929W        W91137   2.429  24.630  11.052
26930W        W91138   6.274  25.642   0.355
26931W        W91139   2.942  20.113   1.784
26932W        W91140   1.289  28.501   2.357
26933W        W91141  38.076  12.189  13.500
26934W        W91142  43.896   6.825  11.407
26935W        W91143  18.679   0.317  12.482
26936W        W91144  33.116  17.596  11.073
26937W        W91145  13.809  39.999  11.070
26938W        W91146   7.735  37.535  12.575
26939W        W91147  21.617  21.106  14.301
26940W        W91148  10.364  16.145  12.533
26941W        W91149  36.440  11.853  14.306
26942W        W91150  12.212  20.262   2.300
26943W        W91151  21.260   8.246  13.373
26944W        W91152   4.700  19.071   1.382
26945W        W91153  31.517  19.649   0.360
26946W        W91154  10.325  38.375   2.810
26947W        W91155  15.667  19.188  12.883
26948W        W91156  37.539   3.450  14.936
26949W        W91157  17.641  33.563  11.586
26950W        W91158  28.141  28.103  11.476
26951W        W91159   0.414  11.788  12.391
26952W        W91160  14.717   8.178   3.672
26953W        W91161  39.040  13.284  11.598
26954W        W91162  32.890  29.019  11.579
26955W        W91163  19.703  39.875   3.251
26956W        W91164  16.621  31.934  14.494
26957W        W91165  43.396  33.118   1.755
26958W        W91166  32.492  31.079  10.496
26959W        W91167   9.247   4.711   2.343
26960W        W91168  34.045  15.244  12.031
26961W        W91169  41.456   1.854   3.837
26962W        W91170  42.369  29.959   5.649
26963W        W91171  35.068  31.911   0.428
26964W        W91172  12.661  35.372   0.383
26965W        W91173  29.968  43.018   2.868
26966W        W91174  38.846  12.282  13.879
26967W        W91175  25.544  10.853  14.800
26968W        W91176  16.689   8.856  13.322
26969W        W91177   9.390   0.486   1.707
26970W        W91178   9.331  24.984   4.809
26971W        W91179  35.399   7.713  11.115
26972W        W91180  24.520  13.249   3.697
26973W        W91181   0.386  33.439   2.761
26974W        W91182  19.086  27.159  12.977
26975W        W91183  22.039  28.984   2.203
26976W        W91184  41.939  12.120  13.970
26977W        W91185  14.101  40.883   1.767
26978W        W91186  14.756  33.893  14.380
26979W        W91187  25.478  21.049   0.730
26980W        W91188  34.423  35.943   1.907
26981W        W91189  20.554  13.789  14.510
26982W        W91190  35.580  23.120   4.121
26983W        W91191  40.380  22.578   2.201
26984W        W91192  16.753   8.806  13.959
26985W        W91193  16.133  14.600   3.641
26986W        W91194   8.295  23.705  10.935
26987W        W91195  27.132  23.622  11.937
26988W        W91196   8.845   4.774  14.834
26989W        W91197  10.648  31.411   3.763
26990W        W91198  13.660  17.664  14.467
26991W        W91199  37.003   0.267   3.154
26992W        W91200  31.472  34.426  11.510
26993W        W91201  44.376   9.666   2.180
26994W        W91202   8.401  11.714   3.321
26995W        W91203  14.623  17.641  12.503
26996W        W91204  37.374  40.378   5.296
26997W        W91205  15.206   7.297   2.252
26998W        W91206  16.163  41.973   2.895
26999W        W91207  21.121  31.627   4.629
27000W        W91208  20.624   4.430   4.668
27001W        W91209   9.317   0.267  10.545
27002W        W91210   0.960  13.300  11.024
27003W        W91211  27.149   5.194  11.044
27004W        W91212  27.641  36.550   1.784
27005W        W91213  17.736  39.829  13.813
27006W        W91214  33.502  11.188  10.486
27007W        W91215   8.829  12.226   3.730
27008W        W91216  18.118   0.859   3.810
27009W        W91217  29.662   2.422   1.278
27010W        W91218   9.244  27.682  13.018
27011W        W91219  19.044  26.555   3.185
27012W        W91220  34.068   6.920   1.789
27013W        W91221  14.221  14.236  12.385
27014W        W91222  30.417   1.866  14.025
27015W        W91223  41.004  16.670  13.423
27016W        W91224   1.363  21.606  10.595
27017W        W91225  22.238  40.447   2.770
27018W        W91226   7.771   8.693   0.360
27019W        W91227   0.835  17.581  11.004
27020W        W91228  10.875  24.699   4.805
27021W        W91229  12.812  35.039   0.256
27022W        W91230   0.321  10.664  10.510
27023W        W91231  28.466  43.766   2.400
27024W        W91232   8.162   7.359   3.636
27025W        W91233   5.812  19.583   4.821
27026W        W91234  24.995  19.166   0.480
27027W        W91235  34.951   7.765   1.250
27028W        W91236  18.258  18.155   4.140
27029W        W91237   8.353  26.632   1.765
27030W        W91238  26.030  28.449  13.806
27031W        W91239   3.312  39.833   0.838
27032W        W91240   5.322  16.088  14.885
27033W        W91241  23.052   4.212   1.362
27034W        W91242  40.970  42.872   2.418
27035W        W91243  16.160  18.076   3.249
27036W        W91244  10.211  43.331   4.814
27037W        W91245  44.882   6.716   3.688
27038W        W91246  27.075   9.292  14.487
27039W        W91247  18.785  40.446  13.383
27040W        W91248  39.013  21.121  11.458
27041W        W91249  12.651  18.780   0.947
27042W        W91250  22.210  33.964   1.863
27043W        W91251   2.349   6.815   4.807
27044W        W91252  28.980  30.471   1.320
27045W        W91253  13.201   7.670  13.816
27046W        W91254  37.538  25.153   4.607
27047W        W91255  28.547  21.536  11.122
27048W        W91256  22.995  27.139  10.487
27049W        W91257  10.709  44.861   1.216
27050W        W91258  12.717  21.704   0.916
27051W        W91259  15.679  10.213   0.426
27052W        W91260  30.151  25.182   3.216
27053W        W91261   7.397  41.518  12.956
27054W        W91262  38.325   8.403  14.941
27055W        W91263  18.101  32.603  14.796
27056W        W91264  37.967  23.195  10.500
27057W        W91265  12.661  38.479  12.966
27058W        W91266  28.077  44.293  11.376
27059W        W91267  35.503  37.902   4.750
27060W        W91268  44.763  42.311  12.018
27061W        W91269  44.970  44.962  11.964
27062W        W91270  34.499  22.669  11.596
27063W        W91271  19.222  39.359   3.667
27064W        W91272  34.610  22.074  13.856
27065W        W91273   9.231  39.051  10.462
27066W        W91274  42.881   9.652  14.841
27067W        W91275   5.918  14.126   1.744
27068W        W91276  23.623   3.356  12.396
27069W        W91277   8.898   6.395   0.958
27070W        W91278   3.845  13.753  11.119
27071W        W91279   6.222  36.063  12.978
27072W        W91280  39.413  22.717  14.831
27073W        W91281   8.881   4.287   3.241
27074W        W91282  24.553   8.339   2.275
27075W        W91283  26.659  29.526  10.947
27076W        W91284  36.922  29.025  13.917
27077W        W91285   6.226  29.651   3.277
27078W        W91286   5.405  44.829   2.281
27079W        W91287   9.883  36.056  10.924
27080W        W91288  19.050  34.521  14.959
27081W        W91289  29.576   3.856   0.438
27082W        W91290   9.149  30.983  11.546
27083W        W91291   3.921  10.309   1.846
27084W        W91292  22.224  26.605   1.351
27085W        W91293  35.369  26.014  10.933
27086W        W91294   2.899  43.806  13.974
27087W        W91295  10.295  40.826  10.997
27088W        W91296  18.552  10.146   3.312
27089W        W91297  29.614  33.427   0.349
27090W        W91298  34.086   3.300   4.253
27091W        W91299   6.836  35.378   1.706
27092W        W91300  26.073   5.914  13.525
27093W        W91301   0.900  22.184   3.369
27094W        W91302  13.167  24.135   5.246
27095W        W91303  27.008  11.695   1.211
27096W        W91304  37.416   8.342   4.699
27097W        W91305  28.534  33.463   4.757
27098W        W91306  20.676   1.790  14.423
27099W        W91307  11.790  18.204  13.973
27100W        W91308   3.251  32.043   4.695
27101W        W91309  31.937  37.995   0.765
27102W        W91310  19.170  22.502   3.221
27103W        W91311  24.153   1.319  14.828
27104W        W91312  37.012  32.470   1.438
27105W        W91313  44.392  36.432  14.293
27106W        W91314  12.268  37.979   2.410
27107W        W91315  23.143   2.959  12.392
27108W        W91316  12.800  31.930   1.885
27109W        W91317   4.287  18.647   1.442
27110W        W91318  20.532   7.245  13.417
27111W        W91319  16.211  24.198   3.278
27112W        W91320  34.043  24.615  12.998
27113W        W91321  14.714  17.235  13.521
27114W        W91322  44.781  28.666   9.554
27115W        W91323   5.351  12.798   2.732
27116W        W91324  25.664  24.006   3.708
27117W        W91325  19.139   8.874   0.248
27118W        W91326   9.316  34.925   0.843
27119W        W91327  15.660  24.169   4.823
27120W        W91328  13.757  25.564  10.608
27121W        W91329   9.387  41.946   0.811
27122W        W91330  25.089  27.557  11.125
27123W        W91331  11.318   7.883  11.932
27124W        W91332  28.171   5.295  10.928
27125W        W91333   9.873  37.338   0.472
27126W        W91334   5.214  35.053  10.887
27127W        W91335   9.656  29.018   4.215
27128W        W91336  21.549  13.120   1.859
27129W        W91337  14.811  29.160  14.779
27130W        W91338  39.956   8.219   4.188
27131W        W91339  18.296   4.326  11.461
27132W        W91340  26.488  21.577   1.888
27133W        W91341  29.556  37.059  12.031
27134W        W91342  14.797  16.132  13.926
27135W        W91343  42.963  42.470   3.830
27136W        W91344  25.604  25.627   0.273
27137W        W91345  24.166   6.692   2.823
27138W        W91346  36.086  25.025  14.987
27139W        W91347  32.521  17.147   1.392
27140W        W91348  17.768  40.349  14.482
27141W        W91349   8.285  31.977   4.213
27142W        W91350  19.578   0.304  12.471
27143W        W91351   9.704  27.101   1.714
27144W        W91352   1.297  11.791  12.395
27145W        W91353  34.951  29.014   0.448
27146W        W91354  44.260  40.962   9.947
27147W        W91355  24.981  26.552  12.913
27148W        W91356  36.476  44.898   1.705
27149W        W91357   0.987  19.683  10.508
27150W        W91358  38.411  22.172   4.635
27151W        W91359  18.061   9.168   3.180
27152W        W91360  44.770   4.222  13.472
27153W        W91361  14.203  42.887   1.288
27154W        W91362  43.482  18.610   5.604
27155W        W91363  20.191  19.273   1.856
27156W        W91364  13.283  44.453  11.880
27157W        W91365  37.848  31.477  11.035
27158W        W91366   7.788  36.930  13.311
27159W        W91367  20.040   9.205  14.813
27160W        W91368   2.796  14.823  14.514
27161W        W91369  18.188  43.013  11.111
27162W        W91370  34.918  42.322  12.352
27163W        W91371  42.281   8.789   4.622
27164W        W91372  34.049  15.119   0.924
27165W        W91373   5.694  32.087   0.440
27166W        W91374  12.118  42.890  13.007
27167W        W91375  17.593   8.324   3.158
27168W        W91376  24.168  17.773  12.515
27169W        W91377  22.054  38.564  12.027
27170W        W91378   3.304  13.691  12.057
27171W        W91379  15.723  33.885   2.706
27172W        W91380  23.612  44.463   4.831
27173W        W91381  38.999  36.890   3.742
27174W        W91382  35.380   3.853   0.841
27175W        W91383   3.369   3.883  13.344
27176W        W91384  36.890  38.494  14.380
27177W        W91385  35.597  35.472  12.466
27178W        W91386  17.091   7.871   2.378
27179W        W91387  31.951  29.162   1.355
27180W        W91388  38.909  35.004   2.699
27181W        W91389  29.095  30.144  11.385
27182W        W91390  36.381  10.851  10.514
27183W        W91391  10.752  44.279  13.894
27184W        W91392  23.078  12.645  13.833
27185W        W91393   8.373  28.011  11.572
27186W        W91394  11.240  40.992  14.389
27187W        W91395  40.363  40.328  12.569
27188W        W91396   3.252  35.855  11.597
27189W        W91397  36.018  29.637   4.238
27190W        W91398  25.511  32.446   2.738
27191W        W91399  36.378  22.513   3.645
27192W        W91400  30.164   8.764  13.970
27193W        W91401  42.794  40.989   0.351
27194W        W91402  21.210  29.108  12.473
27195W        W91403  30.474  24.097  14.823
27196W        W91404  17.242  44.360  12.513
27197W        W91405   4.733  27.078   0.373
27198W        W91406  29.637  32.443  14.978
27199W        W91407  23.129  40.013  12.987
27200W        W91408  42.836  29.619  10.129
27201W        W91409  31.425   8.276  13.890
27202W        W91410  36.536   0.474  13.520
27203W        W91411  16.246  23.546   1.369
27204W        W91412  30.957  15.322  11.543
27205W        W91413  19.726  23.094  12.359
27206W        W91414  40.375  25.062   1.856
27207W        W91415  43.276  40.454   1.741
27208W        W91416  24.083  44.356   0.330
27209W        W91417  20.094  34.875   2.272
27210W        W91418  12.708  23.038   3.376
27211W        W91419  27.117  39.413  12.852
27212W        W91420  13.783  10.378  13.936
27213W        W91421   6.697  33.115  12.064
27214W        W91422   4.817  18.614  10.550
27215W        W91423  13.761  44.493  13.933
27216W        W91424  37.842   6.734   4.703
27217W        W91425  29.154   0.955   2.671
27218W        W91426   4.392  29.596  11.118
27219W        W91427   8.171  27.008   4.210
27220W        W91428   9.162  11.762   1.355
27221W        W91429  21.081  31.976   3.300
27222W        W91430  21.757  31.916   0.817
27223W        W91431  33.938  34.372   0.387
27224W        W91432  17.198  30.654  11.429
27225W        W91433  41.465  37.518   9.990
27226W        W91434  30.970  25.084  14.381
27227W        W91435  44.999  26.198  12.018
27228W        W91436  20.587  11.684  10.552
27229W        W91437   4.301  35.069  12.877
27230W        W91438  34.498   8.396  14.337
27231W        W91439   2.743  29.461  13.033
27232W        W91440   2.918  21.546   3.648
27233W        W91441  40.439  38.899   3.763
27234W        W91442  41.447  35.999   1.352
27235W        W91443  25.975  20.760   1.703
27236W        W91444  14.629   2.924  14.829
27237W        W91445   6.368  21.682   4.728
27238W        W91446  29.991  16.588   5.316
27239W        W91447  35.600  14.740   2.295
27240W        W91448  41.301   5.920   2.374
27241W        W91449   5.809  18.670  14.451
27242W        W91450   1.467  14.321  13.465
27243W        W91451   4.379  21.689   0.402
27244W        W91452  23.166   9.390   0.270
27245W        W91453  40.950   8.298   3.285
27246W        W91454  21.540   2.468  13.954
27247W        W91455   4.808  38.900   2.716
27248W        W91456  29.927  18.130  12.893
27249W        W91457   1.348  42.505  12.417
27250W        W91458  41.452  20.253   2.846
27251W        W91459  29.615  29.475   0.807
27252W        W91460   8.303   3.327  13.512
27253W        W91461   5.386  19.720   4.159
27254W        W91462   5.265  27.451   3.827
27255W        W91463  19.196   7.325  13.848
27256W        W91464   2.447  25.664  12.340
27257W        W91465  11.749  43.368  14.481
27258W        W91466  34.884  31.926   4.334
27259W        W91467  25.111   7.713  12.549
27260W        W91468   3.873  17.127   9.966
27261W        W91469  18.282  12.619   0.388
27262W        W91470  30.613  37.378  13.331
27263W        W91471  32.531  23.161  11.936
27264W        W91472  35.006   8.336   2.213
27265W        W91473  36.977  40.036  11.038
27266W        W91474   2.906  39.895  10.425
27267W        W91475  35.419  17.286  12.061
27268W        W91476  39.478  31.063  13.330
27269W        W91477  18.265  22.699   3.344
27270W        W91478  29.061   1.941   0.255
27271W        W91479   4.719  26.079  13.539
27272W        W91480  19.535   3.388  14.509
27273W        W91481   4.450  11.809   0.416
27274W        W91482  35.532  39.520   3.867
27275W        W91483  25.560  14.312  14.923
27276W        W91484   2.796  28.070   3.728
27277W        W91485  44.978  15.180  13.932
27278W        W91486  14.165   4.723   1.336
27279W        W91487  25.038  32.405  11.603
27280W        W91488   3.906   4.438   1.439
27281W        W91489  23.515  38.067   4.795
27282W        W91490  35.591  16.602   4.225
27283W        W91491   1.934  11.134   2.857
27284W        W91492   6.183  21.640   3.307
27285W        W91493  26.203  30.083  13.393
27286W        W91494  31.897  11.354  12.887
27287W        W91495  28.024  19.268   3.795
27288W        W91496  13.778  21.086  11.951
27289W        W91497  36.950   2.822   1.817
27290W        W91498  19.161  15.620   0.939
27291W        W91499  17.564  15.791  11.554
27292W        W91500  12.764  17.616  13.865
27293W        W91501   1.839  24.606  14.964
27294W        W91502  16.698  25.966   3.275
27295W        W91503  41.947  29.516  13.376
27296W        W91504  26.985  44.323  10.549
27297W        W91505  21.687  29.594   0.366
27298W        W91506  16.152  42.426   0.869
27299W        W91507  23.724   2.876  10.419
27300W        W91508  42.359  33.463  11.495
27301W        W91509  42.849  31.903   3.698
27302W        W91510  39.019  44.294   4.285
27303W        W91511  41.000  14.657   4.283
27304W        W91512  25.174  28.100   1.779
27305W        W91513  14.734  25.988  13.792
27306W        W91514  13.140  36.081  10.106
27307W        W91515  32.112  27.132   4.673
27308W        W91516  19.723  17.170  13.525
27309W        W91517  23.620  21.663  13.401
27310W        W91518  32.965  24.011  10.434
27311W        W91519  12.347  32.486  11.403
27312W        W91520  39.963   7.883   2.683
27313W        W91521  29.609  33.096  10.889
27314W        W91522   8.664   7.415   4.144
27315W        W91523  44.002   7.792   2.285
27316W        W91524  38.851   9.297   1.217
27317W        W91525  37.886   8.715  11.466
27318W        W91526  27.079  40.401   4.288
27319W        W91527   9.286  39.324  12.381
27320W        W91528  18.086  29.973   1.775
27321W        W91529  18.183   2.406   3.238
27322W        W91530  44.357  31.924   2.369
27323W        W91531  21.635  17.685  13.548
27324W        W91532  40.901  40.946  10.461
27325W        W91533  17.612  20.046  15.000
27326W        W91534   0.454  44.972  10.637
27327W        W91535  10.315  42.488   1.750
27328W        W91536  21.756  40.337   2.224
27329W        W91537  15.184   2.848  12.547
27330W        W91538  34.514  22.534  14.879
27331W        W91539  37.407  28.145  11.029
27332W        W91540  25.131   6.277   2.247
27333W        W91541   7.366  14.705   9.967
27334W        W91542  28.039  21.117   5.129
27335W        W91543  13.845  11.168   4.671
27336W        W91544   6.699  44.831   2.187
27337W        W91545  34.042   6.374  14.790
27338W        W91546  38.561  22.726  14.361
27339W        W91547  41.346  17.264   5.781
27340W        W91548   5.911   2.939  12.997
27341W        W91549  17.212  43.343   3.753
27342W        W91550   1.281  15.645  10.479
27343W        W91551  31.487  28.479  11.486
27344W        W91552  44.372   6.869   1.335
27345W        W91553  31.594  20.028  12.052
27346W        W91554  20.666  13.828   3.165
27347W        W91555  25.537  34.075   2.304
27348W        W91556   2.820  35.480  13.018
27349W        W91557  17.604  20.698  10.477
27350W        W91558   3.398  32.482   4.838
27351W        W91559  25.518  17.649   2.187
27352W        W91560  44.409  18.630   4.635
27353W        W91561  28.495  26.141  11.971
27354W        W91562   0.957  30.478   0.729
27355W        W91563  35.388  29.982   2.898
27356W        W91564   0.981  14.303  13.377
27357W        W91565   4.853  25.700  14.908
27358W        W91566  24.707  29.141   0.342
27359W        W91567   9.644   6.787  12.927
27360W        W91568   6.256   2.933  11.439
27361W        W91569  43.777  15.674  12.465
27362W        W91570  23.517  41.395  12.827
27363W        W91571  16.788   2.885   4.118
27364W        W91572  17.797  25.551  14.862
27365W        W91573  23.165  29.116  11.383
27366W        W91574  10.226   4.284  11.431
27367W        W91575  16.213  41.497   4.124
27368W        W91576  42.860   4.405  14.024
27369W        W91577   7.808  44.794  13.061
27370W        W91578  17.067   0.493  12.872
27371W        W91579  21.188  33.111  11.436
27372W        W91580  31.468   4.877  14.814
27373W        W91581  23.994  21.539   2.755
27374W        W91582  18.711  37.354   1.253
27375W        W91583  30.495   4.318  10.943
27376W        W91584  11.345   4.900   0.876
27377W        W91585   2.782  42.473   3.355
27378W        W91586  36.851  42.943   4.602
27379W        W91587  39.877  39.061   1.399
27380W        W91588  29.668  28.553   0.762
27381W        W91589  20.737  18.111  13.791
27382W        W91590   5.814  36.409   2.237
27383W        W91591  24.015  28.561  13.403
27384W        W91592  40.492  31.513   3.795
27385W        W91593  10.727  42.448  14.796
27386W        W91594  24.635  21.139  12.965
27387W        W91595  37.487  35.882  14.000
27388W        W91596  15.220   9.832  12.995
27389W        W91597   9.215   6.233   2.731
27390W        W91598  21.730  27.024  10.543
27391W        W91599  14.197  44.286   4.322
27392W        W91600  23.625  40.352   2.407
27393W        W91601  16.243  30.504   4.321
27394W        W91602  34.415  18.092   1.914
27395W        W91603   5.298  11.173  12.039
27396W        W91604  13.166  42.864   1.371
27397W        W91605   8.743   8.358   1.276
27398W        W91606  10.338  33.128   1.823
27399W        W91607  26.699  31.578  11.439
27400W        W91608  43.494  30.997   3.208
27401W        W91609  17.628   0.986  10.530
27402W        W91610  15.154  32.100   1.357
27403W        W91611  39.982  30.002   1.853
27404W        W91612  42.470   2.964   2.271
27405W        W91613  16.698   3.817  14.966
27406W        W91614  17.114   2.358   4.334
27407W        W91615   1.364  31.938   4.625
27408W        W91616  17.772   3.428  12.470
27409W        W91617  31.132  17.653   0.863
27410W        W91618   0.254  32.007  10.083
27411W        W91619   4.248  32.449   0.921
27412W        W91620  14.791  39.404   2.411
27413W        W91621  15.630  38.367   3.841
27414W        W91622  24.543  12.841  14.463
27415W        W91623  33.060   1.416  13.999
27416W        W91624   8.830  16.138  11.379
27417W        W91625  25.559  20.561  10.952
27418W        W91626   6.774  31.634  13.395
27419W        W91627  10.657   7.872  13.958
27420W        W91628  18.710   8.661   3.303
27421W        W91629  27.589  19.778   0.744
27422W        W91630  32.974  43.349   0.379
27423W        W91631   2.891  21.617   4.235
27424W        W91632   4.775   8.743   1.228
27425W        W91633  38.516   7.699  13.888
27426W        W91634  22.104  35.091  10.417
27427W        W91635   9.706  21.073  10.897
27428W        W91636  11.200  13.608   2.290
27429W        W91637  23.070   7.689   1.330
27430W        W91638  41.915  28.643  10.977
27431W        W91639   7.807  21.540   2.717
27432W        W91640  28.956  21.069  10.943
27433W        W91641  32.433   2.267   2.717
27434W        W91642  14.231  25.991  12.355
27435W        W91643   1.818   8.682   2.726
27436W        W91644  43.871  40.413   0.271
27437W        W91645  15.233  31.591   0.759
27438W        W91646  27.005  12.121  11.979
27439W        W91647  11.678  14.228  13.022
27440W        W91648  10.362  33.489   3.810
27441W        W91649  17.636  39.531  14.972
27442W        W91650   2.370  22.140  12.399
27443W        W91651  37.512  15.143   3.272
27444W        W91652  25.686  25.487   4.217
27445W        W91653   4.756  42.875   0.961
27446W        W91654   8.816  22.049  13.875
27447W        W91655  15.140   2.409   4.270
27448W        W91656  42.028  35.907   3.813
27449W        W91657  31.616  30.103   0.803
27450W        W91658  22.055   9.151  13.528
27451W        W91659  40.028  19.126  14.961
27452W        W91660  14.197  33.518   3.860
27453W        W91661  14.645   4.328  12.548
27454W        W91662  29.119  12.664   4.678
27455W        W91663  30.453  36.873  13.483
27456W        W91664  39.365   7.896   3.376
27457W        W91665   9.881  23.494  14.956
27458W        W91666  38.527  10.781   3.783
27459W        W91667  41.483  31.484  10.479
27460W        W91668  12.350  42.790   3.190
27461W        W91669  30.463  38.068  14.889
27462W        W91670   6.319   2.376  12.446
27463W        W91671   0.421  30.914  13.367
27464W        W91672  18.089  28.027   4.350
27465W        W91673   2.742  10.767   3.278
27466W        W91674  41.499  11.760  14.893
27467W        W91675   0.896  26.559   4.213
27468W        W91676  27.155  12.622  11.434
27469W        W91677  21.609  31.049  14.967
27470W        W91678  18.066   6.323   5.608
27471W        W91679  18.263  39.473  11.942
27472W        W91680  29.019  36.077  14.802
27473W        W91681   4.712  29.456   4.732
27474W        W91682   3.715   3.793   0.750
27475W        W91683   2.251   2.264  13.546
27476W        W91684  22.996  16.180   3.374
27477W        W91685  16.247  31.500  14.306
27478W        W91686  39.410   5.310  13.976
27479W        W91687   4.318  42.027   4.152
27480W        W91688  37.002  44.355   1.704
27481W        W91689  39.419  17.742  13.355
27482W        W91690  29.466   5.240  14.857
27483W        W91691  40.321   3.292  11.525
27484W        W91692  12.334   4.906   0.873
27485W        W91693  37.544  31.648   4.265
27486W        W91694  11.141  11.142   4.292
27487W        W91695   2.834  19.258  11.443
27488W        W91696   6.901  15.723  14.935
27489W        W91697  44.405  24.028   0.372
27490W        W91698  41.408  23.110  14.975
27491W        W91699  18.240  11.205   3.331
27492W        W91700  30.022  44.429   4.653
27493W        W91701  17.598  16.601  14.863
27494W        W91702  10.853  13.119   2.323
27495W        W91703   8.346   1.310   3.351
27496W        W91704  21.260   3.792  11.042
27497W        W91705  42.006  21.696  10.550
27498W        W91706  35.997  32.533  10.962
27499W        W91707  37.367   6.752  12.400
27500W        W91708  15.780  30.092  12.892
27501W        W91709  24.517  19.545  11.995
27502W        W91710  19.711  15.591  11.015
27503W        W91711  44.958  15.700  14.810
27504W        W91712  34.447  25.683   1.354
27505W        W91713  12.730   8.696  10.556
27506W        W91714  22.010  34.446   1.426
27507W        W91715  31.087  17.061  12.894
27508W        W91716  38.845  30.615   0.837
27509W        W91717  43.866  11.645  14.476
27510W        W91718  27.580  40.803   1.315
27511W        W91719  30.610  13.141   2.873
27512W        W91720  10.706  37.369  10.411
27513W        W91721   4.917  31.557  10.008
27514W        W91722  17.102  23.535   0.464
27515W        W91723  32.452  44.354   0.340
27516W        W91724  21.756  35.988  11.516
27517W        W91725  30.067  19.254   1.751
27518W        W91726  12.750  37.887  12.480
27519W        W91727   1.934  16.317  14.986
27520W        W91728  44.499  27.677  11.861
27521W        W91729  37.889  12.217  10.558
27522W        W91730  44.319  16.082   0.926
27523W        W91731  39.933  44.457   2.199
27524W        W91732  15.578  11.858  14.340
27525W        W91733  28.165   0.413   3.297
27526W        W91734   4.335   5.221   4.764
27527W        W91735  37.550  20.212   0.305
27528W        W91736  41.294  11.652   1.719
27529W        W91737  28.160  20.079   0.336
27530W        W91738  30.609   7.857   4.195
27531W        W91739  25.047  31.451   0.369
27532W        W91740   0.385  14.113  10.889
27533W        W91741  19.776  20.185  12.401
27534W        W91742  15.685  32.958   3.219
27535W        W91743  44.874   8.297  11.456
27536W        W91744  40.469  37.349   5.276
27537W        W91745  22.502   5.919  11.958
27538W        W91746  26.589  16.639  11.532
27539W        W91747   3.459  23.186  10.444
27540W        W91748  14.666  40.368   3.717
27541W        W91749  34.492   1.773  12.488
27542W        W91750  10.294  17.176   1.339
27543W        W91751  31.524  29.559  11.522
27544W        W91752   8.660   5.830  13.935
27545W        W91753  33.016   0.860  13.825
27546W        W91754  21.688  23.033   4.350
27547W        W91755  41.801  23.596  12.045
27548W        W91756  37.392  35.929  10.956
27549W        W91757  16.131  26.134   2.323
27550W        W91758  29.583  37.551   2.865
27551W        W91759  31.904   3.734  11.406
27552W        W91760  39.547  19.760  10.563
27553W        W91761   6.739  14.145   2.671
27554W        W91762  25.213   3.214   1.330
27555W        W91763   1.244  36.590   2.817
27556W        W91764   6.808  21.700  13.826
27557W        W91765  24.014  28.490   3.229
27558W        W91766  29.154   9.294  10.645
27559W        W91767  13.772  27.690  14.495
27560W        W91768  23.623   2.364   2.702
27561W        W91769  34.494  35.556  10.437
27562W        W91770  26.595  14.323  14.467
27563W        W91771  33.043  33.015   4.181
27564W        W91772  35.376   7.788  13.010
27565W        W91773  17.157  41.376   1.318
27566W        W91774   5.697  14.597  10.425
27567W        W91775   5.265   6.403   1.335
27568W        W91776  23.717  36.410  13.447
27569W        W91777  14.310   0.785   2.773
27570W        W91778  29.148  28.979   1.387
27571W        W91779  18.736   1.825   2.387
27572W        W91780   8.688   0.831   1.238
27573W        W91781  33.449   6.304  11.493
27574W        W91782   9.788  24.134  14.479
27575W        W91783  20.550   8.184  12.900
27576W        W91784  27.628   7.366   3.229
27577W        W91785  24.602  15.281   4.242
27578W        W91786  41.874  22.712   1.278
27579W        W91787  21.693  39.060  11.478
27580W        W91788  38.548  23.143   3.655
27581W        W91789  17.700  37.937  14.456
27582W        W91790  42.520   3.441  14.966
27583W        W91791  26.182  36.351  14.979
27584W        W91792  43.010  37.995  11.503
27585W        W91793  30.046  39.364   4.832
27586W        W91794   4.396  41.492   4.617
27587W        W91795  10.702  16.143   3.172
27588W        W91796   7.329   2.299   3.191
27589W        W91797   7.796  27.614   3.280
27590W        W91798  44.767  33.016   4.127
27591W        W91799  38.398   6.221   1.248
27592W        W91800  20.769  24.628   1.387
27593W        W91801  34.600  32.606  12.880
27594W        W91802  21.649   2.900  10.613
27595W        W91803  33.624  41.809  12.889
27596W        W91804   5.274   0.976   3.219
27597W        W91805  37.577  11.142   4.251
27598W        W91806   2.776  38.543   2.266
27599W        W91807  33.914  28.574   4.233
27600W        W91808   7.781  34.453  14.011
27601W        W91809  30.970  38.358   4.797
27602W        W91810  30.463   1.407  14.009
27603W        W91811   4.763  34.403   4.831
27604W        W91812  14.163  42.508  10.891
27605W        W91813  40.526  39.491  13.024
27606W        W91814   4.370  41.921  10.607
27607W        W91815  20.263  40.016   1.374
27608W        W91816  20.181  18.664  10.589
27609W        W91817  37.835  17.755   2.759
27610W        W91818  24.651  35.002  14.280
27611W        W91819  15.260  13.180  11.893
27612W        W91820  39.500  20.741  11.964
27613W        W91821  24.645  21.683   3.334
27614W        W91822   3.364  25.033  14.835
27615W        W91823  24.207   0.254   0.920
27616W        W91824  31.913  12.201  12.986
27617W        W91825  32.563  13.279   0.904
27618W        W91826  40.798  15.593  10.493
27619W        W91827  17.720  42.018   2.763
27620W        W91828  19.539  25.575  11.939
27621W        W91829   4.831  10.178   1.325
27622W        W91830  44.414  38.896   4.779
27623W        W91831  43.846  10.270  12.061
27624W        W91832  21.719  20.141   1.215
27625W        W91833  20.109  28.125  13.455
27626W        W91834  27.641  40.506  10.603
27627W        W91835  28.161  11.350   2.865
27628W        W91836  16.169  12.683  13.474
27629W        W91837   9.246  18.654   1.825
27630W        W91838  18.752  33.474   1.790
27631W        W91839  34.023  40.315  10.977
27632W        W91840  10.293  25.006   5.212
27633W        W91841  24.623   9.779   4.209
27634W        W91842  44.793  27.627   4.760
27635W        W91843  41.004  43.511  12.927
27636W        W91844  39.318  28.491   0.929
27637W        W91845  29.974   5.394   2.692
27638W        W91846  13.316  36.092  11.895
27639W        W91847  28.586  29.051   3.342
27640W        W91848  24.697  35.949  10.951
27641W        W91849  36.403  18.195  14.981
27642W        W91850  10.142   3.814   1.448
27643W        W91851  28.949  13.672   1.709
27644W        W91852  18.191  42.407  14.322
27645W        W91853  44.332   6.788  13.889
27646W        W91854  42.967  22.537   2.893
27647W        W91855  41.026   7.860  14.335
27648W        W91856  16.174  17.205   1.346
27649W        W91857  37.436  17.667   1.808
27650W        W91858  42.422   0.811   4.819
27651W        W91859   5.199  33.388  14.508
27652W        W91860  14.804  31.043   3.230
27653W        W91861  10.636  12.616  12.424
27654W        W91862  33.022  22.653  13.826
27655W        W91863  32.422  13.114  11.492
27656W        W91864  36.346  27.667   4.810
27657W        W91865  23.645  11.836  14.814
27658W        W91866  10.321  19.165  14.348
27659W        W91867   7.774  31.471  13.354
27660W        W91868  23.154  18.094   0.742
27661W        W91869  44.329  41.026   4.719
27662W        W91870  15.605  13.223   0.965
27663W        W91871  37.444  15.315  12.399
27664W        W91872  32.453  35.570   0.387
27665W        W91873   8.765  25.110  11.084
27666W        W91874   4.828   4.433  14.848
27667W        W91875  43.297  42.914   0.961
27668W        W91876  10.726  44.951   2.230
27669W        W91877   4.380  15.679   1.857
27670W        W91878  34.908  24.695   0.430
27671W        W91879   4.423   4.229  12.963
27672W        W91880  37.039   9.684   0.938
27673W        W91881  26.606  15.117  12.916
27674W        W91882  17.579  26.036  13.993
27675W        W91883  40.830  32.080  10.432
27676W        W91884  11.291   2.344  14.858
27677W        W91885   3.235  10.633  10.459
27678W        W91886  29.964  14.681  12.928
27679W        W91887  30.025  41.362   3.216
27680W        W91888  13.255  23.532   0.831
27681W        W91889  30.430  21.228  10.543
27682W        W91890  37.019   1.780   1.383
27683W        W91891  42.386  36.562  14.773
27684W        W91892  30.098   1.854  12.031
27685W        W91893  30.059  38.446   2.254
27686W        W91894  13.117   0.925  14.968
27687W        W91895  31.573   9.150   2.303
27688W        W91896  14.753  43.494   4.194
27689W        W91897  32.634  38.454  10.483
27690W        W91898  41.818   0.312  11.381
27691W        W91899  34.506   8.899  14.001
27692W        W91900   7.315  32.115  14.373
27693W        W91901  30.152   5.746   3.751
27694W        W91902   9.844  32.020   0.284
27695W        W91903  38.862  43.984   4.680
27696W        W91904  36.988  20.716  12.371
27697W        W91905  36.355  44.814   3.718
27698W        W91906  27.597  25.581   4.148
27699W        W91907  15.145  43.992  12.469
27700W        W91908  19.737  28.104   1.289
27701W        W91909   6.213  13.775  13.026
27702W        W91910  43.410   9.735  13.992
27703W        W91911  26.955  26.999   3.815
27704W        W91912  34.427  15.315   1.896
27705W        W91913  24.061  38.486  13.536
27706W        W91914  19.580  39.883  11.090
27707W        W91915  23.073  20.693   0.254
27708W        W91916   6.768  27.496   3.732
27709W        W91917  33.547  13.168   4.759
27710W        W91918  18.294  34.932   2.319
27711W        W91919  37.909   6.740   4.192
27712W        W91920  40.546  12.669  14.986
27713W        W91921  27.096  44.917   3.696
27714W        W91922  15.249  38.004  13.463
27715W        W91923  26.531   8.177   3.799
27716W        W91924   8.681  35.558  11.877
27717W        W91925  28.936   6.730  11.125
27718W        W91926  43.778   9.206   2.831
27719W        W91927  21.085  39.930  10.122
27720W        W91928  22.519  31.577   2.721
27721W        W91929   4.299   6.184   2.354
27722W        W91930  33.501  26.017   4.727
27723W        W91931   8.386  39.970  14.492
27724W        W91932  42.472  24.199  12.865
27725W        W91933   0.362  28.120   0.887
27726W        W91934   2.346  11.648  14.307
27727W        W91935   4.222   1.423   2.401
27728W        W91936  24.057  26.085  14.307
27729W        W91937  26.070  10.357   3.381
27730W        W91938  12.246   3.870   1.747
27731W        W91939  28.073  44.868  10.517
27732W        W91940   6.706  21.541   1.917
27733W        W91941  40.004   6.845  14.764
27734W        W91942  24.223  27.997  11.942
27735W        W91943  32.918  36.959  14.015
27736W        W91944   5.769  29.063  13.470
27737W        W91945  10.332  40.451  10.406
27738W        W91946  24.717  22.027  14.821
27739W        W91947   9.300   5.694   1.253
27740W        W91948   1.253  14.097   2.329
27741W        W91949  10.305  24.027   1.270
27742W        W91950   7.760  31.643  10.518
27743W        W91951  42.784  35.090   3.738
27744W        W91952   7.229  15.091   4.709
27745W        W91953  42.902  39.389  11.421
27746W        W91954   5.209  15.195   1.262
27747W        W91955  38.365   4.230  11.581
27748W        W91956  35.020  15.772  14.763
27749W        W91957   2.963  33.944   9.930
27750W        W91958  36.055  29.105   0.283
27751W        W91959   4.816  36.424  14.825
27752W        W91960  21.637  35.506   1.438
27753W        W91961  19.138   0.875  13.959
27754W        W91962  24.583  38.550  14.968
27755W        W91963   8.701  11.715   2.894
27756W        W91964  19.214  37.839  13.022
27757W        W91965  44.834   3.397   2.337
27758W        W91966  27.173  42.394   2.259
27759W        W91967  30.518  19.664  14.304
27760W        W91968   1.302  19.053  11.030
27761W        W91969   0.465  15.248  10.528
27762W        W91970  20.126  35.963  10.137
27763W        W91971  40.325   5.878   9.995
27764W        W91972  18.157  43.354   1.422
27765W        W91973  37.879   5.824  10.451
27766W        W91974   2.412  19.076  12.033
27767W        W91975  38.348   2.430  12.095
27768W        W91976  11.638  19.631   3.297
27769W        W91977   1.804  10.841   3.318
27770W        W91978  34.545  13.729  11.090
27771W        W91979  15.126   4.758   2.775
27772W        W91980  43.941   9.790   1.879
27773W        W91981   2.735  43.468  12.072
27774W        W91982  18.585  21.149   0.793
27775W        W91983   9.322  33.903  11.999
27776W        W91984  19.079   4.930   3.734
27777W        W91985  29.458  29.078  11.070
27778W        W91986  41.876  43.792   1.863
27779W        W91987  10.741   2.271   4.809
27780W        W91988  22.081   1.252  14.792
27781W        W91989  44.830   5.440  10.976
27782W        W91990   5.420  33.993  10.408
27783W        W91991   3.261  20.601   0.265
27784W        W91992   1.837  40.406   0.244
27785W        W91993  21.108  19.127   0.816
27786W        W91994  17.114  43.010  11.856
27787W        W91995  34.610  26.692  12.064
27788W        W91996  39.432   4.943   0.829
27789W        W91997   6.793  32.434  13.944
27790W        W91998  35.030  32.920   3.302
27791W        W91999  27.649  44.388   0.378
27792W        W92000  12.345  13.838  10.551
27793W        W92001   9.744  15.700   4.289
27794W        W92002   9.734  29.656  14.947
27795W        W92003  38.017  36.387  12.835
27796W        W92004  40.416  15.781   1.763
27797W        W92005   1.831  12.785   1.347
27798W        W92006   0.349  21.129  14.982
27799W        W92007  38.840   9.776   3.635
27800W        W92008  15.579   6.877  13.826
27801W        W92009  34.071  28.621  10.976
27802W        W92010  10.184  34.088  13.035
27803W        W92011  38.907  27.160  13.890
27804W        W92012  16.116  39.521   4.257
27805W        W92013  29.424   9.276  10.956
27806W        W92014  23.119  22.249  13.995
27807W        W92015   7.371  29.086   3.869
27808W        W92016  11.650  12.803  14.928
27809W        W92017   9.161   0.248  14.471
27810W        W92018  27.028  29.600  13.821
27811W        W92019  44.429  23.688   5.168
27812W        W92020  36.879  15.645  11.426
27813W        W92021  18.074  24.563  11.956
27814W        W92022  25.995   5.330  13.443
27815W        W92023   9.153  40.503   3.306
27816W        W92024  18.136  11.682  13.870
27817W        W92025  19.206  17.075   2.366
27818W        W92026  29.583  25.150   9.929
27819W        W92027  33.980   9.841   3.758
27820W        W92028  42.986  38.437   1.442
27821W        W92029  41.460  18.606   2.205
27822W        W92030   2.455  29.424   4.644
27823W        W92031   6.371  12.230   1.790
27824W        W92032   5.202  15.764   1.905
27825W        W92033  17.747  32.442   3.309
27826W        W92034  38.930  20.546  12.430
27827W        W92035  26.004   3.319  13.414
27828W        W92036  35.104  18.176   2.681
27829W        W92037  40.870  33.884  10.515
27830W        W92038  11.344  13.681   1.450
27831W        W92039  13.214  44.910   0.411
27832W        W92040   6.762  10.780  12.481
27833W        W92041  15.706  41.871   0.950
27834W        W92042  40.955  27.190   3.379
27835W        W92043   7.886  14.667   5.160
27836W        W92044  20.182  35.554   3.194
27837W        W92045  38.906  17.686  12.503
27838W        W92046  21.206  33.924   4.277
27839W        W92047   8.868  43.406   3.158
27840W        W92048   3.926  19.627   4.165
27841W        W92049  34.561  40.498  10.503
27842W        W92050  38.903   0.850   4.261
27843W        W92051   9.186  12.123   2.357
27844W        W92052  12.349   5.387  14.789
27845W        W92053   5.212   4.760  12.892
27846W        W92054  26.194  27.561  14.319
27847W        W92055  29.939  36.366   3.370
27848W        W92056  16.683  43.898  11.493
27849W        W92057   9.855  10.746  12.366
27850W        W92058  40.001  17.613  11.544
27851W        W92059  28.480   5.305  12.497
27852W        W92060   7.274  11.333  11.941
27853W        W92061   6.298  13.174  13.431
27854W        W92062  33.062   3.253  12.469
27855W        W92063  15.680  13.181  12.019
27856W        W92064  36.549  21.650   0.427
27857W        W92065  17.249  36.372   2.747
27858W        W92066  13.651  15.300  13.996
27859W        W92067  30.969  36.880  11.384
27860W        W92068  22.601  39.879   3.818
27861W        W92069  14.262  29.530  12.854
27862W        W92070  30.440  26.616   2.887
27863W        W92071  23.097  25.713   3.295
27864W        W92072  14.682  43.787   4.718
27865W        W92073  14.316   0.458  12.053
27866W        W92074  41.020  24.629   0.774
27867W        W92075   1.437  22.079  13.482
27868W        W92076  24.706  29.096  12.999
27869W        W92077   9.342  21.710  13.342
27870W        W92078  19.106  18.561   3.381
27871W        W92079  15.691  22.611  14.389
27872W        W92080  11.235  29.918   2.189
27873W        W92081  23.000  42.780  11.564
27874W        W92082  30.137   0.782   2.316
27875W        W92083  28.651   9.198  11.092
27876W        W92084   8.754  31.032  10.406
27877W        W92085  42.804   5.834   4.637
27878W        W92086   8.895  43.988  12.439
27879W        W92087  43.772  32.110  13.313
27880W        W92088  10.794  23.706  13.430
27881W        W92089  31.417  14.289   2.202
27882W        W92090  12.341  10.333  11.089
27883W        W92091  34.037  16.193  12.971
27884W        W92092  28.991  25.043  11.959
27885W        W92093  10.730  31.979  10.915
27886W        W92094   5.861  15.799  11.119
27887W        W92095   0.836  37.852  14.376
27888W        W92096  10.167  33.039  14.386
27889W        W92097   1.261  11.759  11.879
27890W        W92098  35.868  19.168   3.763
27891W        W92099  34.535  19.243  14.394
27892W        W92100  18.550  21.194   4.705
27893W        W92101  17.175  27.121   4.614
27894W        W92102   7.358  38.843   2.212
27895W        W92103   2.263  40.398  14.775
27896W        W92104  30.527  12.811  10.638
27897W        W92105  10.173  15.276  12.555
27898W        W92106  20.068  37.354  13.344
27899W        W92107   2.879   4.921  12.870
27900W        W92108  17.597   5.407   1.231
27901W        W92109  24.041  23.219  10.484
27902W        W92110  41.802  20.632   0.316
27903W        W92111  31.491  22.201   3.642
27904W        W92112  40.500   3.239   4.223
27905W        W92113  14.623  43.487  11.050
27906W        W92114  11.366  26.574   1.346
27907W        W92115   1.802  25.108  14.841
27908W        W92116  38.034  20.700   3.724
27909W        W92117  20.652  33.902   4.740
27910W        W92118  36.428  21.607   1.815
27911W        W92119  34.950  41.892  13.022
27912W        W92120   2.963  33.892  14.771
27913W        W92121  16.792   9.280   3.738
27914W        W92122  37.575  18.601  11.965
27915W        W92123  12.843  10.363  10.475
27916W        W92124  19.726   9.283  10.471
27917W        W92125  17.794  25.027   1.277
27918W        W92126   4.755  40.019   2.350
27919W        W92127  23.003  22.601  12.070
27920W        W92128  30.574   8.279   2.728
27921W        W92129  28.933   8.885   4.651
27922W        W92130   3.304   2.266  10.946
27923W        W92131  23.073   7.241   0.727
27924W        W92132  34.446   3.927   2.217
27925W        W92133  29.596  25.604  11.490
27926W        W92134  41.923   8.199   2.878
27927W        W92135  30.092  29.563  10.459
27928W        W92136   5.363  20.668  11.020
27929W        W92137  27.042  36.401  13.520
27930W        W92138  27.571  32.634   0.771
27931W        W92139  27.545  14.599  11.916
27932W        W92140  29.564  27.958  10.961
27933W        W92141   4.898  41.499   2.186
27934W        W92142  31.625   7.311   4.306
27935W        W92143  15.728  25.565   0.275
27936W        W92144  17.638  15.220  12.070
27937W        W92145  38.058  43.918   2.810
27938W        W92146  43.951  43.442   2.338
27939W        W92147  19.212  23.164  11.931
27940W        W92148  22.127   9.200  10.437
27941W        W92149  26.467  20.153   3.367
27942W        W92150  19.277  25.094  14.279
27943W        W92151  25.149  15.589  11.076
27944W        W92152  33.512  40.365  13.940
27945W        W92153  29.976  41.915   0.842
27946W        W92154  31.048  33.531   1.240
27947W        W92155  29.429   4.775   1.738
27948W        W92156   4.826   6.688   4.267
27949W        W92157  35.004   3.778  12.044
27950W        W92158   0.347   7.403  10.984
27951W        W92159  35.068   7.217   2.751
27952W        W92160  11.192  41.988  12.840
27953W        W92161  27.029  28.156  11.095
27954W        W92162   6.780  42.865  13.987
27955W        W92163  30.641  40.457  10.432
27956W        W92164  13.147  21.627  13.867
27957W        W92165  33.984  29.155  13.967
27958W        W92166   2.801  22.057  12.953
27959W        W92167  29.989  40.017  10.943
27960W        W92168  32.933  30.557  11.110
27961W        W92169  12.654  44.316   0.926
27962W        W92170  23.123  42.349  11.462
27963W        W92171  13.219  40.966  12.574
27964W        W92172  19.713   0.292   0.959
27965W        W92173  40.533  35.996   2.805
27966W        W92174  31.416  11.647  10.485
27967W        W92175  15.106  40.883  13.457
27968W        W92176  13.831  16.224  11.498
27969W        W92177   5.200  27.490  12.018
27970W        W92178  32.910  35.601   3.326
27971W        W92179   0.921  36.426   1.837
27972W        W92180  19.571  35.363  11.978
27973W        W92181  26.639  22.142  10.531
27974W        W92182  44.996  42.860  13.965
27975W        W92183  42.855   9.157  13.340
27976W        W92184  32.548   7.359  10.588
27977W        W92185  41.988  38.056   2.810
27978W        W92186  12.202  44.266  12.868
27979W        W92187  10.695  43.839   3.698
27980W        W92188  44.801  32.141   9.510
27981W        W92189  25.637   8.265  10.532
27982W        W92190  38.331   9.320  13.014
27983W        W92191  24.598  39.973   0.841
27984W        W92192  18.632  12.193  10.634
27985W        W92193  35.994  16.270   2.823
27986W        W92194  31.424   7.196   3.739
27987W        W92195  34.980   3.821  11.554
27988W        W92196   3.847   4.775   9.933
27989W        W92197  34.105  40.322  12.046
27990W        W92198  44.434  12.797   2.821
27991W        W92199  11.754   6.217   3.717
27992W        W92200  13.332  37.974   4.770
27993W        W92201  38.880  36.444   1.768
27994W        W92202  35.546   2.871  11.939
27995W        W92203  35.071  21.632   3.326
27996W        W92204  20.086  41.857  11.045
27997W        W92205  38.363  35.107   0.254
27998W        W92206  40.387   8.721   0.918
27999W        W92207  20.033  34.590  10.524
28000W        W92208  19.213   8.390   0.890
28001W        W92209   7.704  16.218  14.502
28002W        W92210  35.890   0.795   1.323
28003W        W92211  20.229  22.241  11.916
28004W        W92212  16.578  12.168  11.610
28005W        W92213  27.989   4.320  11.526
28006W        W92214   3.415  16.241   0.871
28007W        W92215   5.283  21.700   3.161
28008W        W92216   8.300   4.234  12.896
28009W        W92217  37.986  38.540   3.734
28010W        W92218  43.973  41.350  13.972
28011W        W92219  31.584  36.383  12.933
28012W        W92220  16.100  11.246  13.952
28013W        W92221   2.314  17.796   2.182
28014W        W92222   0.362   6.682   1.879
28015W        W92223   2.854   7.859   3.779
28016W        W92224  13.177  43.444   2.365
28017W        W92225  11.165  19.700   4.149
28018W        W92226   0.801  30.961  13.062
28019W        W92227  31.623  18.212  13.873
28020W        W92228  14.115  33.413   1.213
28021W        W92229  22.069  17.165  11.432
28022W        W92230  20.242   2.863  11.601
28023W        W92231  29.986   7.885   1.746
28024W        W92232   8.261   6.296   0.272
28025W        W92233  37.368  24.195  13.008
28026W        W92234  29.490   9.387   2.769
28027W        W92235  15.317  19.113   2.763
28028W        W92236  22.547  12.685  10.627
28029W        W92237  28.643  43.956  13.994
28030W        W92238  32.541  16.233   4.653
28031W        W92239  23.670  29.084  12.403
28032W        W92240  41.482  32.535   1.297
28033W        W92241   9.338   3.429  14.387
28034W        W92242   1.431  39.332  12.559
28035W        W92243  21.035  22.250  14.464
28036W        W92244   0.883  43.830   1.702
28037W        W92245  24.033  35.051  12.431
28038W        W92246  34.400  39.444  11.127
28039W        W92247  32.927  16.251   5.137
28040W        W92248  27.586  34.447   0.336
28041W        W92249   6.840  25.535   2.310
28042W        W92250  33.413   0.272   0.861
28043W        W92251   9.320  30.496  11.611
28044W        W92252  17.619  11.198  14.784
28045W        W92253  29.467  36.042   0.858
28046W        W92254  36.460  37.967  10.909
28047W        W92255  21.722  20.274   4.658
28048W        W92256   8.899  16.084  14.395
28049W        W92257  16.285  17.236  13.498
28050W        W92258  16.784  10.718  11.090
28051W        W92259  34.587   8.838  11.531
28052W        W92260  28.000   2.280   3.182
28053W        W92261  36.857  29.609   3.865
28054W        W92262  31.416  44.004  11.112
28055W        W92263  18.125   8.167  12.502
28056W        W92264  22.610  15.249   2.389
28057W        W92265  17.291  36.546  10.904
28058W        W92266  38.404  34.917   3.274
28059W        W92267   9.183  17.123   0.289
28060W        W92268  23.599  17.563   1.387
28061W        W92269  12.249  23.676   4.770
28062W        W92270  17.170  10.841   1.405
28063W        W92271  28.178  32.085   2.766
28064W        W92272  32.417   8.265  13.943
28065W        W92273  18.688  23.644   4.308
28066W        W92274  31.413  43.412  12.917
28067W        W92275  18.734  39.058   2.895
28068W        W92276  30.128  39.945   1.250
28069W        W92277   5.265   1.905  12.044
28070W        W92278  25.977  29.562   0.967
28071W        W92279  37.528  13.654   1.418
28072W        W92280  20.219  30.009   0.363
28073W        W92281   2.929   0.816   0.754
28074W        W92282  34.045  21.635   0.243
28075W        W92283  15.774  43.781   3.804
28076W        W92284   2.291  34.395   0.367
28077W        W92285  10.295  23.664  14.955
28078W        W92286  26.472  22.164  11.000
28079W        W92287  16.753   6.416   3.870
28080W        W92288  33.902   1.479   2.183
28081W        W92289  34.608  12.827  13.383
28082W        W92290  41.846   3.866  14.435
28083W        W92291  15.201  28.558  11.038
28084W        W92292  34.896  41.495  14.950
28085W        W92293  15.644  43.281  14.465
28086W        W92294  43.369  35.962   0.424
28087W        W92295  35.871  38.849   2.266
28088W        W92296  26.476  22.562   3.811
28089W        W92297  16.743  25.983  13.499
28090W        W92298  44.298  37.360   1.726
28091W        W92299   5.372  38.401  11.880
28092W        W92300   3.407  18.153   2.871
28093W        W92301   8.894   2.435  11.412
28094W        W92302  22.234  40.824   3.640
28095W        W92303   4.285  43.393   2.288
28096W        W92304  21.161   8.719   2.727
28097W        W92305   2.755  35.050   9.590
28098W        W92306   5.208   8.346  11.098
28099W        W92307   2.322  10.765  13.903
28100W        W92308  31.414  28.102  12.074
28101W        W92309  16.789  32.115  11.592
28102W        W92310   7.793  20.159  11.873
28103W        W92311  22.201  23.707  12.471
28104W        W92312   8.714  18.244  12.828
28105W        W92313  39.344  41.877  11.570
28106W        W92314  32.391  30.416  11.972
28107W        W92315  15.160  14.803   0.936
28108W        W92316   1.312   2.303   4.250
28109W        W92317  28.044  44.358   2.708
28110W        W92318  11.141  43.828  12.547
28111W        W92319   2.841  31.128  14.998
28112W        W92320  15.803  23.491  10.476
28113W        W92321  14.205  11.744  13.495
28114W        W92322   9.246  31.098   4.333
28115W        W92323  24.140   7.322   1.770
28116W        W92324   7.721   8.657   3.749
28117W        W92325   3.382  27.531   3.175
28118W        W92326  25.019  40.910   4.229
28119W        W92327  43.860   5.336   1.365
28120W        W92328   4.888  42.523   4.606
28121W        W92329  10.299   9.344   0.409
28122W        W92330  43.439  29.452   5.311
28123W        W92331  41.495  43.887  12.075
28124W        W92332  20.722  34.585  11.905
28125W        W92333  43.421  33.391  14.997
28126W        W92334  14.760   9.219   1.923
28127W        W92335  28.658  14.627  13.501
28128W        W92336  26.054   6.307   2.711
28129W        W92337  38.969  11.346  11.491
28130W        W92338  29.666  20.086  13.446
28131W        W92339  32.430  25.197   4.192
28132W        W92340  39.061  11.253  10.141
28133W        W92341  41.381   9.168  12.948
28134W        W92342  27.001  12.167  13.851
28135W        W92343  20.043   8.703   0.273
28136W        W92344  37.525   1.903   1.895
28137W        W92345   0.872  43.346  10.968
28138W        W92346  29.437   7.705  13.934
28139W        W92347  34.106  31.052   2.679
28140W        W92348  32.035  30.516  13.424
28141W        W92349  15.097   0.464  10.481
28142W        W92350  22.734  25.167   2.758
28143W        W92351  14.141  40.884  10.901
28144W        W92352   4.804  41.000  14.828
28145W        W92353  31.092  44.873  10.596
28146W        W92354  26.623  11.202   3.857
28147W        W92355  21.107  24.045   2.182
28148W        W92356  35.974   5.225  13.888
28149W        W92357  37.371   4.761  12.347
28150W        W92358  11.153   9.706   3.841
28151W        W92359   9.653  24.982   2.284
28152W        W92360  19.200  40.399   4.167
28153W        W92361  27.615   9.846  12.075
28154W        W92362  19.282  40.522  11.909
28155W        W92363  41.469  32.944  14.511
28156W        W92364  37.023  25.190  11.084
28157W        W92365  41.515  28.969   1.296
28158W        W92366  27.462  40.851   0.480
28159W        W92367   0.466  24.085  13.826
28160W        W92368  36.380  35.894   3.633
28161W        W92369  17.082  42.001   3.719
28162W        W92370  19.772  35.443   3.739
28163W        W92371  26.590   3.907   2.866
28164W        W92372  29.510   4.709   3.819
28165W        W92373  38.994   3.436  13.880
28166W        W92374  15.698   5.319  14.894
28167W        W92375  13.721  27.167  14.823
28168W        W92376  10.149   4.205  10.109
28169W        W92377  44.293  24.509   0.253
28170W        W92378   9.206  23.088   0.327
28171W        W92379  26.199  40.512   0.362
28172W        W92380  23.005   6.232   5.155
28173W        W92381   4.433  25.010  13.855
28174W        W92382  32.107  41.989  14.815
28175W        W92383  44.974  10.249   2.230
28176W        W92384  12.672   2.368   0.796
28177W        W92385  35.055  39.539  12.468
28178W        W92386  29.576  17.716  14.778
28179W        W92387  35.518  35.451   2.781
28180W        W92388  14.635   2.365   0.389
28181W        W92389   6.319  12.322  14.296
28182W        W92390  12.643  41.423   2.681
28183W        W92391  29.664   3.293  11.896
28184W        W92392  23.993   3.878   0.916
28185W        W92393  17.796  35.982   4.246
28186W        W92394  43.516  10.243   2.831
28187W        W92395  32.543  42.455  13.463
28188W        W92396  41.814  23.611  13.487
28189W        W92397  35.561  25.518   0.478
28190W        W92398  11.251   6.364   3.355
28191W        W92399  12.181   2.278  13.017
28192W        W92400  35.019   2.882  12.348
28193W        W92401   6.305  40.941  14.772
28194W        W92402  39.377  15.670  10.555
28195W        W92403  44.359  42.407  12.374
28196W        W92404  21.677  17.112   2.681
28197W        W92405  30.945  10.152   4.265
28198W        W92406   9.750   0.339  12.027
28199W        W92407   8.354  18.058   3.769
28200W        W92408   1.910  41.992   1.876
28201W        W92409  13.252  13.723   0.908
28202W        W92410  41.313   2.454  14.765
28203W        W92411  44.273  20.144  14.966
28204W        W92412   6.740  12.711  10.633
28205W        W92413  17.788   6.691   3.255
28206W        W92414  15.117  12.704   0.368
28207W        W92415   3.247  34.115  13.436
28208W        W92416   6.233   5.261   3.255
28209W        W92417  14.746  27.082  14.299
28210W        W92418  41.828  28.942   4.663
28211W        W92419  42.972   6.268   1.385
28212W        W92420  25.689  41.007  13.375
28213W        W92421  14.596  26.682   3.260
28214W        W92422   5.411  10.143  10.520
28215W        W92423   9.796   2.886   3.318
28216W        W92424  37.005   4.726  11.450
28217W        W92425   4.225   5.439  14.850
28218W        W92426  42.522  18.125   0.838
28219W        W92427  40.507   8.262   2.737
28220W        W92428  10.178  33.093   4.318
28221W        W92429  42.783  16.083   3.285
28222W        W92430  24.704  13.330   2.744
28223W        W92431  25.181  28.614  14.355
28224W        W92432   4.436   5.367  13.444
28225W        W92433  39.985   2.341   0.745
28226W        W92434  41.876  40.504  14.995
28227W        W92435   4.213  39.824   3.377
28228W        W92436  12.155  20.629  11.993
28229W        W92437  23.231  26.655  13.503
28230W        W92438   8.773  10.213   3.794
28231W        W92439  32.633  28.450  14.781
28232W        W92440  42.906  35.466   4.614
28233W        W92441  17.614  32.034  14.806
28234W        W92442  32.547  38.932   3.734
28235W        W92443   8.732   9.235   3.713
28236W        W92444  20.759  37.925  12.367
28237W        W92445  41.342  12.672   0.390
28238W        W92446  32.592  33.875   2.234
28239W        W92447   4.222   0.372   0.776
28240W        W92448   2.910  25.067   4.309
28241W        W92449  31.438   7.352   3.269
28242W        W92450  44.775  22.124   4.217
28243W        W92451   3.459  41.806   4.232
28244W        W92452  39.857  27.974   1.326
28245W        W92453  14.265  42.446  11.542
28246W        W92454  13.753  28.628   1.787
28247W        W92455  11.852  41.448  13.800
28248W        W92456  44.960   8.681   2.884
28249W        W92457  28.506  32.109   2.317
28250W        W92458  42.828  16.082   2.208
28251W        W92459   4.325  21.633   0.951
28252W        W92460  21.533  19.708  13.370
28253W        W92461  31.896  20.194   2.835
28254W        W92462  40.054  25.573   1.932
28255W        W92463  41.917  26.198  12.356
28256W        W92464   2.337  19.091   2.879
28257W        W92465  27.524  23.056   2.286
28258W        W92466  24.678  11.253   0.868
28259W        W92467  24.223  36.373  11.379
28260W        W92468  22.504   1.745   2.415
28261W        W92469  19.224  42.843   1.299
28262W        W92470  33.523   0.785   4.728
28263W        W92471  39.844   0.843  10.946
28264W        W92472  44.480  17.775  12.966
28265W        W92473   6.711   1.804  13.356
28266W        W92474  40.430  17.657   2.745
28267W        W92475  40.869  38.337   3.646
28268W        W92476  25.636  19.196   2.835
28269W        W92477  38.433  44.764  10.487
28270W        W92478  41.498  34.092  10.941
28271W        W92479  29.000  26.469   2.769
28272W        W92480  40.992  35.003   4.279
28273W        W92481   6.290  29.668   3.651
28274W        W92482  34.464  15.655   2.367
28275W        W92483  17.651  17.592  11.868
28276W        W92484  36.878   2.407  11.927
28277W        W92485  16.263  41.953   1.858
28278W        W92486  28.032  36.573  12.032
28279W        W92487  36.444  41.349  12.467
28280W        W92488  21.210  22.654   1.705
28281W        W92489  43.474  23.235   3.819
28282W        W92490  20.187   5.732  12.918
28283W        W92491  21.582   6.731  12.994
28284W        W92492  29.935   7.703   2.317
28285W        W92493  25.083  36.040  14.307
28286W        W92494  27.169  23.575  10.963
28287W        W92495  11.137   2.265   2.319
28288W        W92496  28.513  24.699  10.994
28289W        W92497  40.397  30.014   0.338
28290W        W92498  24.499  31.095  12.544
28291W        W92499   1.278  28.552  11.988
28292W        W92500   8.269  13.802   9.522
28293W        W92501  37.943  43.801  10.561
28294W        W92502   2.739   7.329   4.232
28295W        W92503   6.893  14.764  14.403
28296W        W92504  18.247  17.179   9.964
28297W        W92505  24.481   5.285   1.790
28298W        W92506  26.169  43.983  12.412
28299W        W92507  18.091  12.235   0.334
28300W        W92508   1.355  12.127  14.924
28301W        W92509  36.390   9.327  10.573
28302W        W92510  10.821  30.031  14.277
28303W        W92511  16.712  24.228  13.393
28304W        W92512  30.965  27.652   4.823
28305W        W92513  35.490  28.019   3.834
28306W        W92514  29.097   0.935   1.743
28307W        W92515  20.546  23.985  12.373
28308W        W92516  37.066  18.262   2.855
28309W        W92517   8.258  27.466   0.411
28310W        W92518  44.873  26.632  12.388
28311W        W92519  11.141  21.207  12.492
28312W        W92520  44.776  22.588  10.530
28313W        W92521  28.018  25.636   3.870
28314W        W92522   1.395  18.616   0.867
28315W        W92523   6.747  25.643   4.194
28316W        W92524   5.273  43.338   0.892
28317W        W92525   5.227  25.034   5.226
28318W        W92526  26.194  23.542   4.318
28319W        W92527  42.821  39.881  12.521
28320W        W92528  14.199  24.502   3.216
28321W        W92529  13.655  27.113   1.320
28322W        W92530  38.453  43.359   2.218
28323W        W92531  38.441   1.784   4.762
28324W        W92532   0.400   9.373   0.814
28325W        W92533   4.764  36.053  14.314
28326W        W92534  16.608  30.980   4.177
28327W        W92535  38.459   0.375   3.229
28328W        W92536  44.396  36.907   2.220
28329W        W92537   1.349  26.651   3.281
28330W        W92538  34.399  10.843   2.894
28331W        W92539  38.895  34.088  13.427
28332W        W92540  35.382  11.633   1.846
28333W        W92541  33.414  19.559  13.026
28334W        W92542  44.828   5.228   4.269
28335W        W92543   1.308  18.072   3.243
28336W        W92544   2.242   4.934   1.212
28337W        W92545  15.660   4.331   1.851
28338W        W92546  42.373  10.674  10.434
28339W        W92547  40.886  28.027  12.464
28340W        W92548  11.146  34.433  14.916
28341W        W92549  44.293   5.712  12.577
28342W        W92550  21.198  30.619  12.446
28343W        W92551  36.894  16.629   0.804
28344W        W92552  34.056   3.228   0.438
28345W        W92553  19.683  20.653  11.461
28346W        W92554  22.058  40.339  12.445
28347W        W92555  35.583  43.476  14.427
28348W        W92556  38.329  26.510  13.005
28349W        W92557  30.991  31.570  13.057
28350W        W92558  12.855   0.349  10.964
28351W        W92559  34.068  10.685   1.447
28352W        W92560  14.729  26.122   0.474
28353W        W92561  24.480   4.791  13.517
28354W        W92562  32.976   8.162   4.821
28355W        W92563  36.000  15.270   1.797
28356W        W92564  26.531  30.920   2.762
28357W        W92565  11.254  11.769  11.034
28358W        W92566   1.818  22.595  13.356
28359W        W92567  38.936  18.616  11.512
28360W        W92568   8.786  39.530   3.145
28361W        W92569   9.720  31.518  11.547
28362W        W92570  18.751   5.258  10.970
28363W        W92571  34.454  42.922   1.751
28364W        W92572   2.948  28.160   4.312
28365W        W92573  36.347  39.391   2.813
28366W        W92574  21.684  42.332  13.040
28367W        W92575   9.155  44.485  11.112
28368W        W92576  15.639  20.525  11.980
28369W        W92577  32.442  30.925  13.369
28370W        W92578  22.203  12.813   2.302
28371W        W92579   7.909  24.071  14.903
28372W        W92580   0.756   0.817   4.710
28373W        W92581  43.861  33.091   4.316
28374W        W92582  27.471  43.419  11.466
28375W        W92583  30.491  14.203  13.029
28376W        W92584   8.859  42.906   0.958
28377W        W92585  43.936  38.978  13.308
28378W        W92586  40.896  42.782  11.412
28379W        W92587  10.677   6.335  11.969
28380W        W92588  14.625  14.829   0.379
28381W        W92589   6.781  32.086  11.111
28382W        W92590  32.085   7.850   3.317
28383W        W92591  32.921  39.537   0.250
28384W        W92592  43.362   9.180  12.964
28385W        W92593  17.069   5.399   3.739
28386W        W92594  24.216  11.192  10.438
28387W        W92595  37.490  17.590  12.050
28388W        W92596  31.458   2.785  14.914
28389W        W92597  35.365  39.463  11.085
28390W        W92598  39.831  15.200  14.921
28391W        W92599  22.584  29.440  11.024
28392W        W92600   0.356   1.848   2.209
28393W        W92601   5.922  32.054  14.284
28394W        W92602  34.083  19.740   0.396
28395W        W92603  40.855  16.722  12.072
28396W        W92604   3.860  12.228  14.943
28397W        W92605   0.790  21.022  10.987
28398W        W92606   2.264  41.474  13.884
28399W        W92607  40.913  25.697  14.300
28400W        W92608   5.877  11.259  12.414
28401W        W92609  11.850  19.765  11.526
28402W        W92610  28.038  17.271   0.801
28403W        W92611   3.385  36.927  11.855
28404W        W92612  42.851  26.666   5.140
28405W        W92613  11.139  43.366  13.319
28406W        W92614   2.849  35.005   3.864
28407W        W92615  23.190   8.773  13.963
28408W        W92616  20.271  13.180  13.967
28409W        W92617  42.819  41.528   3.240
28410W        W92618  31.967  13.268  12.031
28411W        W92619  33.025   3.757   4.166
28412W        W92620  31.566   8.861   3.264
28413W        W92621  12.738  19.198   1.260
28414W        W92622  16.285   5.723  13.010
28415W        W92623  19.767  40.029   0.926
28416W        W92624  22.031  16.259  12.847
28417W        W92625  32.500  43.510  11.544
28418W        W92626   5.892  16.794  12.900
28419W        W92627  11.839   0.360   0.412
28420W        W92628  35.041  12.754  14.298
28421W        W92629  31.106  28.525   1.896
28422W        W92630   2.846  10.173   2.842
28423W        W92631  27.109   6.363   1.240
28424W        W92632   7.319  43.497   4.691
28425W        W92633  19.655   9.154  12.067
28426W        W92634  33.425  18.127  12.998
28427W        W92635   0.928  25.705   1.280
28428W        W92636  43.318   3.242   4.253
28429W        W92637   1.259  44.303  13.841
28430W        W92638  38.530  20.692   0.362
28431W        W92639  14.710   9.645  13.942
28432W        W92640  10.245   0.489  11.583
28433W        W92641  12.251  38.820  13.518
28434W        W92642  22.506  40.978   4.343
28435W        W92643   0.989  42.330  14.287
28436W        W92644  10.866  11.811   1.355
28437W        W92645   0.803  19.574  12.907
28438W        W92646  38.858   4.340  10.943
28439W        W92647  41.460  11.837  14.508
28440W        W92648  35.920  18.598   1.449
28441W        W92649   6.710   2.443  14.357
28442W        W92650  44.406   7.256   4.261
28443W        W92651   2.322  41.295   1.425
28444W        W92652  35.969  36.995  13.535
28445W        W92653  31.647  26.009   4.721
28446W        W92654  24.033  15.202  10.459
28447W        W92655  35.951  30.970   3.151
28448W        W92656  38.453  29.145   1.414
28449W        W92657  12.241   7.729   2.807
28450W        W92658  43.424   0.285  12.003
28451W        W92659   1.332   0.951   3.860
28452W        W92660  36.941   5.824   3.731
28453W        W92661  23.641  15.249   4.270
28454W        W92662   5.204  41.344   1.738
28455W        W92663   2.397  20.721  12.084
28456W        W92664  13.611  25.209  12.987
28457W        W92665  39.502  37.365   0.881
28458W        W92666  16.200  40.852   0.802
28459W        W92667  15.328   8.731  13.978
28460W        W92668   7.260  19.626   2.412
28461W        W92669  13.237   2.922  11.592
28462W        W92670   4.316  10.168   3.721
28463W        W92671  30.507  24.127  13.799
28464W        W92672  13.646   7.725   2.306
28465W        W92673  25.671  32.528   1.857
28466W        W92674  34.934  40.896   1.306
28467W        W92675   9.847   8.194   3.794
28468W        W92676  17.739  43.804  10.964
28469W        W92677  24.565  22.666  14.508
28470W        W92678  24.195   5.793  11.945
28471W        W92679  18.695  29.993  11.517
28472W        W92680  20.065   8.403  11.563
28473W        W92681  25.642  38.983   1.282
28474W        W92682  31.094  38.528   1.447
28475W        W92683  14.627  10.845   4.328
28476W        W92684  25.005  22.686   4.195
28477W        W92685   1.461   7.239   3.308
28478W        W92686  25.576   7.689   4.204
28479W        W92687  15.700  21.569   3.280
28480W        W92688  26.109  38.368  12.443
28481W        W92689  24.531  13.791  11.992
28482W        W92690   3.456   9.837  11.000
28483W        W92691  24.006  42.419  13.900
28484W        W92692  40.855  37.037  10.943
28485W        W92693  16.286  26.504   4.264
28486W        W92694  24.230  24.484   4.130
28487W        W92695  14.811  28.575  12.439
28488W        W92696  22.136  33.916  12.852
28489W        W92697  41.506  11.205   1.352
28490W        W92698  40.862   5.264   1.800
28491W        W92699  34.013   0.335   2.374
28492W        W92700  41.792  39.908  11.910
28493W        W92701  11.655  31.980   1.767
28494W        W92702  10.633  14.326  12.422
28495W        W92703  25.077  41.412  12.022
28496W        W92704   6.767  20.610   3.363
28497W        W92705  20.147  37.537   1.273
28498W        W92706  39.894  25.625  11.578
28499W        W92707  12.356  25.041   0.821
28500W        W92708   5.340  29.442   1.827
28501W        W92709  32.142   7.403  14.414
28502W        W92710  12.184  30.019  11.945
28503W        W92711   9.710   1.270   4.300
28504W        W92712   7.890  38.830   1.860
28505W        W92713  23.604  29.585   4.716
28506W        W92714  17.266  18.098   4.275
28507W        W92715  28.566  12.627  14.279
28508W        W92716   8.727  35.863  11.881
28509W        W92717  30.592   5.193  13.023
28510W        W92718   2.282  42.776   4.641
28511W        W92719  12.757  33.493  14.321
28512W        W92720  43.435  35.423   3.702
28513W        W92721  17.680  22.100   1.789
28514W        W92722  44.860   8.828  14.358
28515W        W92723  23.545  36.986   2.880
28516W        W92724  32.992  23.689  14.413
28517W        W92725  14.273  29.513   1.763
28518W        W92726  42.897  35.929  11.869
28519W        W92727   1.264   6.217   0.345
28520W        W92728  27.169  29.518   1.433
28521W        W92729  34.490  37.432   0.797
28522W        W92730   7.743   5.379  13.525
28523W        W92731   9.828  13.660   0.793
28524W        W92732  25.211   8.306  12.857
28525W        W92733  34.583  16.303  14.779
28526W        W92734   6.815  35.401  12.962
28527W        W92735   9.668  16.302   9.576
28528W        W92736  28.155  23.058   2.256
28529W        W92737  39.870  29.164   4.295
28530W        W92738   3.425  31.476   3.826
28531W        W92739   9.856  24.138   3.738
28532W        W92740  22.156  30.464  11.463
28533W        W92741  38.954  24.634  13.791
28534W        W92742  41.455  19.089   5.188
28535W        W92743   6.373  10.280  11.950
28536W        W92744  23.720  16.284  14.416
28537W        W92745  10.822  22.641   0.949
28538W        W92746  40.384  10.816   2.197
28539W        W92747  28.074  38.943  11.089
28540W        W92748  11.368  29.555   3.683
28541W        W92749  16.246  41.982  13.345
28542W        W92750  30.461  28.136  10.635
28543W        W92751  35.463  39.441  14.478
28544W        W92752  42.949  19.720  10.525
28545W        W92753   7.870  11.669   4.130
28546W        W92754  19.571   2.871  11.123
28547W        W92755   3.360  30.963  10.636
28548W        W92756   9.205  33.447  12.515
28549W        W92757  27.965   1.769  13.425
28550W        W92758  14.723  22.521  14.421
28551W        W92759  29.590  44.382   1.298
28552W        W92760  10.245   7.188  14.479
28553W        W92761  21.700   8.700  12.018
28554W        W92762  39.822   0.885  11.958
28555W        W92763  27.623  17.070  11.008
28556W        W92764  36.077  43.331   0.932
28557W        W92765   5.410  43.317  14.302
28558W        W92766  35.966  18.265   4.335
28559W        W92767  29.976  32.011   4.323
28560W        W92768  40.874  16.289   4.602
28561W        W92769  21.604  36.500  11.518
28562W        W92770   7.355   2.786  11.989
28563W        W92771   8.725  40.308   1.749
28564W        W92772  22.706  17.147  13.458
28565W        W92773  11.160   8.796   2.760
28566W        W92774  38.001   3.285  10.929
28567W        W92775  41.020  38.842  12.381
28568W        W92776  16.592  39.379  11.905
28569W        W92777  18.765  32.905   0.381
28570W        W92778   6.913  28.562  14.399
28571W        W92779  35.028  21.572   0.846
28572W        W92780  33.511   3.259   0.745
28573W        W92781  18.213   5.815  12.051
28574W        W92782  12.736   8.223  14.899
28575W        W92783   8.773  41.880  13.437
28576W        W92784  16.604  19.221  13.403
28577W        W92785   9.659  41.024   4.144
28578W        W92786  30.511   6.690   0.358
28579W        W92787  36.916  15.300  10.939
28580W        W92788  34.614  19.104  14.993
28581W        W92789  31.099   5.727   1.827
28582W        W92790  32.477  13.742  13.937
28583W        W92791   3.830  41.317   2.689
28584W        W92792  13.131  42.977   1.825
28585W        W92793  42.796  43.924   4.231
28586W        W92794   3.890  17.607   2.245
28587W        W92795  39.359   0.910  13.401
28588W        W92796   9.388   1.360  12.529
28589W        W92797   8.764  30.117  12.953
28590W        W92798  17.265   5.357   4.184
28591W        W92799  21.025  32.412  13.469
28592W        W92800  17.649   5.312   3.339
28593W        W92801  25.619  17.792  12.579
28594W        W92802  18.285  29.630   2.851
28595W        W92803  40.041  14.191  14.513
28596W        W92804  14.687  15.768   1.225
28597W        W92805   5.416  30.095   2.208
28598W        W92806  15.759  30.059   3.677
28599W        W92807   9.745   8.785   0.251
28600W        W92808  41.983  34.450  13.545
28601W        W92809  23.128  21.055  14.361
28602W        W92810  36.384  14.680  11.070
28603W        W92811  35.592  27.635  13.814
28604W        W92812  31.520  35.585  14.975
28605W        W92813  23.663  32.422   1.933
28606W        W92814  25.046  22.243   3.863
28607W        W92815  35.581  14.671  14.514
28608W        W92816  38.941  19.651   0.261
28609W        W92817  15.272  23.699   4.674
28610W        W92818  38.991  43.474  12.400
28611W        W92819  15.305  42.994   1.929
28612W        W92820  12.760  28.993   2.714
28613W        W92821  17.299  35.377  10.136
28614W        W92822   4.296   9.752  12.066
28615W        W92823  41.845  41.832  10.608
28616W        W92824  35.601   9.674  13.011
28617W        W92825  20.547  22.740   1.749
28618W        W92826  43.805  31.545   0.283
28619W        W92827  18.296  26.115  11.903
28620W        W92828  15.297   4.812  14.280
28621W        W92829  43.828   5.215  12.443
28622W        W92830   0.758  32.887   3.718
28623W        W92831  39.015  13.657   2.344
28624W        W92832  37.564  30.025   0.475
28625W        W92833  29.593   5.828  12.954
28626W        W92834   7.865  27.661   2.209
28627W        W92835  15.257   5.420  10.423
28628W        W92836  26.514  36.018  13.501
28629W        W92837  22.222  29.618  12.390
28630W        W92838  16.724   2.367   4.771
28631W        W92839  15.217  17.669   0.889
28632W        W92840  35.591  37.069  11.372
28633W        W92841  40.809  13.816   4.200
28634W        W92842  35.091  16.121  14.913
28635W        W92843  41.338  41.989   3.313
28636W        W92844  16.240   0.306  12.464
28637W        W92845  30.428  22.189   1.760
28638W        W92846  39.509   9.788  13.837
28639W        W92847  16.191  23.614  14.353
28640W        W92848  42.866   1.459   1.324
28641W        W92849  30.991  41.476   1.263
28642W        W92850   9.656   3.280  14.299
28643W        W92851   3.330  30.415  10.427
28644W        W92852   6.839  26.572  11.952
28645W        W92853   1.431   9.846  14.285
28646W        W92854  17.081  32.504  14.476
28647W        W92855   5.402  26.627   3.724
28648W        W92856  23.562  32.001   0.411
28649W        W92857   5.719  31.632   1.869
28650W        W92858  33.111  23.525  10.904
28651W        W92859   5.304  39.456  11.116
28652W        W92860  18.264  34.402   3.678
28653W        W92861  16.696   7.350  14.412
28654W        W92862   0.491  16.174  10.476
28655W        W92863  14.600  24.700  14.896
28656W        W92864   3.725  36.422   9.626
28657W        W92865   8.293  44.421  12.550
28658W        W92866   6.403  15.254  14.324
28659W        W92867  31.538  24.504  11.427
28660W        W92868  15.093  19.105   2.256
28661W        W92869  22.746  40.347   4.677
28662W        W92870  19.546  40.978  14.490
28663W        W92871  13.180   0.369   1.849
28664W        W92872   6.328  33.003  14.502
28665W        W92873  23.132   8.369  14.858
28666W        W92874  36.429  11.754  10.644
28667W        W92875  29.113   1.350   2.341
28668W        W92876   5.810  25.083  11.601
28669W        W92877  17.121  22.739   1.227
28670W        W92878  35.942   7.412  14.430
28671W        W92879  19.174  25.068  12.348
28672W        W92880  29.969  15.801   1.315
28673W        W92881  24.594   9.679   1.369
28674W        W92882   7.756  34.013  10.923
28675W        W92883  37.371   4.354   9.591
28676W        W92884  27.127   1.474   2.677
28677W        W92885  42.349  21.101  12.383
28678W        W92886  43.001  37.574  14.020
28679W        W92887  14.207  25.616  10.981
28680W        W92888   6.762   9.199  12.966
28681W        W92889  13.125  42.290   0.392
28682W        W92890   2.961  25.983  12.960
28683W        W92891  42.322  33.490   0.845
28684W        W92892  19.534  20.042  11.113
28685W        W92893   9.877   0.805  13.059
28686W        W92894  39.999   5.732   2.843
28687W        W92895  30.611   5.333   1.739
28688W        W92896  40.988  39.973   2.862
28689W        W92897  38.511  33.484   1.226
28690W        W92898  25.207   5.426  10.959
28691W        W92899  10.697  36.456   2.767
28692W        W92900  23.709  22.589  13.447
28693W        W92901   9.357  41.979  12.092
28694W        W92902  44.891   3.348   0.880
28695W        W92903  33.099  10.311  10.057
28696W        W92904  23.577  32.958  14.933
28697W        W92905   6.258  22.051  13.497
28698W        W92906  38.367  38.566   4.198
28699W        W92907   3.880  36.978   1.220
28700W        W92908  10.193  17.561   4.730
28701W        W92909  18.206  40.331  10.892
28702W        W92910  25.544   8.184  13.905
28703W        W92911  29.535  44.884  11.066
28704W        W92912  43.432  23.573  10.597
28705W        W92913  14.609  17.725   1.822
28706W        W92914  33.105  30.644  12.543
28707W        W92915  32.482  23.056   3.801
28708W        W92916  27.975  38.426  12.454
28709W        W92917  12.745  23.571  11.394
28710W        W92918  40.348  22.633   4.773
28711W        W92919  20.585   1.897   4.166
28712W        W92920  21.172   9.869  13.915
28713W        W92921  34.014  10.801   4.316
28714W        W92922  42.824   8.673  12.431
28715W        W92923  42.809  39.045   1.367
28716W        W92924  37.041   6.808   2.239
28717W        W92925  42.946   9.725   0.737
28718W        W92926  27.491   2.241  13.029
28719W        W92927  15.292   0.775   4.837
28720W        W92928  40.495  16.795  12.837
28721W        W92929  20.225  23.688   1.281
28722W        W92930  28.480  12.746  11.540
28723W        W92931   3.723   3.238   4.704
28724W        W92932  36.985  21.559  12.528
28725W        W92933  21.052  25.571   3.279
28726W        W92934  22.196  18.690   2.212
28727W        W92935  30.052  38.051  14.414
28728W        W92936  34.412  30.427   1.841
28729W        W92937   7.344  33.408  11.465
28730W        W92938   2.230   1.310   4.726
28731W        W92939   5.875  27.082   3.195
28732W        W92940   7.818  22.106   2.727
28733W        W92941  29.636  26.641  12.830
28734W        W92942  42.839  11.286   4.139
28735W        W92943  19.283  11.648   2.719
28736W        W92944   2.334  10.348  11.490
28737W        W92945  40.972  39.367   1.381
28738W        W92946  36.423   4.379  10.929
28739W        W92947  38.328  15.602   4.191
28740W        W92948  23.229  26.040   1.807
28741W        W92949  18.103  29.002   0.317
28742W        W92950  29.602  13.812  11.047
28743W        W92951  28.963   3.452   4.735
28744W        W92952   8.754  16.712   1.815
28745W        W92953  42.872  10.662   2.352
28746W        W92954  42.027   3.842  10.449
28747W        W92955  41.391   1.268  10.964
28748W        W92956   8.395  24.515   1.373
28749W        W92957   6.849  35.882  13.542
28750W        W92958  15.307  23.664  10.500
28751W        W92959   3.801   9.200   2.770
28752W        W92960   7.718  42.447  12.388
28753W        W92961   9.886   4.913   0.928
28754W        W92962   0.483   7.831  14.763
28755W        W92963  12.174  20.236  13.345
28756W        W92964  31.553  32.103   4.281
28757W        W92965   3.328   1.380  10.462
28758W        W92966  23.652   3.812  13.864
28759W        W92967  41.514   7.681   3.234
28760W        W92968  36.893   9.821   1.696
28761W        W92969  35.396   8.838   1.730
28762W        W92970  23.661   3.724  11.891
28763W        W92971  35.869  24.490  12.384
28764W        W92972  36.919  34.110  13.826
28765W        W92973  40.415  19.601  14.788
28766W        W92974  35.581   4.847  13.843
28767W        W92975  41.531  37.435  14.759
28768W        W92976  10.205   9.357   3.790
28769W        W92977  11.261  13.777  13.922
28770W        W92978  12.674   2.385   1.846
28771W        W92979  22.192   1.349  12.004
28772W        W92980  11.260  35.397   2.832
28773W        W92981  16.667  26.496  13.990
28774W        W92982  40.805  32.460   3.249
28775W        W92983   8.206  35.963  11.914
28776W        W92984  22.026  20.541   3.373
28777W        W92985  10.182  25.554   0.337
28778W        W92986  43.969  26.507  14.330
28779W        W92987   5.277  18.696  13.831
28780W        W92988  39.845  18.074  14.475
28781W        W92989  24.221  19.113  10.467
28782W        W92990  12.215  17.690   1.437
28783W        W92991  20.152  24.107   1.297
28784W        W92992   1.959  32.400   9.516
28785W        W92993  33.984  43.446   0.385
28786W        W92994  44.936  40.802   0.256
28787W        W92995  42.439  39.435  10.949
28788W        W92996  21.229  27.499   0.309
28789W        W92997   9.719  17.192  11.429
28790W        W92998  19.096  35.086   4.233
28791W        W92999  38.442  12.296  14.876
28792W        W93000  35.102  27.488  13.546
28793W        W93001  12.313  35.532   4.794
28794W        W93002  19.132  44.430  12.455
28795W        W93003  35.946  20.078  12.345
28796W        W93004  38.948  41.442   0.909
28797W        W93005  26.045  22.244   4.156
28798W        W93006  20.183  44.438   3.766
28799W        W93007  36.954   0.473   1.769
28800W        W93008   8.748  11.265  11.951
28801W        W93009   4.410  43.876  10.518
28802W        W93010  27.571  13.807  12.983
28803W        W93011  44.360  34.606   0.309
28804W        W93012   8.404  17.307   1.803
28805W        W93013  37.980   4.923  13.902
28806W        W93014  20.065  37.538  10.603
28807W        W93015  41.834  33.619   2.241
28808W        W93016  20.538  28.186  11.993
28809W        W93017  39.355  44.760  14.887
28810W        W93018  19.268  22.246  14.765
28811W        W93019  38.821  34.563  14.806
28812W        W93020  15.758  43.996   2.181
28813W        W93021  37.848  15.095   3.738
28814W        W93022   0.421   7.760  11.420
28815W        W93023   9.240  21.750   0.867
28816W        W93024  27.582  34.573   1.827
28817W        W93025  26.054  28.614  10.959
28818W        W93026  43.931  17.713  13.932
28819W        W93027  25.035  25.580  12.415
28820W        W93028   9.658   0.420  14.942
28821W        W93029  32.481  34.406  10.470
28822W        W93030  14.169   3.784  13.851
28823W        W93031  18.087  12.660   4.282
28824W        W93032  37.507  34.919   0.915
28825W        W93033  32.491  21.586   3.823
28826W        W93034  21.037  34.045   0.828
28827W        W93035  12.328  35.434  10.964
28828W        W93036  28.576  38.431  14.830
28829W        W93037   4.863  44.828  11.465
28830W        W93038   8.274   3.309   3.677
28831W        W93039  25.504   0.853  12.905
28832W        W93040  30.562  23.539   3.711
28833W        W93041   0.301   9.699  12.961
28834W        W93042  28.459  43.858   4.615
28835W        W93043  12.118   7.871   1.357
28836W        W93044  21.582  39.534   2.788
28837W        W93045   8.702  21.157   3.245
28838W        W93046  31.524  20.726  11.472
28839W        W93047  44.485  43.875   1.848
28840W        W93048   9.235  42.794   4.353
28841W        W93049  31.929  24.047   2.244
28842W        W93050   4.763  31.588  12.092
28843W        W93051  21.630  35.867  12.885
28844W        W93052  26.137  17.107  14.926
28845W        W93053  36.397   5.424  11.458
28846W        W93054   5.256  32.922   3.842
28847W        W93055   7.687  18.200   0.349
28848W        W93056  21.701  13.143   3.667
28849W        W93057  41.521  32.045  12.996
28850W        W93058  32.142  16.311  12.405
28851W        W93059  31.969  28.022  14.884
28852W        W93060  20.103  34.466   2.826
28853W        W93061  23.700  20.094  11.564
28854W        W93062  37.931  21.131   1.803
28855W        W93063  40.474  18.576   3.270
28856W        W93064   9.873  37.073   1.216
28857W        W93065  15.130  39.442  11.888
28858W        W93066  18.589  20.187  11.922
28859W        W93067  10.823  44.804   3.257
28860W        W93068  30.048   9.830  12.962
28861W        W93069  35.583  18.296  14.310
28862W        W93070  14.170  27.098  13.977
28863W        W93071  18.199  15.580  10.408
28864W        W93072   7.853  44.395  10.639
28865W        W93073   0.783  22.715  13.317
28866W        W93074  34.881  23.669  14.453
28867W        W93075  34.938  19.752   3.163
28868W        W93076  33.931  20.239  11.386
28869W        W93077  23.723  34.008   2.419
28870W        W93078  22.560  35.032   4.768
28871W        W93079  27.069  18.090   5.315
28872W        W93080  30.465   5.792   0.280
28873W        W93081  24.146  43.307   0.861
28874W        W93082  39.521  14.154  11.085
28875W        W93083   6.714  24.990   2.676
28876W        W93084  35.086   4.302  10.621
28877W        W93085   7.345   0.297  12.916
28878W        W93086  44.838  16.802  11.585
28879W        W93087  20.051  33.997  11.584
28880W        W93088  29.070   4.853   2.313
28881W        W93089  10.811  28.065   2.307
28882W        W93090  36.586  43.381   1.803
28883W        W93091  34.556  21.544  14.500
28884W        W93092  33.881  19.736  13.837
28885W        W93093   3.935  18.095   3.235
28886W        W93094  32.023  28.117  10.479
28887W        W93095   7.695   9.265  14.398
28888W        W93096  32.989  42.996   0.837
28889W        W93097  29.478  24.210  13.374
28890W        W93098  41.380  35.467   3.672
28891W        W93099  43.451  14.759  14.975
28892W        W93100  15.743  43.477   0.751
28893W        W93101  28.462  25.089   1.221
28894W        W93102  20.764  39.061   0.805
28895W        W93103  17.176  36.559   1.826
28896W        W93104  17.555   8.755   2.786
28897W        W93105  30.962  37.420  13.013
28898W        W93106  19.637  34.606   2.277
28899W        W93107  23.123  14.686  12.981
28900W        W93108  22.514  21.256  12.355
28901W        W93109  15.143  29.950  13.925
28902W        W93110   3.780  44.788   4.692
28903W        W93111  35.874  43.790   3.350
28904W        W93112  19.754  35.942  14.849
28905W        W93113  35.011  34.456   3.232
28906W        W93114  44.373  31.053  11.991
28907W        W93115   4.938   0.811  14.319
28908W        W93116   5.222  30.060   0.741
28909W        W93117  15.606  20.755  13.910
28910W        W93118  44.964  43.898   3.301
28911W        W93119  20.172   8.697  11.572
28912W        W93120  33.009  42.845  10.967
28913W        W93121  44.962   6.701  13.467
28914W        W93122  42.419   8.805   5.273
28915W        W93123  12.358  34.498  10.598
28916W        W93124  32.606  43.477   4.624
28917W        W93125  18.720  25.496   1.755
28918W        W93126   0.971   0.827  10.954
28919W        W93127  28.448  35.904   1.232
28920W        W93128  25.185  14.240  10.607
28921W        W93129  44.988  28.125  12.848
28922W        W93130  39.924  36.026  11.995
28923W        W93131  30.473  19.116  13.030
28924W        W93132  34.499  26.692   2.900
28925W        W93133  44.765  39.853  13.326
28926W        W93134  37.062   3.331  13.527
28927W        W93135  21.736  11.317  10.583
28928W        W93136  33.398  10.224  10.911
28929W        W93137  15.776  38.991  11.471
28930W        W93138  33.908   2.457   1.879
28931W        W93139  43.511  37.456  11.086
28932W        W93140  31.468  32.408   4.272
28933W        W93141  37.448  21.240  12.993
28934W        W93142  19.536   5.368  14.911
28935W        W93143  11.736  21.157   1.362
28936W        W93144  16.131  27.168  10.989
28937W        W93145   6.833  43.859  14.962
28938W        W93146  22.600  36.456   3.276
28939W        W93147   6.318  37.889  13.521
28940W        W93148  27.533  28.503  14.836
28941W        W93149  38.965  39.880  12.092
28942W        W93150  21.232  15.172   4.280
28943W        W93151  35.581  38.982  12.405
28944W        W93152  39.901  28.963   2.287
28945W        W93153   1.401  25.479  10.579
28946W        W93154   2.874  39.052  11.115
28947W        W93155  37.431  40.890  10.499
28948W        W93156  13.778  44.313   2.839
28949W        W93157  34.975  35.091  10.563
28950W        W93158  18.694  42.416  12.852
28951W        W93159  37.409  15.639  12.055
28952W        W93160  17.182  34.505  11.444
28953W        W93161  27.478  43.468  10.971
28954W        W93162  20.717  27.060  11.091
28955W        W93163  42.297   1.271   1.312
28956W        W93164   2.844  23.094   1.411
28957W        W93165  27.061  37.081  14.888
28958W        W93166  35.357  20.686   2.866
28959W        W93167   0.894  15.259  13.413
28960W        W93168  33.120  36.545  11.448
28961W        W93169  41.340  19.073   1.382
28962W        W93170  44.268  43.825   0.832
28963W        W93171  43.952  26.973   1.300
28964W        W93172  14.810  41.437   9.938
28965W        W93173  31.522  20.528   0.938
28966W        W93174  40.508  11.263   4.629
28967W        W93175  21.161  30.121   1.400
28968W        W93176  34.926  18.171  13.515
28969W        W93177  29.994  16.701  11.960
28970W        W93178  44.325  19.219   2.265
28971W        W93179   6.858   7.686   1.397
28972W        W93180  18.220  34.078  13.064
28973W        W93181  13.841  32.489  14.312
28974W        W93182  16.632  39.020   0.920
28975W        W93183  43.923  33.132   0.430
28976W        W93184  18.206   7.723   0.386
28977W        W93185  27.551  24.193  10.486
28978W        W93186  30.049  31.112   1.295
28979W        W93187   5.347   7.386   4.233
28980W        W93188  14.807  39.054  12.943
28981W        W93189  28.160  22.026  14.795
28982W        W93190  33.571  36.917   1.806
28983W        W93191  24.571  41.933  14.299
28984W        W93192  23.181   8.272   4.159
28985W        W93193  31.942  38.479   3.232
28986W        W93194  21.678   9.790  11.906
28987W        W93195  13.185  27.009  14.822
28988W        W93196  43.802  23.565   4.756
28989W        W93197  28.586  14.653   3.755
28990W        W93198  24.218   5.400   2.196
28991W        W93199  32.955  44.336  10.581
28992W        W93200  44.279  25.168  11.043
28993W        W93201  20.587  28.597   3.693
28994W        W93202  31.121  11.280  14.326
28995W        W93203   6.876   0.378   2.753
28996W        W93204   3.754   6.424  11.921
28997W        W93205  13.752  29.942  11.986
28998W        W93206  18.769   5.778   3.635
28999W        W93207  28.083  27.667   2.387
29000W        W93208  11.695  14.333   4.761
29001W        W93209  14.821  11.735  11.596
29002W        W93210  42.488  43.496  14.872
29003W        W93211  30.014  16.624  13.959
29004W        W93212  14.103  33.038   4.803
29005W        W93213  33.079  37.414   1.408
29006W        W93214  23.163   8.334  14.485
29007W        W93215  23.729   6.777  13.971
29008W        W93216  23.601  29.122  10.954
29009W        W93217  42.799   8.678   4.188
29010W        W93218  16.216  22.234  12.383
29011W        W93219   0.916  30.065   4.191
29012W        W93220  24.084  14.309   2.740
29013W        W93221  36.568   4.208   2.231
29014W        W93222  15.320   7.327   4.240
29015W        W93223  41.333  29.633   3.653
29016W        W93224  23.631   8.391   4.325
29017W        W93225   8.280  24.710   4.179
29018W        W93226  18.139  35.363  13.399
29019W        W93227   1.789  15.756   0.470
29020W        W93228   9.856  25.641  12.859
29021W        W93229  19.278  19.184  11.500
29022W        W93230  14.288  16.667   3.370
29023W        W93231  21.220  12.342  13.974
29024W        W93232  31.623  31.997   4.671
29025W        W93233  38.943  29.137   1.244
29026W        W93234   6.920  17.602  12.418
29027W        W93235   9.889  40.842  10.590
29028W        W93236  39.382  27.684  13.378
29029W        W93237  35.574  28.072  12.461
29030W        W93238  31.115   9.277  13.932
29031W        W93239  37.369   1.396   0.459
29032W        W93240  10.168  17.140  12.949
29033W        W93241  26.667  22.729  14.878
29034W        W93242  27.965  42.794   2.263
29035W        W93243   0.940  39.517  10.970
29036W        W93244  26.467   0.797  11.380
29037W        W93245  19.232   5.755   3.745
29038W        W93246  26.142  19.181   1.356
29039W        W93247  43.401   2.812   1.386
29040W        W93248  12.818  35.558  13.440
29041W        W93249   5.350  30.461   1.307
29042W        W93250   6.213   0.311  13.003
29043W        W93251  14.833  16.618  13.970
29044W        W93252   7.354  21.137   3.314
29045W        W93253  30.997   2.393   0.307
29046W        W93254  21.583  28.945   0.891
29047W        W93255  22.174   8.186  12.964
29048W        W93256   0.416  38.876   1.336
29049W        W93257  23.670   3.937   0.258
29050W        W93258  21.747   7.283   2.812
29051W        W93259  14.807  38.418   1.905
29052W        W93260  24.011   6.835   1.249
29053W        W93261  15.234  32.581  11.016
29054W        W93262  42.952  26.004  13.854
29055W        W93263  25.120  33.052  14.955
29056W        W93264  35.885  39.549   4.263
29057W        W93265  41.522   1.454   3.268
29058W        W93266  13.312  27.566  13.018
29059W        W93267  24.015   4.854   1.892
29060W        W93268   7.709  26.044  11.092
29061W        W93269   1.388   9.301  12.433
29062W        W93270  25.191  27.478  11.545
29063W        W93271   8.754  27.079   1.386
29064W        W93272  29.134  22.561   2.820
29065W        W93273  30.993  27.457   1.243
29066W        W93274  21.167  32.559   0.477
29067W        W93275  14.756  15.619   0.829
29068W        W93276  23.114  16.732  14.473
29069W        W93277  25.636  18.259  14.881
29070W        W93278  17.771  12.842   4.783
29071W        W93279  27.639  43.512  12.382
29072W        W93280   0.928  27.625  11.940
29073W        W93281  31.538  20.746   4.717
29074W        W93282   4.731  30.040   4.125
29075W        W93283  12.185  41.847  14.325
29076W        W93284  18.064   3.886   1.829
29077W        W93285  17.118   4.316   0.929
29078W        W93286  36.857   4.432   1.442
29079W        W93287  41.484   7.264  13.892
29080W        W93288  35.924  19.285   2.204
29081W        W93289  14.219  29.055   1.805
29082W        W93290  43.351  34.086   4.757
29083W        W93291  42.903   4.798   3.871
29084W        W93292  21.722  33.495  11.994
29085W        W93293  25.668  11.207  11.002
29086W        W93294   8.780  22.669  10.889
29087W        W93295   0.899  11.248   0.741
29088W        W93296  36.882  13.811  13.808
29089W        W93297  39.872  23.015  12.837
29090W        W93298   3.814  43.926  11.419
29091W        W93299  29.123  42.480  12.921
29092W        W93300  39.462  22.653  10.463
29093W        W93301   0.453   1.920   4.603
29094W        W93302   9.347  19.563   4.163
29095W        W93303  17.188   3.872  13.830
29096W        W93304  19.607   4.232  13.438
29097W        W93305   6.760   2.791   3.349
29098W        W93306  11.183  36.013  11.000
29099W        W93307  16.799  36.521   0.934
29100W        W93308  38.569   2.419   0.445
29101W        W93309  14.122  27.062   0.875
29102W        W93310  18.182  10.290   0.290
29103W        W93311   4.444   5.885  11.523
29104W        W93312  31.463  30.602   1.704
29105W        W93313   4.773  15.302   4.622
29106W        W93314  21.128  13.822  12.533
29107W        W93315   7.754  11.784  13.375
29108W        W93316  17.084  12.250   3.275
29109W        W93317  17.126  23.541  14.915
29110W        W93318  17.587  44.489   1.814
29111W        W93319  16.136  44.319  13.393
29112W        W93320  17.728  44.779   0.367
29113W        W93321   7.875  12.761   3.803
29114W        W93322  15.683   3.764   4.253
29115W        W93323  28.124  18.121  11.555
29116W        W93324   7.399  24.227   1.735
29117W        W93325  35.544   7.679  14.964
29118W        W93326  40.397  27.079   4.334
29119W        W93327  13.723  18.620   2.181
29120W        W93328  31.585  38.479   3.165
29121W        W93329   2.743  19.679   0.729
29122W        W93330  44.977  27.004   2.767
29123W        W93331  40.338  22.651  14.454
29124W        W93332  20.573   1.936   4.637
29125W        W93333  17.563  25.143  14.935
29126W        W93334  29.106  18.094   3.386
29127W        W93335  21.704  41.404   4.726
29128W        W93336  24.142  10.766   4.786
29129W        W93337  15.148   1.245   0.866
29130W        W93338  16.181  13.626  10.603
29131W        W93339  16.588  36.012  11.084
29132W        W93340  22.228  12.306   1.762
29133W        W93341  38.874  17.303  13.029
29134W        W93342  42.030  37.838  10.943
29135W        W93343   8.229  14.336   2.181
29136W        W93344  25.096  34.017   3.267
29137W        W93345  11.646  14.131   0.962
29138W        W93346   2.815  27.945   2.392
29139W        W93347  34.501  27.009   0.818
29140W        W93348   1.327  27.615  12.513
29141W        W93349   2.397   5.407  11.951
29142W        W93350  37.968  23.179   0.767
29143W        W93351  21.662   3.409  14.026
29144W        W93352  14.827  30.162  13.858
29145W        W93353  24.212  22.181   4.125
29146W        W93354  42.431  43.456   2.767
29147W        W93355  40.024  33.457   1.904
29148W        W93356   2.390  33.078  14.450
29149W        W93357  44.832   2.331  13.469
29150W        W93358  10.726  26.576  11.465
29151W        W93359  32.968  13.628  14.315
29152W        W93360   1.838  43.801   0.770
29153W        W93361  12.234   4.701  11.409
29154W        W93362  11.276   0.878   1.746
29155W        W93363  13.761  12.719   1.819
29156W        W93364  27.196   8.262   4.646
29157W        W93365  43.481  43.484  11.475
29158W        W93366  10.371  12.162   1.289
29159W        W93367  21.743  23.734   2.782
29160W        W93368  31.547  35.094   0.850
29161W        W93369  18.667  35.565   1.436
29162W        W93370  17.748  31.145   0.364
29163W        W93371  14.324   1.828   2.250
29164W        W93372  13.631   0.957  13.792
29165W        W93373  20.719  40.403  14.289
29166W        W93374  28.941  13.289  12.449
29167W        W93375  33.604  39.020   0.421
29168W        W93376  44.990  44.332   3.322
29169W        W93377  24.691  28.098   2.781
29170W        W93378  26.023  25.104  12.093
29171W        W93379  15.166  23.706   1.731
29172W        W93380   7.233   2.879   3.849
29173W        W93381  37.002  35.436  11.493
29174W        W93382  26.559  11.145   9.944
29175W        W93383  21.623  35.558   0.932
29176W        W93384   0.822  33.900   1.890
29177W        W93385  24.681  36.572   2.726
29178W        W93386  40.933   5.791  12.063
29179W        W93387  30.997  22.715   2.191
29180W        W93388  43.874   4.875   1.811
29181W        W93389  27.559  31.470  11.034
29182W        W93390  12.799   1.419   4.161
29183W        W93391   7.668  22.104   3.762
29184W        W93392  28.472  18.648   1.403
29185W        W93393  14.315  24.978  12.480
29186W        W93394   5.771  37.409  10.422
29187W        W93395  22.084  10.326   1.746
29188W        W93396   7.237  12.283  12.920
29189W        W93397  17.221  18.633   0.458
29190W        W93398  30.494  29.520   3.721
29191W        W93399  36.856  13.773   2.821
29192W        W93400  43.456   5.432   2.794
29193W        W93401  20.590   7.320  14.512
29194W        W93402  40.357  10.314  11.451
29195W        W93403  18.117  16.218   2.789
29196W        W93404  24.636   2.280  13.380
29197W        W93405  16.206  37.439   3.802
29198W        W93406  29.934   2.307  14.984
29199W        W93407  32.436  28.945   0.358
29200W        W93408  25.149  32.103  12.039
29201W        W93409  10.643  16.163  11.050
29202W        W93410  26.700   1.790   0.742
29203W        W93411  18.655  18.548  10.506
29204W        W93412  11.651  39.391  12.948
29205W        W93413   7.744  40.422   5.099
29206W        W93414  27.682  12.360   1.764
29207W        W93415  27.481  28.973  14.367
29208W        W93416  27.080  36.566   0.430
29209W        W93417  22.094  44.782  12.903
29210W        W93418  21.586  26.031  11.499
29211W        W93419  19.628  39.998  12.070
29212W        W93420  37.832  22.742  12.074
29213W        W93421  24.481   3.913  11.421
29214W        W93422  11.864  37.455  14.824
29215W        W93423  32.970  42.918   0.334
29216W        W93424  21.678  27.176   0.458
29217W        W93425  15.666  12.781  10.547
29218W        W93426  24.144  22.682  13.008
29219W        W93427   0.296  38.045   1.797
29220W        W93428   5.833   1.450   1.698
29221W        W93429   8.862  18.565  14.968
29222W        W93430  23.116  44.999  12.399
29223W        W93431   3.887   8.354  11.064
29224W        W93432  28.479  13.688  13.435
29225W        W93433  30.422  21.699   1.248
29226W        W93434  37.840   3.723   5.166
29227W        W93435  25.554  29.461   4.326
29228W        W93436  16.790  38.330  13.999
29229W        W93437  28.964  25.130   4.279
29230W        W93438  15.612  42.348   4.785
29231W        W93439  43.808  13.171   3.644
29232W        W93440  40.834  27.968   4.239
29233W        W93441  20.669  27.984   1.321
29234W        W93442  33.000  38.868   1.436
29235W        W93443  16.788  27.957  14.888
29236W        W93444  37.852  29.500   2.217
29237W        W93445   4.340  33.556  10.905
29238W        W93446  36.511  39.992   1.773
29239W        W93447  16.161  23.534  12.921
29240W        W93448  42.509  34.510  14.951
29241W        W93449   9.196  14.653   3.793
29242W        W93450   7.188  38.969  14.485
29243W        W93451  10.637   1.931  14.845
29244W        W93452  44.989  31.542   2.683
29245W        W93453  32.621  42.361  10.576
29246W        W93454  16.303   5.735   0.915
29247W        W93455   4.343  23.049  14.854
29248W        W93456   3.426  15.702  10.551
29249W        W93457  41.427  27.606   4.617
29250W        W93458  37.518   7.391  12.384
29251W        W93459  21.064  38.330   0.930
29252W        W93460  19.169  17.565  13.982
29253W        W93461   1.281  31.410   2.773
29254W        W93462   0.762  35.375   2.258
29255W        W93463  26.150  20.072   2.755
29256W        W93464  42.473  40.305   3.249
29257W        W93465  22.236  36.927   2.305
29258W        W93466  17.668  10.270   2.349
29259W        W93467   8.786  31.622   1.738
29260W        W93468   5.852   9.332  13.022
29261W        W93469   4.339  18.594   3.243
29262W        W93470  19.221  20.061  12.873
29263W        W93471   8.207  19.541   4.133
29264W        W93472   8.353   5.398   2.368
29265W        W93473  34.088   1.971  11.544
29266W        W93474   4.413   7.326   0.417
29267W        W93475  15.822  20.679  14.445
29268W        W93476  16.567  27.029   1.317
29269W        W93477  37.344  35.577  11.386
29270W        W93478   5.816  25.209  13.508
29271W        W93479  39.958  11.810   0.383
29272W        W93480  41.898  33.438   0.330
29273W        W93481  18.665  27.546   4.746
29274W        W93482  24.039   6.225   4.156
29275W        W93483  36.006  25.033   3.660
29276W        W93484  21.635  13.236  14.411
29277W        W93485  30.620  14.651  13.331
29278W        W93486  43.408   3.945  13.802
29279W        W93487  18.224  38.002  13.015
29280W        W93488  10.177  16.789   4.209
29281W        W93489  12.665   0.424   1.237
29282W        W93490  10.270  17.743   3.834
29283W        W93491  28.450  18.776  14.892
29284W        W93492  34.089   9.888  13.997
29285W        W93493  35.384  23.223   1.233
29286W        W93494  34.486  16.256   1.915
29287W        W93495  13.332   3.248   3.359
29288W        W93496   3.784   3.925   1.931
29289W        W93497  34.899  10.269  14.761
29290W        W93498   5.200  27.002  10.635
29291W        W93499  11.698   6.756   3.387
29292W        W93500  21.190  40.310   3.367
29293W        W93501  43.299  17.151  12.373
29294W        W93502  23.997  34.120   4.630
29295W        W93503  40.808  33.622  10.492
29296W        W93504  37.501  27.552  12.857
29297W        W93505  26.183  25.685   1.364
29298W        W93506  12.813  17.163  12.823
29299W        W93507  26.500  38.380   3.810
29300W        W93508  32.507  10.774  10.632
29301W        W93509  30.443   0.744  10.480
29302W        W93510  44.385  31.051  14.941
29303W        W93511   8.180   4.254   3.826
29304W        W93512  39.854  15.751   0.780
29305W        W93513  35.988  41.803   1.854
29306W        W93514   9.855  42.486   0.789
29307W        W93515   0.780  33.058  10.595
29308W        W93516  10.346   6.845  14.831
29309W        W93517  32.082  13.171  12.488
29310W        W93518  23.704   8.367  14.496
29311W        W93519  11.727   5.362   2.361
29312W        W93520  43.513  18.256   3.361
29313W        W93521  29.968  10.358  12.072
29314W        W93522  39.350  42.810   0.458
29315W        W93523  42.922  24.197   5.297
29316W        W93524  12.746   5.360   0.267
29317W        W93525  31.090  12.125   4.737
29318W        W93526  24.979   2.324  13.462
29319W        W93527   6.770  18.778   0.390
29320W        W93528  34.928  15.673   4.668
29321W        W93529  44.469  43.355   2.664
29322W        W93530  43.908  13.268  14.475
29323W        W93531  17.228  31.600  13.942
29324W        W93532  21.665  19.552  14.888
29325W        W93533  42.367  16.591   2.727
29326W        W93534  20.236  37.423  14.422
29327W        W93535  17.740  10.873  12.082
29328W        W93536   6.391   8.675  13.352
29329W        W93537  12.815  14.297  12.971
29330W        W93538   2.915  34.053   0.362
29331W        W93539  44.372  15.121  13.983
29332W        W93540  33.504  28.001   0.949
29333W        W93541   1.886  20.758  10.926
29334W        W93542   7.355  35.394  10.600
29335W        W93543   2.848  32.961   1.280
29336W        W93544  23.046  14.144  12.920
29337W        W93545  19.157  10.163  11.408
29338W        W93546   9.730  17.721  10.454
29339W        W93547  19.578   8.232  14.902
29340W        W93548  10.359  27.669   2.870
29341W        W93549   6.247  16.784  12.440
29342W        W93550   3.847   3.841   4.202
29343W        W93551  18.138  32.636  12.863
29344W        W93552  11.318  37.420  10.613
29345W        W93553  26.088  18.705   3.812
29346W        W93554   5.920  28.096   4.194
29347W        W93555  19.612  36.409   0.290
29348W        W93556  20.228  29.046  11.606
29349W        W93557   4.702  23.130  12.906
29350W        W93558  23.621   0.492   1.715
29351W        W93559  33.957  12.134  13.921
29352W        W93560  40.408  15.118  13.534
29353W        W93561  19.588  28.666  14.936
29354W        W93562  15.601   9.841  11.611
29355W        W93563  16.156  25.662  11.057
29356W        W93564  23.503  23.127  14.772
29357W        W93565  14.324  17.226  14.006
29358W        W93566  17.751  40.515  13.013
29359W        W93567  42.474   5.195  14.996
29360W        W93568  40.992  33.571  10.943
29361W        W93569  30.094  14.650   4.326
29362W        W93570  29.558  11.738   0.416
29363W        W93571   9.664  36.067  14.882
29364W        W93572  26.599  29.977   0.891
29365W        W93573  34.399  34.987   3.758
29366W        W93574  35.960  23.195   4.255
29367W        W93575  38.040   0.978   3.179
29368W        W93576  12.150   4.745   0.267
29369W        W93577  42.359  40.527  12.004
29370W        W93578  22.552  39.002  12.339
29371W        W93579  32.124  18.181   4.157
29372W        W93580  25.601   1.844  13.411
29373W        W93581  18.613   6.184   0.342
29374W        W93582  35.541  41.860   3.355
29375W        W93583  11.828  39.406  14.899
29376W        W93584  27.951  25.481   4.628
29377W        W93585   0.974  40.945  14.317
29378W        W93586  36.965  38.036   1.338
29379W        W93587  14.099  36.420   4.243
29380W        W93588  36.876   3.238   3.166
29381W        W93589  39.855   5.418  12.401
29382W        W93590  42.962  20.198  11.526
29383W        W93591  30.924  44.866   0.902
29384W        W93592   8.324  15.312   1.437
29385W        W93593  13.614  35.873  14.800
29386W        W93594   3.358  21.132  12.935
29387W        W93595  26.535  36.975  13.043
29388W        W93596   0.420  33.029   3.664
29389W        W93597  15.735  32.097  11.443
29390W        W93598   7.747  22.064  13.039
29391W        W93599  14.228  29.512   3.309
29392W        W93600  35.475  13.828   4.225
29393W        W93601  23.196  17.596   0.430
29394W        W93602  44.855  19.218  14.763
29395W        W93603  26.060  38.463  13.503
29396W        W93604  13.330  39.492   2.666
29397W        W93605   8.717   0.837   0.403
29398W        W93606  28.965   5.262  10.494
29399W        W93607   1.352  34.453   0.444
29400W        W93608  13.143  35.082   5.140
29401W        W93609  36.534   7.718  12.553
29402W        W93610  22.510   6.267  10.498
29403W        W93611  43.015  26.559   0.382
29404W        W93612  33.538  41.842  11.046
29405W        W93613   1.299  16.732   3.245
29406W        W93614  21.033  15.755   0.828
29407W        W93615  30.907  18.212  10.919
29408W        W93616  19.170   9.798  13.830
29409W        W93617  37.889   9.751   4.228
29410W        W93618  23.157  18.580   4.317
29411W        W93619  12.726   0.923  13.508
29412W        W93620  29.060  17.668  10.083
29413W        W93621  33.085  39.914   1.831
29414W        W93622   7.757   1.446  10.473
29415W        W93623  37.041  10.829   0.771
29416W        W93624   4.919  34.092  12.956
29417W        W93625  11.190  15.660   4.626
29418W        W93626  25.670  42.527  13.842
29419W        W93627  40.835  26.104  12.084
29420W        W93628   6.347   4.355  13.058
29421W        W93629  43.814  38.068   2.800
29422W        W93630  33.412  29.666  12.896
29423W        W93631  26.192  17.565  13.443
29424W        W93632  39.939   0.839  13.960
29425W        W93633  12.808  31.914   2.743
29426W        W93634  29.009  28.588  11.063
29427W        W93635  23.194  34.499  14.992
29428W        W93636  13.731   4.298  12.502
29429W        W93637   5.832  29.621  13.858
29430W        W93638  42.933  41.411  12.869
29431W        W93639  44.297  21.653   2.385
29432W        W93640  27.607  17.231   4.603
29433W        W93641  25.968  22.068  10.474
29434W        W93642  41.348  37.528  12.951
29435W        W93643  40.905   7.881  14.993
29436W        W93644  39.383   2.933  14.009
29437W        W93645  26.640   0.839   3.829
29438W        W93646  32.060  10.824  14.022
29439W        W93647  10.296  32.921  13.373
29440W        W93648  33.521  24.586   1.384
29441W        W93649  33.596   5.860  13.002
29442W        W93650   9.181   2.772   4.245
29443W        W93651  35.031  25.614  14.019
29444W        W93652   4.274  29.562  10.420
29445W        W93653  12.639  19.634  14.345
29446W        W93654  31.521  28.497   2.364
29447W        W93655  32.127  35.895  14.331
29448W        W93656  16.092  37.392  14.437
29449W        W93657  30.920  18.124   4.677
29450W        W93658  13.640  15.220  10.471
29451W        W93659  36.436  40.394  13.356
29452W        W93660  19.078   1.458   0.369
29453W        W93661  20.708  20.055  14.280
29454W        W93662  43.002   6.367  11.111
29455W        W93663   5.431   4.214   0.842
29456W        W93664  44.799  15.313  10.441
29457W        W93665  18.217   9.843   0.451
29458W        W93666  12.693  15.260  13.966
29459W        W93667  31.926  30.998  14.870
29460W        W93668   6.905  26.205  12.989
29461W        W93669  41.405  28.102   0.392
29462W        W93670   5.359   7.199  11.398
29463W        W93671  43.303  31.897   3.210
29464W        W93672   5.389  32.958  10.896
29465W        W93673  31.103  17.205   2.191
29466W        W93674  22.552  30.125  13.543
29467W        W93675   9.241   1.280   2.392
29468W        W93676  35.560  21.071  14.829
29469W        W93677  38.439   0.937  11.382
29470W        W93678  42.991  31.479  11.552
29471W        W93679  37.395  35.361  13.509
29472W        W93680  21.111  36.476   1.278
29473W        W93681  15.634  26.970   2.858
29474W        W93682  12.814   7.230   1.927
29475W        W93683  27.586  19.688  11.035
29476W        W93684  12.167  19.604  13.030
29477W        W93685  36.905  13.313  10.415
29478W        W93686  29.502  44.920   2.262
29479W        W93687  11.296   1.809  13.873
29480W        W93688  25.219  39.334  14.325
29481W        W93689  27.503  10.220   0.728
29482W        W93690  28.036  27.182   0.779
29483W        W93691  14.312  17.712   3.680
29484W        W93692  23.176  31.488  11.123
29485W        W93693   6.713   8.726  14.869
29486W        W93694  28.519   8.332   2.790
29487W        W93695  10.179  36.530   2.395
29488W        W93696  40.449  15.815   5.116
29489W        W93697   9.757  31.046   2.266
29490W        W93698  26.562  27.603  10.487
29491W        W93699  29.497  29.046   3.363
29492W        W93700  10.812  14.662   3.823
29493W        W93701  17.250  39.908   2.889
29494W        W93702  19.721  42.300  11.465
29495W        W93703  15.258   7.724  13.887
29496W        W93704  41.002   3.255  11.519
29497W        W93705  41.870   6.709   4.705
29498W        W93706  35.891  33.588  11.916
29499W        W93707  42.403  11.142   1.881
29500W        W93708  42.888   5.849  12.934
29501W        W93709  10.792   3.268  11.005
29502W        W93710   7.176  27.450   1.932
29503W        W93711  36.506   1.392   2.878
29504W        W93712  19.588  11.146   0.854
29505W        W93713  27.630  40.874   0.744
29506W        W93714  16.130  13.142  10.890
29507W        W93715  17.769  10.643  13.413
29508W        W93716  36.089  15.148   0.779
29509W        W93717   1.470   9.858  12.462
29510W        W93718   4.902  28.075  12.542
29511W        W93719  16.080   9.727   1.760
29512W        W93720  34.416  24.209   2.692
29513W        W93721  28.079  40.966   4.702
29514W        W93722  15.224   8.662   2.755
29515W        W93723  17.762  13.814   0.741
29516W        W93724  41.013  43.002  14.862
29517W        W93725   1.839   2.796   1.713
29518W        W93726  15.300  42.953   0.779
29519W        W93727  20.699  33.597  11.467
29520W        W93728  29.020  43.386   4.211
29521W        W93729  43.329   7.789  12.531
29522W        W93730  12.618  16.713  12.474
29523W        W93731  36.910  12.718  14.464
29524W        W93732  36.551  26.479   2.702
29525W        W93733   0.946  30.058   1.250
29526W        W93734  41.483  33.500   3.651
29527W        W93735  22.673   7.785   9.941
29528W        W93736  40.043  11.781  12.030
29529W        W93737  27.590  34.412  12.840
29530W        W93738  12.748  38.995  13.957
29531W        W93739   3.739   3.869   9.553
29532W        W93740  20.247  36.468   2.352
29533W        W93741   9.698   5.276  14.885
29534W        W93742  31.012  28.501  10.485
29535W        W93743   3.268  36.384  13.884
29536W        W93744  28.110  29.434   1.317
29537W        W93745  23.532  21.251  14.793
29538W        W93746   9.718  39.995   4.213
29539W        W93747  10.372  18.204  11.460
29540W        W93748   4.310  23.674   0.280
29541W        W93749   4.924  37.357   2.381
29542W        W93750  18.705  14.097   4.632
29543W        W93751  34.379  36.898  13.413
29544W        W93752   5.207   3.243  10.461
29545W        W93753  23.619  24.005   0.818
29546W        W93754  41.041  42.351  10.922
29547W        W93755   1.909   6.419   3.856
29548W        W93756  20.220  24.616   4.780
29549W        W93757  38.457   3.953  14.888
29550W        W93758  12.311  42.473   0.469
29551W        W93759  44.916   4.428  12.964
29552W        W93760  19.766  39.832  12.378
29553W        W93761  32.625  15.755  12.084
29554W        W93762  12.755   3.303   2.801
29555W        W93763   7.822  15.775  13.462
29556W        W93764  13.196  12.615  10.546
29557W        W93765  43.372  22.553   9.994
29558W        W93766  19.236  21.248  11.020
29559W        W93767  14.749  19.178   1.761
29560W        W93768  36.884  43.493  11.095
29561W        W93769   2.226   7.760  10.529
29562W        W93770   0.839  25.534   0.939
29563W        W93771  41.996  26.115   3.844
29564W        W93772   7.839  34.441  11.050
29565W        W93773  38.020   7.279   2.250
29566W        W93774   1.351  18.120   1.434
29567W        W93775   9.267  26.574   3.302
29568W        W93776   7.251   4.401  11.018
29569W        W93777  43.890  11.197   1.787
29570W        W93778  12.729  20.250  14.326
29571W        W93779   0.908  28.637   2.842
29572W        W93780   8.658  30.021  10.525
29573W        W93781   0.313   4.920  11.923
29574W        W93782  44.417  19.643  12.356
29575W        W93783  43.421  22.658  11.469
29576W        W93784  32.013  32.073   0.747
29577W        W93785  28.026  37.002   1.802
29578W        W93786  34.057  43.359  14.364
29579W        W93787  22.612  24.110  12.543
29580W        W93788  27.646  44.888  11.965
29581W        W93789  44.997  22.113   2.292
29582W        W93790   7.307  36.470  10.554
29583W        W93791  33.381   5.832  13.509
29584W        W93792  32.448   2.457  14.393
29585W        W93793  42.470   0.919   3.722
29586W        W93794  29.452   1.416  14.950
29587W        W93795  13.283  27.011   3.794
29588W        W93796  25.602  18.738  13.056
29589W        W93797  35.059  10.654   4.293
29590W        W93798  19.170  43.823  11.878
29591W        W93799  42.476  18.272   5.677
29592W        W93800  26.681  15.639  12.924
29593W        W93801  24.134  27.992   3.863
29594W        W93802  16.142  42.459  14.808
29595W        W93803  20.259   7.860  12.501
29596W        W93804   5.788  34.547   0.268
29597W        W93805   9.748  41.940   0.462
29598W        W93806  33.477   6.188   4.801
29599W        W93807  42.855  36.511  13.428
29600W        W93808   6.245  16.105  14.928
29601W        W93809  12.643  40.347   0.815
29602W        W93810  12.153  14.274   3.282
29603W        W93811  17.745  18.290   0.741
29604W        W93812  22.019  39.045   4.352
29605W        W93813  22.599  23.102   3.775
29606W        W93814  18.206  44.488  10.616
29607W        W93815  10.382  32.922   0.913
29608W        W93816  19.186   6.337   2.262
29609W        W93817  39.952  16.619   4.675
29610W        W93818   1.948   0.274   3.328
29611W        W93819  12.649  37.938   2.838
29612W        W93820   1.848  36.353   0.427
29613W        W93821  38.402  35.008   1.764
29614W        W93822  29.584  32.518  11.428
29615W        W93823  44.399  44.949   4.193
29616W        W93824  40.422  41.952   4.597
29617W        W93825  11.371  32.103   5.115
29618W        W93826  13.321  31.005   3.167
29619W        W93827  20.731  40.360   4.339
29620W        W93828  40.951  16.079   4.130
29621W        W93829  37.852  39.960   1.734
29622W        W93830  20.100   3.855   1.231
29623W        W93831  43.491   1.784   4.206
29624W        W93832   8.678  28.029   3.866
29625W        W93833  33.899   1.748  12.428
29626W        W93834  15.329  29.114   2.710
29627W        W93835  25.564  24.658   4.634
29628W        W93836   3.853  43.452   0.789
29629W        W93837  38.929  21.694   2.822
29630W        W93838  28.461   3.912  12.014
29631W        W93839   3.843  14.316   2.708
29632W        W93840   9.343   5.252  14.766
29633W        W93841  31.532  26.515  10.544
29634W        W93842   3.436  39.421  14.817
29635W        W93843  22.502  41.301  14.490
29636W        W93844   3.269  20.693  14.315
29637W        W93845  27.618   8.191  14.368
29638W        W93846  21.559  12.766   2.865
29639W        W93847  35.360  38.868  13.947
29640W        W93848  44.875  28.530   5.200
29641W        W93849  23.580  36.914   4.759
29642W        W93850   4.326  40.831  13.862
29643W        W93851   7.768  11.770   0.865
29644W        W93852  20.151  32.110   4.151
29645W        W93853  24.213  21.595   2.397
29646W        W93854  20.130   1.306   3.859
29647W        W93855   9.686  20.720   0.856
29648W        W93856   8.238  23.162   0.459
29649W        W93857  27.987   1.379   0.770
29650W        W93858  24.048  17.662   4.624
29651W        W93859  23.653   1.833  12.947
29652W        W93860  34.424  16.237  12.003
29653W        W93861   9.659   1.934  14.509
29654W        W93862  32.079  23.167  13.015
29655W        W93863  39.317  34.960   0.389
29656W        W93864  40.438  34.898  12.367
29657W        W93865  21.128  37.435  11.438
29658W        W93866  21.079  11.363  10.962
29659W        W93867   0.836  14.296  12.083
29660W        W93868  16.126  11.666  10.441
29661W        W93869   3.362   8.742  10.556
29662W        W93870   7.354   6.240   0.963
29663W        W93871   1.763  24.145  10.919
29664W        W93872  38.959  15.329   1.774
29665W        W93873  28.476  23.231   1.281
29666W        W93874  32.928  23.182  11.406
29667W        W93875  21.629   4.941   0.965
29668W        W93876  22.733  16.640  13.947
29669W        W93877  17.204   3.375   0.735
29670W        W93878  41.858  10.239   9.996
29671W        W93879  31.963  43.281  14.341
29672W        W93880  30.056  25.046   3.822
29673W        W93881  13.245   8.234   2.754
29674W        W93882  28.672  25.674  10.961
29675W        W93883  30.415  27.616  14.021
29676W        W93884  23.617  34.085  12.951
29677W        W93885  23.671  31.505   1.264
29678W        W93886  13.343  16.283   2.869
29679W        W93887   1.320  31.445   5.284
29680W        W93888  15.762  44.339  10.505
29681W        W93889  16.290  15.703  10.159
29682W        W93890  31.606  27.965  13.482
29683W        W93891  30.454  14.120   0.293
29684W        W93892  14.197  35.106   3.641
29685W        W93893  31.531  23.631  12.423
29686W        W93894  17.128  15.780   4.222
29687W        W93895  25.569  41.456   1.348
29688W        W93896  15.301  23.041  13.914
29689W        W93897  27.494  22.242   4.688
29690W        W93898  34.903  24.535  13.372
29691W        W93899  28.029   0.328  14.839
29692W        W93900   4.937  28.997  12.531
29693W        W93901  42.952   8.331  11.383
29694W        W93902  36.029  44.260  13.514
29695W        W93903  14.306   0.907   3.231
29696W        W93904  15.147  19.744  11.388
29697W        W93905   6.906  25.190   1.814
29698W        W93906  29.148  19.275   1.731
29699W        W93907  14.240  25.008   2.301
29700W        W93908  30.585  44.863   1.769
29701W        W93909  11.328  25.034  10.421
29702W        W93910  27.664  39.551   1.705
29703W        W93911  20.123  14.809  11.394
29704W        W93912  27.958  26.590  14.815
29705W        W93913  18.555   4.918  10.588
29706W        W93914  42.302  20.609  12.881
29707W        W93915  13.124  44.401   0.849
29708W        W93916  24.504  15.161  11.564
29709W        W93917  11.698  10.197   0.864
29710W        W93918  38.379  35.516  13.444
29711W        W93919  15.329  24.553   3.782
29712W        W93920  21.708  24.690  12.506
29713W        W93921  21.533  14.622  10.110
29714W        W93922   2.906  38.042   5.098
29715W        W93923  41.033   1.736  14.390
29716W        W93924   9.228  41.506  13.332
29717W        W93925   8.297   4.921   3.665
29718W        W93926  21.551   6.307   0.283
29719W        W93927  10.235  36.937  11.456
29720W        W93928  30.574  31.571   0.314
29721W        W93929  19.216  36.428   4.222
29722W        W93930  17.754  16.648  12.554
29723W        W93931  26.482  35.383  11.427
29724W        W93932  41.356  43.001  13.037
29725W        W93933  16.718  31.117  14.792
29726W        W93934  31.615   7.726  11.881
29727W        W93935  32.930  14.187   2.253
29728W        W93936  11.263  21.529  10.603
29729W        W93937  17.789   7.825  12.961
29730W        W93938  14.267  24.123  11.601
29731W        W93939  26.051  15.732   4.284
29732W        W93940  18.271  11.784   0.384
29733W        W93941  22.999   5.781  12.956
29734W        W93942  39.389  43.970  11.482
29735W        W93943   3.932  32.046  12.028
29736W        W93944  31.145  25.191  13.062
29737W        W93945  37.029  44.923   0.414
29738W        W93946  24.021  14.636   1.384
29739W        W93947   6.324  36.860  11.389
29740W        W93948  35.944  39.964   1.250
29741W        W93949  44.774  35.494  14.030
29742W        W93950  40.318   8.879   2.706
29743W        W93951  18.069   6.223   9.523
29744W        W93952   0.334  37.351   0.280
29745W        W93953   9.887   1.842   2.240
29746W        W93954   6.270  34.382  13.827
29747W        W93955  36.494  35.096   3.233
29748W        W93956  16.709  37.868  14.834
29749W        W93957  22.213  11.644   0.861
29750W        W93958  33.900  16.138  12.353
29751W        W93959  37.881  24.668   1.370
29752W        W93960  10.690  11.864  13.526
29753W        W93961   6.784   1.841  12.366
29754W        W93962  12.752  30.025   2.716
29755W        W93963  25.057  11.733   3.817
29756W        W93964  26.154  24.074  13.859
29757W        W93965  14.606  15.822  14.848
29758W        W93966  11.724   8.404   2.289
29759W        W93967  16.083  33.429   0.292
29760W        W93968  16.086   7.218  12.391
29761W        W93969  14.116  24.534  11.009
29762W        W93970  34.900  13.600  10.444
29763W        W93971  44.869   9.173   0.807
29764W        W93972  29.103  30.470  10.612
29765W        W93973  25.669  10.375  10.491
29766W        W93974  35.462  14.306   0.338
29767W        W93975  13.343  14.096  10.130
29768W        W93976  15.803   5.343   0.854
29769W        W93977   1.366  33.507   9.460
29770W        W93978  12.619   5.884   1.387
29771W        W93979   9.796  39.010  13.993
29772W        W93980  28.648   8.777   0.369
29773W        W93981   2.269  10.382   4.336
29774W        W93982   7.172  19.636   3.326
29775W        W93983  32.000   8.791  10.486
29776W        W93984  29.638  11.704  12.379
29777W        W93985  41.886  31.953   3.293
29778W        W93986  40.025   7.705   4.344
29779W        W93987  22.658   8.891   2.721
29780W        W93988  27.976   6.816   2.788
29781W        W93989   3.392  19.117  12.860
29782W        W93990  43.278  40.397   0.267
29783W        W93991  14.813  31.440   3.272
29784W        W93992  39.932   0.767   1.236
29785W        W93993  23.533  14.235   2.723
29786W        W93994  28.116  41.425  10.931
29787W        W93995  37.073  30.137   4.659
29788W        W93996   9.723  41.460   3.193
29789W        W93997  13.175  37.073  12.836
29790W        W93998   0.375   6.754   2.729
29791W        W93999  42.316  26.043  12.470
29792W        W94000  34.494  39.522   4.161
29793W        W94001   0.941  18.556  14.476
29794W        W94002  21.209  42.007  10.641
29795W        W94003   3.259  40.953  14.348
29796W        W94004  12.280  39.318   1.935
29797W        W94005  25.184   2.260   5.291
29798W        W94006  36.865  39.547   3.645
29799W        W94007  22.034  30.629   3.221
29800W        W94008  24.008   7.247   1.258
29801W        W94009   2.381  15.084   1.307
29802W        W94010  35.386   2.383  14.450
29803W        W94011  24.508  35.888   0.313
29804W        W94012  30.639  26.171   0.284
29805W        W94013  23.045  22.173   1.388
29806W        W94014  14.189  16.704   2.665
29807W        W94015  32.020  12.146   3.148
29808W        W94016   0.341   1.759  12.863
29809W        W94017   2.256  33.050  12.036
29810W        W94018  17.597   3.806   0.773
29811W        W94019   4.812  12.733  12.418
29812W        W94020  42.393  31.636  11.088
29813W        W94021   7.854  15.155   0.406
29814W        W94022  15.657  10.312  13.971
29815W        W94023  38.398  21.072   1.372
29816W        W94024  13.609   0.825   2.374
29817W        W94025  36.897  35.068   3.167
29818W        W94026  30.995  26.538  10.034
29819W        W94027  39.940   0.315  13.323
29820W        W94028  17.168  11.796   2.406
29821W        W94029  11.240  31.976  11.076
29822W        W94030  12.346   1.765   1.754
29823W        W94031  26.492  10.384  13.496
29824W        W94032   8.841  33.915   2.786
29825W        W94033  33.435   6.873  12.399
29826W        W94034  23.628  34.444  10.497
29827W        W94035  25.029  21.119   5.103
29828W        W94036  26.006  18.263  12.514
29829W        W94037  14.176  10.782  14.912
29830W        W94038  23.199  44.453  10.943
29831W        W94039  35.519   5.355  12.993
29832W        W94040   0.869  27.684  14.968
29833W        W94041  19.044  39.941   1.325
29834W        W94042  14.825  11.196   3.328
29835W        W94043  32.099  41.962  14.354
29836W        W94044  43.293  32.958  12.978
29837W        W94045  16.110  19.687   4.203
29838W        W94046  31.082  28.080   2.369
29839W        W94047  37.553  16.091  14.892
29840W        W94048   7.343  16.615  14.466
29841W        W94049  28.468  14.325   2.714
29842W        W94050  33.546  38.491   1.800
29843W        W94051   0.463  17.259  11.446
29844W        W94052  14.115  41.342  10.488
29845W        W94053  26.592  17.568   3.739
29846W        W94054  44.331  43.469  11.582
29847W        W94055  19.234  13.292   4.633
29848W        W94056  33.539  10.699   1.383
29849W        W94057  33.047  28.978  10.495
29850W        W94058   6.301  33.006  13.508
29851W        W94059  31.950  19.656  11.562
29852W        W94060   1.840  42.469  13.857
29853W        W94061  10.750  14.706   4.195
29854W        W94062  11.356  32.427   2.827
29855W        W94063  24.142  42.885   3.834
29856W        W94064  33.545  16.789  14.907
29857W        W94065   5.772  16.305   4.652
29858W        W94066  29.100  27.502   0.479
29859W        W94067  41.995   7.893   3.798
29860W        W94068  19.251  33.553   4.621
29861W        W94069  22.586  31.954   0.923
29862W        W94070  23.076   4.222   0.398
29863W        W94071  23.027  39.425   3.278
29864W        W94072   2.879   7.761   4.741
29865W        W94073  19.276   5.306  13.348
29866W        W94074  23.490   5.726   2.663
29867W        W94075  27.116  16.283   4.296
29868W        W94076   7.234   0.887   4.324
29869W        W94077   7.272  25.714   0.314
29870W        W94078  26.513  20.638   3.309
29871W        W94079  34.984  39.396   0.818
29872W        W94080   2.310   6.871  13.821
29873W        W94081  26.485  30.058  10.975
29874W        W94082   5.737  20.630   1.802
29875W        W94083  28.931  10.249   1.859
29876W        W94084  17.246  20.095  14.009
29877W        W94085  16.097  37.952   0.799
29878W        W94086  34.579  19.124   2.320
29879W        W94087  41.507  27.644  11.046
29880W        W94088   6.223   9.175   0.818
29881W        W94089  42.830   6.304   0.741
29882W        W94090  20.188  13.174   1.416
29883W        W94091  37.380  41.461   2.394
29884W        W94092  42.841  24.643  10.509
29885W        W94093  21.533   4.878  10.483
29886W        W94094  34.957   2.320   2.723
29887W        W94095  40.934  13.611   1.774
29888W        W94096  34.614  33.131   4.603
29889W        W94097  13.668   5.386   2.731
29890W        W94098  22.747  41.922   2.312
29891W        W94099  24.674  29.983  13.447
29892W        W94100   1.252  43.978   4.209
29893W        W94101  17.068   0.453   3.160
29894W        W94102  32.079   6.764  13.392
29895W        W94103  15.296  35.992  12.526
29896W        W94104  19.744  36.098  10.984
29897W        W94105   8.895  29.470   1.812
29898W        W94106  25.535   5.746   0.381
29899W        W94107  27.686   8.299   1.764
29900W        W94108  44.003   7.265   2.294
29901W        W94109  29.989  23.170  13.516
29902W        W94110  14.795  25.534  10.608
29903W        W94111  30.497  26.481   1.851
29904W        W94112  22.526  34.563  14.454
29905W        W94113   6.263  10.817   0.458
29906W        W94114   0.751  14.709  13.389
29907W        W94115  28.139  23.037   2.856
29908W        W94116  40.974  34.967   0.818
29909W        W94117  15.228  11.163   3.656
29910W        W94118  38.003  12.624   3.792
29911W        W94119  37.861  28.486   4.140
29912W        W94120  17.616  33.971   0.893
29913W        W94121  14.259  43.989   4.169
29914W        W94122  27.085  14.233   3.700
29915W        W94123  43.849   5.809   1.252
29916W        W94124  11.831  39.842  11.011
29917W        W94125   2.283  26.689  12.448
29918W        W94126  44.799  15.656  12.569
29919W        W94127  36.366  23.168  11.471
29920W        W94128  39.997  25.064  13.485
29921W        W94129  17.570   3.421   3.820
29922W        W94130   7.890  19.561  10.438
29923W        W94131   4.803  42.972  14.341
29924W        W94132  41.413  13.827  11.423
29925W        W94133  33.063  34.608   0.734
29926W        W94134  24.993   9.743  12.413
29927W        W94135  29.035  10.871  13.033
29928W        W94136  23.995  15.787  12.824
29929W        W94137  43.810   5.403   4.619
29930W        W94138  26.465  36.081   1.258
29931W        W94139   8.852  17.640   3.343
29932W        W94140   6.849  27.562  11.384
29933W        W94141   8.192  24.117   2.368
29934W        W94142  27.950  25.672  12.929
29935W        W94143  32.025  30.150  12.459
29936W        W94144  24.622  26.590  12.409
29937W        W94145   6.718  16.705   4.623
29938W        W94146  39.338  27.600  12.498
29939W        W94147  32.623  33.941   0.751
29940W        W94148  18.644  20.722  14.952
29941W        W94149  34.923  44.835   3.810
29942W        W94150   9.722  41.828  14.503
29943W        W94151  36.093  31.570  11.453
29944W        W94152  23.010  16.308   0.730
29945W        W94153   0.878  23.668   2.859
29946W        W94154  34.106  33.624  10.473
29947W        W94155   3.737  29.162   2.693
29948W        W94156  29.428  20.676   3.215
29949W        W94157  43.382   1.293   0.381
29950W        W94158  13.351   8.244  12.020
29951W        W94159   8.319  34.540  14.924
29952W        W94160   5.891  34.891   1.727
29953W        W94161  21.575   8.352  11.408
29954W        W94162  25.199   0.465  12.056
29955W        W94163  34.396   2.783   0.370
29956W        W94164  44.444  12.683  11.866
29957W        W94165  39.558  35.006   3.713
29958W        W94166   8.670  35.926  10.522
29959W        W94167  37.957  24.150  14.405
29960W        W94168  23.236  40.489  13.530
29961W        W94169  38.827  10.310   4.130
29962W        W94170  30.935  24.067  11.543
29963W        W94171  40.460   2.258  13.315
29964W        W94172  44.427  26.485   1.695
29965W        W94173  15.678  17.621  13.396
29966W        W94174  33.103   9.657  11.875
29967W        W94175   6.707  16.630   1.416
29968W        W94176  41.500  15.085  13.893
29969W        W94177  44.273  33.936  11.609
29970W        W94178  25.080  29.639   5.311
29971W        W94179  18.666  16.784   9.516
29972W        W94180   4.414  44.326  14.032
29973W        W94181  25.131   4.318   1.210
29974W        W94182   6.790  42.503   0.730
29975W        W94183  38.033   7.801  12.999
29976W        W94184   4.899  12.233   1.829
29977W        W94185  39.015  20.537   1.349
29978W        W94186  35.948  10.799  10.555
29979W        W94187  31.421   7.300  10.421
29980W        W94188  37.975  42.488   4.655
29981W        W94189   9.853   7.702  13.331
29982W        W94190  13.145  14.780   1.251
29983W        W94191  37.058   5.371  12.451
29984W        W94192  27.032  44.270  13.324
29985W        W94193   2.458   4.843  10.508
29986W        W94194   5.911  41.954  12.956
29987W        W94195  11.209  25.153  14.966
29988W        W94196  30.952  19.138  13.464
29989W        W94197  36.087   6.262   4.635
29990W        W94198  23.078  42.875   2.676
29991W        W94199  40.986  42.379  12.502
29992W        W94200   9.324  34.385   2.850
29993W        W94201  41.448  20.184   1.930
29994W        W94202  23.591  34.023   1.902
29995W        W94203  14.276  43.764   0.926
29996W        W94204   0.833   7.197  14.958
29997W        W94205  24.126  29.990   4.308
29998W        W94206  31.037  21.687   3.781
29999W        W94207  29.491  38.525   2.364
30000W        W94208  21.244  14.598   2.811
30001W        W94209  38.928  20.526  12.020
30002W        W94210  32.117  28.495   3.813
30003W        W94211  27.995  43.329  10.497
30004W        W94212  43.285   9.856   2.266
30005W        W94213  26.531   5.853  10.965
30006W        W94214  22.674  13.627  12.013
30007W        W94215  37.845  30.424  10.550
30008W        W94216  32.073  34.412   4.246
30009W        W94217   7.817  34.949  13.958
30010W        W94218  11.188   9.306  14.777
30011W        W94219  22.616  11.853  13.396
30012W        W94220  12.630  43.804  12.011
30013W        W94221  24.129   1.307  11.393
30014W        W94222  29.526   2.326  10.627
30015W        W94223   7.372   1.316  11.117
30016W        W94224   8.325  12.172  13.338
30017W        W94225  22.007  34.519  11.041
30018W        W94226   7.315   5.264   0.418
30019W        W94227  12.224  14.671  14.867
30020W        W94228  19.136  40.466  11.460
30021W        W94229  23.210  31.083  11.577
30022W        W94230   6.789  40.502   1.407
30023W        W94231   5.389  40.895   3.222
30024W        W94232   4.246   4.899  14.821
30025W        W94233  29.529   6.187   1.391
30026W        W94234  29.666  16.298  11.504
30027W        W94235  16.081  39.458  13.856
30028W        W94236  13.177  43.401   4.253
30029W        W94237  22.249   1.736  10.577
30030W        W94238  29.508  17.174   2.294
30031W        W94239  13.120  16.651  13.010
30032W        W94240  19.551  44.361  10.895
30033W        W94241   0.878  11.341   2.246
30034W        W94242  41.448  37.961  12.081
30035W        W94243  21.756   5.779  11.915
30036W        W94244  31.917  28.642  14.376
30037W        W94245  25.004  22.228   2.804
30038W        W94246  23.581   9.704  13.930
30039W        W94247  13.800  12.329   1.396
30040W        W94248  42.475  41.507  13.799
30041W        W94249  37.507   5.385   2.240
30042W        W94250  14.804   8.218   1.821
30043W        W94251   9.855  12.721   0.776
30044W        W94252  35.042  44.498  14.925
30045W        W94253  12.327   8.203  12.519
30046W        W94254  21.536   0.428  14.892
30047W        W94255   0.911  25.698  13.366
30048W        W94256  40.950  34.894  13.434
30049W        W94257  11.173  37.004   4.772
30050W        W94258   7.785  28.079  13.444
30051W        W94259  18.059  35.969  11.908
30052W        W94260  10.301  19.090  13.013
30053W        W94261  30.014  39.048  11.463
30054W        W94262  35.908  25.194  12.534
30055W        W94263  16.627  21.238   1.421
30056W        W94264  31.548  32.900  11.878
30057W        W94265  29.520  12.274   0.461
30058W        W94266  19.164  19.202  14.384
30059W        W94267  11.229  44.258   1.871
30060W        W94268  38.433  31.530  13.955
30061W        W94269  19.216  27.080   3.266
30062W        W94270  22.068  19.538  14.976
30063W        W94271  21.584  40.437  12.096
30064W        W94272  25.205   4.302  14.422
30065W        W94273   4.447  19.582   3.179
30066W        W94274  39.042  13.796  10.547
30067W        W94275  40.037   2.897  12.011
30068W        W94276  41.890  25.066  11.108
30069W        W94277   9.167  20.557   2.685
30070W        W94278  36.377  25.542   1.840
30071W        W94279  41.427  41.366  14.396
30072W        W94280  37.471  44.916  11.918
30073W        W94281   3.770  35.094  12.476
30074W        W94282  16.616  34.496  12.426
30075W        W94283  43.422   4.447  13.533
30076W        W94284  20.598  19.559  12.918
30077W        W94285  16.154   7.690   0.747
30078W        W94286   3.818  11.796   0.816
30079W        W94287  37.370  16.759   1.272
30080W        W94288  39.510  22.524  12.409
30081W        W94289  24.518  27.449   0.314
30082W        W94290  22.070  21.018  11.981
30083W        W94291   0.757  41.800   4.131
30084W        W94292  17.297   9.858  12.511
30085W        W94293  31.130  27.076  11.862
30086W        W94294  31.409  33.980   2.206
30087W        W94295  12.224  42.873   2.225
30088W        W94296  35.526  10.635  13.437
30089W        W94297  15.625  39.348  11.109
30090W        W94298  41.458   3.437   0.962
30091W        W94299  21.219  44.291  11.080
30092W        W94300   7.738  18.283   2.183
30093W        W94301  27.635   1.837   3.293
30094W        W94302  29.559  11.198   1.898
30095W        W94303   4.725  36.957   3.366
30096W        W94304  28.150  14.722   0.416
30097W        W94305  20.148  11.723  13.888
30098W        W94306   1.957  12.808   1.810
30099W        W94307  31.145  29.960   2.752
30100W        W94308  10.277  31.637   0.779
30101W        W94309   6.876  10.728   3.227
30102W        W94310  22.697  37.345   4.775
30103W        W94311  23.549  28.578  12.511
30104W        W94312  17.574  38.402   4.277
30105W        W94313  17.710   5.701  13.044
30106W        W94314  14.191   3.330  14.378
30107W        W94315  27.571  35.079   3.804
30108W        W94316  15.589  15.243   3.219
30109W        W94317  43.452  23.159  12.984
30110W        W94318  33.483  32.393   4.196
30111W        W94319  17.104  13.112  13.487
30112W        W94320  38.448  31.474   2.780
30113W        W94321  30.414  13.669  13.993
30114W        W94322  33.886  11.303  14.284
30115W        W94323   0.440  20.768   2.677
30116W        W94324  20.254  10.149   1.700
30117W        W94325  30.991  39.524  14.290
30118W        W94326  36.490  39.487  12.002
30119W        W94327  24.485  22.737   1.312
30120W        W94328  19.597  12.612  13.003
30121W        W94329   5.764  13.305   1.317
30122W        W94330  16.623  25.133   1.697
30123W        W94331   4.786  31.146  11.537
30124W        W94332  20.184  38.945   1.809
30125W        W94333   4.321  38.895   1.308
30126W        W94334   2.391  38.552   3.786
30127W        W94335  11.662   3.906   2.194
30128W        W94336  24.035  15.761  11.488
30129W        W94337  24.603   5.910   2.216
30130W        W94338   9.742  40.871  12.889
30131W        W94339   9.185  23.221   0.941
30132W        W94340  39.956  38.830   0.865
30133W        W94341  17.602  13.308   0.892
30134W        W94342   2.940  14.250  11.891
30135W        W94343  12.798   4.796   3.237
30136W        W94344  27.486   0.410   0.364
30137W        W94345  23.087  13.616  10.539
30138W        W94346  37.967   9.679  12.492
30139W        W94347  14.260  40.812  12.965
30140W        W94348  41.479  22.644  12.523
30141W        W94349  44.994  20.179   2.798
30142W        W94350  36.583  33.559  14.406
30143W        W94351  24.573  42.446   1.791
30144W        W94352  25.559  12.161  12.826
30145W        W94353   6.284  17.566   4.310
30146W        W94354  21.625  12.227   3.242
30147W        W94355  13.216  35.971   5.104
30148W        W94356  26.600  14.200  14.013
30149W        W94357  33.546  15.262   1.694
30150W        W94358  35.439   9.178  13.309
30151W        W94359   9.206  35.508   2.771
30152W        W94360  27.161  28.980  11.903
30153W        W94361   8.268  28.170   4.735
30154W        W94362  36.962  30.569   3.244
30155W        W94363   9.169  16.745   1.444
30156W        W94364  24.195  15.630  10.913
30157W        W94365   1.453  37.850   4.205
30158W        W94366  31.143  20.544  13.947
30159W        W94367  28.126  12.841   4.722
30160W        W94368  19.534  38.543  13.934
30161W        W94369  41.014  22.657   0.941
30162W        W94370  13.312   9.764   3.241
30163W        W94371   7.736  24.028   3.331
30164W        W94372   9.259  10.236   3.188
30165W        W94373  21.127  33.030   2.200
30166W        W94374   9.374  34.033  11.094
30167W        W94375  44.806   3.870   1.228
30168W        W94376  35.886  23.732   2.338
30169W        W94377  26.661   7.219   2.303
30170W        W94378  18.295  21.632  11.073
30171W        W94379  40.025   4.770   2.736
30172W        W94380  12.276   4.915  12.577
30173W        W94381  17.234  20.608   3.188
30174W        W94382  17.655  15.739  14.942
30175W        W94383   8.837  24.498   2.891
30176W        W94384  30.523   1.858  12.921
30177W        W94385  32.619  20.596   2.298
30178W        W94386  20.530   0.850   0.468
30179W        W94387  31.123   0.965  14.905
30180W        W94388  15.765  16.133   4.806
30181W        W94389  44.411  15.743  12.547
30182W        W94390   5.406  38.373   1.424
30183W        W94391  28.112  16.280   2.895
30184W        W94392  15.175   8.290  12.995
30185W        W94393   6.427  12.660  12.426
30186W        W94394  42.346  23.221   2.392
30187W        W94395  28.110  43.937   1.797
30188W        W94396  10.751  13.186   3.208
30189W        W94397  36.904   5.257   3.649
30190W        W94398  43.817   1.805   4.639
30191W        W94399   3.421  20.574  10.554
30192W        W94400  19.126  10.160   2.701
30193W        W94401  33.013  41.042  12.008
30194W        W94402  10.877  30.645   2.261
30195W        W94403   0.890   3.376   3.243
30196W        W94404  37.436  16.248   1.911
30197W        W94405  36.361   5.888   0.730
30198W        W94406  13.210  18.138   4.646
30199W        W94407   9.714  41.367   3.676
30200W        W94408  17.647   4.312  14.801
30201W        W94409   4.717  10.332   5.278
30202W        W94410  31.441  11.860  12.529
30203W        W94411  14.232   2.720   3.163
30204W        W94412  36.860   3.405   2.243
30205W        W94413   5.325  10.769  11.592
30206W        W94414  28.529  27.047   0.275
30207W        W94415  17.305  18.786  10.558
30208W        W94416   3.215  41.946   2.181
30209W        W94417  29.102  30.434   4.823
30210W        W94418  25.567  38.476  12.394
30211W        W94419  12.628   6.773  14.280
30212W        W94420   0.754  11.702  13.386
30213W        W94421  25.660  14.283   2.292
30214W        W94422   1.321  18.618  13.525
30215W        W94423  38.976  40.362   2.249
30216W        W94424  44.952  35.072  14.949
30217W        W94425  27.605   5.812  13.040
30218W        W94426  15.285  12.826   3.734
30219W        W94427  38.885   4.273  12.006
30220W        W94428  29.999  11.146  14.375
30221W        W94429  22.546  29.918   2.201
30222W        W94430  30.620  28.124  13.546
30223W        W94431  40.900   8.890   4.191
30224W        W94432  42.285  31.498  10.548
30225W        W94433  13.177  27.194  10.978
30226W        W94434   8.840  12.251  13.923
30227W        W94435   5.231  28.024   2.874
30228W        W94436  19.182   0.453   2.401
30229W        W94437  12.175   9.738   4.681
30230W        W94438  18.223  42.516  10.559
30231W        W94439   3.955  17.201   2.755
30232W        W94440  41.417  29.531  11.955
30233W        W94441  38.468  22.635  11.496
30234W        W94442  19.560  29.667   0.289
30235W        W94443  35.903  38.055  12.519
30236W        W94444   4.762  24.688  11.040
30237W        W94445  31.444  31.408  13.912
30238W        W94446  37.985  41.516  12.906
30239W        W94447   1.407  20.222  13.523
30240W        W94448  25.089  22.083  12.376
30241W        W94449  41.909  27.629   1.416
30242W        W94450  30.141  38.486   1.297
30243W        W94451  28.046  27.166   4.240
30244W        W94452  16.249  14.605   4.737
30245W        W94453  43.388  38.896   0.938
30246W        W94454  26.609  16.639   2.787
30247W        W94455   1.437  34.435   1.714
30248W        W94456  12.164  28.098   4.726
30249W        W94457  30.138   0.373  13.502
30250W        W94458  15.820  27.951  12.075
30251W        W94459  29.114  17.574   3.250
30252W        W94460  39.315   5.209   0.809
30253W        W94461   9.195  32.025  13.396
30254W        W94462   5.855  31.469   0.920
30255W        W94463  27.590  44.771   3.265
30256W        W94464  39.057   1.270  12.440
30257W        W94465  13.685  17.086   2.322
30258W        W94466   9.155   0.402   2.849
30259W        W94467  17.672  31.944   4.212
30260W        W94468  41.828  40.364  12.491
30261W        W94469  41.368  16.228   0.795
30262W        W94470  22.573  20.218  11.964
30263W        W94471  23.577  24.674  12.541
30264W        W94472  11.231  27.053  13.463
30265W        W94473  31.427  17.652   9.968
30266W        W94474  31.944  17.190  14.291
30267W        W94475  18.559   4.765  11.920
30268W        W94476  26.079  26.540  10.895
30269W        W94477  42.424  11.780   3.829
30270W        W94478  42.971  17.233   5.107
30271W        W94479   6.814  17.222  13.990
30272W        W94480  23.657  22.175  11.887
30273W        W94481   7.666  31.919  11.026
30274W        W94482  13.271  15.280   1.727
30275W        W94483  22.049  14.298   0.785
30276W        W94484  20.237   1.423   0.873
30277W        W94485   4.253  40.836  12.997
30278W        W94486   1.945  37.372   4.239
30279W        W94487  34.519  13.201  13.061
30280W        W94488  18.651   0.379  10.590
30281W        W94489   8.361  28.522   0.737
30282W        W94490  33.585  33.981  12.095
30283W        W94491   9.260   4.229  11.397
30284W        W94492  11.341  41.910   0.393
30285W        W94493  24.082  27.661   2.382
30286W        W94494  15.117  32.047   0.366
30287W        W94495  39.974  36.497   1.321
30288W        W94496  26.958  36.923  12.083
30289W        W94497  29.511  16.776  13.476
30290W        W94498  16.130   3.943   4.180
30291W        W94499   3.728  17.687  14.402
30292W        W94500   8.776  27.580  10.940
30293W        W94501  43.448  21.177   2.244
30294W        W94502  22.242   6.902   5.632
30295W        W94503  21.574  42.827  13.329
30296W        W94504  37.474  35.913  12.999
30297W        W94505  36.356  12.706  12.974
30298W        W94506   8.790  36.443   4.140
30299W        W94507   4.395   2.413  12.070
30300W        W94508  27.161  26.098  14.439
30301W        W94509  35.450   1.394   3.183
30302W        W94510  44.324   8.374  11.988
30303W        W94511  42.025   3.840  13.493
30304W        W94512  40.860  28.601  14.974
30305W        W94513  32.927  22.637   0.833
30306W        W94514  27.004  21.222   4.688
30307W        W94515  21.589  42.000   3.786
30308W        W94516  39.967  21.060   0.930
30309W        W94517  22.073   4.851   2.664
30310W        W94518  19.091  28.014  11.920
30311W        W94519  10.243  10.186  11.522
30312W        W94520  14.152  15.621   0.768
30313W        W94521  28.607  42.423  13.838
30314W        W94522  13.127  15.806  13.307
30315W        W94523  44.758  29.579  14.032
30316W        W94524  36.482  19.588  13.014
30317W        W94525  40.339  31.076  11.372
30318W        W94526  19.721  44.854   3.256
30319W        W94527  30.574  40.812  14.485
30320W        W94528   8.294  30.458   1.832
30321W        W94529  41.910  36.081   1.775
30322W        W94530  10.670  25.696  11.591
30323W        W94531  22.070  20.690  11.501
30324W        W94532  13.267  17.573   3.303
30325W        W94533  44.398   9.681   0.299
30326W        W94534  38.877  31.954   2.273
30327W        W94535  21.670  30.011   3.328
30328W        W94536   9.801  18.175  14.377
30329W        W94537  42.381   8.310   3.202
30330W        W94538   3.842   2.917  14.790
30331W        W94539  38.868   3.316  14.962
30332W        W94540  15.270  21.695   0.803
30333W        W94541   4.939  17.087  13.545
30334W        W94542   6.724   3.359   3.766
30335W        W94543  43.933  40.352   4.603
30336W        W94544   0.459  42.881   2.752
30337W        W94545   4.825  10.350  11.945
30338W        W94546  13.335   1.383   1.838
30339W        W94547  11.253  27.510  11.540
30340W        W94548   6.299  34.869   2.847
30341W        W94549  41.408  27.083  12.568
30342W        W94550  20.150  30.412  12.505
30343W        W94551   8.667  31.477   3.690
30344W        W94552  12.196   3.296  12.429
30345W        W94553  22.683   2.953  13.861
30346W        W94554  36.855  30.647  14.839
30347W        W94555  30.619  13.144  13.889
30348W        W94556  23.177   7.728  12.568
30349W        W94557  31.048  39.317   0.295
30350W        W94558  25.111  37.355   2.358
30351W        W94559  26.119  24.618  12.458
30352W        W94560  21.609   4.318  11.012
30353W        W94561  33.010  14.303  11.935
30354W        W94562   8.795  43.908  12.959
30355W        W94563  17.680  23.161  11.602
30356W        W94564  32.101  15.247   3.840
30357W        W94565  22.055   5.421   4.320
30358W        W94566  19.111  11.848  11.952
30359W        W94567  41.981   4.209   3.852
30360W        W94568  16.102  42.408   2.354
30361W        W94569   6.799   1.736  11.882
30362W        W94570  32.606  29.428  10.638
30363W        W94571  26.090   3.294   1.738
30364W        W94572  18.140   1.882   4.351
30365W        W94573  37.917  30.656  12.370
30366W        W94574  33.045   6.777  14.493
30367W        W94575  39.467  29.952  13.895
30368W        W94576  32.121  26.199   3.699
30369W        W94577  40.955   8.165  13.019
30370W        W94578  24.034  17.168   5.270
30371W        W94579  25.069  41.975   0.412
30372W        W94580   8.280  12.344  11.891
30373W        W94581  42.900  37.499  12.891
30374W        W94582  39.458  24.487   1.905
30375W        W94583   1.842   3.844   4.310
30376W        W94584   4.223  36.993   4.118
30377W        W94585  26.682  29.083  11.498
30378W        W94586  33.592  34.988   3.857
30379W        W94587  26.534  23.192   2.824
30380W        W94588  27.178  28.987  10.506
30381W        W94589   8.894   7.233  11.454
30382W        W94590  34.384  12.842   2.696
30383W        W94591  30.460  29.663   4.327
30384W        W94592  19.694  21.691  12.980
30385W        W94593  30.469  25.543   1.879
30386W        W94594  16.691  17.760   1.248
30387W        W94595  28.093  12.279   3.840
30388W        W94596   6.215  39.491  14.870
30389W        W94597   8.889  38.468   2.764
30390W        W94598  24.497   8.339   4.349
30391W        W94599  42.360   8.825   0.836
30392W        W94600  12.158   2.906   3.315
30393W        W94601  32.094  29.010  14.463
30394W        W94602  22.583  35.454  12.507
30395W        W94603  28.984   4.356   0.868
30396W        W94604  37.526  41.359   0.244
30397W        W94605  10.266  42.314   0.350
30398W        W94606  12.346  12.760   1.868
30399W        W94607  24.540  29.021   3.222
30400W        W94608  16.104  34.049   0.457
30401W        W94609  40.530  16.317  13.856
30402W        W94610  34.393  15.137  14.958
30403W        W94611  32.027  30.019   3.283
30404W        W94612  23.697  39.421   2.333
30405W        W94613   9.189  14.230   5.153
30406W        W94614  37.542  25.102  10.597
30407W        W94615  41.428  31.910  12.091
30408W        W94616  12.734  29.143   2.205
30409W        W94617  25.089  36.861  11.492
30410W        W94618  43.449   5.272  10.639
30411W        W94619  19.588   5.787   1.781
30412W        W94620  34.879   6.400   1.785
30413W        W94621   4.387  25.185  14.478
30414W        W94622  37.962  13.633  12.948
30415W        W94623   5.798  15.775   4.821
30416W        W94624  38.330  19.542   1.450
30417W        W94625   6.369  14.178  13.418
30418W        W94626  12.817  20.667   4.178
30419W        W94627   0.264  40.361  12.996
30420W        W94628  19.090  38.496  14.358
30421W        W94629  41.842   6.371  12.870
30422W        W94630   9.677  19.239   3.722
30423W        W94631  24.486   8.183   1.905
30424W        W94632  39.344  34.385   1.888
30425W        W94633  32.074  13.684  11.977
30426W        W94634   3.352  12.315  14.351
30427W        W94635  36.091  39.381  14.905
30428W        W94636  34.439  25.058   1.883
30429W        W94637   1.885   8.823   4.189
30430W        W94638  10.826   4.745  10.970
30431W        W94639  15.615  32.002   2.868
30432W        W94640  30.539  33.017   4.337
30433W        W94641  32.952  24.588   0.371
30434W        W94642   1.952  13.609   3.374
30435W        W94643  24.222   6.701   4.181
30436W        W94644  24.005  41.789   0.459
30437W        W94645  19.653  34.004  11.538
30438W        W94646   7.239  32.104  10.904
30439W        W94647  41.296  17.183   3.648
30440W        W94648  17.639   5.756   3.258
30441W        W94649  40.819  35.098   1.760
30442W        W94650  23.094  14.794  12.533
30443W        W94651  42.467  24.534  14.997
30444W        W94652  20.525  12.708   4.134
30445W        W94653  23.665  41.519   4.279
30446W        W94654  14.116   1.378  10.407
30447W        W94655   0.796  32.567   1.880
30448W        W94656  41.349   8.349   0.304
30449W        W94657  25.034  34.969  12.075
30450W        W94658  35.442  41.848  13.903
30451W        W94659  30.065  28.043  13.325
30452W        W94660  30.930  39.032   0.440
30453W        W94661   1.305  41.958  10.637
30454W        W94662  14.699  35.918   5.232
30455W        W94663  14.688  23.097   3.289
30456W        W94664  12.250  35.030  10.512
30457W        W94665  14.641  38.044  10.915
30458W        W94666  20.239   8.357   5.299
30459W        W94667  31.465  27.625   0.339
30460W        W94668  40.916   5.201   5.665
30461W        W94669  30.562  10.836   2.792
30462W        W94670  15.314  31.561   4.769
30463W        W94671  10.363  44.870  11.480
30464W        W94672  29.618  10.673  11.980
30465W        W94673  21.114  34.493  12.015
30466W        W94674  23.543  21.711  10.572
30467W        W94675   0.457  40.981  13.366
30468W        W94676  17.306  14.780  12.447
30469W        W94677  14.240  14.715   3.322
30470W        W94678  37.842  28.175  13.060
30471W        W94679  25.510  20.688   3.870
30472W        W94680  25.982   3.951   4.270
30473W        W94681  11.132  35.603   4.173
30474W        W94682  20.693  10.713   3.186
30475W        W94683  21.545  23.728  10.500
30476W        W94684  11.278  29.064   3.377
30477W        W94685  19.694  13.755   3.792
30478W        W94686  17.222  32.481  14.906
30479W        W94687  21.213  31.504   2.408
30480W        W94688  37.535  18.068   4.283
30481W        W94689   0.755  23.505   0.850
30482W        W94690   3.833  15.730   3.771
30483W        W94691  15.736  34.511  10.608
30484W        W94692  32.011  39.387  14.505
30485W        W94693   4.772  42.502  12.534
30486W        W94694  44.921  14.237   0.290
30487W        W94695  36.468  19.154  11.509
30488W        W94696  18.232  44.272   4.736
30489W        W94697   0.412  11.233  12.579
30490W        W94698  34.487   3.935   1.212
30491W        W94699  23.052  16.725  11.555
30492W        W94700  14.823  15.127   4.220
30493W        W94701   7.835  25.981  11.883
30494W        W94702   3.889  40.482  10.600
30495W        W94703  13.349   9.204   1.757
30496W        W94704  36.930  28.501   3.776
30497W        W94705  13.689  25.484  13.062
30498W        W94706  31.897  13.123  10.622
30499W        W94707   7.356  27.103  12.863
30500W        W94708   2.396  41.839  10.640
30501W        W94709  23.182  26.118  12.472
30502W        W94710  10.291  35.422   1.903
30503W        W94711  24.635  35.097  13.896
30504W        W94712  35.894   8.311  13.856
30505W        W94713   6.289  24.193  12.485
30506W        W94714  40.922   0.939   3.227
30507W        W94715  33.537  33.941  11.533
30508W        W94716  24.034  12.211   3.381
30509W        W94717  39.831  15.245   4.787
30510W        W94718  14.612   6.692  11.480
30511W        W94719  13.308   1.342  12.393
30512W        W94720  12.142   9.386   4.316
30513W        W94721   9.878  35.584   3.244
30514W        W94722  12.205   2.365   3.726
30515W        W94723  18.105  28.073   3.746
30516W        W94724  20.099   0.422   3.155
30517W        W94725  17.800  33.503  14.027
30518W        W94726  21.511  42.316   4.614
30519W        W94727  10.691  28.666   0.478
30520W        W94728  20.689  30.622  13.973
30521W        W94729  33.045  42.511   1.393
30522W        W94730  14.311  18.575  10.496
30523W        W94731  37.871   1.963   3.766
30524W        W94732  35.493  16.257   2.379
30525W        W94733   5.857  34.895   0.353
30526W        W94734   5.350   9.698  12.377
30527W        W94735  32.531  24.221   0.745
30528W        W94736  20.131  18.762   1.394
30529W        W94737   5.320  43.300  10.623
30530W        W94738  30.062   3.332   2.283
30531W        W94739  21.541  41.315   1.258
30532W        W94740  32.949  24.517   3.759
30533W        W94741  18.693  14.120  13.389
30534W        W94742  37.476   5.918   2.811
30535W        W94743  17.583  25.028   2.388
30536W        W94744  14.740  43.485   0.916
30537W        W94745   0.810  17.254   0.887
30538W        W94746  28.061   1.956   1.268
30539W        W94747  32.530  38.449   2.289
30540W        W94748  34.980   3.267   3.775
30541W        W94749   9.224  43.823   4.185
30542W        W94750  15.275   9.354  14.936
30543W        W94751  15.808  12.325   3.238
30544W        W94752  18.714  22.037   2.782
30545W        W94753  25.187  14.276   4.188
30546W        W94754  44.444  37.508  14.956
30547W        W94755  30.524  30.110  11.951
30548W        W94756  27.538  29.134  12.437
30549W        W94757   1.412  27.665   1.381
30550W        W94758  21.111  25.069  14.334
30551W        W94759   1.937  22.611   3.825
30552W        W94760   8.849  36.992   3.735
30553W        W94761  20.263  30.611   4.602
30554W        W94762  24.150   7.712  13.498
30555W        W94763   9.162  13.204  12.500
30556W        W94764  41.016  31.516   1.803
30557W        W94765  42.411   3.812   0.387
30558W        W94766   3.812  23.066   0.389
30559W        W94767  43.970  20.623  10.615
30560W        W94768   4.855  27.106   5.316
30561W        W94769  27.971  26.191  14.843
30562W        W94770  11.197  16.073   1.357
30563W        W94771  41.450   0.297   4.602
30564W        W94772   9.735  28.592   1.220
30565W        W94773  30.602  41.862  10.932
30566W        W94774  36.094  13.340  10.586
30567W        W94775  30.986   9.343   3.277
30568W        W94776  10.184  17.782   1.784
30569W        W94777   6.357  18.253   3.168
30570W        W94778   2.472   1.942  14.786
30571W        W94779   6.383  30.494   3.209
30572W        W94780  41.308  10.751   0.355
30573W        W94781  26.468  35.970   0.480
30574W        W94782  21.054  14.597  10.441
30575W        W94783  43.330  18.680  11.565
30576W        W94784  27.487  37.571   0.364
30577W        W94785  33.085   0.767  12.538
30578W        W94786  42.335  42.490   1.813
30579W        W94787  44.303  36.038   0.793
30580W        W94788  22.046  17.119   3.806
30581W        W94789   5.267  37.011   0.832
30582W        W94790  20.128  23.568  11.564
30583W        W94791   2.400  21.597   2.360
30584W        W94792  30.030  16.675   1.738
30585W        W94793   1.425  32.555   0.321
30586W        W94794  18.756  11.695  13.832
30587W        W94795  34.516  16.594  12.008
30588W        W94796  34.932  29.126  13.896
30589W        W94797  43.439  10.828  12.564
30590W        W94798  41.404  13.296   4.648
30591W        W94799  39.515  12.711   2.690
30592W        W94800   8.303  25.146   4.322
30593W        W94801  17.119  44.876  11.511
30594W        W94802  41.358  20.646  10.454
30595W        W94803   9.348  31.139   2.699
30596W        W94804  39.549  12.237  13.055
30597W        W94805   5.399  39.463  14.970
30598W        W94806  34.064  36.496  11.954
30599W        W94807  41.333   2.288  10.470
30600W        W94808  37.478  33.506  10.414
30601W        W94809  23.725  24.670  12.848
30602W        W94810   7.224   6.288  11.528
30603W        W94811  11.252  44.369   0.468
30604W        W94812   8.721  34.039  11.387
30605W        W94813  35.006  13.833   2.874
30606W        W94814  43.289   5.750  11.949
30607W        W94815  43.773  27.116   3.231
30608W        W94816  14.302  38.073  12.476
30609W        W94817  44.414  39.989  14.392
30610W        W94818  28.089  33.009  12.465
30611W        W94819  12.794  42.828  11.079
30612W        W94820  28.045   3.294  10.071
30613W        W94821  30.503  14.193  11.099
30614W        W94822  38.409   4.874  10.594
30615W        W94823  44.285  20.143  14.447
30616W        W94824   0.422  35.096   1.790
30617W        W94825  16.742  30.031   2.196
30618W        W94826  14.119  30.111  12.897
30619W        W94827   1.806  23.042   1.295
30620W        W94828   4.269  19.044   2.760
30621W        W94829  38.840   9.699   0.334
30622W        W94830  36.981   2.773   9.438
30623W        W94831  33.069  38.489   3.344
30624W        W94832   4.351  31.098   4.124
30625W        W94833  18.266   7.377  12.416
30626W        W94834  25.518  39.391   1.213
30627W        W94835  15.229   1.348   1.770
30628W        W94836  17.304  38.049   2.392
30629W        W94837  18.173   2.885  10.946
30630W        W94838  41.434   3.886  10.086
30631W        W94839  40.531  19.626  11.886
30632W        W94840  43.897  34.480   2.823
30633W        W94841  44.372   1.417  14.915
30634W        W94842  37.843  20.754  12.838
30635W        W94843  28.486  40.881   4.833
30636W        W94844  35.871  42.420   0.387
30637W        W94845  20.698  14.597   3.181
30638W        W94846  35.053  26.621   2.862
30639W        W94847  19.269  10.667   0.255
30640W        W94848  17.637  14.615   0.764
30641W        W94849   4.378  44.461  14.910
30642W        W94850  14.196  36.566  14.500
30643W        W94851  23.211  35.508   3.776
30644W        W94852  35.087   2.962  12.003
30645W        W94853  36.979  22.118  11.066
30646W        W94854  37.348  29.990  14.935
30647W        W94855  10.870  12.302   2.379
30648W        W94856  15.115  20.586  13.397
30649W        W94857  35.443   7.351   2.797
30650W        W94858  18.563  34.393   5.254
30651W        W94859  44.305  19.283   0.726
30652W        W94860  44.963  37.547   4.614
30653W        W94861  26.680  13.621  14.761
30654W        W94862   1.740  14.245   1.228
30655W        W94863  14.150  29.018   0.352
30656W        W94864  31.451  19.041   4.240
30657W        W94865  25.976   2.372   2.750
30658W        W94866   6.224   2.814   1.368
30659W        W94867  39.815  22.230  11.512
30660W        W94868   0.444   2.933  14.933
30661W        W94869  29.533  34.111   1.779
30662W        W94870   6.405   5.309   0.346
30663W        W94871  13.228  37.485   1.819
30664W        W94872   8.286   4.394   4.124
30665W        W94873  32.926   2.811  11.478
30666W        W94874  33.129  19.210  13.508
30667W        W94875  37.402  25.079   3.680
30668W        W94876  28.488  13.641  10.581
30669W        W94877  39.043  19.103  10.476
30670W        W94878  43.486  34.454   9.615
30671W        W94879  42.876  21.194  10.942
30672W        W94880   3.803  15.107  12.945
30673W        W94881  14.673  11.179  13.347
30674W        W94882  34.057  35.033   0.951
30675W        W94883   3.748  16.303   3.857
30676W        W94884  17.590  42.000   3.295
30677W        W94885  41.946  18.636   9.446
30678W        W94886  32.615  28.103   1.762
30679W        W94887  26.596   8.834   4.823
30680W        W94888  20.593  27.118   4.799
30681W        W94889  25.149   0.864  12.839
30682W        W94890  30.497  24.006   3.364
30683W        W94891  33.615  24.125   0.470
30684W        W94892  14.122  26.118   0.331
30685W        W94893  29.083  36.401  10.511
30686W        W94894  11.806  23.722  11.047
30687W        W94895  22.561  18.064   4.682
30688W        W94896  42.895  42.024  14.761
30689W        W94897  43.883   4.891   9.940
30690W        W94898   9.876  41.965   4.695
30691W        W94899  11.192  27.082  14.910
30692W        W94900  19.099  25.528  12.387
30693W        W94901  31.122  25.100  13.994
30694W        W94902  18.558  25.544  13.919
30695W        W94903   2.297  30.994   2.774
30696W        W94904  19.221  16.614  13.404
30697W        W94905  17.654  11.667   3.182
30698W        W94906  14.335  28.991   4.213
30699W        W94907  14.614  30.632   5.258
30700W        W94908  44.259   8.396  12.833
30701W        W94909  21.702  12.345   0.384
30702W        W94910  21.696  44.391  14.866
30703W        W94911   0.873  24.114   5.159
30704W        W94912   0.908   3.341  12.418
30705W        W94913   2.464  27.692   2.808
30706W        W94914  29.426  15.172   0.759
30707W        W94915  14.807  40.038   3.300
30708W        W94916   5.272  44.764   0.929
30709W        W94917  23.019  43.895  11.428
30710W        W94918  34.961  36.480   4.610
30711W        W94919  14.606   4.402   1.821
30712W        W94920  40.389  17.170   4.199
30713W        W94921  22.031  31.914   3.166
30714W        W94922  10.763  14.170  12.896
30715W        W94923   0.492  12.804   1.890
30716W        W94924  38.450  25.026  10.492
30717W        W94925  12.797  37.525  10.586
30718W        W94926  40.806  18.753  13.506
30719W        W94927  10.782  24.095   3.794
30720W        W94928   9.170   9.290  11.580
30721W        W94929  33.942  18.062   0.914
30722W        W94930  29.517   8.857  11.095
30723W        W94931  21.197   0.778   2.311
30724W        W94932   5.287  24.653   3.290
30725W        W94933  36.517   9.291   3.178
30726W        W94934  40.952   3.433   3.837
30727W        W94935   8.190  30.100  13.892
30728W        W94936  31.565  29.116  12.361
30729W        W94937  31.146  35.003  14.850
30730W        W94938  33.965  35.532   3.850
30731W        W94939  15.274   7.757  14.327
30732W        W94940  19.764  28.439  13.989
30733W        W94941   0.950  41.480   4.326
30734W        W94942   5.767  32.437   0.849
30735W        W94943   7.888  37.020   1.813
30736W        W94944  15.213  33.543  14.011
30737W        W94945   6.876  15.728   5.304
30738W        W94946   7.351   1.268  12.823
30739W        W94947  32.115   9.749   1.712
30740W        W94948   0.366  12.683  12.379
30741W        W94949  13.740  43.283   0.369
30742W        W94950  15.629  30.655  11.567
30743W        W94951   0.448   4.772   4.739
30744W        W94952  34.943   1.920   0.775
30745W        W94953  15.150  33.094   4.241
30746W        W94954  12.623  32.999   4.344
30747W        W94955   2.296  21.075  11.378
30748W        W94956  20.549  18.700   1.794
30749W        W94957   5.346  10.297  14.436
30750W        W94958  23.002  22.587   2.715
30751W        W94959  27.039   1.360  14.963
30752W        W94960  39.834  13.692   0.736
30753W        W94961  27.057  20.715   1.245
30754W        W94962   7.176  41.394   2.220
30755W        W94963  39.951  39.499  11.878
30756W        W94964  26.540  30.145  13.036
30757W        W94965   8.336  15.704  14.808
30758W        W94966  17.092  41.819   2.412
30759W        W94967   8.209  27.138  11.987
30760W        W94968  24.590  24.716   0.415
30761W        W94969  33.962   2.720  11.995
30762W        W94970   2.373  41.533  14.835
30763W        W94971  34.906  10.841   4.675
30764W        W94972  33.117  15.150  14.880
30765W        W94973   8.727  11.229   2.746
30766W        W94974  38.441  15.594  14.400
30767W        W94975  10.336  42.402  10.465
30768W        W94976   4.932  13.127  12.528
30769W        W94977   9.868  40.798   3.676
30770W        W94978   2.740   5.791   2.338
30771W        W94979   7.891  14.775   4.195
30772W        W94980  28.180  10.695  12.528
30773W        W94981  15.299  14.101   3.682
30774W        W94982  20.743  39.405   3.752
30775W        W94983   2.904  11.348  12.513
30776W        W94984  33.090  36.364  11.000
30777W        W94985   7.313  36.485  12.514
30778W        W94986  11.800  25.988  11.569
30779W        W94987   6.827  40.920  11.915
30780W        W94988  15.631  39.855  10.639
30781W        W94989  37.939  38.384  11.378
30782W        W94990   7.812  23.073   0.933
30783W        W94991  27.990   9.860  13.488
30784W        W94992  14.319   9.359  14.934
30785W        W94993   0.761   8.741  12.961
30786W        W94994  43.297   6.732   3.310
30787W        W94995  14.820   6.391  12.524
30788W        W94996  25.579  21.689  10.901
30789W        W94997  23.140  20.644  10.959
30790W        W94998   4.933  33.115  11.038
30791W        W94999  29.075  40.338   2.692
30792W        W95000  23.562   3.904  12.466
30793W        W95001  29.424  36.433   3.361
30794W        W95002  21.185  43.010  10.475
30795W        W95003  42.333  15.720  13.890
30796W        W95004   4.737  12.722  12.990
30797W        W95005  15.760  30.978   2.776
30798W        W95006  30.023  44.504  14.509
30799W        W95007   3.458  36.091  13.478
30800W        W95008  30.137  21.600   1.904
30801W        W95009  42.806  40.452  13.905
30802W        W95010  42.892  42.297   3.380
30803W        W95011  33.447  14.210  12.374
30804W        W95012  11.654  16.110   3.823
30805W        W95013  25.140  12.845   3.804
30806W        W95014  40.518  11.295  11.436
30807W        W95015  36.904  23.987  11.582
30808W        W95016  30.099  38.497   1.827
30809W        W95017  34.420  27.113   1.421
30810W        W95018   4.878  30.137  11.044
30811W        W95019  37.440  30.141  13.811
30812W        W95020  24.660   4.711  11.119
30813W        W95021  17.221  30.529   3.361
30814W        W95022   6.404  25.195  12.944
30815W        W95023  24.588   7.311   3.242
30816W        W95024  17.271  21.583  12.991
30817W        W95025  12.801  37.920  10.557
30818W        W95026  10.641  30.442  14.764
30819W        W95027   0.754   7.864  11.445
30820W        W95028  37.079  26.662   0.845
30821W        W95029  30.646  16.741  12.936
30822W        W95030  12.206  32.569  12.538
30823W        W95031  11.819  16.283  14.977
30824W        W95032  23.727  12.836   1.350
30825W        W95033  41.321  26.130  13.413
30826W        W95034  35.053   4.714   4.255
30827W        W95035  15.317  28.675  13.792
30828W        W95036  28.068   5.277  11.382
30829W        W95037  12.789  34.942   4.650
30830W        W95038  16.199  36.074  11.498
30831W        W95039  30.030  29.129  10.525
30832W        W95040  25.542   2.964  14.376
30833W        W95041  25.530  29.060   1.723
30834W        W95042  37.871  23.234  12.871
30835W        W95043   2.431   7.322   2.323
30836W        W95044  17.747  15.127  11.479
30837W        W95045  31.583   6.838   2.270
30838W        W95046  16.648   4.221  14.285
30839W        W95047   8.693  40.819  10.987
30840W        W95048   5.312   6.829  13.520
30841W        W95049   0.928  11.218  14.844
30842W        W95050   6.780  30.581  12.451
30843W        W95051  31.014  10.184  14.946
30844W        W95052  26.067   7.367   0.797
30845W        W95053  15.277  25.620   0.315
30846W        W95054  11.168  28.554   0.410
30847W        W95055  38.063   6.792   1.333
30848W        W95056  35.884  35.923  11.895
30849W        W95057  41.930  25.513   3.866
30850W        W95058  44.372  36.569   1.291
30851W        W95059  26.576  18.248   0.332
30852W        W95060  15.672   3.342  10.644
30853W        W95061  17.267  11.143   4.278
30854W        W95062   2.822  33.449  13.406
30855W        W95063  36.911   4.803   5.163
30856W        W95064  22.125   4.218   3.232
30857W        W95065  34.994  28.455  11.558
30858W        W95066  34.587  24.661  14.028
30859W        W95067  18.689  34.037  14.894
30860W        W95068  19.141  12.164   3.851
30861W        W95069  44.394  32.636  10.990
30862W        W95070  20.052   8.688  12.534
30863W        W95071  40.045  43.332   2.233
30864W        W95072  43.412  17.760   1.408
30865W        W95073  13.290  33.508   0.344
30866W        W95074  40.471   7.338   1.851
30867W        W95075  17.079  18.085   0.925
30868W        W95076  30.933   8.758   2.339
30869W        W95077  26.063  34.491   4.354
30870W        W95078   4.447  23.565   2.768
30871W        W95079   4.708   4.241  12.373
30872W        W95080  23.659  23.496   1.236
30873W        W95081   9.196  29.620  14.925
30874W        W95082   3.430  21.148   2.205
30875W        W95083  11.771   6.417  12.401
30876W        W95084  30.961   7.800   0.334
30877W        W95085  11.130  31.605  10.923
30878W        W95086  16.605  44.006   1.353
30879W        W95087  38.023   1.865   4.181
30880W        W95088   0.868  24.157  11.443
30881W        W95089  43.943  11.187   2.366
30882W        W95090  18.785  28.484  12.396
30883W        W95091  15.314   6.836  10.454
30884W        W95092  28.112   0.775   5.278
30885W        W95093  33.580   3.422   2.228
30886W        W95094   0.975  24.697  12.082
30887W        W95095  42.351  42.391  11.521
30888W        W95096  32.448  32.086  10.502
30889W        W95097  39.435  12.232   3.854
30890W        W95098   8.242  22.607   0.367
30891W        W95099  22.717   0.758  11.934
30892W        W95100  37.436   6.811   3.854
30893W        W95101   5.438   5.805  11.896
30894W        W95102   7.269  34.016  12.859
30895W        W95103  16.288  30.577   1.268
30896W        W95104  17.608  29.558  13.412
30897W        W95105  43.381   5.272   3.795
30898W        W95106  41.348  29.549  14.337
30899W        W95107   3.914   8.359  11.521
30900W        W95108  24.669  17.734  12.430
30901W        W95109  25.128   7.261   4.339
30902W        W95110   4.426   7.216  11.537
30903W        W95111   9.832  38.544  13.006
30904W        W95112  25.469  32.543   0.812
30905W        W95113   0.472  44.314   0.372
30906W        W95114  20.753  14.208  11.097
30907W        W95115  19.266  15.309  13.463
30908W        W95116  41.475  13.789   3.665
30909W        W95117  12.752  17.748  14.378
30910W        W95118   6.903  18.233   0.332
30911W        W95119  32.506  36.036   3.247
30912W        W95120  37.844  24.013  14.026
30913W        W95121  28.121  17.626  13.457
30914W        W95122  21.671  21.588   3.369
30915W        W95123  21.669  30.578  10.975
30916W        W95124  17.183  11.777   2.859
30917W        W95125  43.429  25.211  14.914
30918W        W95126  34.495   0.979  10.987
30919W        W95127  29.599  40.512   1.737
30920W        W95128  18.561   1.437  10.459
30921W        W95129   3.746  32.405  14.803
30922W        W95130  33.505  29.173   0.912
30923W        W95131  40.502   8.738  12.096
30924W        W95132   7.173  39.902   1.216
30925W        W95133  15.679  41.359   3.301
30926W        W95134  19.178  43.947   2.359
30927W        W95135  39.835   4.813   9.442
30928W        W95136  27.180  25.567  14.387
30929W        W95137  37.047  20.030  14.980
30930W        W95138  10.262  40.438   0.419
30931W        W95139   2.758  22.077   4.746
30932W        W95140  30.095   6.425  12.949
30933W        W95141  29.427  23.131  11.973
30934W        W95142   3.802   0.398   2.898
30935W        W95143  24.015  28.044   4.236
30936W        W95144   4.289  20.048   1.859
30937W        W95145   9.650  12.745  12.347
30938W        W95146  34.504  20.680   4.326
30939W        W95147   9.782  21.687  14.832
30940W        W95148  34.889  39.501  14.507
30941W        W95149  13.285   1.875   3.765
30942W        W95150  16.674  39.449  12.482
30943W        W95151  34.085  37.351   0.396
30944W        W95152  31.968  23.510   3.206
30945W        W95153  32.011  41.514  11.925
30946W        W95154   8.681  15.641  12.992
30947W        W95155  11.778  29.652  12.877
30948W        W95156  43.289  23.025  11.498
30949W        W95157  22.053  21.103  13.404
30950W        W95158  17.290  20.041  12.833
30951W        W95159   0.304  28.611   2.214
30952W        W95160  42.974  32.970   2.760
30953W        W95161   7.289  34.615   4.221
30954W        W95162   3.760  34.602   2.378
30955W        W95163  38.381  11.680   4.242
30956W        W95164   7.225  44.946  12.976
30957W        W95165  14.601  21.157  11.858
30958W        W95166  28.502  12.723   2.287
30959W        W95167  36.059  12.736   4.803
30960W        W95168   2.803   7.351  12.938
30961W        W95169  13.628  39.470  11.439
30962W        W95170  29.492   7.882   1.918
30963W        W95171  42.926  20.713   3.298
30964W        W95172   2.429   0.393  12.826
30965W        W95173   1.469  18.697  12.021
30966W        W95174  15.316  31.981  11.107
30967W        W95175  41.955   5.249  11.378
30968W        W95176   3.363  24.172  12.866
30969W        W95177  31.640  13.210   0.960
30970W        W95178  24.980   2.315   2.799
30971W        W95179  36.430  28.528  14.771
30972W        W95180  12.684  39.041  11.444
30973W        W95181  36.587  14.807   3.722
30974W        W95182  29.638   2.237  14.342
30975W        W95183  12.361  25.564  12.354
30976W        W95184  20.109  23.066  13.543
30977W        W95185  24.202  44.979   2.387
30978W        W95186   3.880  21.022  11.512
30979W        W95187  41.438   9.200   3.658
30980W        W95188  24.625  22.589  11.967
30981W        W95189   0.296  30.628  12.554
30982W        W95190  23.592  19.207  11.548
30983W        W95191  35.431  30.606  11.004
30984W        W95192  24.134  38.444  11.053
30985W        W95193  39.370  16.593  12.937
30986W        W95194  25.509  19.126  10.438
30987W        W95195   1.967  22.727  14.488
30988W        W95196  16.800  19.668  14.355
30989W        W95197  37.350  24.084   2.852
30990W        W95198  16.811   9.335  11.580
30991W        W95199   5.916   1.901  12.439
30992W        W95200  26.953  17.220  11.431
30993W        W95201  15.186  34.491  13.891
30994W        W95202  21.585  20.717  10.987
30995W        W95203   0.930  38.345   3.272
30996W        W95204  30.127  13.743   0.461
30997W        W95205  19.688  12.129  11.568
30998W        W95206  22.554  43.309   3.745
30999W        W95207  27.990  23.150  14.988
31000W        W95208  22.734  15.580   4.598
31001W        W95209   0.411  20.591   3.778
31002W        W95210  24.526  24.656   4.648
31003W        W95211  41.008   9.207  11.949
31004W        W95212  27.542  38.347   4.301
31005W        W95213   2.470  17.261   3.345
31006W        W95214  44.892  29.951  11.392
31007W        W95215  17.269  11.797  11.566
31008W        W95216   8.730  28.621  14.375
31009W        W95217  42.814  20.059   4.152
31010W        W95218  24.695  37.019  11.483
31011W        W95219  12.233   2.464   1.927
31012W        W95220  29.438   2.772  12.517
31013W        W95221  42.434   5.735  14.350
31014W        W95222  21.228  34.967  13.450
31015W        W95223  15.263  19.112  10.630
31016W        W95224  19.733   8.388   2.361
31017W        W95225   5.819   1.460   1.397
31018W        W95226   6.737   0.754  10.927
31019W        W95227  37.435  39.364  14.028
31020W        W95228  25.999  43.436  14.281
31021W        W95229  26.996   6.784   1.892
31022W        W95230  37.564   8.775  14.365
31023W        W95231  27.033   9.744   2.860
31024W        W95232  43.962  38.482   4.165
31025W        W95233  23.985   7.868   1.799
31026W        W95234  23.082  25.074  11.100
31027W        W95235  22.523  40.380  11.596
31028W        W95236  17.197  18.715  10.997
31029W        W95237  21.062  18.661   2.856
31030W        W95238  37.451  35.459   0.786
31031W        W95239   9.174  40.935   1.388
31032W        W95240  13.126  39.902  11.460
31033W        W95241  11.192  34.568  11.927
31034W        W95242   5.413  27.562  12.459
31035W        W95243  14.270   5.304   1.747
31036W        W95244  15.089  10.682   1.829
31037W        W95245  42.386   1.373  14.462
31038W        W95246  35.072  17.712   3.805
31039W        W95247   3.335  27.597   4.817
31040W        W95248  12.156  18.198   4.262
31041W        W95249  42.396  16.284   1.778
31042W        W95250   0.817  15.158   0.893
31043W        W95251  15.136   0.783   0.447
31044W        W95252   5.816  17.582  13.326
31045W        W95253  42.983  32.434  11.960
31046W        W95254  38.864  22.722  11.475
31047W        W95255  21.657  41.824   4.125
31048W        W95256  11.182   9.258  12.971
31049W        W95257  41.924  32.518   4.823
31050W        W95258  40.421   0.329   0.287
31051W        W95259  33.517  41.459  10.140
31052W        W95260  26.552   5.807   3.269
31053W        W95261   2.390  38.025   1.864
31054W        W95262  26.605  26.985   2.840
31055W        W95263  40.835   4.834   3.337
31056W        W95264  11.367  13.124   4.338
31057W        W95265  29.026  19.752  10.959
31058W        W95266  27.658  28.063   4.302
31059W        W95267  32.597  36.578   1.880
31060W        W95268   1.399   9.231   3.233
31061W        W95269   5.266   0.899   0.437
31062W        W95270  37.495  11.647   3.717
31063W        W95271  27.454  42.463   3.251
31064W        W95272  23.030  27.120  11.046
31065W        W95273  35.404  20.206   0.245
31066W        W95274   2.304  42.318   0.282
31067W        W95275  32.635   8.655   3.733
31068W        W95276  15.657  28.063   3.284
31069W        W95277  34.495  32.524   3.794
31070W        W95278  27.112   7.683  10.564
31071W        W95279  13.188  21.577   3.713
31072W        W95280   2.375  22.602  14.951
31073W        W95281  22.106  18.256   4.719
31074W        W95282  38.335   3.787   9.949
31075W        W95283   8.860   3.318  14.853
31076W        W95284  31.528  39.052  13.823
31077W        W95285  34.423   8.383  12.492
31078W        W95286   7.732  18.692   3.213
31079W        W95287  19.612   2.798  14.852
31080W        W95288  32.038  32.123   4.664
31081W        W95289   9.665  24.482  13.829
31082W        W95290  13.203  20.625  12.005
31083W        W95291  42.981  26.014  11.399
31084W        W95292  18.686   6.344  14.332
31085W        W95293  17.130   3.276   4.236
31086W        W95294  11.828  12.825   0.917
31087W        W95295  42.883  30.092  14.883
31088W        W95296   9.726  29.554  13.041
31089W        W95297  33.463  24.201   3.856
31090W        W95298  19.674  21.645  10.553
31091W        W95299  15.209   5.769  14.925
31092W        W95300  34.990  37.020   1.920
31093W        W95301  42.952  30.908   2.819
31094W        W95302  31.596   0.478  10.961
31095W        W95303  30.013  42.481  14.852
31096W        W95304  39.330  41.298  11.015
31097W        W95305   4.910  26.579   3.235
31098W        W95306  16.097  23.000   0.444
31099W        W95307   2.817  23.165   2.253
31100W        W95308   5.255  14.098   0.901
31101W        W95309  28.679  44.498   2.351
31102W        W95310  14.234   0.400   1.409
31103W        W95311  37.849  17.266  10.642
31104W        W95312  11.734  38.056  11.010
31105W        W95313  18.728  18.653   1.906
31106W        W95314  26.979  16.230  10.986
31107W        W95315   8.212  23.078  10.984
31108W        W95316  15.116  37.862  11.938
31109W        W95317   4.286  21.559  13.799
31110W        W95318  14.130  27.108  10.905
31111W        W95319  37.970   3.215  10.483
31112W        W95320  27.633   2.940  12.839
31113W        W95321  35.424   4.706  11.011
31114W        W95322  15.151  26.113   2.286
31115W        W95323  11.761  30.416  11.939
31116W        W95324   6.845  32.968   3.734
31117W        W95325   4.846  15.655  14.300
31118W        W95326  42.014  23.146   4.784
31119W        W95327  35.426  22.075   0.843
31120W        W95328  12.789   0.485   4.215
31121W        W95329  22.136   9.295   4.614
31122W        W95330  30.467  35.064   1.934
31123W        W95331   5.849   9.271  13.323
31124W        W95332  42.979  19.171  11.915
31125W        W95333  19.609   7.233   0.318
31126W        W95334  10.801  33.454  14.415
31127W        W95335  40.901  16.085   3.796
31128W        W95336  32.095  11.676  11.414
31129W        W95337  41.807  20.229   3.695
31130W        W95338  43.021  30.468  12.995
31131W        W95339  11.183  14.592   1.737
31132W        W95340   7.772  26.549  13.035
31133W        W95341  16.707  39.038  12.546
31134W        W95342  28.562  13.665  12.438
31135W        W95343   5.876  38.943   4.655
31136W        W95344  29.619  11.760  10.483
31137W        W95345  36.556   5.919   2.269
31138W        W95346  29.490  39.880  13.993
31139W        W95347  15.724  33.875   4.708
31140W        W95348  23.526  10.145   2.326
31141W        W95349  31.013  10.661   0.925
31142W        W95350  37.858  25.510   4.213
31143W        W95351  40.310  19.714   4.740
31144W        W95352  29.098  26.616   4.195
31145W        W95353  21.657   2.260   1.833
31146W        W95354  44.930  40.326   1.303
31147W        W95355  42.484  29.540   2.709
31148W        W95356  10.340  36.462   0.775
31149W        W95357  15.276  42.949  14.777
31150W        W95358   9.698  31.012  12.015
31151W        W95359  37.864  22.584   4.788
31152W        W95360  33.479  28.969   2.764
31153W        W95361  33.454   6.806  11.098
31154W        W95362   3.398  27.470  11.447
31155W        W95363   4.747  17.663   0.288
31156W        W95364   0.835  21.573   1.317
31157W        W95365  19.051  16.690  14.327
31158W        W95366  23.540  23.544  13.340
31159W        W95367  44.894  28.114  10.997
31160W        W95368  26.204  32.529  14.439
31161W        W95369  26.170   0.350  11.570
31162W        W95370  26.972  34.030  11.874
31163W        W95371  42.454  26.190   3.783
31164W        W95372  15.766  25.076   4.187
31165W        W95373  27.940   4.301   2.301
31166W        W95374  27.180  15.101   4.777
31167W        W95375  39.366   8.200  10.613
31168W        W95376  24.599   3.253  14.011
31169W        W95377  27.962  18.090  12.410
31170W        W95378  32.013   5.912  13.429
31171W        W95379  44.486  27.617  14.420
31172W        W95380  29.960  12.713   5.298
31173W        W95381  33.545  43.996   1.774
31174W        W95382   3.393  20.548   4.734
31175W        W95383  36.089  13.720   0.954
31176W        W95384  19.122  36.052  14.806
31177W        W95385  34.561   8.299   4.130
31178W        W95386  13.238   6.362   0.911
31179W        W95387   7.395  42.345  14.021
31180W        W95388  26.961  42.897   1.869
31181W        W95389  22.018  19.541  13.365
31182W        W95390  31.567  38.566  12.859
31183W        W95391  42.413   9.713  11.456
31184W        W95392  37.002  27.157  14.418
31185W        W95393  44.918  29.532   4.190
31186W        W95394   2.461   4.317  10.513
31187W        W95395  30.140   6.394  12.384
31188W        W95396   2.366  19.210  14.446
31189W        W95397  23.013  10.290   3.681
31190W        W95398   1.309  28.070  12.370
31191W        W95399  40.356   6.218  12.366
31192W        W95400  23.570  38.340  14.394
31193W        W95401  14.112  37.578   3.781
31194W        W95402  25.028  17.579  12.874
31195W        W95403   3.841  32.572  13.937
31196W        W95404  42.884   4.816  14.856
31197W        W95405   4.430  41.395   0.736
31198W        W95406  27.173  44.427  11.556
31199W        W95407   3.433  25.513  11.074
31200W        W95408  38.343  38.334  13.941
31201W        W95409   5.406  16.678  10.475
31202W        W95410  42.341  13.643   1.244
31203W        W95411   1.923  22.676   1.364
31204W        W95412   6.860   9.655   3.197
31205W        W95413  22.644  42.449   2.180
31206W        W95414  28.579  42.956  13.547
31207W        W95415   4.895  15.096  12.959
31208W        W95416   0.979  24.223  13.492
31209W        W95417  36.997  33.502   3.205
31210W        W95418  41.872  13.318  13.019
31211W        W95419  34.574  41.908  11.559
31212W        W95420  24.643  14.222   3.312
31213W        W95421  19.678  21.058   2.198
31214W        W95422  32.125  31.150  11.113
31215W        W95423  39.497  16.763   1.260
31216W        W95424  26.695  33.420   4.822
31217W        W95425   3.416  23.104  13.361
31218W        W95426  41.802  44.954  14.767
31219W        W95427   0.814  29.130  11.589
31220W        W95428  11.156  32.628   4.760
31221W        W95429  16.200  23.999   1.794
31222W        W95430  26.638  11.348   5.218
31223W        W95431   7.219  12.693  13.882
31224W        W95432   3.455  42.404   4.123
31225W        W95433  37.441   1.862   5.088
31226W        W95434  27.124  18.706  13.969
31227W        W95435  16.760   9.329   2.686
31228W        W95436  40.921  44.300  13.431
31229W        W95437  14.291  36.348   1.394
31230W        W95438  42.876   0.931   3.381
31231W        W95439  17.800  43.930  14.884
31232W        W95440  18.625  34.991  13.034
31233W        W95441  12.674  36.934  12.073
31234W        W95442  21.176  24.027  11.583
31235W        W95443   1.778   0.315   0.346
31236W        W95444   5.239  21.628   1.781
31237W        W95445  37.982  26.118   4.746
31238W        W95446  16.771  38.503  14.470
31239W        W95447  27.563  17.156   3.191
31240W        W95448   1.239  21.061   3.356
31241W        W95449  40.016  17.301  11.023
31242W        W95450   7.681  41.375   2.811
31243W        W95451  42.440  12.128   1.819
31244W        W95452   5.919  18.202   3.869
31245W        W95453   4.220  24.159  12.890
31246W        W95454  24.014  40.320  11.539
31247W        W95455  36.039   6.428  14.878
31248W        W95456  18.193  40.916  13.042
31249W        W95457  41.300  30.112   0.913
31250W        W95458   3.777  27.668   2.338
31251W        W95459  40.911  28.071   1.408
31252W        W95460  20.213  14.221  13.056
31253W        W95461   0.258  14.208   4.193
31254W        W95462  33.082  37.940   4.265
31255W        W95463   9.738  39.372  11.417
31256W        W95464   4.218   2.347  13.473
31257W        W95465  14.649  34.003   0.941
31258W        W95466  27.556  10.786  12.388
31259W        W95467   7.822   0.804  11.565
31260W        W95468   9.832  40.393   2.318
31261W        W95469  29.442  16.122  10.115
31262W        W95470  30.134  20.245   1.753
31263W        W95471   0.889   7.226   4.130
31264W        W95472  35.445   4.757   0.413
31265W        W95473  15.231  40.497   9.998
31266W        W95474  40.874  44.363  13.991
31267W        W95475  35.479  17.760  11.952
31268W        W95476  17.075   6.756  13.975
31269W        W95477  25.564  22.650   4.683
31270W        W95478  11.256  20.207   3.154
31271W        W95479   9.356  20.130   1.379
31272W        W95480  43.873  21.174   0.394
31273W        W95481   9.387  20.221   1.741
31274W        W95482   9.375  41.808  13.497
31275W        W95483  14.215  14.313   0.776
31276W        W95484   7.845  13.759   2.893
31277W        W95485  35.471  18.764   1.721
31278W        W95486   8.206  25.051  12.889
31279W        W95487  31.105  39.502   2.760
31280W        W95488  14.144  20.691  14.289
31281W        W95489  14.680   4.874  10.143
31282W        W95490  19.140  30.580  12.004
31283W        W95491  41.427  17.158  13.499
31284W        W95492  15.722  44.894  10.992
31285W        W95493  25.641  36.475  10.619
31286W        W95494  18.765  30.615   4.755
31287W        W95495  18.165  25.993  14.492
31288W        W95496  38.008  27.013   1.794
31289W        W95497  38.070  27.985   4.630
31290W        W95498  22.590  24.044   0.401
31291W        W95499  18.786  36.015  11.556
31292W        W95500  17.185  27.517  13.366
31293W        W95501  30.629  10.221  11.007
31294W        W95502   7.745  44.866  13.417
31295W        W95503  19.229  14.311  11.454
31296W        W95504  25.061  28.941  11.120
31297W        W95505  21.018   7.751   3.352
31298W        W95506  44.438  43.430  10.951
31299W        W95507  10.223  10.755   2.240
31300W        W95508   8.681  31.090   3.324
31301W        W95509  27.635   7.678  12.463
31302W        W95510  35.493   7.171   4.236
31303W        W95511  27.617  44.448  11.108
31304W        W95512  42.799  14.718   3.719
31305W        W95513  20.709   3.723  12.068
31306W        W95514   3.774  35.397  14.800
31307W        W95515  22.248  16.208   2.740
31308W        W95516   5.864  34.014   0.852
31309W        W95517  16.580  39.475  14.768
31310W        W95518  13.683  30.075   2.249
31311W        W95519  37.887  36.496   4.152
31312W        W95520  41.338  11.165   3.253
31313W        W95521  41.350   1.307   4.799
31314W        W95522  26.672  18.590   2.787
31315W        W95523  15.211  13.261  11.028
31316W        W95524  30.005  29.051  11.453
31317W        W95525  12.679   6.896  14.869
31318W        W95526  20.189  16.785   1.269
31319W        W95527  39.382   7.210   1.418
31320W        W95528  32.053   0.476   4.785
31321W        W95529  25.474   8.271   2.364
31322W        W95530  22.587  27.111  11.893
31323W        W95531  14.124   9.223   2.186
31324W        W95532   5.849  30.118  14.412
31325W        W95533   4.856  22.227   1.862
31326W        W95534  24.572   5.728   0.301
31327W        W95535   1.879   8.852  11.550
31328W        W95536   4.212  42.856   2.757
31329W        W95537  23.087  36.449  13.376
31330W        W95538  42.800  21.712  14.013
31331W        W95539  12.120  35.093  11.562
31332W        W95540  26.145  10.154  13.049
31333W        W95541  35.076  42.514   1.719
31334W        W95542  40.412  38.538   0.886
31335W        W95543  14.828  19.213   4.752
31336W        W95544  19.589  18.288  14.300
31337W        W95545  32.428  39.343  13.463
31338W        W95546  17.778  18.594   4.632
31339W        W95547   4.907  39.935  10.565
31340W        W95548  19.572  40.450  12.543
31341W        W95549  27.514  26.115  11.083
31342W        W95550  23.570  20.654  14.006
31343W        W95551  22.593  10.705   3.240
31344W        W95552  31.507   7.688  13.868
31345W        W95553  44.878  35.039   0.888
31346W        W95554   7.773  29.964   4.280
31347W        W95555  30.641  32.911   1.285
31348W        W95556  29.033  18.202  14.995
31349W        W95557  27.979  15.805   1.333
31350W        W95558  14.741   1.880  10.614
31351W        W95559  43.834  14.282   1.742
31352W        W95560  28.992  10.317  10.515
31353W        W95561  21.108  27.587   4.308
31354W        W95562  40.409  16.073   5.271
31355W        W95563  10.724  28.641  14.941
31356W        W95564  39.441  21.213   3.638
31357W        W95565  29.951  43.925  12.052
31358W        W95566  35.070   9.829   0.916
31359W        W95567   0.482   3.847   3.787
31360W        W95568  29.955  25.032  11.423
31361W        W95569  32.065   3.454   2.359
31362W        W95570  32.410  12.644  10.553
31363W        W95571   9.171  27.132  13.460
31364W        W95572  30.605  31.599  11.897
31365W        W95573  40.503  24.626   2.889
31366W        W95574   4.210  15.711   3.709
31367W        W95575  14.778  39.324   1.905
31368W        W95576  30.041  13.846   0.863
31369W        W95577  27.620  13.199   0.966
31370W        W95578  14.747  40.540   1.273
31371W        W95579  10.741   3.928  10.634
31372W        W95580  11.674  12.784  13.318
31373W        W95581  15.652  19.133  14.837
31374W        W95582  43.405  30.996  14.340
31375W        W95583  30.914  28.976  11.505
31376W        W95584  31.476   0.891   4.693
31377W        W95585  27.156  12.191   0.819
31378W        W95586  41.040  18.257  11.070
31379W        W95587  39.521  12.304  11.420
31380W        W95588  36.985   8.666  13.806
31381W        W95589  12.192  26.056  13.866
31382W        W95590  34.085   2.375   3.277
31383W        W95591  42.956  35.863   5.304
31384W        W95592  27.076  41.341   2.313
31385W        W95593  22.115  26.002  12.376
31386W        W95594  38.520   2.747  10.893
31387W        W95595   3.790  36.923   3.315
31388W        W95596   8.403  10.790   2.223
31389W        W95597  17.305  19.620  11.973
31390W        W95598  31.502   4.824  12.014
31391W        W95599  26.547   2.912   2.774
31392W        W95600  19.237  17.668  11.609
31393W        W95601  16.754  11.837   2.811
31394W        W95602  21.644  42.382   3.356
31395W        W95603  40.895  19.273  11.472
31396W        W95604   2.280  34.116  11.095
31397W        W95605  23.650  32.559  11.506
31398W        W95606  44.902  42.785   2.712
31399W        W95607  25.200  42.342  14.412
31400W        W95608  12.262  29.495   2.663
31401W        W95609  18.592  30.089   2.366
31402W        W95610  27.040  41.467   1.747
31403W        W95611  26.080  44.814  11.413
31404W        W95612  43.410   1.430  10.405
31405W        W95613  43.822  40.041   1.211
31406W        W95614   5.925  27.005  13.531
31407W        W95615  40.891  24.688   3.823
31408W        W95616  21.524  14.210  10.155
31409W        W95617  18.073  39.900   3.284
31410W        W95618  11.253  26.571   3.199
31411W        W95619  27.086  15.632   3.324
31412W        W95620  22.042   9.294   4.350
31413W        W95621  39.388  14.267   4.287
31414W        W95622  41.885  28.013   4.836
31415W        W95623  15.697  43.347  12.482
31416W        W95624   2.337  22.560  10.939
31417W        W95625  30.133  42.521  13.037
31418W        W95626  20.215  20.031   3.850
31419W        W95627  27.032  36.994   1.750
31420W        W95628  42.366   5.219   0.339
31421W        W95629  10.741  25.696   4.172
31422W        W95630  41.409   4.803  11.454
31423W        W95631  14.203  39.005  14.769
31424W        W95632   8.287   7.178   1.839
31425W        W95633  40.312   2.391   1.224
31426W        W95634  29.624  34.442   1.853
31427W        W95635  12.625   5.797  11.881
31428W        W95636  37.506   2.917  14.357
31429W        W95637  23.019   4.272  14.341
31430W        W95638  21.172  21.757  11.862
31431W        W95639  12.236  20.553  13.015
31432W        W95640  32.522   9.883  12.408
31433W        W95641  38.557  16.246  11.438
31434W        W95642   7.893  34.047   4.811
31435W        W95643  28.503  29.505  11.413
31436W        W95644  31.921  20.262  14.431
31437W        W95645  16.143  12.342   1.749
31438W        W95646   9.780  12.187  11.467
31439W        W95647  35.579   0.416  10.473
31440W        W95648  33.412  35.557   0.954
31441W        W95649  11.258  15.821  13.951
31442W        W95650  26.167  37.495  14.275
31443W        W95651  38.432  22.642   3.769
31444W        W95652  35.537  23.161   0.824
31445W        W95653   0.912  39.044   1.730
31446W        W95654  25.050   2.864   0.276
31447W        W95655  18.600  21.521   0.826
31448W        W95656  32.022  18.677   4.804
31449W        W95657  16.575  28.557   4.193
31450W        W95658  19.204  39.327  10.589
31451W        W95659  32.911  12.618   0.462
31452W        W95660  19.697  25.969  12.405
31453W        W95661  44.352  38.896  12.362
31454W        W95662  38.485  16.225  10.573
31455W        W95663  31.497   8.730  11.416
31456W        W95664  32.957   2.463  12.435
31457W        W95665  25.499  14.276   0.473
31458W        W95666   2.880   2.928   1.913
31459W        W95667  28.663  33.603  11.384
31460W        W95668  35.558  35.517   1.257
31461W        W95669  38.074   7.391   1.408
31462W        W95670  28.966  35.005   1.876
31463W        W95671  30.464  32.539  14.444
31464W        W95672  40.348   8.388  10.997
31465W        W95673  34.924  15.225  10.491
31466W        W95674  44.322   6.686  10.920
31467W        W95675   5.793   9.742  14.780
31468W        W95676   7.351   4.373   1.701
31469W        W95677  32.885   3.310  14.441
31470W        W95678  21.620  42.997  14.406
31471W        W95679  15.631  20.035   0.336
31472W        W95680  29.464   0.465  10.079
31473W        W95681   6.344  22.603  11.569
31474W        W95682  43.935  29.002  10.494
31475W        W95683  41.796   2.791  13.445
31476W        W95684   5.902  12.303  13.060
31477W        W95685  26.109  16.678  10.955
31478W        W95686  24.040  17.780  14.794
31479W        W95687  20.126  31.088  12.364
31480W        W95688  39.360  39.536  14.404
31481W        W95689  44.454  19.219  10.500
31482W        W95690  39.988   1.332  10.043
31483W        W95691  16.097  28.537  10.909
31484W        W95692  36.517  19.760  14.355
31485W        W95693   2.252  38.885   1.818
31486W        W95694   2.292   6.902  12.994
31487W        W95695   4.450  14.654   4.750
31488W        W95696  42.029  19.717   0.262
31489W        W95697   7.832  39.935  14.513
31490W        W95698  31.454  12.688   1.297
31491W        W95699  43.445  24.136  11.391
31492W        W95700  32.986  41.970  14.483
31493W        W95701  14.616  19.606   0.342
31494W        W95702  36.576  27.484   2.277
31495W        W95703  20.149  17.764  12.381
31496W        W95704  28.595   5.343   0.863
31497W        W95705  33.059  13.325   3.195
31498W        W95706   0.415  40.419   0.913
31499W        W95707  32.409  18.237  12.049
31500W        W95708  26.595  13.195   1.784
31501W        W95709  35.361  26.080   0.386
31502W        W95710  26.470   7.344   1.329
31503W        W95711   0.785   0.817  14.292
31504W        W95712   7.255  14.649  12.077
31505W        W95713  37.060   8.899  13.051
31506W        W95714  31.582  18.152   5.719
31507W        W95715  13.180  38.073   2.230
31508W        W95716   5.391  43.459   3.678
31509W        W95717  36.084  28.019   2.188
31510W        W95718   7.205  26.638   3.752
31511W        W95719  37.438   1.829   2.183
31512W        W95720  24.122  17.764  11.042
31513W        W95721   0.934  24.986   0.766
31514W        W95722  24.156  25.651   3.242
31515W        W95723   0.789  34.090  14.818
31516W        W95724  12.783  18.684  14.867
31517W        W95725  44.955  12.709   2.261
31518W        W95726  38.030  15.197  11.387
31519W        W95727  44.781  22.039   0.960
31520W        W95728  23.025  21.172  14.815
31521W        W95729  33.463  13.326  12.497
31522W        W95730  35.902  39.404   1.807
31523W        W95731  10.722  32.594   3.339
31524W        W95732  37.844   4.317   0.849
31525W        W95733   5.347  41.956  10.457
31526W        W95734  34.920  41.304   3.729
31527W        W95735  27.100  42.982   2.263
31528W        W95736   9.845  32.534  14.970
31529W        W95737  37.834  25.497  14.305
31530W        W95738  41.970   6.229  11.482
31531W        W95739   9.818  32.890   1.751
31532W        W95740   3.840  11.348  14.921
31533W        W95741  27.683  31.909   2.370
31534W        W95742  13.122  26.626  14.031
31535W        W95743  33.457  44.905   2.394
31536W        W95744  35.870  26.171   3.321
31537W        W95745  34.036   0.419   2.782
31538W        W95746   0.923  18.550  10.437
31539W        W95747  40.963  21.562  11.998
31540W        W95748   5.749  44.493  14.406
31541W        W95749  18.736   9.785  11.045
31542W        W95750  42.333   4.214  14.450
31543W        W95751  13.695   8.363   2.858
31544W        W95752  15.218   7.382  11.902
31545W        W95753   1.307  11.190   2.740
31546W        W95754   7.404  15.752  11.052
31547W        W95755  14.220  16.736   0.932
31548W        W95756  27.975  30.527   3.632
31549W        W95757  38.003  39.323  13.842
31550W        W95758  40.365  14.773   1.378
31551W        W95759  44.288  38.455  14.905
31552W        W95760  14.751  18.616  14.760
31553W        W95761   7.266  14.693   0.881
31554W        W95762  29.131  24.488  14.789
31555W        W95763   0.954  16.116   0.406
31556W        W95764  42.790  13.273   2.677
31557W        W95765  38.499  22.237  11.063
31558W        W95766   0.442  13.819   4.817
31559W        W95767  29.431   1.394  12.432
31560W        W95768  32.617   6.688   2.390
31561W        W95769  21.556   9.307  13.517
31562W        W95770  11.827   0.948   3.648
31563W        W95771  34.922  26.514   1.899
31564W        W95772  41.490  17.121  12.987
31565W        W95773  16.707  43.404  14.959
31566W        W95774  28.163  26.081  12.356
31567W        W95775  42.003  29.090   3.717
31568W        W95776  38.360  15.729  14.931
31569W        W95777  30.095  29.424   4.821
31570W        W95778  16.233  35.435  10.993
31571W        W95779   1.898  29.120  10.101
31572W        W95780  37.069  44.846   0.794
31573W        W95781  17.602  27.161   3.154
31574W        W95782  30.996   4.774   5.160
31575W        W95783   8.796   0.953  11.450
31576W        W95784   6.401  41.875  12.825
31577W        W95785  18.709  24.002   3.313
31578W        W95786  43.417  10.321  11.473
31579W        W95787  27.951  33.923  14.476
31580W        W95788   1.831  38.407   0.921
31581W        W95789  20.637  35.024  11.094
31582W        W95790  39.483  28.090  12.391
31583W        W95791   4.793  10.203   4.611
31584W        W95792  22.539  31.951  13.458
31585W        W95793  19.092  41.390   1.367
31586W        W95794  27.091  34.991  13.044
31587W        W95795   0.765  44.441  13.539
31588W        W95796  20.623  15.119   5.177
31589W        W95797   3.724  32.428  12.521
31590W        W95798  11.792   8.200  11.879
31591W        W95799  17.666  29.048   4.757
31592W        W95800  19.235  14.213  10.901
31593W        W95801   8.228  21.176  10.950
31594W        W95802  41.011  43.488   4.165
31595W        W95803  22.060  36.543  13.476
31596W        W95804  43.016  38.538   2.222
31597W        W95805  41.393  31.903  14.899
31598W        W95806   6.693  44.294  14.319
31599W        W95807  23.097  18.713  11.439
31600W        W95808   5.312  19.073  12.095
31601W        W95809  37.377  37.422  10.953
31602W        W95810  13.833  43.000  14.797
31603W        W95811   4.271  39.462   1.360
31604W        W95812  10.770  41.980  13.532
31605W        W95813  32.497  21.619   1.896
31606W        W95814   5.906  27.595  14.990
31607W        W95815  29.527  13.287   2.236
31608W        W95816   0.962  25.606  14.397
31609W        W95817  41.477  42.308  13.439
31610W        W95818  14.297  44.972  13.996
31611W        W95819  16.255   2.952  12.518
31612W        W95820   9.666  27.978  14.465
31613W        W95821   8.721  11.268   1.768
31614W        W95822  44.861  25.536   4.686
31615W        W95823  31.915  40.038   3.784
31616W        W95824  20.675  22.642   4.801
31617W        W95825  21.653  41.455   3.694
31618W        W95826  23.158   2.434  11.092
31619W        W95827  44.266   9.205  14.830
31620W        W95828  31.595  40.040  13.897
31621W        W95829  31.015  18.549  11.523
31622W        W95830  12.275  32.443   2.184
31623W        W95831  16.171  14.732   2.696
31624W        W95832  27.683  31.518  14.491
31625W        W95833  27.165  30.422  11.500
31626W        W95834  44.761  28.526   3.849
31627W        W95835  11.155   4.211  13.436
31628W        W95836   2.965   7.398   3.326
31629W        W95837  35.882   7.669  13.487
31630W        W95838  10.168  41.449  12.459
31631W        W95839  19.065   0.821   2.737
31632W        W95840  32.465  33.483  14.975
31633W        W95841   6.374  35.421   3.316
31634W        W95842   0.337  18.197   2.707
31635W        W95843   7.765  39.860  10.489
31636W        W95844  27.547  37.485   1.726
31637W        W95845  25.990   6.715   0.385
31638W        W95846   5.286  38.064  14.830
31639W        W95847  42.989  22.666  12.049
31640W        W95848  31.992  17.750   0.862
31641W        W95849  43.398   9.758   1.806
31642W        W95850  36.977  13.633   4.774
31643W        W95851  38.423  21.054  13.034
31644W        W95852  34.952  20.234  11.937
31645W        W95853  18.590  29.559  10.067
31646W        W95854  15.198  41.006   4.247
31647W        W95855   6.774  34.472   2.754
31648W        W95856  26.192   4.356  12.437
31649W        W95857   6.700  17.712  14.939
31650W        W95858  13.628  16.569  11.023
31651W        W95859  23.596  10.680   1.385
31652W        W95860  19.193  31.448  13.888
31653W        W95861  40.386  26.155   2.237
31654W        W95862  29.446  13.340   0.854
31655W        W95863  35.854  12.345  10.417
31656W        W95864   5.392  37.486   3.322
31657W        W95865  27.669   1.483   1.373
31658W        W95866  24.146  10.186  14.028
31659W        W95867  21.624   8.696  11.451
31660W        W95868  11.826  35.392  14.812
31661W        W95869  43.930  42.490  12.002
31662W        W95870  32.980  10.311  13.825
31663W        W95871  30.558   6.350  14.887
31664W        W95872  23.054  20.635  11.390
31665W        W95873  22.702  13.245  11.930
31666W        W95874   3.382  35.466  12.964
31667W        W95875  16.166  15.729  13.313
31668W        W95876   0.286  37.837   0.782
31669W        W95877  34.550  16.747   1.724
31670W        W95878  28.451  42.866  11.023
31671W        W95879  42.025  11.371   0.374
31672W        W95880  27.506  18.075   3.250
31673W        W95881   2.733  16.721   4.238
31674W        W95882  38.834  15.657   5.084
31675W        W95883  39.845   4.226  12.915
31676W        W95884  15.662  10.736  12.379
31677W        W95885  20.625   8.223  14.501
31678W        W95886  28.616  12.618  12.865
31679W        W95887  18.202   7.391   3.201
31680W        W95888  24.561  11.775  13.920
31681W        W95889  43.273  20.605  10.920
31682W        W95890  11.231  10.789  14.505
31683W        W95891  12.696  37.917  11.557
31684W        W95892  20.582  38.861  10.112
31685W        W95893   7.296  22.545  10.581
31686W        W95894   2.774  11.202  13.343
31687W        W95895  25.573  15.127   3.381
31688W        W95896  15.786  12.610  10.906
31689W        W95897  27.113  24.122   1.728
31690W        W95898  23.558  28.027  12.440
31691W        W95899  16.686  29.142   3.737
31692W        W95900  38.983  15.227  13.508
31693W        W95901  10.641  22.634   9.934
31694W        W95902  40.952  23.070   2.357
31695W        W95903  10.285  19.228  12.515
31696W        W95904   7.873  26.148   3.821
31697W        W95905  31.483  24.589  13.523
31698W        W95906   0.465  19.247  11.934
31699W        W95907  19.247  22.665  13.418
31700W        W95908  11.292  13.144   0.376
31701W        W95909  31.419  39.002  12.579
31702W        W95910   0.893  27.961  10.913
31703W        W95911  36.523  12.810   5.285
31704W        W95912  43.807   4.945  13.020
31705W        W95913  41.522  34.598   3.186
31706W        W95914  23.006  25.067   4.831
31707W        W95915  41.954  35.454  13.052
31708W        W95916  21.750   5.920   0.942
31709W        W95917  10.855  40.435  11.090
31710W        W95918  29.536   9.366   1.254
31711W        W95919  30.518  23.221  11.951
31712W        W95920  16.676   8.398   1.759
31713W        W95921   6.232   5.831  10.897
31714W        W95922  29.020  31.089   0.407
31715W        W95923  13.670  28.169   1.900
31716W        W95924  15.705  39.966   1.274
31717W        W95925   1.446  33.121  10.050
31718W        W95926   1.305  41.365  13.032
31719W        W95927  20.039  24.705  14.770
31720W        W95928  28.554   9.217  12.981
31721W        W95929  14.774  28.584   2.346
31722W        W95930   3.405  11.801  13.412
31723W        W95931  41.311   8.162  10.922
31724W        W95932  33.904  22.690   2.302
31725W        W95933  14.273  24.164   3.698
31726W        W95934  18.604  26.513   1.933
31727W        W95935   0.967  11.743  14.490
31728W        W95936  20.578  40.303  13.474
31729W        W95937  20.565  13.743   2.413
31730W        W95938  29.961  27.665  13.420
31731W        W95939  30.922  32.899   2.786
31732W        W95940   3.739   5.207  11.536
31733W        W95941   1.391  22.547   1.735
31734W        W95942  23.574   5.204   1.808
31735W        W95943  12.295  15.166  13.310
31736W        W95944   7.745  37.059  10.433
31737W        W95945  13.318  27.175   2.216
31738W        W95946  26.588   7.727   4.670
31739W        W95947  43.455  16.264  14.835
31740W        W95948  25.085  35.944  12.563
31741W        W95949  13.234  37.580  14.771
31742W        W95950  22.242  31.027  10.564
31743W        W95951  11.200   4.321  13.041
31744W        W95952  12.273  28.544  14.767
31745W        W95953  12.817  17.290  13.316
31746W        W95954  44.008  41.870  12.520
31747W        W95955  35.933  11.223  13.998
31748W        W95956  23.019   2.293   3.223
31749W        W95957   8.268  30.528  10.620
31750W        W95958  39.559   9.762   0.771
31751W        W95959  28.512  36.859  11.411
31752W        W95960  41.814  37.069   2.349
31753W        W95961  19.638   0.400  11.886
31754W        W95962  23.086  44.909  10.529
31755W        W95963   9.753  22.107  10.530
31756W        W95964  17.568  37.499  12.082
31757W        W95965  16.806  33.045   3.800
31758W        W95966  13.339  43.306   1.402
31759W        W95967  13.246  18.623   5.183
31760W        W95968   9.290   1.243  13.469
31761W        W95969   9.842  34.492  12.405
31762W        W95970  10.294  34.382  10.508
31763W        W95971  26.700   3.252  14.489
31764W        W95972   5.696  41.000  13.358
31765W        W95973  34.442   8.191  13.443
31766W        W95974  34.482   8.737  10.641
31767W        W95975  31.584  11.363  11.562
31768W        W95976   6.770   0.300  11.991
31769W        W95977   5.778  29.516   2.745
31770W        W95978  44.968  30.145  12.367
31771W        W95979   0.775  42.483  10.931
31772W        W95980  29.537  38.894  12.491
31773W        W95981  29.024  41.376   2.355
31774W        W95982  43.448  41.363  12.079
31775W        W95983  13.722  25.598   0.443
31776W        W95984  41.508  14.272   3.373
31777W        W95985   5.834   1.923   1.753
31778W        W95986   9.755  22.545   4.651
31779W        W95987  41.827  16.184   2.386
31780W        W95988  41.523  16.774   0.260
31781W        W95989  32.984  24.989  12.364
31782W        W95990  34.916  12.240  14.860
31783W        W95991   2.276  21.612   0.378
31784W        W95992  44.378  16.185   1.346
31785W        W95993  26.476  21.580  12.377
31786W        W95994  18.639   5.841  11.102
31787W        W95995  12.330  20.240   3.682
31788W        W95996  13.299  33.083   1.778
31789W        W95997  28.016   4.788   0.908
31790W        W95998   1.479   7.173   2.814
31791W        W95999  18.688  44.384   5.256
31792W        W96000  43.446  29.984  12.501
31793W        W96001  40.955   3.788   0.859
31794W        W96002  36.052   8.741   4.801
31795W        W96003  40.825  26.603  10.608
31796W        W96004   4.341  14.799   2.833
31797W        W96005  33.553  15.661   3.654
31798W        W96006   9.791   9.803   4.287
31799W        W96007  36.584  36.893  14.989
31800W        W96008  44.356  44.326   2.708
31801W        W96009  14.627  41.901  11.424
31802W        W96010  36.573  42.505   2.251
31803W        W96011  43.309  36.487  14.320
31804W        W96012  40.848  18.247  14.376
31805W        W96013   2.258  23.613  11.115
31806W        W96014   3.443  43.951   4.206
31807W        W96015  27.690  26.471  10.555
31808W        W96016  43.911  21.596   3.645
31809W        W96017  23.179  15.816  10.423
31810W        W96018  37.433  27.033   1.861
31811W        W96019  17.643   6.743   2.739
31812W        W96020  21.650  30.437   3.384
31813W        W96021  30.121  28.101   2.895
31814W        W96022  31.555  13.681   3.163
31815W        W96023  26.471  30.992  11.522
31816W        W96024  25.962   8.290  11.435
31817W        W96025   6.863  11.644  11.449
31818W        W96026  36.890  41.321   4.146
31819W        W96027  28.502  43.515   0.387
31820W        W96028  22.100  41.329  12.363
31821W        W96029  22.041  36.922   3.755
31822W        W96030   4.822  18.091  13.436
31823W        W96031   3.740  25.013   2.344
31824W        W96032  10.717   7.806   1.704
31825W        W96033  23.591  43.806   0.367
31826W        W96034   0.474   3.913  10.020
31827W        W96035  29.158  25.477  13.416
31828W        W96036  16.084  39.056   0.452
31829W        W96037   9.192  36.910   4.736
31830W        W96038  41.415  23.045   4.652
31831W        W96039  21.226  14.234   2.350
31832W        W96040   2.839   8.313   2.370
31833W        W96041  44.924  29.667   9.610
31834W        W96042  40.888  32.605  10.455
31835W        W96043   5.703  27.648  11.900
31836W        W96044   0.353   0.277   1.342
31837W        W96045  12.759  23.088  14.804
31838W        W96046  22.093   7.307   0.371
31839W        W96047  24.548  14.672   4.786
31840W        W96048  40.485   0.895   4.114
31841W        W96049  35.917  14.165  14.283
31842W        W96050  42.479  25.051   3.173
31843W        W96051  43.925   5.228  13.518
31844W        W96052   4.448  17.254   3.347
31845W        W96053  42.348  11.347  13.920
31846W        W96054  11.341  19.040  11.901
31847W        W96055  17.660  22.113  12.373
31848W        W96056  27.488  10.702   4.700
31849W        W96057   9.175  29.573   1.699
31850W        W96058  43.942  38.935   1.319
31851W        W96059  35.398  27.496  11.094
31852W        W96060  39.348   5.266   3.273
31853W        W96061  39.932   5.434   3.845
31854W        W96062  16.778  28.947  12.369
31855W        W96063  36.572   6.288   0.350
31856W        W96064  15.139   9.291   3.757
31857W        W96065  29.446   3.798  12.366
31858W        W96066   8.186  37.414  13.826
31859W        W96067  13.185  12.234  14.406
31860W        W96068   5.770   8.358   1.854
31861W        W96069  42.843  36.411  14.282
31862W        W96070  31.608  10.775   1.743
31863W        W96071  26.146  35.458   3.788
31864W        W96072  14.835  35.530  13.872
31865W        W96073  22.035  18.081  10.147
31866W        W96074  36.922   8.275   2.221
31867W        W96075  26.103  33.995  12.997
31868W        W96076  17.785  33.085   4.223
31869W        W96077   5.733  21.060   2.834
31870W        W96078  12.782  44.391   0.447
31871W        W96079   9.218  44.882   4.830
31872W        W96080  25.712  33.972   3.820
31873W        W96081  27.146  33.941   1.314
31874W        W96082  12.185  33.526   2.218
31875W        W96083   9.752  22.616   2.192
31876W        W96084   6.346  24.588  14.927
31877W        W96085   4.356  41.351   0.357
31878W        W96086  28.063  28.645  14.783
31879W        W96087  27.470  20.119  14.503
31880W        W96088  27.476  27.960   3.769
31881W        W96089  40.540  44.484   5.251
31882W        W96090  16.596  30.612  12.067
31883W        W96091   7.358   7.269   2.275
31884W        W96092   1.395  11.629   4.706
31885W        W96093  41.971   6.742   1.751
31886W        W96094  24.990  35.523  11.464
31887W        W96095   2.776  28.168  13.494
31888W        W96096   5.267  35.027  10.418
31889W        W96097  20.586  27.001  13.428
31890W        W96098  43.364  31.432   3.863
31891W        W96099  12.737   6.301  14.436
31892W        W96100  44.280  15.634   5.281
31893W        W96101  29.620  35.962   5.118
31894W        W96102   8.742  14.601  10.569
31895W        W96103   1.433  26.487   0.742
31896W        W96104   1.300  42.852  11.903
31897W        W96105  28.620  42.328   2.285
31898W        W96106   6.355  23.047  12.968
31899W        W96107  28.541  12.232   2.737
31900W        W96108  20.595  22.058  10.589
31901W        W96109  34.540  16.664  12.491
31902W        W96110   3.742  36.913  10.529
31903W        W96111  42.008  13.115  14.858
31904W        W96112  34.909  30.598   0.902
31905W        W96113  36.399  32.446   2.758
31906W        W96114  42.830  19.738  14.476
31907W        W96115  27.083  25.572   2.774
31908W        W96116  12.782  44.803  11.128
31909W        W96117   8.178  41.321  10.495
31910W        W96118  39.048  23.003   1.716
31911W        W96119  24.537  16.118   1.768
31912W        W96120  20.730   1.965  11.871
31913W        W96121   8.340   3.274  10.459
31914W        W96122  21.112  12.202  12.892
31915W        W96123  17.168   6.196  12.375
31916W        W96124  24.691  25.576  13.398
31917W        W96125  27.087  41.830   0.258
31918W        W96126  28.566  35.059   4.269
31919W        W96127   1.446   9.857   4.198
31920W        W96128  26.633   0.342  12.885
31921W        W96129  26.556  43.359   1.240
31922W        W96130  38.462  42.423   1.440
31923W        W96131   5.755   5.221  12.370
31924W        W96132  18.781  18.584   5.257
31925W        W96133  29.039  18.701   1.437
31926W        W96134  14.716   2.325  14.359
31927W        W96135  44.391   2.825  10.911
31928W        W96136  44.302  26.670   4.226
31929W        W96137  21.742  36.882  13.798
31930W        W96138  24.128  14.794  10.641
31931W        W96139  26.978  17.080  10.564
31932W        W96140   6.388  10.162  11.374
31933W        W96141  34.477  21.231   1.343
31934W        W96142  21.062   6.824   3.218
31935W        W96143   3.776  12.653   0.934
31936W        W96144  24.678  32.893   4.734
31937W        W96145  28.553  21.171   4.668
31938W        W96146   8.826  31.597  12.417
31939W        W96147  17.219   5.439   2.898
31940W        W96148  36.092   9.196  13.331
31941W        W96149   8.683  31.140  13.027
31942W        W96150  14.310  25.028   5.090
31943W        W96151  25.014  17.739  14.957
31944W        W96152  43.912   7.365  12.559
31945W        W96153  34.409  43.805   2.785
31946W        W96154  33.536  24.086   5.289
31947W        W96155   9.268  32.115  12.401
31948W        W96156  11.146  38.029  14.786
31949W        W96157   2.390  38.390   1.296
31950W        W96158  32.619  41.431  14.354
31951W        W96159  39.856  41.011  11.429
31952W        W96160  19.218  41.357   3.720
31953W        W96161  21.048  31.965  11.019
31954W        W96162   6.761  41.424   3.244
31955W        W96163  30.979   5.692  11.069
31956W        W96164  41.036  35.878   2.392
31957W        W96165  23.984  13.660  14.504
31958W        W96166   8.822  19.246  13.922
31959W        W96167   4.367  20.266  13.324
31960W        W96168  31.104   5.260   4.153
31961W        W96169  10.201   1.393   1.809
31962W        W96170  24.487  21.054   4.116
31963W        W96171  28.042  28.593  11.959
31964W        W96172   2.887   1.818   4.231
31965W        W96173  16.243  13.622  14.490
31966W        W96174   0.248  16.128  14.989
31967W        W96175  27.523   8.711  13.043
31968W        W96176  38.478  11.143   2.858
31969W        W96177  18.550  37.859  13.824
31970W        W96178  32.490  21.062   2.682
31971W        W96179  15.587   3.938  14.768
31972W        W96180  10.671   6.386  12.412
31973W        W96181  20.200  26.469   0.374
31974W        W96182  41.478  37.345  13.513
31975W        W96183   2.440  38.874   5.094
31976W        W96184  23.127  26.957  14.276
31977W        W96185  31.135  33.044  12.489
31978W        W96186  34.009  35.592  10.994
31979W        W96187  43.977  23.230  11.445
31980W        W96188  27.575  33.537  11.034
31981W        W96189  42.908  17.650   3.660
31982W        W96190  21.209  20.240   4.287
31983W        W96191  39.846  21.132   4.831
31984W        W96192  20.579   9.694   4.208
31985W        W96193  13.263  21.712   4.664
31986W        W96194  42.312  41.922   0.780
31987W        W96195  21.601  28.164  12.938
31988W        W96196  32.515  39.054  12.832
31989W        W96197  39.476   1.406  13.874
31990W        W96198  12.626  19.686  11.417
31991W        W96199  37.905   4.325   3.354
31992W        W96200  33.064  29.529  11.425
31993W        W96201   7.771   4.889  11.859
31994W        W96202  34.398   7.231   2.716
31995W        W96203  30.564   8.699   3.644
31996W        W96204  44.879  18.225   1.787
31997W        W96205   6.320  35.482   0.792
31998W        W96206   8.333   5.323   4.601
31999W        W96207   1.854  13.772  11.604
32000W        W96208  20.527  10.350   1.372
32001W        W96209  24.070  11.793  10.431
32002W        W96210  28.152   9.809  12.963
32003W        W96211   9.699  41.523  10.566
32004W        W96212  10.835  10.159   1.897
32005W        W96213  22.071   4.226  14.970
32006W        W96214  39.442   1.764  13.802
32007W        W96215  10.831  25.026  13.797
32008W        W96216  39.345  20.569   1.367
32009W        W96217   4.207   5.249  13.800
32010W        W96218   6.714  16.591   0.425
32011W        W96219  20.604  30.495   4.170
32012W        W96220  27.447  21.717   2.227
32013W        W96221   3.399  42.493  11.390
32014W        W96222  41.499  22.580  14.420
32015W        W96223  21.187  27.019   3.805
32016W        W96224  15.289  28.542   0.273
32017W        W96225  17.096  33.063  12.030
32018W        W96226   1.844   6.833   1.846
32019W        W96227  39.317  24.622  11.596
32020W        W96228   3.413  18.227  11.538
32021W        W96229  24.681  39.901   2.816
32022W        W96230  19.747  21.689  13.852
32023W        W96231  41.987  35.904  12.571
32024W        W96232   9.885   1.376  13.858
32025W        W96233  40.454  27.580  10.469
32026W        W96234  35.552  23.149  12.407
32027W        W96235  29.102  22.091   4.610
32028W        W96236  35.575   3.457  10.984
32029W        W96237   4.763  31.029   2.312
32030W        W96238  36.933  40.376  12.399
32031W        W96239  16.599  44.856   2.787
32032W        W96240  43.929  34.992  13.541
32033W        W96241   2.281  27.965   2.369
32034W        W96242   4.248  17.074  14.393
32035W        W96243  44.838  24.059  12.438
32036W        W96244  33.982  14.279  14.442
32037W        W96245  42.866  25.665  13.870
32038W        W96246  12.821  11.839   0.816
32039W        W96247  15.654  27.184  10.523
32040W        W96248  27.008   0.426   4.759
32041W        W96249   9.824  35.570  11.527
32042W        W96250   0.260  21.079  12.887
32043W        W96251  22.011  23.546   4.175
32044W        W96252   9.214  31.896  10.473
32045W        W96253  24.702   7.665   1.411
32046W        W96254   6.859  30.550  11.530
32047W        W96255  33.586  15.271  14.889
32048W        W96256  15.607  18.167  11.026
32049W        W96257   3.445  16.748  11.939
32050W        W96258   6.777  35.414   0.288
32051W        W96259  33.112  26.507  11.546
32052W        W96260   1.846  23.656   2.397
32053W        W96261  12.818  36.403   3.197
32054W        W96262  10.773  42.796  10.426
32055W        W96263  24.064  44.331  10.630
32056W        W96264  16.190  29.448  13.879
32057W        W96265  35.508  28.642  14.478
32058W        W96266  10.171  16.811   0.440
32059W        W96267  30.026  42.909   3.688
32060W        W96268  19.710  29.037   0.802
32061W        W96269   6.747  27.645  14.005
32062W        W96270  43.901  21.604  11.886
32063W        W96271  28.167  43.992   2.882
32064W        W96272  38.824  35.460  12.919
32065W        W96273  21.717  38.829   0.926
32066W        W96274  32.580  20.245  14.816
32067W        W96275  13.685  33.391   2.409
32068W        W96276   8.256  34.550  10.407
32069W        W96277  24.025  12.342   3.723
32070W        W96278  20.703  28.508  13.428
32071W        W96279  32.937  11.355  13.511
32072W        W96280  32.458  38.874  14.431
32073W        W96281  17.128  39.023   2.363
32074W        W96282  15.735   6.192  13.908
32075W        W96283   4.382  29.083   4.672
32076W        W96284   7.397  44.962   4.606
32077W        W96285   3.815  20.737  13.342
32078W        W96286   0.794  20.258  11.392
32079W        W96287  29.922  18.680  14.003
32080W        W96288  28.544  17.607  10.142
32081W        W96289   6.345   1.908  13.347
32082W        W96290  27.544   9.257   1.417
32083W        W96291  35.509  32.428  11.123
32084W        W96292  39.813  14.739   3.730
32085W        W96293  24.534  37.576   0.933
32086W        W96294   6.735  27.657   4.765
32087W        W96295   6.365   3.358  12.536
32088W        W96296  40.860  21.694  10.923
32089W        W96297  36.448   7.758  11.456
32090W        W96298  43.461  20.245  14.789
32091W        W96299  27.940  38.455  14.017
32092W        W96300  10.842   6.286   0.334
32093W        W96301  21.659  25.207  10.540
32094W        W96302  14.803  14.230   1.893
32095W        W96303   0.949  26.667   0.332
32096W        W96304  20.171  19.657  11.576
32097W        W96305  43.767  32.940  10.129
32098W        W96306  37.931   0.433  13.546
32099W        W96307  38.009  37.932   4.186
32100W        W96308  21.542  40.826   4.809
32101W        W96309   1.390  20.745  12.883
32102W        W96310  42.437   9.317   4.217
32103W        W96311  43.475   1.968  13.899
32104W        W96312  31.435  30.419  14.506
32105W        W96313   3.232  39.946  14.795
32106W        W96314  10.197  32.076   3.363
32107W        W96315  32.479  25.181   4.732
32108W        W96316  27.478   0.764  12.838
32109W        W96317   5.733   3.920   0.954
32110W        W96318  32.895  35.993   2.356
32111W        W96319  37.996  22.092  11.965
32112W        W96320   9.772  25.055  12.412
32113W        W96321  23.731  21.078  11.514
32114W        W96322  11.687  10.771   0.417
32115W        W96323  15.630   6.340   0.754
32116W        W96324  20.522  31.533   2.749
32117W        W96325   8.270   0.485   0.414
32118W        W96326  27.981  43.507  13.053
32119W        W96327  31.452  41.509   4.731
32120W        W96328  17.175  41.469   3.833
32121W        W96329  30.513  33.921   0.481
32122W        W96330  26.558  15.599  11.084
32123W        W96331  36.387  43.341   0.309
32124W        W96332  19.183  35.033   3.726
32125W        W96333  43.516  11.301   4.218
32126W        W96334   3.890  42.464  14.827
32127W        W96335   1.356  36.859  12.865
32128W        W96336   3.432  19.598   4.161
32129W        W96337  14.661  18.080   1.822
32130W        W96338  28.044  18.176   2.664
32131W        W96339  11.358  37.885   2.311
32132W        W96340  43.406  10.876  13.430
32133W        W96341  15.176   8.203   3.799
32134W        W96342  13.288  10.676  12.951
32135W        W96343  16.609  14.784   3.752
32136W        W96344   6.427  24.016   4.141
32137W        W96345  33.483  29.616   3.179
32138W        W96346   8.230  42.423  13.976
32139W        W96347   1.844  13.688   4.793
32140W        W96348   9.669  36.862  11.597
32141W        W96349  20.568   7.198  11.020
32142W        W96350  10.152  41.343   1.857
32143W        W96351  16.790  42.791   3.666
32144W        W96352   5.194  29.649  11.490
32145W        W96353  20.082  38.490  10.596
32146W        W96354  15.160  18.616  10.909
32147W        W96355  37.537  43.920   0.356
32148W        W96356  41.400  31.010   3.153
32149W        W96357  26.108  13.350  11.942
32150W        W96358  24.116  40.023  10.981
32151W        W96359  43.336  19.094   9.628
32152W        W96360   0.787  43.767   1.228
32153W        W96361  43.977  16.673  12.837
32154W        W96362  13.601  37.491  12.009
32155W        W96363   5.829  10.648  10.982
32156W        W96364   3.459  35.489   0.952
32157W        W96365  38.980  34.012  14.787
32158W        W96366  17.165  39.522   0.823
32159W        W96367  21.055  24.009  11.996
32160W        W96368  19.261   9.799  14.958
32161W        W96369  38.561  36.971   0.890
32162W        W96370  27.027  40.925  13.998
32163W        W96371   2.261  32.137   9.515
32164W        W96372   8.168   1.942  10.540
32165W        W96373  11.347  19.274  13.912
32166W        W96374  27.953   9.213  12.040
32167W        W96375  13.624  27.630   4.629
32168W        W96376  41.396  24.528  13.350
32169W        W96377  21.518  32.491  14.341
32170W        W96378  12.234  20.618  11.026
32171W        W96379   1.783  31.412   3.290
32172W        W96380  14.167  36.052   1.430
32173W        W96381  14.754  28.022   2.875
32174W        W96382  44.799  33.948   1.250
32175W        W96383  33.005   0.982   1.434
32176W        W96384  20.097   4.286   4.766
32177W        W96385  20.139  31.466  14.430
32178W        W96386   7.724  25.564   4.695
32179W        W96387  30.578  38.476   4.830
32180W        W96388  21.540  27.942  10.097
32181W        W96389   9.790  31.045   0.742
32182W        W96390   4.819  19.095  13.518
32183W        W96391  16.690  23.171  11.906
32184W        W96392  22.620  35.572   2.352
32185W        W96393  15.260   8.725  13.506
32186W        W96394   8.871  37.942   4.123
32187W        W96395   3.743   9.695  11.088
32188W        W96396  33.073   2.819   1.792
32189W        W96397   0.278  32.120   4.256
32190W        W96398  32.095  40.492  13.791
32191W        W96399  12.288  44.926  12.443
32192W        W96400  29.985   7.854  10.633
32193W        W96401  26.597   6.345   4.602
32194W        W96402   5.424  10.181   2.758
32195W        W96403  19.106  20.581  10.612
32196W        W96404  30.928  20.750   2.702
32197W        W96405  21.691  12.126  13.411
32198W        W96406  41.894  38.860   1.228
32199W        W96407  36.358   9.698   2.186
32200W        W96408  11.652  20.579   3.233
32201W        W96409  15.807  15.579   4.306
32202W        W96410   7.363  33.380  11.914
32203W        W96411  42.794  44.784  13.049
32204W        W96412  29.490  25.508  13.025
32205W        W96413  39.478  35.936   3.267
32206W        W96414  30.095  30.434   4.616
32207W        W96415   3.216  20.044  11.018
32208W        W96416  17.292  19.259  11.970
32209W        W96417   6.850   9.366   3.769
32210W        W96418  21.674  32.447   4.818
32211W        W96419  13.657  29.146   2.780
32212W        W96420  33.895  20.184   0.479
32213W        W96421  38.874  44.879   4.814
32214W        W96422  12.143   5.860  14.799
32215W        W96423  16.277   9.244   0.943
32216W        W96424  41.883   0.920  13.058
32217W        W96425  28.537  14.679   5.151
32218W        W96426  38.336  28.581   4.339
32219W        W96427  41.537  17.663   2.831
32220W        W96428   4.855   5.687   3.732
32221W        W96429   0.253  17.656   1.857
32222W        W96430  26.611   8.691  13.504
32223W        W96431  34.597   7.390   3.794
32224W        W96432  17.299  29.064   4.116
32225W        W96433  39.977  36.429   0.954
32226W        W96434  16.594  33.537  14.962
32227W        W96435  32.395  33.882  13.980
32228W        W96436  44.832  28.557   4.769
32229W        W96437   6.337   5.886   3.378
32230W        W96438  32.904   2.933  10.598
32231W        W96439  36.453  41.480  10.565
32232W        W96440   4.811  15.742  10.475
32233W        W96441  27.033   0.806   1.242
32234W        W96442  43.473  32.025  12.569
32235W        W96443   0.811  20.045   3.276
32236W        W96444   8.814  29.450  14.790
32237W        W96445  14.619   5.209   2.758
32238W        W96446  43.886  37.479  13.918
32239W        W96447   3.834  14.110  12.474
32240W        W96448   7.705  34.570  12.896
32241W        W96449  31.072  20.579   4.737
32242W        W96450   7.757  20.242   4.328
32243W        W96451   6.398   6.874   1.403
32244W        W96452  33.439  26.107   4.148
32245W        W96453  23.621  21.622  13.918
32246W        W96454  25.578  11.797  13.982
32247W        W96455  16.627   3.241  14.030
32248W        W96456  10.794  35.434   1.271
32249W        W96457  34.956  12.834  13.953
32250W        W96458  36.418  43.832  14.478
32251W        W96459  12.758  32.136  13.046
32252W        W96460  34.613  13.672  13.989
32253W        W96461  29.519  20.712  13.943
32254W        W96462   9.163  39.972  13.399
32255W        W96463  10.191   6.697   0.742
32256W        W96464  17.117  16.659  12.861
32257W        W96465  10.729  41.032  14.867
32258W        W96466  27.999  31.425   1.729
32259W        W96467   7.872  37.378  11.929
32260W        W96468  21.592   2.441   1.426
32261W        W96469  38.391  34.559   4.783
32262W        W96470  19.168   4.928  10.978
32263W        W96471  23.720  33.009   4.636
32264W        W96472  33.089  41.456   2.294
32265W        W96473  13.653  41.456  12.006
32266W        W96474  11.343  33.460   0.429
32267W        W96475  41.917  40.011  13.881
32268W        W96476  15.653  30.007  14.422
32269W        W96477   4.296  43.841   1.749
32270W        W96478  11.224  40.969   1.286
32271W        W96479   6.285  14.834  11.026
32272W        W96480  23.677   9.367  12.534
32273W        W96481  14.192  35.865   3.243
32274W        W96482  44.354   1.297   0.433
32275W        W96483  36.053  41.985   0.300
32276W        W96484  12.361  13.262   5.769
32277W        W96485   8.297  34.119   0.315
32278W        W96486  31.498   9.828  11.408
32279W        W96487  10.822   9.186   0.909
32280W        W96488  36.079  26.149  11.434
32281W        W96489  19.161  29.128  11.400
32282W        W96490  14.698  40.881  13.418
32283W        W96491  10.320  36.906   2.847
32284W        W96492   8.661  23.663  13.470
32285W        W96493  22.127  35.106   2.315
32286W        W96494  28.119   4.311  11.930
32287W        W96495   9.281  43.344  13.837
32288W        W96496  18.293  27.052   0.962
32289W        W96497  14.800  21.054   0.464
32290W        W96498  26.587  19.139  11.422
32291W        W96499  26.636  28.056  13.474
32292W        W96500  22.011  35.909   4.719
32293W        W96501  40.001   7.221   0.466
32294W        W96502  44.285  34.993  11.428
32295W        W96503  27.614  27.987  13.837
32296W        W96504  32.497  17.657   4.243
32297W        W96505  15.794  28.184  12.394
32298W        W96506  13.688  23.004   0.868
32299W        W96507  38.380  16.142  14.446
32300W        W96508  22.034   0.882  14.295
32301W        W96509  31.963  12.761  12.854
32302W        W96510  41.827  11.205   3.632
32303W        W96511   7.674  27.624  10.934
32304W        W96512  20.568  38.375  12.013
32305W        W96513  16.283  17.092   4.612
32306W        W96514  29.047  43.510   3.779
32307W        W96515  21.705  29.560  12.974
32308W        W96516   8.838  28.062   4.789
32309W        W96517  43.330   4.844   9.930
32310W        W96518   7.191  44.890   1.419
32311W        W96519   2.788  23.056  10.993
32312W        W96520  41.939   3.791   4.305
32313W        W96521  20.584  36.441  13.420
32314W        W96522  20.541  31.401  12.480
32315W        W96523  38.417  39.327   4.259
32316W        W96524  23.108  11.166   2.271
32317W        W96525  12.644  36.884   3.740
32318W        W96526   1.359  13.727   4.761
32319W        W96527  25.204  24.137  12.082
32320W        W96528  37.559  33.544   1.819
32321W        W96529  26.080  27.974   1.326
32322W        W96530  10.635  43.873  14.999
32323W        W96531  29.088   9.761  10.547
32324W        W96532  23.168  41.369  11.902
32325W        W96533   0.366  42.391  11.608
32326W        W96534  38.409  36.494   1.278
32327W        W96535  40.528   7.209   5.223
32328W        W96536   0.857  30.974  11.047
32329W        W96537  32.463   2.748  14.452
32330W        W96538  31.959  16.214   3.270
32331W        W96539   3.762  18.273  11.019
32332W        W96540  17.065   5.729   2.239
32333W        W96541   1.343  26.080  11.526
32334W        W96542   9.793  21.573   2.898
32335W        W96543   5.886  17.701   3.167
32336W        W96544   6.801  36.496  14.363
32337W        W96545  34.955  14.745  13.805
32338W        W96546   2.928  17.648   4.135
32339W        W96547  36.580  43.863  14.941
32340W        W96548  18.565  40.973  13.372
32341W        W96549  36.400   1.337  11.461
32342W        W96550  20.058  41.333   0.728
32343W        W96551  12.628  44.959  11.505
32344W        W96552  12.140  23.232   3.188
32345W        W96553  37.530  43.503  10.412
32346W        W96554   5.701   1.352   4.628
32347W        W96555  39.401  20.196  10.509
32348W        W96556  13.328  37.027   2.380
32349W        W96557   9.756  32.630   3.192
32350W        W96558   1.959  27.691   1.905
32351W        W96559  26.625  24.500  14.842
32352W        W96560  43.923   7.343   0.300
32353W        W96561  37.056  11.687   1.876
32354W        W96562   6.191  37.067  13.405
32355W        W96563  31.134  14.271  13.517
32356W        W96564  22.158  12.157  14.922
32357W        W96565  44.852  10.240   4.209
32358W        W96566  25.514  25.173  14.495
32359W        W96567  32.394  10.637   4.224
32360W        W96568   4.368  28.545   3.676
32361W        W96569  34.986  22.726  14.458
32362W        W96570  17.650   5.367   1.741
32363W        W96571  25.710  11.220  13.319
32364W        W96572  21.142  39.871  12.953
32365W        W96573  17.801  39.902   0.436
32366W        W96574   2.831  38.043  14.482
32367W        W96575  20.033  20.725  12.862
32368W        W96576  25.183  31.068   0.344
32369W        W96577  22.094  12.788   1.697
32370W        W96578  31.977  35.071   4.734
32371W        W96579   3.370  12.755   3.797
32372W        W96580  19.553  39.483   0.425
32373W        W96581  23.113  19.630   3.171
32374W        W96582   2.281  10.267  10.595
32375W        W96583  43.494  14.730  13.544
32376W        W96584  37.573  33.604  12.881
32377W        W96585   3.933   4.425  10.003
32378W        W96586  37.849   4.807   5.250
32379W        W96587  39.363  36.523   0.849
32380W        W96588  23.026   0.901  11.113
32381W        W96589   9.701   5.363   0.890
32382W        W96590  33.023  24.586  14.973
32383W        W96591  31.532   7.687   1.434
32384W        W96592  22.503  16.607  10.564
32385W        W96593  11.847   3.929   1.273
32386W        W96594  40.390  44.856   1.372
32387W        W96595  29.034  44.486  11.487
32388W        W96596  44.828  28.066  13.450
32389W        W96597  34.484  15.704   4.670
32390W        W96598  40.809   4.350   0.870
32391W        W96599  41.464  12.620  11.405
32392W        W96600   1.825  34.598  12.434
32393W        W96601  39.338   5.200  12.555
32394W        W96602  34.423   3.728   4.608
32395W        W96603  26.516  13.834   2.902
32396W        W96604  16.801  34.607   1.752
32397W        W96605  41.509   7.783  13.422
32398W        W96606  23.016  24.717   2.789
32399W        W96607  35.032  24.213   1.775
32400W        W96608  16.783   5.333  12.441
32401W        W96609  41.876  18.264   2.798
32402W        W96610  38.441  28.545  14.317
32403W        W96611  41.535  28.979  12.450
32404W        W96612   8.349  28.935   3.785
32405W        W96613  41.025   6.843   2.831
32406W        W96614  15.606  19.548   0.839
32407W        W96615  31.410  24.708   4.626
32408W        W96616  40.968   5.691  11.509
32409W        W96617  44.389  13.837   0.268
32410W        W96618  14.120  10.293   0.391
32411W        W96619  19.655  29.479   2.781
32412W        W96620  17.559  25.987  14.454
32413W        W96621  19.684  24.587   4.285
32414W        W96622  35.098   6.257  10.642
32415W        W96623  34.866  38.898  11.454
32416W        W96624  22.015  41.798   1.776
32417W        W96625  44.281  32.995  10.142
32418W        W96626  43.490  25.090   3.825
32419W        W96627  33.601  32.465  13.832
32420W        W96628  24.512  20.136   4.632
32421W        W96629  15.782  32.885   1.309
32422W        W96630  31.121  23.568   0.920
32423W        W96631  16.598  13.145  10.451
32424W        W96632  31.931   7.259   1.800
32425W        W96633   3.862  38.934   1.261
32426W        W96634  14.124   4.847   0.913
32427W        W96635  30.065  28.989  10.915
32428W        W96636  24.666  32.393   0.466
32429W        W96637   3.298  19.578  14.768
32430W        W96638  20.092  44.500  12.468
32431W        W96639   3.807  18.291   1.390
32432W        W96640  28.446  44.901  11.562
32433W        W96641  15.603  14.658   3.720
32434W        W96642  17.139  25.605  11.951
32435W        W96643  37.048  41.313  12.927
32436W        W96644  38.519  42.947  11.957
32437W        W96645  35.388  43.002  10.410
32438W        W96646  30.125  29.149   4.314
32439W        W96647  21.670  21.257  12.345
32440W        W96648  17.586   1.255  12.440
32441W        W96649   0.794  22.016   4.205
32442W        W96650  42.779  38.843  14.289
32443W        W96651  16.215  40.910  10.902
32444W        W96652  22.640  14.785  14.890
32445W        W96653  42.342   1.875   5.101
32446W        W96654  14.234   5.371   3.790
32447W        W96655  30.981  31.957  10.043
32448W        W96656  44.781  14.221  12.480
32449W        W96657  19.132  15.278   3.724
32450W        W96658  36.448  15.295   3.829
32451W        W96659  43.021  33.415  11.518
32452W        W96660  17.603  14.633  12.344
32453W        W96661  21.742  25.493  12.932
32454W        W96662  12.831  33.497   0.781
32455W        W96663  12.213   9.854  10.619
32456W        W96664   7.409  37.504  12.924
32457W        W96665  22.108  29.640  12.057
32458W        W96666  27.114  34.990   2.810
32459W        W96667  32.460  20.124   3.193
32460W        W96668  13.728  28.137  13.536
32461W        W96669  14.763  22.537   3.738
32462W        W96670  11.746   7.327   0.966
32463W        W96671  24.615   4.871  12.481
32464W        W96672  22.551  17.138   0.919
32465W        W96673  16.638   4.235   4.665
32466W        W96674  27.452   9.679   2.749
32467W        W96675  40.798  17.728  14.858
32468W        W96676   6.380  32.063  11.461
32469W        W96677  22.713   6.241   4.614
32470W        W96678  30.028   4.416   3.781
32471W        W96679  18.598   4.266   0.909
32472W        W96680   2.444  36.869  10.592
32473W        W96681  27.599  13.720   0.467
32474W        W96682  35.510  30.595  12.839
32475W        W96683   5.796   6.302   3.803
32476W        W96684   7.714  36.479  11.941
32477W        W96685  33.404  42.447  14.308
32478W        W96686  27.017   4.888  11.585
32479W        W96687  12.773  23.018   2.228
32480W        W96688  36.066  15.185  13.460
32481W        W96689  17.274  11.302  14.901
32482W        W96690  41.792   6.704  13.958
32483W        W96691  27.177   8.848  13.503
32484W        W96692  42.002  44.950   0.800
32485W        W96693  30.596  21.651  12.086
32486W        W96694  32.424   5.890  14.337
32487W        W96695  27.191   8.298  12.971
32488W        W96696   1.420  31.055   0.302
32489W        W96697   6.692   3.720   2.242
32490W        W96698  19.534  42.797  13.951
32491W        W96699   5.732  32.440  13.940
32492W        W96700  23.604  34.927  13.015
32493W        W96701   2.862  21.040  14.907
32494W        W96702   3.338   1.791  11.570
32495W        W96703  40.918  18.734  13.013
32496W        W96704  32.039  34.442   3.346
32497W        W96705  27.599  18.566   3.654
32498W        W96706   5.789  36.526   3.726
32499W        W96707  15.702   0.845   3.216
32500W        W96708  41.468  12.797  13.000
32501W        W96709  13.665  32.107   1.793
32502W        W96710  10.737  13.124   1.753
32503W        W96711  11.372  17.109   3.381
32504W        W96712   0.398  16.574  11.542
32505W        W96713  12.778  22.574   4.774
32506W        W96714   8.199  35.465  10.986
32507W        W96715  32.508  42.835  12.843
32508W        W96716  35.044   2.316  14.031
32509W        W96717  27.525   9.747  12.460
32510W        W96718  23.184   2.388   0.924
32511W        W96719  24.147   4.232  11.498
32512W        W96720  34.484   3.226   2.676
32513W        W96721   1.476  16.777  12.035
32514W        W96722  31.615  34.114   4.713
32515W        W96723   4.906  35.042  11.017
32516W        W96724  13.126  27.195   3.328
32517W        W96725  14.788  25.986  14.975
32518W        W96726  24.993  32.947   4.187
32519W        W96727  44.932  16.792   3.633
32520W        W96728  25.013  28.951  14.872
32521W        W96729   2.879  18.059  13.985
32522W        W96730  21.673  14.766   2.808
32523W        W96731   1.782   1.837   3.199
32524W        W96732  34.867  43.332   3.702
32525W        W96733   2.400  30.937  11.939
32526W        W96734  25.211  19.668  13.860
32527W        W96735  13.258   3.414   4.702
32528W        W96736  33.992  19.716   1.926
32529W        W96737  41.361  44.442   5.195
32530W        W96738  12.660  26.674  12.377
32531W        W96739  16.635  31.582   1.810
32532W        W96740  28.072  44.426  14.453
32533W        W96741  31.095   5.823   1.447
32534W        W96742  22.223  11.238  14.299
32535W        W96743   6.706  18.265   1.846
32536W        W96744   3.339  44.444   0.419
32537W        W96745  43.413  32.469  11.404
32538W        W96746   3.302  30.113   0.341
32539W        W96747   2.933   2.889  12.367
32540W        W96748  23.712  16.091   2.861
32541W        W96749  11.659  27.659   2.366
32542W        W96750  39.456  16.594  10.608
32543W        W96751  39.000  13.731   1.302
32544W        W96752  24.691  10.144   0.910
32545W        W96753  36.920  12.723   2.867
32546W        W96754  39.429  24.608   2.241
32547W        W96755   7.262  34.416  11.399
32548W        W96756  40.012   2.332   2.365
32549W        W96757  37.454  18.566  13.343
32550W        W96758   1.399  30.524   0.363
32551W        W96759  10.812  38.944  13.405
32552W        W96760  15.207  17.128  12.493
32553W        W96761  44.498  33.480   1.226
32554W        W96762   3.745   2.323  13.934
32555W        W96763  26.533  23.015  14.277
32556W        W96764  16.244  10.729   2.774
32557W        W96765  11.725  25.149  13.851
32558W        W96766  35.955  24.068  12.467
32559W        W96767  12.261  27.059  11.390
32560W        W96768  42.282   8.166  12.857
32561W        W96769  19.081  14.204   3.666
32562W        W96770  25.474  28.140  11.866
32563W        W96771  39.851  39.955  10.559
32564W        W96772  23.128  28.447   0.735
32565W        W96773  15.103  22.057  13.453
32566W        W96774  33.537  44.494  10.502
32567W        W96775   4.911   9.709  11.383
32568W        W96776  16.266   4.766  14.357
32569W        W96777  37.478  13.652  13.456
32570W        W96778   0.443  42.968   0.414
32571W        W96779  21.183  43.297  12.453
32572W        W96780  14.699  39.412   1.235
32573W        W96781  41.311  42.507   2.206
32574W        W96782   4.754   4.848   0.432
32575W        W96783  41.040  32.407   0.360
32576W        W96784   1.865  32.935   3.250
32577W        W96785  17.291  39.540   3.296
32578W        W96786  21.239   0.760  11.036
32579W        W96787  36.576  25.501  10.521
32580W        W96788  19.125  33.485  10.918
32581W        W96789   9.825  20.540   1.387
32582W        W96790   2.333  44.464   3.299
32583W        W96791   0.821  20.530   0.825
32584W        W96792  18.558   1.908   2.778
32585W        W96793  42.284   9.834  14.374
32586W        W96794  40.990  43.449  13.376
32587W        W96795  29.088  12.772   1.292
32588W        W96796  37.380  26.566   1.320
32589W        W96797   9.173   8.370  11.880
32590W        W96798  35.861  38.057  14.838
32591W        W96799   9.772  39.046  14.492
32592W        W96800  38.917   4.255   0.415
32593W        W96801  42.810  32.020  10.504
32594W        W96802  32.097  40.410  10.474
32595W        W96803   7.260  39.827  12.823
32596W        W96804   2.383   1.811   1.889
32597W        W96805  23.220  41.037  14.956
32598W        W96806  23.685  37.352   3.376
32599W        W96807  21.692  38.966  14.293
32600W        W96808   1.974  16.136   1.872
32601W        W96809  12.771  25.040   1.229
32602W        W96810   8.370  15.740   0.421
32603W        W96811  42.000   2.268   5.256
32604W        W96812  30.483  35.012  12.005
32605W        W96813  34.544  18.749  14.485
32606W        W96814  27.591  13.206   1.351
32607W        W96815  30.425  33.977   2.819
32608W        W96816  21.585  15.704   2.241
32609W        W96817   6.344  34.000   2.376
32610W        W96818  10.305  18.187   2.353
32611W        W96819  38.539  24.708   3.252
32612W        W96820   3.838  10.332  11.028
32613W        W96821  33.598  11.664  12.430
32614W        W96822  44.420  21.061   0.294
32615W        W96823   3.366  39.820   3.351
32616W        W96824   1.261  44.846  10.971
32617W        W96825  44.847  21.572  11.862
32618W        W96826   7.314  19.717  13.014
32619W        W96827  10.659  40.009   0.794
32620W        W96828   4.913  19.555   5.310
32621W        W96829  38.517   5.338  12.982
32622W        W96830  24.615  24.640   3.233
32623W        W96831   8.768  21.712  13.398
32624W        W96832  24.519   7.189  10.624
32625W        W96833   6.197   2.900  10.943
32626W        W96834   2.318  34.879   1.412
32627W        W96835  14.635  38.413  14.837
32628W        W96836  38.333  43.376   4.205
32629W        W96837  42.339  32.553   1.802
32630W        W96838  38.472   1.483   3.740
32631W        W96839   1.915  33.024  10.519
32632W        W96840  41.933  31.552  12.503
32633W        W96841  10.330  31.585  12.536
32634W        W96842  29.651  23.678  11.551
32635W        W96843   8.373  16.642   4.257
32636W        W96844  24.624  32.031  12.903
32637W        W96845  30.579  28.487   3.665
32638W        W96846  30.972  37.901  11.049
32639W        W96847  38.968  13.158   4.191
32640W        W96848  13.788   8.895   1.934
32641W        W96849  38.936  40.433  14.313
32642W        W96850  32.559  23.593  13.795
32643W        W96851   9.373  28.588   4.129
32644W        W96852  42.792  28.025   1.280
32645W        W96853  11.340  35.854   1.322
32646W        W96854  23.678  32.122  13.460
32647W        W96855  40.515  35.511  14.420
32648W        W96856  17.800  34.484   3.784
32649W        W96857  22.133  15.285  10.585
32650W        W96858  31.545  39.024   1.329
32651W        W96859  34.429  35.060   4.797
32652W        W96860  28.567  15.642  13.504
32653W        W96861   0.343  15.089   3.211
32654W        W96862  41.849   1.887   9.958
32655W        W96863  17.679  42.807  11.018
32656W        W96864   0.452  27.089  14.464
32657W        W96865  12.359  27.519  12.055
32658W        W96866   0.853  26.627   3.812
32659W        W96867   4.445  42.428   0.869
32660W        W96868   1.866   5.290   0.305
32661W        W96869  34.863  34.551  13.961
32662W        W96870  19.227  28.618  12.401
32663W        W96871  21.060  32.401  11.997
32664W        W96872   5.747   1.786   4.623
32665W        W96873  37.968  21.026  10.513
32666W        W96874  15.670  22.199   1.273
32667W        W96875  32.062   1.863  10.453
32668W        W96876  31.064   6.408   0.954
32669W        W96877  40.882  22.673  13.503
32670W        W96878  12.320  13.765   0.768
32671W        W96879  23.666  28.119   1.925
32672W        W96880  13.300   6.255   2.226
32673W        W96881  30.014  42.987   4.195
32674W        W96882  27.026  20.033  14.016
32675W        W96883  38.559  27.073  11.014
32676W        W96884  44.408   3.339  12.080
32677W        W96885  19.090  39.920  13.009
32678W        W96886   3.348  21.032   1.695
32679W        W96887   8.744  20.153  13.821
32680W        W96888  28.617   5.802   2.766
32681W        W96889   5.817  23.546  14.996
32682W        W96890  20.748  17.218  14.869
32683W        W96891  16.765  22.073  14.887
32684W        W96892  21.675   7.778   5.165
32685W        W96893  29.933  24.173  11.918
32686W        W96894  11.801   1.243  11.415
32687W        W96895  44.386  25.670   3.193
32688W        W96896  37.010  18.696   0.966
32689W        W96897  32.592  40.964  10.537
32690W        W96898  42.780  11.129  12.466
32691W        W96899  28.668   4.317   3.351
32692W        W96900  20.579  32.521   4.781
32693W        W96901  20.736  36.096  13.970
32694W        W96902  40.385  39.890   3.863
32695W        W96903   6.224   2.917   3.298
32696W        W96904  43.925  31.565   1.289
32697W        W96905  33.462  18.235   1.442
32698W        W96906   6.807   6.278  12.899
32699W        W96907  38.871  10.830   0.742
32700W        W96908  10.183   1.764  11.384
32701W        W96909  34.377  17.775  14.018
32702W        W96910  18.593   6.294   4.157
32703W        W96911  43.468   1.916  11.859
32704W        W96912  13.604  16.760  11.373
32705W        W96913  27.978  43.340   3.324
32706W        W96914   8.355  12.223   0.800
32707W        W96915  16.589  27.026   2.381
32708W        W96916  18.181   9.321   4.717
32709W        W96917  19.771   9.325   4.215
32710W        W96918   7.792  23.109  11.479
32711W        W96919  27.586  44.374   4.331
32712W        W96920  38.348  33.581   2.812
32713W        W96921   3.822  30.462   1.234
32714W        W96922   9.686  40.339  14.774
32715W        W96923  21.228  38.978   4.663
32716W        W96924   2.363  35.017   3.344
32717W        W96925   6.276   5.908  12.990
32718W        W96926  36.420  36.086   0.338
32719W        W96927   3.461  42.019  12.423
32720W        W96928  21.725  26.614  14.292
32721W        W96929   5.391  10.866   2.341
32722W        W96930  15.658   7.171   1.747
32723W        W96931  32.092  42.378   4.800
32724W        W96932  27.954  42.935   3.818
32725W        W96933  27.052  39.470  10.959
32726W        W96934  40.948  27.039  14.820
32727W        W96935  44.883  31.454   5.593
32728W        W96936  41.842   2.411  11.052
32729W        W96937  22.158   9.736   3.809
32730W        W96938  31.557  43.286  11.098
32731W        W96939  27.146  11.210  11.009
32732W        W96940  10.733  29.100  14.854
32733W        W96941  18.759  33.069  12.967
32734W        W96942  13.338  12.199  12.892
32735W        W96943  40.492  25.185   2.866
32736W        W96944  18.092  13.740  11.570
32737W        W96945  24.128  12.657   4.206
32738W        W96946   5.700  20.571  11.991
32739W        W96947  27.588  16.242  13.367
32740W        W96948  40.346  44.462  12.031
32741W        W96949  33.084   0.446   0.265
32742W        W96950  22.175   8.276  11.990
32743W        W96951  30.924   3.951  10.410
32744W        W96952  24.221  29.057  12.433
32745W        W96953  19.203  38.930  14.439
32746W        W96954  16.095  41.359  10.426
32747W        W96955  35.494  11.144  14.446
32748W        W96956  23.992  37.983  12.043
32749W        W96957   3.261  30.925   1.361
32750W        W96958  20.709  21.093  11.083
32751W        W96959  18.698  16.635   0.473
32752W        W96960  39.044  44.266   0.771
32753W        W96961   2.946  33.426  13.958
32754W        W96962  34.524  31.117  13.357
32755W        W96963  39.355  27.071  14.028
32756W        W96964   6.302  14.742   1.822
32757W        W96965  35.452  41.523  12.371
32758W        W96966  30.452   4.776   0.408
32759W        W96967  40.925  26.521   3.636
32760W        W96968   1.286  43.852  11.091
32761W        W96969  34.017  38.535  14.511
32762W        W96970   1.340  34.119  13.517
32763W        W96971  36.434  38.943   0.437
32764W        W96972  31.530  30.567  11.489
32765W        W96973   0.403  26.476   3.308
32766W        W96974  40.875  41.324  10.445
32767W        W96975   8.720  17.606  12.902
32768W        W96976   7.893  25.042  13.882
32769W        W96977  14.771  13.278   0.837
32770W        W96978  29.148  42.888  13.028
32771W        W96979   8.182  11.291   0.738
32772W        W96980  31.589   6.291  12.569
32773W        W96981   8.279  29.951  14.477
32774W        W96982  31.914  26.581  11.935
32775W        W96983  27.021   4.744   0.935
32776W        W96984  32.618  14.832  10.579
32777W        W96985  43.317  26.154   0.288
32778W        W96986  10.810  25.055   0.785
32779W        W96987   2.345  41.795   1.845
32780W        W96988   2.329  36.004   0.477
32781W        W96989  35.374   1.272   0.778
32782W        W96990  14.792  27.491  13.869
32783W        W96991  28.523  12.168  14.810
32784W        W96992  15.190  25.592   2.356
32785W        W96993  11.824  42.445   1.329
32786W        W96994  40.470  31.447   2.694
32787W        W96995   8.808  13.602  11.083
32788W        W96996  21.593  37.939  13.809
32789W        W96997  43.394  20.704  13.367
32790W        W96998  43.959   7.389  14.403
32791W        W96999  15.625  39.431   0.857
32792W        W97000  36.961  14.288   2.733
32793W        W97001  14.652  18.095   2.187
32794W        W97002  29.013  41.804  11.417
32795W        W97003  38.333  39.540   1.753
32796W        W97004  41.864  23.202   0.837
32797W        W97005   5.369  43.847  12.520
32798W        W97006  14.731   5.364   4.653
32799W        W97007   2.366   1.240  13.337
32800W        W97008   7.308   4.220   3.374
32801W        W97009   1.480  35.004   1.825
32802W        W97010  14.219  28.987  14.964
32803W        W97011   2.736  22.242   3.165
32804W        W97012  32.586  37.428   4.769
32805W        W97013  17.278  10.868  12.360
32806W        W97014  14.619  24.665   0.777
32807W        W97015  15.113  40.521  12.860
32808W        W97016  42.852  31.640   0.379
32809W        W97017  32.519  29.062  12.567
32810W        W97018  10.823  11.221  14.431
32811W        W97019  10.268  25.705  11.416
32812W        W97020  34.115   6.300   3.656
32813W        W97021  36.446   9.369   1.828
32814W        W97022  12.752  21.666  12.864
32815W        W97023  24.652  35.885   1.335
32816W        W97024  20.738  13.254   3.380
32817W        W97025  12.785  19.731   3.154
32818W        W97026  43.773  34.602  10.154
32819W        W97027  23.560  19.732  14.453
32820W        W97028  38.530  20.631  14.825
32821W        W97029  26.040  30.933   0.948
32822W        W97030  22.141  21.225   1.263
32823W        W97031  15.816  24.197  10.994
32824W        W97032  24.020  40.985   1.350
32825W        W97033  17.770  37.086  12.489
32826W        W97034  17.288  27.687   3.719
32827W        W97035  35.483  24.669  10.560
32828W        W97036   2.363  27.615   0.410
32829W        W97037  31.530  31.635   2.743
32830W        W97038   9.800  33.080   0.844
32831W        W97039  15.661  35.085  11.580
32832W        W97040  19.723  41.487  14.324
32833W        W97041  27.009  34.049   3.316
32834W        W97042   3.906  29.945   3.806
32835W        W97043  43.442  22.512  10.555
32836W        W97044   9.759  23.558  12.846
32837W        W97045  17.291  15.232   2.894
32838W        W97046   6.813  15.813   0.899
32839W        W97047  28.124  39.839   1.302
32840W        W97048  19.134   4.856  13.362
32841W        W97049  35.877   3.870   3.307
32842W        W97050  16.766  34.871  14.916
32843W        W97051   7.360   9.346   4.235
32844W        W97052  11.659  43.447  12.854
32845W        W97053   5.234   7.188  10.423
32846W        W97054  10.164  18.592   4.315
32847W        W97055   2.939   1.735  14.031
32848W        W97056   9.196  36.586   2.777
32849W        W97057   8.331  28.063   2.357
32850W        W97058   9.297  23.157   3.781
32851W        W97059   8.877   4.288   1.400
32852W        W97060  37.036  31.484  12.950
32853W        W97061  20.112  40.427   5.252
32854W        W97062  10.809  27.040  12.397
32855W        W97063   3.760  36.036  10.556
32856W        W97064  39.375   6.359   1.703
32857W        W97065   3.921  22.161   2.700
32858W        W97066  26.050  24.050  12.485
32859W        W97067  43.937  40.982  14.882
32860W        W97068  43.942  22.220   4.348
32861W        W97069  15.701  41.029   0.916
32862W        W97070  40.044  38.361   3.706
32863W        W97071  11.641  21.105   3.280
32864W        W97072  10.772  18.591   3.802
32865W        W97073  22.013  27.634   2.263
32866W        W97074  29.623  31.444  12.948
32867W        W97075   9.838  39.028   1.333
32868W        W97076   6.222  10.779   0.735
32869W        W97077  13.748  25.971  14.334
32870W        W97078  42.886  21.063  12.969
32871W        W97079  41.504  44.981   3.260
32872W        W97080  44.808  35.079  11.398
32873W        W97081  32.415  35.543  10.920
32874W        W97082  16.241  18.709  11.489
32875W        W97083   1.376  14.678   2.324
32876W        W97084  22.996  34.944  11.872
32877W        W97085  29.073   3.388  14.855
32878W        W97086  13.697  26.617   4.805
32879W        W97087  25.657   4.897  13.500
32880W        W97088  38.886  31.006   1.326
32881W        W97089  33.528  41.439   2.759
32882W        W97090  44.466  36.904  13.483
32883W        W97091  12.189  39.866  13.057
32884W        W97092  29.017  12.787  13.854
32885W        W97093   4.917  14.708  13.529
32886W        W97094  13.694  21.211  11.031
32887W        W97095  29.502  35.483  14.800
32888W        W97096  24.134   5.203  12.392
32889W        W97097   8.178  24.686  14.850
32890W        W97098  43.313  37.893   1.833
32891W        W97099  14.298  32.136   1.414
32892W        W97100  13.258  30.965   4.688
32893W        W97101   5.230  22.189   0.968
32894W        W97102  34.444  44.803  11.005
32895W        W97103   6.262   9.729  13.413
32896W        W97104  39.035  37.411  10.111
32897W        W97105  19.593  42.941   1.257
32898W        W97106  27.078  25.571   3.317
32899W        W97107   2.259  36.472  14.347
32900W        W97108  11.779   0.364   3.297
32901W        W97109   3.870  41.910  14.869
32902W        W97110  21.748  25.069   1.919
32903W        W97111  32.977  12.191  14.338
32904W        W97112   8.803  25.536   2.279
32905W        W97113  26.185  11.783  14.280
32906W        W97114  24.023  18.080   1.767
32907W        W97115   8.259  35.894   4.792
32908W        W97116   0.876  16.604   2.870
32909W        W97117  11.189  35.964  13.459
32910W        W97118   7.321  28.510   2.762
32911W        W97119  25.677   7.298   1.220
32912W        W97120   5.294   4.412  11.117
32913W        W97121  37.500  39.493   0.860
32914W        W97122  15.221  40.906   3.368
32915W        W97123   0.400  35.473   3.221
32916W        W97124   7.898  35.419  13.392
32917W        W97125   9.242  37.374   3.272
32918W        W97126  20.708  41.512   0.913
32919W        W97127   4.238   7.693  14.781
32920W        W97128  16.166  14.256   2.881
32921W        W97129  38.330  24.618   0.894
32922W        W97130  20.642  21.051  13.452
32923W        W97131  42.411  22.076   3.310
32924W        W97132  31.456  17.674  11.026
32925W        W97133  22.654  12.311  10.922
32926W        W97134  38.532   0.779  10.918
32927W        W97135  28.498  42.885  14.995
32928W        W97136  27.099   7.672  12.849
32929W        W97137  38.029   7.288   3.641
32930W        W97138  29.994  40.356   4.240
32931W        W97139  11.267  37.448  13.388
32932W        W97140   6.771   1.249  11.511
32933W        W97141  17.712  30.586   1.733
32934W        W97142  42.913  41.804   0.479
32935W        W97143  20.149  35.871   4.325
32936W        W97144  31.579  43.769   4.302
32937W        W97145   2.891  39.885  11.115
32938W        W97146  24.669  38.910  10.613
32939W        W97147  38.071  21.682  12.059
32940W        W97148  27.071   4.395   2.742
32941W        W97149  37.993  37.888  13.312
32942W        W97150  24.614  20.134  12.940
32943W        W97151  24.164  24.064   2.361
32944W        W97152  12.736   2.888  11.099
32945W        W97153  38.904  40.963   1.835
32946W        W97154  39.932  37.508   0.902
32947W        W97155  27.145   7.309  14.335
32948W        W97156  26.160  19.255   4.139
32949W        W97157  13.318  36.586   4.273
32950W        W97158  39.877  35.980   2.716
32951W        W97159  11.680  15.153  13.792
32952W        W97160  39.952  40.882   2.854
32953W        W97161   7.753  30.457   1.212
32954W        W97162  43.867  37.423   1.323
32955W        W97163  21.750  12.740   3.773
32956W        W97164  31.017  26.702   1.244
32957W        W97165  14.668  41.814   2.295
32958W        W97166  14.129  30.528  10.922
32959W        W97167  18.159  28.605  12.855
32960W        W97168  40.842  24.207   4.273
32961W        W97169  31.624  24.048  13.041
32962W        W97170  11.751  31.071   3.236
32963W        W97171  42.824   5.250  13.796
32964W        W97172   8.901  25.573  10.482
32965W        W97173  35.540  41.983   2.256
32966W        W97174  24.498  23.514  14.891
32967W        W97175  11.190  29.475  11.939
32968W        W97176  21.628  12.338  11.103
32969W        W97177   0.767  32.423  13.325
32970W        W97178   2.954   6.868  14.797
32971W        W97179  41.036  43.325   3.287
32972W        W97180   7.350  27.097  13.396
32973W        W97181   5.732  31.058   2.312
32974W        W97182   5.228  14.600   4.298
32975W        W97183  13.802  33.625  10.520
32976W        W97184   9.395  15.666  14.765
32977W        W97185   8.857  11.134  13.894
32978W        W97186   8.305  37.472  11.575
32979W        W97187   8.666  35.438  12.863
32980W        W97188  32.501  31.537  13.884
32981W        W97189  39.386  40.467   1.734
32982W        W97190  30.124   3.826   3.339
32983W        W97191  37.577   0.333  10.065
32984W        W97192  16.699  34.996   0.910
32985W        W97193  35.078  12.743  13.518
32986W        W97194   1.917  44.419   2.707
32987W        W97195  26.975  30.916   2.198
32988W        W97196  15.753   6.380   2.680
32989W        W97197   5.368   4.264   0.242
32990W        W97198  21.706  23.029  11.086
32991W        W97199  34.045  27.982  14.794
32992W        W97200  41.412   8.369  12.889
32993W        W97201   4.260  35.896  14.384
32994W        W97202  44.836  35.473  14.442
32995W        W97203  29.026  31.017   4.185
32996W        W97204  19.134  24.203  14.497
32997W        W97205  13.262  27.981  10.492
32998W        W97206  41.881  39.824   3.295
32999W        W97207  38.925  43.777   0.742
33000W        W97208   7.905  40.527  14.352
33001W        W97209  16.154  42.510  10.413
33002W        W97210   9.821   4.307   0.367
33003W        W97211   1.897  30.519   2.680
33004W        W97212  31.107  25.477  14.399
33005W        W97213   6.267  10.806  10.485
33006W        W97214  39.021  29.459  11.037
33007W        W97215  20.234   0.360  10.100
33008W        W97216   2.246   1.434   4.249
33009W        W97217  24.572   8.382   4.659
33010W        W97218   5.912  13.329   2.290
33011W        W97219  30.952  20.085   3.865
33012W        W97220  27.559  15.106  11.890
33013W        W97221  32.554  27.490   3.641
33014W        W97222  35.407   6.838  14.951
33015W        W97223   6.262  13.845  14.816
33016W        W97224  21.673  14.323   2.321
33017W        W97225  22.186  21.551  14.853
33018W        W97226  33.100  14.202   5.218
33019W        W97227  15.797  19.272   4.141
33020W        W97228  40.049  41.924   4.143
33021W        W97229   3.285   1.912   1.906
33022W        W97230  25.006   7.810  14.466
33023W        W97231  33.519  35.360   3.355
33024W        W97232   1.292  13.350   0.961
33025W        W97233  39.436  38.488   1.286
33026W        W97234  23.053  35.535  14.845
33027W        W97235   4.824  30.990  14.816
33028W        W97236   2.965  18.580  12.064
33029W        W97237  35.507  25.555   2.395
33030W        W97238  10.799   6.392   1.285
33031W        W97239  35.973  34.048  12.832
33032W        W97240   0.455   5.918  12.041
33033W        W97241  15.676  39.355  10.473
33034W        W97242  20.215  30.124  12.017
33035W        W97243  36.034  17.155   1.840
33036W        W97244   4.385  41.381  12.010
33037W        W97245   0.773  34.576   2.727
33038W        W97246  41.848   9.321   1.232
33039W        W97247   5.327   9.653  13.453
33040W        W97248   6.396  31.136  11.064
33041W        W97249  10.372   4.236   3.819
33042W        W97250  30.559  35.913   2.763
33043W        W97251  10.847  19.234   4.827
33044W        W97252  25.612  38.984  13.820
33045W        W97253  36.845  25.469  13.877
33046W        W97254  38.332  44.261  12.443
33047W        W97255  22.526  41.803  14.465
33048W        W97256  31.507  44.326   0.957
33049W        W97257  31.496  14.292   3.649
33050W        W97258  13.835  13.350  11.480
33051W        W97259  12.202  30.025   3.711
33052W        W97260   4.378  36.934   1.432
33053W        W97261   9.265  43.315   2.291
33054W        W97262  10.197  10.647  12.963
33055W        W97263  35.560  10.871   0.753
33056W        W97264   1.821  39.352   3.744
33057W        W97265  21.206  36.861  13.912
33058W        W97266  39.485   3.249  11.462
33059W        W97267  13.110  19.544   2.228
33060W        W97268  25.589  11.252   0.906
33061W        W97269  36.579  36.492  13.379
33062W        W97270  17.660  20.061   0.249
33063W        W97271  23.066  18.589  14.986
33064W        W97272  28.012   6.829  14.933
33065W        W97273  29.535  37.441  14.783
33066W        W97274   7.811  35.937  12.824
33067W        W97275  36.569  44.959   2.816
33068W        W97276  20.640   3.309   1.226
33069W        W97277  19.131  14.138  11.991
33070W        W97278  20.760  14.190   1.834
33071W        W97279  27.993  18.120   4.325
33072W        W97280  32.526  32.472  14.452
33073W        W97281  11.771  32.901  11.006
33074W        W97282  31.584  40.856  13.809
33075W        W97283  29.969   7.898   1.357
33076W        W97284  11.250   4.342  14.022
33077W        W97285   4.365  15.774  14.824
33078W        W97286   8.766  42.005  12.405
33079W        W97287  15.718  36.926   3.382
33080W        W97288  44.376  35.593  13.903
33081W        W97289   5.254  28.619  11.862
33082W        W97290  28.501  26.169  10.971
33083W        W97291  30.159  13.668   1.304
33084W        W97292   0.312  25.166   3.255
33085W        W97293  13.185  40.000   1.710
33086W        W97294  20.086   7.686   3.781
33087W        W97295  10.239   5.803  12.490
33088W        W97296  17.648  43.930  14.337
33089W        W97297  13.106  38.549   3.832
33090W        W97298  32.104  15.161  14.320
33091W        W97299  16.072  43.953  13.402
33092W        W97300   7.723  11.701   1.825
33093W        W97301  18.189  31.409   2.410
33094W        W97302  35.431  19.141  13.542
33095W        W97303  32.558  36.445  11.022
33096W        W97304  12.197  35.995   3.161
33097W        W97305   6.402   7.180   3.204
33098W        W97306  36.918  12.220  12.485
33099W        W97307  29.424  10.207   2.818
33100W        W97308  33.519  29.561  11.910
33101W        W97309  29.425  22.721   3.344
33102W        W97310  28.517  26.476   4.224
33103W        W97311   7.865  43.015  12.499
33104W        W97312  39.032   5.359  14.807
33105W        W97313  29.577  41.307   3.217
33106W        W97314  33.039  16.598   1.334
33107W        W97315  16.625  35.943  11.599
33108W        W97316  33.114  29.637   4.636
33109W        W97317   0.841  21.525   0.959
33110W        W97318  14.812  19.240  13.371
33111W        W97319  23.497  36.384  12.418
33112W        W97320  42.385  19.564  10.035
33113W        W97321  11.770  41.430   3.352
33114W        W97322  33.952  13.238  12.998
33115W        W97323  29.954   8.395  11.001
33116W        W97324  27.020  24.621   4.791
33117W        W97325  27.180  23.037   0.341
33118W        W97326  31.604  37.510   0.801
33119W        W97327  29.969  28.656  13.386
33120W        W97328  30.485  39.419   2.756
33121W        W97329  32.921  36.516  13.928
33122W        W97330  42.940  44.439   1.213
33123W        W97331  34.593  44.319  14.344
33124W        W97332  19.061  25.601   4.218
33125W        W97333  13.340  35.424  13.796
33126W        W97334  32.586   6.356  10.520
33127W        W97335  15.691  43.384   0.395
33128W        W97336   0.798  37.041   0.859
33129W        W97337  20.599  23.657   0.740
33130W        W97338  40.864  37.364   0.948
33131W        W97339  12.672   9.176  11.872
33132W        W97340  27.512   3.857  12.070
33133W        W97341  27.060  17.723  11.030
33134W        W97342  13.834  23.648   1.724
33135W        W97343  33.512  17.278   1.881
33136W        W97344  13.171  35.541  12.944
33137W        W97345  24.012  44.798   1.843
33138W        W97346  15.720  12.117  14.922
33139W        W97347  40.443  21.084  13.418
33140W        W97348  22.096   6.849  14.280
33141W        W97349   4.787   6.285  13.907
33142W        W97350  29.462  32.509   1.259
33143W        W97351  14.199  43.328  10.601
33144W        W97352  41.300  13.739  13.330
33145W        W97353  37.004  20.030   2.817
33146W        W97354   2.869   8.389  14.000
33147W        W97355  23.695  26.207  13.862
33148W        W97356   0.259  20.758   0.735
33149W        W97357  21.750  33.454   3.684
33150W        W97358  16.712   2.847  12.013
33151W        W97359  23.120  31.944   2.290
33152W        W97360  29.550  44.818   0.901
33153W        W97361  17.186  17.782  12.555
33154W        W97362  36.435   5.719  14.839
33155W        W97363  40.548  18.734  13.481
33156W        W97364  33.941  13.775   3.151
33157W        W97365  44.912  44.374   0.813
33158W        W97366  18.642  17.702  14.369
33159W        W97367  18.776   1.918  10.630
33160W        W97368   4.423  32.102  13.440
33161W        W97369  24.627  23.524   4.713
33162W        W97370  42.326   1.477   2.755
33163W        W97371  38.074  43.992   3.863
33164W        W97372   2.730  26.653  14.955
33165W        W97373   5.825  14.622   0.799
33166W        W97374   1.830   0.866   3.165
33167W        W97375  12.298  18.750  12.456
33168W        W97376  19.670  26.462   2.358
33169W        W97377  17.754  21.049  10.509
33170W        W97378  17.671  14.129   2.818
33171W        W97379   4.782  22.136  10.905
33172W        W97380  32.036  42.331   0.333
33173W        W97381   0.444  11.651  10.471
33174W        W97382  37.883  37.855  13.844
33175W        W97383  12.645  44.777  11.958
33176W        W97384  18.666  28.585   2.873
33177W        W97385   0.920  15.725   5.146
33178W        W97386  20.229  42.473   2.661
33179W        W97387  16.212  15.273   4.786
33180W        W97388  43.776  15.584   1.697
33181W        W97389  38.978  36.518   2.211
33182W        W97390  35.454  30.162   3.194
33183W        W97391   3.233   8.878   0.891
33184W        W97392  20.255  34.525  10.952
33185W        W97393  32.564  12.265   3.850
33186W        W97394   3.834   7.296   4.163
33187W        W97395  40.508  19.709   5.661
33188W        W97396  40.826  12.189  11.967
33189W        W97397   6.736   7.359   2.390
33190W        W97398  32.038  31.517   1.447
33191W        W97399  27.635  34.505   2.347
33192W        W97400  24.666  34.106  11.438
33193W        W97401  13.667  31.093  13.913
33194W        W97402  26.034   7.740  11.089
33195W        W97403  14.813  42.839   4.613
33196W        W97404  13.223  15.649  12.539
33197W        W97405  38.864   8.396   1.236
33198W        W97406  43.893  29.491  12.560
33199W        W97407   9.683  29.509   1.251
33200W        W97408  22.631  10.836  13.802
33201W        W97409  23.578  24.649  10.537
33202W        W97410   6.874  33.521   4.756
33203W        W97411   8.287  19.045  10.425
33204W        W97412   3.864   7.172   3.708
33205W        W97413  26.988  43.464   3.353
33206W        W97414   8.274   4.902   4.619
33207W        W97415  11.372   2.773  13.825
33208W        W97416  19.652   6.403   0.355
33209W        W97417  20.648  33.008   0.967
33210W        W97418  29.555  36.485   0.270
33211W        W97419   6.316  19.760   3.171
33212W        W97420  35.540  13.697  10.980
33213W        W97421  18.212  37.505  13.866
33214W        W97422  42.922  15.673  14.454
33215W        W97423  25.654  17.107  14.824
33216W        W97424  41.460  34.076  13.052
33217W        W97425  31.463  28.546   4.187
33218W        W97426  15.109   6.802   2.763
33219W        W97427  31.104  27.995  10.091
33220W        W97428  32.964  25.094   3.823
33221W        W97429  23.052  40.873   4.636
33222W        W97430  21.177  26.010   2.388
33223W        W97431  39.508   4.232  10.895
33224W        W97432  40.517   4.784   3.774
33225W        W97433   9.675  29.160   3.344
33226W        W97434  17.297  16.277  12.403
33227W        W97435  19.139  31.089  10.894
33228W        W97436  29.665  42.945   2.372
33229W        W97437  26.068  11.631  10.906
33230W        W97438   5.744   1.889   0.269
33231W        W97439  28.087  40.034  14.434
33232W        W97440   5.807  36.019  11.027
33233W        W97441   6.392  28.176   1.907
33234W        W97442  31.994  39.003   3.660
33235W        W97443  43.839   7.790  10.495
33236W        W97444  18.264  28.141   4.650
33237W        W97445   7.888  23.032  12.475
33238W        W97446  13.600  41.037   1.326
33239W        W97447  35.993  27.651  11.596
33240W        W97448  33.467   1.819   2.330
33241W        W97449  32.065  41.832   5.301
33242W        W97450  34.025  28.622   0.417
33243W        W97451   8.310   8.190  13.508
33244W        W97452  36.871  27.179   4.335
33245W        W97453  26.525  11.725   5.153
33246W        W97454  22.566  13.630  13.377
33247W        W97455  29.575   2.271   0.731
33248W        W97456  36.418  30.432  10.511
33249W        W97457   4.800  37.558  10.433
33250W        W97458  21.146  18.608  13.916
33251W        W97459  10.200  10.796   3.853
33252W        W97460  33.481  17.720  11.444
33253W        W97461  30.585   8.831   0.935
33254W        W97462  23.016  41.003  13.342
33255W        W97463  31.034  26.105   0.327
33256W        W97464  34.402  17.220   1.792
33257W        W97465  18.734  41.432  10.499
33258W        W97466  27.449   9.334   4.754
33259W        W97467   8.306  16.157   0.245
33260W        W97468   4.376   9.739   3.774
33261W        W97469  16.709  17.567  10.592
33262W        W97470  26.555  29.629   2.736
33263W        W97471  16.609  31.563   0.866
33264W        W97472  21.180   2.782  13.516
33265W        W97473  15.823  24.684   0.734
33266W        W97474  21.652  10.366   0.324
33267W        W97475  44.478   1.786   0.884
33268W        W97476  43.008  25.071  14.925
33269W        W97477  24.568  42.889  14.014
33270W        W97478  33.596  23.187  12.824
33271W        W97479  37.360  14.809  13.049
33272W        W97480  13.614   4.327   0.913
33273W        W97481  32.921   7.281  14.312
33274W        W97482  43.362  24.688   2.187
33275W        W97483  22.717  12.627   2.323
33276W        W97484  12.230  17.759  12.095
33277W        W97485  31.462  18.061   1.394
33278W        W97486  12.192  38.464   2.746
33279W        W97487  23.656   0.965   2.694
33280W        W97488  16.208  12.201  10.960
33281W        W97489  44.295  20.033  13.475
33282W        W97490  17.670  33.003  12.823
33283W        W97491   9.326  33.514   2.297
33284W        W97492  26.094  14.738  12.528
33285W        W97493  22.640  25.098  14.378
33286W        W97494  15.206  21.695   2.382
33287W        W97495   4.714  25.122  12.487
33288W        W97496  25.713  25.684   3.336
33289W        W97497  34.021  42.518   3.857
33290W        W97498  20.143   9.778   5.163
33291W        W97499   5.795  27.558   4.209
33292W        W97500   1.447  36.934  13.989
33293W        W97501   5.817  29.921   0.461
33294W        W97502  44.796  38.518  12.553
33295W        W97503  18.691   3.922   0.854
33296W        W97504   3.287   8.228  13.540
33297W        W97505  26.534  31.100   0.920
33298W        W97506  43.502   3.453  12.514
33299W        W97507   5.906  38.521   2.672
33300W        W97508   8.742   4.719   3.642
33301W        W97509   9.691  16.654   2.748
33302W        W97510  28.599  26.109   0.946
33303W        W97511  26.952  22.683   4.195
33304W        W97512  10.676  37.415  10.062
33305W        W97513  41.011  17.572   4.324
33306W        W97514  13.660   8.160  11.464
33307W        W97515  34.059  36.849  11.990
33308W        W97516  41.998  30.480  13.350
33309W        W97517  14.205  23.692   2.357
33310W        W97518  14.168  15.656   1.800
33311W        W97519  23.236  34.603   3.677
33312W        W97520  28.093  39.933  13.533
33313W        W97521  35.437  21.147   0.923
33314W        W97522  44.902  25.141   3.380
33315W        W97523  43.461  34.958  12.498
33316W        W97524  17.068  30.571   3.844
33317W        W97525  38.369  44.758   3.641
33318W        W97526   0.880  33.474   4.316
33319W        W97527  26.169  23.662   3.294
33320W        W97528  32.968  40.457  11.508
33321W        W97529  31.509  41.909  14.348
33322W        W97530  37.025   5.927  13.541
33323W        W97531  37.403  17.118  13.859
33324W        W97532  14.202   6.874  10.441
33325W        W97533  34.529  28.558  14.423
33326W        W97534   7.189   3.380   4.837
33327W        W97535  17.157   0.828  10.976
33328W        W97536  43.866   0.387   0.461
33329W        W97537  35.027  35.993  11.601
33330W        W97538  27.464  18.594  12.491
33331W        W97539   8.873  33.089   2.203
33332W        W97540   4.801  18.668  14.770
33333W        W97541  32.456  18.070   0.467
33334W        W97542  32.578  19.536  13.398
33335W        W97543  36.366  44.765  12.059
33336W        W97544  27.042  28.610  11.562
33337W        W97545  22.182  20.233  14.487
33338W        W97546  32.907  40.438   4.233
33339W        W97547  40.543  20.628   2.838
33340W        W97548  24.131  24.703   0.964
33341W        W97549  28.176  29.981   3.210
33342W        W97550   3.807  43.858  14.825
33343W        W97551  21.255  21.519   2.715
33344W        W97552  26.147   4.806   3.177
33345W        W97553  30.477   6.394   3.658
33346W        W97554   4.311   0.334  13.351
33347W        W97555  12.305  11.812  14.765
33348W        W97556  24.026   6.215  13.797
33349W        W97557  24.575  10.200   4.141
33350W        W97558  12.779  33.932   2.694
33351W        W97559   6.817  34.465  12.410
33352W        W97560   6.298  39.343   1.385
33353W        W97561  29.660   7.327   3.829
33354W        W97562   3.301   0.297  11.860
33355W        W97563  42.417  33.510   4.708
33356W        W97564  30.594  42.302  10.559
33357W        W97565  38.885  26.135  13.882
33358W        W97566   8.783  29.656  12.045
33359W        W97567  39.832  23.507   1.706
33360W        W97568  36.912  28.027  13.851
33361W        W97569  18.624   1.347   0.878
33362W        W97570   5.309   0.954  12.492
33363W        W97571  26.020  31.061  12.890
33364W        W97572  43.771  27.493  11.928
33365W        W97573  28.033  27.047  11.916
33366W        W97574   6.370  37.337  13.058
33367W        W97575   7.197   7.296  11.886
33368W        W97576  14.185  38.521   0.964
33369W        W97577  25.556  39.991   1.761
33370W        W97578  37.930   1.372  13.951
33371W        W97579   1.257   5.874  11.944
33372W        W97580   2.352  24.000  12.476
33373W        W97581  17.221  36.583  14.384
33374W        W97582  10.227  36.037  10.158
33375W        W97583  18.725   5.875   9.627
33376W        W97584   8.405  33.486   3.747
33377W        W97585  17.184  26.531  11.010
33378W        W97586  43.417  21.173   0.891
33379W        W97587  32.396  38.460   4.213
33380W        W97588  17.726  39.033   1.736
33381W        W97589  16.631  18.636   0.761
33382W        W97590  14.693  15.277   2.843
33383W        W97591   1.277  13.111   4.118
33384W        W97592  18.100  31.094   2.346
33385W        W97593  20.719  37.370  12.522
33386W        W97594   7.316  41.970  13.849
33387W        W97595  11.146  20.573  11.976
33388W        W97596  44.436  22.022   0.400
33389W        W97597  37.888  23.222  13.803
33390W        W97598  26.583  42.339   4.780
33391W        W97599  12.236  39.443  14.863
33392W        W97600  35.443   8.344   4.636
33393W        W97601  30.936  42.320   3.302
33394W        W97602  31.584  18.109  10.112
33395W        W97603  40.968   2.230   0.265
33396W        W97604  15.795  11.215   9.949
33397W        W97605   7.902  13.179   5.193
33398W        W97606   1.267  17.139  13.391
33399W        W97607   7.741  41.897   0.736
33400W        W97608  20.731  18.078   0.456
33401W        W97609   0.843  37.874   2.799
33402W        W97610  39.025  28.571   3.233
33403W        W97611  33.979   4.358   3.681
33404W        W97612  35.085   9.214   4.800
33405W        W97613  16.580  10.320  14.424
33406W        W97614  40.828  29.566   3.665
33407W        W97615  41.967  11.832  12.959
33408W        W97616  36.350   6.734   0.903
33409W        W97617   2.815  27.141  11.128
33410W        W97618  10.633  29.586   3.851
33411W        W97619  33.089   5.819   3.305
33412W        W97620   4.864  38.385   1.843
33413W        W97621  33.417  43.777  10.427
33414W        W97622  10.864   0.838  11.858
33415W        W97623  42.473  16.702  12.999
33416W        W97624  20.131   7.184   3.225
33417W        W97625   0.987  42.411   3.735
33418W        W97626  19.170  28.647   4.672
33419W        W97627   7.307  24.702  14.934
33420W        W97628  41.455  11.802   4.789
33421W        W97629  35.529  27.475  11.411
33422W        W97630  29.558  11.697  14.776
33423W        W97631  21.686  41.984   1.396
33424W        W97632   0.874   7.280  14.347
33425W        W97633   0.952  43.340  14.001
33426W        W97634  12.181   5.297  11.870
33427W        W97635  38.999  41.365   1.903
33428W        W97636  30.636  28.604  11.504
33429W        W97637  36.547  17.294  14.866
33430W        W97638  19.601  32.429   0.818
33431W        W97639  39.971   9.818  13.807
33432W        W97640  15.643   5.308   4.138
33433W        W97641  17.232  14.140   3.265
33434W        W97642   1.802  16.612   2.693
33435W        W97643  23.515  15.133  11.954
33436W        W97644   3.297  15.815   4.175
33437W        W97645  15.740  35.886  10.617
33438W        W97646  20.668  37.051  11.446
33439W        W97647  19.216   9.779   3.768
33440W        W97648  37.854  27.070   0.347
33441W        W97649  20.588  24.692  11.998
33442W        W97650  40.946  36.979   3.864
33443W        W97651  35.561   0.277  11.905
33444W        W97652   7.308  14.184   0.301
33445W        W97653  33.623  42.318   0.457
33446W        W97654  24.662  41.534   0.892
33447W        W97655   1.277  13.167  11.063
33448W        W97656  15.800  11.810  14.789
33449W        W97657  35.359   5.851   1.230
33450W        W97658   1.883   3.859   2.714
33451W        W97659  32.038  16.600  11.941
33452W        W97660  40.970  33.612  11.986
33453W        W97661  27.195  33.447   0.308
33454W        W97662   3.724  12.185  11.551
33455W        W97663  43.001  15.720  11.930
33456W        W97664  21.665   6.727  14.346
33457W        W97665  41.856  34.604  14.387
33458W        W97666   0.970   9.271   2.731
33459W        W97667  26.149   7.342  10.909
33460W        W97668  28.936  15.173   1.807
33461W        W97669  21.023  43.799   9.938
33462W        W97670  16.316  41.350  12.944
33463W        W97671  23.189  18.699  14.504
33464W        W97672  22.718  40.980  10.609
33465W        W97673  20.034  25.120  12.027
33466W        W97674  29.099   3.458   1.440
33467W        W97675   9.164  13.231  14.021
33468W        W97676   1.398   9.160   1.350
33469W        W97677  25.692  14.807   3.817
33470W        W97678  42.824  40.516  10.422
33471W        W97679   4.943   0.362   2.885
33472W        W97680  37.977  14.211  12.842
33473W        W97681  36.444  42.024  11.032
33474W        W97682  36.004  32.977  11.040
33475W        W97683  33.406  13.269   2.221
33476W        W97684  31.065   8.786  12.529
33477W        W97685  13.244  15.325  12.825
33478W        W97686  23.238  32.634  14.503
33479W        W97687   1.967  31.029  12.389
33480W        W97688  17.626  32.551  11.087
33481W        W97689  25.560  40.970   4.802
33482W        W97690  14.155  10.635   0.247
33483W        W97691  23.585  24.012   1.235
33484W        W97692  38.853   6.240  11.966
33485W        W97693  21.238  18.699   5.159
33486W        W97694  14.694  19.046  11.886
33487W        W97695   1.884  42.007  13.389
33488W        W97696  36.896  18.609  12.360
33489W        W97697  33.011  33.528   4.714
33490W        W97698   5.408  11.230  14.979
33491W        W97699  13.775  40.307  12.012
33492W        W97700  30.127  21.070  11.576
33493W        W97701  22.579  23.229   2.719
33494W        W97702  22.052   2.966   4.804
33495W        W97703  16.804  41.937   0.313
33496W        W97704  13.161  31.060  10.913
33497W        W97705  41.842  11.224   1.854
33498W        W97706  40.012  10.699   3.783
33499W        W97707  32.061  42.954  11.889
33500W        W97708  21.085  10.175   1.277
33501W        W97709   4.768  17.294  11.885
33502W        W97710  42.940   3.824  11.975
33503W        W97711   7.803   7.237   4.668
33504W        W97712   4.773   4.425   1.768
33505W        W97713   5.909  20.257   0.844
33506W        W97714  19.082  26.647   4.126
33507W        W97715  21.550  29.618  10.444
33508W        W97716  15.160  22.706   3.712
33509W        W97717  27.591  15.810  11.504
33510W        W97718  39.863  38.569   0.480
33511W        W97719  38.908   0.251  12.496
33512W        W97720  44.427  44.492   2.197
33513W        W97721  11.270  36.570  14.289
33514W        W97722  18.264  36.022  10.484
33515W        W97723  25.120  34.437   4.272
33516W        W97724   6.270  14.686  11.576
33517W        W97725  33.593  12.643   0.876
33518W        W97726  30.924  32.447   4.751
33519W        W97727  13.168  41.420   1.430
33520W        W97728   7.268   8.335  10.502
33521W        W97729  13.293  10.325   4.831
33522W        W97730   5.693  10.280   2.703
33523W        W97731   5.916   4.719   4.725
33524W        W97732  23.576  34.059  11.450
33525W        W97733   4.347  24.490  12.471
33526W        W97734  36.459  34.099   2.736
33527W        W97735  40.812  19.600   5.124
33528W        W97736   4.379  22.736   3.150
33529W        W97737   2.779   2.876  14.887
33530W        W97738  19.565  36.024   1.764
33531W        W97739  15.662   5.726  14.413
33532W        W97740  44.281  25.150  12.496
33533W        W97741   5.852  38.898   4.209
33534W        W97742  28.963  20.101   2.797
33535W        W97743  35.485  22.081   1.719
33536W        W97744  42.889  20.669  13.871
33537W        W97745   1.481   7.829  11.996
33538W        W97746  12.771   4.941  13.044
33539W        W97747  19.775  27.998   4.239
33540W        W97748  21.695   6.390   4.217
33541W        W97749   6.818  35.895  14.502
33542W        W97750  19.764  21.694   4.723
33543W        W97751  27.494  34.886   4.646
33544W        W97752   8.696   1.357   3.861
33545W        W97753  18.111  43.918  13.917
33546W        W97754  19.672   3.340   1.767
33547W        W97755   5.916  29.145  10.519
33548W        W97756  18.722  44.825  11.433
33549W        W97757  19.718   0.842  14.913
33550W        W97758  14.257  31.008   1.262
33551W        W97759  15.610  40.308  10.161
33552W        W97760   1.874  19.240   2.392
33553W        W97761  15.762   0.795  12.842
33554W        W97762  20.234  10.863   0.741
33555W        W97763  32.948   5.719   3.813
33556W        W97764  35.960  22.047  14.303
33557W        W97765  38.330  20.154  14.289
33558W        W97766  41.990  19.606  12.973
33559W        W97767  25.607  17.189  13.310
33560W        W97768   6.278  12.710   2.777
33561W        W97769   2.785  27.073  13.060
33562W        W97770   0.746   6.332  11.397
33563W        W97771   8.257   7.306   4.798
33564W        W97772  23.534  31.632   2.337
33565W        W97773  29.560  20.211  11.124
33566W        W97774  14.321  14.640   0.458
33567W        W97775  27.189  26.649   3.200
33568W        W97776   0.791   7.849   1.364
33569W        W97777  23.734  34.945   0.759
33570W        W97778  20.631   9.769  14.857
33571W        W97779  33.054  15.615  11.086
33572W        W97780  35.920  18.740  13.821
33573W        W97781  30.598  22.115   3.381
33574W        W97782  38.376   0.918  13.319
33575W        W97783  16.571  11.282   4.622
33576W        W97784   9.722  30.511   0.405
33577W        W97785  23.223  13.602  11.423
33578W        W97786   1.804  43.837   3.768
33579W        W97787   1.418  12.689   4.127
33580W        W97788  42.980  26.511   4.647
33581W        W97789  17.263   0.791  10.081
33582W        W97790  41.327   0.376   2.388
33583W        W97791  31.518  22.628   4.210
33584W        W97792  23.668  18.231  12.925
33585W        W97793  41.845  30.419   4.130
33586W        W97794  37.418  10.699  12.985
33587W        W97795  42.788  30.142  12.361
33588W        W97796  14.337  25.998   4.630
33589W        W97797  42.379  30.482  11.953
33590W        W97798  11.652  31.632  12.452
33591W        W97799   7.338  16.748  14.027
33592W        W97800  11.762  22.701   4.134
33593W        W97801   6.694  38.556  13.937
33594W        W97802  27.944  24.985   1.905
33595W        W97803  35.038  23.234   3.686
33596W        W97804  28.586  40.370  10.922
33597W        W97805  44.906   1.264   2.732
33598W        W97806   4.356   1.829  10.560
33599W        W97807  20.190  28.980  12.056
33600W        W97808  13.773  31.457   4.267
33601W        W97809  42.949  39.910  10.546
33602W        W97810  37.362  22.996   4.285
33603W        W97811  37.573   9.712  10.637
33604W        W97812  12.752  20.550   1.344
33605W        W97813  20.651  21.050   0.878
33606W        W97814   9.795  22.021  13.059
33607W        W97815   6.276  31.919  12.047
33608W        W97816   9.798  35.096   4.741
33609W        W97817  15.263   6.686  14.495
33610W        W97818  38.528  19.159   1.704
33611W        W97819  25.094  27.689   3.239
33612W        W97820  29.559  27.629  14.449
33613W        W97821   1.398   2.796   3.202
33614W        W97822  24.993   8.822   4.150
33615W        W97823  10.864  30.092   0.871
33616W        W97824  23.619  37.975   3.725
33617W        W97825  38.994  28.040   3.384
33618W        W97826  37.384   6.271   0.433
33619W        W97827  29.091  39.460  13.931
33620W        W97828  20.155  39.821  14.028
33621W        W97829  20.203  10.350   2.221
33622W        W97830  38.890  38.474   1.391
33623W        W97831   4.806  24.529   4.824
33624W        W97832  21.522   4.705  12.560
33625W        W97833  34.511  17.673   1.292
33626W        W97834  10.351   2.433   3.760
33627W        W97835  35.529   3.363  12.013
33628W        W97836  26.958  15.154  14.454
33629W        W97837  31.104  23.558  11.433
33630W        W97838  17.580  44.408  13.063
33631W        W97839  21.745  12.145   0.763
33632W        W97840  10.786  43.961   2.219
33633W        W97841  12.168   0.335   1.779
33634W        W97842  35.978  33.505   2.245
33635W        W97843  32.563  13.682   0.459
33636W        W97844  42.441  36.535  13.902
33637W        W97845  14.262  24.657  14.980
33638W        W97846   7.892  23.107   4.303
33639W        W97847   9.667  23.990  11.011
33640W        W97848  28.953  13.716   1.342
33641W        W97849  31.629  14.301  13.843
33642W        W97850  29.006  23.070  10.582
33643W        W97851  40.334  16.200  10.906
33644W        W97852  35.008  44.845  10.644
33645W        W97853   2.893  34.988  11.403
33646W        W97854  29.584  28.500   2.377
33647W        W97855  30.135  15.819   2.280
33648W        W97856   0.964  21.245  14.505
33649W        W97857  41.391  19.720   4.779
33650W        W97858  17.763   6.337   5.133
33651W        W97859  32.134  30.012   4.692
33652W        W97860  43.983  11.849   0.427
33653W        W97861  42.467  41.941  11.952
33654W        W97862  28.503  20.184   4.670
33655W        W97863  17.794  12.842  13.048
33656W        W97864   5.726   5.417   0.907
33657W        W97865  40.021   6.828   1.769
33658W        W97866   1.906  36.024   1.863
33659W        W97867  31.437  39.441   3.326
33660W        W97868  38.951  34.374  11.466
33661W        W97869  33.403  17.135  10.610
33662W        W97870   5.264   3.863   1.820
33663W        W97871  19.280  14.122  13.534
33664W        W97872   1.275   5.882   4.203
33665W        W97873   3.399   5.736  14.863
33666W        W97874   1.909  41.378  11.911
33667W        W97875  18.641  16.292   1.745
33668W        W97876   5.380   3.858   1.292
33669W        W97877  11.246  31.512  11.452
33670W        W97878  29.525  26.012  13.449
33671W        W97879  36.368  36.463   1.280
33672W        W97880  33.436  16.626  13.518
33673W        W97881   6.863  30.976   2.334
33674W        W97882  41.836  39.432  13.414
33675W        W97883   3.423  20.274  12.427
33676W        W97884  24.698  44.869   4.686
33677W        W97885  24.228  33.496   2.205
33678W        W97886  19.258  10.633  10.608
33679W        W97887  44.876  41.796   0.316
33680W        W97888  19.572   0.372   3.725
33681W        W97889  28.627   4.776   0.778
33682W        W97890  24.532  15.177  12.946
33683W        W97891  26.058   5.274  14.014
33684W        W97892  28.638  19.197  14.432
33685W        W97893  22.735   5.899   3.792
33686W        W97894  30.104   7.323  11.047
33687W        W97895   0.263  12.124  14.838
33688W        W97896  20.740   4.803   1.789
33689W        W97897  15.578  24.142   1.210
33690W        W97898  39.315  33.416   2.201
33691W        W97899  13.672  35.959   3.209
33692W        W97900  26.582  13.205  14.830
33693W        W97901  32.079  25.117  11.933
33694W        W97902   5.875  12.198  11.118
33695W        W97903  18.569  21.220   4.344
33696W        W97904   2.931  30.932  10.451
33697W        W97905  25.665  28.047   2.341
33698W        W97906  14.328   7.804   3.178
33699W        W97907  26.676  42.303  10.524
33700W        W97908  23.234  21.588   0.355
33701W        W97909  10.740   9.796   0.881
33702W        W97910   6.755  32.547  10.509
33703W        W97911  16.666  11.642   1.902
33704W        W97912  43.963  33.602   5.314
33705W        W97913  12.718  31.481  11.990
33706W        W97914  42.352  17.572  13.993
33707W        W97915  26.546   4.365   0.818
33708W        W97916  44.327  17.148  10.529
33709W        W97917  31.643  35.956   3.239
33710W        W97918  31.576   2.370   2.745
33711W        W97919   0.438   3.933   3.317
33712W        W97920  34.402   3.371   2.308
33713W        W97921  28.534  27.115   2.725
33714W        W97922   4.289  10.746  14.468
33715W        W97923  26.676   0.742   2.701
33716W        W97924   0.832  34.490   1.431
33717W        W97925  28.043   1.324  11.485
33718W        W97926  19.276  17.206  11.454
33719W        W97927  10.221  34.390   0.358
33720W        W97928  38.399   1.472   4.679
33721W        W97929  38.405  30.584   1.317
33722W        W97930  19.138  17.684   1.412
33723W        W97931   2.822  28.028   2.794
33724W        W97932   0.287   1.827   0.291
33725W        W97933  37.950   4.770  10.008
33726W        W97934   4.437  29.988  13.497
33727W        W97935   1.299  16.743   4.151
33728W        W97936   8.714  33.470  11.938
33729W        W97937  20.620  20.187   9.997
33730W        W97938   4.871   0.373   0.345
33731W        W97939  34.052  24.063  12.882
33732W        W97940  18.761  38.520   3.375
33733W        W97941  29.668  28.648   3.721
33734W        W97942   7.213  37.485   4.279
33735W        W97943  16.226   0.291  13.052
33736W        W97944  14.787  41.444  13.355
33737W        W97945  36.576  39.980  11.496
33738W        W97946  44.454  14.756  14.387
33739W        W97947  30.059   1.330   0.435
33740W        W97948  10.725  10.321  12.883
33741W        W97949  41.336  21.075  10.420
33742W        W97950  13.221  16.611  12.457
33743W        W97951  21.592  11.788  10.092
33744W        W97952  29.641  13.148   1.915
33745W        W97953   9.282   8.829  14.904
33746W        W97954  23.650  41.010  10.565
33747W        W97955  31.980  42.373  12.371
33748W        W97956  29.131  32.919  12.503
33749W        W97957  10.697  21.614  14.011
33750W        W97958  11.287  25.566  12.495
33751W        W97959  12.673  30.109  11.590
33752W        W97960  35.880  11.175  14.391
33753W        W97961   2.277  38.364  11.975
33754W        W97962   1.802  42.291   2.277
33755W        W97963  33.886  37.896  12.890
33756W        W97964  27.488   2.925  12.532
33757W        W97965  12.853   8.832  12.547
33758W        W97966  27.944   2.815  14.947
33759W        W97967  33.051  25.610   2.712
33760W        W97968   2.910  42.319   2.409
33761W        W97969  12.801   5.788  14.424
33762W        W97970  17.130  25.604   4.237
33763W        W97971  22.602  20.099   2.865
33764W        W97972  29.998  44.944   0.826
33765W        W97973   1.399  18.748   0.351
33766W        W97974   7.367  18.173   4.133
33767W        W97975  29.949   0.863   1.843
33768W        W97976  36.556  38.907   3.294
33769W        W97977   1.793  27.534  13.417
33770W        W97978  34.564   6.809  12.085
33771W        W97979  28.953  23.179   4.207
33772W        W97980  36.001  30.908  14.787
33773W        W97981   4.302  14.754  14.844
33774W        W97982   6.357  24.123   3.658
33775W        W97983  26.564  36.398   2.415
33776W        W97984  26.169  35.448   4.805
33777W        W97985   1.421  37.464  11.080
33778W        W97986   0.401  32.068   3.805
33779W        W97987  35.482  28.620  13.343
33780W        W97988   0.902  35.952   0.269
33781W        W97989   4.750   1.459  13.516
33782W        W97990  14.658   8.761   3.212
33783W        W97991  38.945  26.603  11.871
33784W        W97992  33.490  26.189   3.170
33785W        W97993  19.717   2.828  11.563
33786W        W97994  31.499  34.390  12.924
33787W        W97995  15.705  27.522  11.404
33788W        W97996   5.210   3.719   2.367
33789W        W97997   0.272  36.538   2.675
33790W        W97998  24.038  11.240   1.745
33791W        W97999  24.503  16.609   3.848
33792W        W98000   3.951  15.107  14.326
33793W        W98001   1.899   6.898  12.543
33794W        W98002  21.583   3.434  10.489
33795W        W98003  26.009  31.134  13.545
33796W        W98004   5.798   1.397  13.919
33797W        W98005   9.153   5.878  10.585
33798W        W98006   7.670  34.547   4.309
33799W        W98007  31.904  24.662  10.637
33800W        W98008  29.500   6.874   0.272
33801W        W98009  37.025   0.976  13.361
33802W        W98010   5.718  32.568  12.063
33803W        W98011   3.256  25.031   4.807
33804W        W98012  21.548  19.613  11.012
33805W        W98013  43.770   7.204   3.349
33806W        W98014  31.129  13.712   5.771
33807W        W98015  42.323   7.708  14.452
33808W        W98016   7.271  15.730  12.092
33809W        W98017  24.010   0.285   3.644
33810W        W98018  20.681   5.867   0.294
33811W        W98019  13.221  12.269  11.561
33812W        W98020   1.756  25.589  10.554
33813W        W98021  12.331  32.613   3.786
33814W        W98022   1.413   9.157   0.370
33815W        W98023  29.004  24.204   2.247
33816W        W98024  20.267  28.952   1.297
33817W        W98025  26.677   5.764  13.343
33818W        W98026  44.810  21.022   2.354
33819W        W98027  13.733  25.547  11.585
33820W        W98028  28.141   4.424  12.539
33821W        W98029   7.814  11.715  14.338
33822W        W98030  19.548  33.533   1.357
33823W        W98031   2.276  44.376   5.293
33824W        W98032  13.137   5.760   3.285
33825W        W98033  37.575  22.076   4.739
33826W        W98034  27.000  38.345  10.439
33827W        W98035  11.646  33.583   1.347
33828W        W98036  24.692  25.641   1.388
33829W        W98037  42.391  35.417   3.839
33830W        W98038  40.397  31.945  10.955
33831W        W98039  30.424  22.722  13.967
33832W        W98040  31.084  39.497   4.139
33833W        W98041  25.648  38.528  14.824
33834W        W98042  26.990  32.911   3.710
33835W        W98043   7.782  27.990  12.953
33836W        W98044  16.732  16.751  14.324
33837W        W98045  37.920  31.498   0.858
33838W        W98046   4.293  41.960   3.772
33839W        W98047  12.723  21.093  12.860
33840W        W98048   0.782   8.273  10.507
33841W        W98049  29.985   9.703   4.672
33842W        W98050   4.718  23.233  14.950
33843W        W98051  15.814  13.663   1.321
33844W        W98052  14.679   3.774   1.753
33845W        W98053  12.614  42.921  12.827
33846W        W98054  39.352  31.581   4.789
33847W        W98055   1.746  28.025  13.485
33848W        W98056  27.542  23.988   4.276
33849W        W98057   7.866  23.734  14.767
33850W        W98058   8.743   2.434  13.324
33851W        W98059   9.795  17.655  11.019
33852W        W98060   2.436   8.319   0.966
33853W        W98061   8.863   9.229   1.902
33854W        W98062  44.479   4.238  12.554
33855W        W98063   8.794   5.329  12.910
33856W        W98064  15.093  38.331   1.310
33857W        W98065  36.063  33.548  10.556
33858W        W98066  32.587  39.875  14.982
33859W        W98067  42.499   1.321  10.509
33860W        W98068  16.806   2.801  10.609
33861W        W98069  35.370  38.523   1.792
33862W        W98070  44.938  31.934  11.087
33863W        W98071  39.394  16.805  12.538
33864W        W98072  37.001  37.437   0.911
33865W        W98073  41.303  42.953  10.110
33866W        W98074  39.395  25.209   3.378
33867W        W98075   8.766  29.632   5.195
33868W        W98076  14.708   6.808  11.046
33869W        W98077   7.188  17.655   1.276
33870W        W98078  25.652  23.160  10.974
33871W        W98079  32.471  36.525   2.736
33872W        W98080  22.209  22.541  13.410
33873W        W98081  23.119  38.856   0.763
33874W        W98082  35.940  34.433  13.344
33875W        W98083  12.763  27.591  10.954
33876W        W98084   5.923  30.588   1.870
33877W        W98085   5.236  35.386   2.771
33878W        W98086   1.789  27.163  10.902
33879W        W98087  31.557  10.150   1.220
33880W        W98088  15.306   2.451   1.367
33881W        W98089  43.930  37.902  10.508
33882W        W98090  31.489  29.513  11.111
33883W        W98091  16.175  30.124   0.265
33884W        W98092   4.938  35.091   2.902
33885W        W98093  29.625  11.707  11.542
33886W        W98094  20.725  43.501   0.964
33887W        W98095  39.049  34.021   1.309
33888W        W98096   7.405  40.828   1.332
33889W        W98097  24.624  43.793  10.929
33890W        W98098  40.412  13.306  11.035
33891W        W98099   9.155   8.813   2.794
33892W        W98100   4.318  42.994  11.061
33893W        W98101  23.685  42.962   2.759
33894W        W98102  20.056  31.492   3.774
33895W        W98103  24.711   3.226   1.392
33896W        W98104  11.248  10.342  13.981
33897W        W98105   0.801   3.954  13.938
33898W        W98106  21.677  32.138  14.997
33899W        W98107  10.143   9.798  13.878
33900W        W98108   0.447  18.054   0.450
33901W        W98109   4.204  26.687   4.783
33902W        W98110  13.620  35.870   4.341
33903W        W98111  20.764   6.865  11.963
33904W        W98112  40.868  29.986  12.964
33905W        W98113  12.158  13.167  14.444
33906W        W98114  22.105  23.564  11.394
33907W        W98115  32.506  43.336  12.989
33908W        W98116  24.174  14.191  10.011
33909W        W98117  35.372  11.223   2.376
33910W        W98118  21.136   3.414  12.060
33911W        W98119  16.649  40.921  14.917
33912W        W98120   2.774  31.637  12.463
33913W        W98121  43.770  21.650   3.381
33914W        W98122  21.095  15.154  11.949
33915W        W98123   8.714  40.855  14.796
33916W        W98124  29.052  13.704   2.180
33917W        W98125   7.857  18.658  12.422
33918W        W98126  32.100  17.220  12.061
33919W        W98127   3.350   2.471   2.726
33920W        W98128  13.344  10.246  12.344
33921W        W98129  10.659  18.139   2.734
33922W        W98130  41.482  12.211  14.424
33923W        W98131  30.932  43.904  11.125
33924W        W98132  12.339  19.193  11.540
33925W        W98133  30.484  33.499  11.100
33926W        W98134  33.438  31.027   1.726
33927W        W98135  39.952   3.416   4.341
33928W        W98136  35.068  40.946  10.552
33929W        W98137  15.199  44.988   0.271
33930W        W98138  40.404   4.846  10.425
33931W        W98139  37.570  19.192   4.710
33932W        W98140  42.514  34.541   4.309
33933W        W98141   4.441  14.736  12.356
33934W        W98142  13.821  30.953  11.962
33935W        W98143  27.022  17.648   4.309
33936W        W98144   9.227  34.552  10.482
33937W        W98145   5.307  31.991  10.495
33938W        W98146   3.441   1.250  10.986
33939W        W98147  26.960  40.314   0.414
33940W        W98148  28.036  27.942   4.153
33941W        W98149  10.846  21.164  13.401
33942W        W98150   9.207  23.513  11.942
33943W        W98151  38.908  23.039   4.740
33944W        W98152   9.807   2.290  12.862
33945W        W98153   9.726   7.847   0.803
33946W        W98154  37.579  39.858   0.458
33947W        W98155  15.804  28.447  11.972
33948W        W98156  22.571  19.137   1.369
33949W        W98157  37.972  11.149  12.987
33950W        W98158  12.288  43.271   0.353
33951W        W98159  14.796  27.102  10.451
33952W        W98160   9.791  12.790  11.875
33953W        W98161   3.872  18.063  14.014
33954W        W98162   4.808  34.082   2.388
33955W        W98163  21.574  18.625   1.703
33956W        W98164  14.716  31.424   1.703
33957W        W98165  10.371   7.694  13.831
33958W        W98166  12.819  10.384  11.957
33959W        W98167  26.011  39.051  12.513
33960W        W98168  18.763  19.586   4.128
33961W        W98169  24.667  23.041  11.925
33962W        W98170  20.190  11.343  10.409
33963W        W98171   9.335  25.066  14.802
33964W        W98172  16.721  31.140   1.836
33965W        W98173  13.729  33.603  11.430
33966W        W98174  19.227  22.601   2.216
33967W        W98175   2.807  32.522  12.883
33968W        W98176  21.677  14.656   4.269
33969W        W98177  21.539  43.810  11.579
33970W        W98178   3.293   7.366   3.214
33971W        W98179  19.158  31.543   0.337
33972W        W98180   9.723  12.718  14.465
33973W        W98181  16.112  32.059   2.844
33974W        W98182  13.703  30.638  12.929
33975W        W98183   2.730   4.443   5.087
33976W        W98184  26.153   6.755  10.626
33977W        W98185  39.535   5.373  13.348
33978W        W98186  10.142  31.033   1.253
33979W        W98187   8.755  16.714  14.477
33980W        W98188   6.265  19.258  12.401
33981W        W98189  28.677  40.481  11.447
33982W        W98190  38.415  41.856   4.122
33983W        W98191   9.331  39.348   0.918
33984W        W98192  38.434  11.676  14.903
33985W        W98193  27.621  34.541   3.647
33986W        W98194  12.211  27.107   2.260
33987W        W98195  44.384  33.519  14.395
33988W        W98196  44.473  36.492  12.914
33989W        W98197   7.907  41.463   3.347
33990W        W98198   9.366  42.954  11.903
33991W        W98199  43.429  20.092  10.424
33992W        W98200  21.203  11.308  12.509
33993W        W98201  20.539   1.871  11.112
33994W        W98202  12.322  35.568  11.933
33995W        W98203  25.975  21.264   3.674
33996W        W98204  28.623  26.484  11.080
33997W        W98205  16.136   8.733   4.161
33998W        W98206   9.222  37.062   0.736
33999W        W98207  40.900  33.563  13.483
34000W        W98208  42.810  19.260  12.973
34001W        W98209  25.592   7.694  10.588
34002W        W98210   2.795   3.835   3.296
34003W        W98211  34.923  25.675  12.023
34004W        W98212  31.003  40.042  14.991
34005W        W98213  31.903  12.671   3.204
34006W        W98214  40.304  22.124  11.984
34007W        W98215  18.090  20.034  13.882
34008W        W98216  18.571  21.562   1.430
34009W        W98217  43.863  26.663   3.744
34010W        W98218  11.307  12.629   4.354
34011W        W98219   9.812  11.318   1.778
34012W        W98220  27.121  43.844  14.341
34013W        W98221  22.739   0.330   3.671
34014W        W98222  36.368  23.100   0.933
34015W        W98223  13.190  44.978  10.418
34016W        W98224  41.804  36.407  14.479
34017W        W98225  22.170  40.427   1.291
34018W        W98226  16.250   4.238  13.462
34019W        W98227  26.518  37.477  13.523
34020W        W98228  25.490  33.100  11.530
34021W        W98229  39.343   3.281  12.438
34022W        W98230  24.719  22.059   3.853
34023W        W98231  24.705   4.891   3.274
34024W        W98232  27.624  19.142  14.844
34025W        W98233  21.137  40.898   3.242
34026W        W98234   0.829  29.033  14.326
34027W        W98235  22.126  19.264  14.905
34028W        W98236  18.732  33.903  11.546
34029W        W98237  21.137  37.493  14.871
34030W        W98238  26.505  35.052  13.051
34031W        W98239  20.159   8.864   4.256
34032W        W98240  27.973  14.278  13.531
34033W        W98241  43.471  37.412   2.196
34034W        W98242  29.600   8.235   2.198
34035W        W98243  30.583  26.541  14.793
34036W        W98244  10.233   3.447   3.352
34037W        W98245  35.513  34.613  11.447
34038W        W98246  42.991  24.158   2.720
34039W        W98247   7.407  29.602  10.625
34040W        W98248  20.105   9.829   3.320
34041W        W98249  14.677  16.248  12.527
34042W        W98250  11.160   9.755   0.346
34043W        W98251  34.429   9.812  11.462
34044W        W98252  27.024   9.765   4.216
34045W        W98253   3.357  39.023   5.112
34046W        W98254  24.010  22.717  14.942
34047W        W98255   3.800   8.897   2.698
34048W        W98256  30.549  16.798   3.330
34049W        W98257  16.688  41.351  11.089
34050W        W98258  20.626  37.524  14.009
34051W        W98259   4.774  34.480   2.862
34052W        W98260  36.573  22.179  11.880
34053W        W98261  29.550  15.139   2.809
34054W        W98262  14.254  10.237  13.926
34055W        W98263  26.465  26.487   4.152
34056W        W98264  25.630  37.847   3.235
34057W        W98265  11.148  32.004   0.440
34058W        W98266  15.206  41.848  12.858
34059W        W98267   3.743   4.846  11.923
34060W        W98268  11.280  16.271   4.130
34061W        W98269  19.560  22.165  14.950
34062W        W98270  13.265  26.174  14.310
34063W        W98271  43.367  37.057   1.351
34064W        W98272   7.313  43.799  13.354
34065W        W98273   0.852  26.562  14.432
34066W        W98274  18.295  20.191  11.422
34067W        W98275  31.942  33.538   2.756
34068W        W98276  15.730  34.535  13.426
34069W        W98277  31.437  39.417   4.680
34070W        W98278  34.505  36.469   1.882
34071W        W98279  13.326  31.110   2.242
34072W        W98280   2.239  14.244   0.966
34073W        W98281  43.017  41.994  14.364
34074W        W98282  30.908   0.887   0.251
34075W        W98283  37.536  33.945  10.922
34076W        W98284   2.348  21.527   3.298
34077W        W98285  41.948   7.410   1.835
34078W        W98286  19.674  40.484  14.816
34079W        W98287  16.166  13.647   1.821
34080W        W98288   5.421  44.967   1.249
34081W        W98289  23.529  31.957  12.927
34082W        W98290   2.438  12.678   0.435
34083W        W98291  33.947  16.087  13.865
34084W        W98292  14.634   1.937  12.001
34085W        W98293   3.365  43.462  11.540
34086W        W98294  20.114  24.624   2.197
34087W        W98295   1.310   5.337   9.512
34088W        W98296  40.502  43.447  14.759
34089W        W98297  29.121  20.657  14.017
34090W        W98298  12.783  30.612   1.391
34091W        W98299  29.990  40.399   2.755
34092W        W98300  33.612  39.987   3.225
34093W        W98301  12.780  38.351  10.539
34094W        W98302   1.423   7.901   1.894
34095W        W98303  42.309   2.825  12.969
34096W        W98304  16.104  13.141   1.217
34097W        W98305  28.605  38.854   4.776
34098W        W98306  33.466   6.405  12.476
34099W        W98307  26.517  44.454   0.411
34100W        W98308   8.753  24.029   1.268
34101W        W98309  40.001  39.380   4.757
34102W        W98310  25.105  40.352   0.392
34103W        W98311   3.266  32.616  14.442
34104W        W98312  27.498   7.182   4.275
34105W        W98313  32.072  37.951   3.662
34106W        W98314   4.360   9.380  13.897
34107W        W98315  33.910  24.173   3.726
34108W        W98316   7.203   6.730   3.264
34109W        W98317  14.776  32.523  12.834
34110W        W98318  31.513  33.525   0.284
34111W        W98319  14.644  13.709   4.223
34112W        W98320   1.938   8.669   1.434
34113W        W98321   4.805   0.870   0.417
34114W        W98322  14.167  23.110  14.002
34115W        W98323  10.753   5.333   0.950
34116W        W98324  38.502  40.376   0.768
34117W        W98325  41.930   0.841   1.270
34118W        W98326  44.908   9.860   1.394
34119W        W98327   3.765  16.289  12.940
34120W        W98328  17.129  10.273   3.860
34121W        W98329  32.990  26.058   1.293
34122W        W98330  39.914   7.319   4.751
34123W        W98331  25.991   0.793   2.355
34124W        W98332   4.929  44.971  11.079
34125W        W98333   5.765   3.781   0.403
34126W        W98334  20.067  38.003  14.816
34127W        W98335   4.792  37.405   2.691
34128W        W98336   8.278  19.736   2.674
34129W        W98337  12.651  11.682  13.485
34130W        W98338  14.310  25.511   0.941
34131W        W98339  42.332  30.006   4.635
34132W        W98340  41.908  16.743   5.232
34133W        W98341  13.722   3.811   1.812
34134W        W98342  27.558  32.031   1.404
34135W        W98343  33.988  12.644   4.151
34136W        W98344  19.166  29.625  13.464
34137W        W98345   0.771   8.188  13.362
34138W        W98346   6.834  39.530   4.597
34139W        W98347  29.429  37.053   1.758
34140W        W98348  32.449   8.730  11.413
34141W        W98349   3.718   5.816  12.839
34142W        W98350  43.865  22.113   3.156
34143W        W98351  14.798  33.620   3.739
34144W        W98352  12.264  42.498  12.422
34145W        W98353  27.446  32.902   3.367
34146W        W98354  42.977  29.493   4.284
34147W        W98355  22.013  42.914  14.281
34148W        W98356  29.007   6.716   1.446
34149W        W98357  26.575   6.686  11.602
34150W        W98358  38.495   8.753   5.212
34151W        W98359  38.484  13.283   4.135
34152W        W98360  11.830  37.956  14.917
34153W        W98361  13.794   9.751  14.360
34154W        W98362   0.395  25.706  13.528
34155W        W98363  13.731   0.293   1.342
34156W        W98364  34.402   5.297   4.339
34157W        W98365  14.148  35.602  14.010
34158W        W98366  12.852  15.755   4.202
34159W        W98367  13.625  18.115   1.894
34160W        W98368  35.018   3.216  12.499
34161W        W98369   3.440  21.560  14.830
34162W        W98370  27.510   7.793  14.883
34163W        W98371  23.168  17.272  11.541
34164W        W98372  39.897  39.334  13.795
34165W        W98373  34.406  21.603  11.500
34166W        W98374  39.377  12.623  13.531
34167W        W98375   8.742   9.669  12.527
34168W        W98376  10.349   9.339   4.348
34169W        W98377  38.846  28.180   2.316
34170W        W98378  35.591  24.135  10.907
34171W        W98379  11.828  15.801   0.743
34172W        W98380  43.306  20.141   4.199
34173W        W98381   6.199  37.416   3.869
34174W        W98382  32.966  19.052  11.467
34175W        W98383   1.790  15.133   4.752
34176W        W98384  20.705  26.984  14.982
34177W        W98385  10.301  27.049  13.369
34178W        W98386  40.465  22.162   3.370
34179W        W98387  34.614   6.784   3.181
34180W        W98388  19.740  33.095   0.737
34181W        W98389  40.007   1.743   2.186
34182W        W98390  30.071  24.085   0.823
34183W        W98391   1.455   8.763  14.293
34184W        W98392  43.878  21.111   2.292
34185W        W98393  40.433  22.107  11.103
34186W        W98394   3.360  24.993   1.279
34187W        W98395  38.901  27.132   0.449
34188W        W98396  44.879  37.076   2.795
34189W        W98397  33.090   9.707  11.480
34190W        W98398   8.876  39.979   1.238
34191W        W98399  10.690   7.368  11.026
34192W        W98400  37.003  24.997  10.422
34193W        W98401  11.766  26.136   2.713
34194W        W98402  40.423  22.015   2.234
34195W        W98403  44.957  14.624  11.447
34196W        W98404   3.737  12.275  12.901
34197W        W98405   6.296   7.760  13.918
34198W        W98406  34.509  17.567  12.066
34199W        W98407  11.338  26.496  11.898
34200W        W98408  24.707  22.090  13.336
34201W        W98409  34.077  32.634   1.360
34202W        W98410   1.745  40.029  12.547
34203W        W98411   2.808  36.969  10.999
34204W        W98412  24.079  24.183   0.304
34205W        W98413  44.777   8.226   2.296
34206W        W98414   2.945  14.220   0.347
34207W        W98415  32.499  16.238   2.895
34208W        W98416  21.190   2.915   3.238
34209W        W98417  37.480  27.078  14.760
34210W        W98418   6.791   2.784   0.819
34211W        W98419   3.424  12.639   2.348
34212W        W98420  31.590  12.834  11.127
34213W        W98421   5.286  32.513  10.439
34214W        W98422  29.443  20.614   2.394
34215W        W98423  34.612   2.855  13.521
34216W        W98424  17.791   4.745   1.860
34217W        W98425  21.095   4.310   1.421
34218W        W98426  31.549  40.992  11.972
34219W        W98427   8.722  12.829  10.429
34220W        W98428  34.416  19.633  10.553
34221W        W98429  14.618   0.361  12.357
34222W        W98430  34.563   7.259   3.359
34223W        W98431  16.695  16.280  14.361
34224W        W98432  37.846  34.583   3.184
34225W        W98433  38.410  16.095   1.713
34226W        W98434  30.048  26.460   4.336
34227W        W98435  39.897  15.291   0.381
34228W        W98436  14.767  21.676  10.949
34229W        W98437   5.241  37.475   4.324
34230W        W98438   1.307  31.034  11.900
34231W        W98439   4.350  42.008  14.412
34232W        W98440  17.633  33.542   3.163
34233W        W98441  37.506  38.876   3.322
34234W        W98442  35.894  13.152   0.764
34235W        W98443  42.305   0.332  12.065
34236W        W98444  27.688  23.048  11.043
34237W        W98445  18.121  31.042  10.952
34238W        W98446  17.109  24.587   1.401
34239W        W98447  25.073  20.660  12.402
34240W        W98448  43.493  43.977  13.897
34241W        W98449  30.494   0.440  11.996
34242W        W98450  28.455  38.441   2.729
34243W        W98451  17.211  23.074   4.635
34244W        W98452  11.244   4.724   3.750
34245W        W98453  28.440   1.482  14.457
34246W        W98454  34.956  41.875   3.299
34247W        W98455  39.358  31.573  11.069
34248W        W98456  40.044   0.788  10.067
34249W        W98457   6.344  23.058   2.396
34250W        W98458  19.161  23.051   1.874
34251W        W98459  30.074  19.170   3.284
34252W        W98460  41.436  37.074  13.389
34253W        W98461  24.717  15.691  14.287
34254W        W98462   4.268  25.198  11.599
34255W        W98463   2.422  22.154   4.807
34256W        W98464   1.933  32.979  11.548
34257W        W98465  16.261  13.314   4.617
34258W        W98466  17.570  23.149  14.354
34259W        W98467   8.305   3.857  10.514
34260W        W98468   9.200  26.523   0.318
34261W        W98469   5.305  27.674   4.122
34262W        W98470   0.310   9.226  13.309
34263W        W98471  42.454  14.286   3.673
34264W        W98472   8.810  38.468  14.904
34265W        W98473  12.706  26.193   4.759
34266W        W98474  28.176  12.249   1.450
34267W        W98475  24.508  17.584  14.400
34268W        W98476  41.442  36.511   2.237
34269W        W98477  37.549   2.953  11.580
34270W        W98478   9.685  22.633  13.940
34271W        W98479  29.926   5.693   2.705
34272W        W98480   9.172  25.507   1.834
34273W        W98481  25.534   0.957  11.569
34274W        W98482  24.629  37.005   2.271
34275W        W98483  27.503  39.921  10.631
34276W        W98484   6.300  38.354  10.956
34277W        W98485  11.252  17.150  11.084
34278W        W98486  42.923  23.077   3.803
34279W        W98487  27.976  21.543   2.769
34280W        W98488  38.853   5.750  11.098
34281W        W98489  38.409  12.260   3.755
34282W        W98490  23.564  44.899  10.586
34283W        W98491  11.258  30.014  11.872
34284W        W98492  44.002  42.288  14.018
34285W        W98493  21.093  31.025   1.784
34286W        W98494  43.020  33.430  10.479
34287W        W98495  27.639  15.724   2.360
34288W        W98496   6.771  31.462  12.575
34289W        W98497  30.035   5.296  12.340
34290W        W98498  29.493  24.649   4.186
34291W        W98499  41.388  24.672   4.802
34292W        W98500  39.326  30.151   4.642
34293W        W98501   1.739  31.452  12.342
34294W        W98502  20.143  40.922  12.002
34295W        W98503  23.592   6.780  10.482
34296W        W98504   4.827   7.802  12.833
34297W        W98505   6.820   4.804   0.363
34298W        W98506  12.234   0.431  13.884
34299W        W98507  40.501  31.637   1.282
34300W        W98508   9.306  34.098  13.443
34301W        W98509  13.116  12.723   0.419
34302W        W98510  43.363   9.322   4.776
34303W        W98511  20.557  22.120  10.984
34304W        W98512  10.347  40.533  13.482
34305W        W98513  25.631  23.613  12.078
34306W        W98514   0.426  24.145   1.909
34307W        W98515   3.398  42.899   4.748
34308W        W98516  34.424  33.980  13.854
34309W        W98517  23.233  11.662  12.906
34310W        W98518  28.035  11.371   3.165
34311W        W98519  17.230   0.932  10.516
34312W        W98520  22.685   6.285  10.013
34313W        W98521  16.770  43.443   0.412
34314W        W98522  10.380   9.843  12.481
34315W        W98523  36.914  10.210   3.146
34316W        W98524  20.265  27.040  11.033
34317W        W98525  22.521   3.438  11.882
34318W        W98526   5.368  35.870   2.274
34319W        W98527   6.335  10.157  10.076
34320W        W98528   9.792  17.226  11.951
34321W        W98529  20.105  39.833  12.391
34322W        W98530   3.351  43.791  14.515
34323W        W98531  44.953  34.927  13.347
34324W        W98532   2.813  29.175  11.530
34325W        W98533  31.463   3.419   0.312
34326W        W98534  20.752  14.154  13.502
34327W        W98535   7.200  10.698   0.783
34328W        W98536   9.877  19.748  13.051
34329W        W98537   8.373  30.637  11.523
34330W        W98538  22.106  44.869  13.307
34331W        W98539  24.709  37.967   4.826
34332W        W98540  35.033   0.751   3.650
34333W        W98541  15.248  26.515   4.798
34334W        W98542  26.482  13.648   1.753
34335W        W98543  35.954   8.228  14.284
34336W        W98544  12.776  39.359  14.502
34337W        W98545  38.438  10.151  13.031
34338W        W98546  28.935  37.880  13.833
34339W        W98547  34.499   1.865  10.499
34340W        W98548  10.635   1.762   5.104
34341W        W98549  15.676  29.095   2.362
34342W        W98550  39.909  42.995   0.821
34343W        W98551  37.885  29.057   1.376
34344W        W98552  36.503  41.343   1.277
34345W        W98553  25.168  31.119   4.726
34346W        W98554  24.645  34.400   0.265
34347W        W98555   6.394  21.201  10.535
34348W        W98556  20.636  40.442   3.768
34349W        W98557  30.541  41.986  12.917
34350W        W98558   0.846  12.331  12.017
34351W        W98559  40.917  21.243  11.875
34352W        W98560   0.789  28.084  10.041
34353W        W98561  21.640   1.399   2.379
34354W        W98562  13.694  23.061   0.279
34355W        W98563   5.769  41.826   2.352
34356W        W98564  33.560  36.492  11.078
34357W        W98565   0.440   7.210  13.956
34358W        W98566  21.607  36.577   0.246
34359W        W98567  32.975  18.216   4.791
34360W        W98568  34.449   9.263   0.426
34361W        W98569   0.809   7.900   0.467
34362W        W98570  18.684  32.515   2.775
34363W        W98571  40.462  33.988   3.352
34364W        W98572   5.723  23.217   2.723
34365W        W98573   1.461  36.075  13.987
34366W        W98574  38.985  34.952  11.613
34367W        W98575  22.036  10.877  10.615
34368W        W98576  37.074  26.582  12.055
34369W        W98577  43.509   1.887  14.919
34370W        W98578   3.857  14.096   1.765
34371W        W98579   9.775  36.051   0.410
34372W        W98580   4.381  31.021  11.510
34373W        W98581  44.373  35.375   1.327
34374W        W98582  37.033  29.958  14.974
34375W        W98583  32.079  25.632   0.281
34376W        W98584  10.679  24.993   4.716
34377W        W98585  26.634  33.511   3.682
34378W        W98586  15.639  16.220   1.311
34379W        W98587  44.417   0.982   0.869
34380W        W98588   5.208  17.159   0.309
34381W        W98589   2.966  35.858   1.696
34382W        W98590  41.296  17.123   0.749
34383W        W98591  30.620  36.451   2.240
34384W        W98592  16.190  13.801  12.847
34385W        W98593   6.801   1.865  10.457
34386W        W98594  12.773   1.853  10.404
34387W        W98595  16.310   0.817   2.396
34388W        W98596   6.702  25.992   1.768
34389W        W98597  18.599   1.854  13.399
34390W        W98598  16.168  31.601   1.282
34391W        W98599  28.676  19.189   2.239
34392W        W98600  36.010   2.365   0.345
34393W        W98601  30.920  14.309   0.876
34394W        W98602   6.874  17.758   3.184
34395W        W98603  26.157  12.794   4.300
34396W        W98604  26.703  11.159  12.069
34397W        W98605  12.305   4.915  13.821
34398W        W98606  30.449  37.457  14.029
34399W        W98607  14.218  33.414  14.467
34400W        W98608  16.597  10.677  14.866
34401W        W98609  35.491  10.221  11.484
34402W        W98610  20.269  33.094  12.409
34403W        W98611  37.837  12.734  14.879
34404W        W98612   7.821  26.586  13.456
34405W        W98613   1.905  39.986   4.709
34406W        W98614  23.042  21.640  10.922
34407W        W98615  37.582  29.123  14.459
34408W        W98616  36.559  39.021   1.429
34409W        W98617  16.773  19.668   4.672
34410W        W98618  34.948   6.889   2.307
34411W        W98619  35.102  43.936   4.159
34412W        W98620  16.805  34.040  13.002
34413W        W98621   1.836  16.771   1.322
34414W        W98622   5.715   0.938  14.444
34415W        W98623   1.288  39.463  14.384
34416W        W98624  41.317  21.735   1.735
34417W        W98625  42.331  21.248   4.750
34418W        W98626  34.982  22.147   1.862
34419W        W98627  10.837  36.049   0.745
34420W        W98628  31.481  17.780  13.847
34421W        W98629  25.081  18.691  13.845
34422W        W98630  14.765   1.853   2.293
34423W        W98631  26.497  25.569   0.832
34424W        W98632  12.788   8.827   4.263
34425W        W98633  26.521  20.594   3.699
34426W        W98634  25.090   0.879   4.791
34427W        W98635  11.134  25.030  12.540
34428W        W98636  17.088  28.493  11.969
34429W        W98637  15.220  14.625  12.969
34430W        W98638  25.570  44.785  14.891
34431W        W98639  12.612   4.727   1.698
34432W        W98640  29.648  17.200   2.754
34433W        W98641  36.500  21.556  12.011
34434W        W98642   7.319   8.226   0.480
34435W        W98643  17.607  22.088   2.392
34436W        W98644  23.620  25.547  13.323
34437W        W98645  29.088  17.247  13.801
34438W        W98646  28.981   4.246  14.849
34439W        W98647  30.628   2.331  13.333
34440W        W98648  24.575   6.802  12.050
34441W        W98649  42.845  43.997   1.330
34442W        W98650   8.811  42.335   0.832
34443W        W98651  27.532  14.182   3.377
34444W        W98652   0.310  24.003  11.888
34445W        W98653   8.294  18.698  14.508
34446W        W98654   9.873  28.056  13.946
34447W        W98655   5.796  41.320   3.659
34448W        W98656   5.389  16.569   0.295
34449W        W98657   6.727   6.717   1.848
34450W        W98658  28.563  14.727   2.325
34451W        W98659   8.781  34.959  13.313
34452W        W98660  21.037  23.676  14.842
34453W        W98661   0.971   9.150  11.978
34454W        W98662  25.048  24.219  13.982
34455W        W98663  33.509   8.170   0.377
34456W        W98664  44.424  38.850  13.376
34457W        W98665  32.594  38.494   2.785
34458W        W98666  29.003  18.785   0.965
34459W        W98667  13.159   2.238   1.443
34460W        W98668   5.273  34.909   4.815
34461W        W98669  41.378  42.006   0.862
34462W        W98670   1.788  21.539   0.885
34463W        W98671  38.948  17.218   1.750
34464W        W98672  42.974  17.064   3.212
34465W        W98673  14.291  42.290   2.236
34466W        W98674  42.986   8.367   0.915
34467W        W98675   6.754  27.970   4.176
34468W        W98676  25.558  23.990  12.007
34469W        W98677   1.945   6.203   2.796
34470W        W98678  10.643  27.657   0.324
34471W        W98679  40.994  21.515   3.864
34472W        W98680  16.306  12.661  13.919
34473W        W98681   1.464  10.648  12.087
34474W        W98682   4.841  20.188  13.961
34475W        W98683  37.488  10.754  13.427
34476W        W98684  10.688  39.433  10.455
34477W        W98685   6.912   7.335   3.210
34478W        W98686   0.260  39.435  13.802
34479W        W98687  24.609   2.298  12.504
34480W        W98688   7.904  18.149  13.352
34481W        W98689  19.072   3.883  14.983
34482W        W98690  35.010   5.212  12.360
34483W        W98691  32.903  28.132   3.810
34484W        W98692  36.976  14.270  11.404
34485W        W98693  27.495  11.726   2.269
34486W        W98694  13.312   9.161  14.020
34487W        W98695   2.401   3.767   0.902
34488W        W98696   3.385  12.232   0.456
34489W        W98697  19.080  27.971  12.573
34490W        W98698  23.077  23.214   0.288
34491W        W98699  31.475  15.766  11.457
34492W        W98700  40.440  29.979   2.696
34493W        W98701  40.532  40.996   1.719
34494W        W98702   3.765  19.269  12.471
34495W        W98703  15.278  30.428  12.002
34496W        W98704  38.393  29.010   4.718
34497W        W98705   8.835  23.532   4.281
34498W        W98706   1.270   7.407   2.320
34499W        W98707  32.094  42.525   1.700
34500W        W98708   0.811   8.836   2.376
34501W        W98709   3.933  35.588  10.628
34502W        W98710  40.868   4.315   3.858
34503W        W98711   8.244  15.641  12.983
34504W        W98712  44.383  24.037   2.216
34505W        W98713  39.856  14.609  12.347
34506W        W98714  33.048   8.346   0.315
34507W        W98715   4.242  22.219   0.274
34508W        W98716   5.846  31.013  14.818
34509W        W98717   5.927  34.951  14.462
34510W        W98718   9.664  21.244   2.664
34511W        W98719  35.535   1.440   2.275
34512W        W98720   4.878  19.061   0.944
34513W        W98721   6.317   8.728  10.137
34514W        W98722  34.461  25.150   2.205
34515W        W98723  36.911  31.626   1.326
34516W        W98724  15.683   8.880   1.384
34517W        W98725  34.469   9.183   4.156
34518W        W98726  38.910   9.691   2.391
34519W        W98727   2.238  23.672   4.698
34520W        W98728  26.960   4.715   4.665
34521W        W98729  29.591  31.942   4.298
34522W        W98730  41.838  39.512  13.807
34523W        W98731  17.168  27.668  14.393
34524W        W98732   7.777   2.915   3.158
34525W        W98733  39.448  23.561  10.901
34526W        W98734  33.393   4.760   2.335
34527W        W98735  14.296  37.347  10.486
34528W        W98736  10.378  38.971   3.375
34529W        W98737  29.146  14.825   9.957
34530W        W98738  27.020  17.793  12.923
34531W        W98739  34.609  33.893   0.787
34532W        W98740  14.202  24.621   2.770
34533W        W98741  16.772  18.597   1.804
34534W        W98742  12.223  21.725  13.515
34535W        W98743  29.096  24.134  12.961
34536W        W98744  35.030  13.675   1.352
34537W        W98745  19.682  43.933  11.886
34538W        W98746  25.009   0.929   2.702
34539W        W98747  30.090   8.386  11.877
34540W        W98748   5.862  37.912  13.503
34541W        W98749  39.448  39.007  12.899
34542W        W98750  37.515  19.117  12.497
34543W        W98751  37.374  13.788   3.292
34544W        W98752  39.987  31.040   2.687
34545W        W98753  31.090  10.335  11.476
34546W        W98754  35.854  25.602   0.871
34547W        W98755   3.752  32.965   4.291
34548W        W98756  30.969  23.616  10.897
34549W        W98757   5.879  19.580  12.377
34550W        W98758  43.018  15.286  12.022
34551W        W98759  13.134  44.423   2.407
34552W        W98760   4.237   8.782   1.747
34553W        W98761  18.583  41.455   5.320
34554W        W98762   6.755  42.795   0.829
34555W        W98763  18.144   7.254  11.039
34556W        W98764   8.269  37.478   0.824
34557W        W98765  32.495  16.585  11.012
34558W        W98766  32.980  37.962   3.243
34559W        W98767   9.886  22.563   0.767
34560W        W98768  33.077  33.607  13.052
34561W        W98769  41.028  37.962   3.336
34562W        W98770  37.375  29.628   5.239
34563W        W98771  21.695  10.753  13.045
34564W        W98772   9.196  24.711  12.500
34565W        W98773  23.622   0.983  14.299
34566W        W98774  31.046   2.259   2.181
34567W        W98775  28.935  43.903  14.390
34568W        W98776   1.781  29.624   1.886
34569W        W98777  35.586  25.029  13.937
34570W        W98778  41.354   3.381   2.786
34571W        W98779  19.207  38.921  11.988
34572W        W98780  12.319  13.180  11.609
34573W        W98781  11.658   8.328   4.350
34574W        W98782   6.369  42.949  12.935
34575W        W98783  11.853  12.620   1.871
34576W        W98784  38.895  10.724  12.826
34577W        W98785  44.354  21.511  14.776
34578W        W98786  38.504  19.215   5.215
34579W        W98787  43.993   3.781  11.973
34580W        W98788  44.459  43.292  12.440
34581W        W98789   9.362  13.164  11.929
34582W        W98790  13.621  16.074  13.334
34583W        W98791  17.689  42.822  11.529
34584W        W98792  17.220  12.218  12.477
34585W        W98793  15.299  35.053   2.252
34586W        W98794  33.051  29.472  14.960
34587W        W98795  21.110  34.008  10.998
34588W        W98796  10.877  37.841  11.557
34589W        W98797   9.887   7.218   0.758
34590W        W98798   9.285  12.671   3.184
34591W        W98799  20.232  32.399  10.572
34592W        W98800  13.836  15.212   3.195
34593W        W98801   8.702  16.262   3.314
34594W        W98802  30.923  19.103   2.344
34595W        W98803   3.906  30.046  12.530
34596W        W98804  34.019  20.556   1.285
34597W        W98805   8.357  36.386   3.209
34598W        W98806   9.368   5.412   2.876
34599W        W98807  23.115   8.814  11.520
34600W        W98808  37.510  30.552  10.970
34601W        W98809  19.066  24.030   0.771
34602W        W98810  26.171  39.005   0.265
34603W        W98811  25.074  18.643  13.470
34604W        W98812  27.540  40.914   2.838
34605W        W98813  44.466   9.730  12.081
34606W        W98814  28.071  15.255   3.170
34607W        W98815  40.430  37.365  12.938
34608W        W98816   3.876   7.238  14.011
34609W        W98817  33.625  40.443   2.363
34610W        W98818   8.385  16.099   2.376
34611W        W98819  21.195  21.519  12.533
34612W        W98820  35.587  24.700  13.482
34613W        W98821  38.422  21.139  13.905
34614W        W98822   4.274  20.535  13.978
34615W        W98823  34.894  28.441   3.239
34616W        W98824   4.698  26.178  12.968
34617W        W98825  23.515  38.964  12.388
34618W        W98826  44.779  22.744   4.137
34619W        W98827  34.885  37.523  10.619
34620W        W98828  22.547  41.802   4.335
34621W        W98829  41.829  17.111   9.949
34622W        W98830  35.478  29.080  14.934
34623W        W98831   2.361   2.858   0.333
34624W        W98832   9.149  28.637  12.868
34625W        W98833  22.724  11.665  12.558
34626W        W98834  15.744  27.071  13.528
34627W        W98835  34.944   0.817  12.345
34628W        W98836  27.961  31.130  10.933
34629W        W98837  42.329  19.070   0.385
34630W        W98838  42.966  28.575  14.993
34631W        W98839  11.190   1.364  14.336
34632W        W98840  31.628  18.694  14.379
34633W        W98841  24.996  42.952   1.220
34634W        W98842  42.422  23.992   1.821
34635W        W98843  35.427  13.184  14.299
34636W        W98844   5.862   0.357   3.658
34637W        W98845  10.240  21.534  13.898
34638W        W98846  21.158  40.461  13.793
34639W        W98847  16.185  35.864  11.036
34640W        W98848  20.210  40.918  13.905
34641W        W98849   7.223   7.821   0.847
34642W        W98850  31.927  33.097   3.778
34643W        W98851   2.331  30.035  10.609
34644W        W98852  12.338  17.718   0.377
34645W        W98853  39.853  32.097   4.280
34646W        W98854  44.763   4.406  14.457
34647W        W98855  32.605  18.256   1.236
34648W        W98856  19.592  30.129  12.030
34649W        W98857  41.882  44.420   0.264
34650W        W98858   4.720  39.453   0.904
34651W        W98859  28.663  33.435  13.823
34652W        W98860   1.779   7.696  14.391
34653W        W98861  41.396  25.701   1.832
34654W        W98862  31.896  14.702   3.368
34655W        W98863  23.216  16.681  12.536
34656W        W98864  29.006   8.193  14.805
34657W        W98865  22.714   3.334   0.944
34658W        W98866  42.328   1.858  11.512
34659W        W98867   1.744  22.177  12.863
34660W        W98868  25.064   2.808   4.184
34661W        W98869  35.534  15.138   2.235
34662W        W98870   0.360  23.629  12.856
34663W        W98871   1.927  33.042  11.126
34664W        W98872  41.886  24.201  12.405
34665W        W98873   3.414  19.075  13.914
34666W        W98874  40.497  33.066   3.648
34667W        W98875   9.695  44.911  13.998
34668W        W98876  18.778  34.609  13.325
34669W        W98877  16.083  16.115  10.411
34670W        W98878   0.373  32.894   0.408
34671W        W98879  32.452  30.517   2.873
34672W        W98880  41.037  36.355  14.977
34673W        W98881  16.308  22.695  12.965
34674W        W98882  34.119  30.126  13.508
34675W        W98883   4.861  16.572   3.792
34676W        W98884  37.925  38.944  11.864
34677W        W98885  37.517  10.753  10.569
34678W        W98886  41.920   6.339  13.863
34679W        W98887  17.770  39.005  13.856
34680W        W98888   3.330  11.709   5.127
34681W        W98889  30.590   5.386   4.135
34682W        W98890  28.051  13.623   4.809
34683W        W98891  24.199   1.768   1.306
34684W        W98892  21.181   9.812   4.776
34685W        W98893  10.644   0.272  12.954
34686W        W98894  17.626  39.930  10.462
34687W        W98895  44.760  15.729   3.380
34688W        W98896  26.959   2.361  12.401
34689W        W98897  20.619  26.100  10.958
34690W        W98898  43.819  30.128   2.337
34691W        W98899   9.376  44.953   3.248
34692W        W98900  12.760  14.596   3.190
34693W        W98901  34.117   4.746  11.990
34694W        W98902   4.309  22.152   2.751
34695W        W98903  18.668  43.493  14.353
34696W        W98904  16.718  31.499  12.581
34697W        W98905   2.787  27.050   3.760
34698W        W98906  39.911  37.939  11.983
34699W        W98907   8.384  20.702   1.301
34700W        W98908  12.698   3.415  11.375
34701W        W98909  39.014   2.461   0.871
34702W        W98910  44.933  17.066  13.867
34703W        W98911   9.233  42.358   0.315
34704W        W98912  24.989  26.626  14.510
34705W        W98913  10.666  23.594   3.161
34706W        W98914   7.382  19.542   1.887
34707W        W98915  13.602  44.954  10.557
34708W        W98916  22.729  37.844   3.857
34709W        W98917   3.746  43.995  10.571
34710W        W98918  32.594  44.396   3.776
34711W        W98919   9.708  17.778  11.508
34712W        W98920   8.833  14.099   3.375
34713W        W98921  36.562  37.516   1.257
34714W        W98922   9.362   1.424  13.847
34715W        W98923  11.300  40.428  11.957
34716W        W98924  30.616  41.932   2.190
34717W        W98925  18.756  36.387  14.460
34718W        W98926  21.678  32.131  11.856
34719W        W98927   3.808   2.357   3.726
34720W        W98928  27.004  21.592   3.713
34721W        W98929  26.037  12.142  11.922
34722W        W98930  14.180   5.788   3.785
34723W        W98931  33.024  19.695   1.859
34724W        W98932  21.076   0.865   2.813
34725W        W98933  41.893  42.385  12.852
34726W        W98934  35.904   2.432   2.749
34727W        W98935   4.737  22.195  10.406
34728W        W98936  36.390  14.156  11.896
34729W        W98937  21.720  20.128   2.377
34730W        W98938   7.179   6.314  13.964
34731W        W98939   2.266   1.740  11.593
34732W        W98940   6.254   7.816   2.712
34733W        W98941  43.864  10.851  14.865
34734W        W98942  44.373  37.999   0.282
34735W        W98943  44.832  28.477  11.573
34736W        W98944  43.281   2.281  11.869
34737W        W98945   8.719  11.724   0.863
34738W        W98946  14.170  31.020  12.993
34739W        W98947  33.928  42.942  14.480
34740W        W98948   6.376  15.263   4.295
34741W        W98949  25.032  29.109  11.440
34742W        W98950  14.678  27.581  11.445
34743W        W98951  21.515   4.354  13.479
34744W        W98952  38.439  39.908  13.506
34745W        W98953  34.924  27.536  12.087
34746W        W98954  30.440  31.023  14.008
34747W        W98955  27.146  28.069   1.279
34748W        W98956  30.027  21.155   0.359
34749W        W98957  31.523  41.379   0.319
34750W        W98958  30.916  26.107   3.824
34751W        W98959   9.711   7.856  13.882
34752W        W98960  43.789  36.471  12.563
34753W        W98961  36.879  20.649  13.389
34754W        W98962  26.991  31.426  10.619
34755W        W98963   6.358  32.079   0.772
34756W        W98964  12.761  13.689   0.322
34757W        W98965   4.807  37.502  14.837
34758W        W98966  35.591  39.459  12.041
34759W        W98967  27.080  31.069  14.468
34760W        W98968  16.161  18.694   9.979
34761W        W98969  13.108  19.730   5.321
34762W        W98970  42.788  10.376  13.496
34763W        W98971  40.449  14.810  14.911
34764W        W98972   1.375  37.528  12.432
34765W        W98973  30.966  39.999   4.723
34766W        W98974   2.292  16.737   2.247
34767W        W98975  11.814   3.917  14.005
34768W        W98976  39.490  42.890   2.324
34769W        W98977  41.042  19.764  10.020
34770W        W98978  29.087  33.918  14.352
34771W        W98979   2.948  20.728  14.992
34772W        W98980   0.438  12.620   4.678
34773W        W98981  34.000  12.350   0.330
34774W        W98982  34.442  15.742   0.861
34775W        W98983  20.529  36.527  13.812
34776W        W98984  33.109  43.511  10.441
34777W        W98985  36.892  19.213  13.437
34778W        W98986   3.876   8.190   3.778
34779W        W98987  17.062  25.104  14.327
34780W        W98988  20.203  34.100  13.507
34781W        W98989  19.150  18.591  14.398
34782W        W98990  34.907  18.639   4.730
34783W        W98991  26.678   3.926  10.511
34784W        W98992  31.539  36.919   4.603
34785W        W98993  35.006  40.450   1.900
34786W        W98994   9.336  28.148   0.399
34787W        W98995  30.453  38.361  11.956
34788W        W98996   4.844  38.370  10.940
34789W        W98997   8.253  13.712   5.676
34790W        W98998  12.189   7.877   3.696
34791W        W98999  37.919  14.154  12.384
34792W        W99000   1.856   4.903   4.353
34793W        W99001  12.629  11.339  14.449
34794W        W99002  27.197  15.682   4.311
34795W        W99003  42.898  31.561  12.084
34796W        W99004  14.810   0.979   4.634
34797W        W99005   8.284  29.081   0.433
34798W        W99006  23.080  22.615   2.309
34799W        W99007  38.979  22.032  11.612
34800W        W99008   9.875  36.543   4.204
34801W        W99009  10.247   7.679   0.355
34802W        W99010   1.888  17.121  12.578
34803W        W99011  16.745  42.286  11.932
34804W        W99012   7.324  23.089  13.062
34805W        W99013  44.778  11.347  13.463
34806W        W99014  29.053  42.525  12.555
34807W        W99015   1.733  18.164   4.119
34808W        W99016   7.742  32.061  10.479
34809W        W99017  16.307  25.196  10.909
34810W        W99018  34.064  16.672   2.789
34811W        W99019  23.014  24.683  11.583
34812W        W99020  17.593  31.573   0.406
34813W        W99021  32.068  41.483   1.420
34814W        W99022   9.260  11.371   0.957
34815W        W99023  14.824  26.473  14.322
34816W        W99024  41.413  39.539   2.348
34817W        W99025  13.680  38.547  13.860
34818W        W99026  17.283  25.062   5.197
34819W        W99027  32.096  18.268   0.432
34820W        W99028  12.753  14.830   4.257
34821W        W99029  30.091  31.150   2.871
34822W        W99030   6.257  38.346   0.858
34823W        W99031  35.371  26.169   1.751
34824W        W99032  13.708  29.175  12.008
34825W        W99033   1.912  39.430  13.843
34826W        W99034  18.695  10.876  14.365
34827W        W99035  41.038  35.025   2.243
34828W        W99036  19.228   7.722  10.896
34829W        W99037  15.780  13.342  12.892
34830W        W99038  40.354  30.642   2.719
34831W        W99039  31.094  34.512  14.031
34832W        W99040   2.227   4.847  12.839
34833W        W99041  42.030  16.577   3.828
34834W        W99042  29.496  33.592   2.726
34835W        W99043  40.030  18.220   3.385
34836W        W99044  22.019  44.296   1.236
34837W        W99045  35.070  15.725   0.480
34838W        W99046  28.617  27.950   0.377
34839W        W99047  15.592  41.365  11.519
34840W        W99048  14.639  17.783  13.540
34841W        W99049  23.032  13.161  11.929
34842W        W99050   4.302  35.988   2.419
34843W        W99051  34.992   4.839   0.758
34844W        W99052  32.038  22.692  12.351
34845W        W99053  12.799  39.026   0.383
34846W        W99054  13.723   4.247  14.290
34847W        W99055  37.444  30.429   1.878
34848W        W99056  17.764  39.336   0.758
34849W        W99057  37.426   6.414  11.061
34850W        W99058  23.500  18.631  12.511
34851W        W99059  11.258  36.850   4.312
34852W        W99060  20.140  34.597  13.504
34853W        W99061   2.890  41.847  12.854
34854W        W99062   1.439  16.634   2.874
34855W        W99063  37.875  26.152  13.013
34856W        W99064   6.184  21.082  13.509
34857W        W99065  11.275   8.264   0.285
34858W        W99066  28.067  15.139  12.370
34859W        W99067  14.772  24.499   1.297
34860W        W99068  43.866  42.309   1.281
34861W        W99069   7.903  13.745  14.771
34862W        W99070   5.198   7.297  12.856
34863W        W99071  33.884  38.442  14.819
34864W        W99072  42.841  28.986   4.213
34865W        W99073  20.057  21.091   2.696
34866W        W99074  40.380  26.533   0.342
34867W        W99075  30.069  22.667   1.749
34868W        W99076  41.361   6.798  12.987
34869W        W99077   1.732  11.642   0.925
34870W        W99078  13.218   4.773  13.432
34871W        W99079  41.801  25.100   0.776
34872W        W99080  35.956   4.787   5.105
34873W        W99081  29.532  27.546  10.567
34874W        W99082   2.370  13.839  13.830
34875W        W99083  15.233  19.207   3.863
34876W        W99084  40.470   6.423  14.313
34877W        W99085  38.471  26.012  11.888
34878W        W99086   2.954  36.926   4.178
34879W        W99087  35.494  28.032   1.346
34880W        W99088  43.850   7.375  13.424
34881W        W99089  12.672  13.822  12.537
34882W        W99090  25.530  28.459  11.035
34883W        W99091   9.886  14.705  11.107
34884W        W99092   3.356  17.767  11.491
34885W        W99093   5.906  41.497  10.643
34886W        W99094  29.070   3.327   1.866
34887W        W99095  21.640  34.499  12.874
34888W        W99096   9.823   4.277  10.461
34889W        W99097  21.607  39.847   4.664
34890W        W99098   5.768   0.945  11.921
34891W        W99099  21.658   8.843   0.332
34892W        W99100  23.691  15.698  14.869
34893W        W99101  24.706  11.204  14.993
34894W        W99102  25.576   3.378  12.462
34895W        W99103  43.988   2.893  12.041
34896W        W99104  36.916   2.414  10.599
34897W        W99105   1.753  21.682   4.246
34898W        W99106  18.576   2.851   1.436
34899W        W99107  42.527  39.919   2.678
34900W        W99108  28.005  38.511   2.724
34901W        W99109  39.058  17.288  10.046
34902W        W99110  13.603  39.058   3.322
34903W        W99111  23.097   2.470   1.438
34904W        W99112  18.295  31.128  12.448
34905W        W99113   6.411  13.225   0.305
34906W        W99114  11.321   3.382   3.813
34907W        W99115  39.065  38.970   9.980
34908W        W99116  18.549  19.049  14.367
34909W        W99117  30.592   6.214  11.613
34910W        W99118  20.087  26.180  14.358
34911W        W99119  19.160  42.007   0.293
34912W        W99120  13.650  32.625   1.784
34913W        W99121   7.246   8.376   1.279
34914W        W99122   6.837   0.870  14.302
34915W        W99123  16.197  40.379   1.814
34916W        W99124  17.218  17.697  13.337
34917W        W99125  27.017   7.740   3.759
34918W        W99126  42.344  21.598  10.436
34919W        W99127  38.524   8.377  14.385
34920W        W99128  43.944   9.357  13.889
34921W        W99129  18.707  16.286   3.777
34922W        W99130  40.844  38.385  12.539
34923W        W99131  38.357  17.283  14.796
34924W        W99132  23.231  30.466  13.051
34925W        W99133  13.804   4.815  10.617
34926W        W99134  43.862  10.793  10.637
34927W        W99135  37.551  31.063   1.357
34928W        W99136   6.188  32.946  12.534
34929W        W99137  12.191   2.836   2.822
34930W        W99138   3.410  10.248  11.416
34931W        W99139  12.817  16.666   4.800
34932W        W99140  15.328  17.258  13.912
34933W        W99141   0.914  30.604  13.843
34934W        W99142  33.394  37.519  12.465
34935W        W99143  17.162  26.648  10.077
34936W        W99144  24.096  17.239   1.220
34937W        W99145  30.922  23.193  12.404
34938W        W99146   4.264  20.742  11.868
34939W        W99147  17.621   3.785  10.506
34940W        W99148  26.572  28.534   2.346
34941W        W99149  21.220  14.214   0.934
34942W        W99150  30.433  32.063  13.503
34943W        W99151   7.414  15.623   2.845
34944W        W99152  12.856   0.378   2.337
34945W        W99153   3.757  22.029  10.618
34946W        W99154  25.086  27.549  14.314
34947W        W99155  40.961  25.523  11.116
34948W        W99156   7.736  28.594   1.740
34949W        W99157   3.712  19.269   3.361
34950W        W99158  13.141   4.389  14.799
34951W        W99159  15.309  31.096   4.340
34952W        W99160  40.014   3.837  10.013
34953W        W99161  31.448  34.439   1.793
34954W        W99162  42.351  44.971   4.704
34955W        W99163  41.318   5.362  11.555
34956W        W99164  40.883   6.277  13.540
34957W        W99165   5.431  20.094  10.427
34958W        W99166  21.231  40.383   0.309
34959W        W99167  39.471  12.831  13.961
34960W        W99168   6.368  10.378  10.629
34961W        W99169  10.761   6.246  11.565
34962W        W99170  38.048  31.466  11.918
34963W        W99171  12.137  41.331  12.367
34964W        W99172  37.487  11.212  11.419
34965W        W99173  25.088  18.273  14.365
34966W        W99174  21.245  32.110  14.397
34967W        W99175  14.770  12.846  12.365
34968W        W99176  37.549   0.468   4.166
34969W        W99177  25.054  38.342  11.912
34970W        W99178  13.208  31.641   2.332
34971W        W99179  16.288  33.883  14.445
34972W        W99180  35.358  30.510   0.392
34973W        W99181  28.941   7.197   2.207
34974W        W99182  35.468  43.847  13.468
34975W        W99183  40.819  43.402   0.440
34976W        W99184  28.184  17.569   4.716
34977W        W99185  34.407  42.823  10.564
34978W        W99186  21.144   6.762  11.593
34979W        W99187  21.561   6.322  13.452
34980W        W99188   7.265  15.802  10.097
34981W        W99189  35.921  21.097   4.122
34982W        W99190   5.756  34.015   4.837
34983W        W99191  22.620  37.429   1.734
34984W        W99192  17.790  20.191   2.734
34985W        W99193   4.329  21.258   2.196
34986W        W99194   9.179  17.086  14.775
34987W        W99195  18.715  30.079  12.090
34988W        W99196   0.323   1.292  10.922
34989W        W99197   6.757  12.296  12.487
34990W        W99198   4.939  24.988  12.058
34991W        W99199   3.728  41.499  11.036
34992W        W99200   3.402   8.255  12.471
34993W        W99201  28.475   3.731   3.166
34994W        W99202  11.689  40.331   3.291
34995W        W99203  37.409   1.336  14.853
34996W        W99204  44.923   0.783  13.038
34997W        W99205   9.882  10.814   1.790
34998W        W99206  37.530  19.134  12.908
34999W        W99207  26.003  31.462  13.989
35000W        W99208  23.139  44.382  11.468
35001W        W99209  41.337  15.616  13.057
35002W        W99210  42.487  16.081   1.280
35003W        W99211  26.065  41.022  14.785
35004W        W99212  17.617   2.465  12.014
35005W        W99213   3.951   3.839  13.047
35006W        W99214  13.679   7.249   0.915
35007W        W99215  33.394  10.779   3.301
35008W        W99216   6.913   6.684  12.053
35009W        W99217  26.009   7.298   4.284
35010W        W99218  30.422  13.205  14.476
35011W        W99219  27.167  19.242   3.694
35012W        W99220   6.236  28.454   3.696
35013W        W99221  11.263   0.428  14.946
35014W        W99222  14.792  38.455  10.473
35015W        W99223   6.697  21.188  14.495
35016W        W99224  33.599  21.249  12.881
35017W        W99225  26.565  22.510  12.870
35018W        W99226  42.008  12.230   3.291
35019W        W99227  41.474  15.122  14.488
35020W        W99228   2.444  37.539   3.691
35021W        W99229  28.166  17.242  12.958
35022W        W99230  10.778  13.699  11.464
35023W        W99231  14.739  31.560  11.536
35024W        W99232  31.944   6.819  14.368
35025W        W99233  38.419  24.164  14.484
35026W        W99234   3.307  36.946   4.116
35027W        W99235  37.347  42.795  13.803
35028W        W99236  39.969  27.958   1.739
35029W        W99237  28.058   0.750   1.373
35030W        W99238  26.606  21.261   1.808
35031W        W99239  43.883  30.947  12.474
35032W        W99240  40.415  28.434  14.944
35033W        W99241  37.336  27.061   5.151
35034W        W99242  28.096  23.594   0.866
35035W        W99243  17.767   0.792   4.839
35036W        W99244  37.441  37.922  11.048
35037W        W99245  27.963  29.430  13.857
35038W        W99246  44.981  17.703   0.882
35039W        W99247  43.988   1.450  10.949
35040W        W99248  44.944  29.609   1.834
35041W        W99249  32.928   0.277  12.093
35042W        W99250  21.691   4.377  10.020
35043W        W99251  41.008  44.475  14.399
35044W        W99252  21.515  43.838   3.631
35045W        W99253   6.410   8.218  10.429
35046W        W99254  19.696   9.323  10.109
35047W        W99255  17.282   8.168   4.114
35048W        W99256   4.833  12.718  12.046
35049W        W99257   5.411  19.168  12.400
35050W        W99258  10.150  14.663   3.844
35051W        W99259  20.714  39.499  11.095
35052W        W99260  11.678  22.570  11.076
35053W        W99261  13.822   3.844  12.401
35054W        W99262   6.283  22.236   4.309
35055W        W99263  34.509  39.521   2.283
35056W        W99264  18.152  32.074  12.541
35057W        W99265  40.002  28.558  14.462
35058W        W99266  30.045  34.531   1.367
35059W        W99267  23.605  17.256  11.004
35060W        W99268  15.718   4.220   0.784
35061W        W99269  30.478  40.913  12.093
35062W        W99270  20.224  33.088   2.234
35063W        W99271  29.612  35.388   0.877
35064W        W99272   0.855  24.578   4.289
35065W        W99273  18.221  28.466  12.525
35066W        W99274  13.268   3.895  12.349
35067W        W99275  17.632  40.810   1.895
35068W        W99276  40.942  43.778   3.792
35069W        W99277   9.849  41.402  10.971
35070W        W99278  29.432  29.978   4.660
35071W        W99279  17.151  26.523  13.448
35072W        W99280  17.745   4.404   1.240
35073W        W99281  22.235  22.512   3.674
35074W        W99282  33.469  28.539  10.561
35075W        W99283  35.441  40.953  12.537
35076W        W99284  11.294  38.010   4.797
35077W        W99285  33.037  36.382  10.496
35078W        W99286  39.048  25.157  10.581
35079W        W99287  19.267  28.145   2.379
35080W        W99288  26.145  13.707  11.944
35081W        W99289  21.064  21.606   3.376
35082W        W99290  43.480  28.515  10.150
35083W        W99291   8.233  22.201  14.853
35084W        W99292  36.560  26.547   0.868
35085W        W99293  13.247  27.467   0.480
35086W        W99294  29.000  20.072  13.439
35087W        W99295   1.764  38.552   2.708
35088W        W99296  42.858   1.328  12.574
35089W        W99297  31.480  19.607   1.382
35090W        W99298  17.645   7.406   2.684
35091W        W99299  41.394   5.285  10.985
35092W        W99300  35.050  23.205  11.554
35093W        W99301  24.630  31.038   2.280
35094W        W99302  43.377  30.519   3.772
35095W        W99303  17.662  36.928   4.161
35096W        W99304  29.164  27.127  13.514
35097W        W99305   9.293  37.832   1.437
35098W        W99306   7.716  14.320   2.738
35099W        W99307  12.735  38.381   4.738
35100W        W99308  37.880  38.505   0.857
35101W        W99309   0.352   5.362  12.551
35102W        W99310  34.912  12.265  14.416
35103W        W99311   6.896   2.932  12.022
35104W        W99312   7.851   3.457  10.047
35105W        W99313  29.922  34.032  10.930
35106W        W99314  41.798  23.077   1.784
35107W        W99315  17.200  23.510   9.968
35108W        W99316  26.053  11.796   4.761
35109W        W99317  25.063  12.762   0.432
35110W        W99318  18.289  15.222   3.203
35111W        W99319  27.513   1.259  14.843
35112W        W99320   3.942   6.871   0.351
35113W        W99321   0.390   6.756  14.818
35114W        W99322  41.039  15.689   1.732
35115W        W99323  21.553  19.119  12.487
35116W        W99324  14.598  40.818  11.420
35117W        W99325  31.029  44.382  13.910
35118W        W99326  15.238  23.680  12.919
35119W        W99327  30.111   5.331  14.897
35120W        W99328  25.533  29.120  14.346
35121W        W99329  44.968  13.803  13.426
35122W        W99330   9.378  16.632   0.935
35123W        W99331  26.634  31.531   4.736
35124W        W99332  30.525   9.886  12.534
35125W        W99333  22.106  30.593   0.928
35126W        W99334  42.986  28.435   1.751
35127W        W99335  26.534  14.680   0.308
35128W        W99336   5.805  31.915  11.115
35129W        W99337  10.327  34.484  11.428
35130W        W99338  29.543  33.485   3.342
35131W        W99339  26.549  27.489   3.146
35132W        W99340  26.526   6.771   1.332
35133W        W99341   3.953  15.740  11.980
35134W        W99342  22.152  38.061  10.514
35135W        W99343  23.004  27.997   1.764
35136W        W99344  14.713   8.323   2.864
35137W        W99345   1.361  11.808  10.628
35138W        W99346  10.280  29.580  11.961
35139W        W99347   8.322  10.650  10.487
35140W        W99348  40.945   7.273  13.414
35141W        W99349  13.288   4.915  13.021
35142W        W99350  29.456  32.094  12.520
35143W        W99351  38.558  32.886  13.953
35144W        W99352  29.149  24.990   1.742
35145W        W99353  15.785  29.609  14.963
35146W        W99354   4.802  29.054  14.352
35147W        W99355  16.690   3.709  14.412
35148W        W99356  35.926  27.061   3.750
35149W        W99357  34.443  41.405   4.170
35150W        W99358  12.327  27.057   0.271
35151W        W99359   1.455   1.776  11.534
35152W        W99360  27.147  17.733  14.946
35153W        W99361  36.870  32.575   4.732
35154W        W99362  31.636  40.995  11.566
35155W        W99363  44.892  30.117  13.311
35156W        W99364  23.185  12.720   3.776
35157W        W99365  19.736  26.606   0.305
35158W        W99366  42.938  26.645  11.517
35159W        W99367  26.175   4.244  13.012
35160W        W99368  40.963   0.435   0.758
35161W        W99369  27.179   3.261   3.864
35162W        W99370  41.302  24.121  13.477
35163W        W99371  31.516  23.159  14.786
35164W        W99372  25.643  22.049  11.037
35165W        W99373  27.044  17.627  11.450
35166W        W99374   6.723  14.821  13.356
35167W        W99375  38.528  30.470   4.198
35168W        W99376  21.055  31.002   3.370
35169W        W99377  27.972  41.869  14.306
35170W        W99378  21.046  17.671  14.970
35171W        W99379  17.306  23.588   4.219
35172W        W99380  16.720  36.454   2.868
35173W        W99381  26.078  24.554  10.626
35174W        W99382  14.730   0.426  12.084
35175W        W99383  14.277  16.738  12.478
35176W        W99384  27.522  35.054  11.382
35177W        W99385  31.143  35.974  13.918
35178W        W99386  14.259  18.789   4.724
35179W        W99387   3.268  31.043  11.055
35180W        W99388   3.930   1.370   0.281
35181W        W99389  32.022   9.291  12.986
35182W        W99390  21.091  11.227  10.036
35183W        W99391  30.454  38.401   0.359
35184W        W99392   7.267  43.949   2.701
35185W        W99393   6.244  36.373   2.699
35186W        W99394  21.757  33.122  12.014
35187W        W99395  16.260  22.555   2.290
35188W        W99396  14.680  34.945  11.432
35189W        W99397  44.914  25.193   4.282
35190W        W99398  24.212  27.503  14.763
35191W        W99399  17.103  23.084   3.732
35192W        W99400  26.645  15.696   0.811
35193W        W99401  19.065  21.070   1.331
35194W        W99402  15.699  41.455   1.420
35195W        W99403   4.246   2.864   1.810
35196W        W99404  19.773  21.755  11.869
35197W        W99405  42.976  21.738   2.335
35198W        W99406  22.568  10.251  11.001
35199W        W99407  24.519   1.748   0.807
35200W        W99408   9.786  33.964   1.231
35201W        W99409  43.460   8.720   1.242
35202W        W99410  24.069  14.171  14.812
35203W        W99411   9.768  40.008  12.911
35204W        W99412  15.646  43.351  10.410
35205W        W99413  40.371  14.165  12.049
35206W        W99414  17.243  13.789  11.585
35207W        W99415  41.486  33.414   0.957
35208W        W99416  41.988  23.589  13.873
35209W        W99417  21.164   2.328   2.256
35210W        W99418  18.167  17.611   2.372
35211W        W99419  22.517   3.294  11.484
35212W        W99420   2.327  30.005   4.770
35213W        W99421  38.063  12.350  10.921
35214W        W99422  18.153   7.875  10.998
35215W        W99423  22.747  25.566   3.770
35216W        W99424  30.163  31.473   4.680
35217W        W99425   7.324  24.056   3.854
35218W        W99426  13.107  33.073  10.903
35219W        W99427  24.010  25.615   0.882
35220W        W99428  29.437  31.596   1.774
35221W        W99429  32.625  15.789  14.799
35222W        W99430  23.685   4.227   4.217
35223W        W99431  33.500  32.067  13.412
35224W        W99432  18.122  18.606   1.752
35225W        W99433  34.093  11.268   1.847
35226W        W99434  28.457  15.712  10.144
35227W        W99435   5.366  30.029   4.664
35228W        W99436   6.378   2.748   4.801
35229W        W99437  13.813  10.825  11.426
35230W        W99438  15.813  34.067  12.985
35231W        W99439   4.242  25.701   2.895
35232W        W99440  25.483  12.214  11.968
35233W        W99441  12.233  41.343   1.371
35234W        W99442   8.736   2.874  13.992
35235W        W99443  40.831  20.617   2.884
35236W        W99444  19.210   7.346   2.206
35237W        W99445  32.135  21.056  14.963
35238W        W99446  24.628  24.063   0.358
35239W        W99447   7.848  38.049  11.502
35240W        W99448  35.854  28.632   2.768
35241W        W99449  44.505  43.013  12.874
35242W        W99450  21.578   5.907  10.156
35243W        W99451  34.564  25.640  12.437
35244W        W99452  18.124  18.766   3.637
35245W        W99453  11.144  19.230   0.475
35246W        W99454  34.028  33.437   4.199
35247W        W99455  26.110  34.033  14.344
35248W        W99456  39.961  42.911  12.460
35249W        W99457   9.150  29.133  14.299
35250W        W99458  32.609  21.605   4.339
35251W        W99459   6.409  38.374   1.737
35252W        W99460  21.660  31.150   2.719
35253W        W99461  24.211  44.437  11.932
35254W        W99462  16.676  10.822   2.751
35255W        W99463   1.792   5.328   1.232
35256W        W99464   3.399  23.632   9.960
35257W        W99465   8.277  42.835   1.254
35258W        W99466  12.846  42.841   0.790
35259W        W99467  35.105  36.947   4.352
35260W        W99468  30.047   7.766   0.904
35261W        W99469  26.058  35.429  14.280
35262W        W99470  26.581   1.940  12.535
35263W        W99471   9.178  25.051  12.089
35264W        W99472  11.134  12.677   1.379
35265W        W99473  10.707   6.738  14.458
35266W        W99474   1.236   5.774   1.848
35267W        W99475   3.796  29.015  12.942
35268W        W99476  20.260  27.089   2.892
35269W        W99477  24.212   3.284  10.102
35270W        W99478  24.163  43.287  11.442
35271W        W99479  10.852  42.359   3.363
35272W        W99480  20.685  31.140  10.427
35273W        W99481   3.228  32.436  14.771
35274W        W99482  40.415   2.267   0.734
35275W        W99483   0.402  12.787   3.746
35276W        W99484  39.441  38.441  11.007
35277W        W99485  33.442   8.798  13.357
35278W        W99486  25.153   7.185  12.839
35279W        W99487  32.093  17.124  11.476
35280W        W99488  22.029   6.714   4.328
35281W        W99489  34.572  25.056  14.893
35282W        W99490  18.156   3.888   3.308
35283W        W99491  39.478  36.554  12.340
35284W        W99492  10.320  27.952  12.469
35285W        W99493  24.985   7.261  12.030
35286W        W99494  20.146  23.159   1.819
35287W        W99495   9.870  44.449  14.838
35288W        W99496  24.110  20.628  14.021
35289W        W99497  18.573  44.377  10.034
35290W        W99498  31.628  43.999  14.774
35291W        W99499  23.182  27.013   4.242
35292W        W99500   7.262   3.890  11.038
35293W        W99501  40.348   3.809  11.070
35294W        W99502  10.698  14.185  14.396
35295W        W99503  21.100  25.574   4.185
35296W        W99504   5.767  22.717   0.913
35297W        W99505  38.417   2.319   1.818
35298W        W99506  33.987   0.423  10.482
35299W        W99507  39.409  26.990  11.978
35300W        W99508  44.330  28.577  12.902
35301W        W99509  38.830   1.908  10.021
35302W        W99510  12.824  31.948  12.535
35303W        W99511  33.616   6.224   5.224
35304W        W99512   0.971   8.856   5.201
35305W        W99513  39.007  42.438   4.217
35306W        W99514  23.678  34.405   4.131
35307W        W99515  16.293  22.009   0.482
35308W        W99516  44.275  36.443   5.123
35309W        W99517  29.489   9.724  14.411
35310W        W99518  31.942   9.714   1.326
35311W        W99519  14.265  24.017   4.337
35312W        W99520  26.960  37.083  12.902
35313W        W99521  36.355  35.877  11.042
35314W        W99522  21.544  27.949  14.463
35315W        W99523   2.336  44.497   1.397
35316W        W99524  20.589  25.522   0.295
35317W        W99525  24.559  13.761  13.950
35318W        W99526  37.954  40.008  11.593
35319W        W99527  40.870  19.744   2.894
35320W        W99528  21.588   0.402  13.443
35321W        W99529  25.021   5.758   4.308
35322W        W99530  41.913  41.893  11.886
35323W        W99531  28.644   9.199   2.394
35324W        W99532  43.450   2.401   4.162
35325W        W99533  13.194   4.402  14.281
35326W        W99534  16.247  20.556  14.876
35327W        W99535  12.666  38.959   0.948
35328W        W99536   3.326  22.674   1.270
35329W        W99537  34.409  16.589  10.555
35330W        W99538  17.610   1.426  13.020
35331W        W99539   0.830   5.199  12.876
35332W        W99540   8.708  13.667  11.531
35333W        W99541  14.824  13.272   4.238
35334W        W99542  14.316  34.025   3.175
35335W        W99543  30.007  35.043  11.978
35336W        W99544  15.185   4.846  11.043
35337W        W99545  31.505  10.187   4.804
35338W        W99546  25.087  29.142   3.629
35339W        W99547  15.110   8.333  10.949
35340W        W99548   8.368  41.401  13.400
35341W        W99549  11.237  11.195  10.602
35342W        W99550  14.706  25.173   3.260
35343W        W99551  21.642  40.863  14.785
35344W        W99552  38.965  40.971   2.309
35345W        W99553  34.446  36.447  12.029
35346W        W99554  23.727   2.881  12.487
35347W        W99555  20.741  44.952  10.440
35348W        W99556  20.579  22.214   2.702
35349W        W99557  36.398  33.974   2.198
35350W        W99558  38.848  11.148   3.292
35351W        W99559  31.957   6.870   0.432
35352W        W99560  41.876  22.104   1.266
35353W        W99561  32.603  31.412   2.271
35354W        W99562  18.262  42.933   1.828
35355W        W99563  30.016  10.784  14.463
35356W        W99564  17.305  31.083  10.416
35357W        W99565  38.074   3.344   2.324
35358W        W99566  15.316   4.442  12.869
35359W        W99567  19.657  44.792   1.720
35360W        W99568  15.606  19.221   4.757
35361W        W99569  28.569  44.894   0.409
35362W        W99570  28.493  14.806  12.052
35363W        W99571   1.445  43.400  14.885
35364W        W99572   3.286  30.967   0.824
35365W        W99573  29.007   7.358  10.408
35366W        W99574  44.894  38.021   1.243
35367W        W99575   0.875  32.035  12.375
35368W        W99576  25.984   9.833   0.913
35369W        W99577  44.471  33.919   4.315
35370W        W99578  28.146  41.421  10.065
35371W        W99579  29.480  33.399  13.433
35372W        W99580   3.868   7.806   4.126
35373W        W99581  39.022   0.471   3.723
35374W        W99582  25.007  14.197  12.902
35375W        W99583  22.626  18.109   3.762
35376W        W99584  33.887   7.871   2.255
35377W        W99585  43.936  33.455   9.558
35378W        W99586  28.458   4.741  12.018
35379W        W99587  39.430  42.782  14.482
35380W        W99588   5.413  24.710   0.813
35381W        W99589  10.198  39.389  13.487
35382W        W99590   0.408   0.967   1.866
35383W        W99591  32.522  23.555   4.656
35384W        W99592  27.463  43.825   2.752
35385W        W99593  18.285  38.491  12.086
35386W        W99594  26.196  15.186  13.479
35387W        W99595   2.814  19.581  14.368
35388W        W99596   0.340  42.991   3.283
35389W        W99597  26.139   6.410  11.032
35390W        W99598  14.807   0.985   1.414
35391W        W99599  16.258  36.588  13.490
35392W        W99600  31.537  31.497   1.882
35393W        W99601   7.790  14.247  11.918
35394W        W99602  21.619  30.973  11.987
35395W        W99603  27.446  43.002  12.458
35396W        W99604  44.889  30.422  14.316
35397W        W99605  36.970  12.780   4.185
35398W        W99606  18.244  27.176   3.711
35399W        W99607  13.283   5.281   3.649
35400W        W99608   1.931  35.971  13.034
35401W        W99609  37.519  18.290   1.804
35402W        W99610  25.611  42.347  11.981
35403W        W99611   3.275  19.086  12.506
35404W        W99612   3.864  14.189  14.023
35405W        W99613  23.230   8.656   3.150
35406W        W99614   5.842  15.301   1.790
35407W        W99615  34.374  40.822   2.733
35408W        W99616  20.198  28.588   1.721
35409W        W99617  17.735   3.319  11.111
35410W        W99618  13.248  18.766   2.223
35411W        W99619  42.958  17.085  13.489
35412W        W99620  10.810   9.832  12.464
35413W        W99621  16.255  35.012  10.566
35414W        W99622  18.686  39.325   0.398
35415W        W99623  10.688  16.695   0.391
35416W        W99624  11.229  21.172  14.779
35417W        W99625  35.084  27.051  14.895
35418W        W99626  25.643  10.205  12.371
35419W        W99627  43.374  26.475   0.771
35420W        W99628  28.612  13.748   2.248
35421W        W99629  40.496  24.103  11.468
35422W        W99630  42.885  18.268  14.963
35423W        W99631  27.168  22.726   2.251
35424W        W99632  21.104  30.491   2.710
35425W        W99633  28.505  35.082   1.793
35426W        W99634  30.518  43.353  11.064
35427W        W99635  30.072  40.894  14.393
35428W        W99636  35.370  15.117  13.060
35429W        W99637   7.236  25.013  14.322
35430W        W99638   5.320  28.954   2.866
35431W        W99639  27.946  16.734   1.745
35432W        W99640  41.447  32.506  14.317
35433W        W99641   0.377  40.532   1.428
35434W        W99642  36.511  23.690   3.797
35435W        W99643  21.560  41.346  10.520
35436W        W99644  11.219  37.554   4.122
35437W        W99645  36.000  20.609  10.587
35438W        W99646  28.653   9.760   1.904
35439W        W99647   6.826  32.075   1.409
35440W        W99648   9.288   4.261  10.950
35441W        W99649  33.418  40.993  12.931
35442W        W99650  13.305  23.611  12.414
35443W        W99651   2.898  35.043  11.108
35444W        W99652  26.492  20.177   1.264
35445W        W99653  29.123  32.965   1.726
35446W        W99654  23.022   1.405   1.311
35447W        W99655  28.061  30.016   2.195
35448W        W99656  23.601  16.192  10.898
35449W        W99657  21.533  16.616  12.944
35450W        W99658  44.871  19.638   0.965
35451W        W99659  32.095  32.606   4.641
35452W        W99660  30.984   8.334   3.785
35453W        W99661  27.024  17.161  12.521
35454W        W99662  29.517  10.381   1.377
35455W        W99663  35.940  30.119   3.716
35456W        W99664  42.957  37.061  12.043
35457W        W99665   9.739  15.770  10.150
35458W        W99666  23.124   7.255   1.885
35459W        W99667  24.023  19.205  13.915
35460W        W99668  24.070   4.737   0.741
35461W        W99669  34.387  31.133  11.868
35462W        W99670   3.459   6.313  11.861
35463W        W99671  24.674  42.011  11.449
35464W        W99672  13.767  26.637   9.986
35465W        W99673   8.295  32.482  13.368
35466W        W99674  28.136   5.843  10.638
35467W        W99675  33.011  37.478  13.529
35468W        W99676  44.810  20.559   0.387
35469W        W99677  16.732  31.550  11.954
35470W        W99678  43.294  14.589   4.233
35471W        W99679  36.937  30.603   4.221
35472W        W99680  22.665  23.656   3.295
35473W        W99681   9.372  13.225   1.850
35474W        W99682  13.798  35.465  11.577
35475W        W99683   8.198   9.193   0.394
35476W        W99684  29.986  10.160  14.302
35477W        W99685  36.927  11.310   3.801
35478W        W99686  16.775  27.632  11.567
35479W        W99687  31.941  27.545  13.432
35480W        W99688  25.612  29.098  12.962
35481W        W99689  36.924  26.530   4.826
35482W        W99690  44.459  41.338   1.866
35483W        W99691  42.426  11.351   1.374
35484W        W99692  31.530  40.463   4.258
35485W        W99693   8.270  33.567  14.766
35486W        W99694  41.966  42.523  14.424
35487W        W99695  30.574  40.875  14.882
35488W        W99696  18.259  34.587  12.428
35489W        W99697  27.546  40.357   3.358
35490W        W99698  28.565  41.983  14.305
35491W        W99699   5.892  43.516   4.120
35492W        W99700  21.584  30.008   0.758
35493W        W99701  23.684  13.149   4.290
35494W        W99702  30.506  24.008  14.485
35495W        W99703  36.074   5.731   1.368
35496W        W99704   5.424   8.807  11.443
35497W        W99705   6.184  41.364   2.759
35498W        W99706  39.851  16.108   4.755
35499W        W99707   1.390  10.349   4.301
35500W        W99708  27.082  12.278  14.390
35501W        W99709  41.840   6.756   3.319
35502W        W99710  10.666  11.743   0.868
35503W        W99711  24.658  38.968  14.886
35504W        W99712  44.421  42.450   0.273
35505W        W99713  26.545   1.262  13.516
35506W        W99714   3.309  22.595  11.597
35507W        W99715  28.554   8.385  13.899
35508W        W99716  40.803  24.612   1.225
35509W        W99717   3.290  14.136  11.036
35510W        W99718  22.568  30.956  11.922
35511W        W99719  15.274  43.971  13.806
35512W        W99720  28.983   8.209  11.423
35513W        W99721  20.256  13.243  12.874
35514W        W99722  17.790  38.376   1.411
35515W        W99723  28.448  22.179   1.395
35516W        W99724  33.461   5.364  13.400
35517W        W99725  32.100  26.961   3.741
35518W        W99726  32.528  15.176  12.555
35519W        W99727  11.782  13.710  14.347
35520W        W99728  35.484  27.982  13.419
35521W        W99729  30.065   2.740  14.277
35522W        W99730  38.471   4.304  10.601
35523W        W99731  43.438  11.244  12.843
35524W        W99732   1.313  41.481   3.361
35525W        W99733  12.318  13.664   4.755
35526W        W99734  13.196  25.698  11.960
35527W        W99735   5.337  17.700  12.933
35528W        W99736  26.188  23.074  12.460
35529W        W99737   1.253  26.034   4.816
35530W        W99738  41.878  34.971   1.254
35531W        W99739  27.449  39.498  12.031
35532W        W99740  40.445  31.606   4.311
35533W        W99741   0.355  44.888  10.909
35534W        W99742  33.891  23.105  12.465
35535W        W99743   9.799   9.733  12.554
35536W        W99744  22.685  24.610  13.807
35537W        W99745   0.474  32.079  11.590
35538W        W99746  32.439  43.516  11.001
35539W        W99747  17.121  33.899   2.301
35540W        W99748  15.582  20.758   3.373
35541W        W99749  29.114  39.974   1.231
35542W        W99750  12.750  31.069  12.868
35543W        W99751  31.462  43.771   2.719
35544W        W99752  18.145  42.823  14.758
35545W        W99753  38.908  23.533   4.703
35546W        W99754  37.008  11.691  12.926
35547W        W99755  19.763  43.944   2.822
35548W        W99756  29.958  14.599  11.044
35549W        W99757  31.467  40.367  10.643
35550W        W99758  31.412  27.011  12.863
35551W        W99759  17.714  27.062   2.733
35552W        W99760  44.787  34.106   4.666
35553W        W99761  27.991  15.184   1.222
35554W        W99762  17.756   3.735  13.517
35555W        W99763  21.118  26.071   3.863
35556W        W99764  10.733   5.238   4.665
35557W        W99765  33.532  29.497   0.466
35558W        W99766  42.870  22.085   0.256
35559W        W99767  25.564   9.742   0.749
35560W        W99768  33.025  31.900  11.922
35561W        W99769   8.404  35.491  13.402
35562W        W99770   8.822  15.681   1.694
35563W        W99771  42.427  24.704  11.001
35564W        W99772  43.977  37.888  14.990
35565W        W99773  17.713  38.883   5.303
35566W        W99774   2.392   8.763   0.955
35567W        W99775   0.481  13.801  14.903
35568W        W99776  30.467  30.122   3.656
35569W        W99777   5.777  15.168   0.928
35570W        W99778  28.968  38.071   4.161
35571W        W99779  19.725  12.623   3.282
35572W        W99780   3.324  22.110  12.944
35573W        W99781  20.190  23.628  14.376
35574W        W99782  12.347  35.388  14.952
35575W        W99783   9.810  15.649  13.359
35576W        W99784  39.813  12.321   4.798
35577W        W99785  39.397  36.425   1.762
35578W        W99786  39.993  12.182   1.899
35579W        W99787  25.098   5.317   0.330
35580W        W99788  28.509  30.931  13.381
35581W        W99789   1.250  20.608   2.835
35582W        W99790   6.304  43.355   3.656
35583W        W99791  17.116   7.904   4.608
35584W        W99792   3.398  40.322   2.405
35585W        W99793   1.421  23.518  13.325
35586W        W99794   0.407   9.707   0.463
35587W        W99795  23.650  33.979   4.328
35588W        W99796  36.981  31.101  11.905
35589W        W99797  10.140  35.546  12.844
35590W        W99798  36.584   6.412   0.765
35591W        W99799  25.541  12.845   4.113
35592W        W99800  10.717  28.534  13.056
35593W        W99801  21.546  12.121  11.967
35594W        W99802  17.222  25.508  11.475
35595W        W99803  26.514   3.750  11.545
35596W        W99804  25.686  31.092   3.349
35597W        W99805   6.890   1.347  11.976
35598W        W99806  23.050   5.880  14.380
35599W        W99807  28.492  29.469   3.845
35600W        W99808  12.833  10.264   1.790
35601W        W99809  10.781   2.872  13.490
35602W        W99810   5.391  44.505  10.133
35603W        W99811   9.174  19.205   1.855
35604W        W99812  17.269  28.051  13.981
35605W        W99813   2.726  23.665   2.200
35606W        W99814  44.969   8.269   2.791
35607W        W99815   4.407   9.769  11.413
35608W        W99816  16.788   8.893  14.866
35609W        W99817   2.417   0.403  10.530
35610W        W99818  42.289  19.599   3.263
35611W        W99819  30.915  29.661  14.992
35612W        W99820  25.582  22.667   5.278
35613W        W99821  11.208  28.537   0.932
35614W        W99822  35.876  36.041  13.472
35615W        W99823  33.448  15.752  12.071
35616W        W99824   5.849  21.085   0.357
35617W        W99825  19.109  39.823   0.337
35618W        W99826   3.271  13.167  13.924
35619W        W99827  13.674   4.265   3.235
35620W        W99828   5.233  24.560   2.666
35621W        W99829   1.916  15.091   2.344
35622W        W99830  33.530  27.500   0.791
35623W        W99831  30.531  25.172  13.447
35624W        W99832  26.208   8.665   3.238
35625W        W99833   2.778  33.545  12.455
35626W        W99834  44.296  10.868  14.781
35627W        W99835  19.539  14.135  11.571
35628W        W99836   1.823  35.872  12.355
35629W        W99837  12.250  42.899   1.762
35630W        W99838  14.730   2.746   2.389
35631W        W99839  37.938  44.995  10.462
35632W        W99840  34.025  14.115   4.753
35633W        W99841  16.206  29.055   3.712
35634W        W99842  40.523   1.957  10.933
35635W        W99843  34.492  17.293  14.419
35636W        W99844  31.507  19.614   3.713
35637W        W99845   4.379  26.170   2.199
35638W        W99846   9.303  36.962   1.395
35639W        W99847  43.843  32.559  14.884
35640W        W99848  34.103  40.037   2.840
35641W        W99849   1.405  13.736  11.920
35642W        W99850   7.321  44.870   1.813
35643W        W99851  23.130  10.215   1.408
35644W        W99852  41.456  42.804  10.586
35645W        W99853  27.071   6.901  13.515
35646W        W99854  11.164  34.594   4.190
35647W        W99855  38.529   3.228  10.967
35648W        W99856  42.463  21.564   3.797
35649W        W99857  25.656  34.049   4.290
35650W        W99858  31.604  35.882   1.405
35651W        W99859  24.679  43.411  10.566
35652W        W99860  29.942  32.960  11.426
35653W        W99861  35.552  24.509  14.374
35654W        W99862  23.170   3.843   3.186
35655W        W99863   4.836  12.720   4.623
35656W        W99864  37.078   4.414   4.138
35657W        W99865  21.665  42.499   2.322
35658W        W99866  37.034  21.040   2.851
35659W        W99867  44.980  40.324  13.332
35660W        W99868  41.029  37.990   0.407
35661W        W99869  26.462  22.527  13.465
35662W        W99870   2.400  23.526   0.464
35663W        W99871  34.979   4.295   1.776
35664W        W99872  27.157  24.010  13.960
35665W        W99873   9.290   3.779   0.293
35666W        W99874  14.329   7.689  12.971
35667W        W99875  44.968  32.956  12.563
35668W        W99876  38.528  37.336  10.606
35669W        W99877   2.890  42.775  13.335
35670W        W99878   1.841   7.697  10.520
35671W        W99879   6.726  13.114  12.497
35672W        W99880  21.247  14.116   0.281
35673W        W99881  27.980  27.503  11.099
35674W        W99882  11.718   3.825   0.783
35675W        W99883   5.881   7.211   0.753
35676W        W99884  34.078  20.094   1.821
35677W        W99885  33.530  37.383  10.147
35678W        W99886  43.884  12.258   0.727
35679W        W99887   7.673  38.060   3.740
35680W        W99888   2.232   2.820   1.233
35681W        W99889   4.743  10.238   1.905
35682W        W99890   6.736   8.252   2.188
35683W        W99891   5.827  11.657  14.424
35684W        W99892  33.124  38.972  12.843
35685W        W99893  17.224  29.055  14.976
35686W        W99894  42.786  42.361  14.485
35687W        W99895  14.622   1.241   3.300
35688W        W99896  18.791  34.103   0.907
35689W        W99897  38.533  27.976  12.476
35690W        W99898   0.349   4.780  14.843
35691W        W99899  34.449   1.775   0.774
35692W        W99900   0.958  28.055   1.836
35693W        W99901  26.171   6.304  14.783
35694W        W99902   1.874  13.222   4.123
35695W        W99903  25.493  14.683   1.834
35696W        W99904  17.165  37.877   1.902
35697W        W99905  29.111  19.136   0.246
35698W        W99906  21.722  44.897   3.641
35699W        W99907  12.241  44.899   3.805
35700W        W99908  41.438  32.416  14.951
35701W        W99909  42.821   6.754  13.446
35702W        W99910  41.460  38.541  13.055
35703W        W99911  15.687  13.640   3.302
35704W        W99912  44.493   9.780  13.922
35705W        W99913  31.550  27.028   3.669
35706W        W99914  28.458  20.643   4.667
35707W        W99915   5.833  33.537  11.417
35708W        W99916   0.913   1.267  13.946
35709W        W99917  25.061  24.622  12.978
35710W        W99918  37.862  30.088   2.850
35711W        W99919  29.148   9.870   4.340
35712W        W99920   5.428  39.943   4.707
35713W        W99921  44.311  37.835  12.840
35714W        W99922   5.716  44.999   3.265
35715W        W99923  32.527   2.410  11.033
35716W        W99924  15.717  10.227   4.316
35717W        W99925   1.329  44.474   3.330
35718W        W99926  40.437  17.264  13.333
35719W        W99927  18.069  19.533   4.663
35720W        W99928  32.028  11.333  13.473
35721W        W99929  28.127  41.910  14.878
35722W        W99930  26.157  10.797   1.866
35723W        W99931  40.471  33.909   3.809
35724W        W99932  43.778  44.398  10.935
35725W        W99933  37.458   5.194   4.669
35726W        W99934  41.906  40.967  14.460
35727W        W99935  24.668  29.494   2.387
35728W        W99936  40.420   3.726  11.520
35729W        W99937  10.727  18.651  13.405
35730W        W99938  23.201  23.050   4.288
35731W        W99939  12.630  11.689  14.858
35732W        W99940  19.206   6.891  11.432
35733W        W99941  40.489  20.230  10.114
35734W        W99942   4.703  22.655  14.851
35735W        W99943  22.144   7.737   0.425
35736W        W99944  21.573  10.633  14.998
35737W        W99945  44.261  18.632  13.330
35738W        W99946  30.944   3.303  14.416
35739W        W99947  34.582  44.334  10.951
35740W        W99948  28.641   6.819  11.879
35741W        W99949  38.899  23.600  13.843
35742W        W99950  27.179  22.106  12.970
35743W        W99951  16.193  42.892   3.864
35744W        W99952   0.400   9.289   3.667
35745W        W99953   7.736  12.637   1.268
35746W        W99954  21.095  24.610  10.634
35747W        W99955  15.602  43.768  13.874
35748W        W99956  23.528  12.755  11.505
35749W        W99957   9.732   9.283  14.479
35750W        W99958   6.736  43.312   0.412
35751W        W99959  17.089   1.950   3.312
35752W        W99960   5.864  24.679  14.310
35753W        W99961  29.596  33.544   3.740
35754W        W99962  31.062  44.918   1.841
35755W        W99963  20.675  15.806   0.452
35756W        W99964  39.033   0.451   1.919
35757W        W99965  16.309   2.303  12.519
35758W        W99966  32.509  17.750  12.909
35759W        W99967   1.450  13.713  14.442
35760W        W99968  28.574   9.174   3.190
35761W        W99969  30.145  13.237  12.096
35762W        W99970  15.805  24.553  10.155
35763W        W99971  38.997   7.759  11.888
35764W        W99972   1.956  32.029  11.923
35765W        W99973  39.490  11.638   2.361
35766W        W99974   8.702  16.137   1.791
35767W        W99975  40.954  43.332  12.462
35768W        W99976  29.971  32.064  10.898
35769W        W99977  39.539   7.816  11.415
35770W        W99978  20.103   4.702   9.581
35771W        W99979  18.770  16.220  10.047
35772W        W99980  20.587  41.449  14.348
35773W        W99981  32.615   3.835   2.262
35774W        W99982  14.308  31.459   0.358
35775W        W99983  16.572  34.029  14.513
35776W        W99984  21.062  34.933   4.681
35777W        W99985  26.553  13.674  12.444
35778W        W99986  43.334  27.984  14.872
35779W        W99987  41.511   8.174   2.226
35780W        W99988  37.878  29.558   0.906
35781W        W99989   2.285  22.118  14.469
35782W        W99990  36.923   9.283   3.631
35783W        W99991  25.986  21.652   0.307
35784W        W99992  15.121  14.095  12.434
35785W        W99993  10.215   3.218   0.347
35786W        W99994   2.761   4.262  10.417
35787W        W99995  44.483  31.621   2.411
35788W        W99996  26.023   7.706   4.747
35789W        W99997   4.763   7.365   3.222
35790W        W99998  16.144  10.750   3.692
35791W        W99999  42.868  29.080   0.381
35792W        W    0  33.949  25.550  11.501
35793W        W    1  41.872  24.613  13.857
35794W        W    2   2.425  28.014  10.561
35795W        W    3   6.705  13.663  10.522
35796W        W    4  14.312   6.209   0.475
35797W        W    5  10.233   2.268  10.499
35798W        W    6  18.648   6.405   1.244
35799W        W    7   0.250  14.595  11.872
35800W        W    8  31.101  44.331   5.130
35801W        W    9  38.884  34.102   0.880
35802W        W   10   9.852   9.280  13.916
35803W        W   11   8.224  40.836  10.465
35804W        W   12  26.080  30.044  14.771
35805W        W   13  42.984   7.703  12.420
35806W        W   14  29.470  13.689  11.879
35807W        W   15  26.633   1.413  14.349
35808W        W   16  33.463  43.502  13.828
35809W        W   17  43.456  21.100  12.552
35810W        W   18  17.247   4.795   5.298
35811W        W   19  38.035  22.176  14.497
35812W        W   20   8.287   8.783  14.837
35813W        W   21   4.778   5.754   0.964
35814W        W   22   1.306  38.926  10.993
35815W        W   23   1.288  18.643   2.677
35816W        W   24  20.157  15.586  14.024
35817W        W   25  18.076  34.569   2.388
35818W        W   26  25.687  12.316  14.818
35819W        W   27   6.786  40.359   0.409
35820W        W   28  18.744  34.897   0.420
35821W        W   29  33.407  27.023  14.339
35822W        W   30  23.709  12.247   2.227
35823W        W   31  36.012   5.719  12.031
35824W        W   32  29.461  44.856  14.450
35825W        W   33  17.664   6.287   0.845
35826W        W   34  39.868  26.028   3.641
35827W        W   35  18.756  23.641  10.626
35828W        W   36  41.946   2.362  14.342
35829W        W   37  14.131  38.374   1.401
35830W        W   38  22.711  22.105  14.851
35831W        W   39  10.162  38.006  14.800
35832W        W   40  38.067   1.907  11.549
35833W        W   41  26.674  23.093  10.489
35834W        W   42  44.920  25.173   3.757
35835W        W   43  12.170  42.504   1.791
35836W        W   44   0.828  44.835   1.870
35837W        W   45  43.833   1.955   2.667
35838W        W   46  41.321  32.011   3.234
35839W        W   47  37.458  11.821  11.067
35840W        W   48  24.493  28.031   4.790
35841W        W   49  13.288  22.711  14.958
35842W        W   50   0.842  38.507   4.161
35843W        W   51  23.150  24.525   4.213
35844W        W   52  33.117   3.429   3.741
35845W        W   53  20.076  44.399  13.887
35846W        W   54  16.262  24.557   4.662
35847W        W   55  31.432  15.679   2.795
35848W        W   56  44.311   5.220  14.007
35849W        W   57  19.670  12.734  11.563
35850W        W   58  35.547   5.845  12.858
35851W        W   59   0.962   4.865   3.214
35852W        W   60  34.394  19.682  10.977
35853W        W   61   3.859   3.901   0.249
35854W        W   62  36.042  34.608   0.811
35855W        W   63  34.866   2.435  10.520
35856W        W   64  12.292  12.314   4.686
35857W        W   65   8.350  15.672   4.289
35858W        W   66  12.680  36.578  12.365
35859W        W   67   4.875   8.393  10.988
35860W        W   68  16.792  29.125  12.958
35861W        W   69  16.702  29.963  11.970
35862W        W   70  26.680   8.715  11.953
35863W        W   71  16.136  40.425  11.995
35864W        W   72   7.271  24.192   0.906
35865W        W   73  19.176  16.150  12.891
35866W        W   74  19.565   2.826  12.852
35867W        W   75  40.926   3.785   1.771
35868W        W   76  29.581  36.982   2.233
35869W        W   77  43.282   0.865  14.885
35870W        W   78  11.201  20.742   2.742
35871W        W   79  16.218  18.054   3.825
35872W        W   80  27.665  24.582   1.412
35873W        W   81  10.233  37.473  14.417
35874W        W   82  28.640  30.111   3.374
35875W        W   83  32.469  29.541  12.040
35876W        W   84  32.491  11.841  12.352
35877W        W   85  44.448  24.694  12.434
35878W        W   86  14.646  12.328  13.904
35879W        W   87  36.469  32.052   2.178
35880W        W   88  43.007  18.569  12.574
35881W        W   89  30.655  28.665   0.334
35882W        W   90  36.859   6.842  12.458
35883W        W   91  39.998  29.066  10.476
35884W        W   92  36.045   8.877   1.827
35885W        W   93  33.894  13.719   4.120
35886W        W   94   6.882  11.342   2.788
35887W        W   95   4.411   7.202   1.378
35888W        W   96   4.442  13.820   4.681
35889W        W   97  11.314  23.187  14.446
35890W        W   98  25.974  16.655   1.311
35891W        W   99  20.750  41.402  13.408
35892W        W  100  23.162  29.963  14.864
35893W        W  101  16.153  13.614  13.332
35894W        W  102  19.266  38.053  12.041
35895W        W  103  18.072  38.325  11.014
35896W        W  104   1.435  20.541   2.384
35897W        W  105  40.406  26.043  14.295
35898W        W  106  19.658  42.519   2.883
35899W        W  107  10.734   9.236  14.511
35900W        W  108  17.079  21.204   4.615
35901W        W  109  44.431  33.601  10.937
35902W        W  110  40.306  32.984   3.181
35903W        W  111  24.130  32.959   3.686
35904W        W  112  21.111   5.925   2.417
35905W        W  113  35.433  36.908   4.667
35906W        W  114  16.165   3.449  14.481
35907W        W  115  14.710  37.852   4.224
35908W        W  116  21.165  13.690  14.361
35909W        W  117  14.337  32.943  13.501
35910W        W  118  32.948  28.097  10.931
35911W        W  119  31.459  44.759   1.694
35912W        W  120  30.078   8.218  13.489
35913W        W  121  27.025   6.824   2.869
35914W        W  122  37.909  37.930   3.326
35915W        W  123  29.059  22.171   4.290
35916W        W  124  38.071  22.236   4.196
35917W        W  125  31.540  16.799   3.861
35918W        W  126  36.473  31.947   4.146
35919W        W  127  23.993  29.994   3.203
35920W        W  128  10.680   9.838   4.344
35921W        W  129   5.312  39.832  11.470
35922W        W  130  18.275  18.716  14.771
35923W        W  131  25.562  42.883   3.269
35924W        W  132   9.323  10.163  12.023
35925W        W  133  42.512  35.896  11.565
35926W        W  134  33.114  20.680  14.934
35927W        W  135   3.803  17.678   2.851
35928W        W  136  24.702  24.219  11.589
35929W        W  137  27.558  22.097   0.338
35930W        W  138  17.670  41.024   2.227
35931W        W  139  25.086  37.386   4.338
35932W        W  140  28.606  38.987  10.937
35933W        W  141  12.328   8.858  13.335
35934W        W  142  27.677  14.657   9.497
35935W        W  143  24.494  19.145   4.722
35936W        W  144  38.025  17.226  13.335
35937W        W  145   8.346  21.633  12.546
35938W        W  146   4.767   8.684   0.755
35939W        W  147  44.855  24.014  10.420
35940W        W  148  27.572  17.102  10.043
35941W        W  149   7.380  32.111  11.450
35942W        W  150  28.084  40.461   5.153
35943W        W  151  18.646  37.576   2.814
35944W        W  152   7.698   4.772   2.315
35945W        W  153  26.516  34.462  13.838
35946W        W  154  39.421  23.146  14.400
35947W        W  155  30.448  17.130   0.398
35948W        W  156  41.400  30.641  13.341
35949W        W  157  29.094  41.373   4.213
35950W        W  158  25.543  16.695  11.489
35951W        W  159   4.409  38.873  14.455
35952W        W  160  13.801  27.062  13.347
35953W        W  161  23.098   1.257  10.622
35954W        W  162  28.990  16.756   2.195
35955W        W  163  10.671  33.585   1.930
35956W        W  164  26.089  30.989  13.964
35957W        W  165  22.998   1.287  10.964
35958W        W  166  36.420  32.948   3.374
35959W        W  167  16.787  26.692   4.226
35960W        W  168  13.224  26.493  12.426
35961W        W  169  19.638   7.714  11.517
35962W        W  170  41.937  10.275  11.911
35963W        W  171  12.256  24.628  12.094
35964W        W  172  44.327  36.005   3.164
35965W        W  173  25.489  18.668   4.207
35966W        W  174  31.149   5.818  11.469
35967W        W  175  22.613   0.399   4.673
35968W        W  176  22.222  34.524   0.908
35969W        W  177  32.958  35.541   1.847
35970W        W  178  43.976  25.667   4.152
35971W        W  179   5.330  25.476  14.395
35972W        W  180  32.479  27.184   2.742
35973W        W  181  43.339   2.830  14.964
35974W        W  182  43.320  25.703   4.256
35975W        W  183  10.265   6.864   1.352
35976W        W  184  30.987  28.942   1.922
35977W        W  185  33.409   5.245   3.810
35978W        W  186  16.686  44.457   4.800
35979W        W  187  27.043  27.592  12.358
35980W        W  188   7.885   5.389   0.914
35981W        W  189  32.886  40.017   3.675
35982W        W  190  43.287  10.197   4.761
35983W        W  191  43.907  32.041   1.326
35984W        W  192   1.307  14.330  14.340
35985W        W  193   6.340  11.760   1.706
35986W        W  194  34.077   1.823  10.605
35987W        W  195  30.574  27.122  14.009
35988W        W  196  19.694  40.816   0.827
35989W        W  197  24.712   8.724   3.679
35990W        W  198   0.258   0.801   3.344
35991W        W  199   3.754  24.533  12.376
35992W        W  200  13.628  30.483   0.949
35993W        W  201   7.694  42.923   2.882
35994W        W  202  35.916  12.326   3.689
35995W        W  203  22.688  31.482  11.888
35996W        W  204  25.057   8.265   3.223
35997W        W  205  25.536  10.363  13.406
35998W        W  206  17.654  28.988   3.349
35999W        W  207  33.459   3.744   3.212
36000W        W  208  22.694  35.502   3.632
36001W        W  209  18.598  43.825   1.794
36002W        W  210  38.397   6.379  13.910
36003W        W  211  26.111  16.726   2.741
36004W        W  212  23.015  16.620   4.202
36005W        W  213  42.017  31.983   4.745
36006W        W  214  19.202   4.760   5.131
36007W        W  215  29.621  31.463   2.231
36008W        W  216  36.083  41.959   4.694
36009W        W  217  27.103  22.546  11.511
36010W        W  218  33.604  11.826   0.352
36011W        W  219  35.379  39.978   2.733
36012W        W  220   0.931   5.713  14.335
36013W        W  221  17.154   7.895   0.768
36014W        W  222  31.494  37.485   3.360
36015W        W  223  34.066   2.360   2.368
36016W        W  224  44.838  16.221   4.260
36017W        W  225  27.583   4.698   1.921
36018W        W  226   9.719  44.433  10.145
36019W        W  227  30.124  17.087  14.820
36020W        W  228  30.488   7.195  11.994
36021W        W  229  23.206  23.225   1.846
36022W        W  230  38.390  10.772  13.338
36023W        W  231  34.947  34.442   4.231
36024W        W  232  31.062  27.465   2.345
36025W        W  233  33.991  17.183   1.915
36026W        W  234  25.513  37.339  13.337
36027W        W  235   9.155   4.427  11.915
36028W        W  236  15.803  22.508   1.276
36029W        W  237   2.225  25.068   1.896
36030W        W  238  32.988  39.455   3.331
36031W        W  239  15.742   5.847   4.279
36032W        W  240  21.642  44.498  11.870
36033W        W  241   3.403   5.419  11.041
36034W        W  242  26.079  32.005  14.327
36035W        W  243  13.144   3.287   4.117
36036W        W  244  25.540  11.807  14.953
36037W        W  245  10.870  27.499   1.814
36038W        W  246  17.640  31.563  13.006
36039W        W  247   3.243   9.730   2.709
36040W        W  248  26.561   8.264   3.232
36041W        W  249  15.601  25.086  13.509
36042W        W  250  42.506  19.179  14.838
36043W        W  251  26.069  21.639   3.763
36044W        W  252  28.465   9.391   0.275
36045W        W  253  42.419  18.698   4.666
36046W        W  254   0.458   5.752  14.501
36047W        W  255  20.755  13.839   2.895
36048W        W  256  34.375  25.524  11.895
36049W        W  257  30.480  28.111  12.093
36050W        W  258  28.675   5.259   2.190
36051W        W  259  14.743  33.471  14.767
36052W        W  260  12.649   3.386  12.980
36053W        W  261  35.994  43.320   3.256
36054W        W  262   5.195  27.502  11.394
36055W        W  263  36.893  13.261   1.333
36056W        W  264  41.956  20.234  14.320
36057W        W  265   8.256  37.892  12.518
36058W        W  266  19.214  26.985   4.827
36059W        W  267  25.097  22.537  12.927
36060W        W  268   3.444   4.921   2.757
36061W        W  269  26.651  11.166  11.058
36062W        W  270  16.664  27.999   1.439
36063W        W  271  43.424  41.524  13.974
36064W        W  272  28.182  16.281   0.836
36065W        W  273  14.788   7.312  11.978
36066W        W  274  37.874  26.082  10.585
36067W        W  275   7.173  24.092  12.005
36068W        W  276  18.247  23.120   2.311
36069W        W  277   1.828  40.479   3.165
36070W        W  278   1.402  23.689   2.198
36071W        W  279  30.458  26.141   3.799
36072W        W  280   3.918  22.513   1.337
36073W        W  281   2.315  36.970  13.838
36074W        W  282  17.226   4.827  11.516
36075W        W  283  40.323  42.467   2.396
36076W        W  284  23.620  24.980   4.658
36077W        W  285  15.192  21.025  13.463
36078W        W  286  38.431  21.731   2.686
36079W        W  287  11.864  34.934  12.454
36080W        W  288  41.442   9.842   2.242
36081W        W  289  14.253  43.896  13.995
36082W        W  290  10.369  24.003  11.966
36083W        W  291  27.544   3.927   4.636
36084W        W  292  26.157  24.049   3.212
36085W        W  293  29.948  10.645  13.537
36086W        W  294   5.254  28.670  12.834
36087W        W  295  40.037  14.670  13.445
36088W        W  296  35.438  18.751   0.330
36089W        W  297  19.227   8.338  13.389
36090W        W  298   7.833  44.796   0.840
36091W        W  299  35.937  44.974   4.625
36092W        W  300  16.796  27.484  14.409
36093W        W  301  41.415  25.676   2.220
36094W        W  302  31.623  22.699   4.603
36095W        W  303  27.187   6.722  14.800
36096W        W  304  28.058  10.633  12.032
36097W        W  305  17.614   3.811  11.015
36098W        W  306  22.658   9.882  14.933
36099W        W  307  14.268  38.525   0.362
36100W        W  308   1.833  17.113   5.129
36101W        W  309   3.404  30.996   0.289
36102W        W  310   8.687  27.107  12.434
36103W        W  311  28.959  42.524   1.246
36104W        W  312  35.084  11.263   2.695
36105W        W  313  37.956  14.740  11.904
36106W        W  314   1.873  19.675  14.919
36107W        W  315  40.837  27.031   2.735
36108W        W  316  14.255  40.881  13.350
36109W        W  317  10.319  15.810   5.148
36110W        W  318   3.899  32.089  11.419
36111W        W  319  12.285  28.577  13.014
36112W        W  320  26.567  34.958   3.205
36113W        W  321   6.221  14.287  11.458
36114W        W  322  42.841  43.417  11.874
36115W        W  323   4.213  14.100   3.365
36116W        W  324   9.783  19.569  14.932
36117W        W  325  16.197  16.281   1.361
36118W        W  326  41.957  40.472  10.417
36119W        W  327   3.448  33.490   4.192
36120W        W  328  18.672  26.508  14.288
36121W        W  329  28.487  32.604   0.418
36122W        W  330   1.328  22.225   3.671
36123W        W  331   0.978  42.022   3.202
36124W        W  332  33.394  34.407  12.087
36125W        W  333  40.510  37.396  13.349
36126W        W  334  43.009   4.304   2.793
36127W        W  335   9.854  28.612  10.429
36128W        W  336  22.073  23.562   3.185
36129W        W  337   7.880  31.108  14.349
36130W        W  338   2.285  30.095   1.287
36131W        W  339   3.766  44.372   4.157
36132W        W  340  37.978  19.634  10.547
36133W        W  341  40.475  38.038   2.359
36134W        W  342  18.181  25.637  12.372
36135W        W  343  15.815  32.105  12.938
36136W        W  344  11.170  17.169  10.596
36137W        W  345  16.233  44.495   3.155
36138W        W  346  42.358   8.696  14.959
36139W        W  347  21.743  16.125   2.329
36140W        W  348  27.673  41.010  12.504
36141W        W  349  39.546  22.688   0.346
36142W        W  350  39.425  28.039  14.477
36143W        W  351  44.874  41.798  14.358
36144W        W  352  27.983   6.918  11.049
36145W        W  353  39.348   6.240  13.952
36146W        W  354  34.389   6.352  10.485
36147W        W  355  40.928   5.212  10.532
36148W        W  356  14.213   7.298  12.835
36149W        W  357  31.945  33.435  12.879
36150W        W  358  33.461   7.397   2.835
36151W        W  359   6.302  31.428  11.475
36152W        W  360  37.493   8.285   0.768
36153W        W  361  39.422   4.323  12.923
36154W        W  362  34.088  44.935   2.709
36155W        W  363   9.377   0.833  11.459
36156W        W  364  35.414  44.443   4.656
36157W        W  365  33.896  39.979   4.202
36158W        W  366  30.132   2.244   1.433
36159W        W  367  26.966  17.558   2.342
36160W        W  368  29.480  15.242  13.351
36161W        W  369  16.688  11.683  14.772
36162W        W  370  32.917  10.846  11.471
36163W        W  371  26.988  38.822   3.714
36164W        W  372  24.599  31.047  13.954
36165W        W  373  11.287  10.700  14.857
36166W        W  374  43.870  31.070   1.923
36167W        W  375  43.840  24.152  14.019
36168W        W  376  17.239  31.947   0.878
36169W        W  377  31.048  18.588   2.392
36170W        W  378   3.815  20.591   1.710
36171W        W  379  34.410  26.500  10.439
36172W        W  380  20.645   6.323   1.696
36173W        W  381  39.512  31.427  11.922
36174W        W  382  23.719   0.862   2.400
36175W        W  383  34.477  42.289  12.852
36176W        W  384  27.498   9.656  11.035
36177W        W  385   6.923  35.986   4.169
36178W        W  386  19.769  25.067  14.298
36179W        W  387  41.297   5.818  14.761
36180W        W  388  33.613   3.778  10.541
36181W        W  389  28.115   4.365  14.425
36182W        W  390  26.547  26.518  12.340
36183W        W  391   5.302  38.888   1.375
36184W        W  392  35.062   2.876  14.836
36185W        W  393  11.270  17.172  13.319
36186W        W  394  39.482  32.506   2.712
36187W        W  395  39.383  40.315  10.926
36188W        W  396  25.024   1.325   0.420
36189W        W  397  19.064   9.293   0.256
36190W        W  398  22.009  13.313   0.459
36191W        W  399  17.076  24.991  12.965
36192W        W  400  29.567  30.118  11.886
36193W        W  401  23.043  11.847   4.320
36194W        W  402   8.174  14.690  14.479
36195W        W  403  33.417   9.876  11.425
36196W        W  404  19.125  41.425  14.780
36197W        W  405  23.538  15.784   3.270
36198W        W  406  42.450  40.982  11.395
36199W        W  407   7.906  26.577   0.791
36200W        W  408  29.433  39.954   0.890
36201W        W  409  19.718  40.914  10.408
36202W        W  410  19.044  36.900   3.295
36203W        W  411  34.071  44.955   3.282
36204W        W  412  39.915  24.699  14.378
36205W        W  413   6.346  42.314  13.898
36206W        W  414  35.476  26.092  11.954
36207W        W  415  44.317  13.599   1.749
36208W        W  416  12.189  15.151   0.471
36209W        W  417  35.948   7.234   2.247
36210W        W  418   3.839  24.585  13.443
36211W        W  419   9.235  33.505  14.811
36212W        W  420   7.242  40.387  14.389
36213W        W  421   1.241  31.589   1.775
36214W        W  422   4.332  19.170   3.251
36215W        W  423  34.902   3.390   0.938
36216W        W  424  28.502  13.117  11.935
36217W        W  425  31.532  38.362  12.066
36218W        W  426  31.046  35.093   0.453
36219W        W  427  30.089   7.397   3.295
36220W        W  428  35.868  11.287   2.853
36221W        W  429  40.498  40.381  13.843
36222W        W  430  35.503   6.319  14.916
36223W        W  431   1.880  19.132  11.061
36224W        W  432  10.371  14.775  14.987
36225W        W  433  44.313  19.736  11.921
36226W        W  434  41.402  16.794  13.885
36227W        W  435  26.646  27.639  13.536
36228W        W  436   4.300   3.436   1.362
36229W        W  437  22.671   3.910   4.280
36230W        W  438  15.248  44.831   4.647
36231W        W  439  21.065  21.133   2.326
36232W        W  440   0.856  14.115  14.761
36233W        W  441  13.744  27.184   0.926
36234W        W  442   8.349  28.603   0.369
36235W        W  443  41.334  17.171  14.458
36236W        W  444   8.731  10.256   0.736
36237W        W  445  28.971  18.555  12.361
36238W        W  446  39.945  44.471   0.818
36239W        W  447  15.136  28.618  14.984
36240W        W  448  36.968  29.482  12.579
36241W        W  449  18.293   8.771   1.776
36242W        W  450  11.756  20.666   3.727
36243W        W  451  42.819  12.327   4.663
36244W        W  452  15.804  11.215   3.258
36245W        W  453  29.458  26.567   0.370
36246W        W  454  41.326  18.142  12.089
36247W        W  455   7.326  22.173  12.376
36248W        W  456  44.960  42.366   4.328
36249W        W  457   3.874  39.443   1.320
36250W        W  458   0.367   6.813  12.883
36251W        W  459   3.850  10.652   4.240
36252W        W  460  10.796  12.735  13.881
36253W        W  461  28.121  26.001   4.130
36254W        W  462   4.744  23.630  14.796
36255W        W  463   4.349  32.979  12.886
36256W        W  464  26.486  10.297  11.393
36257W        W  465   8.292  39.827   3.692
36258W        W  466  37.883   5.881   4.735
36259W        W  467  40.918  13.123  12.466
36260W        W  468  33.422  35.095   1.425
36261W        W  469  16.175  34.946  12.435
36262W        W  470   8.700  17.269   3.307
36263W        W  471  40.426  44.918   3.326
36264W        W  472  30.920  39.414  11.864
36265W        W  473  16.116   5.878  10.642
36266W        W  474  39.426  24.546  12.034
36267W        W  475  31.030  19.228   4.217
36268W        W  476  43.293  39.964   3.257
36269W        W  477  27.060  14.271  11.984
36270W        W  478   5.707  16.802  14.455
36271W        W  479  25.657  26.152  14.445
36272W        W  480   3.932  41.305   3.384
36273W        W  481   2.231  28.590  11.514
36274W        W  482  20.720  14.113   4.832
36275W        W  483   0.286  39.424  12.051
36276W        W  484  20.692  24.112  11.395
36277W        W  485  11.776  28.163   4.760
36278W        W  486   5.797  13.270  14.973
36279W        W  487  39.910  43.872  12.482
36280W        W  488  13.704  28.087  13.877
36281W        W  489   4.359  25.166  11.058
36282W        W  490  24.625  41.935   1.908
36283W        W  491  32.091  12.832   4.214
36284W        W  492  43.964  33.089   1.737
36285W        W  493   4.917  25.697   0.832
36286W        W  494  27.990  40.435   1.265
36287W        W  495   9.799  40.391   0.357
36288W        W  496   1.774   0.466   1.324
36289W        W  497   4.756  36.501   1.867
36290W        W  498  36.937  27.150   0.851
36291W        W  499   0.483  26.585  11.486
36292W        W  500  22.216  23.153   4.169
36293W        W  501  10.703  18.119   4.669
36294W        W  502  31.057   9.772   4.223
36295W        W  503  12.311  15.634  11.475
36296W        W  504   4.715   7.339  12.017
36297W        W  505   3.286  16.728   9.967
36298W        W  506   4.287  27.154  13.898
36299W        W  507   0.939  28.937   0.844
36300W        W  508  26.992   8.691   5.093
36301W        W  509   1.320  33.098  11.599
36302W        W  510  20.038  11.816   3.215
36303W        W  511  37.978  41.974   4.341
36304W        W  512  42.302  34.572   1.228
36305W        W  513   3.340  17.282   4.731
36306W        W  514  16.600  21.665   1.448
36307W        W  515  31.899  19.554   0.892
36308W        W  516  19.651  16.254   3.346
36309W        W  517  43.475  31.948   2.893
36310W        W  518  34.444  42.778  13.427
36311W        W  519  35.922  35.565   1.765
36312W        W  520  24.622  23.200  12.987
36313W        W  521  37.987  20.729   4.308
36314W        W  522   2.406  16.293   4.316
36315W        W  523  37.950  20.618   4.629
36316W        W  524  29.137   5.723   4.263
36317W        W  525  23.985  39.423  10.533
36318W        W  526  31.981  19.219  12.423
36319W        W  527  27.988   8.820   4.770
36320W        W  528   1.278  36.407  11.968
36321W        W  529  39.056  14.766   1.240
36322W        W  530   2.835  21.035   0.331
36323W        W  531  23.628   4.321   3.710
36324W        W  532  35.088  10.294   2.315
36325W        W  533  15.729   9.325   2.873
36326W        W  534  25.703  21.756   0.760
36327W        W  535  28.571  39.493  12.538
36328W        W  536  40.505  24.545  12.075
36329W        W  537   9.177  23.557  12.980
36330W        W  538  36.362   5.803   3.659
36331W        W  539  18.201  32.102   1.372
36332W        W  540  20.259  28.177   3.226
36333W        W  541  33.445  16.625   5.136
36334W        W  542  13.733  38.034   2.718
36335W        W  543  16.680  26.207  11.575
36336W        W  544  25.520  23.551   3.760
36337W        W  545   7.691  27.459   4.150
36338W        W  546   5.200  38.528  14.020
36339W        W  547  12.318   0.770  12.488
36340W        W  548  27.466  19.076  11.024
36341W        W  549  18.623  16.266  10.506
36342W        W  550  34.485  38.524  10.414
36343W        W  551  38.847  13.108  14.467
36344W        W  552  14.589   6.706  12.418
36345W        W  553  31.027   8.289   3.280
36346W        W  554   2.270  12.642  12.092
36347W        W  555  39.850   4.727   2.219
36348W        W  556  36.094  15.584  11.597
36349W        W  557  39.367  11.783   3.243
36350W        W  558  28.053   6.427   1.374
36351W        W  559  27.973  20.136   1.842
36352W        W  560  16.094   7.749  10.560
36353W        W  561  43.370  31.085  12.342
36354W        W  562  13.126  15.125  13.512
36355W        W  563   6.358  14.622   0.253
36356W        W  564  29.965  37.899   4.724
36357W        W  565  39.019  29.494   4.601
36358W        W  566  33.525  30.935   2.215
36359W        W  567  18.062   4.825   2.408
36360W        W  568   3.879  25.141  12.077
36361W        W  569   0.938  28.671   4.251
36362W        W  570   2.908   6.183  11.607
36363W        W  571   7.759   3.773   4.114
36364W        W  572  11.355  39.973   2.213
36365W        W  573  38.949  26.108  14.407
36366W        W  574  40.308  34.871  14.788
36367W        W  575  14.639  25.004   4.604
36368W        W  576  34.614   8.772   2.890
36369W        W  577   8.789  32.899  13.995
36370W        W  578  18.177  24.075   1.357
36371W        W  579  43.295  18.592   3.322
36372W        W  580   5.260   9.749   0.474
36373W        W  581  25.558  31.522   1.385
36374W        W  582   8.194  21.169  14.370
36375W        W  583  22.168  16.629   1.776
36376W        W  584  43.279  26.553  10.978
36377W        W  585  28.141  14.596  11.919
36378W        W  586  14.329  16.157  10.407
36379W        W  587  18.245  25.155  13.813
36380W        W  588  21.608  25.623  14.886
36381W        W  589  43.416  32.063  12.882
36382W        W  590   9.722  15.284  10.016
36383W        W  591  41.899  30.536   3.231
36384W        W  592  21.061  30.975  13.459
36385W        W  593  22.053  43.927   0.751
36386W        W  594  11.628  11.776  10.634
36387W        W  595  42.882  20.674   1.897
36388W        W  596  34.539   4.313  14.310
36389W        W  597  29.157  26.107   2.355
36390W        W  598  20.194  33.489  11.373
36391W        W  599  31.575  14.746   1.377
36392W        W  600  23.990   6.850   1.877
36393W        W  601  39.330  19.258  12.908
36394W        W  602  24.483  34.471  14.413
36395W        W  603  42.997  19.638   9.945
36396W        W  604  33.086  42.805   5.272
36397W        W  605   6.244  31.465   3.333
36398W        W  606  25.154   4.301  13.378
36399W        W  607  32.425  22.629   0.853
36400W        W  608  39.324  31.041  12.842
36401W        W  609  34.994  28.626  14.323
36402W        W  610  24.598  16.241  13.455
36403W        W  611  38.899  32.448  11.507
36404W        W  612  12.720  22.582   1.838
36405W        W  613  30.546  20.674   2.796
36406W        W  614  19.605  26.199   4.782
36407W        W  615  36.391  33.910   1.838
36408W        W  616  41.874  22.691  10.592
36409W        W  617   9.857   1.930  13.471
36410W        W  618  42.318  31.022   2.893
36411W        W  619  21.660  19.721   1.707
36412W        W  620  32.588  21.242   3.789
36413W        W  621  35.928  16.268  10.998
36414W        W  622  34.606  43.849  11.425
36415W        W  623  36.452  15.186   4.152
36416W        W  624  11.767  13.199   2.885
36417W        W  625  19.545  18.219   5.198
36418W        W  626   1.345   1.828   1.376
36419W        W  627   2.853   6.752  11.072
36420W        W  628   9.857  20.233   4.285
36421W        W  629  18.089  43.853   2.419
36422W        W  630  33.946  29.963  11.964
36423W        W  631  16.076   3.749   2.687
36424W        W  632  30.081  25.499   2.815
36425W        W  633  30.621  20.053  11.118
36426W        W  634  13.262  42.476  11.117
36427W        W  635  36.456  26.093  12.441
36428W        W  636  34.388   6.876  12.940
36429W        W  637  33.596  39.360   2.208
36430W        W  638  18.785  35.545  11.949
36431W        W  639  19.263   9.359   1.375
36432W        W  640  32.565  20.112  10.916
36433W        W  641   6.227  42.804   3.750
36434W        W  642  30.139  35.968  11.049
36435W        W  643  30.612   6.291   0.455
36436W        W  644   9.270  44.464  14.769
36437W        W  645  18.549   5.426   2.317
36438W        W  646  35.996   9.305   0.963
36439W        W  647  18.764  24.553  10.550
36440W        W  648  44.314  20.561  12.011
36441W        W  649  14.271  34.971   1.823
36442W        W  650  25.089  32.066  10.991
36443W        W  651  41.859   7.746  12.552
36444W        W  652  33.951  14.664  11.485
36445W        W  653  42.428   6.798  14.458
36446W        W  654  36.076  13.332  14.367
36447W        W  655  18.069  32.568  13.359
36448W        W  656   5.318  26.057  10.912
36449W        W  657  15.613   3.287  14.417
36450W        W  658  34.493   3.314  11.383
36451W        W  659   5.817  22.225   1.924
36452W        W  660   9.227  34.586   1.305
36453W        W  661  12.704   9.336  12.975
36454W        W  662  30.921   6.269  11.863
36455W        W  663  22.659  23.079  12.856
36456W        W  664  36.856  35.101   0.938
36457W        W  665  19.236  36.391  10.419
36458W        W  666   1.754  28.641   1.724
36459W        W  667  20.700  17.245  12.391
36460W        W  668   0.882  44.970  13.959
36461W        W  669  19.226  40.444   2.886
36462W        W  670  30.557  29.547   0.305
36463W        W  671  35.435  17.580  11.111
36464W        W  672  25.072  41.345  10.931
36465W        W  673  37.404   3.288   0.256
36466W        W  674  25.193   1.336  12.346
36467W        W  675   4.385   1.421   4.760
36468W        W  676  41.007   5.212  14.332
36469W        W  677   2.412  21.026   2.383
36470W        W  678  35.472  15.741   0.873
36471W        W  679  32.105  44.309  14.357
36472W        W  680  37.425  20.271   1.221
36473W        W  681  26.526   1.423   3.225
36474W        W  682  21.693  23.679   2.234
36475W        W  683   3.427  10.669  11.064
36476W        W  684  10.354  21.600  10.972
36477W        W  685  40.336  44.774  10.489
36478W        W  686   2.780  35.498  11.116
36479W        W  687  28.447  42.470  11.467
36480W        W  688   9.878  28.981  13.796
36481W        W  689   3.845  33.475   4.142
36482W        W  690   5.399  29.006  14.396
36483W        W  691  17.793  26.010  12.983
36484W        W  692  29.540  25.600  14.386
36485W        W  693  11.783  13.145   0.473
36486W        W  694  44.487  44.398  12.475
36487W        W  695  26.675  43.907  14.328
36488W        W  696   4.439   9.238   0.866
36489W        W  697  26.646  33.395  13.479
36490W        W  698  43.950  13.715  11.991
36491W        W  699  32.907   3.730  12.829
36492W        W  700  44.007  11.353  14.796
36493W        W  701  29.483  17.787   1.756
36494W        W  702  38.330  23.507   4.646
36495W        W  703  40.357   6.891  12.948
36496W        W  704  24.116  37.083   3.759
36497W        W  705  19.775   3.716   4.205
36498W        W  706  15.185   4.907   3.845
36499W        W  707  39.947  20.194   0.753
36500W        W  708  31.080  14.212  10.462
36501W        W  709  16.269  33.916  11.411
36502W        W  710  15.776  11.698  10.964
36503W        W  711  16.796  23.184   4.611
36504W        W  712  21.084  11.645   5.308
36505W        W  713  30.996   7.243  14.986
36506W        W  714   2.420  20.586   1.210
36507W        W  715  15.091  28.010  11.476
36508W        W  716  29.456   8.289  14.897
36509W        W  717  28.002  39.438  14.459
36510W        W  718  38.970  43.342   1.418
36511W        W  719   4.348   6.890  11.413
36512W        W  720  10.701  31.588   4.741
36513W        W  721   0.979  12.638  13.797
36514W        W  722  21.196   8.872  10.470
36515W        W  723   3.849  36.865  14.498
36516W        W  724  41.391  32.037   1.747
36517W        W  725  13.135  35.066   3.252
36518W        W  726  31.594  11.236  13.420
36519W        W  727  19.122  33.114   0.749
36520W        W  728  44.831  28.151  13.801
36521W        W  729  37.543  31.988  11.876
36522W        W  730  19.774  24.177  13.897
36523W        W  731   2.758  41.836  11.079
36524W        W  732  37.438   6.214  10.519
36525W        W  733  16.791  28.535  10.930
36526W        W  734  33.412  17.622   0.321
36527W        W  735  42.351  24.719   3.786
36528W        W  736  43.403   8.402   4.311
36529W        W  737  39.384   3.873   3.376
36530W        W  738   7.911  20.525  11.603
36531W        W  739  37.565  34.948   2.900
36532W        W  740   3.319   2.426   0.955
36533W        W  741  43.935  22.719  11.607
36534W        W  742  12.804  10.737   3.185
36535W        W  743  12.675  26.071   4.207
36536W        W  744  10.185  27.089   4.156
36537W        W  745   9.717  22.047   1.320
36538W        W  746   1.840   2.448   3.741
36539W        W  747  25.594  25.555   2.859
36540W        W  748  27.068  27.126  14.461
36541W        W  749  44.386  35.998  13.387
36542W        W  750  39.405  13.304  13.849
36543W        W  751   8.316   1.308  11.453
36544W        W  752  15.669  14.744   4.254
36545W        W  753  41.966  16.664  12.357
36546W        W  754   2.842  44.447  11.924
36547W        W  755   9.181  40.809   0.288
36548W        W  756  29.037   5.920  14.021
36549W        W  757   2.927  20.735   1.266
36550W        W  758   3.849   3.333  10.101
36551W        W  759  23.159   7.835  13.798
36552W        W  760  32.075  42.835   2.750
36553W        W  761  36.456  30.551   0.460
36554W        W  762   0.362  28.569   3.311
36555W        W  763   4.402   4.807   2.180
36556W        W  764  19.207  13.689   0.431
36557W        W  765   6.301  13.282   1.718
36558W        W  766  44.434  32.597  12.419
36559W        W  767   0.384  38.490  13.362
36560W        W  768  19.066  44.491   0.921
36561W        W  769  20.066  11.803   1.217
36562W        W  770   4.248  43.815   0.326
36563W        W  771  38.929  38.368   3.841
36564W        W  772  36.977   8.818  14.430
36565W        W  773  14.704  32.632   2.378
36566W        W  774  18.070  24.228  11.027
36567W        W  775  15.249  25.616   4.161
36568W        W  776  11.209  34.064  12.574
36569W        W  777  28.494   2.908  14.030
36570W        W  778  35.518  42.478  12.402
36571W        W  779  39.499  15.109   3.696
36572W        W  780  21.152  10.823   1.715
36573W        W  781  44.336  27.192   4.824
36574W        W  782  31.991  38.860  13.345
36575W        W  783  36.542  14.762  10.645
36576W        W  784  26.048  23.684   3.651
36577W        W  785  39.378  33.050  10.920
36578W        W  786   0.448  29.003  11.004
36579W        W  787  27.976  14.593   2.247
36580W        W  788  33.598  31.966   0.386
36581W        W  789  33.076  39.344  12.562
36582W        W  790   9.851  10.309   3.696
36583W        W  791   7.724  43.881  11.598
36584W        W  792  40.508   6.901  11.564
36585W        W  793  43.378  19.560  12.845
36586W        W  794  31.911   7.175   5.148
36587W        W  795  36.569  41.877   0.865
36588W        W  796  41.939  19.595  14.469
36589W        W  797  22.676   4.424   4.187
36590W        W  798  34.073  14.197   3.641
36591W        W  799  21.629   5.324   3.705
36592W        W  800  22.594  21.513  14.943
36593W        W  801   7.860   7.902   1.302
36594W        W  802  36.030  32.629  10.427
36595W        W  803  17.637  11.868  13.463
36596W        W  804  26.985  44.838   0.340
36597W        W  805  13.703  20.179  11.398
36598W        W  806  29.983  24.997   1.855
36599W        W  807  21.161   5.839  14.025
36600W        W  808  35.000  39.940   3.301
36601W        W  809  43.290  28.542   1.743
36602W        W  810  38.426  34.064   3.375
36603W        W  811  34.044  13.141  14.917
36604W        W  812  42.858  33.054   2.252
36605W        W  813  39.874  20.550   2.683
36606W        W  814   4.916  35.933   1.869
36607W        W  815   4.880  40.938   4.679
36608W        W  816  28.527  13.685   2.723
36609W        W  817   2.733  16.798   1.336
36610W        W  818  11.758  44.476  12.532
36611W        W  819   1.843  30.072  13.793
36612W        W  820  44.991  26.635  10.949
36613W        W  821  18.144  14.320   1.366
36614W        W  822  36.979  24.693   0.796
36615W        W  823  17.574   5.731   4.293
36616W        W  824  35.968  10.809   3.148
36617W        W  825  43.814  28.563  10.413
36618W        W  826  28.066  21.023  10.065
36619W        W  827   4.741  39.316   2.359
36620W        W  828  34.571   7.825  14.998
36621W        W  829   2.310   8.344  11.390
36622W        W  830   0.825  25.202   1.275
36623W        W  831  25.097  26.637   4.342
36624W        W  832   3.876  24.570   3.802
36625W        W  833   0.896  20.207  12.903
36626W        W  834  19.240  38.056   3.860
36627W        W  835  21.755  29.051   3.336
36628W        W  836  20.090  11.357   2.393
36629W        W  837   7.209  37.977   1.862
36630W        W  838  22.520  22.506  14.283
36631W        W  839   6.390  27.968  11.102
36632W        W  840   4.799   9.890   0.412
36633W        W  841  27.029  17.197   0.377
36634W        W  842  33.619  30.986  13.428
36635W        W  843  28.635  28.536  11.406
36636W        W  844  44.455  22.154   4.629
36637W        W  845  33.112  22.665  12.870
36638W        W  846  21.664  17.589  12.554
36639W        W  847   8.718  24.692   0.779
36640W        W  848  38.955   8.270  12.997
36641W        W  849  21.075   0.769   1.921
36642W        W  850  23.663  23.663   1.898
36643W        W  851  40.842   2.442   4.292
36644W        W  852  13.788  17.278   3.179
36645W        W  853  41.511  13.678  14.986
36646W        W  854  41.822  19.682   4.794
36647W        W  855  20.698  41.831  11.009
36648W        W  856  15.685   7.318  10.419
36649W        W  857  29.636   7.802  11.413
36650W        W  858   5.398  19.084   4.278
36651W        W  859  13.751  43.297  12.842
36652W        W  860  27.454  41.851   4.215
36653W        W  861  15.711   6.696   2.862
36654W        W  862  22.543  19.667  11.882
36655W        W  863  35.973  20.560   4.688
36656W        W  864  10.813  37.504   1.925
36657W        W  865  17.265   1.943  12.360
36658W        W  866  12.749  12.159   0.385
36659W        W  867  10.800  10.691  13.013
36660W        W  868  37.079   3.767   4.146
36661W        W  869  30.644  26.629   0.331
36662W        W  870  17.125  10.190   1.721
36663W        W  871   9.812  29.083   4.695
36664W        W  872  38.976  40.372   0.922
36665W        W  873   9.309  32.905  12.546
36666W        W  874  26.196   9.805   3.817
36667W        W  875  23.170  42.868   3.327
36668W        W  876  43.508  31.424  11.462
36669W        W  877  12.152  41.003  13.950
36670W        W  878  20.101  35.014  13.972
36671W        W  879  11.363  15.226  10.946
36672W        W  880  31.044  15.593   0.805
36673W        W  881  27.511  35.897  11.044
36674W        W  882  29.543  36.892  11.115
36675W        W  883  13.265  16.150   0.351
36676W        W  884  32.390  20.165   2.802
36677W        W  885   9.652  27.659  13.372
36678W        W  886   2.234   6.238   4.700
36679W        W  887  24.138  35.999  13.859
36680W        W  888   9.671  15.215  14.356
36681W        W  889   8.205  10.634   4.827
36682W        W  890  30.525   3.874   0.775
36683W        W  891  41.519  13.601  13.968
36684W        W  892  20.653  23.719  13.383
36685W        W  893  16.120   6.378  11.401
36686W        W  894   0.810   2.863   0.837
36687W        W  895  26.149   1.882   2.301
36688W        W  896  28.615   6.829   3.367
36689W        W  897  22.129   1.321  13.000
36690W        W  898  13.124  10.324   5.280
36691W        W  899  39.961   6.337  14.762
36692W        W  900  10.742  37.842   3.860
36693W        W  901  37.456  41.526  11.858
36694W        W  902  44.382  31.487  10.126
36695W        W  903   1.372  16.153  11.929
36696W        W  904  10.372  38.925  14.996
36697W        W  905  32.040  21.700   0.928
36698W        W  906  14.268  29.048  10.519
36699W        W  907  44.008  35.099  14.862
36700W        W  908  16.588  17.250   2.398
36701W        W  909  29.984  19.168   4.311
36702W        W  910   9.679  32.536   2.274
36703W        W  911   3.346  31.585  11.120
36704W        W  912  30.054  40.896  14.776
36705W        W  913  19.718  44.471  10.540
36706W        W  914  16.294  37.567  12.827
36707W        W  915  33.101   3.414   3.239
36708W        W  916  17.569  40.839  14.020
36709W        W  917  35.894  13.821  13.903
36710W        W  918  10.327  29.474   3.384
36711W        W  919  11.163  25.488   3.301
36712W        W  920  27.151  26.108   2.305
36713W        W  921  14.593  38.888   2.781
36714W        W  922  33.908  43.848   3.267
36715W        W  923  25.518  22.104  14.934
36716W        W  924  35.083  26.093   4.807
36717W        W  925  20.266  36.872  10.141
36718W        W  926  37.927  39.513   3.216
36719W        W  927   8.276  27.101   3.831
36720W        W  928  39.853  12.701   0.838
36721W        W  929  36.513   7.876   0.767
36722W        W  930  25.618   8.354   0.250
36723W        W  931  17.304  20.043   2.891
36724W        W  932  42.901  23.718   3.776
36725W        W  933  32.051   0.752  14.810
36726W        W  934   6.368  34.035  11.377
36727W        W  935  25.533   2.942   1.354
36728W        W  936  16.749  28.626  11.448
36729W        W  937  20.624   7.767   3.347
36730W        W  938   0.307   3.778  14.780
36731W        W  939  24.615  34.870  12.067
36732W        W  940  23.537  20.532   2.418
36733W        W  941  14.728  37.578  14.934
36734W        W  942  32.926   2.927  10.953
36735W        W  943  13.301  17.588   0.815
36736W        W  944  21.542  20.117  11.964
36737W        W  945  43.902  17.283   3.162
36738W        W  946  24.027  35.918  11.392
36739W        W  947   5.748   3.380   1.859
36740W        W  948  36.360  36.520  11.505
36741W        W  949  10.665  34.549  10.545
36742W        W  950  27.690   8.302   3.687
36743W        W  951  20.117  37.348   5.127
36744W        W  952  14.177  21.148   1.281
36745W        W  953   9.712   5.827   4.641
36746W        W  954  32.427  25.066   1.282
36747W        W  955  21.139   0.849  10.544
36748W        W  956  15.328  42.973   2.759
36749W        W  957  19.233   5.393  13.054
36750W        W  958  30.065  42.875  12.035
36751W        W  959  24.982  36.013   0.353
36752W        W  960  14.292  11.645  10.910
36753W        W  961  27.973   9.306   0.726
36754W        W  962  21.674  13.635  11.068
36755W        W  963  36.446  35.047  12.083
36756W        W  964  36.563  30.929   3.153
36757W        W  965  39.016  25.075   3.724
36758W        W  966  41.320  14.152  10.996
36759W        W  967  26.185   8.280  11.894
36760W        W  968  25.176  13.184  11.110
36761W        W  969   5.238  31.012   0.436
36762W        W  970  35.063  34.030   4.253
36763W        W  971  15.661  25.000  11.543
36764W        W  972  20.732  18.784  10.009
36765W        W  973   0.847  24.141   2.698
36766W        W  974  40.347  25.113  11.449
36767W        W  975   9.377   1.299   1.803
36768W        W  976  29.996  36.093   2.783
36769W        W  977  26.465  14.299   4.720
36770W        W  978  34.444   9.209   3.638
36771W        W  979   0.963   2.816  12.982
36772W        W  980  43.280  10.671   4.172
36773W        W  981  15.632  14.742   2.277
36774W        W  982  10.180  40.535  12.494
36775W        W  983  43.808  40.346  12.952
36776W        W  984  44.503  17.775  13.891
36777W        W  985   6.730   6.238   0.928
36778W        W  986  14.767  26.132  13.530
36779W        W  987  27.493  28.457   1.910
36780W        W  988  41.493   7.798   1.720
36781W        W  989  35.420   5.828  14.031
36782W        W  990  40.870   8.350   4.248
36783W        W  991  25.470  25.663  12.403
36784W        W  992  36.442  35.411   4.680
36785W        W  993  37.968  32.498  13.954
36786W        W  994  40.478  39.966  14.405
36787W        W  995  16.756   6.379   4.796
36788W        W  996   1.823   7.212  14.903
36789W        W  997  32.426  31.915  12.037
36790W        W  998  19.711  34.575   0.438
36791W        W  999  23.570  42.502   4.142
36792W        W 1000  32.392  40.432  14.400
36793W        W 1001  37.869  10.326  11.526
36794W        W 1002  42.296  19.203   5.193
36795W        W 1003  42.939  28.453  13.414
36796W        W 1004  22.173  14.800  12.367
36797W        W 1005   0.402   5.771   0.937
36798W        W 1006  39.043  16.077  14.995
36799W        W 1007   4.778   6.746  12.401
36800W        W 1008  11.219   0.326  10.535
36801W        W 1009  10.654   2.752   1.409
36802W        W 1010  28.940  15.586  13.995
36803W        W 1011  32.936   0.881   2.740
36804W        W 1012  28.470  28.589   0.280
36805W        W 1013   0.453  40.520   2.305
36806W        W 1014  25.639  23.624  13.058
36807W        W 1015  38.851  22.657   5.127
36808W        W 1016  29.450  19.219   0.798
36809W        W 1017  11.797  33.060  11.449
36810W        W 1018  12.692  29.524   0.948
36811W        W 1019  42.396  37.979   1.734
36812W        W 1020  20.542   5.413   1.710
36813W        W 1021   3.458  44.451   4.832
36814W        W 1022   3.840  12.817   4.614
36815W        W 1023  27.454   5.320   4.755
36816W        W 1024  34.373  33.626  10.612
36817W        W 1025  37.535  25.085  11.526
36818W        W 1026  43.487  36.553  10.578
36819W        W 1027   9.221  34.074   4.286
36820W        W 1028  26.121   5.717  12.985
36821W        W 1029  32.507  37.348   3.240
36822W        W 1030  36.979  30.629   3.802
36823W        W 1031  26.611   7.231   3.211
36824W        W 1032   9.751   3.952  11.394
36825W        W 1033  40.400   9.258  12.966
36826W        W 1034  41.931  14.324  11.411
36827W        W 1035  27.197  37.848  13.480
36828W        W 1036  38.043  13.146  10.568
36829W        W 1037  41.433  16.802   1.307
36830W        W 1038   1.934   2.799   0.255
36831W        W 1039  33.969  11.786   1.370
36832W        W 1040  41.924   1.829  12.006
36833W        W 1041  11.251  33.594   2.819
36834W        W 1042  22.675  41.351   2.186
36835W        W 1043  13.313  16.247  11.611
36836W        W 1044  20.669   7.698   5.638
36837W        W 1045  39.812   9.389  13.517
36838W        W 1046   8.785  41.833   4.234
36839W        W 1047  30.933   7.900   1.763
36840W        W 1048   8.751  18.182  12.551
36841W        W 1049  44.863  37.892   4.205
36842W        W 1050  18.052   9.236   1.824
36843W        W 1051  16.191  38.416   1.774
36844W        W 1052  26.698  16.241  11.504
36845W        W 1053  12.281  39.533  14.441
36846W        W 1054   2.261  38.393   0.877
36847W        W 1055  26.167  23.010  13.409
36848W        W 1056  19.725   4.411  12.996
36849W        W 1057   1.377   1.385  12.865
36850W        W 1058  19.704  37.402   9.580
36851W        W 1059   0.410  30.123  13.820
36852W        W 1060   7.877  35.009  14.429
36853W        W 1061  38.459   0.947  11.859
36854W        W 1062  32.477  36.460  13.819
36855W        W 1063  14.609   4.741  11.991
36856W        W 1064  43.390  11.757   4.811
36857W        W 1065  29.558   7.250  10.558
36858W        W 1066   5.252  10.679   1.747
36859W        W 1067  31.639   4.732  13.523
36860W        W 1068  39.924  19.239   2.335
36861W        W 1069  42.974  43.450   4.174
36862W        W 1070  28.166  29.651  14.301
36863W        W 1071   8.737  10.785  11.875
36864W        W 1072  24.722  36.011  12.095
36865W        W 1073   8.716   7.279  14.301
36866W        W 1074  36.044  31.467   1.249
36867W        W 1075  32.480   2.943   0.258
36868W        W 1076  10.380   6.231  11.484
36869W        W 1077  24.628   4.905   2.296
36870W        W 1078  17.154  20.246   1.261
36871W        W 1079   8.845   4.823  13.939
36872W        W 1080  38.857  17.140  11.573
36873W        W 1081  33.106   6.791  11.075
36874W        W 1082  39.372  37.353  10.941
36875W        W 1083  21.619  43.937   2.787
36876W        W 1084   2.960  32.550  10.409
36877W        W 1085  29.924  36.559  13.946
36878W        W 1086  12.328  15.719   5.217
36879W        W 1087  28.930  38.978  13.373
36880W        W 1088  12.345  21.217  14.836
36881W        W 1089  17.711  33.014  11.602
36882W        W 1090  42.422  18.613  13.859
36883W        W 1091  31.970  21.668   1.362
36884W        W 1092  24.517   8.657  14.337
36885W        W 1093  33.592  13.299  10.542
36886W        W 1094  14.332  27.527  10.634
36887W        W 1095  42.809   3.445   5.130
36888W        W 1096   7.259  23.101   3.173
36889W        W 1097  25.653  27.943   4.714
36890W        W 1098  29.558  24.999   4.140
36891W        W 1099  24.036  33.105  11.472
36892W        W 1100  42.881  16.622   1.274
36893W        W 1101  36.536  34.480   4.824
36894W        W 1102  42.790  14.149  11.609
36895W        W 1103  39.979   1.809  13.984
36896W        W 1104  18.788   4.757  13.003
36897W        W 1105  27.000  40.903  11.483
36898W        W 1106  40.900  42.522   2.837
36899W        W 1107   6.780  40.023   4.220
36900W        W 1108  30.635  19.632   0.883
36901W        W 1109  25.506   4.306  10.970
36902W        W 1110   7.376  40.965  13.984
36903W        W 1111  41.994  25.503   0.248
36904W        W 1112  42.863  42.296  14.933
36905W        W 1113  27.091  23.555   4.630
36906W        W 1114  21.530   6.422   0.925
36907W        W 1115  29.573  36.479  10.950
36908W        W 1116  33.006  43.276   1.696
36909W        W 1117  18.774  15.610  12.429
36910W        W 1118  42.903  30.548   1.312
36911W        W 1119   1.460  12.656  11.030
36912W        W 1120  22.635  18.273   4.144
36913W        W 1121   5.850  13.295   0.888
36914W        W 1122  10.712  27.950  11.070
36915W        W 1123  23.725   6.185   0.887
36916W        W 1124   9.299   3.324   0.832
36917W        W 1125  29.993   0.418  12.555
36918W        W 1126  16.250  32.138  11.496
36919W        W 1127  15.298  36.451   1.793
36920W        W 1128  10.642   3.336  12.887
36921W        W 1129  39.466  21.252  10.989
36922W        W 1130  35.601  35.040  11.101
36923W        W 1131  16.624  14.187   0.752
36924W        W 1132  39.471  29.102   3.183
36925W        W 1133  20.708   7.750  11.430
36926W        W 1134  14.699  39.537   3.303
36927W        W 1135   7.236  41.385   4.323
36928W        W 1136  41.532   2.314  14.312
36929W        W 1137   6.355  42.345  13.389
36930W        W 1138  31.031  26.099  11.577
36931W        W 1139  24.175  19.607  10.591
36932W        W 1140  20.210  40.036  10.542
36933W        W 1141   6.245  11.745   4.691
36934W        W 1142  13.752  22.623   1.871
36935W        W 1143  15.716  19.213   0.923
36936W        W 1144  29.016  17.691   0.257
36937W        W 1145  21.263  14.763   5.660
36938W        W 1146   9.848  44.835  12.534
36939W        W 1147  33.104  13.661  13.801
36940W        W 1148  24.214  14.597   0.807
36941W        W 1149  11.784  29.948   3.720
36942W        W 1150  35.520  35.098  13.502
36943W        W 1151   8.699  27.585   1.848
36944W        W 1152  41.305  10.862  10.447
36945W        W 1153  33.102  26.995  13.800
36946W        W 1154  23.157  35.062   3.662
36947W        W 1155  23.082   3.722  10.470
36948W        W 1156   5.306  42.829  14.321
36949W        W 1157  26.157  12.667  14.012
36950W        W 1158  25.080  25.125   0.795
36951W        W 1159  40.912  12.703  13.497
36952W        W 1160  23.579  13.291   2.414
36953W        W 1161  22.636  25.490  11.096
36954W        W 1162  21.257   1.829   1.920
36955W        W 1163   9.673   3.325   0.326
36956W        W 1164   3.831  32.947  12.023
36957W        W 1165  33.976   1.457   3.298
36958W        W 1166   4.749  33.101  10.147
36959W        W 1167  13.783  16.716   4.156
36960W        W 1168   1.758   0.843  12.452
36961W        W 1169   9.795  17.129   3.704
36962W        W 1170   2.316   2.839   0.779
36963W        W 1171   7.200  39.497  13.349
36964W        W 1172  17.583   7.908   2.758
36965W        W 1173  33.021  34.894   2.851
36966W        W 1174  38.822   6.856   3.147
36967W        W 1175  20.150  24.062  11.990
36968W        W 1176   2.377  37.950   4.772
36969W        W 1177  40.426   7.241   3.335
36970W        W 1178  19.663  25.486   4.246
36971W        W 1179  11.130  33.420  14.014
36972W        W 1180   6.212   5.891  11.481
36973W        W 1181   8.178  34.492  10.991
36974W        W 1182  19.572  44.497  11.425
36975W        W 1183  17.121   9.782   0.737
36976W        W 1184  21.212  21.562  10.419
36977W        W 1185  12.260  36.361  12.948
36978W        W 1186  35.427   6.282  14.318
36979W        W 1187   1.881  24.486   3.208
36980W        W 1188  10.641  41.862   1.356
36981W        W 1189  18.687  23.215   3.227
36982W        W 1190  41.848  23.027  12.823
36983W        W 1191  17.787   2.320   2.410
36984W        W 1192  42.023  16.150  10.984
36985W        W 1193  23.707  23.149  10.480
36986W        W 1194  42.911  36.093   0.478
36987W        W 1195  44.892   5.406  11.420
36988W        W 1196  18.140  26.123  11.568
36989W        W 1197  27.971  36.423  12.858
36990W        W 1198  10.739  18.761  10.902
36991W        W 1199  20.538  32.011  12.975
36992W        W 1200  38.496  12.727   4.242
36993W        W 1201   6.223  36.380   1.423
36994W        W 1202   2.327  39.379  14.856
36995W        W 1203  42.879  37.348   0.255
36996W        W 1204   2.920  11.157   2.752
36997W        W 1205  22.178  39.964  11.115
36998W        W 1206  41.437  18.267  10.997
36999W        W 1207   7.747  31.552  12.385
37000W        W 1208  24.150  14.778  12.845
37001W        W 1209  12.191  43.291   3.241
37002W        W 1210  40.955  40.365   1.789
37003W        W 1211  44.803  30.593   4.152
37004W        W 1212  32.051  27.632   1.330
37005W        W 1213  28.579  32.948  13.985
37006W        W 1214  42.995  13.207   3.190
37007W        W 1215  43.470  21.651   4.118
37008W        W 1216  13.634  20.122   0.866
37009W        W 1217  19.743  42.904  10.503
37010W        W 1218  28.987  37.088   3.742
37011W        W 1219  27.470  10.246   1.858
37012W        W 1220  10.192  37.479   1.780
37013W        W 1221  14.267   8.251   3.642
37014W        W 1222   3.387  44.794   1.386
37015W        W 1223  32.119  10.720  12.569
37016W        W 1224   5.286  36.539  14.438
37017W        W 1225  19.258  32.111  12.838
37018W        W 1226  37.360  18.210   2.250
37019W        W 1227  13.809  32.486   2.788
37020W        W 1228  30.117  24.172  13.470
37021W        W 1229  20.158  34.471   0.277
37022W        W 1230  17.646  38.891  13.422
37023W        W 1231  17.226  21.742  11.476
37024W        W 1232  13.818   8.328   0.275
37025W        W 1233  16.249  37.405  13.476
37026W        W 1234  26.627  26.049   1.310
37027W        W 1235   8.694  13.312   4.328
37028W        W 1236   1.336  36.067  13.326
37029W        W 1237  19.658  17.645   2.332
37030W        W 1238  11.669   9.783   2.749
37031W        W 1239   8.325   0.281   1.845
37032W        W 1240  29.975   4.255   3.300
37033W        W 1241  18.546  10.302   2.394
37034W        W 1242  19.082  20.214   0.903
37035W        W 1243  10.283  11.351   1.426
37036W        W 1244  30.963  11.170   4.696
37037W        W 1245  29.139  21.195   1.268
37038W        W 1246   7.203  27.026  11.460
37039W        W 1247  26.176   4.765   1.370
37040W        W 1248  20.126  12.352  13.872
37041W        W 1249   7.337  26.472   2.686
37042W        W 1250   2.305  18.140  10.148
37043W        W 1251  12.804  21.023   2.728
37044W        W 1252  14.123  39.328  11.398
37045W        W 1253  39.560  14.174  13.800
37046W        W 1254   8.704   7.690  13.061
37047W        W 1255  44.357  10.362  11.435
37048W        W 1256  44.970  44.303  14.916
37049W        W 1257  18.164   1.877  12.360
37050W        W 1258  34.416  34.989  10.587
37051W        W 1259  37.416  23.500   1.282
37052W        W 1260   6.290   4.334   2.897
37053W        W 1261  18.278   2.411  11.987
37054W        W 1262  12.833   1.340   3.195
37055W        W 1263   0.795  24.571  12.881
37056W        W 1264  24.502  27.094   3.707
37057W        W 1265  36.867  32.557   3.188
37058W        W 1266   5.902   6.197   3.189
37059W        W 1267  22.721  22.621  12.076
37060W        W 1268  11.650  20.686  13.792
37061W        W 1269  32.896  18.635  13.812
37062W        W 1270   1.380   2.311  11.600
37063W        W 1271  36.056  12.721  10.900
37064W        W 1272  42.453  38.006   2.813
37065W        W 1273  13.733  33.004   0.256
37066W        W 1274  42.017  30.011  13.938
37067W        W 1275  15.601  22.573   3.367
37068W        W 1276  35.950  38.388  12.530
37069W        W 1277  18.188  38.920   2.802
37070W        W 1278  19.724  37.894   2.846
37071W        W 1279  35.001  15.630   2.362
37072W        W 1280  28.472  20.593  11.975
37073W        W 1281  26.530  39.978   0.328
37074W        W 1282  40.961  36.514   2.418
37075W        W 1283  14.210  21.691  14.455
37076W        W 1284  18.545  19.589  12.411
37077W        W 1285  19.649   6.366  11.611
37078W        W 1286  22.152  27.498   4.701
37079W        W 1287  31.006  34.947   3.280
37080W        W 1288  19.576  23.545  13.390
37081W        W 1289  43.274  13.316   0.342
37082W        W 1290  40.852  28.476   3.727
37083W        W 1291  31.520  41.797  10.921
37084W        W 1292   7.681   9.678  14.507
37085W        W 1293  12.256  36.518   4.779
37086W        W 1294  28.662  21.029   3.836
37087W        W 1295   3.230  20.676  14.827
37088W        W 1296  34.565  43.874   3.339
37089W        W 1297  31.534   9.377   2.730
37090W        W 1298  40.534  11.691  13.442
37091W        W 1299  19.109  16.686  14.941
37092W        W 1300  19.614  23.068   1.801
37093W        W 1301  22.542  22.221   2.809
37094W        W 1302   3.353   0.403  14.874
37095W        W 1303  40.328  11.187  14.355
37096W        W 1304   1.857  25.525   1.349
37097W        W 1305  44.831   6.712   4.284
37098W        W 1306   4.220  30.080  11.452
37099W        W 1307  37.368  26.182   3.755
37100W        W 1308   4.860  16.697   1.210
37101W        W 1309   4.926  28.129  13.537
37102W        W 1310  36.891  41.381   1.708
37103W        W 1311  36.497  38.976  13.890
37104W        W 1312  26.494  39.398  14.013
37105W        W 1313   0.480  39.414   0.303
37106W        W 1314  16.283  40.380   0.768
37107W        W 1315  35.051  27.180  11.433
37108W        W 1316  10.328  14.617  10.151
37109W        W 1317  38.008  27.558  11.501
37110W        W 1318   8.811  19.120   0.841
37111W        W 1319   1.819  22.666   2.245
37112W        W 1320  31.977  17.098   4.256
37113W        W 1321  40.036  32.397  11.396
37114W        W 1322  17.296  29.497   1.901
37115W        W 1323  30.922   3.340   0.865
37116W        W 1324   5.344  38.558   2.843
37117W        W 1325  15.811   7.794  13.861
37118W        W 1326  12.749  40.509   2.815
37119W        W 1327  30.923  28.521  13.910
37120W        W 1328  29.603  26.553  11.382
37121W        W 1329   9.855   5.353  12.970
37122W        W 1330  29.512  28.454   2.889
37123W        W 1331  17.562  10.872  11.517
37124W        W 1332  37.910  15.583  11.443
37125W        W 1333  36.895  17.585  11.418
37126W        W 1334  23.655   1.896  11.461
37127W        W 1335  42.440  30.066   4.351
37128W        W 1336  32.482  38.389  14.469
37129W        W 1337   2.798  29.659  13.542
37130W        W 1338   5.832  16.252  11.479
37131W        W 1339  41.854  24.130   0.904
37132W        W 1340  23.028   8.240   2.193
37133W        W 1341  11.808   0.491  10.408
37134W        W 1342  16.695   1.800  12.095
37135W        W 1343  15.315  20.556  10.507
37136W        W 1344  12.141  17.145   1.372
37137W        W 1345   7.836  42.516   4.256
37138W        W 1346  31.073  20.127  12.374
37139W        W 1347  38.820   2.798   2.323
37140W        W 1348  18.080  31.614  13.496
37141W        W 1349  30.124   9.221   0.409
37142W        W 1350  17.200   6.419   2.340
37143W        W 1351  16.656  31.538  10.517
37144W        W 1352  27.130  40.841   4.279
37145W        W 1353  17.063  16.166   1.775
37146W        W 1354  35.984  31.509  11.092
37147W        W 1355  13.124   6.319   2.771
37148W        W 1356  42.005  13.319  11.596
37149W        W 1357  38.865   3.725   9.977
37150W        W 1358  29.506  18.717   1.362
37151W        W 1359  34.373  39.552   1.351
37152W        W 1360  34.080  11.710   0.374
37153W        W 1361  40.827  39.944  12.991
37154W        W 1362  18.735  27.691   4.253
37155W        W 1363  14.123  40.935   2.674
37156W        W 1364   0.249  13.673  11.119
37157W        W 1365  41.815  41.026   2.890
37158W        W 1366   9.815  17.712  14.330
37159W        W 1367  42.920  11.780  13.978
37160W        W 1368   0.250   1.942   0.800
37161W        W 1369  28.992   5.221  14.275
37162W        W 1370  25.103  37.978  11.059
37163W        W 1371  42.964   5.864  13.794
37164W        W 1372   8.733  33.095  10.965
37165W        W 1373  32.987  16.249   4.252
37166W        W 1374  42.312  15.658   0.392
37167W        W 1375   5.752   8.386   3.819
37168W        W 1376  43.965  29.544  13.415
37169W        W 1377   8.666  13.722   3.235
37170W        W 1378   0.796  32.522   2.709
37171W        W 1379  14.800  20.223  14.932
37172W        W 1380   5.197  23.159   1.896
37173W        W 1381  26.058  20.053   1.415
37174W        W 1382  10.805  10.874  14.960
37175W        W 1383  33.885  40.952   0.766
37176W        W 1384  28.010  40.313   4.346
37177W        W 1385  14.808   1.830  13.332
37178W        W 1386  38.455  17.736   0.780
37179W        W 1387  21.099  11.332   3.220
37180W        W 1388  17.599  35.928  14.764
37181W        W 1389  22.546   7.386  10.019
37182W        W 1390  14.160  44.936  13.421
37183W        W 1391  17.801  32.094   0.910
37184W        W 1392  33.058  14.659  12.996
37185W        W 1393  11.203  26.677   4.718
37186W        W 1394  29.623  18.106  11.448
37187W        W 1395  12.358   3.244   0.373
37188W        W 1396  16.627  28.659  13.342
37189W        W 1397  24.529  14.829   1.892
37190W        W 1398  22.106  13.222   1.442
37191W        W 1399  24.512  13.157   1.906
37192W        W 1400   0.256  29.919  12.405
37193W        W 1401  42.964  28.104   5.094
37194W        W 1402  28.498  13.836  11.945
37195W        W 1403  39.848  42.299  14.798
37196W        W 1404  19.630  27.608   3.664
37197W        W 1405  24.574   0.411  11.890
37198W        W 1406   2.855  24.563   0.449
37199W        W 1407  13.793  18.265   4.700
37200W        W 1408  28.557  34.011   4.756
37201W        W 1409   9.320  30.024  13.356
37202W        W 1410  31.913  35.440   1.228
37203W        W 1411  23.122  16.755  12.029
37204W        W 1412  22.578   6.699  13.444
37205W        W 1413   3.454  21.105  12.509
37206W        W 1414  19.235  38.401  13.880
37207W        W 1415  13.212   0.493  10.120
37208W        W 1416   8.671  27.051   2.266
37209W        W 1417  37.376  44.319  11.033
37210W        W 1418   6.879  15.233  12.577
37211W        W 1419  35.404  18.657  14.005
37212W        W 1420  28.061   2.965   3.283
37213W        W 1421  12.272  39.388  11.603
37214W        W 1422  41.807  32.565   3.152
37215W        W 1423  31.092  14.663  14.370
37216W        W 1424  32.482  33.901  11.582
37217W        W 1425  23.550   0.933  11.100
37218W        W 1426  30.463  41.408  10.600
37219W        W 1427  36.457  10.247  13.950
37220W        W 1428  32.582  32.563  10.573
37221W        W 1429  36.459  40.369  11.076
37222W        W 1430   1.413  11.180   3.236
37223W        W 1431  25.587  37.833  12.891
37224W        W 1432  32.514  33.454  10.900
37225W        W 1433  28.464  21.683   1.834
37226W        W 1434  13.151   5.920  10.966
37227W        W 1435  43.966  40.041   2.884
37228W        W 1436   8.395  29.972  11.548
37229W        W 1437  16.693   6.774   1.907
37230W        W 1438   9.788   1.835  14.941
37231W        W 1439  34.009  39.854   2.350
37232W        W 1440  12.731   7.870   0.330
37233W        W 1441  44.893  19.614  11.581
37234W        W 1442   6.423  20.760   1.715
37235W        W 1443  10.219  23.200  11.462
37236W        W 1444   6.848   6.297  12.511
37237W        W 1445  15.199  12.187   1.279
37238W        W 1446  44.304  16.811  12.498
37239W        W 1447  22.638  18.547  14.006
37240W        W 1448  21.655  37.518  12.529
37241W        W 1449   2.907  43.514  14.829
37242W        W 1450  26.099  19.694  13.399
37243W        W 1451  15.083  40.004  14.877
37244W        W 1452   6.828  13.112  13.529
37245W        W 1453  36.082  35.582   2.707
37246W        W 1454  37.506  19.676   2.744
37247W        W 1455  13.721  18.201   3.684
37248W        W 1456  37.874  29.136  11.935
37249W        W 1457   5.211  34.060  11.384
37250W        W 1458  26.983  41.528   4.802
37251W        W 1459  32.022   5.439   0.843
37252W        W 1460  35.038   2.225   1.922
37253W        W 1461  17.179  17.593  11.469
37254W        W 1462  26.137  20.658   4.164
37255W        W 1463  18.211  43.447   4.211
37256W        W 1464  44.433   3.270   3.267
37257W        W 1465  22.569  31.967   5.109
37258W        W 1466  27.018   5.396   3.813
37259W        W 1467   2.800  33.415   9.619
37260W        W 1468  17.107   6.381  10.635
37261W        W 1469  44.833  42.913  14.350
37262W        W 1470  31.605   7.172  11.103
37263W        W 1471   0.806  28.621  11.935
37264W        W 1472  10.795   8.175  12.387
37265W        W 1473  40.970  31.595  14.301
37266W        W 1474  44.400   7.225   0.750
37267W        W 1475  15.170  16.309  14.315
37268W        W 1476  20.175   4.813  11.946
37269W        W 1477  37.456   1.358   2.373
37270W        W 1478  29.651  39.483  13.521
37271W        W 1479  37.427  21.079  12.547
37272W        W 1480  29.626  16.603  11.495
37273W        W 1481   8.843   4.820  11.938
37274W        W 1482  36.369  20.533  13.899
37275W        W 1483  22.553  14.130   2.308
37276W        W 1484  42.378  22.615  14.439
37277W        W 1485  18.156  23.520   3.741
37278W        W 1486  22.226  12.352  11.072
37279W        W 1487  27.570  37.483  13.823
37280W        W 1488  17.623  21.557  12.852
37281W        W 1489  14.185  28.441  12.405
37282W        W 1490   4.924  35.057   0.780
37283W        W 1491  35.080  31.470  11.554
37284W        W 1492  22.623   4.275   3.359
37285W        W 1493   8.370  30.105  11.946
37286W        W 1494  12.705   4.446  14.491
37287W        W 1495  33.574  23.072   2.711
37288W        W 1496  14.232  37.552   5.082
37289W        W 1497  40.869  28.547   1.896
37290W        W 1498   0.393  22.011   1.845
37291W        W 1499   7.332  31.003  11.064
37292W        W 1500  30.442  39.960   4.825
37293W        W 1501   5.435  42.030  13.910
37294W        W 1502  30.006  19.728  14.282
37295W        W 1503  42.957  16.213  12.376
37296W        W 1504  24.485  21.648   0.467
37297W        W 1505  27.119  33.931  13.914
37298W        W 1506  19.209  17.642   4.169
37299W        W 1507  30.046  22.111   2.716
37300W        W 1508  16.714  39.973   4.778
37301W        W 1509  31.010  30.655   2.683
37302W        W 1510   4.415  26.527  13.969
37303W        W 1511  38.525  34.091  12.825
37304W        W 1512   2.884  16.715  10.508
37305W        W 1513  44.310   5.822  11.932
37306W        W 1514  27.189   6.783  11.859
37307W        W 1515  15.175   4.921  13.931
37308W        W 1516   9.262  44.938   0.264
37309W        W 1517  28.547  42.396   1.777
37310W        W 1518   6.343  29.495  13.018
37311W        W 1519  36.882  16.181   3.203
37312W        W 1520  23.146  20.765   1.220
37313W        W 1521  23.183  35.460   0.804
37314W        W 1522  18.596  16.181  14.798
37315W        W 1523  24.196   9.686   4.629
37316W        W 1524   1.771  18.050  10.474
37317W        W 1525  30.080  11.152  13.497
37318W        W 1526   6.254  12.155   0.915
37319W        W 1527  26.959  38.329   2.709
37320W        W 1528  37.456   3.736  14.446
37321W        W 1529  36.060  23.131  12.362
37322W        W 1530   4.923   5.891  12.572
37323W        W 1531   6.715  32.631   4.355
37324W        W 1532  18.623  22.202   2.348
37325W        W 1533  35.576  42.505   4.627
37326W        W 1534   0.780  33.537  11.396
37327W        W 1535   6.183  40.999  12.936
37328W        W 1536  41.354  13.110  10.620
37329W        W 1537  29.055  16.697   4.701
37330W        W 1538  32.023  15.730  11.454
37331W        W 1539  30.912  32.106   1.810
37332W        W 1540  41.021  44.498   3.197
37333W        W 1541  35.480  44.835   1.787
37334W        W 1542  33.092  37.865   2.773
37335W        W 1543   0.791  37.846  11.032
37336W        W 1544  21.557  33.125   2.800
37337W        W 1545   3.292   7.854  13.912
37338W        W 1546  19.278   8.847   1.786
37339W        W 1547  40.922  23.003   4.245
37340W        W 1548  23.214  19.131  14.949
37341W        W 1549  29.127   8.832   0.930
37342W        W 1550  29.549  22.527   3.698
37343W        W 1551  15.108  22.659  11.557
37344W        W 1552  15.642  23.041  11.476
37345W        W 1553  21.743  14.249   0.331
37346W        W 1554  30.973  16.618   2.678
37347W        W 1555  11.705   7.192  11.886
37348W        W 1556  23.531   9.335   1.907
37349W        W 1557  38.046   6.740   2.190
37350W        W 1558  22.041  24.979  12.956
37351W        W 1559  27.449   3.740  12.450
37352W        W 1560  23.588   7.198   0.476
37353W        W 1561   6.404   2.401   3.864
37354W        W 1562  39.039   7.807  10.551
37355W        W 1563  39.911   4.348   3.356
37356W        W 1564  33.516  14.763  12.431
37357W        W 1565   9.273  26.483   4.613
37358W        W 1566  27.126  12.756   1.773
37359W        W 1567  43.329  40.037  13.943
37360W        W 1568   1.851  19.636   1.404
37361W        W 1569   7.779  20.533   0.736
37362W        W 1570  10.850  25.655   3.192
37363W        W 1571  25.501   1.863   0.865
37364W        W 1572  36.383  23.673  13.839
37365W        W 1573  29.499   5.757   0.902
37366W        W 1574  44.946  18.688   2.213
37367W        W 1575   1.322   3.745   0.880
37368W        W 1576  12.283  18.221  13.978
37369W        W 1577  18.209   8.319  10.493
37370W        W 1578   4.301  30.532   3.786
37371W        W 1579  36.552  24.142  10.458
37372W        W 1580  17.145  30.075  13.435
37373W        W 1581  19.622  36.354  12.446
37374W        W 1582  23.042  38.331   0.921
37375W        W 1583  42.997  32.013  14.809
37376W        W 1584  19.205  32.437   2.247
37377W        W 1585  29.425  34.890  13.445
37378W        W 1586  28.618  15.673  12.349
37379W        W 1587   5.288  26.673   0.421
37380W        W 1588  29.426  33.402   1.874
37381W        W 1589   6.249  37.863  11.518
37382W        W 1590  20.760  22.068   1.397
37383W        W 1591   7.745  44.991  14.325
37384W        W 1592  24.665   7.796   0.422
37385W        W 1593  32.441  43.001   4.291
37386W        W 1594   4.801  28.146  11.118
37387W        W 1595  13.704  34.063   2.674
37388W        W 1596  16.224  16.778   0.882
37389W        W 1597  18.563  16.132  12.851
37390W        W 1598  37.037  38.873   3.811
37391W        W 1599  38.413  19.237   1.305
37392W        W 1600  34.601  22.036  12.348
37393W        W 1601  16.587  19.286   2.694
37394W        W 1602   3.236   5.283   4.257
37395W        W 1603  32.044  42.290  14.345
37396W        W 1604  41.354  12.289   3.342
37397W        W 1605   5.276   7.746  12.937
37398W        W 1606  40.867  42.824   4.702
37399W        W 1607  16.633  37.977  14.334
37400W        W 1608  36.841  40.458  13.857
37401W        W 1609  14.313  38.924  14.009
37402W        W 1610  44.834  20.128   1.212
37403W        W 1611  20.058  15.620   2.689
37404W        W 1612  16.740  33.572   1.276
37405W        W 1613  29.057  34.896   0.833
37406W        W 1614  24.021   0.288  14.447
37407W        W 1615  11.294  23.153  10.573
37408W        W 1616   8.768  44.997  11.085
37409W        W 1617   9.695  14.136   2.306
37410W        W 1618  23.548   6.347  12.490
37411W        W 1619  34.082  37.424  10.412
37412W        W 1620  22.591  16.752   9.584
37413W        W 1621  35.542  29.480  10.566
37414W        W 1622  26.615  32.496   4.691
37415W        W 1623  32.486  18.673  11.932
37416W        W 1624  30.507  27.094  13.543
37417W        W 1625  31.028  33.410  12.044
37418W        W 1626  29.967  34.016   1.750
37419W        W 1627  27.183   0.438   3.173
37420W        W 1628   9.784  42.780   2.292
37421W        W 1629  39.967  26.682   2.843
37422W        W 1630  44.971  42.002   1.211
37423W        W 1631  43.433  29.580  14.439
37424W        W 1632   1.395  23.614   2.685
37425W        W 1633  43.857  19.771   4.736
37426W        W 1634  27.197  40.527   3.865
37427W        W 1635  32.927  11.725   4.615
37428W        W 1636  26.179   1.847  11.111
37429W        W 1637  15.297  44.838   1.387
37430W        W 1638  15.685  23.523   1.747
37431W        W 1639   9.357  21.732   3.239
37432W        W 1640  39.848  27.598   0.940
37433W        W 1641   0.822   5.291  13.392
37434W        W 1642   0.795  16.776   2.238
37435W        W 1643   9.303   3.285   3.808
37436W        W 1644  44.965  34.902   1.905
37437W        W 1645  15.750   3.266  13.540
37438W        W 1646  12.273  41.319  13.874
37439W        W 1647   8.160  32.605  14.858
37440W        W 1648  23.090  40.365  11.912
37441W        W 1649  17.180  39.826  12.575
37442W        W 1650  37.356   6.875  12.881
37443W        W 1651  10.339  26.611   1.892
37444W        W 1652  10.651  39.464  11.940
37445W        W 1653  16.754  23.170   2.706
37446W        W 1654   9.374  20.082  10.456
37447W        W 1655  30.043  34.612  14.871
37448W        W 1656   1.773  10.853  13.330
37449W        W 1657  34.485  16.741  14.936
37450W        W 1658   6.402   5.689   1.832
37451W        W 1659  11.724  32.050  10.627
37452W        W 1660  33.992   1.886   2.406
37453W        W 1661  41.788  14.780  13.452
37454W        W 1662   0.972  21.226   2.196
37455W        W 1663   0.261  28.551  13.880
37456W        W 1664  18.248  33.453  10.636
37457W        W 1665  43.877  29.462   4.291
37458W        W 1666   9.784  32.496   4.292
37459W        W 1667   4.425   2.956   1.374
37460W        W 1668  40.321  41.392   2.362
37461W        W 1669   6.248  29.595  14.864
37462W        W 1670   7.173   0.797   3.783
37463W        W 1671  44.841  39.398  13.881
37464W        W 1672  39.503  18.758  14.846
37465W        W 1673  12.847  12.733   1.747
37466W        W 1674  21.577  24.131   3.635
37467W        W 1675   5.898  22.714  10.418
37468W        W 1676  11.334  18.646   2.225
37469W        W 1677  41.360  26.016   2.380
37470W        W 1678  40.023  25.486  10.994
37471W        W 1679  42.788  19.068  11.064
37472W        W 1680  10.848  30.655  10.592
37473W        W 1681  43.298  10.752   0.948
37474W        W 1682   2.947   0.846  12.928
37475W        W 1683  34.589  23.502   2.719
37476W        W 1684   2.789  28.601   1.217
37477W        W 1685  30.922  20.744  14.452
37478W        W 1686  22.015   6.362  11.488
37479W        W 1687  32.480  28.499  10.891
37480W        W 1688  37.990  39.480   4.227
37481W        W 1689  18.564  22.590   4.777
37482W        W 1690   3.710  32.894  11.070
37483W        W 1691   1.770  18.680  11.995
37484W        W 1692  31.943  27.575   2.770
37485W        W 1693  41.478   3.428  12.061
37486W        W 1694  43.935  13.180   1.340
37487W        W 1695  17.307  29.995  13.891
37488W        W 1696   7.382   3.813   3.249
37489W        W 1697  25.010   4.393  12.463
37490W        W 1698  22.071   5.786  10.889
37491W        W 1699  41.818  40.542   1.288
37492W        W 1700   1.449   3.761  12.049
37493W        W 1701   0.494   8.702  11.510
37494W        W 1702  11.708  40.991  14.365
37495W        W 1703   3.908  33.402  10.068
37496W        W 1704  12.186  40.424   1.318
37497W        W 1705  28.004  36.972  12.350
37498W        W 1706  25.136  25.639   0.453
37499W        W 1707  39.012  41.345  13.846
37500W        W 1708  33.595  19.668   1.770
37501W        W 1709  31.027  22.555   1.700
37502W        W 1710   2.856  14.790   3.735
37503W        W 1711  26.621  25.218   2.800
37504W        W 1712   1.950  21.608   2.375
37505W        W 1713  13.151  13.746  13.000
37506W        W 1714  31.575  26.998  13.440
37507W        W 1715  11.685   1.371   0.465
37508W        W 1716   0.449  19.082   4.686
37509W        W 1717  30.146  16.747   0.360
37510W        W 1718  26.461  33.518   2.402
37511W        W 1719   3.919   3.820   3.374
37512W        W 1720  25.584  14.816   2.726
37513W        W 1721   2.328   3.952  11.068
37514W        W 1722  35.540   4.264  13.457
37515W        W 1723  11.143  10.318   2.866
37516W        W 1724  14.699  41.012   0.746
37517W        W 1725  34.085  37.552  10.960
37518W        W 1726  40.020   8.219  12.484
37519W        W 1727  40.940  11.764   2.250
37520W        W 1728  32.989  22.120  10.468
37521W        W 1729  19.238   2.844   4.239
37522W        W 1730  17.148  32.619  11.997
37523W        W 1731   7.778   8.693  11.399
37524W        W 1732  32.134  20.718  13.514
37525W        W 1733  41.907  13.717   1.696
37526W        W 1734  30.028  26.511   0.959
37527W        W 1735   0.428  12.815  12.934
37528W        W 1736  18.633  35.453  14.449
37529W        W 1737  19.161  10.288  12.500
37530W        W 1738  39.355   4.927  14.759
37531W        W 1739   1.245   8.351  14.357
37532W        W 1740  40.351  43.987   1.906
37533W        W 1741  44.402  33.875  10.492
37534W        W 1742  19.595  10.279   2.810
37535W        W 1743  17.279  26.136   3.714
37536W        W 1744  24.080  23.571  10.154
37537W        W 1745   5.868  35.499  14.903
37538W        W 1746  40.348  27.994   0.385
37539W        W 1747   5.736  42.489  13.341
37540W        W 1748  18.213   4.795  10.560
37541W        W 1749  14.295  25.977  11.375
37542W        W 1750   6.922  30.589   3.856
37543W        W 1751  17.255  40.941   1.907
37544W        W 1752  19.598  10.709   4.257
37545W        W 1753   7.179  32.445   0.745
37546W        W 1754  31.152  25.616  11.562
37547W        W 1755  36.469  15.092  14.355
37548W        W 1756  40.503   9.351   1.416
37549W        W 1757   2.748  13.636  13.307
37550W        W 1758   2.282  11.232   2.268
37551W        W 1759  30.544  30.029   2.670
37552W        W 1760  30.413  36.946   3.770
37553W        W 1761  15.702  17.239   3.698
37554W        W 1762  27.651  24.165  11.125
37555W        W 1763  41.331  16.601  11.438
37556W        W 1764  29.449  33.988   3.638
37557W        W 1765  37.084  22.531   2.693
37558W        W 1766   2.260  35.110  14.396
37559W        W 1767  36.899  27.094   2.686
37560W        W 1768  28.651  40.968   1.375
37561W        W 1769  43.400  29.023   3.300
37562W        W 1770   2.920   1.866   2.683
37563W        W 1771   6.856  43.022  12.542
37564W        W 1772  34.006  21.023   1.376
37565W        W 1773  23.209   8.897   2.182
37566W        W 1774   4.900  18.571   1.262
37567W        W 1775   9.227  42.318  13.501
37568W        W 1776  12.190  29.175   3.819
37569W        W 1777  25.144  30.592  12.876
37570W        W 1778  26.069  42.997  12.830
37571W        W 1779  18.278   2.427  11.540
37572W        W 1780  18.288  13.264   0.372
37573W        W 1781  14.295  44.361  10.644
37574W        W 1782  11.260  33.945  14.862
37575W        W 1783  11.669  36.056   1.823
37576W        W 1784   8.364  43.450  13.865
37577W        W 1785  20.035   1.414   1.905
37578W        W 1786   1.857  20.050  13.023
37579W        W 1787  17.172  31.047   0.268
37580W        W 1788  35.382   0.457   3.263
37581W        W 1789  23.063  14.829   3.198
37582W        W 1790   4.792   0.439   1.789
37583W        W 1791  10.273  38.459   3.719
37584W        W 1792  31.133   4.829  10.034
37585W        W 1793  43.396  38.854   0.297
37586W        W 1794   9.877  31.624   4.202
37587W        W 1795  35.037   4.353   0.380
37588W        W 1796  30.485  27.169  11.391
37589W        W 1797  34.423  23.095  13.967
37590W        W 1798  17.278  19.583   4.235
37591W        W 1799  25.675  37.372   4.660
37592W        W 1800   7.864   5.724  13.483
37593W        W 1801   2.371  40.980   0.469
37594W        W 1802   7.768  23.566  13.854
37595W        W 1803  44.951  19.735   3.812
37596W        W 1804  20.033  29.528   1.375
37597W        W 1805  40.478  31.120   2.843
37598W        W 1806  41.468  35.924  12.554
37599W        W 1807   0.901  32.931  12.960
37600W        W 1808  40.391  14.112  11.011
37601W        W 1809   2.286   0.854  11.002
37602W        W 1810   9.342  28.998   4.321
37603W        W 1811  34.392  16.657   0.864
37604W        W 1812  44.436  29.551  13.941
37605W        W 1813  24.646  10.197   2.388
37606W        W 1814   4.798   8.660   3.332
37607W        W 1815  13.328   9.235  11.459
37608W        W 1816  32.494   1.899  11.575
37609W        W 1817  14.795  24.223   3.866
37610W        W 1818  19.054  18.707   0.835
37611W        W 1819  37.895  24.230  12.496
37612W        W 1820  11.750   9.874  11.375
37613W        W 1821  25.590  37.541   0.930
37614W        W 1822  22.017  38.343   4.179
37615W        W 1823   8.196  15.136   0.264
37616W        W 1824  16.199  17.139   2.299
37617W        W 1825  44.384  10.213  14.861
37618W        W 1826  22.121  36.869  12.411
37619W        W 1827  37.465  12.338   4.767
37620W        W 1828   6.791  12.764   1.419
37621W        W 1829  18.250   5.880  10.614
37622W        W 1830  33.516   5.750   0.332
37623W        W 1831  13.209  26.543   4.801
37624W        W 1832  42.836   8.773  11.573
37625W        W 1833  42.385  18.602  13.028
37626W        W 1834  11.163   9.825   4.170
37627W        W 1835  26.598  11.826   4.320
37628W        W 1836  29.451  17.225   4.132
37629W        W 1837  34.035  22.529   4.308
37630W        W 1838  15.325  14.177   0.260
37631W        W 1839  32.625  12.121  14.989
37632W        W 1840   1.365  37.905   0.749
37633W        W 1841   6.411  37.034  10.583
37634W        W 1842   2.393  39.939   3.309
37635W        W 1843  44.894  30.978   1.805
37636W        W 1844  31.610   5.412   4.172
37637W        W 1845  14.608  17.195   3.338
37638W        W 1846  30.031  28.150   3.652
37639W        W 1847  15.735  18.636   2.694
37640W        W 1848   3.379   6.754  14.336
37641W        W 1849  41.426  38.959   4.280
37642W        W 1850  22.564  44.890   3.386
37643W        W 1851  36.039  19.102  10.455
37644W        W 1852  33.535  25.566  13.368
37645W        W 1853   2.752  18.260   4.169
37646W        W 1854  31.091  17.257   2.855
37647W        W 1855  38.878  24.205  12.983
37648W        W 1856  20.742  19.185   2.336
37649W        W 1857  36.952   8.746   2.419
37650W        W 1858  37.460   2.876   0.329
37651W        W 1859  30.613  17.738  10.923
37652W        W 1860   1.891  40.897  10.525
37653W        W 1861   5.840  11.231  13.969
37654W        W 1862  12.289   1.428   0.419
37655W        W 1863  11.304  12.789   3.307
37656W        W 1864   1.804  15.167  14.500
37657W        W 1865  38.965   8.311  13.372
37658W        W 1866  33.096   6.682  11.605
37659W        W 1867   9.177  21.596  11.099
37660W        W 1868   3.728  17.764  14.964
37661W        W 1869  17.199  31.132   4.642
37662W        W 1870   8.855  43.788  12.056
37663W        W 1871  21.222  39.556   4.770
37664W        W 1872   5.435  37.958  10.443
37665W        W 1873  43.778   2.845  13.383
37666W        W 1874  44.345  33.497   1.757
37667W        W 1875  34.035  14.777  10.141
37668W        W 1876   3.906  20.141  14.498
37669W        W 1877  14.804  21.559   4.798
37670W        W 1878  12.703  12.184   5.213
37671W        W 1879  15.749  21.061  12.970
37672W        W 1880  36.850  43.278  11.466
37673W        W 1881  40.897  14.681  13.520
37674W        W 1882  30.619  10.355  10.038
37675W        W 1883  31.915  24.015   2.709
37676W        W 1884  37.895  33.090  14.499
37677W        W 1885  37.939   1.765  13.526
37678W        W 1886  27.665  37.076  13.453
37679W        W 1887   1.372  12.315   4.165
37680W        W 1888  41.473   4.395  10.947
37681W        W 1889  41.502  42.872  14.346
37682W        W 1890  14.151  33.614  11.452
37683W        W 1891  43.333  38.848  12.361
37684W        W 1892   2.275  34.905   1.863
37685W        W 1893  38.430  25.686   2.194
37686W        W 1894   0.903  40.047   4.157
37687W        W 1895  14.332   7.182  14.804
37688W        W 1896  32.577  31.544   3.219
37689W        W 1897  16.074  19.095  13.482
37690W        W 1898  28.649  17.118  11.904
37691W        W 1899  38.408  22.661   3.258
37692W        W 1900  43.791  31.045  12.911
37693W        W 1901  41.477  34.542   2.224
37694W        W 1902  12.197  38.441   2.341
37695W        W 1903  42.305   0.985   0.830
37696W        W 1904   8.805  13.210   0.471
37697W        W 1905  41.999  38.940   5.152
37698W        W 1906   5.239  34.964   1.419
37699W        W 1907   6.347  23.717  10.434
37700W        W 1908  16.106  30.520  10.993
37701W        W 1909   4.386   5.787  10.956
37702W        W 1910  13.675  10.661  13.343
37703W        W 1911  31.009  27.466   1.864
37704W        W 1912  23.098  23.606  13.008
37705W        W 1913  28.066  34.375  12.876
37706W        W 1914  20.133   1.863   2.772
37707W        W 1915   1.896   1.761   4.219
37708W        W 1916  40.002  18.622  13.509
37709W        W 1917   5.278  37.448   1.723
37710W        W 1918  40.894   3.423  12.982
37711W        W 1919  35.423   0.483   4.759
37712W        W 1920  10.670  26.528  14.773
37713W        W 1921  40.317  24.562  10.578
37714W        W 1922  31.471  19.114   1.392
37715W        W 1923   7.769  25.974   4.792
37716W        W 1924  21.743  29.016   0.356
37717W        W 1925   9.659  15.654  14.854
37718W        W 1926  27.570  22.613   4.694
37719W        W 1927   1.855  37.044  14.794
37720W        W 1928   3.801  26.960  14.302
37721W        W 1929   0.899  43.947   0.865
37722W        W 1930  29.645  33.505   9.986
37723W        W 1931  27.571  31.056   3.349
37724W        W 1932  14.777   7.895  12.088
37725W        W 1933  22.585   1.350   2.817
37726W        W 1934  44.444   3.330  13.397
37727W        W 1935  41.322   8.736   3.647
37728W        W 1936  31.439  26.553  11.429
37729W        W 1937  38.843  16.142  10.431
37730W        W 1938  37.845  14.327   0.897
37731W        W 1939   6.290  18.785   5.226
37732W        W 1940   8.860   1.966  13.014
37733W        W 1941   5.232  19.273   4.795
37734W        W 1942  18.766  36.360  13.335
37735W        W 1943   9.389  21.094   4.227
37736W        W 1944  44.772  33.446  11.973
37737W        W 1945  26.697  26.010  11.120
37738W        W 1946  23.160   9.838   3.298
37739W        W 1947  39.399   5.365  14.374
37740W        W 1948  35.981  20.045  11.439
37741W        W 1949  13.179  31.021  13.479
37742W        W 1950   2.781  27.948  11.021
37743W        W 1951   6.832  43.450  11.414
37744W        W 1952  27.952   8.378  14.373
37745W        W 1953   6.258  29.494  14.416
37746W        W 1954  31.530  23.140   3.299
37747W        W 1955   4.812   8.706   2.886
37748W        W 1956  16.741  42.832  10.010
37749W        W 1957  19.205  13.319   0.301
37750W        W 1958   7.807  39.479   2.289
37751W        W 1959   4.450  18.756   4.155
37752W        W 1960  24.090  12.163  12.966
37753W        W 1961   4.426  33.905  10.971
37754W        W 1962  29.943  18.075  11.600
37755W        W 1963  18.721  26.205  11.986
37756W        W 1964  19.617  16.183  11.116
37757W        W 1965  39.882  23.198   2.231
37758W        W 1966   6.234  28.465   2.241
37759W        W 1967   8.805  24.094  14.485
37760W        W 1968  13.788  29.437  14.353
37761W        W 1969  19.579   8.706  13.817
37762W        W 1970   6.709  44.494   1.711
37763W        W 1971   3.903  22.021  12.823
37764W        W 1972  20.255   4.705   2.804
37765W        W 1973  11.238  21.686   1.430
37766W        W 1974  33.071  19.653   1.239
37767W        W 1975  41.021  38.380   1.898
37768W        W 1976  24.170  42.798   0.782
37769W        W 1977   3.231   4.388   1.410
37770W        W 1978  31.094  20.077  10.629
37771W        W 1979  10.712   9.348   3.663
37772W        W 1980  43.786  29.116   1.867
37773W        W 1981  39.063  12.174   3.302
37774W        W 1982   4.845  23.522  11.458
37775W        W 1983  23.041  31.441  12.364
37776W        W 1984  11.633   5.317   4.677
37777W        W 1985  15.164   0.467  11.881
37778W        W 1986  34.397  12.359  11.075
37779W        W 1987  23.712  34.390  11.129
37780W        W 1988  15.155  43.775   2.216
37781W        W 1989  30.008  40.811  12.495
37782W        W 1990   8.160  24.021   4.270
37783W        W 1991   0.459  28.170   5.566
37784W        W 1992   1.252  44.395  11.592
37785W        W 1993  19.613  25.025   3.841
37786W        W 1994   3.710  27.652   1.241
37787W        W 1995  31.037  34.026   4.600
37788W        W 1996  37.859  43.776   3.259
37789W        W 1997  43.287   1.300  12.022
37790W        W 1998  30.419  28.630   4.115
37791W        W 1999  10.240   2.259   0.816
37792W        W 2000  34.386   9.185  14.795
37793W        W 2001  42.992  19.716   0.783
37794W        W 2002  35.534  27.543  12.883
37795W        W 2003  19.612  17.167   1.757
37796W        W 2004   0.411   2.842  12.931
37797W        W 2005  11.822  42.425  13.532
37798W        W 2006  25.132  13.174   5.281
37799W        W 2007  20.051  43.954  10.531
37800W        W 2008   1.478  41.867   0.340
37801W        W 2009  34.873  12.790   3.834
37802W        W 2010  35.458  18.766   3.730
37803W        W 2011  13.640   8.293  14.330
37804W        W 2012  42.509  18.620   0.768
37805W        W 2013  31.107  11.166   0.787
37806W        W 2014  40.474   2.403   1.847
37807W        W 2015   9.253   2.806  11.486
37808W        W 2016  25.601  26.117  14.004
37809W        W 2017  23.680  35.102  13.325
37810W        W 2018  19.193   7.696   4.151
37811W        W 2019  35.397  43.794   0.362
37812W        W 2020  36.018  40.499  13.951
37813W        W 2021  23.231  32.026   4.670
37814W        W 2022   9.650  22.226  14.993
37815W        W 2023  31.015  13.298   5.566
37816W        W 2024  39.430   2.886  13.346
37817W        W 2025   2.304  19.281  12.949
37818W        W 2026   4.426   2.754   4.719
37819W        W 2027   1.256  29.627   0.281
37820W        W 2028  18.746  20.199  14.030
37821W        W 2029  36.445  37.888  13.942
37822W        W 2030  29.434   7.223   2.277
37823W        W 2031  38.941  11.251  11.970
37824W        W 2032  38.505  23.049  14.878
37825W        W 2033  28.115  19.583  11.439
37826W        W 2034   3.295   5.854   4.783
37827W        W 2035  17.298   1.742  11.387
37828W        W 2036  22.534  43.497  11.072
37829W        W 2037  35.386   0.355  12.569
37830W        W 2038  36.459  42.010  13.812
37831W        W 2039   2.926  37.867  10.074
37832W        W 2040  12.335  42.384  12.014
37833W        W 2041  38.464  11.208   1.287
37834W        W 2042  17.171  12.798   3.821
37835W        W 2043  31.502   3.819  10.998
37836W        W 2044  38.942  33.963   1.798
37837W        W 2045  38.347  44.468   1.303
37838W        W 2046  34.878   2.428   3.329
37839W        W 2047  36.084  38.037  14.509
37840W        W 2048   5.362  12.199  13.482
37841W        W 2049   2.866  13.674   2.290
37842W        W 2050  40.513  37.983  12.502
37843W        W 2051  10.813  25.006   3.157
37844W        W 2052  26.152   9.303  14.282
37845W        W 2053   6.401  43.936  13.423
37846W        W 2054   2.315  35.952   3.306
37847W        W 2055  43.499   5.434  11.389
37848W        W 2056  37.872  25.663  13.950
37849W        W 2057  25.972   2.852   1.841
37850W        W 2058  29.018  12.358   3.843
37851W        W 2059  18.259  42.776   4.171
37852W        W 2060  29.038   6.231   0.776
37853W        W 2061  16.138  14.178  12.917
37854W        W 2062  15.650  29.106  12.415
37855W        W 2063  43.292  14.221   3.701
37856W        W 2064   4.716  23.595   4.266
37857W        W 2065  26.964   8.316  13.957
37858W        W 2066  33.095   9.264   4.805
37859W        W 2067  28.956  38.958   2.291
37860W        W 2068   0.408  38.382   1.267
37861W        W 2069  34.018  43.990   2.254
37862W        W 2070  22.212  12.748   0.795
37863W        W 2071  40.304  39.527   2.379
37864W        W 2072   9.388   1.917  10.504
37865W        W 2073  21.139   4.381  14.844
37866W        W 2074  37.024  27.972  11.095
37867W        W 2075   7.284  31.912  13.349
37868W        W 2076  16.175   4.871   3.354
37869W        W 2077  15.246  21.624  12.409
37870W        W 2078  19.167  19.115   3.349
37871W        W 2079  21.102  36.980   0.473
37872W        W 2080  19.064  19.646  10.513
37873W        W 2081  24.157  40.468   1.323
37874W        W 2082  25.010  15.233  13.496
37875W        W 2083  26.204  11.684   1.450
37876W        W 2084  13.703  24.210   0.252
37877W        W 2085  35.052  20.565   2.902
37878W        W 2086  18.227  33.445  10.888
37879W        W 2087  23.162   2.860   2.733
37880W        W 2088  36.850  12.677  10.901
37881W        W 2089  28.996  13.747   4.694
37882W        W 2090  12.337  25.512  14.855
37883W        W 2091  17.724  34.945  14.417
37884W        W 2092  10.693  34.390   1.408
37885W        W 2093  42.972  23.588   0.795
37886W        W 2094  24.014  33.505  11.129
37887W        W 2095  17.557  41.041  10.566
37888W        W 2096  17.233   4.281  10.539
37889W        W 2097   0.373  16.775  12.048
37890W        W 2098  14.788  22.076   4.170
37891W        W 2099  15.218  25.183   2.256
37892W        W 2100  19.076  20.596   4.292
37893W        W 2101  28.122  31.041  11.460
37894W        W 2102  42.443   1.367   1.789
37895W        W 2103  23.673  31.106   2.779
37896W        W 2104  38.504  36.390  11.874
37897W        W 2105  36.040  44.469   2.261
37898W        W 2106  41.422  11.756  11.947
37899W        W 2107  26.136  15.257  11.102
37900W        W 2108  28.454  16.100  10.044
37901W        W 2109  44.950   9.286  12.406
37902W        W 2110  21.558  13.210  11.914
37903W        W 2111  18.055   0.289   3.254
37904W        W 2112   3.868  10.146  14.372
37905W        W 2113  43.327  10.763   2.205
37906W        W 2114   1.770  31.997  14.025
37907W        W 2115  33.941  11.240  11.943
37908W        W 2116  20.151  10.835   2.761
37909W        W 2117  33.882  10.867   3.197
37910W        W 2118  30.931  18.729   1.342
37911W        W 2119  12.223  31.575  11.428
37912W        W 2120  19.255  16.095  14.967
37913W        W 2121  24.137  41.846   2.391
37914W        W 2122  36.500  40.497   2.271
37915W        W 2123  12.321  15.315  12.925
37916W        W 2124  28.955   1.829  11.389
37917W        W 2125  32.134  12.184   1.395
37918W        W 2126  31.613  25.565   3.313
37919W        W 2127  32.518  11.858   4.750
37920W        W 2128  43.826  18.255   1.852
37921W        W 2129  44.965  43.911  11.414
37922W        W 2130  17.245   7.774   2.786
37923W        W 2131   5.814  16.262   1.697
37924W        W 2132  39.037   5.419  12.892
37925W        W 2133  37.912  23.704   1.327
37926W        W 2134   4.280   3.436  10.439
37927W        W 2135  27.944  44.924  10.900
37928W        W 2136  32.547  42.007  13.475
37929W        W 2137  42.828  11.628   3.341
37930W        W 2138  41.429   5.818  14.027
37931W        W 2139  20.262  43.003   5.207
37932W        W 2140   0.335  14.811  12.382
37933W        W 2141  32.425  33.551  12.965
37934W        W 2142  30.103   6.273   4.723
37935W        W 2143  38.503  32.041   1.246
37936W        W 2144   8.382   6.773  10.553
37937W        W 2145  44.348  23.577  10.955
37938W        W 2146   3.444  38.467   0.750
37939W        W 2147  44.410  40.460   0.422
37940W        W 2148  32.098  14.780   2.261
37941W        W 2149  16.629  32.040  11.994
37942W        W 2150  19.724  12.736  13.353
37943W        W 2151  43.840  23.506   2.224
37944W        W 2152  38.919  44.833   2.330
37945W        W 2153  42.351  28.997   1.321
37946W        W 2154   1.261  39.545  14.842
37947W        W 2155   8.729  25.570   4.669
37948W        W 2156  13.821   4.253  11.531
37949W        W 2157  34.050  30.452   4.600
37950W        W 2158  14.200   6.777  10.928
37951W        W 2159  15.717  33.466  11.478
37952W        W 2160   4.933  37.515   0.278
37953W        W 2161  44.811  38.515  11.102
37954W        W 2162  18.784  12.202  13.429
37955W        W 2163  42.418  32.508   4.238
37956W        W 2164  15.648  44.431   1.397
37957W        W 2165  21.252  40.309   4.804
37958W        W 2166  24.178  21.053  14.872
37959W        W 2167  19.118  20.120   1.743
37960W        W 2168  36.557  42.396  10.404
37961W        W 2169  23.513  26.985  12.084
37962W        W 2170  11.788  18.158   0.884
37963W        W 2171   2.919  44.461   1.862
37964W        W 2172   2.383  16.574  12.527
37965W        W 2173   0.407  26.004   3.294
37966W        W 2174   1.892  23.116  12.939
37967W        W 2175   4.249  43.352  11.540
37968W        W 2176  44.435  10.260  12.386
37969W        W 2177  33.536  18.577   0.955
37970W        W 2178  33.919  31.048  13.876
37971W        W 2179  21.635  28.019   3.672
37972W        W 2180  34.979  16.757   2.844
37973W        W 2181   0.843  37.541  13.349
37974W        W 2182  24.154  10.771   0.745
37975W        W 2183  13.218  25.170   0.789
37976W        W 2184  29.608  20.121   0.808
37977W        W 2185  42.921   8.354   3.674
37978W        W 2186   7.774  35.487   4.709
37979W        W 2187  29.567  12.138  14.955
37980W        W 2188  42.973  17.245   1.292
37981W        W 2189   7.910   7.742   3.236
37982W        W 2190  42.802  14.230  12.837
37983W        W 2191  31.928  30.024  11.080
37984W        W 2192  17.587  12.706  13.398
37985W        W 2193  38.938  25.180   4.276
37986W        W 2194  36.932  41.844  10.536
37987W        W 2195   7.316  29.444   1.240
37988W        W 2196   8.741  29.145   1.424
37989W        W 2197  36.039  11.867   5.156
37990W        W 2198   4.781  20.534  12.984
37991W        W 2199   1.945  31.108   2.261
37992W        W 2200  17.601  21.064  13.384
37993W        W 2201  12.211   5.414   2.268
37994W        W 2202  44.788  27.621   4.195
37995W        W 2203  31.914  33.568  10.560
37996W        W 2204  23.991  21.611   0.841
37997W        W 2205  28.939   2.377   4.332
37998W        W 2206  13.613   1.280  11.979
37999W        W 2207   4.819  17.680  12.843
38000W        W 2208  15.784  16.808  12.997
38001W        W 2209  21.175  11.695  12.549
38002W        W 2210  28.659  11.808  14.893
38003W        W 2211  14.221  29.166  11.496
38004W        W 2212  43.407  42.386   0.296
38005W        W 2213  35.062  10.864  13.047
38006W        W 2214  13.344  28.993   2.344
38007W        W 2215  21.029  30.587  10.073
38008W        W 2216   8.790  34.383   2.867
38009W        W 2217  19.175  15.139   2.860
38010W        W 2218  17.144  30.447  12.438
38011W        W 2219  25.208  33.082  11.527
38012W        W 2220  32.506  24.622   3.756
38013W        W 2221  40.366   2.736   4.271
38014W        W 2222   9.290  40.945   3.784
38015W        W 2223  31.071  29.589  14.292
38016W        W 2224   7.848   4.806  13.340
38017W        W 2225   4.284  32.138   4.764
38018W        W 2226  17.637  26.182  10.906
38019W        W 2227   5.300  10.190   1.385
38020W        W 2228  28.996  41.532  10.405
38021W        W 2229  26.066  10.632   2.781
38022W        W 2230  12.746  10.723   1.340
38023W        W 2231  28.599  16.240   3.637
38024W        W 2232  22.191  14.254   2.665
38025W        W 2233  13.300   8.296  11.035
38026W        W 2234  31.636  29.591  12.883
38027W        W 2235  42.979   8.669   2.179
38028W        W 2236  43.347   2.367   1.928
38029W        W 2237   2.434  40.022  11.998
38030W        W 2238  15.282  33.885  14.882
38031W        W 2239  40.350  12.699  10.614
38032W        W 2240   4.943   8.813  14.910
38033W        W 2241   6.401  20.756  10.019
38034W        W 2242  42.990  33.415  10.919
38035W        W 2243  26.981   4.406  12.917
38036W        W 2244  32.952   3.246   4.622
38037W        W 2245   4.437  23.998  11.008
38038W        W 2246  16.214  17.772   0.253
38039W        W 2247   5.330  32.993  11.577
38040W        W 2248  34.019  41.926   2.830
38041W        W 2249   5.276   0.427  12.851
38042W        W 2250  15.727  11.669   2.793
38043W        W 2251   2.361  37.373   1.224
38044W        W 2252  39.990  31.492  12.508
38045W        W 2253  10.225  29.436  13.986
38046W        W 2254  36.941   3.459   4.208
38047W        W 2255  43.468  38.469  12.456
38048W        W 2256  24.536   2.315  11.592
38049W        W 2257  30.938   6.690   3.244
38050W        W 2258  30.030  42.324  13.481
38051W        W 2259  25.209  29.116   0.744
38052W        W 2260   8.195  36.943  14.318
38053W        W 2261  40.541  27.041  12.862
38054W        W 2262  26.045   8.342   2.199
38055W        W 2263  25.705  21.665  14.997
38056W        W 2264  13.619   4.764  14.367
38057W        W 2265  34.414  15.594   0.393
38058W        W 2266   7.897  16.616  12.885
38059W        W 2267  10.875  17.168   2.820
38060W        W 2268   5.773  41.918   1.344
38061W        W 2269   7.720  12.263  10.153
38062W        W 2270  10.690  21.259   0.392
38063W        W 2271  21.722  38.968   1.714
38064W        W 2272  18.190  19.573   3.681
38065W        W 2273  38.376  38.560   2.398
38066W        W 2274  22.603  44.335   0.465
38067W        W 2275   1.885  15.725  10.637
38068W        W 2276  20.056   6.704  11.884
38069W        W 2277  27.122   8.718  12.947
38070W        W 2278  37.030   4.380  11.598
38071W        W 2279  21.642  12.284  14.906
38072W        W 2280   5.854  28.009  14.405
38073W        W 2281  41.961  43.955  12.983
38074W        W 2282   7.726  38.037   1.907
38075W        W 2283  44.315  42.505   3.804
38076W        W 2284  26.201   2.471  10.480
38077W        W 2285  17.292  22.589   0.265
38078W        W 2286  25.638  24.626   3.749
38079W        W 2287   5.854  21.616  11.508
38080W        W 2288  28.487  12.187   1.793
38081W        W 2289  32.474  11.335  11.909
38082W        W 2290  39.033  14.676  14.795
38083W        W 2291  23.177   5.390   2.787
38084W        W 2292  17.275  11.851  12.845
38085W        W 2293   9.371   7.243   4.697
38086W        W 2294   4.737  17.084   2.827
38087W        W 2295  11.304  11.318   3.774
38088W        W 2296  22.157   0.935   1.808
38089W        W 2297  31.602  44.339  14.287
38090W        W 2298  42.912  12.134  12.370
38091W        W 2299  19.668   6.187  12.867
38092W        W 2300  17.685   0.334  11.556
38093W        W 2301  27.667  12.286   2.317
38094W        W 2302   3.427  29.057  12.572
38095W        W 2303  40.831   6.881  11.424
38096W        W 2304  37.516  26.549  13.858
38097W        W 2305  27.000  36.363   3.212
38098W        W 2306  35.982  27.037  12.505
38099W        W 2307   4.247   7.762  12.984
38100W        W 2308  27.124   4.233  14.003
38101W        W 2309  23.136   6.848   4.128
38102W        W 2310   1.410  22.722  12.385
38103W        W 2311  19.276  37.859   2.285
38104W        W 2312  11.180   3.806   0.342
38105W        W 2313  18.157  15.821   3.241
38106W        W 2314  41.520  42.903   0.431
38107W        W 2315   5.805  32.923  12.369
38108W        W 2316  14.761  31.965   4.295
38109W        W 2317  35.469  18.080  12.580
38110W        W 2318  16.260  15.091  11.087
38111W        W 2319  33.384  21.590  13.969
38112W        W 2320  39.023  35.409   4.680
38113W        W 2321   3.331   6.899  13.045
38114W        W 2322  20.227  22.078   4.114
38115W        W 2323   4.793   6.251  12.015
38116W        W 2324  16.783  26.955   0.950
38117W        W 2325  44.826  44.488   1.417
38118W        W 2326   5.287  13.152   0.391
38119W        W 2327  25.218  35.864   4.722
38120W        W 2328  25.619   9.741  13.802
38121W        W 2329  24.586  33.560   1.714
38122W        W 2330  16.804  11.738  10.888
38123W        W 2331  30.138  43.346   4.255
38124W        W 2332  22.669  15.617  13.925
38125W        W 2333  23.543  17.245  13.499
38126W        W 2334  35.946  28.605   1.879
38127W        W 2335  36.856  21.643  14.322
38128W        W 2336  32.563  23.143   3.252
38129W        W 2337   4.752  37.517   3.851
38130W        W 2338  28.607  15.657   1.330
38131W        W 2339  31.984  11.242  10.052
38132W        W 2340  41.865  11.233   2.790
38133W        W 2341  40.324  18.164   5.204
38134W        W 2342  33.908  16.305  13.548
38135W        W 2343  32.072   3.254   2.866
38136W        W 2344   2.946  31.646   9.564
38137W        W 2345  41.343  33.043  12.551
38138W        W 2346   7.806  23.159   2.275
38139W        W 2347  44.762   7.292  14.429
38140W        W 2348  29.030   5.220   4.636
38141W        W 2349  10.722  19.129   4.181
38142W        W 2350   1.868  13.233   3.230
38143W        W 2351  28.632  19.093   0.392
38144W        W 2352   4.760  23.586   4.818
38145W        W 2353   2.280  40.973  10.964
38146W        W 2354   1.310  10.243   4.603
38147W        W 2355  16.315   1.787   3.240
38148W        W 2356   9.872   9.680  11.449
38149W        W 2357  15.765   0.346  12.948
38150W        W 2358   1.395   2.323   2.782
38151W        W 2359  30.944  11.734  12.985
38152W        W 2360  28.636  42.824   5.241
38153W        W 2361  29.540   1.350   4.310
38154W        W 2362   4.372  12.747  10.432
38155W        W 2363  34.981  21.712  14.486
38156W        W 2364  37.409  37.895  14.777
38157W        W 2365  40.863  33.462   2.211
38158W        W 2366  16.573  42.892  13.426
38159W        W 2367  26.652  33.899  12.410
38160W        W 2368  38.425  24.523   0.302
38161W        W 2369  28.578   6.287   2.855
38162W        W 2370  11.192  19.114  10.998
38163W        W 2371  29.163   7.788  10.907
38164W        W 2372  11.292  10.144   4.177
38165W        W 2373  19.176  14.602  14.352
38166W        W 2374  17.257  28.973  10.101
38167W        W 2375  33.416  16.130  12.833
38168W        W 2376  21.547   7.337  13.027
38169W        W 2377   7.680  33.461  13.906
38170W        W 2378   0.301  28.658   4.711
38171W        W 2379  44.971  22.102  14.825
38172W        W 2380  43.949  18.292   0.814
38173W        W 2381  28.559  33.407  11.910
38174W        W 2382  25.157  43.897  13.505
38175W        W 2383  44.826  10.687  14.975
38176W        W 2384  39.863  17.781   1.264
38177W        W 2385  42.305  34.596  13.820
38178W        W 2386   3.331  24.583  11.446
38179W        W 2387  26.527  44.903   2.280
38180W        W 2388   4.705  24.698   1.741
38181W        W 2389  37.849   9.884  10.568
38182W        W 2390  25.595  40.476  14.943
38183W        W 2391  35.389   6.784   3.343
38184W        W 2392  25.029  15.805  13.354
38185W        W 2393  32.593  29.002   5.098
38186W        W 2394  16.117  23.597  11.981
38187W        W 2395  23.678  14.134  10.958
38188W        W 2396   3.940  25.490   1.332
38189W        W 2397  25.973   1.888   4.260
38190W        W 2398  13.634  42.983   1.805
38191W        W 2399  37.383  27.456   1.382
38192W        W 2400   6.406  31.571   2.351
38193W        W 2401  18.213  37.970   2.707
38194W        W 2402  32.130   0.880   0.935
38195W        W 2403  36.457   5.289   4.167
38196W        W 2404  10.774   0.428   0.330
38197W        W 2405   1.756  42.856  10.626
38198W        W 2406  25.481  17.750  12.063
38199W        W 2407  15.220  31.929  11.600
38200W        W 2408  16.132   9.741  14.374
38201W        W 2409  38.003  34.985   4.255
38202W        W 2410   0.412  31.057   3.332
38203W        W 2411  36.481  33.073   4.679
38204W        W 2412  33.593  13.760   3.681
38205W        W 2413  16.772   2.811   0.759
38206W        W 2414  19.100  17.171   1.766
38207W        W 2415  18.217  35.526   3.324
38208W        W 2416  14.738  40.910   1.260
38209W        W 2417  12.774  21.143  14.948
38210W        W 2418  43.894  29.454   3.691
38211W        W 2419  25.969  44.325  10.044
38212W        W 2420  10.249  28.523   2.359
38213W        W 2421  44.397  24.067  10.596
38214W        W 2422  21.685   9.798   3.317
38215W        W 2423   1.369  31.084  14.995
38216W        W 2424   6.306  42.964   3.262
38217W        W 2425  10.873   8.271  14.492
38218W        W 2426   9.255   6.392   4.176
38219W        W 2427  31.411  27.146   1.742
38220W        W 2428   9.297   1.787  12.502
38221W        W 2429  15.627  39.840   0.935
38222W        W 2430  32.624   8.174  11.461
38223W        W 2431  18.131  10.162   3.813
38224W        W 2432  11.638  19.596  12.402
38225W        W 2433  40.833  36.953  14.988
38226W        W 2434  17.146  19.284  11.096
38227W        W 2435  26.040   6.756   1.825
38228W        W 2436  34.061  27.491  14.958
38229W        W 2437   8.384  32.885  14.950
38230W        W 2438  41.795  43.942  10.535
38231W        W 2439  18.198   9.832  13.028
38232W        W 2440  19.546  25.093  13.844
38233W        W 2441  21.520  13.125   2.771
38234W        W 2442  24.129  16.797  14.500
38235W        W 2443  38.331  42.930   3.771
38236W        W 2444  27.659  26.596   1.350
38237W        W 2445   5.400  32.970  13.001
38238W        W 2446   7.750  32.496   3.634
38239W        W 2447  41.911  33.937  10.410
38240W        W 2448  13.320   2.745   0.792
38241W        W 2449  34.941  20.735   1.923
38242W        W 2450  42.367  35.405   0.358
38243W        W 2451  20.213   3.397   1.365
38244W        W 2452  20.619  19.603   0.844
38245W        W 2453  34.929   6.239   2.182
38246W        W 2454  36.850  14.217  10.494
38247W        W 2455  10.639  17.692   4.736
38248W        W 2456  25.491  21.209   1.418
38249W        W 2457  28.437  21.203  13.909
38250W        W 2458  16.227  18.691   2.741
38251W        W 2459  31.424  17.613  12.477
38252W        W 2460  26.011  15.289   1.818
38253W        W 2461  28.952  17.241   2.797
38254W        W 2462   6.912  34.372  14.388
38255W        W 2463   4.448  41.000   3.267
38256W        W 2464  12.653   8.174  11.464
38257W        W 2465  20.541  38.345   5.588
38258W        W 2466  35.089   0.441   2.236
38259W        W 2467  33.016  36.983  10.460
38260W        W 2468  27.528  22.015  11.912
38261W        W 2469  21.026  29.990   2.827
38262W        W 2470   0.970   3.323   5.295
38263W        W 2471  13.622  18.230   0.331
38264W        W 2472  40.477  13.730  10.529
38265W        W 2473  21.042  39.868   1.862
38266W        W 2474  27.103  30.547   5.265
38267W        W 2475  24.576  19.105   1.772
38268W        W 2476   0.484   4.431   1.324
38269W        W 2477  14.824   7.188   4.824
38270W        W 2478   7.786  36.860  11.966
38271W        W 2479  19.256  36.566  13.968
38272W        W 2480   6.770  28.164  11.926
38273W        W 2481  40.319  26.204  11.858
38274W        W 2482   7.854  21.033   0.276
38275W        W 2483  35.025  35.470  13.803
38276W        W 2484   7.177  42.494  11.018
38277W        W 2485   1.352   1.375  11.546
38278W        W 2486  13.824  22.161  10.447
38279W        W 2487   1.799   6.276  11.527
38280W        W 2488   1.817  30.635  12.349
38281W        W 2489  23.594  33.124   2.279
38282W        W 2490   0.286  20.537   4.796
38283W        W 2491  26.009  37.471   1.325
38284W        W 2492  22.744   0.935   4.270
38285W        W 2493  23.521  33.920  11.103
38286W        W 2494  14.776  21.059  14.413
38287W        W 2495  41.519  14.166  11.400
38288W        W 2496   4.889  43.877  10.434
38289W        W 2497  29.950  38.968   4.647
38290W        W 2498  40.949  22.513  12.012
38291W        W 2499  34.921  14.167  14.802
38292W        W 2500  16.594   6.775  14.970
38293W        W 2501  21.211  41.862   3.807
38294W        W 2502   6.748  23.527   2.806
38295W        W 2503  20.201   4.860   1.704
38296W        W 2504  39.467  22.584  13.405
38297W        W 2505  40.333  18.766  11.438
38298W        W 2506  38.429   5.907  12.521
38299W        W 2507  41.393  28.675  14.938
38300W        W 2508  35.945   9.361   3.368
38301W        W 2509  27.659   1.937  12.005
38302W        W 2510   8.799  30.459   1.779
38303W        W 2511  30.033  13.691   2.336
38304W        W 2512   8.266  29.038  13.880
38305W        W 2513  29.441  18.586  11.118
38306W        W 2514  20.151  43.961  11.918
38307W        W 2515  14.755  16.672   2.376
38308W        W 2516  26.148  11.811   3.809
38309W        W 2517  38.449  33.882   4.138
38310W        W 2518  43.817  26.962  11.513
38311W        W 2519  37.868   9.771  14.012
38312W        W 2520  15.780  28.185   0.351
38313W        W 2521  22.173  42.871   1.267
38314W        W 2522   5.886  25.527  14.480
38315W        W 2523  17.251  11.735   0.278
38316W        W 2524  40.841  23.665  14.304
38317W        W 2525  34.448  27.940   4.760
38318W        W 2526  17.727  21.221   2.797
38319W        W 2527   6.407  29.431   1.238
38320W        W 2528  17.583  35.993  10.964
38321W        W 2529  36.973   9.828  11.012
38322W        W 2530  17.703  35.480   0.299
38323W        W 2531  29.999  42.995  10.133
38324W        W 2532  29.062  39.046  14.803
38325W        W 2533  38.513  10.379   4.777
38326W        W 2534  35.492  23.698  10.989
38327W        W 2535  36.057  33.923   0.865
38328W        W 2536   6.888  21.563   2.892
38329W        W 2537  15.708  11.281  12.351
38330W        W 2538   7.727  23.224  14.016
38331W        W 2539  15.648  35.029  13.395
38332W        W 2540   2.941  24.584  12.940
38333W        W 2541  44.479  27.116  13.382
38334W        W 2542  18.218  39.902   0.396
38335W        W 2543   5.751  23.042   0.294
38336W        W 2544  42.520   4.222  12.917
38337W        W 2545  44.423  12.288  10.972
38338W        W 2546   8.896   5.883   4.191
38339W        W 2547  22.077  13.337  11.559
38340W        W 2548  19.285  38.839   4.351
38341W        W 2549  21.677   7.180   3.658
38342W        W 2550   8.735  25.045   4.770
38343W        W 2551  32.056  35.044  14.855
38344W        W 2552  15.640  30.601   3.368
38345W        W 2553  22.590   0.337  10.528
38346W        W 2554  42.395  33.963  13.817
38347W        W 2555  26.995  25.578   0.936
38348W        W 2556  24.153  35.992  11.050
38349W        W 2557   8.683  10.778   1.781
38350W        W 2558   2.337   9.325   1.701
38351W        W 2559  15.242  21.516   4.197
38352W        W 2560  20.155   5.366   5.695
38353W        W 2561  36.862  10.810   4.637
38354W        W 2562  14.751  38.404  11.122
38355W        W 2563   1.243  26.567   4.837
38356W        W 2564  29.027  33.063   2.701
38357W        W 2565  14.692  39.431  12.365
38358W        W 2566  29.536  27.560   4.610
38359W        W 2567  32.087  18.760   0.966
38360W        W 2568  43.416  38.869   3.289
38361W        W 2569  24.626   0.297   2.198
38362W        W 2570  30.917   7.852   3.305
38363W        W 2571  21.686  11.756  12.975
38364W        W 2572  13.322  28.066   5.098
38365W        W 2573  30.444  26.600   4.262
38366W        W 2574  31.908  43.802   2.322
38367W        W 2575  33.604   1.364   3.249
38368W        W 2576  24.208   8.788   3.261
38369W        W 2577  17.146   2.805  13.014
38370W        W 2578  18.277  43.890  11.535
38371W        W 2579  26.626  11.664   0.381
38372W        W 2580   4.910  32.402  12.037
38373W        W 2581  36.592  39.029  12.379
38374W        W 2582   1.819   9.391  11.445
38375W        W 2583  42.439  30.471   3.659
38376W        W 2584  27.000  33.563  10.128
38377W        W 2585  28.580  39.457   3.745
38378W        W 2586  43.480  10.321  13.366
38379W        W 2587  15.128  30.509  12.883
38380W        W 2588  14.197  27.575  10.970
38381W        W 2589   6.894  23.495  14.772
38382W        W 2590  37.075  18.780   2.400
38383W        W 2591  20.115  13.109  11.043
38384W        W 2592  44.299  44.835   3.302
38385W        W 2593  28.489  34.522  14.394
38386W        W 2594  13.631  25.593  14.919
38387W        W 2595  32.574  35.980  12.060
38388W        W 2596  35.922  19.103   0.385
38389W        W 2597   2.951   9.334   1.233
38390W        W 2598  14.767  15.148  12.983
38391W        W 2599  22.526  26.109   1.812
38392W        W 2600  18.732  10.145  12.882
38393W        W 2601  21.547  32.933  10.906
38394W        W 2602  39.460  30.565  14.373
38395W        W 2603  38.341  26.132   0.396
38396W        W 2604   2.315   7.732   0.747
38397W        W 2605  28.641  23.529   0.779
38398W        W 2606  13.321   7.750   1.234
38399W        W 2607  29.637  23.616  14.009
38400W        W 2608  12.779  41.007   2.383
38401W        W 2609  41.027   0.327   4.218
38402W        W 2610   5.734  13.828  11.418
38403W        W 2611   5.339   2.795   1.915
38404W        W 2612  10.766  17.797  14.004
38405W        W 2613   3.839   1.932  11.385
38406W        W 2614   8.388  41.989  10.524
38407W        W 2615  11.176   7.271  13.440
38408W        W 2616  34.423  28.547   1.826
38409W        W 2617   1.460  26.627   0.347
38410W        W 2618  44.285  15.701   0.348
38411W        W 2619  42.821  27.032  11.378
38412W        W 2620   4.357  33.410   1.285
38413W        W 2621  28.489  16.643   3.317
38414W        W 2622  34.541  43.492  10.439
38415W        W 2623  35.429   2.788   2.783
38416W        W 2624  25.522  37.952  13.886
38417W        W 2625  17.129  37.832   1.319
38418W        W 2626  13.720  25.964  11.987
38419W        W 2627  42.475   4.828   0.785
38420W        W 2628  27.477  33.037  13.984
38421W        W 2629  32.970  27.576  10.492
38422W        W 2630  37.345  37.042   4.779
38423W        W 2631   4.872  14.168  13.991
38424W        W 2632  43.013  10.868   2.664
38425W        W 2633  11.685  42.820   4.279
38426W        W 2634   1.770  32.576   0.312
38427W        W 2635  30.033  20.609   3.342
38428W        W 2636  39.910   0.902   0.967
38429W        W 2637  34.419   1.400  11.465
38430W        W 2638  33.473  39.864   2.683
38431W        W 2639   7.282   7.698  12.938
38432W        W 2640  38.051  15.179  13.481
38433W        W 2641  16.723  10.808   0.936
38434W        W 2642  37.874  29.554   3.656
38435W        W 2643   0.424  12.185  13.828
38436W        W 2644  14.231  31.559   2.250
38437W        W 2645  43.497  31.550   2.297
38438W        W 2646   1.773  36.988  14.396
38439W        W 2647  39.364  24.574   0.958
38440W        W 2648   4.932  31.116   4.745
38441W        W 2649  32.499   8.334  14.894
38442W        W 2650  15.179  41.315  14.781
38443W        W 2651  31.519   3.762   2.394
38444W        W 2652   0.481  19.155   2.299
38445W        W 2653   1.346  33.592   2.825
38446W        W 2654  35.859  41.329  11.462
38447W        W 2655  38.889  11.160   1.353
38448W        W 2656  40.411  41.856  13.027
38449W        W 2657   0.320  11.276  14.991
38450W        W 2658  18.133   5.310   2.377
38451W        W 2659  35.511  22.129  11.472
38452W        W 2660  42.429  40.946   1.827
38453W        W 2661  16.790  44.958   1.267
38454W        W 2662   7.362   7.212   1.808
38455W        W 2663  17.726  11.839  14.509
38456W        W 2664  33.575  15.291   3.258
38457W        W 2665  18.637  26.027   0.736
38458W        W 2666  41.974  41.980  11.444
38459W        W 2667  33.908  24.627   2.834
38460W        W 2668  35.564   3.450   3.343
38461W        W 2669  17.080   3.386  12.536
38462W        W 2670  31.626  37.535  14.330
38463W        W 2671  41.977  24.609   4.671
38464W        W 2672   7.323   9.659  10.570
38465W        W 2673   6.420  42.373   2.884
38466W        W 2674  10.149  10.878   1.420
38467W        W 2675  10.355  43.905  10.972
38468W        W 2676   1.457  21.707   3.742
38469W        W 2677  19.627   3.342  11.094
38470W        W 2678  28.436   6.272  13.517
38471W        W 2679  13.256   2.248  11.963
38472W        W 2680   4.214  20.737  11.465
38473W        W 2681  18.087  26.068  13.363
38474W        W 2682  28.987  13.135  11.088
38475W        W 2683  12.849  30.528  10.505
38476W        W 2684  17.088  36.930   4.683
38477W        W 2685  19.161  42.875   3.188
38478W        W 2686  34.440  23.686   0.347
38479W        W 2687  11.233  41.482   4.644
38480W        W 2688  28.069  26.598   4.615
38481W        W 2689  20.534   8.655   4.248
38482W        W 2690  36.373  18.685  10.610
38483W        W 2691  44.324   1.262  10.039
38484W        W 2692  35.915  23.650   4.762
38485W        W 2693  40.936  39.383  10.901
38486W        W 2694  25.201  19.085  10.892
38487W        W 2695  19.050  11.643   3.709
38488W        W 2696  20.541   7.333   0.341
38489W        W 2697  34.574  15.761  11.563
38490W        W 2698  39.983  31.923  11.097
38491W        W 2699  25.688  41.318   0.387
38492W        W 2700   5.801  40.399  12.007
38493W        W 2701  42.029  31.034  10.470
38494W        W 2702  35.368  27.463   2.314
38495W        W 2703   7.699  25.055  11.408
38496W        W 2704  31.985   8.334   1.874
38497W        W 2705  23.239  30.068   0.344
38498W        W 2706  38.464  20.600  10.473
38499W        W 2707   9.352  37.434  14.294
38500W        W 2708   9.224  43.909  11.412
38501W        W 2709   1.773   2.759   3.364
38502W        W 2710  18.639  40.876   3.663
38503W        W 2711  23.660  32.512   2.698
38504W        W 2712  43.787  19.562   3.258
38505W        W 2713  11.677   2.306  12.961
38506W        W 2714  34.885  43.388   1.245
38507W        W 2715  40.968  23.494   2.283
38508W        W 2716   7.881  14.683  13.370
38509W        W 2717  34.993  33.970  10.968
38510W        W 2718   5.912  34.461   3.631
38511W        W 2719  15.580  12.310  14.455
38512W        W 2720  35.980  20.136  14.284
38513W        W 2721   9.684  43.323  14.885
38514W        W 2722  29.952  19.739   1.413
38515W        W 2723  19.744  37.505   4.329
38516W        W 2724  35.969  39.926   3.697
38517W        W 2725  10.793  38.958  11.032
38518W        W 2726  17.644  40.817  14.931
38519W        W 2727  18.745  40.829   1.894
38520W        W 2728  42.384  29.921   3.183
38521W        W 2729  42.432  19.068   2.739
38522W        W 2730  10.179  21.549  10.509
38523W        W 2731  19.254   1.879   2.297
38524W        W 2732  26.106  22.670  10.526
38525W        W 2733  16.570   3.255   1.828
38526W        W 2734  11.721  12.806   1.334
38527W        W 2735  10.186  14.794   3.226
38528W        W 2736  13.829   6.406  14.389
38529W        W 2737  29.976   4.749  11.426
38530W        W 2738  42.301  25.054   1.746
38531W        W 2739  42.487  42.835   4.628
38532W        W 2740  38.008   2.721   2.805
38533W        W 2741   1.761   9.861  10.522
38534W        W 2742  14.231   5.398  11.422
38535W        W 2743  10.710  31.896   5.270
38536W        W 2744  26.199  18.644  12.972
38537W        W 2745  44.792  41.331  11.975
38538W        W 2746  20.577   1.415  12.085
38539W        W 2747  33.922  42.499  10.584
38540W        W 2748  22.592  28.130   3.862
38541W        W 2749  44.389  27.064  12.029
38542W        W 2750  38.023  12.739  12.401
38543W        W 2751  17.751  39.036  14.998
38544W        W 2752  10.181  13.206   0.809
38545W        W 2753   9.653  25.544  10.939
38546W        W 2754  28.080  17.182   1.734
38547W        W 2755  31.904  21.221   0.839
38548W        W 2756  19.767  17.751  13.424
38549W        W 2757   1.898  19.091   0.467
38550W        W 2758  22.250  14.316   0.448
38551W        W 2759  37.943  22.113   0.465
38552W        W 2760  40.435   1.896  12.980
38553W        W 2761   1.773  26.592   4.706
38554W        W 2762  18.788  19.127  10.585
38555W        W 2763  24.166  28.463   3.846
38556W        W 2764  23.237  13.117   2.860
38557W        W 2765  10.250   7.415   3.256
38558W        W 2766  20.656  34.100  11.913
38559W        W 2767  14.714   6.285   4.265
38560W        W 2768  36.412  18.061   1.834
38561W        W 2769   4.804   9.385   0.816
38562W        W 2770  39.489  40.927   1.699
38563W        W 2771  14.681   9.863   3.286
38564W        W 2772   2.825  22.600  10.947
38565W        W 2773   6.187  18.284   1.753
38566W        W 2774  12.853  32.887  13.025
38567W        W 2775   2.302   3.222   3.312
38568W        W 2776  16.710   5.763  13.849
38569W        W 2777  19.638  23.567   0.746
38570W        W 2778  23.031  38.528   3.672
38571W        W 2779  30.554  22.077  12.845
38572W        W 2780  32.625   0.248  12.841
38573W        W 2781   8.181  39.464  13.343
38574W        W 2782  23.658  22.133   1.761
38575W        W 2783   6.399  20.194  10.572
38576W        W 2784  14.789   7.332   0.354
38577W        W 2785  25.962  44.347   0.829
38578W        W 2786  27.485  43.775  11.410
38579W        W 2787  36.884   7.224  13.025
38580W        W 2788  16.778  34.591   1.342
38581W        W 2789   6.284   8.332   0.901
38582W        W 2790  38.421  22.107   0.448
38583W        W 2791  38.953   8.194   0.887
38584W        W 2792  13.135  34.475   1.734
38585W        W 2793  37.843  39.818  14.819
38586W        W 2794  37.525  31.974   5.168
38587W        W 2795  39.526  19.212  13.338
38588W        W 2796  18.647  16.703   5.720
38589W        W 2797  27.478  14.163   3.871
38590W        W 2798  29.970  32.417   2.275
38591W        W 2799   8.878  34.066   2.409
38592W        W 2800  40.864  29.499  13.462
38593W        W 2801   4.426  24.074  10.595
38594W        W 2802  12.726  27.515  12.064
38595W        W 2803  33.533   4.316  13.913
38596W        W 2804  21.086   1.270   3.727
38597W        W 2805  35.035   9.671   2.242
38598W        W 2806  28.645   1.301  10.965
38599W        W 2807  18.274   1.376  14.424
38600W        W 2808   6.867  19.675  12.460
38601W        W 2809  11.353   3.919   2.332
38602W        W 2810  10.352   9.648   2.759
38603W        W 2811   8.271   7.786   1.219
38604W        W 2812  40.355  26.622   3.266
38605W        W 2813  36.997  38.506   0.384
38606W        W 2814   0.288  29.483   2.335
38607W        W 2815  31.125  13.207  11.862
38608W        W 2816  42.811  11.286   4.724
38609W        W 2817  35.377  32.478   0.746
38610W        W 2818  30.640  29.944  14.013
38611W        W 2819  37.964   0.484   0.455
38612W        W 2820   0.778  38.975  10.463
38613W        W 2821   4.903   3.279   0.450
38614W        W 2822  12.120  39.412   3.322
38615W        W 2823  12.856  25.665  14.364
38616W        W 2824  19.211   3.269  12.981
38617W        W 2825   3.305   3.741  13.864
38618W        W 2826  21.025   0.456   1.235
38619W        W 2827  19.176  27.079  11.005
38620W        W 2828   4.325  30.561   1.233
38621W        W 2829   4.407   6.820  13.954
38622W        W 2830  12.241  14.146  12.054
38623W        W 2831  17.170  32.916   0.461
38624W        W 2832  35.989  14.149   4.262
38625W        W 2833  40.805   3.239  14.343
38626W        W 2834  26.109  24.634  12.997
38627W        W 2835   3.365  10.325   0.816
38628W        W 2836  15.177   9.350  11.077
38629W        W 2837  42.974  22.207  12.541
38630W        W 2838  32.404  39.002   0.834
38631W        W 2839  18.681  27.476  14.476
38632W        W 2840  17.739  33.407   4.612
38633W        W 2841  14.305  29.594  13.447
38634W        W 2842   0.961  36.492   9.536
38635W        W 2843  16.569  30.524  11.574
38636W        W 2844  11.642  11.729   3.186
38637W        W 2845  31.543  44.839   2.760
38638W        W 2846   3.366   7.241   4.803
38639W        W 2847   9.694  14.262   2.810
38640W        W 2848   6.330  28.586   2.892
38641W        W 2849   1.362  42.527  10.444
38642W        W 2850   2.247  38.366   3.185
38643W        W 2851  44.389  16.213  14.393
38644W        W 2852  28.566  13.735   1.260
38645W        W 2853  38.349  20.648   2.400
38646W        W 2854  38.919  37.338  10.527
38647W        W 2855  27.964  15.800  11.545
38648W        W 2856  37.444  41.404  10.460
38649W        W 2857  44.843  35.964  13.364
38650W        W 2858  19.756  29.583  12.493
38651W        W 2859  35.086  33.410  13.368
38652W        W 2860  32.076   2.824  10.937
38653W        W 2861   2.955  41.796   0.859
38654W        W 2862  17.233  15.623   3.832
38655W        W 2863  36.453  20.539  14.385
38656W        W 2864  34.464  27.533   4.634
38657W        W 2865  14.140  19.134  10.481
38658W        W 2866  11.790  30.063   3.254
38659W        W 2867   7.200  11.272  11.612
38660W        W 2868   3.351  31.951   3.312
38661W        W 2869  30.641  17.255  10.406
38662W        W 2870  13.706  29.027   1.721
38663W        W 2871  16.588  32.465   0.381
38664W        W 2872  29.006   2.750   3.197
38665W        W 2873  19.176  24.180   0.364
38666W        W 2874  29.936  36.880  14.024
38667W        W 2875  21.702  18.738   5.170
38668W        W 2876   7.859  18.597   0.918
38669W        W 2877  16.639  18.673   4.181
38670W        W 2878  33.925  25.503   3.266
38671W        W 2879   4.940  11.233  13.480
38672W        W 2880  32.561  28.437  13.843
38673W        W 2881  26.690  11.165   2.681
38674W        W 2882  33.384   2.729   4.316
38675W        W 2883  44.935  14.110   4.834
38676W        W 2884  16.575  41.453   4.829
38677W        W 2885  35.515  15.115  10.911
38678W        W 2886  18.217  14.193  11.995
38679W        W 2887  25.053  23.557   0.416
38680W        W 2888  30.138  27.110  14.454
38681W        W 2889  28.607  14.174  11.378
38682W        W 2890  43.003  25.981   1.897
38683W        W 2891  19.707  20.726   4.138
38684W        W 2892   8.742  10.737  13.936
38685W        W 2893  42.958  18.205   2.250
38686W        W 2894  21.066   9.179   1.390
38687W        W 2895  42.428  35.021   2.378
38688W        W 2896   2.318  15.273  12.896
38689W        W 2897  19.694   0.843  12.529
38690W        W 2898  14.189   9.285   2.668
38691W        W 2899  16.765  22.154   0.379
38692W        W 2900  16.683  32.623  11.073
38693W        W 2901  31.086  16.657  12.969
38694W        W 2902  30.961  41.892  11.447
38695W        W 2903   8.270  38.446   3.185
38696W        W 2904  23.708  19.161   0.384
38697W        W 2905  21.025  19.769   1.446
38698W        W 2906  21.154  25.119   3.858
38699W        W 2907  33.497  30.121  10.518
38700W        W 2908  13.178  34.942   0.789
38701W        W 2909  29.146  44.434  12.442
38702W        W 2910  23.646  22.521  14.951
38703W        W 2911  25.193  27.956  14.377
38704W        W 2912  41.786  26.058   0.946
38705W        W 2913  44.294   7.267  13.386
38706W        W 2914  16.736  35.415   5.592
38707W        W 2915  24.004  25.537  12.827
38708W        W 2916  43.932   4.303  13.047
38709W        W 2917  11.339  36.061   3.773
38710W        W 2918   7.215  19.694   1.384
38711W        W 2919   5.837  13.344  13.974
38712W        W 2920  10.782  16.599   4.281
38713W        W 2921  34.991  21.739   4.295
38714W        W 2922  44.867  11.371   4.213
38715W        W 2923  17.096  20.217   3.304
38716W        W 2924  29.919  23.663  13.945
38717W        W 2925   8.208   9.245  13.017
38718W        W 2926  18.290  11.191   1.339
38719W        W 2927   6.776   1.348  13.807
38720W        W 2928  44.754   8.355   1.748
38721W        W 2929  43.848  36.026   5.758
38722W        W 2930   2.801  13.816  10.425
38723W        W 2931   4.743   4.828  11.999
38724W        W 2932  11.197  44.011  14.815
38725W        W 2933   6.265  33.064   4.683
38726W        W 2934  15.695  28.157  13.364
38727W        W 2935  28.184  37.981   4.707
38728W        W 2936  19.724  15.238   4.225
38729W        W 2937   3.798  25.503  13.379
38730W        W 2938   9.708  25.602   2.886
38731W        W 2939  18.055  17.597  13.876
38732W        W 2940  23.716  24.033   4.830
38733W        W 2941  39.059  13.105  12.014
38734W        W 2942  30.154  14.593  11.432
38735W        W 2943  43.342  19.679  14.013
38736W        W 2944  21.215  16.091  12.900
38737W        W 2945  26.469  32.590   2.410
38738W        W 2946  29.524  37.039  12.455
38739W        W 2947   5.690  31.487  14.031
38740W        W 2948   6.792  10.232  11.092
38741W        W 2949  34.089   1.448  12.491
38742W        W 2950  17.118  44.382  12.029
38743W        W 2951   2.879  38.993   1.856
38744W        W 2952   3.286  20.085  13.963
38745W        W 2953   1.962  37.539   3.766
38746W        W 2954  32.099  14.711  14.340
38747W        W 2955  26.166  43.799   1.341
38748W        W 2956   9.322  13.135   1.383
38749W        W 2957  40.370  32.134  10.422
38750W        W 2958  41.820  40.984  10.567
38751W        W 2959  17.091  24.611  12.932
38752W        W 2960  23.107  26.985  14.840
38753W        W 2961  32.925   6.320  11.004
38754W        W 2962  11.788  35.095  11.935
38755W        W 2963  41.842  30.080   3.656
38756W        W 2964  37.836  31.501   1.841
38757W        W 2965   2.400  44.365  14.355
38758W        W 2966  13.336  29.106  11.112
38759W        W 2967  25.591  37.983  11.054
38760W        W 2968  15.119  24.723  14.420
38761W        W 2969  21.194  40.446  11.419
38762W        W 2970  42.363   0.252  12.525
38763W        W 2971   5.713   5.218   3.202
38764W        W 2972   7.186  36.414   5.308
38765W        W 2973   6.874  23.729   0.451
38766W        W 2974   9.670  29.587   4.701
38767W        W 2975  37.961  20.622  12.094
38768W        W 2976  42.937   7.364   1.269
38769W        W 2977  36.440  18.104   0.373
38770W        W 2978  29.561  27.992  13.935
38771W        W 2979  14.812  25.089   5.248
38772W        W 2980  26.966  31.487  12.831
38773W        W 2981  10.854  27.122   2.745
38774W        W 2982  10.711  29.562  12.368
38775W        W 2983  40.879   9.679  11.412
38776W        W 2984  24.573  12.120   4.283
38777W        W 2985  19.102  40.824  14.871
38778W        W 2986  44.944  33.423  13.413
38779W        W 2987  27.160  26.667  14.394
38780W        W 2988   1.925  31.547  13.543
38781W        W 2989   0.314  36.086  11.521
38782W        W 2990   0.375  31.106  12.425
38783W        W 2991   1.362  21.030   1.830
38784W        W 2992  14.636   0.313   4.350
38785W        W 2993  43.881  33.089  10.447
38786W        W 2994   7.211  25.151   1.406
38787W        W 2995  21.511   0.391  14.450
38788W        W 2996  26.150  13.672   0.336
38789W        W 2997  37.867  34.943   2.221
38790W        W 2998  33.466   3.372   4.836
38791W        W 2999  23.005  43.793  10.414
38792W        W 3000  34.534   6.912  10.962
38793W        W 3001  34.953  25.603  11.101
38794W        W 3002  30.965  42.929  12.863
38795W        W 3003  26.952   7.675  14.781
38796W        W 3004  43.868  29.574  11.048
38797W        W 3005   7.415   0.282  14.799
38798W        W 3006  44.940  23.075  13.361
38799W        W 3007  40.461  20.119  13.985
38800W        W 3008   8.706  24.578   3.312
38801W        W 3009  34.900  33.559   4.745
38802W        W 3010  36.590  32.961  11.029
38803W        W 3011  21.262   3.319  14.277
38804W        W 3012   7.353  11.672   1.306
38805W        W 3013  13.810  27.030   3.269
38806W        W 3014  23.114  28.941  10.893
38807W        W 3015  44.300  24.481  11.945
38808W        W 3016  20.685  11.368   3.657
38809W        W 3017   0.277  34.056  11.023
38810W        W 3018   6.688  13.740  10.926
38811W        W 3019  18.555   0.423  11.393
38812W        W 3020  22.552   4.308   3.647
38813W        W 3021   2.839  26.603  13.452
38814W        W 3022  28.658   8.277  11.000
38815W        W 3023  32.126  15.285   2.673
38816W        W 3024  41.868   2.945   3.238
38817W        W 3025   4.938  16.681   1.788
38818W        W 3026  20.245  41.318  12.535
38819W        W 3027   3.882  21.061   2.186
38820W        W 3028   9.804  42.896   1.450
38821W        W 3029  36.941  30.017   3.734
38822W        W 3030  16.795  23.998   1.794
38823W        W 3031  14.653  24.176  10.617
38824W        W 3032  37.513  31.110   0.451
38825W        W 3033  41.423  19.051   0.882
38826W        W 3034  29.136   0.852   3.299
38827W        W 3035  23.611  26.665  14.383
38828W        W 3036  34.028  22.643  10.514
38829W        W 3037  18.282   4.437  11.075
38830W        W 3038   3.349   6.254  14.450
38831W        W 3039   2.456   3.389  13.832
38832W        W 3040   6.346  15.322  12.894
38833W        W 3041  38.361  19.052   4.243
38834W        W 3042  19.666  32.563   3.151
38835W        W 3043   8.372  13.838   2.697
38836W        W 3044  18.241  36.436  10.457
38837W        W 3045  35.505  36.480  14.831
38838W        W 3046  22.673  16.768   3.731
38839W        W 3047  22.116  38.967   0.342
38840W        W 3048  44.931  31.494   0.402
38841W        W 3049  43.355  15.180   4.763
38842W        W 3050  38.519  40.432   1.749
38843W        W 3051   0.403  20.531  10.974
38844W        W 3052  42.358  43.429  13.328
38845W        W 3053  38.442  28.468   3.682
38846W        W 3054  21.027  16.660   0.956
38847W        W 3055  30.488  12.301  11.449
38848W        W 3056   5.695   4.422  10.473
38849W        W 3057  41.395  44.278  12.908
38850W        W 3058   1.367   7.222  11.127
38851W        W 3059  42.920  19.073   2.837
38852W        W 3060  11.327  21.703   2.224
38853W        W 3061   5.409  20.578  13.947
38854W        W 3062  20.212  19.240  12.854
38855W        W 3063  24.973   6.799  12.349
38856W        W 3064   4.843  38.974  11.100
38857W        W 3065  16.222   8.186   1.441
38858W        W 3066  19.275  44.811  13.532
38859W        W 3067  35.950  17.630   0.869
38860W        W 3068   9.245   2.777   3.789
38861W        W 3069  10.286  12.306   3.355
38862W        W 3070  22.221  34.453  13.016
38863W        W 3071  23.643   9.211   1.450
38864W        W 3072  35.960  40.940  14.487
38865W        W 3073  43.441  31.116   0.873
38866W        W 3074   4.756   1.290   2.372
38867W        W 3075  13.136  31.598   3.149
38868W        W 3076   3.443  41.923  13.892
38869W        W 3077   8.661  33.387  14.765
38870W        W 3078  13.663  16.748  14.938
38871W        W 3079   9.160  40.957  12.970
38872W        W 3080  44.809  26.973   3.765
38873W        W 3081  16.154   2.402   0.361
38874W        W 3082  12.702   2.451   2.418
38875W        W 3083   9.316  31.960  11.918
38876W        W 3084  23.627   1.269  12.996
38877W        W 3085  40.339  32.021   5.171
38878W        W 3086  18.256  33.000  11.482
38879W        W 3087  41.424  30.616   3.814
38880W        W 3088  35.376  18.287  10.476
38881W        W 3089  44.970  36.370   2.764
38882W        W 3090   7.232   9.213  11.376
38883W        W 3091  10.154  37.396   2.338
38884W        W 3092  33.971  31.462   0.768
38885W        W 3093  37.501  20.680   4.219
38886W        W 3094   9.790  34.087   2.699
38887W        W 3095   9.825  19.214   0.877
38888W        W 3096   7.305  42.391  11.901
38889W        W 3097  32.127  12.667  12.344
38890W        W 3098  27.113   7.872   1.247
38891W        W 3099   3.260  35.470   0.480
38892W        W 3100  20.744  42.776   2.292
38893W        W 3101  11.233  44.987   2.326
38894W        W 3102   1.371   1.342  13.328
38895W        W 3103   2.416  16.209  12.563
38896W        W 3104  39.330  13.111  13.534
38897W        W 3105   4.256  29.948  10.917
38898W        W 3106  38.410  33.119  10.418
38899W        W 3107  33.943   6.700  11.447
38900W        W 3108  22.157  11.365  13.062
38901W        W 3109   0.451  32.951  13.996
38902W        W 3110  28.127   7.849  10.534
38903W        W 3111  31.048  10.208  10.974
38904W        W 3112  26.185  25.063  14.392
38905W        W 3113  22.155  36.902  13.812
38906W        W 3114  22.167  23.731  14.946
38907W        W 3115  36.039   9.774   2.187
38908W        W 3116  27.180   6.340  14.450
38909W        W 3117   6.361   0.341   1.231
38910W        W 3118  16.121  37.516  10.621
38911W        W 3119  23.522  23.180  11.941
38912W        W 3120  39.358  21.698  14.947
38913W        W 3121  36.965  41.831  11.062
38914W        W 3122  18.553   3.924   0.343
38915W        W 3123  13.180   9.168  14.324
38916W        W 3124  39.046  43.861   9.954
38917W        W 3125  20.103  25.484   2.392
38918W        W 3126  40.054  44.830  14.954
38919W        W 3127  28.956   6.247  13.382
38920W        W 3128  18.182  42.026  12.457
38921W        W 3129  10.295  34.413   3.653
38922W        W 3130  31.568  43.777  10.472
38923W        W 3131  34.478  40.519   2.860
38924W        W 3132  38.403  24.114  14.772
38925W        W 3133  10.146  12.299  13.985
38926W        W 3134   9.687   2.422   4.627
38927W        W 3135  15.134   8.878  10.596
38928W        W 3136  25.619  11.763   3.659
38929W        W 3137  29.082  15.765  10.967
38930W        W 3138   0.282  39.991  14.452
38931W        W 3139  40.989  20.734   5.285
38932W        W 3140  10.747  38.876   1.276
38933W        W 3141  29.154  13.624  13.809
38934W        W 3142   9.685  24.643  12.957
38935W        W 3143  36.028  34.874  13.318
38936W        W 3144  29.103   3.280   0.313
38937W        W 3145  14.795   6.765  13.059
38938W        W 3146  33.397  22.036  14.356
38939W        W 3147  14.817  18.562   3.825
38940W        W 3148  31.897  28.974   3.198
38941W        W 3149  25.156  25.503   4.166
38942W        W 3150  36.016   1.407   1.414
38943W        W 3151  10.641  43.002   1.256
38944W        W 3152  18.583   4.299  13.039
38945W        W 3153   7.829  44.784  11.491
38946W        W 3154   0.390  37.478   2.810
38947W        W 3155   7.263   2.921  10.616
38948W        W 3156  25.616  41.880  12.376
38949W        W 3157  44.495  15.665  11.098
38950W        W 3158  18.556   3.297   5.209
38951W        W 3159   8.371  37.387   0.450
38952W        W 3160  37.034   8.304   0.733
38953W        W 3161  22.686  34.464   0.954
38954W        W 3162  19.736  13.331  13.880
38955W        W 3163  16.298  28.653   2.373
38956W        W 3164  12.638   0.883  11.039
38957W        W 3165  19.629  43.878   4.170
38958W        W 3166  43.954  13.717   3.247
38959W        W 3167  33.464  14.729  11.461
38960W        W 3168   5.796  40.865   2.320
38961W        W 3169  12.295  15.231   4.708
38962W        W 3170  23.008   5.827   1.233
38963W        W 3171   5.841  39.433  11.082
38964W        W 3172  17.790  43.876   2.187
38965W        W 3173  19.122  13.802  11.572
38966W        W 3174   6.355  10.670  11.945
38967W        W 3175  37.393  24.074  11.900
38968W        W 3176  38.053   1.340  14.828
38969W        W 3177  35.027  30.001   0.853
38970W        W 3178  15.240  26.120   0.943
38971W        W 3179  43.826  37.904   2.310
38972W        W 3180  26.971   6.695   4.270
38973W        W 3181  28.117  17.228  14.009
38974W        W 3182  22.713  15.682  12.536
38975W        W 3183  37.010   8.205   4.271
38976W        W 3184  35.459  42.808  13.395
38977W        W 3185  40.540  36.368  12.969
38978W        W 3186   4.815  34.518   0.754
38979W        W 3187   9.820  24.644  14.963
38980W        W 3188  26.655   6.728   1.854
38981W        W 3189   8.281  32.437   2.871
38982W        W 3190  15.682  11.310   4.228
38983W        W 3191  20.579  27.534   4.322
38984W        W 3192  28.162  25.130   0.352
38985W        W 3193  29.032  26.115   1.794
38986W        W 3194  18.603  16.726   2.825
38987W        W 3195  10.304  27.962   3.634
38988W        W 3196  28.004  35.082  14.313
38989W        W 3197  27.158  15.711  11.582
38990W        W 3198  14.141  42.014  12.441
38991W        W 3199  32.954  28.980   2.221
38992W        W 3200  12.252  17.700   2.410
38993W        W 3201  43.369  34.021   1.323
38994W        W 3202  29.138  39.391   4.814
38995W        W 3203  26.174  10.722  14.366
38996W        W 3204  41.505  22.700   4.295
38997W        W 3205  41.919  18.282  11.099
38998W        W 3206  32.119  38.414  14.368
38999W        W 3207  17.221  24.011  13.933
39000W        W 3208  29.943   8.849   0.439
39001W        W 3209  20.131  37.036  12.371
39002W        W 3210  29.585  39.509   0.789
39003W        W 3211  20.567  39.907  10.920
39004W        W 3212  43.883  29.439   1.856
39005W        W 3213  30.031  38.388   3.291
39006W        W 3214   1.338   7.834   3.635
39007W        W 3215  41.421  23.669  14.973
39008W        W 3216  22.128   6.883   1.263
39009W        W 3217  25.207  41.920  12.510
39010W        W 3218  23.047  39.017   2.881
39011W        W 3219  20.579   7.238  11.465
39012W        W 3220  39.839  24.661  10.892
39013W        W 3221   0.845  12.847   0.924
39014W        W 3222  30.099   1.452  12.400
39015W        W 3223  23.732  12.616   2.842
39016W        W 3224  24.505   0.306  12.830
39017W        W 3225  10.732  38.413  12.058
39018W        W 3226  30.157   5.855   4.345
39019W        W 3227  31.077  27.061  14.400
39020W        W 3228  15.097  25.964  13.062
39021W        W 3229   4.729  31.938  13.424
39022W        W 3230   8.198   4.288  13.912
39023W        W 3231  31.630  37.472   4.708
39024W        W 3232  40.922  33.041  11.009
39025W        W 3233  30.586  35.921  10.545
39026W        W 3234  34.513  39.976   0.394
39027W        W 3235  19.103   6.258  11.019
39028W        W 3236  39.501   8.362  13.481
39029W        W 3237   3.363   4.848   3.862
39030W        W 3238  18.727  40.912   4.648
39031W        W 3239  26.664   6.290   4.193
39032W        W 3240   5.759  24.983   0.350
39033W        W 3241  21.578  28.636  14.315
39034W        W 3242  18.671  37.969   0.894
39035W        W 3243  26.026  27.978  10.516
39036W        W 3244  28.062  23.038  11.039
39037W        W 3245  14.340  43.910  13.029
39038W        W 3246   0.384  43.356  11.104
39039W        W 3247  28.521  40.857   3.723
39040W        W 3248  26.502  34.587  11.554
39041W        W 3249  15.632  24.129  10.516
39042W        W 3250  43.353  14.771   0.278
39043W        W 3251  16.213  30.572  14.311
39044W        W 3252   0.976  30.007  13.807
39045W        W 3253   3.283  22.577   4.676
39046W        W 3254  32.092   4.866  14.929
39047W        W 3255  36.099  38.913  11.538
39048W        W 3256  21.192   3.354  13.391
39049W        W 3257  43.501  43.005   3.203
39050W        W 3258   2.907  24.719   2.272
39051W        W 3259  13.823   9.256  11.872
39052W        W 3260   9.810  26.170  13.971
39053W        W 3261  28.986  23.627  14.854
39054W        W 3262   9.340   1.778   2.203
39055W        W 3263  19.276  42.351  13.474
39056W        W 3264  26.194  44.281  11.095
39057W        W 3265  11.216   5.892  10.582
39058W        W 3266   5.213  29.548   2.371
39059W        W 3267  29.137  44.369   3.663
39060W        W 3268  19.117  24.116  14.916
39061W        W 3269  36.091  16.205  10.488
39062W        W 3270  38.501  35.431  10.517
39063W        W 3271  35.589  16.202   2.825
39064W        W 3272  32.460  18.746   0.242
39065W        W 3273   3.284  27.562   3.744
39066W        W 3274  16.699  34.562  13.999
39067W        W 3275  35.990  43.324  13.850
39068W        W 3276   8.185  12.620  14.859
39069W        W 3277  32.061   5.726  12.576
39070W        W 3278   6.305   8.166  11.046
39071W        W 3279  42.816  15.273   0.384
39072W        W 3280  38.058  16.131  12.383
39073W        W 3281   6.835  31.531  13.029
39074W        W 3282  10.742  37.514  12.069
39075W        W 3283  39.448  19.670  13.853
39076W        W 3284  19.584  39.498   2.404
39077W        W 3285  17.585  22.527  10.540
39078W        W 3286   3.918  31.122  13.003
39079W        W 3287  20.207   3.791   4.336
39080W        W 3288  36.913  14.317  10.996
39081W        W 3289  19.106  15.173  12.568
39082W        W 3290  21.708  28.514   3.332
39083W        W 3291  28.103  34.031  10.564
39084W        W 3292   7.296   6.264  14.515
39085W        W 3293  29.962  27.453  11.002
39086W        W 3294  37.956  15.607   2.180
39087W        W 3295  18.234   1.848   0.369
39088W        W 3296  17.065  32.116  14.860
39089W        W 3297  38.986  26.458   1.924
39090W        W 3298  15.664   1.973   3.348
39091W        W 3299  32.417  36.920   4.601
39092W        W 3300  19.651   4.824   3.703
39093W        W 3301   4.885  44.942   0.365
39094W        W 3302  42.449   2.821   3.799
39095W        W 3303  12.707  33.931  14.476
39096W        W 3304   3.715  14.758  13.892
39097W        W 3305  40.413  22.174   4.686
39098W        W 3306  41.020  30.003   1.364
39099W        W 3307  44.262  40.003  13.516
39100W        W 3308  22.626  16.116  10.617
39101W        W 3309   3.248  23.139  10.988
39102W        W 3310  22.060  21.729  12.431
39103W        W 3311  18.670   4.351  13.982
39104W        W 3312   9.255  16.142  14.860
39105W        W 3313  38.024  13.836   1.832
39106W        W 3314  20.126  39.403  12.999
39107W        W 3315  25.994  38.461  14.506
39108W        W 3316   2.858  26.585   4.148
39109W        W 3317  18.590  17.648  12.845
39110W        W 3318  37.918  39.424  11.860
39111W        W 3319  30.973  39.847   1.396
39112W        W 3320  37.360   1.449   2.898
39113W        W 3321  32.052   8.839   5.256
39114W        W 3322  34.553  30.130  13.434
39115W        W 3323  18.651  38.508   0.766
39116W        W 3324  10.851  22.555  13.317
39117W        W 3325  21.726   2.313  14.285
39118W        W 3326   8.708  29.642   0.795
39119W        W 3327  39.966  41.931   3.723
39120W        W 3328  22.547  19.635   2.311
39121W        W 3329  34.480  32.617   1.816
39122W        W 3330  43.864   3.407   4.254
39123W        W 3331  20.556   4.878   0.783
39124W        W 3332  34.613  31.642   0.795
39125W        W 3333  15.591   5.409  11.900
39126W        W 3334  25.560  10.237   1.238
39127W        W 3335  11.702  28.623   0.261
39128W        W 3336  10.663  26.507   3.689
39129W        W 3337   0.743  44.948  12.520
39130W        W 3338  25.204  11.669  14.786
39131W        W 3339  13.224  35.946  14.809
39132W        W 3340  43.361  15.110   4.278
39133W        W 3341   2.745   7.736   0.446
39134W        W 3342   3.808  33.069   3.765
39135W        W 3343  13.687   5.904   0.781
39136W        W 3344  16.078  18.061   1.404
39137W        W 3345  28.939  11.270   2.305
39138W        W 3346  35.108  14.698   2.203
39139W        W 3347  33.408  44.951   3.856
39140W        W 3348  29.953  23.525   2.666
39141W        W 3349  28.975  28.595  13.888
39142W        W 3350  19.146  21.261  12.931
39143W        W 3351   4.706  40.531  14.819
39144W        W 3352  33.888  29.102   3.848
39145W        W 3353   8.735  13.693  12.856
39146W        W 3354  24.182   9.296  11.541
39147W        W 3355  43.912   4.446  13.999
39148W        W 3356  16.120  16.221   1.845
39149W        W 3357  43.935   0.279   4.787
39150W        W 3358  28.172  15.223  14.771
39151W        W 3359  21.731   0.824  10.586
39152W        W 3360  27.480  39.499   4.218
39153W        W 3361  23.112  12.358   3.196
39154W        W 3362   3.384  39.555   2.756
39155W        W 3363  22.542  18.295  13.797
39156W        W 3364   3.944  41.032   1.355
39157W        W 3365  24.199  31.506   1.750
39158W        W 3366   5.882  38.528  12.399
39159W        W 3367   4.827  18.162  11.532
39160W        W 3368  16.201   9.862  14.010
39161W        W 3369   0.906  17.714   4.215
39162W        W 3370   3.438  30.164   2.897
39163W        W 3371  21.235  10.690   3.377
39164W        W 3372  15.241  42.395  14.318
39165W        W 3373  34.495   6.871  10.469
39166W        W 3374  17.131  18.096  13.457
39167W        W 3375  28.169  32.978   3.150
39168W        W 3376  26.611  23.568  12.034
39169W        W 3377  30.940  25.507   4.661
39170W        W 3378   0.956  17.692  10.458
39171W        W 3379  34.472  14.135  12.394
39172W        W 3380  34.066  31.639   1.831
39173W        W 3381  34.614  24.501  12.504
39174W        W 3382  23.043  34.086  12.037
39175W        W 3383  34.583  32.122   2.832
39176W        W 3384  39.544  27.491   3.147
39177W        W 3385  10.364  29.096  11.560
39178W        W 3386   2.292  39.490  13.336
39179W        W 3387  18.704  42.832  13.314
39180W        W 3388  20.190  26.058   3.285
39181W        W 3389   1.826  41.391  10.439
39182W        W 3390  10.180  32.976  12.356
39183W        W 3391  32.421  10.175   4.603
39184W        W 3392  39.897  10.811  12.378
39185W        W 3393  33.467  36.024   3.148
39186W        W 3394  38.969   1.478  10.584
39187W        W 3395   2.762   2.837   5.140
39188W        W 3396  21.019  39.360  13.923
39189W        W 3397  20.668   2.252  12.558
39190W        W 3398  22.554  42.881   4.294
39191W        W 3399   0.481  10.199  14.395
39192W        W 3400  32.121  25.538   2.676
39193W        W 3401   8.229   1.734  11.061
39194W        W 3402  20.163  31.636  10.622
39195W        W 3403  39.497  43.849  12.018
39196W        W 3404  15.744  27.624  13.527
39197W        W 3405  11.184  43.353   4.278
39198W        W 3406  12.808  24.670   2.335
39199W        W 3407  42.309   1.470  12.051
39200W        W 3408  24.104   3.901  11.561
39201W        W 3409  18.275  18.221  11.409
39202W        W 3410   9.291  44.920   1.847
39203W        W 3411  33.584  33.608   1.291
39204W        W 3412   0.836  13.138   3.700
39205W        W 3413  21.074  27.096  14.329
39206W        W 3414  31.134  22.086   2.419
39207W        W 3415  39.826  28.514   0.457
39208W        W 3416  11.166   6.296   2.381
39209W        W 3417  31.993  15.222   4.336
39210W        W 3418  24.605  10.707  14.388
39211W        W 3419  21.145  23.144   0.932
39212W        W 3420   7.363   1.880   4.311
39213W        W 3421  27.452  17.185  10.530
39214W        W 3422  25.138  26.968  11.055
39215W        W 3423  15.592  23.721   0.434
39216W        W 3424  41.458   5.256  14.387
39217W        W 3425  35.518  11.755  14.799
39218W        W 3426  16.767  42.976   2.209
39219W        W 3427  21.720  37.930  12.937
39220W        W 3428  10.764  40.825  10.940
39221W        W 3429  17.604  16.685  10.548
39222W        W 3430  21.589  42.416   0.451
39223W        W 3431  16.805  26.461   3.336
39224W        W 3432  42.468  36.917   2.407
39225W        W 3433  39.430  33.611  13.817
39226W        W 3434  12.232  37.543  14.852
39227W        W 3435  34.949   9.375   2.668
39228W        W 3436  29.454  29.562  14.454
39229W        W 3437  31.930  16.698  13.439
39230W        W 3438   6.330  42.377  14.362
39231W        W 3439  34.387   4.427  12.951
39232W        W 3440  13.169   1.736   4.822
39233W        W 3441   0.394   3.452   5.695
39234W        W 3442  24.230  11.279  13.356
39235W        W 3443  10.260  14.600   0.428
39236W        W 3444  34.396  11.838   1.745
39237W        W 3445   9.266  38.400   3.853
39238W        W 3446  36.932  31.457  13.969
39239W        W 3447  21.066  33.990   2.672
39240W        W 3448   5.836  28.578  14.397
39241W        W 3449  44.288  15.134   3.168
39242W        W 3450   3.842  27.524  12.488
39243W        W 3451   5.904   7.359   3.314
39244W        W 3452   9.743   8.821   3.771
39245W        W 3453   4.912  21.757   1.830
39246W        W 3454  37.936   2.921   5.606
39247W        W 3455  21.104  26.096   4.149
39248W        W 3456   4.871  32.546  14.818
39249W        W 3457   2.811  37.535   5.180
39250W        W 3458  29.139   2.385  14.294
39251W        W 3459  32.456  33.447  13.377
39252W        W 3460  25.126  36.516  11.446
39253W        W 3461  22.169  29.006   4.783
39254W        W 3462  10.154  26.103   0.951
39255W        W 3463  26.684   3.271  11.442
39256W        W 3464  12.162  15.306   4.288
39257W        W 3465  25.624  42.290   0.356
39258W        W 3466  40.498   9.862   2.372
39259W        W 3467   1.923  38.027   2.725
39260W        W 3468  37.500  29.606   3.147
39261W        W 3469  11.341  16.080   1.697
39262W        W 3470  23.003  15.251   0.480
39263W        W 3471  21.590  28.933  14.822
39264W        W 3472  37.403  39.446  12.417
39265W        W 3473   0.790  26.179   4.233
39266W        W 3474   7.747  29.475  10.467
39267W        W 3475   2.903  39.836   0.830
39268W        W 3476   3.294  31.428  10.091
39269W        W 3477  39.360  28.149   2.867
39270W        W 3478   9.648  41.928   1.226
39271W        W 3479  29.014   3.761  12.016
39272W        W 3480   3.908  40.334  13.346
39273W        W 3481  40.896  44.961  14.938
39274W        W 3482  21.057  18.090   1.857
39275W        W 3483  31.071  17.670   1.389
39276W        W 3484  31.914  19.710  12.420
39277W        W 3485  21.024  29.029  11.378
39278W        W 3486  12.832   2.835  12.919
39279W        W 3487   6.351  23.037  14.355
39280W        W 3488  13.713   7.735  14.457
39281W        W 3489  18.292  39.499  10.918
39282W        W 3490  16.160  17.293   3.678
39283W        W 3491  12.337  31.054   3.871
39284W        W 3492  10.733  21.160  14.296
39285W        W 3493  23.616  29.042  14.791
39286W        W 3494  28.183  44.829  14.931
39287W        W 3495  25.045  37.525   4.752
39288W        W 3496  42.363  30.933  14.797
39289W        W 3497  30.955  42.882  14.310
39290W        W 3498  29.635  30.491   0.282
39291W        W 3499  13.844  39.854  13.399
39292W        W 3500  18.671  27.545   0.935
39293W        W 3501   0.800  11.761   3.817
39294W        W 3502  42.858  37.342   4.216
39295W        W 3503   0.767  40.515  12.941
39296W        W 3504   9.889  23.646   3.284
39297W        W 3505   4.400   5.330   1.367
39298W        W 3506   5.747  31.484   4.652
39299W        W 3507  17.705  23.215  10.441
39300W        W 3508  11.204  31.460  12.536
39301W        W 3509   7.359   8.266  13.424
39302W        W 3510  25.112  15.316  14.370
39303W        W 3511  23.154  32.495   2.259
39304W        W 3512  13.692  31.624   3.246
39305W        W 3513  41.812  27.968   3.234
39306W        W 3514  25.048  20.717   4.185
39307W        W 3515  25.616   8.186  14.765
39308W        W 3516  11.248  23.635  12.519
39309W        W 3517  41.432  42.018  11.386
39310W        W 3518  26.031   6.881   0.871
39311W        W 3519  16.771  32.087  10.467
39312W        W 3520  13.746   4.443   1.283
39313W        W 3521  43.935  21.577  14.347
39314W        W 3522  21.706  12.202  13.937
39315W        W 3523  23.207   4.728  11.583
39316W        W 3524  13.689  27.179   4.157
39317W        W 3525  34.902  29.145   1.854
39318W        W 3526   9.670  40.316   4.788
39319W        W 3527  15.329  25.606   3.209
39320W        W 3528  30.607   6.760   3.353
39321W        W 3529  41.326   7.358  10.985
39322W        W 3530  33.957  19.731  12.007
39323W        W 3531  18.127   2.879   2.826
39324W        W 3532  20.533   9.753   0.821
39325W        W 3533   5.389  15.678   2.892
39326W        W 3534   0.352   8.683  14.344
39327W        W 3535  22.230   4.351   2.715
39328W        W 3536   3.310  24.142  14.875
39329W        W 3537  41.023   4.814   0.907
39330W        W 3538  15.234  40.849   3.768
39331W        W 3539  40.426  41.481  11.931
39332W        W 3540  10.328   7.840   2.820
39333W        W 3541  39.003  18.081   3.857
39334W        W 3542  24.168  23.072  13.003
39335W        W 3543  25.071  25.528  13.933
39336W        W 3544  16.226   9.652  10.942
39337W        W 3545  17.162  40.006  14.393
39338W        W 3546   0.750  42.914   3.349
39339W        W 3547  18.786  15.654   1.837
39340W        W 3548   1.477   6.709   1.357
39341W        W 3549  15.137  36.551  11.608
39342W        W 3550  27.998  29.560  12.037
39343W        W 3551  37.450  20.711  11.463
39344W        W 3552   8.680  36.067  12.997
39345W        W 3553  25.097  30.999   3.367
39346W        W 3554  18.712  27.981   1.769
39347W        W 3555  13.328  36.459  14.451
39348W        W 3556  28.968   6.204  14.845
39349W        W 3557  22.081  17.592  13.958
39350W        W 3558  20.578   1.467   1.250
39351W        W 3559  12.261  39.961  11.122
39352W        W 3560  14.260   1.818  13.928
39353W        W 3561  33.451  23.668   2.678
39354W        W 3562  34.448  36.581  13.838
39355W        W 3563  33.427   0.890  14.759
39356W        W 3564  24.722  41.868   3.172
39357W        W 3565  43.460  36.494  13.971
39358W        W 3566  11.707  17.569   3.291
39359W        W 3567   8.260   6.213  14.869
39360W        W 3568  12.729  23.633  12.343
39361W        W 3569  14.160  42.327   4.182
39362W        W 3570   4.209  24.693  10.974
39363W        W 3571  13.328  10.765   2.877
39364W        W 3572  10.708   8.350  10.896
39365W        W 3573  41.978   3.438  11.377
39366W        W 3574  10.722  41.382  11.589
39367W        W 3575   0.276  14.657  12.884
39368W        W 3576  35.108   1.245  13.832
39369W        W 3577  19.145  21.695  12.952
39370W        W 3578   1.794  43.804   2.250
39371W        W 3579   7.406  13.165  12.525
39372W        W 3580   9.705   3.342  12.087
39373W        W 3581   3.312  41.996   1.705
39374W        W 3582  25.162   0.395  10.625
39375W        W 3583  37.448  29.115  10.490
39376W        W 3584  26.517   9.154  13.520
39377W        W 3585   6.382  27.462  13.064
39378W        W 3586   4.915   2.875  11.520
39379W        W 3587  34.082  35.075   0.280
39380W        W 3588   7.697  26.681   5.187
39381W        W 3589  29.128  43.938   2.365
39382W        W 3590  22.677  21.684  12.828
39383W        W 3591  18.095  25.104   1.926
39384W        W 3592  13.293  29.442   4.166
39385W        W 3593  33.521  39.821  11.916
39386W        W 3594  20.745   1.896   0.252
39387W        W 3595  26.149  29.641   4.118
39388W        W 3596  35.058  44.363   3.354
39389W        W 3597  31.627  42.816   1.794
39390W        W 3598  32.452  40.518   2.384
39391W        W 3599  26.973   2.919   0.840
39392W        W 3600  33.564  20.672   3.147
39393W        W 3601  25.145  33.389  14.362
39394W        W 3602  11.739  16.704  14.815
39395W        W 3603  36.470  21.176  12.073
39396W        W 3604  36.482  38.968   4.344
39397W        W 3605  20.615  10.275   0.901
39398W        W 3606   6.362  28.036   0.311
39399W        W 3607   5.268  31.423  14.426
39400W        W 3608   0.912   8.260   4.623
39401W        W 3609  40.017  29.924  12.031
39402W        W 3610  44.379   1.274   5.222
39403W        W 3611  25.999  33.080  14.408
39404W        W 3612  41.393  11.235   3.682
39405W        W 3613  30.062  40.316  11.090
39406W        W 3614   3.907  38.488   0.245
39407W        W 3615  25.697   3.435   2.715
39408W        W 3616   5.913  28.109   0.391
39409W        W 3617  32.529  28.112  10.610
39410W        W 3618   4.766   0.887   1.803
39411W        W 3619  42.836  12.815   1.698
39412W        W 3620   1.944   3.886  13.326
39413W        W 3621  17.280   5.809   5.656
39414W        W 3622  13.337  42.832  12.369
39415W        W 3623  39.054  36.060   1.385
39416W        W 3624   6.248  20.201   4.724
39417W        W 3625  33.508   9.769   3.674
39418W        W 3626  23.188   9.840   2.842
39419W        W 3627   3.365  28.165   4.141
39420W        W 3628  35.999   9.337   2.298
39421W        W 3629  32.429  17.769  11.480
39422W        W 3630  14.184  17.735   0.906
39423W        W 3631  17.662   7.312   4.250
39424W        W 3632   1.358  26.952  10.517
39425W        W 3633   8.782  25.142  12.507
39426W        W 3634  16.299  37.028   4.768
39427W        W 3635  44.468  12.698  14.363
39428W        W 3636  40.027  22.650   4.310
39429W        W 3637   6.328  16.627   3.382
39430W        W 3638   4.847   5.804  11.034
39431W        W 3639  22.733  15.701  11.399
39432W        W 3640  39.331  40.484   4.320
39433W        W 3641   2.328  33.900   2.771
39434W        W 3642   2.733  31.637   5.252
39435W        W 3643  33.928   9.674  11.121
39436W        W 3644  32.024  17.728  13.794
39437W        W 3645  36.034  43.882   2.299
39438W        W 3646  11.330  44.500  14.024
39439W        W 3647  39.415  29.499  11.105
39440W        W 3648   1.832   6.678  10.932
39441W        W 3649  27.954  19.633  14.356
39442W        W 3650   8.857  14.261   2.226
39443W        W 3651   1.841  14.131  12.364
39444W        W 3652   6.678   0.900   4.737
39445W        W 3653  21.088  36.882   3.266
39446W        W 3654  13.735  23.565   3.752
39447W        W 3655  33.571   9.697  13.002
39448W        W 3656  18.778  12.285   1.785
39449W        W 3657  25.700   1.416   0.902
39450W        W 3658  10.147  25.113   4.236
39451W        W 3659  20.742  32.427  14.913
39452W        W 3660  22.665   1.266   3.822
39453W        W 3661   1.923  11.835  12.873
39454W        W 3662  15.309  35.861   0.358
39455W        W 3663  41.893  13.634   3.200
39456W        W 3664  25.703  43.452   1.891
39457W        W 3665   6.869  28.137   1.230
39458W        W 3666  26.639  20.749  13.433
39459W        W 3667  37.546   2.846   0.923
39460W        W 3668  40.973  21.555   1.252
39461W        W 3669  15.699  26.687   3.379
39462W        W 3670  33.071  25.117   1.363
39463W        W 3671  16.093  31.017  14.795
39464W        W 3672   2.877  40.832   2.303
39465W        W 3673  38.437  18.647  12.570
39466W        W 3674  11.171  20.522   0.956
39467W        W 3675   9.235  27.643   3.754
39468W        W 3676  13.797  18.766  13.900
39469W        W 3677   5.346  21.596  10.937
39470W        W 3678  25.068  35.445   3.671
39471W        W 3679  32.954  34.102  10.438
39472W        W 3680  27.164  12.178   2.328
39473W        W 3681   0.279   7.666   4.806
39474W        W 3682  28.503  26.651   2.688
39475W        W 3683  16.102  14.295   0.321
39476W        W 3684  12.268  43.391   2.875
39477W        W 3685  19.636  28.116  10.567
39478W        W 3686  26.050  26.976  12.461
39479W        W 3687   5.407  28.051   0.272
39480W        W 3688  24.059  27.518  13.324
39481W        W 3689  44.495   5.345   3.852
39482W        W 3690  34.038  36.401   0.908
39483W        W 3691   2.461  23.621  11.447
39484W        W 3692  13.618  36.510   0.879
39485W        W 3693  23.115  34.963   4.642
39486W        W 3694  40.850  26.954   2.403
39487W        W 3695  39.482   7.753   3.754
39488W        W 3696   7.287  18.711  13.393
39489W        W 3697  14.229  34.440  14.365
39490W        W 3698  28.469  39.364  13.346
39491W        W 3699  43.314  29.504  14.855
39492W        W 3700  13.297  38.978   3.756
39493W        W 3701   9.646   6.390  14.929
39494W        W 3702   2.837  36.461  10.492
39495W        W 3703  35.358  34.442  14.351
39496W        W 3704  43.352  26.152   4.132
39497W        W 3705  36.010  31.044  14.345
39498W        W 3706  27.181  40.465   1.821
39499W        W 3707   8.348  39.393  12.897
39500W        W 3708   6.285  37.846   3.283
39501W        W 3709  24.680   7.272   4.600
39502W        W 3710  18.147  21.082  14.864
39503W        W 3711   8.177  38.856   3.852
39504W        W 3712  16.313  29.561   0.390
39505W        W 3713  10.732  24.617   1.446
39506W        W 3714  41.382  20.559  10.969
39507W        W 3715  24.622  18.073   1.450
39508W        W 3716  17.271  14.740  14.275
39509W        W 3717  21.575   8.251   0.771
39510W        W 3718  38.851  43.765   1.731
39511W        W 3719   4.752  42.929  12.917
39512W        W 3720  44.874   9.265  13.962
39513W        W 3721  14.723  43.344  14.953
39514W        W 3722  14.595   8.843  11.457
39515W        W 3723   3.893  26.500   9.938
39516W        W 3724  37.422  32.027  13.978
39517W        W 3725  24.026  29.962   4.624
39518W        W 3726   5.755  26.064   0.337
39519W        W 3727  17.163  11.208   1.866
39520W        W 3728  15.739  19.265   2.330
39521W        W 3729  31.536  32.477   3.648
39522W        W 3730   5.811  12.741  12.901
39523W        W 3731  18.643   0.429   3.753
39524W        W 3732  35.038  21.134   4.704
39525W        W 3733   2.831  30.591  14.012
39526W        W 3734   1.965  43.966   4.279
39527W        W 3735   3.459  44.347   3.338
39528W        W 3736  29.514  23.135   0.808
39529W        W 3737   2.377  21.123   3.742
39530W        W 3738  25.107  28.512  11.087
39531W        W 3739  18.756  39.373   9.920
39532W        W 3740  13.130  25.625   0.269
39533W        W 3741   9.759  41.942  11.870
39534W        W 3742  35.556  39.040  12.894
39535W        W 3743  25.670   1.469  11.504
39536W        W 3744  38.346  22.032  13.865
39537W        W 3745   3.312  43.771   0.364
39538W        W 3746  38.369  34.049   3.670
39539W        W 3747  41.036   0.942  11.516
39540W        W 3748   0.486  35.432  11.049
39541W        W 3749  28.597  19.252  11.100
39542W        W 3750   0.957  44.776  10.961
39543W        W 3751  13.731  10.854  14.458
39544W        W 3752  27.689  28.155  12.898
39545W        W 3753  36.015   8.789  13.454
39546W        W 3754  26.185  39.018   3.245
39547W        W 3755  28.997   0.336   0.785
39548W        W 3756   8.162  20.537  10.417
39549W        W 3757   2.793  15.083  13.497
39550W        W 3758  26.969   1.357  13.335
39551W        W 3759  44.839   4.424  11.509
39552W        W 3760  25.108  14.750   1.879
39553W        W 3761  17.084  36.080   9.647
39554W        W 3762   6.380   4.223   4.185
39555W        W 3763  27.118  44.825  10.982
39556W        W 3764  44.401  15.240   3.702
39557W        W 3765  23.042   9.372  11.372
39558W        W 3766  23.512  44.425  10.592
39559W        W 3767   7.360  18.696   2.723
39560W        W 3768   8.682  25.614  13.904
39561W        W 3769  16.708  35.529   2.188
39562W        W 3770  24.493  31.443  12.516
39563W        W 3771  20.658  24.998   4.763
39564W        W 3772  32.123  25.147  11.453
39565W        W 3773   6.724  13.139  11.518
39566W        W 3774   2.959   5.851   2.845
39567W        W 3775   4.319  27.185  14.843
39568W        W 3776   5.404   6.387  11.408
39569W        W 3777   0.759  14.676  13.020
39570W        W 3778  28.021  29.081   4.709
39571W        W 3779  30.540  32.007  11.564
39572W        W 3780   4.229  26.702   4.113
39573W        W 3781   7.381  26.697   1.231
39574W        W 3782   3.284   3.248   0.458
39575W        W 3783  29.069   2.770  14.032
39576W        W 3784  34.016  40.935   4.265
39577W        W 3785   9.329  44.864   4.279
39578W        W 3786  34.914   0.279  13.977
39579W        W 3787   9.226  28.149  10.470
39580W        W 3788  36.571  24.986   2.738
39581W        W 3789  17.777  43.306   0.893
39582W        W 3790  36.430  10.709  14.768
39583W        W 3791  44.460  12.294   0.395
39584W        W 3792  25.663  21.642  13.905
39585W        W 3793  26.000  42.478  11.604
39586W        W 3794  11.802   6.920  12.517
39587W        W 3795  18.748  36.933  12.847
39588W        W 3796  16.711  26.510   1.695
39589W        W 3797  16.144   9.255   3.710
39590W        W 3798  34.044  28.011  13.495
39591W        W 3799  21.592  27.603   3.198
39592W        W 3800  15.180  17.190   0.337
39593W        W 3801  24.516  44.320   2.328
39594W        W 3802  14.819  30.991  12.994
39595W        W 3803   9.649  35.020  11.507
39596W        W 3804  12.787  10.290  13.806
39597W        W 3805  25.062  19.270  11.410
39598W        W 3806  21.162   3.259   0.376
39599W        W 3807  40.303   7.347  13.913
39600W        W 3808  35.021   9.696  13.907
39601W        W 3809  32.476   1.298   0.799
39602W        W 3810  25.964  18.083  14.322
39603W        W 3811   5.910  26.699  13.429
39604W        W 3812  36.070  23.588  13.491
39605W        W 3813  30.007  21.097  14.817
39606W        W 3814  19.693  15.137   0.461
39607W        W 3815  26.154  12.131   2.766
39608W        W 3816   1.265  30.965  14.409
39609W        W 3817  29.668  16.572  10.642
39610W        W 3818  43.823  11.220   2.890
39611W        W 3819   2.818  14.679  11.055
39612W        W 3820   2.823  23.152   3.318
39613W        W 3821  10.357  21.751   0.260
39614W        W 3822  21.539  12.774  12.912
39615W        W 3823  30.512  21.567   1.924
39616W        W 3824  43.964  24.703  13.347
39617W        W 3825  24.078  24.086   1.927
39618W        W 3826  35.965   6.188  12.569
39619W        W 3827  10.366  11.251   2.696
39620W        W 3828   9.317  25.056  11.528
39621W        W 3829   5.399  27.173  12.948
39622W        W 3830   4.430  14.329  12.087
39623W        W 3831  35.958  25.542  14.435
39624W        W 3832  14.812   3.415   0.435
39625W        W 3833   9.393  30.501   0.288
39626W        W 3834  23.102  29.552  13.990
39627W        W 3835  39.035  13.229   3.253
39628W        W 3836  16.742  23.492  11.502
39629W        W 3837  17.618  16.803   1.824
39630W        W 3838  11.810  20.258   4.226
39631W        W 3839  27.133  18.660  13.431
39632W        W 3840   4.930  19.699   3.738
39633W        W 3841  40.892  18.140  11.460
39634W        W 3842  34.601   6.284  13.378
39635W        W 3843  19.733  18.195   4.319
39636W        W 3844  27.178  16.291   0.304
39637W        W 3845  36.993   0.428  12.929
39638W        W 3846  37.065  28.593  10.436
39639W        W 3847  29.519  20.063   2.194
39640W        W 3848  15.184  17.610  12.468
39641W        W 3849  12.167  13.140   3.310
39642W        W 3850   1.976   8.822   2.347
39643W        W 3851  14.812  20.681   1.887
39644W        W 3852  41.985  41.881   3.281
39645W        W 3853   0.490  16.664  12.533
39646W        W 3854   7.282  29.582   2.190
39647W        W 3855  20.218   9.268   2.802
39648W        W 3856  17.790  21.514  14.331
39649W        W 3857  39.525   0.829   4.690
39650W        W 3858  28.127  38.825  14.814
39651W        W 3859  15.133  23.137   4.606
39652W        W 3860   2.395  17.217   0.378
39653W        W 3861  23.985   7.736   4.598
39654W        W 3862  13.242  35.384   0.793
39655W        W 3863  10.827  15.186   2.762
39656W        W 3864   7.176  38.456  10.641
39657W        W 3865   3.811   9.761   3.692
39658W        W 3866  40.461  30.010  13.530
39659W        W 3867  33.438  31.949  11.957
39660W        W 3868  24.717  27.962   3.736
39661W        W 3869   2.430   0.968  14.024
39662W        W 3870  37.354  30.911   4.297
39663W        W 3871  15.301  38.498  14.826
39664W        W 3872  11.188   6.425   3.863
39665W        W 3873  24.715  37.951  13.873
39666W        W 3874  10.730   2.247   4.216
39667W        W 3875  43.320  10.254  12.006
39668W        W 3876  10.841  15.248  12.990
39669W        W 3877  27.147  38.880   0.397
39670W        W 3878  27.119  25.065  12.467
39671W        W 3879  10.141  30.643  10.538
39672W        W 3880  22.513  25.211   3.744
39673W        W 3881   3.885  25.696   0.728
39674W        W 3882  12.323  14.097  14.379
39675W        W 3883  13.600  24.598   0.293
39676W        W 3884  15.707  26.691   2.243
39677W        W 3885  10.739   3.444   4.142
39678W        W 3886  40.955  29.985   3.373
39679W        W 3887   8.656  39.012  12.423
39680W        W 3888   3.801  16.640   0.770
39681W        W 3889   1.949   5.365   0.906
39682W        W 3890   9.319   0.989   3.378
39683W        W 3891  25.598  29.975   0.880
39684W        W 3892   3.877  32.950   0.966
39685W        W 3893  11.793  42.920  13.866
39686W        W 3894  40.361   8.819  14.379
39687W        W 3895  33.991   9.288  12.980
39688W        W 3896  40.013   3.900  13.012
39689W        W 3897  10.377  21.073  13.934
39690W        W 3898  30.014   3.329  14.407
39691W        W 3899  24.050  25.538  10.556
39692W        W 3900   8.309  14.767   2.391
39693W        W 3901  33.479  14.144  10.975
39694W        W 3902  22.686  31.130  14.948
39695W        W 3903   2.302  30.597   1.895
39696W        W 3904   5.375   1.973  14.413
39697W        W 3905  39.316  41.533   1.223
39698W        W 3906   3.401  12.686   4.782
39699W        W 3907   6.347   0.834   2.681
39700W        W 3908  34.415   4.781  14.858
39701W        W 3909  40.874   6.301  10.029
39702W        W 3910  38.847  19.582  12.465
39703W        W 3911   8.314  15.673  12.382
39704W        W 3912  37.499   9.299   5.250
39705W        W 3913  41.901  41.939  14.850
39706W        W 3914  18.767  36.446   3.348
39707W        W 3915   7.667  37.527  12.890
39708W        W 3916  40.973  30.968   2.373
39709W        W 3917  25.557  39.971  11.992
39710W        W 3918   6.298  22.647  14.818
39711W        W 3919   8.205  10.656   3.712
39712W        W 3920  35.434  44.856  13.912
39713W        W 3921  10.669  16.129   0.951
39714W        W 3922   7.379  18.693  12.347
39715W        W 3923   1.891  37.520   5.092
39716W        W 3924   8.189   2.851   0.484
39717W        W 3925  34.093  11.757  11.480
39718W        W 3926  35.070   7.208   9.958
39719W        W 3927  37.345  38.828   0.378
39720W        W 3928   0.763  26.098  12.051
39721W        W 3929  25.014  13.253  10.456
39722W        W 3930  41.841   3.857   0.329
39723W        W 3931   6.355  22.731  10.594
39724W        W 3932  33.097  29.988  10.607
39725W        W 3933   1.435  16.261   2.859
39726W        W 3934  25.492  10.177   2.768
39727W        W 3935  12.220  14.604   4.677
39728W        W 3936  15.215  34.934   4.349
39729W        W 3937  44.823  35.363   3.199
39730W        W 3938  20.065  19.202  11.532
39731W        W 3939  18.206  44.461  14.017
39732W        W 3940  13.753  26.608  14.765
39733W        W 3941  32.457  32.405   4.796
39734W        W 3942  38.906   9.676   1.313
39735W        W 3943  12.152  31.598   4.780
39736W        W 3944   1.441   5.875  14.787
39737W        W 3945  42.792  32.114   4.826
39738W        W 3946   3.338   5.711  10.629
39739W        W 3947  32.960  20.529  13.318
39740W        W 3948   3.436  30.080  12.020
39741W        W 3949  36.359  17.296   3.379
39742W        W 3950   9.882  15.208   1.749
39743W        W 3951   2.377  28.577   2.785
39744W        W 3952  30.090  30.034  13.825
39745W        W 3953  31.141  40.439   1.883
39746W        W 3954  19.059   9.160  12.982
39747W        W 3955  27.056  23.180   2.367
39748W        W 3956  18.716  34.955  14.313
39749W        W 3957  15.593  17.584   2.214
39750W        W 3958  25.637  44.406  10.090
39751W        W 3959  24.695  21.535   0.954
39752W        W 3960  15.193  30.912   4.669
39753W        W 3961  39.964   4.760   9.992
39754W        W 3962   8.178  44.300  14.001
39755W        W 3963   3.217   4.298   0.832
39756W        W 3964  35.043   0.352  12.902
39757W        W 3965  35.003  22.597  12.873
39758W        W 3966  20.683   5.244  14.830
39759W        W 3967   2.786  17.770  13.832
39760W        W 3968  35.503  30.440  14.974
39761W        W 3969  35.873  42.944  13.841
39762W        W 3970  44.325  18.618  14.003
39763W        W 3971  10.788  43.320  11.027
39764W        W 3972   0.793   4.924   1.789
39765W        W 3973  13.608  24.227  14.307
39766W        W 3974  25.672  11.648   2.868
39767W        W 3975  23.092   8.885  11.868
39768W        W 3976   1.782  30.124  12.929
39769W        W 3977   7.808  26.599   4.148
39770W        W 3978  24.720  28.929   2.182
39771W        W 3979   5.907  10.294   4.252
39772W        W 3980  28.087  21.062  13.003
39773W        W 3981   0.276  34.895   2.191
39774W        W 3982  14.835   9.676   0.950
39775W        W 3983   6.300  11.196  10.436
39776W        W 3984  40.985  31.495   0.407
39777W        W 3985  10.271  18.555   1.738
39778W        W 3986  17.660  42.438  12.570
39779W        W 3987  35.038  13.116  13.980
39780W        W 3988   8.893  22.239  13.307
39781W        W 3989  33.590  28.159  12.938
39782W        W 3990  23.152  16.682  13.324
39783W        W 3991  35.513  17.693   0.341
39784W        W 3992   9.191  35.868   2.280
39785W        W 3993  24.216   2.435  11.934
39786W        W 3994  36.548  34.488  13.999
39787W        W 3995  28.447  12.304  13.900
39788W        W 3996  13.187  31.567  11.591
39789W        W 3997   0.275  32.097  14.395
39790W        W 3998  10.155  38.889   1.733
39791W        W 3999  23.138  38.462   4.754
39792W        W 4000  44.467  43.780  10.930
39793W        W 4001  12.194  35.898   0.245
39794W        W 4002  31.015  11.147   2.886
39795W        W 4003  23.705   0.488  12.079
39796W        W 4004  41.505  18.080   1.368
39797W        W 4005   0.955   3.223  11.510
39798W        W 4006  32.615  14.248  12.037
39799W        W 4007  12.225  28.508   2.195
39800W        W 4008  11.141  42.478   2.361
39801W        W 4009  23.706  11.133  10.410
39802W        W 4010  34.374  10.747   4.631
39803W        W 4011  44.870  34.090   4.330
39804W        W 4012  18.658   4.212  10.629
39805W        W 4013  39.360  14.117  13.405
39806W        W 4014  11.240  21.043  14.393
39807W        W 4015  31.997  39.374  13.487
39808W        W 4016  13.145   9.188   2.185
39809W        W 4017  33.444  23.078   1.347
39810W        W 4018  28.571  35.048  13.026
39811W        W 4019  21.732  23.589   1.872
39812W        W 4020  23.722  14.777   2.813
39813W        W 4021  16.613  11.160  12.050
39814W        W 4022  21.039  32.592  12.403
39815W        W 4023  35.554  35.518  10.998
39816W        W 4024  14.228  35.471  12.523
39817W        W 4025   9.236  34.501  13.853
39818W        W 4026  22.503  24.484  11.086
39819W        W 4027  38.972  25.044   0.470
39820W        W 4028   9.760  43.297   1.892
39821W        W 4029  10.337   1.338   3.810
39822W        W 4030  35.376   2.746   3.214
39823W        W 4031  36.976  19.078   2.802
39824W        W 4032  14.299  13.760  12.981
39825W        W 4033  19.745  28.179  12.377
39826W        W 4034  31.013  33.405  10.979
39827W        W 4035  12.821   4.215   3.300
39828W        W 4036  27.592   7.218  11.585
39829W        W 4037   2.885  28.526  14.865
39830W        W 4038  29.926  36.884  14.893
39831W        W 4039  15.092  12.216  12.352
39832W        W 4040  44.479  34.964   4.174
39833W        W 4041  16.163  12.163  14.365
39834W        W 4042  35.544  14.274  12.482
39835W        W 4043   6.365  23.633   3.246
39836W        W 4044  34.532  14.131   1.779
39837W        W 4045  12.267  17.167   2.312
39838W        W 4046  28.635  26.055   2.279
39839W        W 4047  24.041  40.433  13.370
39840W        W 4048  12.166  11.316  13.377
39841W        W 4049   9.250  34.083   3.161
39842W        W 4050   7.250  33.572   1.807
39843W        W 4051  41.351  23.076  12.053
39844W        W 4052  22.682   7.191   3.658
39845W        W 4053  34.023  41.356  11.443
39846W        W 4054   2.896  40.492   4.192
39847W        W 4055  44.407   2.327  11.373
39848W        W 4056   4.921   8.758   3.722
39849W        W 4057  40.914  41.440   0.349
39850W        W 4058  30.479  24.220  12.876
39851W        W 4059  44.398  20.645   3.368
39852W        W 4060  36.885  24.601  12.858
39853W        W 4061  15.794  38.970  12.463
39854W        W 4062  29.586  38.338  11.583
39855W        W 4063  22.160   3.356  12.409
39856W        W 4064  14.211  34.115   2.300
39857W        W 4065   9.709   0.787   1.902
39858W        W 4066  12.764  37.082  14.387
39859W        W 4067  10.865  35.992  14.440
39860W        W 4068  35.927  21.749   2.318
39861W        W 4069   1.831  31.941   0.869
39862W        W 4070  33.924  11.777  13.412
39863W        W 4071   0.393  44.293  10.945
39864W        W 4072  35.974  10.266   2.817
39865W        W 4073  22.534  35.874  13.326
39866W        W 4074  38.457   2.726   0.450
39867W        W 4075   0.795  39.513  11.975
39868W        W 4076  26.153  32.981   1.333
39869W        W 4077   7.865   2.774  14.292
39870W        W 4078   6.357  27.644  10.458
39871W        W 4079  17.614  17.642   4.812
39872W        W 4080  13.301   0.304  13.035
39873W        W 4081  33.541  32.547  11.121
39874W        W 4082  40.365  44.911   4.123
39875W        W 4083  15.642  17.563   1.285
39876W        W 4084  14.114  40.402   1.396
39877W        W 4085  40.419   8.226   0.826
39878W        W 4086  40.042  37.498  10.528
39879W        W 4087  31.455  36.950   3.742
39880W        W 4088  10.692   8.341  10.473
39881W        W 4089  27.033   3.795   4.254
39882W        W 4090  24.675  25.184   1.737
39883W        W 4091  29.987  27.630   0.856
39884W        W 4092  17.591  15.139  13.394
39885W        W 4093  24.517  31.013  12.896
39886W        W 4094  41.340  16.798  13.047
39887W        W 4095  24.005  16.178  13.051
39888W        W 4096  11.627  17.098  10.479
39889W        W 4097  41.805  29.525  11.986
39890W        W 4098  25.583  21.679   1.863
39891W        W 4099   0.844  42.872   3.755
39892W        W 4100  20.666  11.632   4.769
39893W        W 4101   6.919  30.998  10.887
39894W        W 4102   2.425  11.698   3.842
39895W        W 4103  13.242  26.645   0.454
39896W        W 4104  30.515  27.643   3.305
39897W        W 4105   8.400   2.340  14.796
39898W        W 4106  42.509  16.695  11.018
39899W        W 4107  33.900  13.633   0.836
39900W        W 4108  18.550   0.286  11.970
39901W        W 4109  42.491  18.546  11.079
39902W        W 4110  33.618   2.411  12.352
39903W        W 4111  26.992   3.730   0.952
39904W        W 4112  36.374  12.227   1.346
39905W        W 4113   3.441   0.965  11.061
39906W        W 4114  26.689  10.703  12.830
39907W        W 4115  21.741   7.394   4.664
39908W        W 4116  37.901  39.865   2.300
39909W        W 4117  26.974   7.311   4.157
39910W        W 4118  40.507  36.084  13.345
39911W        W 4119  38.447  25.155   1.860
39912W        W 4120  17.643  35.555   0.782
39913W        W 4121  31.011  26.040   0.964
39914W        W 4122  25.676  41.842  10.404
39915W        W 4123  25.077  22.102  11.442
39916W        W 4124  44.404  24.188   4.295
39917W        W 4125  29.160   9.863   4.807
39918W        W 4126  42.515  14.745  14.935
39919W        W 4127  42.428  16.109  12.961
39920W        W 4128  34.097  40.916  11.609
39921W        W 4129  12.280  19.234   2.819
39922W        W 4130  34.396   7.815  13.329
39923W        W 4131  32.035   2.413  14.029
39924W        W 4132  27.956  10.732   0.406
39925W        W 4133  30.500  43.303  10.445
39926W        W 4134  37.378  14.674  13.949
39927W        W 4135  25.069  36.550  12.012
39928W        W 4136  10.720  16.106   1.744
39929W        W 4137  25.163  44.983  12.921
39930W        W 4138  15.783  13.234   3.700
39931W        W 4139  29.574  37.007   1.434
39932W        W 4140  28.099  42.445  14.977
39933W        W 4141  29.427   8.405   2.742
39934W        W 4142  27.585  12.343   4.170
39935W        W 4143  18.600  42.372  12.456
39936W        W 4144  39.430   0.435   2.285
39937W        W 4145  17.793  28.081  11.514
39938W        W 4146  16.260  11.829   3.367
39939W        W 4147   2.240  44.002  12.491
39940W        W 4148  17.228  12.684  10.501
39941W        W 4149  14.206  41.821   4.664
39942W        W 4150   1.245  26.141  12.020
39943W        W 4151  10.704  26.027  14.914
39944W        W 4152  18.679  14.604  14.326
39945W        W 4153  24.108  34.510   0.430
39946W        W 4154  17.150  31.505  12.850
39947W        W 4155  37.919  37.513  12.880
39948W        W 4156  24.612   0.821   2.802
39949W        W 4157  18.719  20.701   0.470
39950W        W 4158  33.989  10.367  12.894
39951W        W 4159  16.269  43.329   4.737
39952W        W 4160  15.306  36.028  11.921
39953W        W 4161  22.651   2.339  14.304
39954W        W 4162  43.864  33.881   5.132
39955W        W 4163  15.612  17.782   4.807
39956W        W 4164  35.376  22.238   4.667
39957W        W 4165  26.133  26.614  13.526
39958W        W 4166   7.229  27.119  11.006
39959W        W 4167  31.022   1.812   1.415
39960W        W 4168  15.611  39.545  13.311
39961W        W 4169  34.420  26.014  12.017
39962W        W 4170  33.891  20.257   3.333
39963W        W 4171   9.798   0.430   4.616
39964W        W 4172  25.628  28.113  13.999
39965W        W 4173  36.973  32.914  12.943
39966W        W 4174  27.547  11.315   1.766
39967W        W 4175  29.041  24.687  12.360
39968W        W 4176  38.995  36.376   3.771
39969W        W 4177  34.996  12.138  11.038
39970W        W 4178  34.539  17.061   3.249
39971W        W 4179  28.933  33.974   2.847
39972W        W 4180   2.812  17.129   2.830
39973W        W 4181  39.950  31.123   1.823
39974W        W 4182  20.522   1.392   4.748
39975W        W 4183   8.858  31.641   1.334
39976W        W 4184  34.930   2.732   2.840
39977W        W 4185   5.392  22.027  11.988
39978W        W 4186  38.425  40.931   0.471
39979W        W 4187  17.739  12.783   1.419
39980W        W 4188  39.017  31.437  11.460
39981W        W 4189  40.449  41.301  13.889
39982W        W 4190  28.649  34.615  14.937
39983W        W 4191  29.995  25.636  10.905
39984W        W 4192  26.139  28.574   1.381
39985W        W 4193  12.690  44.864   0.749
39986W        W 4194  41.523   1.935  12.540
39987W        W 4195  40.856  12.282  14.914
39988W        W 4196  13.330   9.375   0.442
39989W        W 4197  14.718   9.874  12.404
39990W        W 4198  38.955  24.608  12.479
39991W        W 4199  23.995   0.912  13.539
39992W        W 4200  33.598  23.060  10.491
39993W        W 4201  40.348   5.784   3.664
39994W        W 4202  36.863  35.492  12.520
39995W        W 4203   8.178   9.288  11.994
39996W        W 4204  20.182  40.945  11.568
39997W        W 4205  35.981  16.162   2.262
39998W        W 4206   5.701  37.079  12.524
39999W        W 4207  42.027  34.041   2.709
40000W        W 4208  23.166  25.469   2.738
40001W        W 4209  37.939  12.686   0.789
40002W        W 4210   6.911  30.482   2.693
40003W        W 4211  29.923  36.501  12.856
40004W        W 4212   9.250  29.499  10.599
40005W        W 4213   5.780  28.101   1.902
40006W        W 4214  14.302  40.330  10.901
40007W        W 4215   4.785   7.749   4.251
40008W        W 4216   0.764  10.233  13.062
40009W        W 4217  26.518  33.056  14.032
40010W        W 4218  36.454   9.732  11.611
40011W        W 4219  42.460  36.930   4.253
40012W        W 4220  24.509  10.713  13.411
40013W        W 4221  43.371  27.686  13.481
40014W        W 4222   1.809  40.812  13.929
40015W        W 4223  16.660  27.090   1.877
40016W        W 4224  21.654  35.937  10.919
40017W        W 4225  39.380   5.395  12.054
40018W        W 4226  30.027  36.528  11.551
40019W        W 4227   9.667  12.318   4.342
40020W        W 4228  36.395  14.319   9.942
40021W        W 4229   4.313  29.084  13.422
40022W        W 4230   1.382  43.430  14.455
40023W        W 4231   7.807  18.545   1.240
40024W        W 4232  23.145  10.728   2.802
40025W        W 4233  27.982  38.852  13.896
40026W        W 4234  32.470  40.828  12.842
40027W        W 4235  33.395  40.340  10.470
40028W        W 4236  33.386   7.321  12.392
40029W        W 4237  20.527   1.295   1.797
40030W        W 4238   2.766  44.260   2.184
40031W        W 4239  29.631  42.985   4.621
40032W        W 4240  24.055  32.478  12.410
40033W        W 4241  19.257  42.499  10.640
40034W        W 4242  37.923  37.418  14.910
40035W        W 4243  38.558  23.670   3.192
40036W        W 4244   1.346  26.954  11.068
40037W        W 4245  25.206  43.336   3.667
40038W        W 4246  37.509   7.248   1.250
40039W        W 4247  20.255   9.686  13.047
40040W        W 4248  37.560   3.712  11.526
40041W        W 4249   5.861   2.939   3.234
40042W        W 4250   2.834  16.571  13.502
40043W        W 4251  33.433  12.275   3.219
40044W        W 4252  21.619  12.184   4.157
40045W        W 4253  20.535  44.948   0.964
40046W        W 4254  14.741   8.221   2.236
40047W        W 4255  40.898  26.128  10.596
40048W        W 4256  10.324  42.922  14.916
40049W        W 4257   3.231  11.785   3.183
40050W        W 4258  14.242  44.466   0.917
40051W        W 4259  34.438  14.612  12.016
40052W        W 4260   8.324   6.247  13.431
40053W        W 4261  44.822  43.777  10.592
40054W        W 4262  35.370   2.835   4.723
40055W        W 4263  43.375  24.066   1.867
40056W        W 4264  34.475  34.052  11.498
40057W        W 4265  26.124  29.569  12.486
40058W        W 4266  44.456  25.140   1.447
40059W        W 4267  20.238  35.052  11.604
40060W        W 4268  44.432   4.284   1.308
40061W        W 4269   5.800  13.192   4.690
40062W        W 4270  26.110  16.266  11.935
40063W        W 4271  20.651  29.938  10.513
40064W        W 4272  27.573  11.136  11.388
40065W        W 4273  15.639  10.259  12.417
40066W        W 4274   1.899  43.432   3.658
40067W        W 4275   4.782   2.836   2.883
40068W        W 4276  37.360   2.392   0.391
40069W        W 4277   7.412  32.405  14.883
40070W        W 4278  31.567  28.578  13.811
40071W        W 4279  14.744  34.373  10.113
40072W        W 4280  25.967   7.279  10.457
40073W        W 4281  30.573  43.848   1.346
40074W        W 4282  12.761  32.514   1.780
40075W        W 4283  10.810  33.966  13.372
40076W        W 4284   3.285  38.543  11.587
40077W        W 4285  41.451   6.844   1.261
40078W        W 4286  20.559  34.873   1.901
40079W        W 4287  42.431  30.057  11.532
40080W        W 4288  30.638  30.471   2.351
40081W        W 4289  29.442  14.099   3.752
40082W        W 4290  33.880  34.376   1.851
40083W        W 4291  39.061   8.810  13.373
40084W        W 4292  31.092  38.891   2.856
40085W        W 4293  20.571   6.761  10.492
40086W        W 4294  31.906   9.383  11.384
40087W        W 4295  35.993  39.028  14.938
40088W        W 4296  33.022  20.224   4.318
40089W        W 4297  38.952  15.725  11.857
40090W        W 4298  18.081  19.728   2.386
40091W        W 4299   0.743  33.486  12.566
40092W        W 4300  19.570  33.598  12.459
40093W        W 4301   6.312  11.651  12.568
40094W        W 4302   6.197  19.147  11.095
40095W        W 4303  28.440  20.563   2.366
40096W        W 4304  23.595  18.250   9.963
40097W        W 4305  28.565  41.424   3.844
40098W        W 4306  42.793  35.926   2.809
40099W        W 4307  25.081  17.182   1.705
40100W        W 4308   4.760  13.734  11.916
40101W        W 4309  31.487   5.249  14.912
40102W        W 4310   6.749   2.840   1.279
40103W        W 4311   5.332  29.602   0.785
40104W        W 4312   8.778  38.006  11.391
40105W        W 4313   8.257  26.469   4.144
40106W        W 4314  13.600  42.974   0.301
40107W        W 4315  15.298  26.008   2.795
40108W        W 4316   5.917  16.633   2.829
40109W        W 4317  29.985  44.795   2.204
40110W        W 4318  25.012  36.936  14.922
40111W        W 4319  31.579  26.039  14.770
40112W        W 4320   5.831   2.362   3.266
40113W        W 4321  22.608  33.490  14.801
40114W        W 4322  29.161   1.297  13.890
40115W        W 4323  40.538   4.255   0.289
40116W        W 4324  44.877  40.031  14.504
40117W        W 4325  35.999   4.239   2.840
40118W        W 4326   3.918  17.183  11.609
40119W        W 4327   7.257   3.272  13.977
40120W        W 4328  44.278  33.562  10.469
40121W        W 4329  38.412  17.783  14.952
40122W        W 4330  33.524  17.177   1.372
40123W        W 4331  32.098   2.309  13.342
40124W        W 4332  11.313  30.100  14.833
40125W        W 4333  25.051   6.870  13.998
40126W        W 4334  10.792  44.814  14.279
40127W        W 4335  41.920  24.135   1.735
40128W        W 4336  14.148  17.706   1.359
40129W        W 4337   9.822   2.320  10.419
40130W        W 4338   5.406   0.365  12.514
40131W        W 4339   4.715   5.296  13.465
40132W        W 4340  25.002  30.165   3.817
40133W        W 4341  28.061   7.171   5.171
40134W        W 4342  25.572  14.234   9.929
40135W        W 4343  42.974  40.381  11.519
40136W        W 4344  30.118  35.942  13.023
40137W        W 4345   9.864   9.830   2.738
40138W        W 4346  40.340  33.917   2.893
40139W        W 4347   6.366  24.050  10.045
40140W        W 4348   7.860  25.677   2.381
40141W        W 4349  16.659  39.047   0.245
40142W        W 4350  36.390  33.394  13.840
40143W        W 4351  34.997  29.635  12.848
40144W        W 4352  17.254   4.241   3.652
40145W        W 4353   7.175  14.814   2.785
40146W        W 4354  23.594  42.896  10.628
40147W        W 4355  16.607  30.023   0.346
40148W        W 4356  40.498  36.361  14.910
40149W        W 4357  19.583  14.261   2.319
40150W        W 4358  19.051  10.269  14.408
40151W        W 4359   3.304  37.917   3.159
40152W        W 4360  10.374   8.800  13.977
40153W        W 4361  32.631  34.971  13.027
40154W        W 4362  18.296  39.988   5.115
40155W        W 4363  36.002  25.626   1.846
40156W        W 4364  32.032  13.223   3.775
40157W        W 4365  39.355   2.896   3.779
40158W        W 4366  35.065  38.517  14.305
40159W        W 4367   6.782  18.747   4.177
40160W        W 4368  44.312   4.269  14.964
40161W        W 4369  22.737  42.788   3.379
40162W        W 4370  43.877  30.554  13.790
40163W        W 4371  30.013  33.525   4.122
40164W        W 4372   1.385  14.293  12.065
40165W        W 4373  41.920   7.892  14.833
40166W        W 4374  37.066  40.958  12.537
40167W        W 4375  25.078   7.818   3.195
40168W        W 4376  20.656  18.708  12.529
40169W        W 4377  38.868  24.197  10.551
40170W        W 4378  18.078  23.698  14.957
40171W        W 4379  14.824  37.838  14.507
40172W        W 4380  16.768  42.369   2.269
40173W        W 4381  13.244   5.885  14.850
40174W        W 4382   9.674  37.003   0.825
40175W        W 4383   2.957   1.352   5.311
40176W        W 4384   6.347  14.137   2.833
40177W        W 4385   4.330  12.807   0.782
40178W        W 4386  17.209  16.660  10.460
40179W        W 4387  40.000  38.071   0.384
40180W        W 4388  21.131   6.762  14.774
40181W        W 4389   0.921  25.107   4.208
40182W        W 4390  41.970  29.479   0.948
40183W        W 4391  24.164  28.100  11.582
40184W        W 4392   7.710   8.820  12.539
40185W        W 4393  34.066   5.439   0.430
40186W        W 4394  37.936  11.760  12.465
40187W        W 4395  21.112   3.278   3.839
40188W        W 4396  44.941  23.148   3.347
40189W        W 4397  18.114  20.543   0.297
40190W        W 4398  34.454  44.893   2.790
40191W        W 4399   6.231  41.453   4.606
40192W        W 4400   2.236   5.825  12.069
40193W        W 4401  29.543  21.157   0.458
40194W        W 4402   1.290  20.045   0.351
40195W        W 4403  40.856  42.322   0.371
40196W        W 4404  22.065   9.182   1.436
40197W        W 4405  18.765  13.808  11.083
40198W        W 4406  17.216  24.106  14.974
40199W        W 4407   2.465  32.001   2.290
40200W        W 4408  17.801  29.516  14.887
40201W        W 4409  22.681  25.045   1.842
40202W        W 4410   3.401  19.056  14.976
40203W        W 4411  44.957  10.836  12.958
40204W        W 4412  14.270   3.215   4.751
40205W        W 4413   6.838  37.890  13.486
40206W        W 4414  39.030  36.514   1.296
40207W        W 4415  13.733  11.851  13.035
40208W        W 4416   3.721   8.666   3.358
40209W        W 4417   0.913  32.978  14.307
40210W        W 4418  18.127  18.598  11.994
40211W        W 4419  17.597  20.148   2.292
40212W        W 4420  30.986  31.065   2.397
40213W        W 4421  15.591  37.904  10.938
40214W        W 4422  17.698   9.759   1.347
40215W        W 4423   3.800  35.578  13.004
40216W        W 4424  10.748   1.425   3.672
40217W        W 4425   5.842  16.127  12.041
40218W        W 4426  30.973   4.877   2.261
40219W        W 4427  28.023  31.108   3.200
40220W        W 4428  42.952  22.233   1.932
40221W        W 4429  21.074   8.224   3.716
40222W        W 4430   5.874  33.917   4.342
40223W        W 4431  15.782  43.370   3.629
40224W        W 4432   7.247  30.003  12.038
40225W        W 4433  15.705   3.725   3.830
40226W        W 4434  34.385  23.110  14.767
40227W        W 4435   5.320  19.705   1.838
40228W        W 4436  27.583  37.499  10.904
40229W        W 4437   9.163  40.537  12.845
40230W        W 4438   3.304  18.638  14.022
40231W        W 4439  27.535  37.400  12.093
40232W        W 4440  31.640  43.490   0.265
40233W        W 4441  31.512  13.635  14.885
40234W        W 4442  33.892  44.450   3.710
40235W        W 4443  10.294  11.744   1.773
40236W        W 4444  27.166  34.008  10.469
40237W        W 4445  14.278   4.702  14.366
40238W        W 4446  25.211  29.444  14.376
40239W        W 4447  35.091  35.977   4.805
40240W        W 4448   0.301  40.840  12.504
40241W        W 4449  19.188  26.185  11.079
40242W        W 4450   9.716  35.902  12.969
40243W        W 4451   3.854  35.054  14.478
40244W        W 4452  14.189   5.891   2.826
40245W        W 4453  12.704  11.347   3.813
40246W        W 4454  15.178  14.278  14.507
40247W        W 4455  28.435  21.092  14.311
40248W        W 4456   1.952  40.370   0.833
40249W        W 4457  35.943  42.410   1.254
40250W        W 4458  17.563  10.276   0.779
40251W        W 4459  31.132  42.354  13.004
40252W        W 4460   6.325  26.151   0.847
40253W        W 4461  35.368  15.736   0.329
40254W        W 4462  39.515  14.792   2.277
40255W        W 4463   0.446  38.065  12.546
40256W        W 4464  15.313  15.201  14.319
40257W        W 4465  18.665   9.878  13.376
40258W        W 4466  40.457   6.707  11.888
40259W        W 4467  31.517   6.320   1.372
40260W        W 4468  12.631  39.337   1.754
40261W        W 4469  21.035   3.872  12.088
40262W        W 4470  23.680   2.296  12.421
40263W        W 4471   7.837   9.856  13.352
40264W        W 4472   8.797   6.697  12.010
40265W        W 4473  13.813  33.566  10.898
40266W        W 4474  27.547  27.099   3.335
40267W        W 4475  20.555  43.512   3.177
40268W        W 4476   0.913   4.940   0.352
40269W        W 4477   4.235   8.391  12.057
40270W        W 4478  31.552  23.186  12.982
40271W        W 4479  40.816  16.116  11.073
40272W        W 4480  15.088  17.189   4.131
40273W        W 4481  26.669  19.698   1.893
40274W        W 4482  19.776  38.057  13.400
40275W        W 4483  27.164  35.383   0.408
40276W        W 4484  41.519  37.881  13.060
40277W        W 4485  35.460  25.014   0.285
40278W        W 4486  44.785  23.512  12.465
40279W        W 4487   5.422  27.120   2.324
40280W        W 4488   8.674  39.452  14.908
40281W        W 4489   8.805  11.146  14.786
40282W        W 4490  33.625  40.523  11.023
40283W        W 4491   2.951   2.381  13.049
40284W        W 4492  14.653  37.955   2.390
40285W        W 4493  34.447   0.286   0.907
40286W        W 4494  26.461  11.769   1.826
40287W        W 4495  13.316  35.012  11.517
40288W        W 4496  19.696  40.514   2.871
40289W        W 4497  23.080  12.154   4.261
40290W        W 4498   4.761  36.874  13.038
40291W        W 4499  20.718  24.653  12.370
40292W        W 4500  16.140  18.626  14.889
40293W        W 4501  30.918  11.843  14.974
40294W        W 4502  12.693  40.529  12.080
40295W        W 4503  18.244   0.397  14.969
40296W        W 4504  25.672   7.324   4.700
40297W        W 4505   0.470  38.451   4.293
40298W        W 4506  10.235  35.059   3.674
40299W        W 4507  14.246  37.386  11.532
40300W        W 4508   1.807   1.791   1.701
40301W        W 4509   1.448  12.327   4.674
40302W        W 4510  42.372   2.462   1.407
40303W        W 4511  13.638  35.449   3.226
40304W        W 4512  17.306   8.164  13.450
40305W        W 4513   4.376  27.511  13.526
40306W        W 4514  43.487  15.264   3.808
40307W        W 4515  21.605  10.262   3.781
40308W        W 4516   3.719  15.754  11.566
40309W        W 4517   8.251  33.126  13.390
40310W        W 4518  19.700  16.718   0.428
40311W        W 4519   0.431  13.180  12.940
40312W        W 4520  42.817  19.279   1.876
40313W        W 4521  39.518  44.988  11.404
40314W        W 4522   7.746  24.678   0.951
40315W        W 4523  24.229  10.162  11.450
40316W        W 4524  29.655  26.490  14.878
40317W        W 4525  18.124  43.281  14.836
40318W        W 4526   4.766   9.887   0.945
40319W        W 4527  10.200  10.167   2.804
40320W        W 4528  34.951  30.072   4.730
40321W        W 4529  42.487   0.295  11.006
40322W        W 4530  15.307  43.012  14.478
40323W        W 4531  42.431   7.332  14.855
40324W        W 4532  30.547   9.255   3.176
40325W        W 4533  36.929  40.015  13.484
40326W        W 4534  31.634  30.060  12.393
40327W        W 4535   8.709  25.696  10.959
40328W        W 4536  13.264  42.310   4.661
40329W        W 4537  18.586  27.573   2.384
40330W        W 4538   8.856  12.753   2.238
40331W        W 4539  41.423  29.569   2.315
40332W        W 4540  29.551  31.963   5.230
40333W        W 4541  37.001  16.576   0.252
40334W        W 4542  22.225  40.909  14.465
40335W        W 4543  24.686  16.598   3.310
40336W        W 4544   9.770  22.625   3.187
40337W        W 4545  23.588  33.607  11.479
40338W        W 4546   3.438  20.557   3.227
40339W        W 4547  17.165  26.568   3.266
40340W        W 4548  33.461  12.269   0.819
40341W        W 4549  28.520  34.472  14.019
40342W        W 4550  29.070  39.926   3.366
40343W        W 4551  33.066  24.716  13.028
40344W        W 4552  44.986  23.202  10.523
40345W        W 4553  33.585  18.774  11.045
40346W        W 4554  36.906  18.690  11.545
40347W        W 4555  33.943  17.245   2.226
40348W        W 4556  25.684  22.572   4.276
40349W        W 4557   4.295   3.791   3.674
40350W        W 4558   7.328  44.361   0.851
40351W        W 4559   7.704  11.746  10.582
40352W        W 4560  31.540   6.721  10.986
40353W        W 4561  41.386  11.361  12.493
40354W        W 4562  19.187  22.241   1.805
40355W        W 4563  32.633  41.536  12.002
40356W        W 4564  23.128  44.315  14.296
40357W        W 4565  17.735   7.265  13.935
40358W        W 4566   4.233   0.387   1.334
40359W        W 4567   6.848  39.494  11.437
40360W        W 4568  18.126  20.139  12.411
40361W        W 4569  39.903  43.995   1.419
40362W        W 4570  27.019  24.084   4.242
40363W        W 4571   2.747  11.371   4.757
40364W        W 4572  10.800  12.296  10.994
40365W        W 4573   3.907  31.064  14.831
40366W        W 4574  17.234  25.015  13.491
40367W        W 4575  36.928  27.505   3.209
40368W        W 4576  37.838  25.491  10.557
40369W        W 4577  41.482   8.172   3.285
40370W        W 4578  20.265  41.043   3.244
40371W        W 4579  15.108   2.837  11.442
40372W        W 4580  25.620   2.322   4.321
40373W        W 4581   2.802  44.912   2.688
40374W        W 4582  22.607  29.921  14.890
40375W        W 4583  19.719  31.446   1.784
40376W        W 4584  17.194   2.320   0.355
40377W        W 4585  20.173  12.236  13.451
40378W        W 4586  33.457  29.613   1.742
40379W        W 4587   9.769  44.446  11.602
40380W        W 4588  38.067   2.918   9.500
40381W        W 4589  39.505  37.342   3.181
40382W        W 4590   3.460  44.305   5.097
40383W        W 4591  41.311  15.109   0.957
40384W        W 4592   5.688   3.349  12.988
40385W        W 4593  23.677   0.916   1.808
40386W        W 4594   7.777  33.935   3.269
40387W        W 4595   3.249  10.363   3.815
40388W        W 4596  17.249  26.102  12.928
40389W        W 4597   9.212  36.010  11.541
40390W        W 4598   7.789  13.236   2.418
40391W        W 4599  43.783  27.122   2.730
40392W        W 4600  25.572  31.944  14.468
40393W        W 4601  13.110  36.079  12.967
40394W        W 4602  35.007  29.428   4.818
40395W        W 4603  15.779  15.307   4.598
40396W        W 4604   4.340  30.573   4.169
40397W        W 4605  14.208  30.588  10.558
40398W        W 4606  12.148  12.796   9.988
40399W        W 4607  17.101  14.830   2.749
40400W        W 4608  30.004   5.906   0.822
40401W        W 4609  16.092  25.082   5.310
40402W        W 4610  18.591  29.538   3.683
40403W        W 4611   2.836  30.096  12.028
40404W        W 4612   2.422  23.159  11.612
40405W        W 4613   7.688  25.649   4.268
40406W        W 4614  13.140  28.078  12.352
40407W        W 4615  24.070   5.709  10.457
40408W        W 4616   6.317   2.298  13.849
40409W        W 4617  18.066  13.812  12.874
40410W        W 4618  37.971  12.662   2.786
40411W        W 4619  14.619   0.447  14.358
40412W        W 4620  37.425  29.078  10.152
40413W        W 4621  23.520  13.775  12.040
40414W        W 4622  12.666  12.667   0.799
40415W        W 4623  13.749  36.844   2.182
40416W        W 4624  14.208   0.364   2.299
40417W        W 4625   7.859  32.087  14.976
40418W        W 4626  17.270  28.657  12.914
40419W        W 4627  12.785  23.492   3.343
40420W        W 4628  19.587  17.799  13.014
40421W        W 4629  39.900   5.810   0.739
40422W        W 4630  22.718  30.495  14.960
40423W        W 4631   5.797  18.143  14.970
40424W        W 4632  17.619  20.662   1.413
40425W        W 4633  23.617  34.020  10.467
40426W        W 4634  20.751  44.400  13.385
40427W        W 4635  38.034   9.709  14.405
40428W        W 4636   1.878  31.616  10.966
40429W        W 4637  40.528   3.217   3.379
40430W        W 4638  36.962  19.218   3.721
40431W        W 4639  23.521  13.110  12.475
40432W        W 4640   6.200  33.952   3.660
40433W        W 4641  34.604  11.747   1.342
40434W        W 4642  40.053  30.941   2.310
40435W        W 4643  10.805  23.716  12.919
40436W        W 4644  25.974  41.897  11.864
40437W        W 4645  25.096  22.695  10.896
40438W        W 4646   9.205   5.845  13.887
40439W        W 4647  18.625  25.653  14.476
40440W        W 4648  12.338  33.458   0.878
40441W        W 4649   9.741  43.403   2.262
40442W        W 4650  14.187  34.558  13.339
40443W        W 4651  26.622  10.824  11.419
40444W        W 4652  42.978   6.852   2.847
40445W        W 4653   1.863  19.279   2.764
40446W        W 4654  27.058  22.058  14.488
40447W        W 4655  24.064   8.832  12.559
40448W        W 4656  21.559  12.669   3.183
40449W        W 4657   7.851  26.991   0.351
40450W        W 4658  40.549  13.204  13.505
40451W        W 4659  15.263   9.381   4.756
40452W        W 4660  17.669  43.013  14.439
40453W        W 4661  39.961  15.705   5.151
40454W        W 4662  14.603  24.705  13.053
40455W        W 4663  42.022  37.365   3.798
40456W        W 4664  21.700   9.285  10.597
40457W        W 4665  18.708   5.248  13.372
40458W        W 4666  30.126  19.183   0.778
40459W        W 4667  33.397  11.660   4.791
40460W        W 4668  16.285   7.871  11.447
40461W        W 4669  30.944  12.789   4.616
40462W        W 4670   2.781  30.620  14.332
40463W        W 4671  10.743   1.839   4.799
40464W        W 4672  22.197  34.003  14.386
40465W        W 4673  17.747  33.606  14.516
40466W        W 4674  25.571  11.333   2.692
40467W        W 4675  33.405   4.356   4.814
40468W        W 4676  33.914  13.283  13.437
40469W        W 4677  30.485  30.472  14.825
40470W        W 4678   2.290  33.883   4.651
40471W        W 4679  42.811  25.623  10.945
40472W        W 4680  30.567  11.264   0.765
40473W        W 4681  15.787  36.481  13.383
40474W        W 4682  25.680  32.039   9.998
40475W        W 4683  16.593   1.973   2.219
40476W        W 4684   3.247  26.955  12.417
40477W        W 4685  24.612  12.303   3.384
40478W        W 4686  40.799  25.664   2.691
40479W        W 4687  26.176   6.696  12.484
40480W        W 4688  12.301  20.714   0.912
40481W        W 4689  42.830  20.574  12.431
40482W        W 4690  13.274  37.411   2.392
40483W        W 4691  24.176   0.836  12.958
40484W        W 4692  10.359  25.109  11.892
40485W        W 4693  14.222   7.298  11.401
40486W        W 4694   9.218  18.623   2.189
40487W        W 4695  32.545  15.227   3.854
40488W        W 4696   6.424  40.492  11.405
40489W        W 4697   2.782  13.136   3.184
40490W        W 4698   2.866  16.265  11.589
40491W        W 4699  32.973   6.281   3.818
40492W        W 4700   0.838  33.021   2.198
40493W        W 4701  33.112  22.514  10.407
40494W        W 4702  34.409  40.478   2.279
40495W        W 4703  43.323  17.625   3.251
40496W        W 4704   8.230  17.192   4.232
40497W        W 4705  26.190  14.303   1.241
40498W        W 4706   8.876  28.491   3.285
40499W        W 4707  42.899  39.403  11.012
40500W        W 4708  27.127  33.569   3.185
40501W        W 4709   5.828  27.511   0.469
40502W        W 4710  36.472  21.235  14.978
40503W        W 4711  34.095   3.360  11.457
40504W        W 4712  40.925  10.779  14.860
40505W        W 4713  31.450  17.137  12.488
40506W        W 4714   0.270   8.391   2.850
40507W        W 4715  24.568  38.516   1.774
40508W        W 4716  15.771  24.078   2.396
40509W        W 4717  21.263  27.673   1.717
40510W        W 4718  24.664  31.459  12.035
40511W        W 4719  30.115  14.220   5.800
40512W        W 4720  11.162  15.819  13.322
40513W        W 4721  14.683  39.828  11.553
40514W        W 4722  17.560  12.127  12.063
40515W        W 4723  43.467  39.541   4.636
40516W        W 4724  43.411  17.177   0.791
40517W        W 4725  39.517  44.868   0.936
40518W        W 4726  27.950  38.334   1.391
40519W        W 4727  27.046  15.737  12.888
40520W        W 4728  40.028  26.606   4.670
40521W        W 4729  20.676  27.148  12.397
40522W        W 4730   3.917  28.179   1.256
40523W        W 4731  17.671  18.575  11.996
40524W        W 4732  15.744   7.721   1.391
40525W        W 4733  12.165  23.098   0.804
40526W        W 4734  18.160  39.380  14.449
40527W        W 4735  11.664  37.050   1.225
40528W        W 4736   2.926  20.753  12.431
40529W        W 4737  23.686   6.321   4.624
40530W        W 4738  39.507  32.492  11.074
40531W        W 4739  30.932   5.209  12.387
40532W        W 4740  39.537  29.155  11.881
40533W        W 4741  43.933   3.244   0.794
40534W        W 4742   7.739  24.149  13.453
40535W        W 4743  14.764  34.914  13.419
40536W        W 4744  34.074  10.350  11.101
40537W        W 4745  13.284  34.448  10.439
40538W        W 4746   4.699  14.787  10.601
40539W        W 4747  28.448  29.105   0.750
40540W        W 4748  28.085  41.395  11.586
40541W        W 4749   6.866  24.514  12.349
40542W        W 4750  36.433  37.367  13.480
40543W        W 4751  13.719  39.947  10.446
40544W        W 4752   4.246  20.679   3.642
40545W        W 4753  10.645  14.721   4.617
40546W        W 4754  22.188   5.286  14.031
40547W        W 4755  29.054  31.902  12.369
40548W        W 4756   5.309  42.876   3.180
40549W        W 4757  16.107  39.383   2.237
40550W        W 4758  36.879  31.530   0.459
40551W        W 4759   5.300  30.437   3.683
40552W        W 4760  23.021  17.080   0.404
40553W        W 4761  29.931   4.860   0.296
40554W        W 4762   1.270  11.145   0.438
40555W        W 4763  22.545   2.299   3.271
40556W        W 4764  17.636  37.998  12.992
40557W        W 4765  24.033   7.816  11.857
40558W        W 4766  41.818  20.261  10.512
40559W        W 4767  24.180   8.709   4.151
40560W        W 4768  13.685   2.447   3.298
40561W        W 4769  36.019   1.326   3.678
40562W        W 4770  24.066   5.706  13.319
40563W        W 4771  25.988  21.544  11.864
40564W        W 4772   2.282   3.398   5.257
40565W        W 4773   6.723  36.026  12.855
40566W        W 4774   9.847  15.194   2.859
40567W        W 4775  31.153  25.700   2.842
40568W        W 4776  31.007  31.510   4.303
40569W        W 4777  22.227   6.738   3.350
40570W        W 4778  43.939  37.021   5.306
40571W        W 4779  27.031  22.161  13.953
40572W        W 4780  29.503  40.439  13.920
40573W        W 4781  39.037   0.950   1.890
40574W        W 4782  30.592  16.698   2.237
40575W        W 4783  38.068  27.477   1.711
40576W        W 4784  37.056  30.552  14.355
40577W        W 4785  43.414  33.482  13.504
40578W        W 4786  18.600  28.456  10.624
40579W        W 4787   0.330  15.285  14.843
40580W        W 4788   0.303  32.080  14.957
40581W        W 4789  17.795  26.537   1.892
40582W        W 4790  33.617  31.964  14.899
40583W        W 4791  33.954  12.716  14.284
40584W        W 4792   5.925  43.333  12.054
40585W        W 4793  20.527  10.760  13.538
40586W        W 4794  14.222  30.937   0.400
40587W        W 4795  19.579   7.879  12.977
40588W        W 4796  19.250   0.805   1.391
40589W        W 4797  30.040  26.508  11.933
40590W        W 4798  19.153  24.137   3.671
40591W        W 4799  13.651   2.322   4.656
40592W        W 4800  39.386  23.229   2.700
40593W        W 4801  20.616   6.852   0.393
40594W        W 4802  10.339  28.955  13.408
40595W        W 4803  10.255  39.031  14.391
40596W        W 4804  12.616   6.215   3.736
40597W        W 4805  24.641  17.723   0.357
40598W        W 4806   0.877   3.355   2.187
40599W        W 4807  24.142  22.042   1.306
40600W        W 4808   2.385  35.375   2.755
40601W        W 4809  35.024  39.942  11.947
40602W        W 4810  39.413   0.893   0.836
40603W        W 4811   4.303  40.963   0.365
40604W        W 4812  30.071   5.245  14.408
40605W        W 4813  30.041  23.502   1.388
40606W        W 4814  29.661  42.415  14.357
40607W        W 4815  35.576  36.986  12.578
40608W        W 4816  36.067   3.271   1.822
40609W        W 4817  27.119  12.773   4.760
40610W        W 4818   2.373  31.502   3.170
40611W        W 4819   3.744  38.463  12.454
40612W        W 4820  36.090  14.732  13.974
40613W        W 4821  40.362   8.806  10.998
40614W        W 4822  18.191  25.081   4.334
40615W        W 4823  36.966  41.360   2.300
40616W        W 4824   5.379  20.654  11.924
40617W        W 4825  36.852   0.373  14.959
40618W        W 4826  42.360  12.686  11.538
40619W        W 4827  33.507  17.630   1.891
40620W        W 4828   4.234  15.610  13.455
40621W        W 4829   0.403  16.584   0.776
40622W        W 4830  33.992  40.455   4.746
40623W        W 4831  25.517  35.365   4.128
40624W        W 4832  28.047   6.721  13.879
40625W        W 4833  30.573  19.262  13.312
40626W        W 4834   4.851  24.033   5.147
40627W        W 4835  25.108  20.533   2.782
40628W        W 4836  27.553  41.043  10.597
40629W        W 4837   7.680   6.887  13.400
40630W        W 4838   7.746   5.815   9.929
40631W        W 4839  28.480  28.085   1.368
40632W        W 4840  31.030  17.098  11.935
40633W        W 4841  32.114   1.973   3.204
40634W        W 4842  23.732  28.657   2.828
40635W        W 4843  14.733  34.935   5.193
40636W        W 4844  25.018   7.174   2.786
40637W        W 4845   9.222  11.288   3.783
40638W        W 4846   8.674   7.273  14.966
40639W        W 4847  27.630  40.333   2.279
40640W        W 4848  13.754  40.394   4.150
40641W        W 4849  11.825   7.674   1.746
40642W        W 4850  35.044  11.212  11.863
40643W        W 4851  44.835  23.721   1.935
40644W        W 4852  29.173   7.219   3.855
40645W        W 4853  11.283  30.962   2.869
40646W        W 4854  28.955  26.952   4.145
40647W        W 4855  40.325  35.506   3.188
40648W        W 4856  27.446  15.603   3.347
40649W        W 4857  17.662  24.666  14.409
40650W        W 4858   1.826  20.088  14.847
40651W        W 4859  27.170  42.312  11.892
40652W        W 4860  43.948  42.919  12.065
40653W        W 4861  14.160  27.687   0.959
40654W        W 4862  14.670  27.645  12.419
40655W        W 4863  34.460  34.383   1.321
40656W        W 4864   7.393   3.435   1.219
40657W        W 4865  36.097  28.482  11.372
40658W        W 4866  25.664  15.741  10.095
40659W        W 4867  43.385  34.543  10.141
40660W        W 4868  41.988  15.603   5.098
40661W        W 4869  22.652   5.832   4.132
40662W        W 4870  31.582  21.646   0.411
40663W        W 4871  37.905  16.124  13.518
40664W        W 4872  12.805   2.293  12.445
40665W        W 4873  37.993  14.142  12.083
40666W        W 4874  35.016   7.271   4.224
40667W        W 4875  38.431  28.933  14.016
40668W        W 4876  19.536  32.538  13.535
40669W        W 4877  39.388  34.068   2.811
40670W        W 4878  14.801  10.333   1.789
40671W        W 4879  30.946  32.490  12.913
40672W        W 4880  22.029  18.055  12.988
40673W        W 4881  36.883  35.034   4.319
40674W        W 4882  20.551  19.754  14.486
40675W        W 4883  41.036  25.080  12.377
40676W        W 4884  19.775  35.891  13.923
40677W        W 4885   8.807  32.011  11.857
40678W        W 4886  11.840  20.074  13.374
40679W        W 4887  13.687  17.651   1.834
40680W        W 4888   2.392  11.863   3.303
40681W        W 4889  21.192  44.500  14.491
40682W        W 4890  35.586  15.236   4.303
40683W        W 4891   3.807  23.075   1.831
40684W        W 4892  13.666  14.279   3.710
40685W        W 4893   9.849   8.220  12.541
40686W        W 4894  10.248  30.959  10.992
40687W        W 4895  26.581  21.046   5.208
40688W        W 4896  39.920  23.718   2.292
40689W        W 4897  10.260   2.375  11.416
40690W        W 4898  24.005  39.982  14.030
40691W        W 4899  28.447  35.968   3.734
40692W        W 4900  31.442  23.579  12.854
40693W        W 4901  40.372   4.870   0.462
40694W        W 4902   9.737  15.727  12.008
40695W        W 4903  11.158  32.567  11.879
40696W        W 4904  35.020  35.444  14.847
40697W        W 4905  38.951  32.936  10.062
40698W        W 4906  43.404  31.475   0.881
40699W        W 4907  12.620  42.969   1.831
40700W        W 4908   9.323  40.970   0.766
40701W        W 4909  15.178   7.220  14.855
40702W        W 4910   0.312  30.077  14.985
40703W        W 4911  20.153  38.941   0.330
40704W        W 4912  13.209  35.381   0.335
40705W        W 4913  22.530  35.369  11.106
40706W        W 4914   1.791  13.676   2.257
40707W        W 4915  31.943  16.282   0.375
40708W        W 4916   2.828   3.298   0.768
40709W        W 4917  10.373  25.120  10.144
40710W        W 4918   6.360  31.116  11.958
40711W        W 4919   6.405  10.859   4.747
40712W        W 4920   4.822  11.791   3.155
40713W        W 4921  42.980   0.411   2.329
40714W        W 4922   6.804  16.726  14.385
40715W        W 4923  30.592  25.165   1.935
40716W        W 4924  10.146  31.084   4.600
40717W        W 4925  24.710   2.353   3.350
40718W        W 4926  36.498  33.383   1.921
40719W        W 4927   8.747  29.095  11.597
40720W        W 4928  21.670  25.711   0.793
40721W        W 4929  12.204  37.044   0.889
40722W        W 4930  13.652   7.840   3.156
40723W        W 4931  33.917  43.353  10.544
40724W        W 4932  12.249  20.167   4.679
40725W        W 4933  36.020   1.409  13.960
40726W        W 4934  17.250  12.295   0.281
40727W        W 4935  14.235  33.936  10.490
40728W        W 4936  26.027  20.034   1.695
40729W        W 4937  20.621  33.102   1.880
40730W        W 4938  43.842  43.323  11.441
40731W        W 4939  29.013  19.227   1.351
40732W        W 4940  21.554  11.782   2.786
40733W        W 4941  30.074  34.531   4.743
40734W        W 4942  26.471  27.542   0.369
40735W        W 4943  28.075  39.030   1.392
40736W        W 4944  22.048  29.078  13.323
40737W        W 4945  15.308  21.195   1.825
40738W        W 4946   2.454  14.306  13.403
40739W        W 4947  31.134  38.438   0.910
40740W        W 4948  31.414  37.580   1.888
40741W        W 4949  35.535  15.275  14.805
40742W        W 4950  23.541  38.841  14.383
40743W        W 4951  25.701  41.483  12.889
40744W        W 4952   7.903  32.000   3.354
40745W        W 4953  44.295  18.086   3.381
40746W        W 4954  24.481  29.947   1.277
40747W        W 4955  40.930  17.158   3.322
40748W        W 4956  44.393  21.088   2.800
40749W        W 4957  14.708  35.514   4.833
40750W        W 4958  27.196  38.539  10.969
40751W        W 4959  35.594  15.092  14.332
40752W        W 4960  21.217  15.216   0.454
40753W        W 4961  23.015  30.989  10.581
40754W        W 4962  39.424  44.409  13.058
40755W        W 4963  35.891  17.174  10.975
40756W        W 4964  20.219   2.324  10.495
40757W        W 4965  24.662  15.103   3.777
40758W        W 4966  28.485  32.950  10.635
40759W        W 4967  41.426   6.236   1.928
40760W        W 4968  30.481  34.946   4.299
40761W        W 4969   6.298  21.618  11.998
40762W        W 4970  43.513   4.444   1.889
40763W        W 4971   4.439  28.437   1.889
40764W        W 4972  21.524  31.940  10.097
40765W        W 4973  33.897  14.800   4.291
40766W        W 4974  22.085   6.346  10.432
40767W        W 4975  11.697  10.746  10.976
40768W        W 4976  20.558  36.348   4.171
40769W        W 4977  30.071  41.034   3.830
40770W        W 4978  22.576  23.724   1.289
40771W        W 4979  43.360  35.424  14.847
40772W        W 4980  29.963  20.757  10.462
40773W        W 4981  40.358   2.442  12.388
40774W        W 4982  42.796  25.103   4.820
40775W        W 4983  26.209  17.682  14.512
40776W        W 4984   7.826   6.311   2.220
40777W        W 4985  10.821  12.222  12.472
40778W        W 4986  19.748   3.918  13.822
40779W        W 4987  18.158  17.307   4.223
40780W        W 4988  36.923  29.484  13.312
40781W        W 4989  42.846  30.146   1.439
40782W        W 4990  25.507   9.228   1.353
40783W        W 4991   0.974  16.719  14.876
40784W        W 4992  29.429   8.163   1.930
40785W        W 4993  14.126  19.695  11.013
40786W        W 4994  30.508  12.202   0.954
40787W        W 4995  38.382  13.315  14.438
40788W        W 4996  43.382  36.520  11.493
40789W        W 4997  26.961  41.912   1.883
40790W        W 4998  44.907   9.856   4.735
40791W        W 4999   2.772  22.654  12.482
40792W        W 5000  26.703  23.493   3.788
40793W        W 5001  28.660  17.781   9.550
40794W        W 5002  23.493   5.354  11.604
40795W        W 5003  19.550  25.106  10.495
40796W        W 5004  25.498  26.561   5.235
40797W        W 5005  16.284  39.327   3.241
40798W        W 5006  27.088  19.213   1.740
40799W        W 5007  32.989  40.805   4.332
40800W        W 5008   4.850  10.220   4.305
40801W        W 5009  21.168  18.609   4.765
40802W        W 5010  43.296  19.141  13.513
40803W        W 5011  38.867  14.834  12.418
40804W        W 5012  26.069   1.390  11.903
40805W        W 5013  24.042  32.404   4.780
40806W        W 5014  14.244   0.900  10.528
40807W        W 5015  39.359  26.463   0.466
40808W        W 5016   4.737  40.519   3.695
40809W        W 5017  41.385   0.986   1.246
40810W        W 5018  23.085   9.699  14.807
40811W        W 5019  15.640   4.229   3.648
40812W        W 5020  36.423  20.068   1.412
40813W        W 5021  15.683  10.157  12.000
40814W        W 5022  29.525  15.785  11.598
40815W        W 5023   4.743  36.452  13.974
40816W        W 5024  21.708  19.156   0.362
40817W        W 5025  42.779  16.271  10.499
40818W        W 5026   4.303  40.455   4.812
40819W        W 5027  17.763  35.441  11.545
40820W        W 5028  24.485  24.193  13.889
40821W        W 5029  43.439   2.269  13.843
40822W        W 5030  37.885  14.140   4.122
40823W        W 5031  37.067  32.057   2.348
40824W        W 5032   6.338  38.962  11.594
40825W        W 5033   7.673  14.599   0.927
40826W        W 5034  11.853  43.425   3.728
40827W        W 5035  27.010   2.808   2.838
40828W        W 5036   2.277  37.879   4.314
40829W        W 5037  23.211  37.379   5.256
40830W        W 5038  30.999  12.718   3.767
40831W        W 5039  11.338  36.970   1.422
40832W        W 5040  43.459   8.699  11.900
40833W        W 5041   0.766   1.383  12.895
40834W        W 5042   5.306   3.440   1.837
40835W        W 5043  16.315  32.001  10.463
40836W        W 5044  15.119  15.799   2.403
40837W        W 5045  24.013   3.770  14.960
40838W        W 5046  20.617  35.096  14.847
40839W        W 5047  31.560  23.240   4.218
40840W        W 5048  13.844  17.118  10.492
40841W        W 5049  38.467  24.483  10.429
40842W        W 5050  28.582   0.854   2.203
40843W        W 5051  32.442   5.723   3.220
40844W        W 5052  31.467  11.795  13.521
40845W        W 5053   6.871   2.399   3.177
40846W        W 5054  16.578  17.176   2.764
40847W        W 5055  35.361  37.550   3.218
40848W        W 5056   4.436  15.108   0.310
40849W        W 5057  14.610  34.925  11.869
40850W        W 5058  15.694  28.671  12.563
40851W        W 5059  37.576   9.854  14.321
40852W        W 5060  18.132  10.191  10.948
40853W        W 5061  32.424  42.351  13.976
40854W        W 5062  40.336  21.521   3.213
40855W        W 5063  39.047   3.367   2.873
40856W        W 5064  10.242  38.927   1.282
40857W        W 5065   8.343  36.986   1.901
40858W        W 5066  27.130  38.999   1.253
40859W        W 5067  14.603  19.182  12.407
40860W        W 5068   0.387  18.736   3.857
40861W        W 5069  36.852   5.204  10.631
40862W        W 5070   8.711  40.994   3.206
40863W        W 5071   3.904  34.437   1.904
40864W        W 5072   4.320   6.235   0.327
40865W        W 5073  33.930  42.294   2.711
40866W        W 5074  18.214  33.577  14.509
40867W        W 5075  16.104  35.938   0.367
40868W        W 5076  34.567  11.684  12.424
40869W        W 5077  15.255  43.274   2.768
40870W        W 5078  14.810   2.905   3.852
40871W        W 5079  18.640  44.460  13.431
40872W        W 5080   1.472  42.481   3.303
40873W        W 5081   4.892  29.613   2.328
40874W        W 5082   5.207  30.925  12.438
40875W        W 5083  12.815  13.718   4.190
40876W        W 5084  26.510  21.127   4.300
40877W        W 5085   0.436   5.857   0.363
40878W        W 5086  41.935   1.406   3.175
40879W        W 5087  34.491  35.521  12.044
40880W        W 5088  16.794   5.264   0.381
40881W        W 5089   5.434  34.536  13.040
40882W        W 5090   4.360  19.193  13.467
40883W        W 5091  32.032  11.686  13.538
40884W        W 5092  12.714  28.962  11.472
40885W        W 5093  19.252  25.077  14.013
40886W        W 5094  32.991   0.972   0.741
40887W        W 5095   6.205  20.740  14.004
40888W        W 5096   2.296  40.339   5.095
40889W        W 5097  20.719  31.948  12.451
40890W        W 5098  14.608  16.682  14.975
40891W        W 5099  26.701  41.803   2.211
40892W        W 5100  42.849  19.091  14.329
40893W        W 5101  21.051  36.863  10.888
40894W        W 5102  34.081   0.931   3.796
40895W        W 5103  38.029  26.164   2.835
40896W        W 5104  30.020   0.827   3.194
40897W        W 5105  19.075  37.409   1.306
40898W        W 5106  40.826  21.029  11.072
40899W        W 5107  42.296  26.123  14.831
40900W        W 5108   1.378  25.088  11.057
40901W        W 5109   7.416   8.669  14.851
40902W        W 5110  22.169  41.812   3.348
40903W        W 5111  27.665  39.823   1.915
40904W        W 5112   5.917   5.342   2.240
40905W        W 5113  32.489   8.798   0.472
40906W        W 5114  19.153  37.547   3.757
40907W        W 5115  28.969  23.238   0.848
40908W        W 5116  22.556  10.739   3.735
40909W        W 5117  22.215  21.561  10.444
40910W        W 5118  20.031  21.689   3.194
40911W        W 5119  15.246  40.840   0.965
40912W        W 5120  37.065  35.437   2.352
40913W        W 5121  20.220  11.768   2.683
40914W        W 5122  29.133  11.654  14.286
40915W        W 5123  22.526  41.787   0.387
40916W        W 5124  27.554  29.051   0.846
40917W        W 5125  12.339  40.422   4.622
40918W        W 5126   3.339  25.120  11.003
40919W        W 5127  10.824  16.305   1.316
40920W        W 5128  26.696  43.917   4.293
40921W        W 5129  39.845   0.364  14.787
40922W        W 5130   8.706  14.222   1.835
40923W        W 5131   0.835  30.556  14.492
40924W        W 5132  31.488  38.978   2.719
40925W        W 5133   5.351   2.834  14.345
40926W        W 5134  42.408  24.988  12.033
40927W        W 5135  20.154  27.641  12.085
40928W        W 5136  19.676  31.082  13.864
40929W        W 5137  22.062  10.311  10.580
40930W        W 5138  32.568  39.941  11.040
40931W        W 5139  19.233   7.222   1.246
40932W        W 5140  37.049   1.827  11.377
40933W        W 5141  39.064  15.149  11.977
40934W        W 5142  44.801  27.958  11.396
40935W        W 5143   9.666   5.870  12.419
40936W        W 5144   1.388  29.050   0.365
40937W        W 5145   3.812  39.879   1.302
40938W        W 5146  10.276  22.663  12.037
40939W        W 5147  23.004  15.205   3.292
40940W        W 5148  19.102  43.860   4.278
40941W        W 5149  15.140   7.278   3.671
40942W        W 5150  27.587  18.218  11.466
40943W        W 5151  11.694  21.242   0.814
40944W        W 5152  36.869  10.813  12.906
40945W        W 5153   3.358   5.825  11.463
40946W        W 5154  21.211  42.000   2.690
40947W        W 5155   6.341  44.976   2.720
40948W        W 5156   4.871  28.500  14.028
40949W        W 5157   5.768  29.513  10.995
40950W        W 5158  37.064  16.157  13.796
40951W        W 5159  38.562   5.724   4.315
40952W        W 5160  39.339  17.259  12.032
40953W        W 5161  26.953   3.348   1.847
40954W        W 5162  28.033  34.964  10.556
40955W        W 5163  20.643  15.722   9.616
40956W        W 5164  32.900  31.952   1.859
40957W        W 5165  17.722  25.966   1.901
40958W        W 5166   4.336  10.714   4.288
40959W        W 5167  25.191  28.553   0.411
40960W        W 5168  43.984  29.169  12.416
40961W        W 5169  39.909  16.094  10.576
40962W        W 5170  18.710   5.339   0.319
40963W        W 5171  33.093  11.792  10.413
40964W        W 5172  31.998  18.701  14.864
40965W        W 5173  22.685  13.215   2.901
40966W        W 5174  22.242  11.271   1.334
40967W        W 5175  29.469  44.848  13.464
40968W        W 5176  34.012   8.336   4.219
40969W        W 5177  40.940  22.092  14.853
40970W        W 5178  30.138  33.095  12.478
40971W        W 5179  34.079  22.618   0.760
40972W        W 5180  17.125  36.465   9.514
40973W        W 5181  15.610  27.523   2.820
40974W        W 5182  33.512  36.042  12.553
40975W        W 5183  44.496  18.716  11.072
40976W        W 5184  17.558  36.486   4.774
40977W        W 5185  29.015  20.524   3.782
40978W        W 5186  34.913  37.449   4.791
40979W        W 5187  35.852   9.292   4.268
40980W        W 5188  34.563  18.062  14.468
40981W        W 5189   6.805  30.109   0.437
40982W        W 5190   2.875  26.082   3.197
40983W        W 5191   6.792  14.605   4.188
40984W        W 5192  25.047  20.534   3.175
40985W        W 5193  35.437  31.153   1.924
40986W        W 5194  37.362  26.955  13.312
40987W        W 5195  33.559  41.009   0.289
40988W        W 5196   6.913  30.992  14.291
40989W        W 5197  40.512   6.781   4.743
40990W        W 5198  25.677   3.745   4.315
40991W        W 5199  12.828  35.861  13.463
40992W        W 5200  26.060  34.917   1.447
40993W        W 5201  17.204   0.865  13.974
40994W        W 5202  14.280   2.447   5.128
40995W        W 5203   1.758  14.694   0.830
40996W        W 5204  30.085  13.307   1.411
40997W        W 5205  38.845  33.426   3.695
40998W        W 5206   3.243  32.916   3.251
40999W        W 5207   7.720  39.362   4.137
41000W        W 5208  27.100  34.582  14.765
41001W        W 5209  28.050  16.724   5.321
41002W        W 5210   4.900  41.024   3.669
41003W        W 5211  29.644  12.239  12.000
41004W        W 5212   1.760  31.914   3.341
41005W        W 5213  11.353  27.966  12.541
41006W        W 5214   2.293  23.637   3.665
41007W        W 5215  26.608   9.743  14.370
41008W        W 5216  44.929  38.358   2.405
41009W        W 5217  16.714  44.440   1.874
41010W        W 5218  42.427  34.506  11.073
41011W        W 5219   7.853  27.460   0.463
41012W        W 5220   1.947  33.972   4.314
41013W        W 5221   5.728  16.233   3.198
41014W        W 5222  26.971   6.292  13.049
41015W        W 5223  18.192  40.388   0.926
41016W        W 5224  26.203  31.062  10.452
41017W        W 5225  33.539   2.242  11.024
41018W        W 5226  17.717  22.134   0.853
41019W        W 5227  13.615   1.805   1.284
41020W        W 5228   9.655  27.982  12.973
41021W        W 5229  19.192  25.474   3.747
41022W        W 5230   9.657  41.958  10.474
41023W        W 5231  17.748  25.644   4.123
41024W        W 5232   7.900  39.559   1.338
41025W        W 5233  28.474  18.279   1.788
41026W        W 5234  17.267  42.296   1.864
41027W        W 5235  35.448  20.047   4.740
41028W        W 5236  13.179  10.141   4.182
41029W        W 5237  38.918  30.158  13.805
41030W        W 5238  23.584  43.923  10.628
41031W        W 5239  36.547   1.440  14.445
41032W        W 5240  35.401  24.047   0.802
41033W        W 5241   3.891  11.652  10.408
41034W        W 5242  42.415   0.986   4.198
41035W        W 5243  40.363  24.062  13.414
41036W        W 5244  31.545  16.566   4.214
41037W        W 5245  31.525  34.427   2.865
41038W        W 5246  20.089  28.559  11.029
41039W        W 5247  41.457  16.100  11.950
41040W        W 5248  24.089  17.087  13.025
41041W        W 5249  19.076  22.223  12.458
41042W        W 5250  42.461  15.636   4.811
41043W        W 5251  22.693  37.002   2.845
41044W        W 5252  14.748  44.837   4.208
41045W        W 5253  38.944  20.173   4.662
41046W        W 5254  24.211  23.709   3.756
41047W        W 5255  44.902   8.728  12.094
41048W        W 5256  27.131  42.434   1.378
41049W        W 5257   0.328   6.226  12.964
41050W        W 5258   4.729   3.794  13.320
41051W        W 5259   3.742  16.767  12.860
41052W        W 5260  43.465  29.617  11.475
41053W        W 5261  32.502  17.622  10.485
41054W        W 5262  22.682  40.474  14.334
41055W        W 5263  38.850  38.878  12.004
41056W        W 5264  16.283  43.439   0.883
41057W        W 5265   6.921  43.895   1.803
41058W        W 5266  35.373  43.380  12.896
41059W        W 5267  31.141   7.355  13.474
41060W        W 5268  42.830   6.719   3.647
41061W        W 5269  15.677  26.040   2.310
41062W        W 5270   9.195   1.307   0.287
41063W        W 5271  21.113   1.902  14.333
41064W        W 5272  14.821  14.286  12.860
41065W        W 5273  43.846  28.159   3.325
41066W        W 5274   5.776  31.976  10.446
41067W        W 5275  26.617  17.204   0.924
41068W        W 5276  29.506  19.567   5.281
41069W        W 5277  32.015  23.674  12.961
41070W        W 5278  33.508  21.018   2.760
41071W        W 5279  27.950  41.496   4.246
41072W        W 5280  38.965  42.024   1.875
41073W        W 5281  30.083  24.507   2.734
41074W        W 5282  41.951   4.450  14.324
41075W        W 5283  10.215  20.522  11.393
41076W        W 5284  29.123   5.712   2.855
41077W        W 5285  14.809   9.223  14.497
41078W        W 5286  43.358   0.832   2.756
41079W        W 5287  14.124  27.097   1.331
41080W        W 5288  12.671  29.656  10.932
41081W        W 5289  35.891   4.301   2.391
41082W        W 5290   1.974  28.999   2.234
41083W        W 5291  10.724  20.232  10.942
41084W        W 5292  33.395  41.462   3.386
41085W        W 5293  10.183   7.235  11.472
41086W        W 5294   1.939   2.317  11.858
41087W        W 5295  18.182  16.593  10.137
41088W        W 5296  14.295  42.472   1.445
41089W        W 5297  23.497  35.979   4.823
41090W        W 5298   5.863   4.749  14.778
41091W        W 5299  19.205  40.858  11.506
41092W        W 5300  11.137  21.530  14.851
41093W        W 5301  19.643  31.600   3.187
41094W        W 5302  32.095  38.564   4.272
41095W        W 5303  39.372  38.359  14.963
41096W        W 5304  10.695  30.959  13.374
41097W        W 5305  31.458   8.229  11.964
41098W        W 5306  30.545  38.845  10.949
41099W        W 5307  41.932  24.120   2.251
41100W        W 5308  35.867  10.311  11.991
41101W        W 5309  42.510  28.183   3.167
41102W        W 5310  21.710  23.598   4.741
41103W        W 5311   3.352  44.491   2.679
41104W        W 5312  17.193  21.019   5.118
41105W        W 5313  38.877   7.848   1.747
41106W        W 5314   1.456  25.620   0.927
41107W        W 5315  15.760  14.187  14.468
41108W        W 5316  21.659  44.489  10.154
41109W        W 5317   0.413   1.766  11.581
41110W        W 5318  27.560   1.805  12.983
41111W        W 5319   7.745  15.210  13.459
41112W        W 5320  32.571  36.539  10.418
41113W        W 5321  33.088  10.872   3.286
41114W        W 5322  10.146   0.795  14.989
41115W        W 5323   7.781  40.054  12.095
41116W        W 5324  27.041  41.927   4.781
41117W        W 5325  30.531   5.917   4.188
41118W        W 5326   7.254  32.391   1.423
41119W        W 5327  12.282   2.749  10.449
41120W        W 5328   1.376  29.524  14.456
41121W        W 5329  10.239  43.994   0.949
41122W        W 5330  18.555   3.733   4.799
41123W        W 5331  36.091  24.115  11.025
41124W        W 5332  38.495   2.800  12.409
41125W        W 5333  34.559  33.887  11.085
41126W        W 5334  28.445  16.290   4.260
41127W        W 5335  12.743  37.913  12.848
41128W        W 5336  33.440  33.439  10.006
41129W        W 5337   3.359   9.761  14.364
41130W        W 5338   9.779  41.538   0.477
41131W        W 5339  17.671  39.467  10.107
41132W        W 5340  13.313  11.645   5.254
41133W        W 5341   5.721  42.844   2.413
41134W        W 5342   5.870   9.826  13.933
41135W        W 5343  17.636  25.017   1.870
41136W        W 5344  11.249   6.839  13.034
41137W        W 5345  40.514  32.947   4.708
41138W        W 5346  26.040  38.019   2.212
41139W        W 5347  20.684  31.081   2.748
41140W        W 5348  10.384   3.407   2.891
41141W        W 5349  29.097  23.492   4.692
41142W        W 5350  38.430  16.678  13.885
41143W        W 5351  28.550  36.025  12.484
41144W        W 5352  32.103   4.387   1.712
41145W        W 5353  11.847   4.430   2.221
41146W        W 5354  21.049  39.482   0.741
41147W        W 5355  41.902  24.130  13.451
41148W        W 5356  31.496  16.756  14.482
41149W        W 5357  44.503   5.312  12.875
41150W        W 5358  25.694  15.711  14.318
41151W        W 5359  17.105   1.910  13.442
41152W        W 5360  12.261  38.051   0.865
41153W        W 5361   9.707  32.065   1.398
41154W        W 5362   3.428  33.963   3.767
41155W        W 5363  26.605  25.559   3.806
41156W        W 5364  37.549  26.516  14.494
41157W        W 5365   7.674  10.145   0.285
41158W        W 5366   6.322   7.275  14.835
41159W        W 5367  34.943  27.679   2.748
41160W        W 5368  19.046  21.137   1.722
41161W        W 5369  42.517   4.386  13.858
41162W        W 5370  10.245  36.410  11.978
41163W        W 5371  14.666   7.880   3.799
41164W        W 5372  18.138  12.733  13.455
41165W        W 5373  19.602  26.073  11.927
41166W        W 5374  32.911  29.554  14.342
41167W        W 5375   5.252  19.562  14.418
41168W        W 5376  24.008  21.082  11.103
41169W        W 5377  39.885   0.250  10.945
41170W        W 5378  24.708   3.873   2.206
41171W        W 5379  33.971  36.357   3.156
41172W        W 5380  26.994  32.501   0.734
41173W        W 5381  19.696  18.135   1.900
41174W        W 5382  16.735  43.978  13.995
41175W        W 5383  15.720  22.596   1.838
41176W        W 5384  35.936  14.786  10.958
41177W        W 5385  31.505  39.850  14.780
41178W        W 5386  36.590  18.173  13.048
41179W        W 5387  37.911  23.712  14.927
41180W        W 5388  28.459   1.414   3.246
41181W        W 5389   6.388  28.002  13.309
41182W        W 5390  13.263  43.284   2.892
41183W        W 5391  17.066  23.106   2.664
41184W        W 5392   5.401   9.717  13.014
41185W        W 5393  14.638  41.017   4.308
41186W        W 5394  23.735  41.860   1.913
41187W        W 5395   0.792   3.829   0.962
41188W        W 5396   2.366  41.976   4.220
41189W        W 5397  32.034  28.552  11.867
41190W        W 5398   8.248  15.207  13.361
41191W        W 5399  35.596  24.574  11.612
41192W        W 5400  43.316  19.128   5.570
41193W        W 5401   9.214  29.545  11.908
41194W        W 5402   4.722  15.104   3.384
41195W        W 5403   0.426  39.042  10.525
41196W        W 5404   9.362  27.991   1.262
41197W        W 5405  39.036  15.647  10.484
41198W        W 5406   8.661  42.885   3.722
41199W        W 5407  29.543  29.038  14.826
41200W        W 5408   6.746  35.597   2.330
41201W        W 5409   0.744  22.605   4.322
41202W        W 5410  26.164  34.445   3.316
41203W        W 5411  32.447   0.339   4.244
41204W        W 5412  39.560   9.659   2.668
41205W        W 5413   0.332  42.894  11.906
41206W        W 5414   5.757  20.667   4.166
41207W        W 5415  22.628  38.534   2.211
41208W        W 5416  15.715  29.597   4.302
41209W        W 5417  23.645  12.192   1.834
41210W        W 5418  29.116   8.728   2.317
41211W        W 5419  34.997  41.354   0.352
41212W        W 5420   7.761   0.873   4.795
41213W        W 5421  16.668  36.039   3.270
41214W        W 5422  22.014  39.462   3.248
41215W        W 5423  15.751  33.003  13.342
41216W        W 5424   6.904   8.182  13.465
41217W        W 5425  41.421   8.180   3.754
41218W        W 5426  24.056   7.392  14.466
41219W        W 5427  44.261  15.282  13.540
41220W        W 5428   2.302  44.277  14.763
41221W        W 5429  11.172  32.993  11.903
41222W        W 5430  30.080  21.658   4.296
41223W        W 5431  31.995  33.545  11.974
41224W        W 5432  18.754  25.210   3.292
41225W        W 5433  19.741  34.527   1.230
41226W        W 5434  23.508  16.771   2.219
41227W        W 5435   5.874  36.081   2.874
41228W        W 5436  19.673  32.058  12.879
41229W        W 5437  23.517  37.053  12.009
41230W        W 5438  21.100  23.182  13.003
41231W        W 5439  27.499   1.976  10.603
41232W        W 5440  16.810  32.546  13.336
41233W        W 5441  40.998  20.600  10.157
41234W        W 5442  30.135  17.616  12.016
41235W        W 5443  18.089  40.936   3.299
41236W        W 5444   8.825  13.291  12.949
41237W        W 5445   7.755   7.177   2.338
41238W        W 5446  14.119  41.919  12.002
41239W        W 5447  36.428  10.657   3.779
41240W        W 5448   5.377  14.238   4.124
41241W        W 5449  31.926  44.945  12.569
41242W        W 5450  33.126   1.379  12.392
41243W        W 5451   2.300   0.954  14.893
41244W        W 5452   6.412   1.977   2.797
41245W        W 5453   2.288  26.960   4.317
41246W        W 5454   5.414  23.141  10.549
41247W        W 5455  21.565  36.389  13.489
41248W        W 5456  34.457   5.209   1.845
41249W        W 5457  10.178  12.637   3.348
41250W        W 5458  23.657  25.485  12.940
41251W        W 5459  21.657  37.885  14.461
41252W        W 5460  28.123  22.682   2.410
41253W        W 5461  32.118   4.405  14.350
41254W        W 5462  14.273  34.870   0.967
41255W        W 5463   6.289  30.577  13.952
41256W        W 5464  42.465   5.325   2.692
41257W        W 5465  16.295  41.888  14.384
41258W        W 5466   5.407   4.766  13.917
41259W        W 5467   1.922  39.907   2.783
41260W        W 5468  35.408  22.037  13.330
41261W        W 5469  35.081  25.057  14.368
41262W        W 5470  36.039   7.250  11.412
41263W        W 5471  15.724   4.357  14.305
41264W        W 5472  33.914  35.513   4.281
41265W        W 5473   2.890  37.046  13.812
41266W        W 5474   2.799  27.142  12.519
41267W        W 5475  19.126  32.128   3.818
41268W        W 5476  25.007  41.405  13.943
41269W        W 5477   0.429   2.407   2.684
41270W        W 5478   5.399  40.491  10.948
41271W        W 5479   1.814   0.907   0.837
41272W        W 5480  31.148  35.405  11.991
41273W        W 5481  25.692   3.825  14.352
41274W        W 5482  35.433   8.194  11.608
41275W        W 5483  12.687   1.270   1.700
41276W        W 5484  19.090  13.720   1.385
41277W        W 5485  21.029  20.602   0.882
41278W        W 5486  25.468  37.374   2.871
41279W        W 5487  18.582  17.134  14.016
41280W        W 5488   5.759  30.535   0.796
41281W        W 5489   9.264  41.791  14.980
41282W        W 5490  35.041  17.165  12.837
41283W        W 5491  21.166   9.872   2.187
41284W        W 5492  10.848  25.997   0.749
41285W        W 5493  26.969  27.473  12.880
41286W        W 5494  23.178   0.847  14.410
41287W        W 5495  29.567  29.514   5.256
41288W        W 5496  20.644   3.861  10.445
41289W        W 5497   4.826   3.733   1.254
41290W        W 5498   9.645   2.942  12.348
41291W        W 5499  18.275  26.156   2.713
41292W        W 5500   5.736  23.567   3.690
41293W        W 5501  37.844   8.280   1.296
41294W        W 5502   8.353  13.705   3.768
41295W        W 5503   8.830  30.939  14.282
41296W        W 5504  42.461  40.017   1.402
41297W        W 5505  16.185   7.258  13.953
41298W        W 5506  43.975  42.513   1.808
41299W        W 5507  19.238  43.839  12.845
41300W        W 5508  19.109  42.989   0.779
41301W        W 5509   1.430   9.788   1.385
41302W        W 5510  44.974  37.014  12.890
41303W        W 5511  42.973  38.045  12.915
41304W        W 5512   6.800  27.501  12.459
41305W        W 5513  38.068  38.877  12.565
41306W        W 5514   4.221  35.440  11.940
41307W        W 5515  13.716  43.331   0.943
41308W        W 5516  22.544  28.522   1.436
41309W        W 5517  41.013  15.813   0.420
41310W        W 5518   8.356   6.917  14.335
41311W        W 5519  28.990  14.803   0.862
41312W        W 5520  37.436  24.182  14.364
41313W        W 5521   6.683   7.737   0.774
41314W        W 5522  18.216  39.398   4.327
41315W        W 5523  17.241  38.900   0.963
41316W        W 5524   0.311  28.436   1.344
41317W        W 5525  37.087  38.877   2.305
41318W        W 5526  36.420  13.240   2.205
41319W        W 5527  35.896  36.509  13.876
41320W        W 5528  11.641  26.499   1.718
41321W        W 5529  14.662  26.066   3.296
41322W        W 5530  22.503  26.530  14.418
41323W        W 5531   1.734  24.987   4.312
41324W        W 5532   0.892  37.927   0.823
41325W        W 5533  13.261  18.095  12.079
41326W        W 5534  19.558  11.675  14.855
41327W        W 5535  32.074  19.574  13.312
41328W        W 5536  13.309   4.384   1.413
41329W        W 5537  10.784  28.958  13.814
41330W        W 5538  37.532  10.637  12.374
41331W        W 5539  14.795   7.859  13.016
41332W        W 5540  25.473   9.154   0.895
41333W        W 5541  26.589   7.816  14.367
41334W        W 5542  32.395  34.952  11.519
41335W        W 5543   7.856  28.984  10.134
41336W        W 5544  11.285  40.896  10.429
41337W        W 5545  39.364   9.363   3.841
41338W        W 5546  28.982  30.933   2.672
41339W        W 5547  22.551  22.603  12.575
41340W        W 5548  28.438  38.930  10.022
41341W        W 5549  43.347  27.057  14.510
41342W        W 5550  35.453   0.799  12.932
41343W        W 5551  43.286  25.109   4.136
41344W        W 5552  17.120   3.927   1.768
41345W        W 5553  40.978   5.698   2.858
41346W        W 5554  27.094  32.044   2.899
41347W        W 5555  26.064   2.857   0.394
41348W        W 5556  28.066  40.024   2.718
41349W        W 5557  17.233  23.675   0.854
41350W        W 5558  13.737  24.982   4.113
41351W        W 5559  13.664  27.678  14.882
41352W        W 5560  43.357  40.807  14.933
41353W        W 5561  39.420  37.973   3.378
41354W        W 5562  17.763   4.740   2.315
41355W        W 5563  27.477   4.896   4.664
41356W        W 5564  40.050  30.987  13.356
41357W        W 5565  27.075  14.717   1.428
41358W        W 5566  18.636   2.281   4.735
41359W        W 5567  18.699   6.848   1.397
41360W        W 5568  38.374  25.189  14.353
41361W        W 5569  13.601  38.018   4.830
41362W        W 5570  18.679  40.306   9.927
41363W        W 5571  32.633  36.005  12.895
41364W        W 5572  12.741  12.793  10.404
41365W        W 5573  31.967  15.250  14.807
41366W        W 5574  37.372   5.275  10.143
41367W        W 5575  30.422   7.322  14.824
41368W        W 5576   0.762  26.068  14.311
41369W        W 5577   9.728  42.280  12.488
41370W        W 5578  42.845  15.699   1.377
41371W        W 5579  19.283  29.119  10.613
41372W        W 5580   6.405  13.682   4.780
41373W        W 5581  30.545  35.964  13.841
41374W        W 5582  27.953  32.439   0.782
41375W        W 5583  39.526   0.369  12.843
41376W        W 5584  23.165  36.073   0.427
41377W        W 5585  17.172   5.878  10.011
41378W        W 5586  32.002  10.659   1.385
41379W        W 5587  14.245  42.355  12.468
41380W        W 5588   9.723  35.596   0.815
41381W        W 5589  31.914  32.394  11.082
41382W        W 5590   3.892  20.681  11.604
41383W        W 5591  37.992  30.057   0.754
41384W        W 5592  30.636  43.453  11.434
41385W        W 5593  35.372  40.527  12.488
41386W        W 5594   0.863  27.520  11.028
41387W        W 5595  20.179  43.448   3.702
41388W        W 5596  18.083  26.981   0.314
41389W        W 5597  12.205  30.649  13.357
41390W        W 5598  11.142  38.343  14.286
41391W        W 5599  30.143  24.978   2.830
41392W        W 5600   2.400  30.495  10.011
41393W        W 5601  38.446  37.382   4.635
41394W        W 5602  38.896  42.435  10.957
41395W        W 5603   0.426  24.639   4.604
41396W        W 5604  10.708  23.162   1.857
41397W        W 5605  14.188  25.118  13.349
41398W        W 5606  43.400  20.720  11.907
41399W        W 5607  24.617  43.872   3.223
41400W        W 5608  25.067   4.203   2.211
41401W        W 5609  11.649  12.123   3.283
41402W        W 5610  13.327  28.005  11.474
41403W        W 5611   7.195   4.387  10.447
41404W        W 5612  12.245  30.656  11.071
41405W        W 5613  34.497  33.051  12.388
41406W        W 5614  23.623  18.629  10.126
41407W        W 5615  43.473  42.977   1.243
41408W        W 5616   9.234  36.377  12.363
41409W        W 5617  13.118  28.177   9.982
41410W        W 5618  41.424  11.363   0.769
41411W        W 5619  41.018  40.873   0.459
41412W        W 5620   7.849  13.769  14.354
41413W        W 5621  43.390  29.447  10.948
41414W        W 5622  24.712  35.380  14.465
41415W        W 5623  43.512  28.574  11.603
41416W        W 5624   2.231   2.287  12.902
41417W        W 5625   8.845  25.144   4.125
41418W        W 5626  11.179  18.571  13.861
41419W        W 5627  17.726  23.563   4.619
41420W        W 5628  25.492  41.423   0.895
41421W        W 5629  35.461  29.946  10.580
41422W        W 5630  41.041   6.765   3.818
41423W        W 5631  25.162  38.977  12.467
41424W        W 5632  30.472  44.470   0.937
41425W        W 5633  36.463  18.576  11.995
41426W        W 5634   3.441  21.549  11.125
41427W        W 5635  27.683  44.341  13.956
41428W        W 5636  18.718  25.506  12.075
41429W        W 5637  29.432  22.686   2.723
41430W        W 5638   6.220  17.234   2.764
41431W        W 5639   4.891  10.142  11.392
41432W        W 5640   9.718  17.149   4.787
41433W        W 5641   1.296  17.556   4.307
41434W        W 5642  33.420  23.137   1.823
41435W        W 5643  39.319  39.832  12.987
41436W        W 5644  14.623   9.202  10.644
41437W        W 5645  42.815  15.267   1.734
41438W        W 5646  42.385  22.233   0.452
41439W        W 5647  12.672   5.747   3.247
41440W        W 5648  38.991   7.684   4.698
41441W        W 5649   7.808   7.810   2.299
41442W        W 5650  43.790  13.108   4.751
41443W        W 5651  29.641  23.608  12.463
41444W        W 5652   0.288   9.247  14.782
41445W        W 5653  35.069  32.521  11.989
41446W        W 5654  26.069  34.052  11.080
41447W        W 5655  33.479  12.832  13.373
41448W        W 5656  15.806   7.678   0.865
41449W        W 5657  32.083  18.577   5.200
41450W        W 5658  35.515  44.819  10.483
41451W        W 5659   6.723  41.912  14.317
41452W        W 5660  14.102  19.077  12.826
41453W        W 5661  35.560  13.690  14.948
41454W        W 5662  19.120  31.050  14.905
41455W        W 5663   3.719  42.462   4.134
41456W        W 5664   6.866   9.876  13.308
41457W        W 5665   5.853  36.391   2.711
41458W        W 5666  10.838  28.070  14.786
41459W        W 5667   8.207  23.029  12.059
41460W        W 5668  39.506  17.069   4.304
41461W        W 5669  17.159  27.530  14.857
41462W        W 5670  32.576  18.717   2.398
41463W        W 5671   8.724  21.531   3.146
41464W        W 5672   7.830  19.610   3.828
41465W        W 5673   5.762   1.937  13.828
41466W        W 5674   2.291  35.107   4.727
41467W        W 5675   0.436  35.569  11.497
41468W        W 5676  25.690   7.351   3.869
41469W        W 5677   7.314  38.924   2.797
41470W        W 5678  26.082  21.043  10.998
41471W        W 5679  38.346  24.000  12.364
41472W        W 5680  43.286   6.350   4.765
41473W        W 5681   2.879  43.413  10.463
41474W        W 5682   5.246  24.161  12.881
41475W        W 5683  18.658  36.529   2.693
41476W        W 5684  15.318  13.159  12.536
41477W        W 5685  21.725  15.149   0.856
41478W        W 5686   3.357  33.555  13.473
41479W        W 5687  44.473  23.205   4.747
41480W        W 5688  22.205  11.841   0.287
41481W        W 5689   2.845  35.434   2.292
41482W        W 5690  17.675   6.204   1.342
41483W        W 5691  43.422  13.838   2.245
41484W        W 5692   1.905   2.338   2.778
41485W        W 5693  22.527  24.079   1.423
41486W        W 5694  20.228   9.831  12.507
41487W        W 5695  23.987  16.747  10.901
41488W        W 5696   7.905  10.655   3.779
41489W        W 5697  19.108  31.064   1.736
41490W        W 5698  10.639  37.578  13.488
41491W        W 5699  10.824  31.455   1.867
41492W        W 5700  36.905  22.075  14.940
41493W        W 5701  11.632  40.923   4.189
41494W        W 5702  34.428  14.318  11.125
41495W        W 5703  17.683  43.286  12.956
41496W        W 5704   3.372  13.348   3.688
41497W        W 5705  24.552  34.463   2.365
41498W        W 5706  18.285   5.421  14.809
41499W        W 5707   2.812  21.670   1.829
41500W        W 5708  15.728  38.882  10.467
41501W        W 5709   6.191   4.265   1.446
41502W        W 5710  36.893   1.295   1.797
41503W        W 5711   0.843  24.172   4.709
41504W        W 5712  42.519  37.370   2.392
41505W        W 5713  30.640  42.793  12.964
41506W        W 5714  23.613   8.264   0.450
41507W        W 5715  19.254  35.443   0.752
41508W        W 5716  36.468  15.606   4.235
41509W        W 5717  43.934  36.067   1.728
41510W        W 5718  27.603  11.221   4.781
41511W        W 5719  43.401  29.446   2.355
41512W        W 5720  33.411  21.082  14.419
41513W        W 5721  31.986  15.607  14.848
41514W        W 5722  40.321  31.966  10.027
41515W        W 5723  16.190  27.125  14.299
41516W        W 5724  25.011  14.181  12.372
41517W        W 5725   1.882  19.180  13.897
41518W        W 5726  14.313  23.149  13.523
41519W        W 5727  44.400  37.431  11.908
41520W        W 5728  10.734  38.433   4.775
41521W        W 5729  27.509   9.227  12.512
41522W        W 5730  14.314  19.052  13.950
41523W        W 5731   9.817  37.044  12.909
41524W        W 5732   7.811   3.940  11.010
41525W        W 5733  41.798  22.079  12.358
41526W        W 5734   7.905  34.092   1.905
41527W        W 5735   7.798  37.466  11.041
41528W        W 5736  13.270  13.611  12.020
41529W        W 5737  37.527  28.528  14.370
41530W        W 5738  44.306   4.362   0.287
41531W        W 5739   0.806  40.036   5.293
41532W        W 5740   3.781  24.126   2.881
41533W        W 5741  27.049  23.546  12.523
41534W        W 5742  32.962  26.166  11.550
41535W        W 5743  36.463  33.972  10.489
41536W        W 5744  33.914  37.408  14.326
41537W        W 5745  19.621   5.298   3.188
41538W        W 5746  35.934  14.829  14.281
41539W        W 5747  38.386  38.430   4.640
41540W        W 5748   4.934   8.206   0.904
41541W        W 5749   8.808  14.632   1.827
41542W        W 5750  39.560  36.071   4.832
41543W        W 5751   7.377   8.810  11.936
41544W        W 5752   3.883  40.541  14.977
41545W        W 5753  37.458  10.164   4.678
41546W        W 5754  39.414   6.346  14.352
41547W        W 5755   1.425  27.642   4.166
41548W        W 5756   0.422  22.598   3.842
41549W        W 5757  32.525  15.158  10.945
41550W        W 5758   6.701  10.642   4.765
41551W        W 5759  17.573   0.411  13.451
41552W        W 5760   5.922   4.828  11.454
41553W        W 5761  22.041  27.993  12.018
41554W        W 5762  40.990  43.894   0.289
41555W        W 5763  42.976  14.641  11.546
41556W        W 5764  33.950   4.885  10.505
41557W        W 5765  29.597  34.093   1.319
41558W        W 5766  36.974  14.702  13.806
41559W        W 5767   5.303  12.629  11.902
41560W        W 5768  19.571   1.930   1.254
41561W        W 5769  12.636  11.220  11.469
41562W        W 5770  10.818  34.015   3.247
41563W        W 5771  32.468  32.958  13.448
41564W        W 5772  29.590  31.010   4.772
41565W        W 5773  21.027  31.613   0.321
41566W        W 5774  35.491  29.940   2.206
41567W        W 5775   3.890  42.787  13.911
41568W        W 5776  12.286   3.392   2.350
41569W        W 5777  37.911  11.767   3.814
41570W        W 5778  34.081  14.208  11.498
41571W        W 5779  40.922   4.243  14.026
41572W        W 5780   2.733  27.126  13.946
41573W        W 5781  44.423  12.243  14.469
41574W        W 5782  29.054  36.965  13.023
41575W        W 5783  31.474  39.875   1.873
41576W        W 5784  11.240  43.392  14.901
41577W        W 5785  41.867  11.179  10.630
41578W        W 5786  33.450   2.430  10.408
41579W        W 5787   9.692  28.569  11.552
41580W        W 5788  27.545  32.564  14.459
41581W        W 5789  40.893  34.017  13.440
41582W        W 5790  10.294  19.775  10.131
41583W        W 5791  38.850  24.020  14.761
41584W        W 5792  23.607  10.788  13.355
41585W        W 5793  22.739  36.384   4.827
41586W        W 5794  43.997  15.819   3.706
41587W        W 5795  30.510  29.512   2.742
41588W        W 5796  26.999  33.082   1.323
41589W        W 5797  10.277  26.174  14.419
41590W        W 5798  22.676  34.612   2.312
41591W        W 5799  44.474  19.627  11.071
41592W        W 5800  13.635   1.412  14.936
41593W        W 5801   9.258  25.505   3.328
41594W        W 5802  20.120  11.744  14.332
41595W        W 5803  29.028  43.777  12.349
41596W        W 5804   1.388  11.354  14.771
41597W        W 5805  25.580  42.288  13.494
41598W        W 5806  11.217  35.042   3.695
41599W        W 5807  10.824  20.237  14.881
41600W        W 5808  44.395   6.787   3.370
41601W        W 5809  36.050  21.178  12.950
41602W        W 5810  32.027  18.558   0.371
41603W        W 5811   1.452  36.352   1.864
41604W        W 5812  23.501  38.419  13.941
41605W        W 5813  16.594  23.577  10.601
41606W        W 5814  36.386  12.355   4.165
41607W        W 5815  24.012  30.441  12.838
41608W        W 5816   9.380  30.550   1.829
41609W        W 5817  19.566  36.031  13.321
41610W        W 5818  27.607   8.399   4.271
41611W        W 5819  12.719  20.066   3.199
41612W        W 5820  21.753  41.331  12.410
41613W        W 5821  30.606  28.967   1.771
41614W        W 5822  42.488  14.800   2.248
41615W        W 5823  34.459  22.142  11.883
41616W        W 5824  11.841   4.285   3.197
41617W        W 5825  24.519  43.469   1.868
41618W        W 5826  13.116   0.885   3.237
41619W        W 5827  39.969   4.864  12.454
41620W        W 5828  27.165   2.376  14.948
41621W        W 5829  34.602  41.827  12.465
41622W        W 5830  37.547  30.451   4.744
41623W        W 5831  22.099  30.933  11.377
41624W        W 5832  27.472  22.715  13.456
41625W        W 5833  13.306  26.524   2.675
41626W        W 5834  15.643  35.414   1.760
41627W        W 5835  33.499  13.762  11.097
41628W        W 5836  44.414  41.966   4.760
41629W        W 5837   5.362  31.117   1.713
41630W        W 5838  26.552  31.600  13.020
41631W        W 5839   3.892   6.818   4.343
41632W        W 5840  23.094  32.570  12.442
41633W        W 5841  16.079  30.510   4.836
41634W        W 5842  40.034  43.304  11.021
41635W        W 5843  12.200  15.707   2.233
41636W        W 5844  35.905   7.176  10.630
41637W        W 5845   3.806  16.771   1.338
41638W        W 5846  12.765  42.286   1.838
41639W        W 5847   9.225   6.818  11.947
41640W        W 5848  35.413  34.449  13.977
41641W        W 5849  24.150  25.630  11.496
41642W        W 5850   9.813  13.200   3.665
41643W        W 5851  13.222  34.593   3.847
41644W        W 5852  22.016   3.952  12.009
41645W        W 5853   0.770   7.285   0.907
41646W        W 5854  39.517  41.819   2.341
41647W        W 5855  12.768  15.598  14.924
41648W        W 5856  20.628  35.868   1.906
41649W        W 5857  19.047  25.055   1.860
41650W        W 5858  44.291  19.056   2.868
41651W        W 5859  36.432  30.443   4.642
41652W        W 5860  19.098  19.760  12.035
41653W        W 5861  25.199  38.403   3.635
41654W        W 5862  13.607  30.911   2.865
41655W        W 5863  36.387   8.896   4.601
41656W        W 5864  36.094  25.665  13.531
41657W        W 5865  37.866  25.510  13.370
41658W        W 5866   5.239  18.587  11.122
41659W        W 5867  13.725  39.434  10.935
41660W        W 5868  39.922  44.968   2.344
41661W        W 5869  42.807  15.183  14.454
41662W        W 5870  22.180  22.092   4.734
41663W        W 5871  28.969  24.678   2.879
41664W        W 5872  14.190  30.588   1.914
41665W        W 5873  12.264  29.458  12.014
41666W        W 5874  23.241   9.156  14.017
41667W        W 5875   0.830   5.307   0.256
41668W        W 5876   5.420  25.188   1.421
41669W        W 5877  21.675   4.794  10.954
41670W        W 5878   2.383  44.774  12.354
41671W        W 5879  14.663  44.337   4.764
41672W        W 5880  30.658  20.658  14.302
41673W        W 5881  43.485  10.742   2.748
41674W        W 5882  20.185  14.222   5.097
41675W        W 5883  22.229   1.972   1.321
41676W        W 5884  36.967   2.816  13.474
41677W        W 5885  30.443   4.336  12.037
41678W        W 5886   7.669  35.985   9.945
41679W        W 5887  40.807  38.411   0.797
41680W        W 5888  24.030  38.049   4.602
41681W        W 5889   9.885  23.139  14.012
41682W        W 5890  41.996  13.109   3.353
41683W        W 5891   5.884  43.338   1.915
41684W        W 5892  25.044  42.517   4.212
41685W        W 5893   5.781  21.023  14.467
41686W        W 5894  44.444   1.283  10.924
41687W        W 5895  20.724  25.212   0.739
41688W        W 5896  19.197  16.194   1.362
41689W        W 5897   7.808  19.227   1.234
41690W        W 5898  26.174  44.855   0.413
41691W        W 5899  12.653  31.058   3.351
41692W        W 5900  44.280  41.816   5.131
41693W        W 5901  14.804  35.558  13.371
41694W        W 5902  14.114   0.772  10.940
41695W        W 5903  43.472  44.775   3.740
41696W        W 5904   7.273  16.138   2.777
41697W        W 5905  42.385  32.526  10.576
41698W        W 5906  25.114   8.210  13.342
41699W        W 5907  15.091  41.993   3.862
41700W        W 5908   9.718  39.864  12.034
41701W        W 5909  15.182  41.420   1.311
41702W        W 5910  14.140  43.290   0.750
41703W        W 5911  26.555  21.098  11.612
41704W        W 5912  30.143  22.620   3.748
41705W        W 5913   7.307  11.649   1.932
41706W        W 5914  42.779   9.150  11.982
41707W        W 5915  41.019  36.468  12.957
41708W        W 5916  19.774   5.196   1.388
41709W        W 5917  21.582  40.410  12.469
41710W        W 5918  44.329  11.866   2.225
41711W        W 5919  15.587  24.584   4.731
41712W        W 5920   3.939  22.140  14.509
41713W        W 5921  14.640   3.245  10.415
41714W        W 5922  37.452  13.742  12.520
41715W        W 5923  41.823  33.040   2.388
41716W        W 5924  21.048  15.219   3.311
41717W        W 5925  28.963  40.971   1.442
41718W        W 5926  34.434  11.203  14.433
41719W        W 5927  38.390  18.234   1.427
41720W        W 5928  36.855  22.108   4.606
41721W        W 5929  25.017  13.108   1.883
41722W        W 5930  25.605  26.465  12.986
41723W        W 5931  27.574  36.934   2.877
41724W        W 5932  14.592  40.408  14.393
41725W        W 5933   1.843  35.872  14.922
41726W        W 5934  16.113  20.058  10.625
41727W        W 5935   2.379   5.297  13.941
41728W        W 5936  33.445  28.181  10.599
41729W        W 5937  13.235  34.402  13.519
41730W        W 5938  23.184  33.444  14.944
41731W        W 5939  17.184  17.647  10.894
41732W        W 5940  26.995   1.780  13.922
41733W        W 5941  33.067  19.143   0.850
41734W        W 5942  28.184  40.043   3.684
41735W        W 5943  41.344  43.954  12.428
41736W        W 5944  11.158  32.892   0.447
41737W        W 5945  12.652  13.157   1.386
41738W        W 5946  30.909  40.334  12.550
41739W        W 5947  20.676  41.338   4.329
41740W        W 5948  16.302  30.588   3.214
41741W        W 5949   8.777  23.701   0.413
41742W        W 5950   4.819  42.958   1.844
41743W        W 5951  33.497  29.926  11.006
41744W        W 5952  16.647  13.714  12.444
41745W        W 5953  17.277  17.731  11.987
41746W        W 5954   1.941  22.064   2.671
41747W        W 5955  19.066   0.873  12.512
41748W        W 5956  36.090   0.432   3.720
41749W        W 5957  10.804  21.164   3.867
41750W        W 5958  14.591  29.037  10.516
41751W        W 5959  43.835  20.697   3.633
41752W        W 5960  39.337  38.539  12.876
41753W        W 5961  37.384  31.084   1.887
41754W        W 5962   9.328  19.542   2.865
41755W        W 5963  39.009   6.803  12.077
41756W        W 5964   8.250   3.319   1.282
41757W        W 5965  42.912  41.010   2.371
41758W        W 5966  25.650  36.514   0.930
41759W        W 5967  36.880  36.066  13.544
41760W        W 5968   1.413  11.244  11.566
41761W        W 5969  24.623  26.174  10.457
41762W        W 5970  39.064   8.670  13.792
41763W        W 5971  41.889   2.359  11.428
41764W        W 5972   8.792  10.335   2.783
41765W        W 5973   1.458  25.469   2.898
41766W        W 5974   3.927  37.961   2.295
41767W        W 5975  43.505   9.714  11.584
41768W        W 5976  39.912   3.741  14.382
41769W        W 5977  25.496  17.567   1.884
41770W        W 5978  42.392   2.801  13.402
41771W        W 5979  43.341  29.157   4.273
41772W        W 5980   2.308  30.656   9.557
41773W        W 5981  27.067  43.851   3.177
41774W        W 5982   8.188  22.188   4.777
41775W        W 5983  23.141  33.929   1.213
41776W        W 5984  18.080  35.429  11.943
41777W        W 5985  26.062  43.975  10.581
41778W        W 5986   3.435  39.387   1.384
41779W        W 5987  14.673  32.418   2.756
41780W        W 5988   8.807  44.832  11.391
41781W        W 5989   9.340  39.328   4.276
41782W        W 5990   5.236   7.708   2.706
41783W        W 5991  25.477   8.754  12.906
41784W        W 5992  24.614  40.945  12.949
41785W        W 5993  42.411   7.326  13.002
41786W        W 5994  17.591  23.233  13.535
41787W        W 5995  23.668   4.428   3.248
41788W        W 5996   5.885  32.113  12.894
41789W        W 5997  44.482   8.823   0.480
41790W        W 5998   0.333  44.827   1.768
41791W        W 5999  18.201  21.670   1.716
41792W        W 6000  34.425  39.476   0.401
41793W        W 6001  18.558  26.695  10.522
41794W        W 6002  36.066  20.731  13.054
41795W        W 6003   3.947  20.069  10.953
41796W        W 6004  15.756   0.299  12.523
41797W        W 6005  15.258  24.614   1.888
41798W        W 6006   5.850   3.225  12.342
41799W        W 6007  28.100  40.911   0.459
41800W        W 6008  24.707  16.075  11.380
41801W        W 6009  16.637   7.802   4.312
41802W        W 6010  32.522  41.925   0.916
41803W        W 6011  40.341  16.193  10.523
41804W        W 6012  22.691   0.268   0.897
41805W        W 6013  36.453  14.663  11.505
41806W        W 6014   3.953  29.620   0.443
41807W        W 6015  32.453  19.162   4.236
41808W        W 6016  21.638   2.323   2.834
41809W        W 6017  37.885  15.324  12.383
41810W        W 6018  21.657  36.053   1.300
41811W        W 6019  32.960  13.751   1.897
41812W        W 6020  38.071  30.928  11.032
41813W        W 6021   2.887   5.780   0.399
41814W        W 6022  15.301  31.559  12.928
41815W        W 6023  26.992  20.261   0.295
41816W        W 6024  44.808  39.366   3.347
41817W        W 6025  37.074  36.436  13.517
41818W        W 6026  26.079  14.239   2.722
41819W        W 6027  29.651  36.085  10.643
41820W        W 6028   2.352  12.720   4.669
41821W        W 6029  26.969  16.662   1.772
41822W        W 6030  28.149   6.834  10.535
41823W        W 6031  37.459  21.744   2.301
41824W        W 6032  23.007  36.896   1.296
41825W        W 6033  44.769  30.480   2.196
41826W        W 6034  10.182  30.458  12.871
41827W        W 6035  41.847  20.190   0.390
41828W        W 6036  14.268  38.371  13.963
41829W        W 6037  35.002  35.388   4.668
41830W        W 6038  29.101   4.262   3.661
41831W        W 6039  40.939  12.748   0.392
41832W        W 6040  39.417  44.914   2.188
41833W        W 6041  43.925  38.964  14.927
41834W        W 6042   7.246   1.285   4.296
41835W        W 6043  23.671  21.571   4.796
41836W        W 6044  31.010   2.370   1.286
41837W        W 6045  39.514  10.292   3.666
41838W        W 6046  15.221  38.515   0.887
41839W        W 6047  34.535  42.912  12.893
41840W        W 6048   8.766  24.051  11.970
41841W        W 6049  22.028   1.269   1.915
41842W        W 6050  29.452  36.991  12.843
41843W        W 6051  22.037  20.603   2.705
41844W        W 6052  35.491  17.754  12.999
41845W        W 6053  23.074  42.993   2.178
41846W        W 6054   7.742  21.664   2.386
41847W        W 6055  14.221  16.298   1.372
41848W        W 6056  38.050  22.667  13.956
41849W        W 6057  13.813   2.406   0.876
41850W        W 6058   3.360  19.589   4.834
41851W        W 6059  10.632  13.604   0.266
41852W        W 6060   6.337  26.669  13.407
41853W        W 6061   7.176  42.817   0.277
41854W        W 6062  28.101  37.955  12.553
41855W        W 6063  25.100   3.217  12.015
41856W        W 6064   9.382   6.784  13.817
41857W        W 6065  34.053  25.563  14.863
41858W        W 6066  17.701  37.902   4.207
41859W        W 6067   1.385  16.189  14.368
41860W        W 6068  25.155  34.104   3.716
41861W        W 6069  23.671  16.612   9.646
41862W        W 6070  43.893  23.496  12.827
41863W        W 6071  15.213   1.853  14.933
41864W        W 6072  37.945  32.116  14.471
41865W        W 6073  12.698  18.754  10.514
41866W        W 6074  21.533  44.792  10.979
41867W        W 6075  33.028  14.661   4.732
41868W        W 6076  37.976  43.358   2.740
41869W        W 6077  38.925  21.595   0.884
41870W        W 6078  39.468  27.998   1.253
41871W        W 6079  40.478  16.610  14.825
41872W        W 6080  22.049  13.836  10.627
41873W        W 6081  34.452  20.064   1.747
41874W        W 6082  36.418  40.307   1.927
41875W        W 6083  13.608  34.426  11.580
41876W        W 6084  23.031   6.416   0.868
41877W        W 6085  27.600  42.818   4.826
41878W        W 6086  41.300   9.862  13.915
41879W        W 6087   9.756  29.164  14.918
41880W        W 6088  11.319  43.465  12.534
41881W        W 6089  34.112  26.669  14.825
41882W        W 6090  18.292  42.847  14.437
41883W        W 6091   5.703  30.651  12.018
41884W        W 6092  44.479  31.009  10.927
41885W        W 6093   8.350  14.331   1.745
41886W        W 6094  11.216  16.658  10.983
41887W        W 6095  44.943  28.645   1.898
41888W        W 6096  22.048  31.631  13.870
41889W        W 6097  18.274   9.234  10.544
41890W        W 6098  42.382   7.773  14.958
41891W        W 6099  26.683  26.544  11.393
41892W        W 6100   5.331  12.655   4.824
41893W        W 6101   0.385   5.918   1.448
41894W        W 6102  17.596   8.197   0.773
41895W        W 6103  35.590  24.659  11.908
41896W        W 6104  29.149  40.508  13.422
41897W        W 6105  21.721  27.097  13.807
41898W        W 6106  25.575  16.641  13.457
41899W        W 6107  27.535  27.100   3.736
41900W        W 6108   7.281   3.457   3.638
41901W        W 6109  28.155  22.062  10.423
41902W        W 6110  33.387  15.162   0.942
41903W        W 6111  31.543  31.005  12.357
41904W        W 6112  19.565   4.800  13.829
41905W        W 6113  22.542  42.381  12.940
41906W        W 6114  33.942   9.149   0.798
41907W        W 6115  10.755  25.171   0.448
41908W        W 6116  18.614  36.844   3.266
41909W        W 6117  40.960   7.696   3.811
41910W        W 6118  12.766  43.857   2.835
41911W        W 6119  32.563   1.781  14.408
41912W        W 6120  28.482  21.664   1.390
41913W        W 6121  22.680  20.181  14.990
41914W        W 6122  40.872  43.506   4.666
41915W        W 6123  23.675  44.296   4.224
41916W        W 6124  11.803  34.369   0.260
41917W        W 6125  38.350  39.948  12.834
41918W        W 6126  35.399  12.331   1.746
41919W        W 6127   6.776   4.370   3.741
41920W        W 6128  39.949  39.461   3.284
41921W        W 6129   6.262   7.670  10.627
41922W        W 6130   8.395  34.026  13.465
41923W        W 6131  41.944  25.970   1.372
41924W        W 6132  17.125  34.496   3.216
41925W        W 6133  20.082  16.249   1.368
41926W        W 6134  32.452  32.492  13.022
41927W        W 6135  13.604   2.724   2.414
41928W        W 6136  42.985   0.446   3.201
41929W        W 6137  32.977   8.325  14.381
41930W        W 6138  35.005  10.820  10.517
41931W        W 6139  12.821  34.490   4.312
41932W        W 6140   9.204  35.893  11.942
41933W        W 6141   3.840  33.383   4.661
41934W        W 6142  29.425  41.298  14.004
41935W        W 6143   2.922   4.747  10.511
41936W        W 6144  29.578  16.648   1.901
41937W        W 6145  39.861   6.309   3.651
41938W        W 6146  18.617   7.266   1.315
41939W        W 6147  13.301  11.805  11.861
41940W        W 6148  42.929   3.754  12.576
41941W        W 6149  40.803  20.600  10.420
41942W        W 6150  26.076   8.168  12.561
41943W        W 6151   2.289  35.450   3.214
41944W        W 6152  39.040  35.560  12.001
41945W        W 6153  14.111   9.694  11.012
41946W        W 6154   3.859   0.487   4.803
41947W        W 6155  14.591   2.888  12.974
41948W        W 6156  13.205  13.344   1.368
41949W        W 6157  40.961  22.229   4.632
41950W        W 6158  26.606  20.164  11.892
41951W        W 6159  22.016  42.005  10.492
41952W        W 6160  40.979  33.531   3.779
41953W        W 6161   4.739  17.274  13.047
41954W        W 6162  11.621  40.979  11.935
41955W        W 6163  15.088  19.600   0.812
41956W        W 6164  18.779  20.565   3.712
41957W        W 6165  31.509  30.506  10.952
41958W        W 6166   8.220  27.499   3.366
41959W        W 6167  35.949  24.541   2.391
41960W        W 6168   3.789  38.899   3.833
41961W        W 6169  39.933   3.445  10.961
41962W        W 6170  37.508  30.427  14.931
41963W        W 6171  33.608  37.564  12.851
41964W        W 6172  12.289  34.976  14.947
41965W        W 6173   5.754  20.100  12.990
41966W        W 6174  28.610  33.130   0.746
41967W        W 6175  35.441   7.726   2.252
41968W        W 6176  35.048  22.131   3.792
41969W        W 6177  27.089   7.809   4.754
41970W        W 6178   1.409  13.627   3.156
41971W        W 6179  33.928  39.820   0.766
41972W        W 6180  40.853   2.858  12.093
41973W        W 6181   8.323  36.531  13.058
41974W        W 6182  24.599  38.867  14.461
41975W        W 6183   9.722  13.221   4.308
41976W        W 6184  18.714  35.031  10.502
41977W        W 6185  19.677   9.232   1.891
41978W        W 6186  22.149  13.312   4.613
41979W        W 6187  35.883   3.357   0.837
41980W        W 6188  36.915  29.148   3.294
41981W        W 6189  17.066  24.625   0.799
41982W        W 6190  30.598  44.836  13.960
41983W        W 6191  19.767  39.322  14.986
41984W        W 6192  11.780   3.716  12.033
41985W        W 6193  41.513  11.196  14.481
41986W        W 6194  28.115  35.926   3.790
41987W        W 6195  41.008   6.293   1.915
41988W        W 6196   4.892  32.607  11.496
41989W        W 6197  28.138  11.793   2.708
41990W        W 6198  41.914  32.952  12.044
41991W        W 6199  10.860  23.112  13.327
41992W        W 6200  34.079   7.687   2.743
41993W        W 6201  33.624  19.577  11.968
41994W        W 6202  32.030  21.183   0.424
41995W        W 6203  35.430  17.789  10.577
41996W        W 6204  28.619  43.837  12.473
41997W        W 6205   4.246  22.176  14.021
41998W        W 6206  32.459   1.778   1.748
41999W        W 6207  20.223   1.389  10.942
42000W        W 6208   0.338  10.142   2.684
42001W        W 6209  12.653   4.411   2.208
42002W        W 6210  38.907   7.213  14.024
42003W        W 6211  10.706  42.825   0.896
42004W        W 6212  16.171  38.854   1.884
42005W        W 6213  38.063  29.976   0.318
42006W        W 6214  10.346  37.837  13.035
42007W        W 6215  22.697  27.035  13.822
42008W        W 6216   6.419  38.458   1.400
42009W        W 6217   9.742  34.471   4.117
42010W        W 6218   1.792  39.877  10.637
42011W        W 6219  41.862  32.459  13.406
42012W        W 6220  11.759   2.358   1.232
42013W        W 6221  10.260  36.431  14.975
42014W        W 6222  36.966  35.523   1.321
42015W        W 6223  43.803   4.323   2.276
42016W        W 6224  34.871  37.436   1.729
42017W        W 6225   2.285  11.703  12.914
42018W        W 6226  28.681   6.722  14.762
42019W        W 6227  18.651  18.691  14.992
42020W        W 6228  11.678  33.929  10.899
42021W        W 6229  10.716   3.299  11.982
42022W        W 6230   2.834  25.534   4.817
42023W        W 6231  32.936  13.711  10.445
42024W        W 6232  16.093   6.778   0.258
42025W        W 6233   7.783  12.771   3.209
42026W        W 6234   3.291  19.757   1.431
42027W        W 6235   4.800  23.188   5.193
42028W        W 6236  35.008   3.366  13.547
42029W        W 6237  10.333   5.716  10.132
42030W        W 6238  16.092  32.553   1.343
42031W        W 6239   7.265  18.697   4.622
42032W        W 6240   2.893   6.745  11.430
42033W        W 6241  12.276   2.769  11.904
42034W        W 6242   1.740  34.091   0.451
42035W        W 6243  41.519   9.164   1.446
42036W        W 6244  25.165  43.457  10.985
42037W        W 6245  33.965   6.316  11.397
42038W        W 6246  43.499   5.877   1.767
42039W        W 6247  12.204  34.975  13.339
42040W        W 6248  43.916  22.672  13.479
42041W        W 6249  11.624  28.675  11.531
42042W        W 6250  18.296  26.160   3.374
42043W        W 6251  18.613   9.873   3.642
42044W        W 6252  20.583  35.577   0.768
42045W        W 6253  18.640  12.836  12.024
42046W        W 6254  34.546  40.373   1.830
42047W        W 6255  27.478  29.570   4.789
42048W        W 6256   9.167  25.964  12.870
42049W        W 6257  36.564  35.477   3.386
42050W        W 6258  41.937  36.414   3.754
42051W        W 6259   8.178  13.347   0.363
42052W        W 6260  39.337  31.602   0.938
42053W        W 6261  17.612  42.819   3.196
42054W        W 6262  21.232  37.973   4.344
42055W        W 6263  41.952  27.105   4.824
42056W        W 6264  10.764  36.893  10.938
42057W        W 6265  21.632  24.122   3.239
42058W        W 6266  28.559   8.887  12.534
42059W        W 6267  15.257  36.481  13.008
42060W        W 6268  15.805  17.264  13.849
42061W        W 6269   1.975  44.328  11.449
42062W        W 6270  23.548   7.840  12.392
42063W        W 6271  31.512  25.525   0.290
42064W        W 6272   9.375  31.083  13.925
42065W        W 6273   1.820  27.152   2.870
42066W        W 6274   5.744  31.521   0.312
42067W        W 6275  30.026  27.947  12.048
42068W        W 6276  32.930  11.718   2.888
42069W        W 6277  14.141  11.735   4.706
42070W        W 6278  20.160  29.987   4.819
42071W        W 6279  25.055   0.791   0.928
42072W        W 6280   9.855  27.028   0.480
42073W        W 6281  13.305  31.034  12.002
42074W        W 6282  40.996  28.012  11.953
42075W        W 6283  42.335  15.635  12.096
42076W        W 6284  33.455  33.983  10.043
42077W        W 6285  25.499  35.913  12.396
42078W        W 6286  44.769  39.377   4.600
42079W        W 6287  36.453  17.651   2.333
42080W        W 6288  35.998   5.265   3.196
42081W        W 6289  21.131  23.500  14.348
42082W        W 6290  17.597  28.548  13.536
42083W        W 6291  13.155   5.366  13.350
42084W        W 6292  27.453  31.477   3.712
42085W        W 6293  32.124  10.725   2.307
42086W        W 6294   8.354  20.150  12.993
42087W        W 6295   6.920  23.576  13.393
42088W        W 6296  43.458   7.707  13.472
42089W        W 6297   1.813  14.794   1.390
42090W        W 6298  41.890   1.353   5.104
42091W        W 6299  41.456  35.021   4.831
42092W        W 6300   2.357  11.828  11.909
42093W        W 6301  24.534  13.664  12.422
42094W        W 6302  31.417  33.479  12.474
42095W        W 6303  15.303  30.010  10.590
42096W        W 6304  29.527  14.294   1.421
42097W        W 6305  30.084  33.089  10.919
42098W        W 6306  20.035   7.399   2.293
42099W        W 6307  10.166  21.118   1.282
42100W        W 6308  15.705  36.047   5.126
42101W        W 6309  29.963  32.956   1.277
42102W        W 6310   5.928   5.923   2.414
42103W        W 6311   8.263   6.186   3.183
42104W        W 6312  39.501  17.751   3.866
42105W        W 6313   8.295  19.144   2.227
42106W        W 6314  36.435  23.238  12.915
42107W        W 6315  42.306  15.776   4.320
42108W        W 6316  17.063   0.436  10.639
42109W        W 6317  22.133  26.093   4.277
42110W        W 6318   2.446  28.552   1.224
42111W        W 6319  13.197  21.634  12.359
42112W        W 6320  33.523  30.426   3.377
42113W        W 6321  14.698  32.986   0.377
42114W        W 6322  27.634   0.456   4.680
42115W        W 6323  12.693  42.470   1.441
42116W        W 6324  20.253   6.250  12.427
42117W        W 6325  38.858  25.589  10.623
42118W        W 6326  22.229  44.820   4.284
42119W        W 6327  42.025  19.192  14.888
42120W        W 6328  21.021  22.111  12.029
42121W        W 6329  29.102  41.426  11.048
42122W        W 6330  13.655  24.135  10.617
42123W        W 6331   7.190  32.054  13.975
42124W        W 6332  12.317   8.895   4.220
42125W        W 6333   4.261   3.349  11.487
42126W        W 6334  37.003   0.486  12.542
42127W        W 6335  19.111  33.600  10.611
42128W        W 6336  21.569   4.303   1.407
42129W        W 6337  37.526  30.125   4.144
42130W        W 6338  29.635  39.033   4.628
42131W        W 6339  21.164   2.262  14.507
42132W        W 6340  35.866  10.755  11.909
42133W        W 6341   9.172  34.474  11.591
42134W        W 6342  28.536  18.652  12.993
42135W        W 6343  17.722  23.558  12.949
42136W        W 6344  15.240  18.570   4.825
42137W        W 6345  10.738   9.673   3.243
42138W        W 6346  24.526  44.916   4.314
42139W        W 6347   7.276  24.057  12.380
42140W        W 6348  26.658  11.257   0.884
42141W        W 6349  39.900  30.644   3.270
42142W        W 6350   0.797  10.184   2.299
42143W        W 6351   7.377   5.786   4.674
42144W        W 6352  30.103   4.378   4.776
42145W        W 6353  43.920  23.664  14.931
42146W        W 6354  23.043  21.618   4.719
42147W        W 6355   6.746  12.654  13.062
42148W        W 6356   3.776  41.520   5.207
42149W        W 6357  34.067  31.901   2.272
42150W        W 6358  23.549   7.221  13.048
42151W        W 6359  12.138  28.985  10.966
42152W        W 6360  19.103  40.045   3.233
42153W        W 6361  36.097   4.794  10.941
42154W        W 6362  35.059  38.913  13.859
42155W        W 6363  22.645  24.075  13.373
42156W        W 6364   1.240  31.959   0.740
42157W        W 6365  38.379  19.768   4.689
42158W        W 6366   2.234  15.713  11.579
42159W        W 6367  28.977  43.790   3.825
42160W        W 6368  18.278  23.239   0.946
42161W        W 6369  32.052  26.021   2.733
42162W        W 6370  17.201   8.322   2.748
42163W        W 6371   0.325  39.513   3.207
42164W        W 6372   0.954  13.721  11.582
42165W        W 6373  10.279  31.617  12.912
42166W        W 6374  26.463  34.380   1.701
42167W        W 6375   3.893  27.124   4.799
42168W        W 6376  36.467  38.073   1.811
42169W        W 6377   5.920  20.037  14.505
42170W        W 6378  25.604   1.800   0.332
42171W        W 6379   1.743   2.872  13.898
42172W        W 6380  10.222  30.054   3.827
42173W        W 6381  38.398  41.349   4.193
42174W        W 6382  31.921  21.754  12.549
42175W        W 6383   1.410   3.850   4.345
42176W        W 6384  28.553   8.182  11.900
42177W        W 6385  22.067  39.979   4.168
42178W        W 6386  17.299  44.814  13.533
42179W        W 6387  39.857   5.693  10.895
42180W        W 6388   1.475  27.648  11.464
42181W        W 6389   4.870  29.028   3.716
42182W        W 6390  29.986  29.148  13.493
42183W        W 6391  13.743  22.251  14.954
42184W        W 6392  16.293  43.392  10.425
42185W        W 6393   9.868  30.649   4.733
42186W        W 6394  28.637   1.305  12.380
42187W        W 6395  31.619  19.661  11.435
42188W        W 6396   8.211  25.090   0.921
42189W        W 6397  16.778   5.836   0.421
42190W        W 6398   4.882  23.078   2.242
42191W        W 6399  13.119  16.711  10.609
42192W        W 6400   9.692  36.849  11.006
42193W        W 6401  13.120  25.208   0.475
42194W        W 6402  43.290   3.304  13.026
42195W        W 6403   9.835   2.392  13.508
42196W        W 6404  17.137  22.137   1.808
42197W        W 6405  22.013  23.684   4.658
42198W        W 6406  37.893  36.997  12.094
42199W        W 6407  10.292  18.761   4.797
42200W        W 6408  21.137  36.072  10.020
42201W        W 6409   4.281  20.044   2.282
42202W        W 6410   7.818   9.669   0.453
42203W        W 6411  33.410   9.821   1.249
42204W        W 6412  14.186  12.784   3.764
42205W        W 6413  35.465  26.492  13.992
42206W        W 6414   4.224  35.104  11.392
42207W        W 6415   5.375  12.846   1.301
42208W        W 6416   8.166  43.437  14.351
42209W        W 6417   1.908  24.095  11.884
42210W        W 6418  23.691   7.810   0.766
42211W        W 6419  15.218  34.545  10.493
42212W        W 6420  23.206  16.785  12.850
42213W        W 6421  38.477  14.612  11.075
42214W        W 6422  20.110   3.360   3.188
42215W        W 6423  37.929  27.572   3.201
42216W        W 6424  22.076  30.144  13.383
42217W        W 6425  31.122   4.293   1.320
42218W        W 6426  28.162  21.723   2.239
42219W        W 6427  24.640  21.635   2.709
42220W        W 6428  18.219  20.549   2.385
42221W        W 6429  30.564  33.413   0.293
42222W        W 6430  29.601  31.423   1.376
42223W        W 6431   0.278  11.185  11.026
42224W        W 6432   3.267  26.580   3.845
42225W        W 6433   8.231  27.135  13.830
42226W        W 6434  32.940  33.407   0.357
42227W        W 6435  17.097  17.595  14.401
42228W        W 6436  11.156  41.409   0.438
42229W        W 6437  25.138  33.027  12.476
42230W        W 6438  27.492  25.592  10.425
42231W        W 6439  28.542  30.934  10.591
42232W        W 6440  37.392  30.427  11.998
42233W        W 6441  43.848  42.912   1.851
42234W        W 6442  38.460  28.522   3.271
42235W        W 6443  15.653  38.429  13.348
42236W        W 6444   8.756  31.454  11.534
42237W        W 6445   4.268   3.283   0.896
42238W        W 6446  30.541   9.209   1.260
42239W        W 6447  26.694   4.274  10.606
42240W        W 6448  13.265  17.661  13.005
42241W        W 6449  28.060  24.119  14.289
42242W        W 6450  19.263  10.338   4.653
42243W        W 6451  37.507  17.301  13.456
42244W        W 6452  17.603  25.642  14.438
42245W        W 6453  39.000  25.004   9.985
42246W        W 6454  39.032  27.590   9.950
42247W        W 6455   1.438  13.303   1.366
42248W        W 6456  31.012  18.063   3.223
42249W        W 6457  23.610  19.242   3.218
42250W        W 6458  22.689  34.049   0.336
42251W        W 6459  28.085  26.466  14.417
42252W        W 6460  18.180  23.222  11.582
42253W        W 6461   1.367   7.909  13.310
42254W        W 6462  11.845   6.874   3.742
42255W        W 6463  37.964  42.408  11.601
42256W        W 6464  38.893  10.249   3.722
42257W        W 6465  17.636  41.480   3.158
42258W        W 6466  42.349  10.777   0.381
42259W        W 6467  43.279  27.109  13.865
42260W        W 6468  21.142  17.690  13.034
42261W        W 6469  10.795  31.590  14.017
42262W        W 6470  35.406   9.818  13.849
42263W        W 6471  21.722  42.030  11.596
42264W        W 6472  24.062  34.019   3.158
42265W        W 6473  37.933  12.214   0.915
42266W        W 6474   9.838  38.995   1.829
42267W        W 6475   3.457  44.776   0.922
42268W        W 6476  15.625  34.971   5.293
42269W        W 6477  11.303  12.203   2.267
42270W        W 6478  19.119  43.294   4.159
42271W        W 6479  31.554  19.740  11.994
42272W        W 6480  42.849  17.626  10.905
42273W        W 6481  24.575  32.391   1.718
42274W        W 6482  20.176  15.691   4.221
42275W        W 6483  19.154  16.751   9.546
42276W        W 6484   4.929  17.266   4.654
42277W        W 6485  44.863  30.065   2.255
42278W        W 6486  17.743   5.288  10.502
42279W        W 6487   6.725  41.032  11.462
42280W        W 6488   9.887  11.799   3.255
42281W        W 6489  32.558  10.801   2.826
42282W        W 6490   1.854  17.590  10.982
42283W        W 6491  12.323  29.554  10.961
42284W        W 6492  11.210  29.627  14.834
42285W        W 6493   8.385  20.666  13.487
42286W        W 6494  33.533  32.888  10.442
42287W        W 6495  44.989  23.224  12.080
42288W        W 6496  38.043  41.814  13.985
42289W        W 6497  33.568  44.001  11.592
42290W        W 6498  10.145   2.317   2.286
42291W        W 6499  34.372  30.629  14.431
42292W        W 6500  18.555  42.845  14.349
42293W        W 6501   2.314  41.486   2.413
42294W        W 6502  32.940  44.340   0.253
42295W        W 6503  20.562  15.314  10.420
42296W        W 6504   0.361  43.493  13.404
42297W        W 6505  32.498  24.628  13.020
42298W        W 6506  26.676  29.099  13.408
42299W        W 6507  35.544  17.096   1.825
42300W        W 6508  13.713  36.062   1.239
42301W        W 6509  23.580  33.545  12.017
42302W        W 6510   8.819  15.252  13.403
42303W        W 6511  21.679  30.142  11.032
42304W        W 6512   7.853  14.313   1.292
42305W        W 6513  20.049  11.634   3.838
42306W        W 6514  15.232  36.484  12.431
42307W        W 6515  11.352  11.203  11.425
42308W        W 6516  19.564   0.265  10.934
42309W        W 6517  15.120   1.914   0.748
42310W        W 6518  26.114  24.632   4.151
42311W        W 6519  21.651   8.830  13.461
42312W        W 6520  40.936  20.210  10.062
42313W        W 6521  10.174  34.461  14.974
42314W        W 6522  41.861  40.962   0.836
42315W        W 6523  24.649   2.825  12.987
42316W        W 6524  36.048  35.086   2.211
42317W        W 6525  41.416  31.528  10.893
42318W        W 6526  29.566  29.111  12.829
42319W        W 6527  23.059  16.759   0.934
42320W        W 6528   9.857  22.720  12.064
42321W        W 6529  13.659   9.188  12.534
42322W        W 6530   5.286   4.250  10.491
42323W        W 6531  12.718   8.864  13.358
42324W        W 6532  30.543  32.521   1.893
42325W        W 6533  20.162  31.568   1.816
42326W        W 6534  35.005  37.392  11.406
42327W        W 6535   4.861  40.984   1.288
42328W        W 6536  14.713  39.019   1.896
42329W        W 6537  36.088  43.430   2.182
42330W        W 6538  21.615  31.561  11.602
42331W        W 6539  18.155  40.932   2.329
42332W        W 6540  28.483  31.642   2.292
42333W        W 6541  34.934  23.675  12.362
42334W        W 6542  33.559  39.809   1.354
42335W        W 6543  33.048  25.122  12.988
42336W        W 6544  17.283  17.595   2.413
42337W        W 6545  36.455  24.100  14.367
42338W        W 6546   7.666  38.911   4.701
42339W        W 6547  23.584  37.877  14.006
42340W        W 6548  19.538  34.977   1.362
42341W        W 6549  34.381   3.266   3.218
42342W        W 6550  38.994  40.334  13.478
42343W        W 6551  10.659  27.655   3.279
42344W        W 6552  20.685   5.771  14.869
42345W        W 6553   9.801  23.034  14.999
42346W        W 6554  33.955  42.788  10.541
42347W        W 6555  39.912   8.883   3.698
42348W        W 6556  44.444  17.109   5.235
42349W        W 6557  12.140   5.800   3.229
42350W        W 6558  25.154  16.200  12.068
42351W        W 6559   9.308   1.293   0.938
42352W        W 6560  41.380   8.162  13.459
42353W        W 6561   2.296  35.870   2.319
42354W        W 6562  18.600  33.508   0.356
42355W        W 6563  35.936  15.624   3.380
42356W        W 6564  34.496  29.092   4.246
42357W        W 6565  13.823  38.914  10.427
42358W        W 6566  37.410  19.273   4.149
42359W        W 6567  40.376   4.264   5.733
42360W        W 6568  31.910  13.792   1.905
42361W        W 6569  27.639  22.178  13.899
42362W        W 6570   8.177   6.274  12.021
42363W        W 6571  34.109  40.843   2.371
42364W        W 6572  43.397  22.606   3.754
42365W        W 6573  20.614  43.000   4.822
42366W        W 6574  37.977  34.612  11.413
42367W        W 6575   2.371  30.507   3.203
42368W        W 6576  38.482  13.217  14.827
42369W        W 6577   0.775  21.700  12.961
42370W        W 6578  18.142  28.463   1.866
42371W        W 6579  32.526  36.851  13.811
42372W        W 6580  25.219  21.641  10.597
42373W        W 6581  12.247  12.263  13.897
42374W        W 6582  15.307  10.255  14.274
42375W        W 6583  12.681  12.678  13.895
42376W        W 6584  11.635   6.263  14.358
42377W        W 6585  23.688  25.582   3.322
42378W        W 6586  39.437  13.301   4.219
42379W        W 6587  16.597  36.912   2.788
42380W        W 6588  14.222  31.587   2.833
42381W        W 6589   1.434  20.150   3.642
42382W        W 6590  25.104  43.016  14.438
42383W        W 6591  16.654   1.287   3.866
42384W        W 6592  25.497  22.124  14.293
42385W        W 6593  25.053  18.052   3.157
42386W        W 6594  35.002   0.358   1.826
42387W        W 6595  26.661   8.802  12.482
42388W        W 6596  14.253  21.179  11.032
42389W        W 6597   6.803  14.320   4.714
42390W        W 6598  38.415  12.319   3.330
42391W        W 6599  32.122   7.256  12.565
42392W        W 6600  21.110  15.811  10.438
42393W        W 6601  44.004  12.227   2.276
42394W        W 6602  35.585   3.275   0.768
42395W        W 6603  26.015  10.278   4.648
42396W        W 6604  39.987  37.450  13.941
42397W        W 6605   8.331   1.944  14.957
42398W        W 6606  42.439  36.500   2.343
42399W        W 6607   1.287  38.924   0.429
42400W        W 6608  28.178  28.121  13.482
42401W        W 6609  40.812  19.694  12.529
42402W        W 6610   6.261  40.856   2.887
42403W        W 6611  25.566  35.940   1.837
42404W        W 6612  25.218   8.775   4.693
42405W        W 6613  21.037  28.434   4.640
42406W        W 6614  20.525  44.313   0.846
42407W        W 6615  35.372  22.079  14.942
42408W        W 6616  12.332  32.916  13.052
42409W        W 6617  19.556   3.884  13.334
42410W        W 6618  44.374   3.220   0.927
42411W        W 6619   2.920  39.853   4.690
42412W        W 6620   8.353   8.780   4.162
42413W        W 6621  44.326  12.338  13.033
42414W        W 6622  33.473  25.079   0.298
42415W        W 6623  31.122   7.264   0.859
42416W        W 6624  12.205  35.928  12.368
42417W        W 6625  39.528  19.634   1.932
42418W        W 6626  29.973   6.831   0.876
42419W        W 6627  30.007  19.738   4.715
42420W        W 6628  11.785   1.475  13.842
42421W        W 6629  22.585  24.998   3.368
42422W        W 6630  26.969  11.161  13.516
42423W        W 6631   3.903   2.937  10.567
42424W        W 6632   7.336  17.730   0.342
42425W        W 6633  41.387   5.899  13.507
42426W        W 6634  28.602   0.744   3.236
42427W        W 6635  40.805  16.125  14.896
42428W        W 6636   2.248  29.658   5.146
42429W        W 6637  40.833   0.930  12.849
42430W        W 6638  10.257  32.497   3.232
42431W        W 6639   4.747  15.693   5.248
42432W        W 6640   8.729  18.150   3.852
42433W        W 6641   9.228  32.506  13.470
42434W        W 6642   1.247  41.020  14.794
42435W        W 6643   5.307  20.255  14.992
42436W        W 6644  34.600   0.983   0.334
42437W        W 6645  25.613  26.620  14.417
42438W        W 6646   5.332   7.266   1.267
42439W        W 6647  12.661  11.767  12.438
42440W        W 6648  38.857  12.691   2.286
42441W        W 6649  24.567  38.024   0.800
42442W        W 6650  21.234  31.585  10.931
42443W        W 6651   5.388  27.585  10.463
42444W        W 6652  26.048  21.057  12.409
42445W        W 6653  40.011  28.081  10.917
42446W        W 6654  19.695   2.319   0.267
42447W        W 6655  20.685  19.723  14.006
42448W        W 6656  37.975  26.129   4.152
42449W        W 6657  15.661  23.599   4.331
42450W        W 6658   6.823  18.639  11.052
42451W        W 6659  42.895   4.884   0.306
42452W        W 6660  44.010  34.420   4.161
42453W        W 6661  33.597   1.473   0.408
42454W        W 6662   9.305  40.324  13.315
42455W        W 6663  27.638  10.237  14.405
42456W        W 6664  25.220  30.554   1.275
42457W        W 6665   1.469  40.956   3.179
42458W        W 6666  27.464  41.968   1.844
42459W        W 6667  30.088  13.750  11.977
42460W        W 6668  34.374  30.534  11.023
42461W        W 6669   8.894  40.828  13.829
42462W        W 6670   9.769  28.543  13.458
42463W        W 6671  33.057  16.659  11.918
42464W        W 6672   7.195  30.050  13.863
42465W        W 6673  16.164  26.070   1.425
42466W        W 6674   8.707  23.566  11.018
42467W        W 6675  34.944   3.352   2.818
42468W        W 6676  35.951   9.694   0.319
42469W        W 6677  23.111  19.621  13.790
42470W        W 6678  21.522   7.846  12.578
42471W        W 6679  39.551  37.981  12.339
42472W        W 6680   3.433   8.673  14.884
42473W        W 6681   3.863   4.932  12.961
42474W        W 6682   4.725  18.129  12.567
42475W        W 6683  29.515  21.685  12.066
42476W        W 6684   2.758  44.843   4.221
42477W        W 6685  21.252  14.187  11.534
42478W        W 6686   0.316   4.743   5.082
42479W        W 6687  26.598  12.708  12.065
42480W        W 6688  30.472  27.997   3.809
42481W        W 6689  12.136  26.638  10.452
42482W        W 6690  16.570  18.217  10.483
42483W        W 6691  31.533  42.472   0.434
42484W        W 6692  35.402   8.295  10.583
42485W        W 6693  24.669  34.026   3.170
42486W        W 6694   0.372   8.896   2.823
42487W        W 6695  26.154  40.494   2.694
42488W        W 6696  42.387   7.405  10.603
42489W        W 6697  12.196  44.275   3.771
42490W        W 6698   4.941   5.767  13.477
42491W        W 6699   5.198  43.322   2.356
42492W        W 6700  44.762  23.678   4.197
42493W        W 6701  20.070  34.875   2.781
42494W        W 6702  44.815  33.891   2.680
42495W        W 6703  42.803  16.144   1.444
42496W        W 6704  37.426  41.350  13.434
42497W        W 6705   2.920  24.500   3.810
42498W        W 6706  28.143  14.247   0.924
42499W        W 6707  27.517  27.619   0.253
42500W        W 6708  15.770   8.340  14.304
42501W        W 6709  43.327  35.439   1.414
42502W        W 6710   8.765   6.424   3.187
42503W        W 6711  19.209  41.038  11.948
42504W        W 6712  21.198  44.917   0.809
42505W        W 6713  25.515  24.990  14.762
42506W        W 6714  39.494  24.045   3.217
42507W        W 6715   0.906  11.688  14.841
42508W        W 6716  21.609  20.530   4.736
42509W        W 6717  16.158  19.280   1.807
42510W        W 6718  31.647  39.989   4.255
42511W        W 6719  39.991   5.201  10.568
42512W        W 6720   1.873   6.412  12.984
42513W        W 6721  24.565  39.902  14.813
42514W        W 6722   4.322  40.491  14.314
42515W        W 6723  14.291  13.275   0.365
42516W        W 6724  21.719   1.400  13.377
42517W        W 6725  44.832  18.568  11.462
42518W        W 6726  35.439  16.599  14.936
42519W        W 6727  23.517  34.988   4.159
42520W        W 6728  39.364  32.092   3.640
42521W        W 6729  13.179   2.928  14.457
42522W        W 6730  42.461  35.478   0.805
42523W        W 6731  23.013   9.719  14.418
42524W        W 6732  43.333   6.231   1.824
42525W        W 6733  20.612  16.604  14.373
42526W        W 6734  43.995  38.486   0.893
42527W        W 6735  29.635  34.560  14.413
42528W        W 6736  15.587  34.888   1.862
42529W        W 6737   9.224  14.775  13.533
42530W        W 6738  12.730  11.772  11.871
42531W        W 6739   1.742  36.444  11.373
42532W        W 6740  40.477  32.117  11.421
42533W        W 6741  23.197   3.910   4.620
42534W        W 6742   7.405  18.294  12.511
42535W        W 6743  14.722  29.501  12.430
42536W        W 6744  10.744  24.705   4.284
42537W        W 6745  43.467  13.307  13.048
42538W        W 6746  23.087  41.395  13.518
42539W        W 6747  15.641  20.705  14.768
42540W        W 6748  21.186  30.053  14.801
42541W        W 6749  36.913  37.002   0.778
42542W        W 6750  20.539  37.068   4.175
42543W        W 6751  13.336   8.328   1.898
42544W        W 6752   3.756  19.746   3.190
42545W        W 6753   9.375  17.696   2.272
42546W        W 6754  17.084  10.327   4.781
42547W        W 6755   1.354  29.530  13.037
42548W        W 6756  31.988  19.070   0.778
42549W        W 6757  24.639  28.588   0.754
42550W        W 6758  35.966  13.755  14.996
42551W        W 6759   6.829  14.674   4.812
42552W        W 6760  10.379  23.622   0.958
42553W        W 6761  10.785  41.956  12.965
42554W        W 6762  12.781  25.185   2.335
42555W        W 6763  15.626  40.329   2.678
42556W        W 6764  26.104  29.505   1.417
42557W        W 6765  14.191  20.202  14.288
42558W        W 6766   0.879  31.602  14.952
42559W        W 6767  16.307  29.628   1.296
42560W        W 6768   9.268  28.998  13.375
42561W        W 6769  29.026  23.094  10.931
42562W        W 6770  25.059  33.072   2.807
42563W        W 6771  42.337  32.961  11.596
42564W        W 6772   8.693   5.694   2.368
42565W        W 6773  10.718  11.247  14.918
42566W        W 6774   5.303  15.179   2.868
42567W        W 6775   2.751  11.669  10.611
42568W        W 6776  28.109  43.775  14.031
42569W        W 6777   9.323   3.764   2.855
42570W        W 6778   1.849   5.809  13.000
42571W        W 6779  12.256  26.157  12.061
42572W        W 6780   6.251  39.396   2.792
42573W        W 6781  43.892   2.322  12.072
42574W        W 6782  22.644   9.174  14.765
42575W        W 6783  35.531   4.399  14.999
42576W        W 6784   6.858  23.632  12.355
42577W        W 6785   4.268  36.985  11.085
42578W        W 6786  29.542  18.165  14.822
42579W        W 6787  19.757  19.111   0.266
42580W        W 6788  12.277  17.153  10.468
42581W        W 6789  36.562   4.927   1.434
42582W        W 6790  17.557  39.437  10.467
42583W        W 6791   7.415  31.401   2.701
42584W        W 6792  27.579  15.085  14.315
42585W        W 6793  31.122  39.994  11.398
42586W        W 6794   4.726   3.899  14.779
42587W        W 6795  39.013  37.858  13.032
42588W        W 6796   2.468  37.501  10.640
42589W        W 6797   7.335   4.927   0.820
42590W        W 6798  37.392  23.678   4.710
42591W        W 6799  25.056   9.253   4.296
42592W        W 6800  32.011   6.689   3.667
42593W        W 6801  19.113  13.323  11.511
42594W        W 6802  39.982   4.729   5.797
42595W        W 6803  29.449  15.804   2.864
42596W        W 6804  37.851   3.806   2.233
42597W        W 6805  42.368   7.406  11.095
42598W        W 6806   2.453  13.748   0.328
42599W        W 6807  33.966  31.572  14.888
42600W        W 6808   1.969  24.204  12.954
42601W        W 6809  24.217  30.649  14.513
42602W        W 6810   3.380  33.460   1.387
42603W        W 6811  25.501  25.530  13.040
42604W        W 6812  13.684  39.511  10.589
42605W        W 6813   2.330   9.174  14.779
42606W        W 6814  40.453  42.849  14.788
42607W        W 6815  35.085  17.101  13.476
42608W        W 6816  14.302  36.413  11.513
42609W        W 6817   7.784  13.778  13.906
42610W        W 6818  20.560  14.665   0.342
42611W        W 6819  14.756  39.812   3.737
42612W        W 6820  12.664  30.633   3.677
42613W        W 6821   9.765  40.033  13.989
42614W        W 6822  32.094   4.828   0.825
42615W        W 6823  27.610  20.052   4.151
42616W        W 6824  40.335  32.127  14.303
42617W        W 6825  14.675   5.730   4.781
42618W        W 6826  11.706   3.416   1.385
42619W        W 6827  43.899   0.938  12.901
42620W        W 6828   5.718  16.635   0.768
42621W        W 6829  43.856   8.306  13.321
42622W        W 6830  35.387   6.751   3.728
42623W        W 6831   0.884  22.599  11.439
42624W        W 6832  31.440  26.593  11.088
42625W        W 6833   7.339  13.284  14.375
42626W        W 6834  28.117   3.855   9.970
42627W        W 6835  25.527  26.592   2.720
42628W        W 6836   4.907  25.647   1.259
42629W        W 6837  38.839  33.972  14.512
42630W        W 6838  38.923   9.846  14.763
42631W        W 6839  43.393  11.329  12.505
42632W        W 6840  42.947  20.154  12.835
42633W        W 6841  33.424   8.672   1.747
42634W        W 6842   4.930  35.487  13.914
42635W        W 6843  17.153  29.962   2.741
42636W        W 6844  12.339  20.166  10.426
42637W        W 6845   8.213  34.091  10.560
42638W        W 6846  33.511  44.296  13.493
42639W        W 6847  27.121  38.029  14.822
42640W        W 6848  29.588  36.458   2.404
42641W        W 6849  24.705   2.232   0.910
42642W        W 6850  20.108  42.430  10.585
42643W        W 6851   7.824  41.851   3.763
42644W        W 6852  33.047  36.865  11.491
42645W        W 6853  34.946  35.481   1.908
42646W        W 6854   1.440   0.292  11.893
42647W        W 6855  28.051  12.616   3.856
42648W        W 6856  33.080  20.528   3.629
42649W        W 6857  27.625  37.023   1.444
42650W        W 6858  24.496  35.989  12.479
42651W        W 6859   6.319  30.038  12.446
42652W        W 6860  41.388  32.030   0.329
42653W        W 6861  20.570  40.968  12.948
42654W        W 6862  32.426  27.111   1.270
42655W        W 6863  17.076  40.895   0.774
42656W        W 6864  33.380  44.996  11.913
42657W        W 6865  12.652  24.528   4.226
42658W        W 6866  15.129  20.249   3.181
42659W        W 6867  24.636  17.136  11.394
42660W        W 6868  43.984  33.540   5.661
42661W        W 6869  18.583  18.097  12.507
42662W        W 6870  20.165  41.332   3.375
42663W        W 6871   7.748  23.538  12.975
42664W        W 6872  13.189  44.916  14.800
42665W        W 6873  25.142   4.267   2.855
42666W        W 6874  22.019   6.229  12.087
42667W        W 6875  27.984  16.168   3.154
42668W        W 6876  19.143  31.638  10.921
42669W        W 6877  21.019   4.226  11.958
42670W        W 6878  24.581  24.989  10.967
42671W        W 6879   8.669   4.737  11.066
42672W        W 6880  43.917   0.900   4.752
42673W        W 6881  20.034   1.435   2.771
42674W        W 6882   3.253  34.393   1.784
42675W        W 6883  12.767  17.570   0.943
42676W        W 6884  24.531   4.724   1.821
42677W        W 6885  24.221  40.854   2.836
42678W        W 6886  18.279  14.140  12.540
42679W        W 6887  26.598  19.731  13.407
42680W        W 6888  19.121  43.010   0.454
42681W        W 6889  35.092  29.977   1.746
42682W        W 6890   8.310  27.112  11.052
42683W        W 6891  11.242  22.080   3.651
42684W        W 6892  39.053   3.786   2.662
42685W        W 6893  42.324  42.519  14.974
42686W        W 6894  41.008  23.154   0.391
42687W        W 6895  10.293  20.704   0.814
42688W        W 6896  35.377  31.519   2.755
42689W        W 6897  32.481  15.207  12.990
42690W        W 6898   7.301  29.472  12.353
42691W        W 6899  10.749  41.512  10.522
42692W        W 6900  21.690  24.538   4.162
42693W        W 6901   2.307  39.545   3.370
42694W        W 6902  14.821  18.103  10.157
42695W        W 6903  35.398  41.947  12.941
42696W        W 6904  24.644  10.644   3.154
42697W        W 6905  29.436  24.042   4.178
42698W        W 6906   5.698  31.437   3.822
42699W        W 6907   7.393  12.678   9.997
42700W        W 6908   4.911  27.475   0.764
42701W        W 6909   8.385   1.776   3.664
42702W        W 6910  39.830  29.460  13.447
42703W        W 6911   7.397  30.493   3.719
42704W        W 6912   3.797   3.319  13.970
42705W        W 6913  27.563  36.997   3.803
42706W        W 6914   6.215  17.156  11.999
42707W        W 6915   7.189  35.105  11.562
42708W        W 6916  31.006  19.684  12.569
42709W        W 6917  36.026  26.172   1.393
42710W        W 6918  17.160  10.828  11.869
42711W        W 6919  23.637  39.378  13.534
42712W        W 6920   5.793  18.069  12.824
42713W        W 6921  12.802  24.717  11.092
42714W        W 6922  43.487  39.019  13.507
42715W        W 6923   5.427   5.379   4.644
42716W        W 6924   6.788  31.598   0.430
42717W        W 6925   7.897  18.189   1.315
42718W        W 6926   3.219  30.154  14.844
42719W        W 6927   8.242  25.119   4.656
42720W        W 6928  16.111   5.788   1.413
42721W        W 6929   8.771  23.108  11.976
42722W        W 6930   7.813   8.219  13.332
42723W        W 6931  25.583  15.209  13.543
42724W        W 6932  17.259  22.535   4.344
42725W        W 6933  34.950  34.469   2.865
42726W        W 6934  16.217  31.081  11.980
42727W        W 6935  12.231  44.838  11.450
42728W        W 6936  43.332  43.295  12.567
42729W        W 6937   3.898  37.847   1.701
42730W        W 6938  34.869  31.150  14.385
42731W        W 6939  21.677  16.142  11.918
42732W        W 6940  44.988   7.316   0.830
42733W        W 6941  39.023  18.114  11.923
42734W        W 6942  29.630  28.973  11.463
42735W        W 6943   8.196  29.481   2.669
42736W        W 6944   8.689  32.514  14.392
42737W        W 6945  26.574  27.467   2.292
42738W        W 6946  32.395  39.828  14.015
42739W        W 6947  15.805  44.317  14.836
42740W        W 6948  13.328  22.215  11.003
42741W        W 6949  23.110  10.156  13.023
42742W        W 6950  25.162  41.824   2.820
42743W        W 6951  13.165  20.620  10.954
42744W        W 6952  15.214  25.138  10.580
42745W        W 6953   5.726  10.214   3.346
42746W        W 6954  20.667  14.330   3.373
42747W        W 6955  19.760  22.074   1.450
42748W        W 6956   6.369  17.734  14.481
42749W        W 6957  36.431  10.179   9.922
42750W        W 6958  15.599  24.492   3.278
42751W        W 6959  13.797  13.717  14.820
42752W        W 6960  33.002  28.674   2.806
42753W        W 6961  40.989  34.959   2.741
42754W        W 6962   2.336  14.728   1.361
42755W        W 6963   8.405  39.343   3.269
42756W        W 6964   6.866  23.989   4.215
42757W        W 6965  36.354   0.428  10.979
42758W        W 6966  28.627  37.367   4.635
42759W        W 6967   7.185  30.977   0.451
42760W        W 6968  36.556  25.141  14.476
42761W        W 6969  40.363  28.570   1.850
42762W        W 6970  14.763  16.673   3.813
42763W        W 6971  40.880  39.857   0.310
42764W        W 6972  28.965  20.730  14.939
42765W        W 6973  34.921  16.631   1.263
42766W        W 6974  12.848   4.740  10.410
42767W        W 6975  28.522  33.117  14.870
42768W        W 6976  27.636   0.427  11.462
42769W        W 6977   8.257  18.636   3.723
42770W        W 6978  16.776  34.922   1.809
42771W        W 6979   5.257  10.196  11.429
42772W        W 6980   0.303  30.924   1.697
42773W        W 6981  20.685   3.931  14.023
42774W        W 6982  24.222  27.533  12.074
42775W        W 6983   9.721   8.295   0.363
42776W        W 6984  17.742   1.437   1.806
42777W        W 6985   7.904  40.981  12.051
42778W        W 6986   4.815   7.796   0.824
42779W        W 6987  36.477  35.507   1.923
42780W        W 6988   6.423  38.873  11.895
42781W        W 6989  40.382   6.385  10.457
42782W        W 6990  40.045  16.798  11.090
42783W        W 6991   1.928  31.439  14.897
42784W        W 6992   9.787   1.896   4.292
42785W        W 6993   5.843  27.089   4.763
42786W        W 6994   4.342  30.005   4.143
42787W        W 6995  19.200  33.417   0.276
42788W        W 6996  16.755  29.052   4.653
42789W        W 6997  40.027  10.194   0.251
42790W        W 6998  42.411   0.872  12.535
42791W        W 6999  19.598  23.585   3.746
42792W        W 7000  39.043  26.519  12.823
42793W        W 7001   8.268  33.516  11.097
42794W        W 7002   0.289  32.120  10.504
42795W        W 7003  34.421  28.453   2.715
42796W        W 7004   9.174   6.271   1.420
42797W        W 7005   7.846  17.744   3.641
42798W        W 7006  20.063  23.580   0.456
42799W        W 7007  29.633  42.300  13.312
42800W        W 7008  44.889  20.725  14.852
42801W        W 7009   1.429  24.624  14.904
42802W        W 7010  16.596  25.622  12.990
42803W        W 7011  40.828  37.410  12.951
42804W        W 7012  30.992  37.535   0.888
42805W        W 7013   9.243  35.489   0.786
42806W        W 7014   1.435  38.332  12.860
42807W        W 7015   6.800  15.712  14.024
42808W        W 7016   5.864  37.904   2.751
42809W        W 7017  22.511  39.348  13.875
42810W        W 7018  12.823   9.846  11.120
42811W        W 7019  28.988  39.363   4.118
42812W        W 7020  12.151  17.093  10.948
42813W        W 7021   3.419  25.053   2.416
42814W        W 7022  13.699   6.314  12.347
42815W        W 7023  10.323   9.645   2.303
42816W        W 7024  18.180  40.520   3.643
42817W        W 7025  17.582   5.386  11.392
42818W        W 7026  12.195   0.951  10.545
42819W        W 7027  22.056  30.043   0.446
42820W        W 7028  40.391  26.195  12.870
42821W        W 7029  17.115  12.824  13.500
42822W        W 7030  44.362  14.321  13.825
42823W        W 7031  33.429  29.511  14.805
42824W        W 7032   0.871   3.431  11.122
42825W        W 7033  42.836  14.743  12.550
42826W        W 7034  10.213  41.336   3.173
42827W        W 7035  24.551  32.969   2.745
42828W        W 7036   0.385  18.059  11.871
42829W        W 7037  11.367  30.094   1.427
42830W        W 7038  28.534  23.630   2.896
42831W        W 7039  19.662  12.836   0.344
42832W        W 7040   8.368  32.481  10.938
42833W        W 7041  38.945   8.870  10.904
42834W        W 7042  31.519   8.368   3.847
42835W        W 7043  12.627  14.287   2.774
42836W        W 7044  20.254  36.959  10.641
42837W        W 7045  41.310  41.868   1.911
42838W        W 7046  10.876  30.120   4.759
42839W        W 7047  34.507   2.923   0.728
42840W        W 7048  17.179  13.802  13.984
42841W        W 7049   7.409  21.560  13.316
42842W        W 7050   2.377  27.449  13.485
42843W        W 7051   8.825   7.675  11.059
42844W        W 7052  33.102  23.081  12.390
42845W        W 7053  33.537  15.755   4.762
42846W        W 7054   3.854  43.895   2.372
42847W        W 7055  41.481   7.678  12.565
42848W        W 7056   7.407  32.133   1.248
42849W        W 7057  29.425  38.896  14.404
42850W        W 7058  15.712  26.679  11.963
42851W        W 7059  32.961  15.813  11.422
42852W        W 7060   6.335  15.758  14.430
42853W        W 7061   5.884   1.329  10.580
42854W        W 7062  35.863  17.290  11.413
42855W        W 7063  31.614  13.323   1.706
42856W        W 7064  21.634  43.007   5.251
42857W        W 7065  39.387  23.231   1.319
42858W        W 7066  27.467  27.599  11.468
42859W        W 7067   9.643  31.563   3.799
42860W        W 7068  38.418  24.648  11.920
42861W        W 7069  43.439  15.726  10.060
42862W        W 7070  26.095  16.687   2.221
42863W        W 7071  32.614  25.492   4.634
42864W        W 7072  32.124  30.937   0.398
42865W        W 7073  12.642  24.526  12.427
42866W        W 7074  14.772  38.876  14.979
42867W        W 7075  31.068  43.313  10.539
42868W        W 7076  10.349  29.533  12.973
42869W        W 7077  32.107  26.457  14.917
42870W        W 7078  23.195  16.609   4.727
42871W        W 7079  43.413  39.329  14.961
42872W        W 7080  25.187  21.750   1.699
42873W        W 7081   3.948  28.127  13.446
42874W        W 7082   2.298  15.224   0.912
42875W        W 7083  44.909  23.140  13.023
42876W        W 7084  22.670  33.933   3.274
42877W        W 7085  28.564   2.781   0.413
42878W        W 7086  29.133   1.328   1.773
42879W        W 7087  13.760   2.927  13.483
42880W        W 7088   2.938  15.172   3.290
42881W        W 7089   0.297  24.013   1.352
42882W        W 7090  37.076  25.070   0.776
42883W        W 7091   7.744  14.661   3.151
42884W        W 7092  35.907  37.939   1.709
42885W        W 7093  36.027  35.501  14.960
42886W        W 7094   8.846   3.308  11.409
42887W        W 7095  33.584  39.515   4.688
42888W        W 7096  20.692  30.029   1.749
42889W        W 7097  33.449  19.188  10.933
42890W        W 7098  18.070   1.806  11.517
42891W        W 7099  20.135  25.657  10.518
42892W        W 7100  24.509  42.379  11.890
42893W        W 7101   5.301  29.523   2.861
42894W        W 7102  24.627  37.065  13.831
42895W        W 7103  40.306  36.006   5.149
42896W        W 7104   7.825   1.400   0.246
42897W        W 7105  35.072  33.077   2.784
42898W        W 7106  25.474   9.836   2.391
42899W        W 7107  18.101  29.008  11.400
42900W        W 7108  31.937  31.445  14.473
42901W        W 7109  22.140  21.099  14.467
42902W        W 7110  42.900  36.033   0.837
42903W        W 7111  18.112   5.222   4.639
42904W        W 7112  22.688  12.274  13.956
42905W        W 7113  38.431   8.365  13.993
42906W        W 7114  40.347  21.232   3.700
42907W        W 7115  31.407  10.232   2.692
42908W        W 7116  16.168  33.047  11.882
42909W        W 7117   9.195  38.544  11.859
42910W        W 7118   5.694  13.656  14.857
42911W        W 7119   3.325  32.972   0.411
42912W        W 7120  28.531   3.802  11.562
42913W        W 7121  19.742  23.131   0.403
42914W        W 7122   9.300  29.650   0.759
42915W        W 7123  22.090  32.964   4.232
42916W        W 7124  17.108   5.420  14.457
42917W        W 7125  21.074  10.821   0.797
42918W        W 7126  22.223   0.479  11.516
42919W        W 7127  36.410  43.445  14.449
42920W        W 7128  36.565  42.982  12.872
42921W        W 7129  16.161   6.293   4.116
42922W        W 7130  34.536  41.479  11.536
42923W        W 7131  20.644  35.889  11.529
42924W        W 7132  21.568  21.737  10.575
42925W        W 7133   5.303   4.833   2.409
42926W        W 7134  35.372   6.734   0.253
42927W        W 7135  34.431  41.428   3.159
42928W        W 7136   3.919   0.982  12.501
42929W        W 7137  17.720   8.785  12.970
42930W        W 7138  32.595  13.163  12.039
42931W        W 7139  39.855  16.569   9.635
42932W        W 7140  31.016   2.352  14.877
42933W        W 7141  11.736  28.942   0.761
42934W        W 7142  18.710  40.424   9.457
42935W        W 7143  23.182  28.543  11.449
42936W        W 7144  16.745  25.553   2.690
42937W        W 7145  17.585  16.637   1.283
42938W        W 7146  28.680  32.977   3.243
42939W        W 7147  36.020  18.146  14.947
42940W        W 7148  39.825  12.153   3.263
42941W        W 7149  26.590  44.381  13.967
42942W        W 7150  10.873  20.694  10.413
42943W        W 7151  39.452   6.687   4.293
42944W        W 7152  40.451  32.036  13.794
42945W        W 7153  37.052  30.640   0.935
42946W        W 7154  30.028  26.038  14.977
42947W        W 7155  13.754  32.456  12.093
42948W        W 7156  20.761   3.444  13.308
42949W        W 7157  38.388  13.112   3.759
42950W        W 7158  22.502  37.831  14.824
42951W        W 7159  15.113   8.707   0.737
42952W        W 7160   9.701  27.621   4.606
42953W        W 7161  38.515  25.120  13.936
42954W        W 7162   0.284  36.485  10.056
42955W        W 7163  37.999  39.970  14.340
42956W        W 7164   6.679  39.355   3.197
42957W        W 7165  38.905  37.884   4.269
42958W        W 7166   4.324  35.453   3.265
42959W        W 7167  36.848  29.006  13.019
42960W        W 7168   1.941   0.278  12.350
42961W        W 7169  10.754  42.369   2.739
42962W        W 7170   7.774  11.362   2.310
42963W        W 7171  23.714  19.273  14.485
42964W        W 7172  37.415  39.322   0.418
42965W        W 7173  12.617  20.687   0.895
42966W        W 7174  44.340  13.708   3.795
42967W        W 7175  42.826   6.302  14.437
42968W        W 7176  29.938  34.894   0.777
42969W        W 7177  33.401  37.009   4.145
42970W        W 7178  21.197  18.252  11.976
42971W        W 7179   6.215   5.398   2.237
42972W        W 7180  14.757   9.671   4.720
42973W        W 7181  11.132  44.812   4.314
42974W        W 7182  23.226  18.251  14.329
42975W        W 7183  15.627  28.517  14.874
42976W        W 7184  33.913  27.637  13.805
42977W        W 7185  10.714  21.706  11.071
42978W        W 7186   4.834   3.384   2.851
42979W        W 7187   7.665  29.424  14.821
42980W        W 7188  10.693  22.684   4.810
42981W        W 7189  37.396  19.548   0.789
42982W        W 7190  42.837  39.322   2.678
42983W        W 7191  24.024  14.233   0.450
42984W        W 7192  35.384  16.127  12.410
42985W        W 7193   3.355   2.305   3.190
42986W        W 7194  43.957  27.992   4.759
42987W        W 7195  18.613  25.679   3.717
42988W        W 7196  24.565  33.006   1.371
42989W        W 7197  30.539  26.476  12.880
42990W        W 7198  31.127  13.644   1.258
42991W        W 7199  24.088  10.193   1.314
42992W        W 7200  29.118  22.733   3.827
42993W        W 7201  41.008  39.843   1.780
42994W        W 7202  17.135  22.211  10.084
42995W        W 7203  41.998  25.974   4.302
42996W        W 7204   3.389  17.107  10.944
42997W        W 7205   6.688   2.957   4.354
42998W        W 7206   2.409  44.487   2.774
42999W        W 7207  15.248  25.973   0.243
43000W        W 7208  25.185  32.497  10.930
43001W        W 7209  13.107  40.447   1.856
43002W        W 7210  44.445  40.870   2.740
43003W        W 7211  37.049  41.040   0.839
43004W        W 7212  28.119  18.209   0.787
43005W        W 7213   2.440   9.323   2.220
43006W        W 7214  37.410  22.737   3.753
43007W        W 7215   5.906  36.426  12.476
43008W        W 7216  31.558  39.486   2.341
43009W        W 7217   7.779  17.773   4.174
43010W        W 7218   4.275   8.295  10.590
43011W        W 7219   9.385   2.874  11.877
43012W        W 7220  15.329  44.477  14.335
43013W        W 7221  39.998  24.186  11.547
43014W        W 7222  17.584  38.918   9.505
43015W        W 7223  10.730  33.959   3.860
43016W        W 7224  11.729  36.389   4.831
43017W        W 7225   7.809  34.111  10.567
43018W        W 7226  11.719  16.316  11.023
43019W        W 7227  21.257  33.605  10.449
43020W        W 7228  39.825  15.291  11.959
43021W        W 7229   0.888  44.386   0.745
43022W        W 7230   7.416  13.823  14.437
43023W        W 7231   8.857  22.247   0.917
43024W        W 7232  35.011   5.380  12.986
43025W        W 7233  12.170   8.739   4.696
43026W        W 7234  17.091  29.591  14.470
43027W        W 7235  24.057  31.473  11.593
43028W        W 7236  34.468   9.190   1.366
43029W        W 7237  40.853  17.240   2.845
43030W        W 7238  32.127   6.893   1.870
43031W        W 7239   1.284   6.789  12.954
43032W        W 7240  12.622  39.043  13.385
43033W        W 7241  24.222  21.721   0.306
43034W        W 7242  12.361  21.039  11.409
43035W        W 7243  32.976  41.322  13.033
43036W        W 7244  41.852   2.431   3.313
43037W        W 7245  26.589  41.410  11.576
43038W        W 7246  32.603  19.200   0.464
43039W        W 7247   1.372  11.297   1.763
43040W        W 7248  10.168  10.154   3.848
43041W        W 7249  16.130   5.236   0.837
43042W        W 7250  26.975   6.413   0.408
43043W        W 7251  17.158   7.771   0.267
43044W        W 7252  44.351  41.480   2.406
43045W        W 7253   0.293   4.228  14.490
43046W        W 7254  12.174  38.409   1.295
43047W        W 7255  37.995  18.081  10.641
43048W        W 7256  11.696  33.007  14.845
43049W        W 7257  37.833  33.532   0.474
43050W        W 7258  32.136  14.276  13.464
43051W        W 7259  30.913  16.165   2.196
43052W        W 7260  36.417  28.159  11.012
43053W        W 7261  36.970  32.554  10.428
43054W        W 7262   5.790  28.003  14.925
43055W        W 7263  25.213  28.023  14.977
43056W        W 7264  14.173  14.633  12.358
43057W        W 7265   4.759  25.140   3.683
43058W        W 7266  36.080  32.120  12.555
43059W        W 7267   1.851  26.486  11.052
43060W        W 7268  10.363  34.890   4.187
43061W        W 7269  24.157  37.861   1.914
43062W        W 7270  38.493  11.291  11.495
43063W        W 7271  15.610  13.610  10.437
43064W        W 7272  11.148  31.989  13.508
43065W        W 7273  30.127  15.084  11.957
43066W        W 7274  34.915  16.146  14.401
43067W        W 7275   0.908   0.288  13.919
43068W        W 7276  31.911  29.659  13.834
43069W        W 7277  21.662  19.569   5.303
43070W        W 7278   3.401  31.070  12.058
43071W        W 7279  23.223  14.822   2.314
43072W        W 7280  10.146  37.830  13.484
43073W        W 7281  17.200  35.917  14.006
43074W        W 7282  24.991  34.577  13.001
43075W        W 7283  41.952  17.225  12.923
43076W        W 7284  38.981  40.857   0.931
43077W        W 7285   0.926  38.975  12.052
43078W        W 7286   7.784  22.655   5.134
43079W        W 7287   5.903   9.656  13.395
43080W        W 7288  44.434  28.532   2.674
43081W        W 7289  44.817   5.881  10.566
43082W        W 7290  41.897  20.693   4.262
43083W        W 7291  23.725  16.603  12.524
43084W        W 7292  18.260  18.622   5.111
43085W        W 7293  38.892  19.161   0.294
43086W        W 7294  17.101  25.600   0.430
43087W        W 7295   1.832  30.112   0.412
43088W        W 7296  13.650  38.972   1.694
43089W        W 7297  16.702  32.580  13.033
43090W        W 7298  44.858  39.353   1.227
43091W        W 7299  11.827  23.521  14.493
43092W        W 7300  32.432  30.611   1.218
43093W        W 7301  26.555  25.029   1.730
43094W        W 7302  15.233  40.471  14.760
43095W        W 7303  24.226  20.530  12.080
43096W        W 7304  18.100  40.547   2.832
43097W        W 7305   0.261  29.592  13.358
43098W        W 7306  38.496  39.515  13.512
43099W        W 7307  10.251  19.684  14.384
43100W        W 7308  10.684  14.123  14.808
43101W        W 7309  35.102  15.136  11.951
43102W        W 7310  20.033  23.075  10.612
43103W        W 7311  16.282  12.763   4.778
43104W        W 7312  30.080   0.948  14.012
43105W        W 7313  23.019  41.323   2.675
43106W        W 7314  19.089  43.958  11.052
43107W        W 7315   1.966   7.318   0.421
43108W        W 7316   1.386  12.813   1.862
43109W        W 7317  23.026  22.084  12.402
43110W        W 7318  38.455  26.039   0.885
43111W        W 7319  38.556  17.223  14.369
43112W        W 7320  27.987   3.807   4.774
43113W        W 7321  37.832  37.966  12.977
43114W        W 7322  13.158  36.869  14.993
43115W        W 7323  11.231   5.298  13.030
43116W        W 7324  44.476  28.171   1.360
43117W        W 7325  36.387   8.230  10.631
43118W        W 7326   3.900   0.749   3.850
43119W        W 7327   6.831  12.244   2.767
43120W        W 7328  32.978  34.515  13.854
43121W        W 7329   1.736  33.506  13.007
43122W        W 7330  23.151  29.154  12.499
43123W        W 7331  21.119  22.654  13.413
43124W        W 7332  37.045  36.545  14.814
43125W        W 7333  30.607   6.340   5.233
43126W        W 7334  24.643  11.768  14.456
43127W        W 7335   4.794  19.282  14.008
43128W        W 7336   4.439  41.022   2.416
43129W        W 7337  30.161  21.104   1.777
43130W        W 7338  33.407  28.666  13.009
43131W        W 7339  37.878  22.744  14.915
43132W        W 7340  29.549  16.692  13.853
43133W        W 7341   5.423  44.810  13.839
43134W        W 7342   7.407  17.291  12.952
43135W        W 7343  40.526  27.568   3.864
43136W        W 7344  38.948  25.546  12.069
43137W        W 7345  23.632   9.658   1.837
43138W        W 7346  23.668  35.582  12.352
43139W        W 7347  30.626  33.104  13.824
43140W        W 7348  13.347  27.532  13.314
43141W        W 7349   4.920  29.526   1.323
43142W        W 7350  42.307  14.291   4.189
43143W        W 7351   7.283  43.499   3.258
43144W        W 7352  44.754  18.562   4.619
43145W        W 7353  30.159  18.181   3.762
43146W        W 7354  34.947  31.410  10.967
43147W        W 7355  37.082  12.254   3.315
43148W        W 7356   4.698  20.076  13.399
43149W        W 7357   6.223  40.341   0.417
43150W        W 7358  40.818  16.672   1.865
43151W        W 7359   0.942  23.234  11.462
43152W        W 7360  34.876   6.829  14.288
43153W        W 7361  23.720  42.961  11.947
43154W        W 7362  40.819   4.719  13.329
43155W        W 7363  44.296  23.684  12.439
43156W        W 7364  22.600  13.703   4.282
43157W        W 7365  14.276  12.811  13.019
43158W        W 7366   7.263   2.272  14.801
43159W        W 7367  18.638  26.675  14.955
43160W        W 7368  18.734   5.325   4.773
43161W        W 7369   8.255  35.487   4.674
43162W        W 7370  15.779   2.910   5.285
43163W        W 7371  18.727  27.022  13.895
43164W        W 7372  26.989  37.556   0.408
43165W        W 7373  12.163  43.983  11.554
43166W        W 7374   4.411   4.267  14.807
43167W        W 7375  11.128  16.303   0.776
43168W        W 7376  25.072  10.354   5.248
43169W        W 7377   0.283  37.340   3.225
43170W        W 7378  10.720  17.737  11.020
43171W        W 7379  29.026  40.880  13.317
43172W        W 7380  15.089  39.354   2.273
43173W        W 7381  25.517  29.549   1.308
43174W        W 7382  40.002  18.572  12.055
43175W        W 7383  17.651  33.003  13.324
43176W        W 7384  13.762  11.748   4.799
43177W        W 7385  37.367   0.478  11.003
43178W        W 7386  43.957  13.201   4.294
43179W        W 7387  41.808  21.118  10.470
43180W        W 7388   3.356  10.140   5.294
43181W        W 7389  26.190  15.758   0.331
43182W        W 7390   2.775  12.207   2.873
43183W        W 7391  37.973   1.846   1.781
43184W        W 7392   0.895  39.969  14.986
43185W        W 7393  38.058   6.836  13.044
43186W        W 7394  12.744  17.251  11.957
43187W        W 7395  21.610  30.496  11.944
43188W        W 7396  44.405  26.165  14.508
43189W        W 7397  13.247  41.472  11.548
43190W        W 7398  42.434  44.431   3.180
43191W        W 7399  10.149  35.599  11.520
43192W        W 7400  16.763  12.153   1.799
43193W        W 7401  33.983  27.665   1.398
43194W        W 7402  37.031  16.275  11.867
43195W        W 7403  27.030  44.390   3.211
43196W        W 7404  30.938  35.968  10.096
43197W        W 7405  42.323  27.557   3.698
43198W        W 7406  17.707   2.434   0.913
43199W        W 7407  32.887  28.583  12.941
43200W        W 7408  38.902  30.018   3.721
43201W        W 7409  43.326  16.598  11.925
43202W        W 7410   0.457  26.163  13.429
43203W        W 7411  23.115  41.455  11.110
43204W        W 7412  20.605  25.182   1.828
43205W        W 7413  33.382   4.388  10.427
43206W        W 7414   0.952  37.449   4.660
43207W        W 7415   9.167  17.294  12.444
43208W        W 7416   1.773   4.849  10.482
43209W        W 7417  32.627  33.989   0.365
43210W        W 7418  26.517  25.208  10.053
43211W        W 7419  20.151  35.520  14.474
43212W        W 7420  32.049  30.652   0.849
43213W        W 7421   0.798  11.286   3.266
43214W        W 7422   2.941  40.529  12.851
43215W        W 7423  15.172  28.046  13.309
43216W        W 7424  41.292  38.531   0.948
43217W        W 7425   2.281   0.787  10.118
43218W        W 7426   9.852  38.443  11.998
43219W        W 7427  29.152  33.920  12.529
43220W        W 7428  32.453  44.906   3.269
43221W        W 7429  14.112  34.552   1.268
43222W        W 7430  35.419  43.805  12.960
43223W        W 7431  20.544   7.281   2.414
43224W        W 7432  33.419  31.494  12.429
43225W        W 7433  11.673  26.586  13.543
43226W        W 7434  34.916  25.076   9.967
43227W        W 7435  17.167  20.528  14.936
43228W        W 7436  13.635  24.647   3.324
43229W        W 7437  38.862  16.140   4.703
43230W        W 7438  35.585  33.584  11.584
43231W        W 7439  36.057   8.192   1.363
43232W        W 7440   6.424  36.052  10.616
43233W        W 7441  24.990   8.231   0.919
43234W        W 7442  21.195   9.212   4.295
43235W        W 7443  20.268   4.290   2.715
43236W        W 7444  22.658  29.100   3.233
43237W        W 7445  15.181  30.050  12.903
43238W        W 7446   0.355   7.307  12.965
43239W        W 7447   3.847   9.791  14.278
43240W        W 7448  10.269  19.162   4.829
43241W        W 7449  20.249   6.735   0.279
43242W        W 7450  27.159  35.577   1.224
43243W        W 7451   1.465  14.667   4.831
43244W        W 7452   1.293  25.065  13.039
43245W        W 7453  35.082  21.580   3.871
43246W        W 7454   6.266   5.194  12.908
43247W        W 7455  39.926   8.747   1.916
43248W        W 7456  37.022   1.387  13.056
43249W        W 7457  32.019  39.879  13.314
43250W        W 7458  19.771  41.792  10.515
43251W        W 7459   7.290   0.847  11.073
43252W        W 7460  18.585  29.522  13.841
43253W        W 7461   2.938  19.603  12.858
43254W        W 7462  38.540  41.804  13.962
43255W        W 7463   7.850  31.552   0.285
43256W        W 7464   8.296  36.488  14.965
43257W        W 7465  44.346  23.097  14.801
43258W        W 7466   9.305   6.413  13.372
43259W        W 7467  25.206  27.083   2.229
43260W        W 7468  43.964  28.985   3.870
43261W        W 7469  18.068  13.215   3.855
43262W        W 7470   5.423  10.324  11.973
43263W        W 7471  13.665  14.131   3.368
43264W        W 7472  44.797   5.368   2.786
43265W        W 7473   0.895  24.067   0.950
43266W        W 7474  36.570  26.701   3.756
43267W        W 7475   9.867  24.632   3.213
43268W        W 7476   6.193  11.218  13.958
43269W        W 7477   9.876  11.331   0.950
43270W        W 7478  28.148  38.834  11.610
43271W        W 7479   4.436  17.569  13.329
43272W        W 7480  24.524   1.337   2.676
43273W        W 7481  11.312  43.466   2.738
43274W        W 7482   5.254  39.002  10.536
43275W        W 7483  35.542   1.874   4.606
43276W        W 7484  31.585  35.603   4.353
43277W        W 7485   4.386  35.357   3.841
43278W        W 7486   3.805   5.807   1.796
43279W        W 7487  24.611  19.603   1.901
43280W        W 7488  36.382   4.724   1.927
43281W        W 7489  37.963   0.875   2.692
43282W        W 7490  25.551   3.461   3.353
43283W        W 7491  38.933   0.420   0.382
43284W        W 7492  30.576  19.571  13.988
43285W        W 7493   4.756  18.666   0.448
43286W        W 7494  13.790   8.206   3.788
43287W        W 7495  18.061   9.835  11.498
43288W        W 7496  18.294  33.449  13.967
43289W        W 7497  20.551  19.746   2.378
43290W        W 7498  19.752  33.979   1.422
43291W        W 7499   0.871  31.556   4.246
43292W        W 7500  18.602  13.210   3.718
43293W        W 7501  43.294  44.455  14.486
43294W        W 7502   4.784  29.498   1.904
43295W        W 7503  24.076  23.578  11.909
43296W        W 7504  41.842  43.870   3.666
43297W        W 7505  22.235  22.106  12.495
43298W        W 7506  39.927  12.631  13.428
43299W        W 7507   7.409  25.027   2.698
43300W        W 7508  15.141  34.894   3.833
43301W        W 7509  41.501  17.166  11.605
43302W        W 7510   3.371  30.572  11.489
43303W        W 7511  31.006  43.810  13.858
43304W        W 7512  38.548  13.724   3.680
43305W        W 7513   5.747  44.282   4.276
43306W        W 7514   9.275  21.613  12.349
43307W        W 7515  30.562  28.982   4.675
43308W        W 7516  40.999  29.013   2.787
43309W        W 7517  26.464  26.969   4.723
43310W        W 7518  24.656  29.044   2.662
43311W        W 7519  36.007  12.214   4.761
43312W        W 7520  41.524  18.725   3.253
43313W        W 7521  44.873   9.261  11.921
43314W        W 7522  40.392  24.219  14.317
43315W        W 7523  20.656  39.538   1.318
43316W        W 7524   8.876  43.506   2.781
43317W        W 7525   8.717   8.834  10.414
43318W        W 7526  20.169  20.132  14.891
43319W        W 7527  19.258  42.898   3.835
43320W        W 7528  39.953   1.942   4.302
43321W        W 7529   1.852   6.293  13.343
43322W        W 7530  30.989  25.668  12.427
43323W        W 7531  16.307  13.646   2.825
43324W        W 7532  30.613   1.763  10.986
43325W        W 7533  33.024  13.242  14.283
43326W        W 7534  27.627   8.852  13.805
43327W        W 7535  18.258  40.441  11.605
43328W        W 7536  18.577  40.352  11.432
43329W        W 7537  31.080   3.857   0.934
43330W        W 7538   8.734  16.114  10.936
43331W        W 7539   7.886  11.227   3.834
43332W        W 7540  44.291  37.395  10.556
43333W        W 7541  15.613  19.683  12.533
43334W        W 7542  33.565  44.828   2.815
43335W        W 7543  21.751  43.306   1.370
43336W        W 7544  37.355  10.296   4.245
43337W        W 7545  22.721  16.629  12.368
43338W        W 7546  25.709   7.841  14.285
43339W        W 7547  32.108  18.725  11.514
43340W        W 7548   2.355  17.138  11.550
43341W        W 7549  39.559   4.825  12.936
43342W        W 7550  20.096  25.652  12.422
43343W        W 7551  30.448  16.761   2.759
43344W        W 7552  11.293  38.863  10.577
43345W        W 7553  34.922   5.386   1.232
43346W        W 7554  12.615  16.240   0.443
43347W        W 7555  37.009  39.980   0.245
43348W        W 7556   0.487   9.262  12.838
43349W        W 7557  22.083  29.462  13.061
43350W        W 7558  39.064   3.908  12.955
43351W        W 7559  43.789   6.688   3.224
43352W        W 7560  12.272  35.064  12.402
43353W        W 7561  42.429  22.594  11.860
43354W        W 7562  21.023  13.304  12.088
43355W        W 7563   8.373   1.286   2.291
43356W        W 7564  36.021  35.048   0.796
43357W        W 7565  40.028  17.761  13.476
43358W        W 7566  12.762  27.967  13.401
43359W        W 7567  43.497  29.080   2.787
43360W        W 7568  12.350  41.941   4.795
43361W        W 7569   0.271   9.649   4.687
43362W        W 7570  35.468   2.285  11.986
43363W        W 7571   0.761  12.162   1.855
43364W        W 7572   0.752  34.946   4.207
43365W        W 7573  12.127  39.002  11.509
43366W        W 7574   6.915  24.537  13.871
43367W        W 7575   5.826  33.505   4.720
43368W        W 7576  17.665  27.014   0.482
43369W        W 7577  38.028  27.564   0.396
43370W        W 7578  37.403  33.410   4.823
43371W        W 7579   2.922  14.101  10.506
43372W        W 7580  29.061  23.129  13.530
43373W        W 7581   3.867  15.322  11.484
43374W        W 7582  44.265  12.345  11.581
43375W        W 7583   9.256  41.030  11.872
43376W        W 7584  17.305  28.455  13.838
43377W        W 7585  23.043  10.326  14.454
43378W        W 7586  43.785  19.678   2.225
43379W        W 7587   7.788  21.146  10.918
43380W        W 7588  37.904  44.412   3.312
43381W        W 7589  15.266   8.826  12.019
43382W        W 7590  17.583  43.278  10.436
43383W        W 7591  12.286  44.844  11.024
43384W        W 7592  39.828  34.375   1.836
43385W        W 7593  32.029  28.033  11.082
43386W        W 7594  16.668  35.872  12.983
43387W        W 7595  15.278  25.633  13.893
43388W        W 7596  14.656   0.799  10.572
43389W        W 7597  24.090   8.869   1.394
43390W        W 7598  16.182  31.934  12.931
43391W        W 7599   5.320   0.823   4.168
43392W        W 7600  37.350  25.572  14.008
43393W        W 7601  13.697   5.895  10.955
43394W        W 7602  21.263   1.443  12.876
43395W        W 7603  40.053  38.963   0.304
43396W        W 7604  10.247  34.080  10.966
43397W        W 7605  28.679  35.962   1.895
43398W        W 7606   0.952  29.116   1.873
43399W        W 7607  17.110  34.041   0.412
43400W        W 7608  17.234  30.445   1.797
43401W        W 7609  16.206  15.658  11.552
43402W        W 7610   2.355  18.696  12.493
43403W        W 7611   8.283  24.084  11.511
43404W        W 7612  23.075  18.093  11.549
43405W        W 7613  33.457  24.603   5.309
43406W        W 7614  14.227  14.257   3.374
43407W        W 7615  28.047  29.556   0.370
43408W        W 7616  28.008  27.196   2.370
43409W        W 7617   1.479  40.812  12.959
43410W        W 7618  18.756  17.202   0.844
43411W        W 7619   4.437  25.963   4.186
43412W        W 7620  21.248  41.843   2.400
43413W        W 7621  19.745  30.995   5.246
43414W        W 7622  33.125  12.360  11.043
43415W        W 7623  44.393  33.108  14.320
43416W        W 7624  18.109  29.089   2.698
43417W        W 7625  44.282  20.651  11.121
43418W        W 7626  40.054  26.080  14.371
43419W        W 7627   8.785  20.717  10.592
43420W        W 7628  28.930  23.162   2.898
43421W        W 7629  12.306   4.895  10.451
43422W        W 7630  11.622   3.300   1.868
43423W        W 7631  10.320  25.655   5.285
43424W        W 7632  32.131   7.710  11.489
43425W        W 7633  13.265  44.865  13.343
43426W        W 7634   1.351  43.272  12.001
43427W        W 7635  31.981  40.038   1.413
43428W        W 7636   9.716  10.137  10.949
43429W        W 7637  21.059   3.750  14.422
43430W        W 7638  26.527  14.736  12.522
43431W        W 7639  32.129  16.233  13.915
43432W        W 7640  32.576   8.220   3.644
43433W        W 7641  17.795   5.407   2.760
43434W        W 7642   0.312  42.803   1.356
43435W        W 7643   1.777  21.581  12.560
43436W        W 7644  37.986  24.995   4.167
43437W        W 7645  36.003  39.990   2.854
43438W        W 7646  37.396  42.845   1.847
43439W        W 7647  25.534  38.449   0.965
43440W        W 7648  39.017  30.984  10.889
43441W        W 7649  43.887  12.750   1.294
43442W        W 7650  34.953  38.556  12.874
43443W        W 7651  10.157  14.695  14.510
43444W        W 7652  40.370  11.172  12.956
43445W        W 7653  18.548  25.969   1.236
43446W        W 7654  15.800  36.522  10.502
43447W        W 7655  39.426  16.799   4.609
43448W        W 7656   7.724  44.857   0.367
43449W        W 7657   5.856  23.177   4.614
43450W        W 7658  23.164  11.168   4.279
43451W        W 7659  13.268   4.926   1.262
43452W        W 7660  20.258  13.655   2.754
43453W        W 7661  33.885  44.290   1.335
43454W        W 7662  30.440  26.698   0.946
43455W        W 7663  37.389  31.959   1.328
43456W        W 7664  41.029  15.806  14.463
43457W        W 7665  27.559  34.480   2.836
43458W        W 7666   0.308  17.218   1.721
43459W        W 7667  11.760  29.636  10.417
43460W        W 7668  44.832  12.233  12.020
43461W        W 7669  25.490   3.769   1.268
43462W        W 7670  43.486  25.601   0.874
43463W        W 7671   3.394   2.806   3.235
43464W        W 7672  41.998  44.000   0.947
43465W        W 7673  41.889  34.597   4.830
43466W        W 7674  33.943  14.687  10.455
43467W        W 7675  44.345  31.456   5.135
43468W        W 7676  13.790  43.838   1.743
43469W        W 7677  30.015  42.948   0.773
43470W        W 7678  20.741   0.811  11.981
43471W        W 7679   8.339  32.111  12.506
43472W        W 7680  44.439   1.882   3.183
43473W        W 7681  44.494  22.507  13.007
43474W        W 7682  10.721   6.382   3.654
43475W        W 7683  12.734  44.996   2.211
43476W        W 7684  12.179  24.003  10.427
43477W        W 7685   4.310  42.032  14.891
43478W        W 7686  24.997  34.496   3.159
43479W        W 7687  29.093   3.800  10.426
43480W        W 7688  29.641  22.625  14.445
43481W        W 7689   2.875  24.651  14.795
43482W        W 7690  35.071  44.296   0.767
43483W        W 7691  12.713  43.345   1.704
43484W        W 7692   7.188  11.174   4.189
43485W        W 7693  26.157   7.712   1.333
43486W        W 7694   4.255   2.336   1.925
43487W        W 7695  40.850  40.387  14.293
43488W        W 7696  31.971  14.173  10.605
43489W        W 7697   1.358  24.681  14.477
43490W        W 7698  10.637  10.685   3.730
43491W        W 7699  33.431  28.071   9.953
43492W        W 7700  30.656  34.867   3.681
43493W        W 7701  15.742   8.373  10.893
43494W        W 7702  20.644  37.526   0.803
43495W        W 7703  14.687   0.878   0.356
43496W        W 7704  39.931   8.349   1.245
43497W        W 7705   2.947  36.096  13.029
43498W        W 7706  31.033   0.756   4.182
43499W        W 7707  23.142   1.854  14.396
43500W        W 7708  27.670  21.691   2.755
43501W        W 7709  14.627  41.856   0.251
43502W        W 7710  22.533  13.809   3.778
43503W        W 7711  33.964  19.259   4.317
43504W        W 7712   8.823  13.108  14.953
43505W        W 7713  24.994  27.068  13.972
43506W        W 7714  22.148  26.182  12.984
43507W        W 7715  27.582  17.582  14.783
43508W        W 7716  28.174  32.007   1.352
43509W        W 7717  23.181   9.309  13.341
43510W        W 7718   4.411  18.117   2.251
43511W        W 7719   0.272   3.397  11.431
43512W        W 7720   8.791  19.205  12.580
43513W        W 7721  12.336  33.065  14.426
43514W        W 7722  32.635  41.440  10.897
43515W        W 7723  24.721  16.174   4.783
43516W        W 7724  23.237  13.311   1.821
43517W        W 7725  37.984  13.759  14.496
43518W        W 7726  10.235   1.254  10.084
43519W        W 7727  16.171   3.417  13.987
43520W        W 7728  21.532  16.167   4.136
43521W        W 7729  21.720   2.844   4.689
43522W        W 7730  17.118  22.710  10.610
43523W        W 7731  36.987  18.701  13.436
43524W        W 7732  40.933  31.151  14.300
43525W        W 7733  38.995  37.016  13.800
43526W        W 7734  38.325  20.134  13.029
43527W        W 7735   5.887   0.285  14.786
43528W        W 7736   0.986  44.341  12.538
43529W        W 7737  27.992  10.705  13.856
43530W        W 7738  16.811  12.623  14.289
43531W        W 7739  10.189  17.234  14.368
43532W        W 7740  11.145  34.930  13.497
43533W        W 7741  36.368  19.640   4.700
43534W        W 7742  12.318  30.639   0.322
43535W        W 7743  14.338   1.748  11.479
43536W        W 7744  27.491  32.424   2.228
43537W        W 7745   3.329  17.124   0.435
43538W        W 7746  30.562  19.134  11.906
43539W        W 7747  11.242  21.635   3.303
43540W        W 7748   2.827   2.449   4.183
43541W        W 7749   3.395  19.134   4.156
43542W        W 7750  26.472  20.077   1.870
43543W        W 7751  39.320  13.674   2.259
43544W        W 7752  33.436  35.068   4.599
43545W        W 7753  12.794   0.905   2.192
43546W        W 7754   5.793   4.749   1.903
43547W        W 7755  37.021  20.177  12.859
43548W        W 7756  35.417  44.875  11.497
43549W        W 7757  12.612   9.274   3.188
43550W        W 7758  26.103  43.017  10.486
43551W        W 7759   5.398   5.829   3.696
43552W        W 7760  17.145   4.747  10.047
43553W        W 7761  36.969  40.038  11.458
43554W        W 7762  30.570  14.263   9.671
43555W        W 7763  25.966  43.328   2.741
43556W        W 7764  33.022  19.230   2.809
43557W        W 7765  40.412  13.212   0.748
43558W        W 7766   2.251   7.732  14.325
43559W        W 7767  11.217  41.399   0.751
43560W        W 7768   6.797   8.830   0.918
43561W        W 7769  10.168  42.785   0.752
43562W        W 7770   8.246  34.991   0.284
43563W        W 7771   3.750   7.247   0.901
43564W        W 7772  20.268  42.328   4.831
43565W        W 7773   8.315  30.983   1.739
43566W        W 7774   5.245   1.269  14.762
43567W        W 7775  16.741  43.781   2.376
43568W        W 7776  40.879  32.966  13.356
43569W        W 7777  35.995  13.119  11.097
43570W        W 7778   7.332  41.418   0.244
43571W        W 7779  22.076  15.274  14.505
43572W        W 7780  44.434  36.359  12.007
43573W        W 7781  21.125  12.790   0.336
43574W        W 7782  32.138  18.296  12.531
43575W        W 7783  39.057   1.773  13.429
43576W        W 7784  29.043  14.767   4.302
43577W        W 7785  22.541  17.691  12.488
43578W        W 7786  17.167  15.204  11.981
43579W        W 7787  22.201  29.998   0.927
43580W        W 7788  42.405  12.249  11.473
43581W        W 7789  33.022  42.362  14.909
43582W        W 7790  16.630  13.835   1.849
43583W        W 7791  44.782  38.544  14.362
43584W        W 7792  16.309  41.392  13.888
43585W        W 7793   0.814  28.507   0.744
43586W        W 7794  11.305  12.728  12.000
43587W        W 7795  28.989   2.306   0.424
43588W        W 7796   9.360  44.371   0.282
43589W        W 7797  15.804   6.233  11.062
43590W        W 7798   2.462  30.948   1.388
43591W        W 7799   1.289  31.075  11.081
43592W        W 7800  24.092   6.262   3.638
43593W        W 7801  22.518  12.699  12.074
43594W        W 7802  42.477  38.956  11.115
43595W        W 7803   2.391  15.644   9.962
43596W        W 7804   2.264  35.970  11.491
43597W        W 7805  22.579   3.934   0.921
43598W        W 7806  40.354  19.147  12.495
43599W        W 7807  24.033  32.515   2.210
43600W        W 7808  36.017  33.075   3.267
43601W        W 7809  35.904  10.373   4.771
43602W        W 7810   2.463   3.421  11.062
43603W        W 7811  24.158   5.322   1.345
43604W        W 7812  31.057  30.461  12.348
43605W        W 7813  38.326   6.237   0.815
43606W        W 7814  23.189  27.947   4.724
43607W        W 7815  39.508   8.839   2.387
43608W        W 7816  16.224  42.790   2.399
43609W        W 7817  12.854  21.595  11.963
43610W        W 7818  21.670  37.911   1.919
43611W        W 7819  27.951  40.477   0.836
43612W        W 7820  28.582  24.602   1.314
43613W        W 7821  27.981   5.888  13.313
43614W        W 7822  16.238  28.117  13.436
43615W        W 7823  44.809  36.380  11.408
43616W        W 7824  12.320   7.894   4.628
43617W        W 7825  38.974   1.296   0.304
43618W        W 7826  40.928   6.865   3.362
43619W        W 7827  39.965  36.495  10.532
43620W        W 7828  36.447  29.041   2.298
43621W        W 7829  23.231   5.289   3.356
43622W        W 7830  25.555  40.464   4.730
43623W        W 7831  13.670  29.614  11.861
43624W        W 7832  14.293  11.730   3.164
43625W        W 7833  15.186  11.373  13.968
43626W        W 7834  19.073   8.171   3.768
43627W        W 7835  20.691  28.007   4.647
43628W        W 7836   4.780  42.986  12.042
43629W        W 7837  11.355   9.160  10.602
43630W        W 7838   4.864  44.400  10.535
43631W        W 7839   8.199   4.887   4.318
43632W        W 7840  15.225  39.400   1.294
43633W        W 7841  23.556  19.143   4.203
43634W        W 7842  24.003   0.747  13.955
43635W        W 7843  32.421  36.428   3.783
43636W        W 7844  24.622   2.428  14.848
43637W        W 7845  36.969  38.909   1.352
43638W        W 7846  41.793  32.530   2.411
43639W        W 7847  36.521   4.273  13.936
43640W        W 7848   2.322  24.000  13.972
43641W        W 7849  11.850  16.231   1.872
43642W        W 7850  27.983  41.912  11.034
43643W        W 7851  29.652   4.250  10.495
43644W        W 7852  31.427  16.317  14.953
43645W        W 7853  23.626  43.808  12.917
43646W        W 7854  21.176  15.597   5.151
43647W        W 7855  13.166  43.862   0.448
43648W        W 7856  19.182  29.647   1.799
43649W        W 7857  23.536  39.997  13.856
43650W        W 7858  13.111  33.049   2.872
43651W        W 7859   7.335  27.943   0.298
43652W        W 7860  27.643  29.150   4.126
43653W        W 7861  30.105  24.705   1.293
43654W        W 7862   4.392   6.823  11.038
43655W        W 7863  36.005  24.546   0.244
43656W        W 7864  36.980  29.173   0.888
43657W        W 7865  29.001   2.835  10.596
43658W        W 7866   3.233   0.857  11.865
43659W        W 7867   3.709  37.838  12.489
43660W        W 7868  12.710  17.257   3.662
43661W        W 7869  11.128  28.974   4.114
43662W        W 7870   0.351  38.433  10.617
43663W        W 7871  44.905  44.753  12.345
43664W        W 7872   0.449   6.370  13.884
43665W        W 7873  42.519  23.701  14.978
43666W        W 7874  25.986  29.615   4.646
43667W        W 7875   5.371  17.588  14.779
43668W        W 7876   9.230   8.819  10.609
43669W        W 7877   3.763  38.075  13.978
43670W        W 7878  18.158  20.129  10.451
43671W        W 7879  32.544  33.532   1.803
43672W        W 7880  27.615  25.555   3.183
43673W        W 7881   1.775  39.934  12.869
43674W        W 7882  20.221  38.535   0.417
43675W        W 7883  24.639  17.287   0.828
43676W        W 7884  19.214  27.572   2.212
43677W        W 7885   6.810  37.908  10.446
43678W        W 7886  23.676   5.719  14.985
43679W        W 7887   5.835  38.016   0.276
43680W        W 7888  28.560  38.042  12.369
43681W        W 7889   7.349  37.576   2.208
43682W        W 7890  43.271  34.615   1.292
43683W        W 7891  33.597  14.805  13.952
43684W        W 7892  29.129  15.258  11.476
43685W        W 7893  41.829  22.524  13.864
43686W        W 7894  28.492  22.066  10.906
43687W        W 7895  41.824   1.272  10.517
43688W        W 7896  36.505  26.136  11.398
43689W        W 7897  24.641  33.908   4.197
43690W        W 7898  41.870   7.343  12.073
43691W        W 7899  41.440  37.510  13.826
43692W        W 7900  37.443  30.498  14.308
43693W        W 7901  12.726  42.490   2.363
43694W        W 7902  21.644   1.841  14.832
43695W        W 7903  31.114  26.074  11.120
43696W        W 7904   7.279  40.464   3.846
43697W        W 7905  36.096  43.320   3.718
43698W        W 7906  18.171  14.237  13.351
43699W        W 7907  29.482  24.483  12.501
43700W        W 7908  32.990   6.407   0.947
43701W        W 7909  17.273  24.156   0.795
43702W        W 7910  38.378  28.156   2.770
43703W        W 7911  42.874  16.618  11.928
43704W        W 7912   4.905   0.896   1.266
43705W        W 7913  28.473  33.131  12.543
43706W        W 7914  44.345  32.563   2.666
43707W        W 7915  18.067  32.598   2.688
43708W        W 7916  43.456  29.508   0.777
43709W        W 7917  12.711  38.334   3.697
43710W        W 7918  30.930   2.751   4.815
43711W        W 7919  20.549  33.583  12.975
43712W        W 7920   0.748  33.442   5.144
43713W        W 7921  24.192  44.378   3.340
43714W        W 7922  14.211   3.407  11.055
43715W        W 7923  30.080  21.243  11.855
43716W        W 7924   7.747  23.077   1.705
43717W        W 7925   8.729  29.120   4.323
43718W        W 7926  42.476  24.482   0.908
43719W        W 7927  33.096  24.226   2.888
43720W        W 7928  38.029  13.173  11.503
43721W        W 7929  19.751  41.795  14.456
43722W        W 7930  22.063  24.230  11.456
43723W        W 7931  29.625  11.137  13.367
43724W        W 7932  39.516   1.384  14.904
43725W        W 7933  17.621  36.584   4.224
43726W        W 7934   3.385  40.340   0.405
43727W        W 7935   0.934  38.544  13.827
43728W        W 7936   5.415  17.787   1.726
43729W        W 7937  21.522  27.619   0.475
43730W        W 7938   1.445  11.274  11.085
43731W        W 7939  35.479  13.173   0.273
43732W        W 7940  39.852  41.372  11.502
43733W        W 7941  40.506  16.093   4.268
43734W        W 7942  18.688  18.665   3.308
43735W        W 7943  41.520  14.813  14.909
43736W        W 7944  42.813  23.024   4.621
43737W        W 7945  26.990  40.456   3.181
43738W        W 7946   7.893  35.950  11.509
43739W        W 7947  10.680   1.241  13.475
43740W        W 7948  28.063  44.410   1.740
43741W        W 7949  40.400  43.285   0.937
43742W        W 7950  33.032   4.357   1.744
43743W        W 7951  39.876   4.708   3.691
43744W        W 7952  23.000  33.554   2.218
43745W        W 7953  20.524  43.297   1.869
43746W        W 7954  18.075  23.693  12.532
43747W        W 7955  35.371  44.464   3.248
43748W        W 7956  30.616   9.764   1.374
43749W        W 7957   6.771  43.846   2.364
43750W        W 7958  40.507  33.565  10.972
43751W        W 7959  44.841  36.892   0.841
43752W        W 7960  24.205   5.196   3.287
43753W        W 7961  22.156  43.311  14.945
43754W        W 7962  33.487  43.318  12.052
43755W        W 7963  26.665  41.304   1.707
43756W        W 7964   3.252  38.507   1.321
43757W        W 7965  30.915  21.753   4.738
43758W        W 7966  28.960  21.710  10.417
43759W        W 7967  41.418  26.691  12.077
43760W        W 7968  29.931  34.561  12.545
43761W        W 7969  11.731  11.707   1.903
43762W        W 7970  22.057  43.503   3.852
43763W        W 7971  35.062  30.465  10.072
43764W        W 7972  18.673  37.884   1.311
43765W        W 7973   3.397  44.938  12.524
43766W        W 7974  18.550  27.064  10.585
43767W        W 7975  16.623  15.300  10.427
43768W        W 7976  25.672  39.478  14.483
43769W        W 7977  38.050  21.035  14.344
43770W        W 7978   0.457  20.699  12.364
43771W        W 7979   2.228  37.983   2.887
43772W        W 7980  38.858   8.394  14.786
43773W        W 7981  27.594   4.365   3.796
43774W        W 7982   7.407  12.629   2.717
43775W        W 7983   3.899  25.491  14.844
43776W        W 7984  38.329  17.611  14.332
43777W        W 7985  39.471  32.515   1.802
43778W        W 7986  22.151  22.627   2.200
43779W        W 7987   2.960  22.612   3.837
43780W        W 7988  28.935  13.154   0.288
43781W        W 7989  34.992  20.641  14.856
43782W        W 7990  42.954  18.722   9.941
43783W        W 7991   6.776   8.720  12.492
43784W        W 7992  23.186  37.974  10.523
43785W        W 7993   9.752  43.388   2.733
43786W        W 7994  30.597  20.085  13.514
43787W        W 7995  12.155  18.063  10.593
43788W        W 7996   4.751  34.520  14.312
43789W        W 7997  27.146  39.460  10.413
43790W        W 7998  13.748  29.083  13.372
43791W        W 7999  31.930  34.468   1.910
43792W        W 8000   8.661  32.913  12.995
43793W        W 8001   7.255  20.134   0.949
43794W        W 8002  32.947  23.695   4.343
43795W        W 8003  14.189  24.193   3.163
43796W        W 8004  22.728   3.439   2.374
43797W        W 8005   3.250  27.097  10.997
43798W        W 8006   0.339  13.206   1.395
43799W        W 8007  15.785  35.930  14.812
43800W        W 8008  24.013  15.700  13.810
43801W        W 8009  18.097  33.980   1.784
43802W        W 8010  38.453  36.374  11.007
43803W        W 8011  43.019  31.080  11.994
43804W        W 8012   9.289  11.325  11.484
43805W        W 8013  11.836  15.146  11.988
43806W        W 8014  14.693   7.903   0.458
43807W        W 8015  15.640   4.724   3.785
43808W        W 8016  38.329  16.602   2.697
43809W        W 8017  31.486   9.723   0.273
43810W        W 8018  16.264   6.222  13.893
43811W        W 8019   3.436  33.414  11.503
43812W        W 8020   8.340  24.026   1.361
43813W        W 8021   2.453  41.486  12.373
43814W        W 8022  13.233  41.419   0.752
43815W        W 8023  44.761   5.697   3.185
43816W        W 8024  33.496  28.989  12.953
43817W        W 8025  35.978  33.580   4.655
43818W        W 8026   9.838  12.697  13.936
43819W        W 8027  22.080  44.854  10.889
43820W        W 8028  17.188  11.158  11.092
43821W        W 8029  21.593   3.895  14.300
43822W        W 8030  13.742  19.628   2.216
43823W        W 8031   6.254  43.274  14.515
43824W        W 8032  27.157  13.179   0.787
43825W        W 8033  23.589  24.052   4.228
43826W        W 8034  10.685  37.891  11.914
43827W        W 8035  32.400   4.432   3.677
43828W        W 8036  32.907  36.950  10.950
43829W        W 8037  33.029  21.168   2.690
43830W        W 8038   4.845  34.458  11.918
43831W        W 8039  15.633  14.334   4.179
43832W        W 8040  39.942  24.577  13.964
43833W        W 8041  18.196  37.040   2.838
43834W        W 8042  33.946  41.355  10.425
43835W        W 8043  41.533  31.427  13.335
43836W        W 8044  41.401  11.275  14.762
43837W        W 8045  35.470   9.820  10.963
43838W        W 8046  22.534  39.059  13.448
43839W        W 8047   4.938  13.253   1.872
43840W        W 8048  12.253  38.953   2.308
43841W        W 8049  23.010  39.485  13.963
43842W        W 8050  30.130  34.000  11.444
43843W        W 8051  18.069  26.581   2.250
43844W        W 8052  32.425  32.912  14.805
43845W        W 8053  22.629  34.903   3.864
43846W        W 8054  14.798  22.630  11.393
43847W        W 8055   0.772   8.818   9.955
43848W        W 8056  15.281  44.911   3.806
43849W        W 8057  18.201  13.685  12.458
43850W        W 8058  42.939   7.778  11.942
43851W        W 8059  16.227  22.564  13.457
43852W        W 8060  12.765   9.742   3.690
43853W        W 8061  12.283  44.348  11.603
43854W        W 8062  30.600   7.871   0.248
43855W        W 8063  23.239  26.512   4.782
43856W        W 8064  35.505   4.379   3.278
43857W        W 8065  44.784   5.340  13.519
43858W        W 8066  14.666  19.710  12.835
43859W        W 8067  24.724  30.163  12.360
43860W        W 8068  34.613  41.865   0.776
43861W        W 8069  14.765  35.506   3.697
43862W        W 8070  38.566  18.735   3.821
43863W        W 8071  28.079   0.493   3.745
43864W        W 8072  32.133   2.812   2.666
43865W        W 8073  26.014  29.099   1.898
43866W        W 8074  13.716  37.460   0.849
43867W        W 8075  40.420  36.437  13.923
43868W        W 8076  34.416  41.836   4.647
43869W        W 8077  27.588  43.014   2.899
43870W        W 8078   5.310  24.128   0.302
43871W        W 8079  29.051  34.901  14.374
43872W        W 8080  16.108  36.956   1.374
43873W        W 8081  28.609   6.265   4.797
43874W        W 8082  39.462  28.563   3.367
43875W        W 8083   1.348  38.035  10.153
43876W        W 8084  43.891  32.609  11.518
43877W        W 8085  15.174  38.558  11.114
43878W        W 8086  15.640  43.297   1.249
43879W        W 8087  10.320   5.759  12.039
43880W        W 8088  12.817  33.095  10.947
43881W        W 8089  32.421  31.564  10.565
43882W        W 8090  21.094   9.220   4.634
43883W        W 8091  23.070   6.224  10.160
43884W        W 8092  34.935  19.088   1.911
43885W        W 8093  15.672   0.378  10.093
43886W        W 8094   8.733  39.061   4.304
43887W        W 8095  10.196  20.744   2.291
43888W        W 8096  12.252  13.692  12.343
43889W        W 8097  12.635  19.581  11.025
43890W        W 8098   0.312  40.934   2.327
43891W        W 8099  10.352  39.392   2.252
43892W        W 8100  18.081  18.065  14.989
43893W        W 8101  35.865  30.493  13.486
43894W        W 8102  22.155  41.505  11.526
43895W        W 8103  32.472  25.140  13.947
43896W        W 8104   1.943  39.857   1.926
43897W        W 8105  10.354  34.996  12.976
43898W        W 8106  12.251  14.247   1.326
43899W        W 8107  11.321   5.819  14.998
43900W        W 8108  12.760   0.321   0.743
43901W        W 8109  39.448   8.333  12.939
43902W        W 8110  35.571  42.837   2.734
43903W        W 8111  34.602  29.998  10.974
43904W        W 8112  17.197  23.014  13.542
43905W        W 8113  28.981  16.284   1.228
43906W        W 8114  38.385  14.160   5.128
43907W        W 8115   5.257   1.325   2.801
43908W        W 8116  41.384  38.397  11.052
43909W        W 8117   0.986  30.444   2.256
43910W        W 8118  25.004  24.161  14.944
43911W        W 8119   1.882  29.605  13.542
43912W        W 8120  36.066   6.419  10.520
43913W        W 8121   7.876  37.904  12.956
43914W        W 8122  42.898  22.055   4.708
43915W        W 8123  39.021  11.170   2.693
43916W        W 8124  13.618  36.550  13.010
43917W        W 8125   3.870   6.243   4.619
43918W        W 8126  44.994  12.767  14.450
43919W        W 8127  18.598  15.323  11.057
43920W        W 8128  15.112   1.882   3.364
43921W        W 8129  41.452  31.908  10.566
43922W        W 8130  15.253  12.152   2.713
43923W        W 8131  43.410  17.794  12.930
43924W        W 8132  14.335  32.456   3.217
43925W        W 8133  42.436  26.640   2.831
43926W        W 8134  15.676  11.226   0.458
43927W        W 8135  14.801  14.756  13.851
43928W        W 8136  20.619  43.321  11.449
43929W        W 8137  41.846  37.466  11.604
43930W        W 8138  18.662  30.526  10.131
43931W        W 8139  31.524  10.315  10.546
43932W        W 8140  10.669  38.843   0.329
43933W        W 8141  13.175  19.199  13.987
43934W        W 8142   2.451  24.625  13.903
43935W        W 8143   6.398  35.962   1.909
43936W        W 8144  17.230   0.885   1.781
43937W        W 8145  16.732  38.029   2.765
43938W        W 8146  14.137   8.172   0.405
43939W        W 8147   2.340   1.940   5.625
43940W        W 8148   7.217  32.599   4.686
43941W        W 8149  22.523  39.388  10.929
43942W        W 8150  11.700  23.613   1.862
43943W        W 8151  22.059  35.443   3.706
43944W        W 8152  16.749  31.153  11.027
43945W        W 8153  41.802  25.159  12.913
43946W        W 8154  11.156  20.227   0.468
43947W        W 8155  15.610   7.370  12.837
43948W        W 8156  10.723  15.591  12.018
43949W        W 8157  32.586   5.289   1.796
43950W        W 8158  30.037  11.135  10.624
43951W        W 8159  16.634   7.800   4.810
43952W        W 8160  28.471  44.798  14.368
43953W        W 8161   0.780  44.965  12.945
43954W        W 8162  25.581  41.358  11.382
43955W        W 8163  32.530   8.247   1.426
43956W        W 8164   3.890  16.748   2.308
43957W        W 8165  13.700   8.892  10.559
43958W        W 8166  25.499  28.597   2.800
43959W        W 8167   7.339   0.752   0.753
43960W        W 8168  12.673  44.921  14.004
43961W        W 8169  24.717  23.118   4.217
43962W        W 8170  37.899  34.902  12.573
43963W        W 8171  20.759  33.038  14.775
43964W        W 8172   4.778  41.929  12.531
43965W        W 8173  21.239   0.311   3.316
43966W        W 8174  40.050  23.996  14.348
43967W        W 8175  21.025  28.105  12.504
43968W        W 8176  15.705  25.051   2.730
43969W        W 8177  11.632  18.738  10.452
43970W        W 8178  19.199  39.458  13.458
43971W        W 8179  10.771  16.236   3.731
43972W        W 8180  38.933  11.269  14.028
43973W        W 8181   8.294   5.295  13.479
43974W        W 8182  42.777   3.261  11.564
43975W        W 8183   4.329  40.522   2.845
43976W        W 8184  31.079  37.415  11.891
43977W        W 8185   9.154   4.754   1.328
43978W        W 8186   7.813  41.028   0.264
43979W        W 8187  30.978   5.815   2.767
43980W        W 8188   8.403  12.781   5.322
43981W        W 8189  15.673  38.352   1.850
43982W        W 8190  31.452  28.051  13.935
43983W        W 8191  20.230  13.648   3.638
43984W        W 8192  38.426  25.035   0.831
43985W        W 8193  10.806  28.170   3.642
43986W        W 8194  28.465  33.128  13.015
43987W        W 8195  21.694  31.515   4.219
43988W        W 8196  26.105   6.409   0.813
43989W        W 8197  32.983  35.602  14.441
43990W        W 8198   6.323  17.725  12.526
43991W        W 8199  22.518  20.609   3.828
43992W        W 8200  35.404  23.536   4.341
43993W        W 8201  36.403  32.407  13.979
43994W        W 8202  17.799  14.218   0.851
43995W        W 8203  17.780  32.579   1.826
43996W        W 8204  10.731  30.058   3.783
43997W        W 8205  40.430  15.794  10.948
43998W        W 8206  38.433  28.022  10.593
43999W        W 8207  36.894   9.890  11.588
44000W        W 8208  26.114  38.376   0.964
44001W        W 8209  20.665   7.878   1.769
44002W        W 8210  15.702  20.167   5.204
44003W        W 8211   6.679  11.680   1.261
44004W        W 8212  32.981  43.877  13.363
44005W        W 8213  32.070  30.500   9.981
44006W        W 8214  26.018  21.163  12.869
44007W        W 8215  15.749  40.392  11.074
44008W        W 8216   6.194  38.970  14.312
44009W        W 8217   9.773  22.619  10.573
44010W        W 8218  14.146  13.609  11.438
44011W        W 8219  13.676   0.950   3.280
44012W        W 8220  34.972  42.322   0.451
44013W        W 8221   9.257  38.006   2.695
44014W        W 8222  40.816  25.471   1.245
44015W        W 8223   2.773  14.810  14.765
44016W        W 8224  13.673  15.732  12.576
44017W        W 8225  23.687  12.293  10.607
44018W        W 8226  28.516  32.534   3.356
44019W        W 8227  17.182  36.893   2.669
44020W        W 8228  14.727  29.509  10.624
44021W        W 8229  34.048  28.185   3.382
44022W        W 8230   2.781   4.845  14.851
44023W        W 8231  16.614  37.936   4.309
44024W        W 8232   0.256  43.330   4.720
44025W        W 8233   2.301  30.556   4.275
44026W        W 8234  10.378  20.095  11.040
44027W        W 8235  18.631  11.763  11.605
44028W        W 8236   6.809  20.161   1.744
44029W        W 8237  34.433   4.840  12.878
44030W        W 8238  35.035  22.713  13.963
44031W        W 8239  43.350  12.681   2.846
44032W        W 8240  22.078  14.138  14.986
44033W        W 8241  38.898   0.358   4.797
44034W        W 8242  43.834  10.796  13.935
44035W        W 8243  37.581   3.816  10.061
44036W        W 8244  39.348  35.518   1.428
44037W        W 8245  17.710  18.147   2.250
44038W        W 8246  25.130  26.168   3.722
44039W        W 8247  20.099  43.951   3.785
44040W        W 8248  42.331   9.786   0.383
44041W        W 8249  15.299  32.019  12.957
44042W        W 8250  13.633  20.527   0.842
44043W        W 8251  38.407  43.789  11.940
44044W        W 8252  25.964  33.500   2.681
44045W        W 8253  16.107   7.315  13.321
44046W        W 8254  25.197  19.133   3.701
44047W        W 8255   5.195  28.593  14.814
44048W        W 8256  40.941  41.492  14.938
44049W        W 8257  20.201  33.581   2.843
44050W        W 8258  34.371  20.204   4.154
44051W        W 8259  14.223  43.884   2.843
44052W        W 8260  21.543  23.029   0.834
44053W        W 8261  34.051   2.381  11.606
44054W        W 8262   9.856  37.523   4.297
44055W        W 8263  36.560  26.958  10.638
44056W        W 8264  19.113   0.343  10.980
44057W        W 8265  36.486  10.259   1.729
44058W        W 8266  20.709  31.546   4.622
44059W        W 8267  39.852  41.392  10.908
44060W        W 8268   9.645  23.589  13.940
44061W        W 8269  32.507  34.449   1.215
44062W        W 8270  42.787  37.082   4.720
44063W        W 8271  17.687   3.916  11.994
44064W        W 8272  22.109   0.437   3.848
44065W        W 8273  20.645   9.714  13.998
44066W        W 8274  31.147  39.943  13.819
44067W        W 8275  29.033   0.947   4.812
44068W        W 8276   1.939  30.916  11.875
44069W        W 8277  32.525  22.705  12.431
44070W        W 8278  20.623  43.852  11.044
44071W        W 8279  28.024  10.877   4.712
44072W        W 8280  20.202  37.393   0.370
44073W        W 8281  13.343   3.901   2.365
44074W        W 8282  42.794  13.135  13.414
44075W        W 8283  41.984   9.394  14.478
44076W        W 8284  39.833  39.421   2.692
44077W        W 8285  37.578   6.395  14.010
44078W        W 8286   4.382  20.545  10.936
44079W        W 8287  16.692  18.086  13.841
44080W        W 8288  28.574   7.889  13.794
44081W        W 8289   4.739  16.171  11.530
44082W        W 8290  20.690  17.774  13.474
44083W        W 8291  26.102  36.851  13.467
44084W        W 8292  40.517  42.988  13.427
44085W        W 8293  29.987  29.977   1.402
44086W        W 8294  21.543  27.197   4.216
44087W        W 8295  39.031  28.956  13.427
44088W        W 8296  34.574  32.917  13.927
44089W        W 8297  33.942  38.404  11.401
44090W        W 8298   4.796  32.915   3.768
44091W        W 8299  16.809  26.032   2.218
44092W        W 8300   3.330   7.685  12.842
44093W        W 8301  39.809   5.382   0.769
44094W        W 8302  20.563  17.084  13.312
44095W        W 8303   8.185   8.295   2.892
44096W        W 8304  36.537  38.910   2.241
44097W        W 8305  37.394  21.222   4.834
44098W        W 8306  33.511  27.070   0.387
44099W        W 8307  21.558  23.128  14.805
44100W        W 8308   0.466  14.688   4.248
44101W        W 8309  18.715  31.016  13.019
44102W        W 8310  32.026  40.398  14.419
44103W        W 8311  41.978  30.465  14.824
44104W        W 8312   4.857  34.406   1.342
44105W        W 8313  18.648   5.386  10.624
44106W        W 8314   2.356  31.087  13.922
44107W        W 8315  34.583  29.068   2.216
44108W        W 8316  35.099   1.849   0.374
44109W        W 8317   4.788  24.221  14.313
44110W        W 8318  30.620   1.903   1.343
44111W        W 8319  22.619   0.448   2.719
44112W        W 8320  42.945   8.685   1.378
44113W        W 8321  27.025  39.834  13.539
44114W        W 8322  36.909  27.968   0.879
44115W        W 8323  41.958  15.756  14.325
44116W        W 8324  43.785  39.498   1.354
44117W        W 8325   8.240   2.736  13.940
44118W        W 8326  17.187  20.187  12.073
44119W        W 8327   9.342   2.755   1.846
44120W        W 8328  16.203  24.595  14.411
44121W        W 8329  21.729  34.914   1.885
44122W        W 8330  22.580   6.735   0.324
44123W        W 8331  26.146  25.683  13.922
44124W        W 8332  31.993  20.060   3.734
44125W        W 8333  20.645  12.173   2.853
44126W        W 8334  26.065  31.573  11.083
44127W        W 8335   5.693  24.067  10.993
44128W        W 8336  27.020  42.401  12.350
44129W        W 8337  40.349   7.173   2.281
44130W        W 8338   8.839  12.277  12.444
44131W        W 8339  21.678  39.548   1.319
44132W        W 8340  38.048   5.240   1.255
44133W        W 8341  23.562  30.035  14.849
44134W        W 8342   5.711  18.694  10.581
44135W        W 8343  43.297  21.592  12.058
44136W        W 8344  14.256   3.711  13.536
44137W        W 8345   8.780  17.243   4.763
44138W        W 8346   1.259  31.532  12.878
44139W        W 8347  40.004  16.155   0.790
44140W        W 8348   2.736  16.204  12.396
44141W        W 8349  13.820  40.845   0.376
44142W        W 8350  23.014  20.680   1.890
44143W        W 8351  44.360  29.436   1.708
44144W        W 8352   8.283   8.784   3.236
44145W        W 8353  30.532  26.016  13.799
44146W        W 8354  29.643  12.172   3.734
44147W        W 8355  36.507  21.174   1.230
44148W        W 8356  19.280  15.156  12.946
44149W        W 8357  14.631  34.984   2.773
44150W        W 8358  44.368   8.293  10.507
44151W        W 8359  42.302   9.698   4.800
44152W        W 8360   3.295   6.706   4.718
44153W        W 8361  24.660  34.932   3.204
44154W        W 8362   3.833  33.963   9.515
44155W        W 8363   1.266  10.827  13.958
44156W        W 8364   7.830  19.542   2.276
44157W        W 8365  30.026  30.068  13.382
44158W        W 8366  23.046   5.360  11.375
44159W        W 8367  12.833  13.767   3.219
44160W        W 8368  43.980  21.246   1.329
44161W        W 8369  31.936  39.005   0.465
44162W        W 8370  27.515   5.880  13.352
44163W        W 8371   8.720   9.736   3.376
44164W        W 8372  18.061  22.054   2.770
44165W        W 8373   2.767  31.560   0.437
44166W        W 8374  38.370  43.322   3.386
44167W        W 8375  43.387  40.823   3.224
44168W        W 8376   5.866  10.643  14.508
44169W        W 8377  10.800  39.820   4.344
44170W        W 8378  30.120  23.085   3.368
44171W        W 8379  41.501  30.041  13.963
44172W        W 8380   8.804  16.288   4.717
44173W        W 8381   1.322  43.883  14.980
44174W        W 8382  25.205   2.341  11.051
44175W        W 8383  28.053  14.174  13.046
44176W        W 8384  34.596   7.713   3.348
44177W        W 8385  30.583  20.699   1.706
44178W        W 8386  38.070  33.447   3.298
44179W        W 8387  18.125  36.002   9.525
44180W        W 8388  32.889  42.403  12.044
44181W        W 8389  30.497   4.718  12.077
44182W        W 8390   9.178  18.662  12.477
44183W        W 8391   4.732   8.733  14.353
44184W        W 8392  38.888  14.753   1.793
44185W        W 8393  17.167   4.870  13.454
44186W        W 8394  34.424  14.116  13.958
44187W        W 8395  21.166   3.253   2.728
44188W        W 8396  39.355  18.693   0.320
44189W        W 8397  24.554  18.281   0.896
44190W        W 8398  12.273  13.241  14.791
44191W        W 8399  25.175   8.827  14.438
44192W        W 8400   8.358   5.788   1.360
44193W        W 8401  12.739  40.927  13.814
44194W        W 8402  33.452  28.180  14.967
44195W        W 8403  37.982  18.735  13.973
44196W        W 8404  24.673   2.308   2.306
44197W        W 8405  18.057  38.461  12.402
44198W        W 8406  36.487   5.832  13.920
44199W        W 8407  29.984  30.412  13.964
44200W        W 8408   7.407  35.050   1.839
44201W        W 8409  21.253  13.663   0.344
44202W        W 8410  35.859  41.849   2.231
44203W        W 8411  35.552   4.369  11.493
44204W        W 8412   2.727  43.798  13.064
44205W        W 8413  26.183   9.269   2.726
44206W        W 8414  25.601   4.940  12.065
44207W        W 8415   1.944  39.981   3.206
44208W        W 8416  25.477  38.378   4.259
44209W        W 8417  13.725  20.531  11.491
44210W        W 8418  38.944  15.087   4.700
44211W        W 8419  12.617  31.053   2.877
44212W        W 8420  26.696   4.901  10.483
44213W        W 8421   7.719  23.992   1.277
44214W        W 8422  33.084   7.817   1.379
44215W        W 8423  12.730  29.058  13.446
44216W        W 8424  44.917   9.834   3.246
44217W        W 8425  26.087  36.394  12.404
44218W        W 8426  10.314  26.021  13.952
44219W        W 8427  13.305  28.612   4.162
44220W        W 8428  40.843  11.322  14.922
44221W        W 8429  18.729  23.704  13.392
44222W        W 8430   1.367  12.743  12.952
44223W        W 8431  35.090   6.254  11.489
44224W        W 8432  34.011  43.916   0.899
44225W        W 8433  29.127  31.934   4.796
44226W        W 8434  38.050  33.021   3.861
44227W        W 8435  11.127  33.491  11.562
44228W        W 8436  42.776  40.390   2.761
44229W        W 8437  17.121  18.120   5.143
44230W        W 8438   3.855  35.922  14.348
44231W        W 8439  43.324  19.546  12.054
44232W        W 8440  15.182   6.833  13.319
44233W        W 8441  41.428  24.674  14.359
44234W        W 8442  26.528  35.977   0.796
44235W        W 8443  42.482  40.053   1.704
44236W        W 8444  32.899   6.271   1.854
44237W        W 8445  33.973   1.841   0.289
44238W        W 8446  32.530  22.250   4.626
44239W        W 8447  15.314  44.755  14.020
44240W        W 8448  18.634  28.678   3.838
44241W        W 8449  22.141  11.751  10.538
44242W        W 8450  33.981  22.079  13.389
44243W        W 8451  22.082  34.941   2.697
44244W        W 8452  11.169  39.536   4.831
44245W        W 8453  22.681  43.396   0.404
44246W        W 8454  32.405  33.382   1.447
44247W        W 8455  30.450  10.205  11.866
44248W        W 8456   1.315  41.949   3.214
44249W        W 8457  19.686  11.706   3.785
44250W        W 8458  21.073  26.119  14.968
44251W        W 8459  15.692   7.811   0.359
44252W        W 8460  10.372  42.787   2.405
44253W        W 8461  24.529   6.829  10.536
44254W        W 8462   9.283  17.713   1.310
44255W        W 8463  14.112  10.809   1.874
44256W        W 8464  12.121  15.738   9.958
44257W        W 8465  29.934  10.311  12.539
44258W        W 8466  12.143  14.813   0.937
44259W        W 8467   7.702   8.803   5.271
44260W        W 8468  10.346  21.201   3.345
44261W        W 8469  37.917   1.249   0.727
44262W        W 8470  18.693  30.496   2.191
44263W        W 8471  15.702  25.973   3.372
44264W        W 8472  34.551  27.124  10.601
44265W        W 8473  19.652   4.279   4.347
44266W        W 8474  31.916  38.511  10.444
44267W        W 8475   2.441   4.811   4.782
44268W        W 8476   5.394  20.751  13.034
44269W        W 8477   3.323  24.144   1.836
44270W        W 8478  34.915  11.160  14.477
44271W        W 8479  39.957   3.878   2.710
44272W        W 8480  35.026   8.831  12.883
44273W        W 8481  37.513  41.352   9.970
44274W        W 8482  27.948  11.367  14.989
44275W        W 8483  29.465  23.081  13.877
44276W        W 8484  23.549  20.214  12.871
44277W        W 8485  14.189  28.537   4.655
44278W        W 8486  15.329  38.501  13.419
44279W        W 8487   8.219   6.919   1.868
44280W        W 8488  24.107   4.896   5.315
44281W        W 8489  42.981  16.724  13.831
44282W        W 8490   5.779  12.180   0.861
44283W        W 8491  28.454  41.840   4.605
44284W        W 8492  40.531  38.348   3.155
44285W        W 8493  30.158  35.591   1.744
44286W        W 8494  23.503  11.674  12.842
44287W        W 8495  42.890  31.594  10.100
44288W        W 8496  41.799  21.225   2.764
44289W        W 8497  35.488  31.577  13.014
44290W        W 8498  14.788  13.129   3.227
44291W        W 8499  40.391  23.596  12.421
44292W        W 8500   0.820  41.850  13.511
44293W        W 8501   4.826  13.167   4.150
44294W        W 8502   4.259  26.603  12.511
44295W        W 8503  41.337   5.749  10.612
44296W        W 8504  34.526  13.766  14.892
44297W        W 8505  34.863   0.381  10.436
44298W        W 8506  12.849   4.936  14.321
44299W        W 8507  36.466  42.887   3.315
44300W        W 8508   2.425  29.604  13.370
44301W        W 8509  37.438  33.933   1.266
44302W        W 8510  14.775  10.265   4.603
44303W        W 8511   4.745   9.175   0.342
44304W        W 8512  24.131  29.959  13.829
44305W        W 8513   0.415  42.386   3.262
44306W        W 8514  41.371  28.462   1.268
44307W        W 8515  36.368   6.412   3.154
44308W        W 8516  16.610  18.547  14.494
44309W        W 8517   6.395  16.251   4.174
44310W        W 8518  28.108   7.834  10.972
44311W        W 8519  13.330  16.762  11.372
44312W        W 8520  16.756  25.173   4.266
44313W        W 8521  17.598  23.632   3.796
44314W        W 8522  18.577  36.018   4.663
44315W        W 8523  41.451  31.432   3.256
44316W        W 8524  20.550  37.581  13.042
44317W        W 8525   2.894  17.688   2.851
44318W        W 8526  29.518  27.628   2.399
44319W        W 8527   9.696   2.798  14.356
44320W        W 8528   4.432  41.991   2.741
44321W        W 8529  23.219  44.927   4.731
44322W        W 8530  43.953  43.821   4.824
44323W        W 8531   1.861  30.504   9.673
44324W        W 8532  37.837  30.420  12.955
44325W        W 8533   8.351   0.433  14.937
44326W        W 8534  41.364   9.741  11.960
44327W        W 8535  22.137   3.386   2.395
44328W        W 8536  31.976   4.211   5.128
44329W        W 8537  13.811   2.311  13.993
44330W        W 8538   2.417  22.648   2.280
44331W        W 8539  18.642  14.680   0.435
44332W        W 8540   2.804  13.829   0.760
44333W        W 8541  21.668  17.626   2.825
44334W        W 8542  41.294  35.397   2.185
44335W        W 8543  32.505   2.795   4.802
44336W        W 8544  32.615  36.884   3.645
44337W        W 8545  29.464  25.474   3.374
44338W        W 8546  41.484   2.842   3.271
44339W        W 8547  38.342   8.875  13.870
44340W        W 8548  13.266  21.104   5.316
44341W        W 8549  20.097  25.673  14.304
44342W        W 8550   8.810   8.833  12.955
44343W        W 8551  20.083   5.868   2.417
44344W        W 8552  41.846  34.929  11.058
44345W        W 8553  20.031   2.383   3.656
44346W        W 8554  17.677  27.031  14.772
44347W        W 8555  38.899  39.399   3.246
44348W        W 8556  28.560  43.007   0.813
44349W        W 8557  19.235  21.094  13.503
44350W        W 8558  32.551   4.873  12.466
44351W        W 8559  41.309  10.220  11.545
44352W        W 8560  21.747  37.518   1.740
44353W        W 8561   4.793  33.896   4.167
44354W        W 8562  15.638  11.275  13.927
44355W        W 8563  14.768   0.754  11.021
44356W        W 8564   8.816  32.967   1.812
44357W        W 8565  43.491  28.026  10.608
44358W        W 8566  44.427  34.542  10.919
44359W        W 8567  11.796  42.024   3.334
44360W        W 8568  18.216   9.394   0.253
44361W        W 8569  26.460   0.792   2.399
44362W        W 8570   1.860  23.725   0.253
44363W        W 8571  26.122  42.423  12.969
44364W        W 8572  40.422  41.971   4.289
44365W        W 8573   5.840  12.208  13.838
44366W        W 8574  29.600  33.541  11.566
44367W        W 8575  39.314  26.981   1.864
44368W        W 8576  26.572  24.070  12.533
44369W        W 8577  25.554  15.213   4.122
44370W        W 8578  30.993   7.229   4.713
44371W        W 8579   3.376  38.022  12.096
44372W        W 8580  20.061  34.499  13.986
44373W        W 8581   5.692  39.415  13.473
44374W        W 8582   9.372  38.974   2.315
44375W        W 8583  41.953  11.750   2.410
44376W        W 8584   0.378  20.230   3.708
44377W        W 8585  26.000  35.082   0.959
44378W        W 8586   3.260   9.380  12.864
44379W        W 8587  10.837  16.733  13.313
44380W        W 8588  42.499  35.103   4.194
44381W        W 8589  18.744  15.735   1.408
44382W        W 8590   2.878  24.496  11.030
44383W        W 8591   1.818  17.289  10.920
44384W        W 8592  29.175  42.511   0.878
44385W        W 8593   5.923  10.338   1.930
44386W        W 8594  44.303  11.658  13.364
44387W        W 8595   2.299  23.187   0.453
44388W        W 8596  35.094  17.666  12.006
44389W        W 8597  29.119  24.096  11.988
44390W        W 8598   5.354   5.297  11.055
44391W        W 8599  21.539   3.313   3.232
44392W        W 8600  35.053  39.432   2.901
44393W        W 8601  35.498  16.661   4.663
44394W        W 8602   4.841  39.829  11.599
44395W        W 8603   6.766  24.138  14.018
44396W        W 8604  30.639   2.773   3.815
44397W        W 8605  28.581   6.734  10.576
44398W        W 8606  18.570  31.903  13.546
44399W        W 8607  28.137  18.253   3.254
44400W        W 8608  15.240  28.576  12.551
44401W        W 8609  13.279  11.626   3.175
44402W        W 8610   3.766  28.479   2.253
44403W        W 8611  16.171  16.780   4.303
44404W        W 8612  11.265   4.772   1.305
44405W        W 8613  24.583  29.514   0.913
44406W        W 8614  42.435  43.488  13.988
44407W        W 8615  43.448   1.752   4.614
44408W        W 8616  44.432  42.784   1.925
44409W        W 8617   1.763  44.492   3.664
44410W        W 8618   6.878   2.257   0.778
44411W        W 8619  19.676   7.400  12.375
44412W        W 8620  10.650  31.487  13.443
44413W        W 8621  31.105  26.201  10.633
44414W        W 8622  31.062  35.359   4.223
44415W        W 8623   5.933  19.596   1.907
44416W        W 8624  35.868  40.974   0.868
44417W        W 8625   9.825  14.719   3.864
44418W        W 8626  28.597  16.804   2.198
44419W        W 8627  37.001  11.816  14.962
44420W        W 8628   2.271  40.850  14.992
44421W        W 8629  28.500  10.354   0.310
44422W        W 8630  11.729  32.515  14.386
44423W        W 8631  18.578  24.153   2.847
44424W        W 8632  29.081  38.534   0.832
44425W        W 8633  35.533  16.153   1.216
44426W        W 8634  42.493   3.224  11.496
44427W        W 8635  18.752  23.216  10.524
44428W        W 8636  29.012  19.688   3.320
44429W        W 8637   9.303   6.277  13.859
44430W        W 8638  43.413   4.775  13.470
44431W        W 8639   5.357  22.080   0.390
44432W        W 8640  33.951  43.984   0.303
44433W        W 8641   1.795  14.317   3.792
44434W        W 8642   5.204   6.207   4.713
44435W        W 8643   9.718  15.685  12.522
44436W        W 8644  40.509   0.757  12.433
44437W        W 8645  20.116  31.947   2.394
44438W        W 8646  43.377   0.891  10.552
44439W        W 8647  12.702  25.635   2.295
44440W        W 8648  11.348   5.230   3.804
44441W        W 8649  27.494   0.862   2.737
44442W        W 8650   8.354   5.386  14.392
44443W        W 8651   1.884  40.808   3.231
44444W        W 8652  29.926  32.127  14.900
44445W        W 8653  23.005  31.947  12.385
44446W        W 8654  27.615   9.304  12.903
44447W        W 8655  13.691   0.803   2.895
44448W        W 8656  29.991  19.711   0.440
44449W        W 8657  28.045  31.050   0.807
44450W        W 8658  42.897   8.329  13.954
44451W        W 8659  17.203  15.732   2.804
44452W        W 8660  42.521  44.409  11.877
44453W        W 8661  37.978  10.860  13.315
44454W        W 8662  40.407  18.174  12.974
44455W        W 8663  15.098  29.095  10.513
44456W        W 8664  29.432  18.237  10.440
44457W        W 8665  26.140  13.639  13.376
44458W        W 8666  23.732  41.391  13.862
44459W        W 8667  35.925  18.296  13.917
44460W        W 8668  13.281  35.898  12.533
44461W        W 8669  23.031  33.916  14.987
44462W        W 8670  21.194  43.911  14.857
44463W        W 8671   8.701   9.823   3.788
44464W        W 8672   4.838  20.193   1.826
44465W        W 8673   7.284   9.211  11.972
44466W        W 8674  22.252  15.116   3.168
44467W        W 8675  31.420  40.863  12.357
44468W        W 8676  12.145  33.499  10.896
44469W        W 8677  22.548  25.690  14.772
44470W        W 8678   6.399  31.498  14.000
44471W        W 8679  18.275  23.007  14.954
44472W        W 8680  30.027  41.013  10.585
44473W        W 8681   7.282  36.013  13.463
44474W        W 8682   5.932  18.126  13.461
44475W        W 8683  24.697  24.526  11.063
44476W        W 8684  39.355  18.584   3.229
44477W        W 8685  34.880   3.955   3.656
44478W        W 8686  23.675  31.463   0.791
44479W        W 8687  38.497  16.184  13.939
44480W        W 8688   4.233  23.162  12.848
44481W        W 8689  25.073  14.704   1.402
44482W        W 8690  31.557  11.865  11.092
44483W        W 8691  42.939  11.192  11.021
44484W        W 8692  10.199  14.250  14.377
44485W        W 8693   3.807  32.452   1.369
44486W        W 8694  24.516  32.474  13.309
44487W        W 8695  40.939  31.526  10.916
44488W        W 8696  21.655  30.629   2.249
44489W        W 8697  15.780  44.904   4.820
44490W        W 8698  20.114  10.256  12.390
44491W        W 8699   8.233  12.703  11.894
44492W        W 8700   1.480  28.606   3.768
44493W        W 8701   4.757   2.764  13.495
44494W        W 8702  13.259  34.485   3.172
44495W        W 8703  28.174  30.441   3.283
44496W        W 8704   7.410  37.932  12.836
44497W        W 8705  37.067  14.692   0.307
44498W        W 8706  44.505  15.782  11.488
44499W        W 8707  24.651  22.166   3.368
44500W        W 8708  44.846  30.536   0.953
44501W        W 8709   1.448  13.617  10.477
44502W        W 8710  40.829  39.880  14.913
44503W        W 8711   4.319   0.361  10.440
44504W        W 8712  18.678  21.081   1.389
44505W        W 8713   9.382   0.407  12.913
44506W        W 8714  22.510  25.094   1.386
44507W        W 8715  44.289  39.916   1.385
44508W        W 8716   5.255  21.239  14.803
44509W        W 8717  31.910  21.589   4.279
44510W        W 8718  23.596   1.343   1.224
44511W        W 8719  13.164  44.840  12.522
44512W        W 8720   3.720   9.709  12.577
44513W        W 8721  43.900  19.151  14.993
44514W        W 8722  20.738  43.289   4.665
44515W        W 8723  25.066  26.121  14.334
44516W        W 8724  43.962   1.418   3.759
44517W        W 8725  30.910  34.889   1.412
44518W        W 8726  29.489   7.807   2.229
44519W        W 8727   3.907  19.770   2.186
44520W        W 8728  10.167  21.738   4.648
44521W        W 8729  24.982   3.919  12.900
44522W        W 8730  28.484   5.402   4.718
44523W        W 8731  43.498   6.301   3.309
44524W        W 8732  24.508   5.278  14.805
44525W        W 8733   3.892  12.205  10.547
44526W        W 8734   8.312  17.782  10.641
44527W        W 8735  11.277  27.062  10.943
44528W        W 8736  10.251  31.939   2.180
44529W        W 8737  10.860  20.630   2.763
44530W        W 8738  31.572  37.473   1.374
44531W        W 8739  20.672   8.207  13.515
44532W        W 8740   9.262   7.862   0.758
44533W        W 8741  41.520  22.662   2.346
44534W        W 8742  29.584   7.772   0.393
44535W        W 8743  44.342  31.021   3.176
44536W        W 8744   5.206  21.531  11.387
44537W        W 8745  17.790  24.076  12.071
44538W        W 8746   3.710   8.375   3.242
44539W        W 8747  34.524   7.679   0.905
44540W        W 8748   3.458   0.373  10.975
44541W        W 8749  17.304  14.286  12.859
44542W        W 8750  20.731   7.237  12.002
44543W        W 8751   8.392   5.811  14.826
44544W        W 8752  26.132   8.320   3.177
44545W        W 8753  25.111  39.045  10.469
44546W        W 8754   3.744  14.298  11.425
44547W        W 8755  21.688  17.673   0.297
44548W        W 8756  15.212   9.343  12.546
44549W        W 8757   1.336  37.436  12.902
44550W        W 8758   7.218   8.739   4.249
44551W        W 8759   7.314  34.467   3.715
44552W        W 8760  27.572   1.936   2.393
44553W        W 8761  20.528  15.806   1.836
44554W        W 8762  33.890  19.139   1.906
44555W        W 8763  31.421  23.672   2.824
44556W        W 8764  29.923   7.837  11.605
44557W        W 8765  22.044  31.917  12.372
44558W        W 8766  17.662  24.570  14.801
44559W        W 8767  43.914  20.552   4.251
44560W        W 8768  34.064  41.996   4.670
44561W        W 8769  24.030  21.722   1.917
44562W        W 8770   8.197  25.588   1.712
44563W        W 8771  26.493  31.582  12.503
44564W        W 8772  40.351   6.717   1.325
44565W        W 8773  18.179   3.444   3.819
44566W        W 8774   7.411  23.173  12.506
44567W        W 8775  12.808  31.014   0.770
44568W        W 8776  41.015   6.351  12.937
44569W        W 8777  30.052   9.710   3.170
44570W        W 8778  31.422  30.468   3.663
44571W        W 8779  16.784  43.330  14.364
44572W        W 8780  12.253  16.687   3.658
44573W        W 8781  41.937  21.582  12.025
44574W        W 8782  33.465  31.631  11.041
44575W        W 8783  25.183   5.744  13.005
44576W        W 8784  13.311  19.218   1.821
44577W        W 8785  24.000   4.744  14.389
44578W        W 8786  42.969  18.559  11.097
44579W        W 8787  37.963  30.907  12.480
44580W        W 8788   8.280   9.643   2.205
44581W        W 8789  24.176  36.996   3.202
44582W        W 8790  13.669  20.245  14.801
44583W        W 8791  12.838  37.969   4.646
44584W        W 8792  29.169  44.828  13.852
44585W        W 8793  10.227   2.962  10.487
44586W        W 8794   7.399  33.127  14.462
44587W        W 8795  38.033   5.744   1.417
44588W        W 8796   2.914  22.202   0.908
44589W        W 8797   0.892  21.075   4.129
44590W        W 8798  34.506  10.251   3.174
44591W        W 8799  29.453   3.755  14.457
44592W        W 8800   7.273  24.046  13.493
44593W        W 8801  39.811   2.271   5.214
44594W        W 8802  24.138  44.305   5.116
44595W        W 8803   3.273   1.471   3.342
44596W        W 8804  24.534  29.128   4.744
44597W        W 8805  37.374   2.900  10.950
44598W        W 8806  20.714   1.239  11.394
44599W        W 8807  25.001  29.461  12.492
44600W        W 8808  24.633   9.354   2.213
44601W        W 8809  29.525  44.301   4.603
44602W        W 8810  39.996  35.465   1.737
44603W        W 8811  40.435  23.019   2.876
44604W        W 8812   4.407   7.174  12.971
44605W        W 8813   3.374  44.388  13.837
44606W        W 8814  31.502  21.650  14.890
44607W        W 8815  40.316  23.489   3.841
44608W        W 8816  20.591   4.278   2.318
44609W        W 8817   3.922  17.165   1.431
44610W        W 8818  13.173  44.447  14.993
44611W        W 8819  33.057  13.314  11.579
44612W        W 8820  24.068  31.003   1.285
44613W        W 8821  36.941   3.422  14.289
44614W        W 8822   0.370  35.584  14.837
44615W        W 8823  41.983  40.965  12.917
44616W        W 8824  11.360  16.193   0.351
44617W        W 8825  13.685  17.682   0.809
44618W        W 8826  41.803  10.686  13.847
44619W        W 8827   3.292   4.784  12.038
44620W        W 8828   2.311  15.728   1.252
44621W        W 8829   1.437  20.227  10.913
44622W        W 8830  20.648   0.387   2.376
44623W        W 8831  30.997  36.024  10.983
44624W        W 8832  40.811  30.989  10.582
44625W        W 8833  19.644  37.528  13.884
44626W        W 8834  43.423   6.238   0.389
44627W        W 8835  40.916   7.698   1.220
44628W        W 8836  33.966  21.093  13.965
44629W        W 8837  20.627  12.665   3.241
44630W        W 8838  30.547  23.611  10.910
44631W        W 8839   8.669   9.708  14.897
44632W        W 8840   4.412   9.334  10.421
44633W        W 8841  38.482  10.292   3.824
44634W        W 8842  44.907  33.010  14.373
44635W        W 8843  13.285  22.558   0.378
44636W        W 8844  16.237   5.722  11.586
44637W        W 8845   8.348  24.597   4.722
44638W        W 8846  22.141  13.618  13.978
44639W        W 8847  21.736   6.400  12.842
44640W        W 8848  13.215  34.587   4.692
44641W        W 8849  38.338  31.556  11.903
44642W        W 8850   8.673  44.335   2.229
44643W        W 8851  37.998  37.368   2.719
44644W        W 8852  36.959   9.746  12.495
44645W        W 8853  32.476   7.327  13.336
44646W        W 8854  13.651  22.999  12.900
44647W        W 8855  13.195  41.930  10.491
44648W        W 8856  19.222  29.554   4.293
44649W        W 8857  13.116  30.580  13.055
44650W        W 8858  26.014   3.869   3.757
44651W        W 8859  12.853  11.282  12.485
44652W        W 8860  40.020   5.434   4.210
44653W        W 8861  10.297  28.528  12.004
44654W        W 8862  15.616   2.965  13.546
44655W        W 8863  11.208  42.503   0.837
44656W        W 8864  30.929  37.975   4.820
44657W        W 8865  22.566   9.684   4.671
44658W        W 8866  43.428  14.322  14.462
44659W        W 8867  37.358  22.717  12.077
44660W        W 8868  41.873  20.522  13.487
44661W        W 8869  44.351   6.301   4.336
44662W        W 8870  24.597  17.130  13.429
44663W        W 8871  22.169  10.832  12.942
44664W        W 8872  28.976  19.746  10.419
44665W        W 8873  36.493  29.668   2.814
44666W        W 8874  12.296  12.361  14.894
44667W        W 8875  23.500   5.881   3.637
44668W        W 8876  17.141  11.302   0.311
44669W        W 8877  42.295   7.205  13.865
44670W        W 8878  35.930  31.108   1.433
44671W        W 8879  34.112  30.433  13.483
44672W        W 8880   4.873   9.193  11.570
44673W        W 8881  31.445  39.439   2.705
44674W        W 8882  39.004  32.910  13.035
44675W        W 8883  36.379  34.081   1.288
44676W        W 8884  13.615  11.222   3.718
44677W        W 8885  40.474  19.224  10.993
44678W        W 8886  26.139  12.158  13.458
44679W        W 8887  34.120  27.144  13.849
44680W        W 8888  36.562   5.355   0.380
44681W        W 8889  41.315  33.623  11.866
44682W        W 8890  15.657   8.281  13.334
44683W        W 8891  13.638  37.387  14.329
44684W        W 8892  36.539   0.926  12.004
44685W        W 8893   0.935  22.747   3.781
44686W        W 8894  14.174   1.319   4.652
44687W        W 8895  35.071   6.268   4.173
44688W        W 8896   6.795  27.691   1.290
44689W        W 8897  15.145  26.512   4.251
44690W        W 8898   2.345  11.154   1.838
44691W        W 8899   6.308  35.383   1.804
44692W        W 8900  13.751  42.978  11.934
44693W        W 8901   7.761  20.034   0.767
44694W        W 8902  21.188  11.205  13.534
44695W        W 8903  30.587   2.919   2.837
44696W        W 8904   0.399  40.852   0.321
44697W        W 8905  17.729  31.493  12.344
44698W        W 8906  38.958   7.417  11.930
44699W        W 8907  23.532  27.510  13.060
44700W        W 8908  26.067   2.404   3.724
44701W        W 8909  32.034  13.688  14.832
44702W        W 8910  10.291   1.301   0.342
44703W        W 8911  37.408   7.179  13.958
44704W        W 8912  27.164  26.966   3.302
44705W        W 8913  33.383   3.274  11.935
44706W        W 8914  29.450   5.421   2.826
44707W        W 8915  30.031   3.910   2.885
44708W        W 8916  18.562  39.465   4.610
44709W        W 8917   8.359  44.265   1.908
44710W        W 8918   7.305  31.034  11.584
44711W        W 8919  35.045  38.053  11.608
44712W        W 8920  42.863  26.512   0.853
44713W        W 8921  15.634   7.241  14.875
44714W        W 8922  38.902  11.731  12.508
44715W        W 8923  32.430  16.134   0.816
44716W        W 8924  30.121  12.838   3.198
44717W        W 8925  15.624  40.874  10.436
44718W        W 8926  15.652   3.865  12.866
44719W        W 8927  42.869  36.082  13.439
44720W        W 8928  14.171  17.289  14.402
44721W        W 8929  11.833   0.945  11.063
44722W        W 8930  19.560  40.371   3.282
44723W        W 8931   8.294   7.682   0.483
44724W        W 8932  27.638  28.001  10.921
44725W        W 8933   0.348   4.353   3.749
44726W        W 8934  18.231   4.860  14.952
44727W        W 8935  15.103  29.099  14.368
44728W        W 8936  38.986  16.784  10.602
44729W        W 8937   6.739   1.785  13.029
44730W        W 8938  26.465  15.178  11.558
44731W        W 8939  37.477   0.883   2.844
44732W        W 8940  26.616  36.933   4.140
44733W        W 8941  33.426  12.186   3.765
44734W        W 8942  36.477  10.266  12.386
44735W        W 8943  31.601  16.079  12.859
44736W        W 8944  34.571   7.700  12.371
44737W        W 8945  32.128  28.968  12.355
44738W        W 8946  26.047  15.198  13.852
44739W        W 8947  34.883  41.865   2.889
44740W        W 8948  27.090  19.760   2.819
44741W        W 8949  29.934  40.893   2.850
44742W        W 8950  26.635   7.345   9.981
44743W        W 8951  42.440  37.388   2.752
44744W        W 8952   7.214  35.013  12.009
44745W        W 8953  32.951  15.256  11.584
44746W        W 8954  23.068  31.145   4.752
44747W        W 8955  38.428   0.341  10.960
44748W        W 8956  24.176  23.613  13.051
44749W        W 8957  16.308   3.398   1.839
44750W        W 8958  40.469  34.418   1.365
44751W        W 8959  38.033   5.788  11.569
44752W        W 8960   9.835  38.043  11.871
44753W        W 8961  32.551  22.031   2.220
44754W        W 8962   8.696   9.821   0.881
44755W        W 8963  27.529  21.087  14.478
44756W        W 8964   6.250  26.510   3.195
44757W        W 8965  37.992  28.454   4.771
44758W        W 8966  37.926  39.999   4.355
44759W        W 8967  43.499   9.802  10.926
44760W        W 8968  28.451   4.368  14.288
44761W        W 8969  31.075  30.527  12.942
44762W        W 8970  25.566  39.436   3.684
44763W        W 8971  39.417  20.110  12.029
44764W        W 8972  26.547  31.571  11.904
44765W        W 8973   3.432  12.697  13.918
44766W        W 8974  27.946  41.938  13.984
44767W        W 8975  31.004  35.074   3.770
44768W        W 8976  39.366   1.836  11.870
44769W        W 8977  11.771   8.363  14.370
44770W        W 8978   5.708   3.837  12.092
44771W        W 8979  11.715  34.106   1.375
44772W        W 8980  33.403   1.808  12.993
44773W        W 8981   9.371  36.077  13.001
44774W        W 8982  28.437  37.862   2.682
44775W        W 8983  22.565   5.396  11.485
44776W        W 8984  26.479  32.537   0.316
44777W        W 8985  19.164  13.640  13.371
44778W        W 8986   1.847   2.365   1.264
44779W        W 8987  24.702   8.873  12.084
44780W        W 8988  35.600  25.202   2.226
44781W        W 8989   3.383   4.715   0.803
44782W        W 8990  24.116   8.274  12.900
44783W        W 8991  17.190   8.289  11.930
44784W        W 8992  43.395  33.021  14.283
44785W        W 8993  32.910   5.354   1.414
44786W        W 8994   2.738   6.875   1.397
44787W        W 8995  28.614  24.159  12.066
44788W        W 8996  37.420   0.966  14.783
44789W        W 8997   0.278  22.009   4.281
44790W        W 8998  22.250   2.432  14.398
44791W        W 8999  12.352  10.680  13.508
44792W        W 9000   7.229  19.700  11.903
44793W        W 9001  41.484  44.824   2.398
44794W        W 9002  37.483   9.221   2.352
44795W        W 9003  12.359  35.541   0.860
44796W        W 9004  19.542  10.204   0.325
44797W        W 9005  17.771  26.989   0.933
44798W        W 9006  34.952  23.052   3.173
44799W        W 9007  13.803   8.723   3.687
44800W        W 9008  23.184  24.715   1.881
44801W        W 9009  19.253  42.854  10.556
44802W        W 9010  32.096   9.153   0.803
44803W        W 9011   6.289  29.973   3.765
44804W        W 9012  44.451   3.365   2.210
44805W        W 9013  27.633  16.725   9.529
44806W        W 9014  40.476  38.380   3.762
44807W        W 9015  12.322  23.578  11.018
44808W        W 9016   0.771  21.173   0.861
44809W        W 9017  20.665  13.733  11.541
44810W        W 9018  40.866  24.194  11.992
44811W        W 9019  25.117   7.694   2.713
44812W        W 9020   7.297  33.409   0.841
44813W        W 9021   1.741   4.275  14.443
44814W        W 9022  26.512   0.455  11.069
44815W        W 9023  21.677  18.150   2.719
44816W        W 9024  43.417  38.560  14.331
44817W        W 9025  30.138  44.869   0.390
44818W        W 9026   5.784  39.831   0.855
44819W        W 9027  25.085  30.419  11.591
44820W        W 9028  21.261  12.354   3.381
44821W        W 9029   0.465  37.926  11.596
44822W        W 9030  21.151  14.589   3.332
44823W        W 9031   5.304  18.248   1.248
44824W        W 9032   8.170   2.911  12.392
44825W        W 9033  43.959  24.031   1.743
44826W        W 9034  13.677   7.260   2.686
44827W        W 9035   0.838  21.694   2.897
44828W        W 9036  30.010  12.275  13.519
44829W        W 9037  13.838  12.637  10.440
44830W        W 9038  18.725  16.735   4.310
44831W        W 9039  42.003  15.322  11.530
44832W        W 9040  39.038  23.689  11.602
44833W        W 9041  44.814  24.563  11.421
44834W        W 9042  31.605  21.156  11.593
44835W        W 9043  30.983   9.663  13.815
44836W        W 9044  19.091  34.914  14.314
44837W        W 9045  19.609  14.337  14.986
44838W        W 9046  26.590   2.877  11.986
44839W        W 9047  24.033   4.379  10.973
44840W        W 9048  10.347   8.883   4.696
44841W        W 9049   9.718   8.378   2.667
44842W        W 9050  26.070  26.156  14.781
44843W        W 9051  26.551  28.576  13.516
44844W        W 9052  38.976  18.077  13.818
44845W        W 9053  36.932  25.983  14.491
44846W        W 9054  19.628  17.112   3.810
44847W        W 9055  30.057  42.428   3.212
44848W        W 9056  23.631   3.301   3.226
44849W        W 9057  44.300  44.447   0.328
44850W        W 9058  28.067  32.134   0.407
44851W        W 9059  28.970  31.991   2.818
44852W        W 9060   5.705   1.843   2.186
44853W        W 9061  19.209   4.342   1.336
44854W        W 9062  44.469  28.622   0.272
44855W        W 9063  44.933  24.096   4.711
44856W        W 9064  23.042  20.720  12.083
44857W        W 9065   6.265  41.504  14.385
44858W        W 9066  33.594  40.929   3.372
44859W        W 9067  26.964  43.301   3.840
44860W        W 9068  36.908  27.597   1.362
44861W        W 9069  33.443  35.598  14.295
44862W        W 9070  16.581   5.693  11.992
44863W        W 9071  10.229  11.364   1.873
44864W        W 9072  36.038   5.293  12.400
44865W        W 9073   4.803  28.482   1.259
44866W        W 9074  36.500  14.725   3.360
44867W        W 9075  34.028  34.429  11.967
44868W        W 9076  34.400  25.484  12.885
44869W        W 9077  10.735  20.225   0.924
44870W        W 9078  18.616  20.679  12.483
44871W        W 9079  12.788   9.222   0.466
44872W        W 9080   0.931  32.526  10.605
44873W        W 9081  29.476   3.817  10.572
44874W        W 9082  33.924  15.661   3.171
44875W        W 9083  20.221  19.675  14.882
44876W        W 9084  36.574   0.903   0.905
44877W        W 9085  39.528  14.660   0.952
44878W        W 9086   0.933  43.001  12.882
44879W        W 9087  14.792   1.824  14.458
44880W        W 9088   3.834   9.192   1.289
44881W        W 9089  26.175  22.232  12.523
44882W        W 9090  36.022   7.231   3.779
44883W        W 9091  42.447   9.381  10.549
44884W        W 9092  22.593  28.053   1.837
44885W        W 9093  16.639  43.840  14.926
44886W        W 9094  38.442   9.834   4.672
44887W        W 9095   1.853  11.243  12.086
44888W        W 9096  30.910  27.188  13.465
44889W        W 9097  29.120  31.637   4.804
44890W        W 9098   9.854  14.720   5.264
44891W        W 9099  27.559   6.875  10.556
44892W        W 9100   8.838  40.028  13.459
44893W        W 9101  40.536  29.637   2.279
44894W        W 9102  23.070   2.752   1.222
44895W        W 9103   2.794  21.138  13.853
44896W        W 9104  39.462   0.344  12.347
44897W        W 9105   3.256  36.386  11.934
44898W        W 9106   2.875  35.896   0.865
44899W        W 9107  39.556  25.668  14.885
44900W        W 9108   1.859  42.416  12.951
44901W        W 9109  31.127  10.333   4.634
44902W        W 9110  44.422  10.350   3.781
44903W        W 9111  42.887  34.478  14.358
44904W        W 9112  34.019   2.263  14.012
44905W        W 9113   7.671  19.149  11.592
44906W        W 9114  22.507  31.580   3.724
44907W        W 9115  34.071  18.125   1.218
44908W        W 9116  27.160  40.888  10.527
44909W        W 9117   8.313  41.998  13.959
44910W        W 9118  29.086  33.535  10.961
44911W        W 9119   9.209  38.029   0.249
44912W        W 9120  17.680  37.070   0.391
44913W        W 9121  21.055  41.328  14.024
44914W        W 9122  15.723   4.343   4.608
44915W        W 9123   8.194   5.398  12.935
44916W        W 9124   5.421  22.576   0.362
44917W        W 9125  36.089  25.689  10.904
44918W        W 9126  41.335   4.306   1.447
44919W        W 9127   3.419  36.885  13.980
44920W        W 9128  43.404  30.164   0.421
44921W        W 9129   9.303  31.083   0.402
44922W        W 9130   6.799  41.973   4.721
44923W        W 9131   2.947   9.376   4.789
44924W        W 9132  18.578  35.015   2.221
44925W        W 9133   0.482  17.304   4.341
44926W        W 9134  44.415   2.912   2.892
44927W        W 9135  17.730   8.868   2.376
44928W        W 9136  19.594  25.511  11.476
44929W        W 9137  13.293  21.170  14.409
44930W        W 9138  14.317   5.426   4.306
44931W        W 9139  41.811  31.035  13.452
44932W        W 9140  29.064  16.128  11.557
44933W        W 9141   6.683  26.681   1.250
44934W        W 9142  38.564  22.049  11.550
44935W        W 9143   2.940  28.116  12.887
44936W        W 9144   4.860   0.309  12.059
44937W        W 9145  22.512   4.836   2.241
44938W        W 9146  25.534   9.280   4.622
44939W        W 9147  31.418  33.541   2.375
44940W        W 9148  43.916  28.029  12.884
44941W        W 9149   4.699  34.108   3.832
44942W        W 9150   2.333  28.186   2.756
44943W        W 9151  23.495  29.554  12.365
44944W        W 9152  23.177  10.199   0.736
44945W        W 9153   6.389  42.403   0.465
44946W        W 9154  27.518  20.169  12.413
44947W        W 9155  33.434   1.865  11.031
44948W        W 9156   6.323   6.744  12.927
44949W        W 9157  25.589  25.071   3.750
44950W        W 9158  10.284  19.128   1.824
44951W        W 9159  34.489  30.565   3.282
44952W        W 9160  23.567  42.402   0.344
44953W        W 9161   5.803  23.986  12.356
44954W        W 9162  28.951  44.780   0.262
44955W        W 9163  14.227  10.725  10.891
44956W        W 9164  40.494   4.301   1.242
44957W        W 9165  10.693  24.200  11.023
44958W        W 9166  10.191   3.772   0.906
44959W        W 9167  43.007   6.740  11.995
44960W        W 9168  23.190   4.911   0.822
44961W        W 9169  42.991   7.747  11.374
44962W        W 9170  31.646   2.253  12.376
44963W        W 9171  26.653   4.259   4.808
44964W        W 9172  39.023  15.230  13.906
44965W        W 9173  17.208   8.379   0.903
44966W        W 9174   0.247  33.946   5.101
44967W        W 9175  28.508  31.485   3.638
44968W        W 9176  38.538  10.337  11.612
44969W        W 9177  14.693  17.262   4.650
44970W        W 9178  15.142  37.572   4.769
44971W        W 9179  35.512  32.608   3.699
44972W        W 9180   7.809  35.010   1.789
44973W        W 9181  33.397  40.316  14.510
44974W        W 9182  40.318  28.989   1.832
44975W        W 9183   1.407  13.615  14.825
44976W        W 9184  14.218  31.035  13.355
44977W        W 9185  32.141  15.630  14.467
44978W        W 9186  28.652   9.363   3.817
44979W        W 9187  36.857  43.992  14.896
44980W        W 9188  11.298  37.533  14.353
44981W        W 9189  40.891  23.560   4.703
44982W        W 9190  21.153  34.567   3.300
44983W        W 9191  10.350  34.481  14.340
44984W        W 9192  40.969  17.643   0.366
44985W        W 9193  13.152   1.255  12.941
44986W        W 9194  22.535   2.333   0.366
44987W        W 9195  27.006   7.238  11.562
44988W        W 9196  38.328   1.843   1.839
44989W        W 9197  43.015   5.933   2.713
44990W        W 9198  23.677  43.343  12.525
44991W        W 9199  17.802   5.300  12.365
44992W        W 9200  42.436  35.108  14.001
44993W        W 9201  15.778   8.765  10.632
44994W        W 9202  42.423   5.202   1.924
44995W        W 9203  16.667   2.940   2.703
44996W        W 9204  37.449  34.474  11.588
44997W        W 9205  40.426   7.815   4.349
44998W        W 9206  12.745  20.607  13.502
44999W        W 9207  27.615  20.099  13.881
45000W        W 9208  34.572   1.389   0.892
45001W        W 9209  39.004  38.476  13.793
45002W        W 9210  43.785  23.121  12.976
45003W        W 9211   5.769   1.850   0.889
45004W        W 9212  35.488  21.108  11.062
45005W        W 9213  36.978  19.051   4.282
45006W        W 9214  39.905  41.517  10.501
45007W        W 9215  23.636  11.128   2.892
45008W        W 9216  25.605  39.462  13.984
45009W        W 9217   9.310  12.162  13.346
45010W        W 9218  42.314  15.103  12.950
45011W        W 9219  21.120   1.857  11.878
45012W        W 9220  40.509  27.554  11.412
45013W        W 9221   5.391  44.288   4.764
45014W        W 9222  27.075   6.401  11.488
45015W        W 9223  14.628   1.880   1.332
45016W        W 9224  41.532  14.095   0.294
45017W        W 9225  28.618   8.694  12.973
45018W        W 9226  14.731  27.189  12.061
45019W        W 9227  18.190  39.929   5.704
45020W        W 9228   4.806  44.265  13.017
45021W        W 9229  27.176   0.910   2.379
45022W        W 9230   3.825  15.617   0.861
45023W        W 9231  44.839  40.535   0.476
45024W        W 9232  33.027  31.960  13.989
45025W        W 9233  22.178  33.595   1.372
45026W        W 9234  31.435  17.617   9.644
45027W        W 9235  43.492  32.510   0.733
45028W        W 9236  17.125  28.580   1.759
45029W        W 9237  20.635  42.449   2.339
45030W        W 9238  13.293  34.501   0.326
45031W        W 9239  17.791  20.525  14.485
45032W        W 9240  32.514  32.046  13.932
45033W        W 9241  30.993  43.423  13.013
45034W        W 9242  10.787  24.622   0.833
45035W        W 9243  35.906  42.301   4.684
45036W        W 9244  28.657  23.526  13.958
45037W        W 9245  18.601  23.078   1.223
45038W        W 9246  36.508  35.976  12.943
45039W        W 9247   0.334  22.579  12.989
45040W        W 9248  44.452  35.045  11.078
45041W        W 9249   6.275  30.099   4.346
45042W        W 9250   1.910  18.265   2.229
45043W        W 9251   9.694   5.423   1.880
45044W        W 9252  24.569  36.060  13.385
45045W        W 9253   5.377  43.400   0.483
45046W        W 9254   2.947  18.700   2.364
45047W        W 9255  25.188   0.744   1.315
45048W        W 9256  32.097  27.124   1.894
45049W        W 9257   8.800   9.217  12.560
45050W        W 9258  17.689  29.498  13.871
45051W        W 9259  38.498   2.358   2.804
45052W        W 9260  42.893  25.056  12.075
45053W        W 9261  43.385  39.056  10.429
45054W        W 9262  11.253  39.966  12.571
45055W        W 9263  33.064  44.785   1.836
45056W        W 9264  39.366   9.313  11.120
45057W        W 9265   5.435   2.777   4.314
45058W        W 9266  11.632   7.863   3.722
45059W        W 9267   1.323  30.534  13.891
45060W        W 9268  29.524  23.571   1.288
45061W        W 9269  32.407   6.328   4.784
45062W        W 9270  23.129   8.179   1.812
45063W        W 9271  40.323   7.758   2.406
45064W        W 9272  40.541   7.309   0.347
45065W        W 9273  14.221   3.364   2.714
45066W        W 9274  13.150  37.575  13.007
45067W        W 9275   4.754  44.807   1.765
45068W        W 9276   9.355  28.489  14.359
45069W        W 9277  27.069  37.055   3.352
45070W        W 9278  29.581  39.427  11.448
45071W        W 9279  36.992  23.650  12.883
45072W        W 9280  22.199   5.430   4.783
45073W        W 9281  41.527   1.482   1.880
45074W        W 9282  41.485  11.157  13.029
45075W        W 9283  15.293  20.758  11.454
45076W        W 9284  13.260  30.493  13.546
45077W        W 9285  29.159   0.782   1.400
45078W        W 9286  27.680  36.451  13.875
45079W        W 9287   6.344  25.573   4.165
45080W        W 9288   8.810  24.083   0.384
45081W        W 9289   9.827   6.428   2.697
45082W        W 9290   7.247  33.456  14.510
45083W        W 9291  29.143  27.548  10.516
45084W        W 9292  16.775  36.370   4.713
45085W        W 9293  36.402   7.768  10.909
45086W        W 9294  13.693  12.190  12.543
45087W        W 9295  36.071  31.960  13.460
45088W        W 9296  22.999   6.903   0.875
45089W        W 9297  14.589  16.692  11.440
45090W        W 9298  11.136  30.966  12.354
45091W        W 9299  14.600  14.240   2.765
45092W        W 9300  44.457  25.983  12.369
45093W        W 9301  20.107  44.792   0.248
45094W        W 9302  36.017  30.641   4.162
45095W        W 9303   6.886  16.270   1.368
45096W        W 9304  24.978  44.979  10.900
45097W        W 9305   8.821  31.010   4.749
45098W        W 9306  40.314   3.792   1.445
45099W        W 9307  40.318  27.551   2.790
45100W        W 9308  39.545  41.441  14.454
45101W        W 9309  27.587  41.896  12.481
45102W        W 9310  43.884  44.397   1.859
45103W        W 9311  31.551  11.191   4.327
45104W        W 9312  27.628  24.543   4.287
45105W        W 9313  36.851  35.070   1.276
45106W        W 9314  34.603  13.690  10.483
45107W        W 9315  19.580  28.988  12.071
45108W        W 9316   3.351  12.338  10.902
45109W        W 9317   3.309   4.924   4.644
45110W        W 9318  38.568   8.223   3.822
45111W        W 9319  12.810  10.729  12.829
45112W        W 9320   6.806  36.560   3.686
45113W        W 9321   9.785   6.689  14.419
45114W        W 9322  36.506  20.716  12.494
45115W        W 9323  24.711  20.163  14.838
45116W        W 9324  37.911   2.888  11.606
45117W        W 9325  31.072  43.848  14.416
45118W        W 9326  15.290  11.132  14.513
45119W        W 9327  17.688   0.409  13.799
45120W        W 9328  10.810  21.235   4.251
45121W        W 9329  36.484  42.989   3.820
45122W        W 9330  27.958   3.921  12.870
45123W        W 9331   2.282   3.801  13.429
45124W        W 9332  22.126  41.364   2.863
45125W        W 9333  14.139  30.414  11.538
45126W        W 9334  17.594  26.673  11.540
45127W        W 9335  10.695  11.780   4.726
45128W        W 9336  21.161  22.133   4.817
45129W        W 9337  20.185  23.996   2.337
45130W        W 9338  24.215   6.229  11.525
45131W        W 9339  10.181  41.346  11.406
45132W        W 9340  34.073  34.920   1.329
45133W        W 9341  20.166   9.812  10.550
45134W        W 9342  15.643  44.435   4.213
45135W        W 9343  22.074  28.119  10.448
45136W        W 9344  22.224  30.445  14.465
45137W        W 9345  36.092   2.812   3.255
45138W        W 9346  41.339  28.004  13.357
45139W        W 9347  13.719  24.638  10.890
45140W        W 9348   9.716  34.943  12.354
45141W        W 9349  43.990  42.920  14.414
45142W        W 9350  22.541  34.895  11.374
45143W        W 9351  42.342  43.835   0.956
45144W        W 9352  16.742   0.970  13.361
45145W        W 9353  30.641  12.701   2.376
45146W        W 9354  36.488  15.608  14.446
45147W        W 9355  42.460   7.291   3.212
45148W        W 9356  44.441  12.161  12.386
45149W        W 9357  19.219  27.079   1.212
45150W        W 9358   9.682   5.355  12.540
45151W        W 9359  39.893  23.180   2.664
45152W        W 9360  14.756  42.019   3.822
45153W        W 9361  31.948  10.773  10.580
45154W        W 9362  13.665  37.364   4.695
45155W        W 9363   7.269  44.936   4.125
45156W        W 9364  41.447   3.711  12.903
45157W        W 9365  33.984  25.986   2.673
45158W        W 9366  28.185  37.480   2.727
45159W        W 9367   6.364   1.450   1.387
45160W        W 9368  19.559  23.610  13.944
45161W        W 9369  16.763  27.170  10.444
45162W        W 9370  36.496  28.022  10.049
45163W        W 9371  36.563   3.384   4.316
45164W        W 9372  31.071  37.902  14.303
45165W        W 9373  15.298   3.386   1.855
45166W        W 9374  27.079  30.141   2.778
45167W        W 9375   7.268  37.042   1.381
45168W        W 9376  27.965  18.243   0.428
45169W        W 9377  35.967  24.133  13.840
45170W        W 9378   3.237  21.029   3.654
45171W        W 9379  34.521  32.127   3.231
45172W        W 9380  27.529  20.619   3.801
45173W        W 9381  12.240  34.462   4.326
45174W        W 9382  19.182  25.042   3.197
45175W        W 9383  20.566  40.518  10.954
45176W        W 9384   0.857  19.727   4.129
45177W        W 9385  39.929  39.024   3.821
45178W        W 9386  18.181  17.755  14.351
45179W        W 9387  24.085  18.544  13.798
45180W        W 9388   3.803  18.283  11.397
45181W        W 9389  34.388  27.448   2.717
45182W        W 9390  20.612  10.217  12.347
45183W        W 9391  23.202  28.531  14.912
45184W        W 9392  43.344  11.168   3.292
45185W        W 9393  25.559  36.547   4.240
45186W        W 9394   4.264  30.957   3.245
45187W        W 9395  19.258   4.214  11.883
45188W        W 9396   3.401  39.822  12.932
45189W        W 9397  12.810  19.546  10.509
45190W        W 9398  18.687  13.137  10.537
45191W        W 9399   5.864  17.061   2.377
45192W        W 9400  18.736  27.980   3.666
45193W        W 9401  14.806  21.220   2.776
45194W        W 9402   5.199  39.843   2.768
45195W        W 9403  15.745  26.079  13.944
45196W        W 9404  25.162  29.034  14.442
45197W        W 9405  33.381  43.319   2.775
45198W        W 9406  37.560   4.864  14.308
45199W        W 9407  32.885  26.659   0.767
45200W        W 9408  23.518  29.960   3.187
45201W        W 9409  29.923  23.036   2.196
45202W        W 9410  36.874  38.533  11.447
45203W        W 9411  29.660   7.341   3.304
45204W        W 9412  41.396  10.828  11.391
45205W        W 9413  40.305  29.533   4.726
45206W        W 9414  17.721  28.534  11.860
45207W        W 9415  10.289  37.953   0.324
45208W        W 9416  28.497   3.823   0.437
45209W        W 9417  27.176  44.865   1.747
45210W        W 9418   9.742  13.295  12.985
45211W        W 9419  38.346  19.738  12.082
45212W        W 9420  40.545  17.775  11.072
45213W        W 9421  34.555  14.287  11.605
45214W        W 9422  41.525  40.407   1.844
45215W        W 9423   3.921   2.867  12.577
45216W        W 9424  37.048  13.242  13.827
45217W        W 9425  12.696  40.946  14.979
45218W        W 9426  40.491   1.743  11.940
45219W        W 9427  11.808  38.419  14.296
45220W        W 9428  29.569  13.645   3.643
45221W        W 9429  30.418  44.479   3.771
45222W        W 9430  26.617  10.187  14.893
45223W        W 9431  25.036  40.005   0.412
45224W        W 9432  33.976  36.948   3.196
45225W        W 9433  24.632  29.103  12.385
45226W        W 9434  31.635   5.931  10.626
45227W        W 9435  10.313  16.116  11.584
45228W        W 9436   8.219  39.496   1.798
45229W        W 9437  12.666  16.255  11.403
45230W        W 9438   0.260  24.683   0.435
45231W        W 9439  30.163  22.220  13.019
45232W        W 9440  44.002  16.813   1.929
45233W        W 9441  36.564  43.499  13.506
45234W        W 9442  11.799  17.691  12.003
45235W        W 9443  21.203  13.169   2.388
45236W        W 9444  44.412  21.047  13.929
45237W        W 9445  39.517   7.391  11.435
45238W        W 9446  16.590  36.400  13.412
45239W        W 9447  30.440  34.090   4.180
45240W        W 9448  26.067  26.068  14.378
45241W        W 9449   4.254  36.582  14.001
45242W        W 9450   1.889  28.171  11.597
45243W        W 9451  14.677  22.240   0.909
45244W        W 9452   2.819  19.631  13.935
45245W        W 9453  44.897  36.530   2.204
45246W        W 9454  28.638   6.791  13.048
45247W        W 9455  29.117  44.861  12.511
45248W        W 9456  44.393  16.299   0.246
45249W        W 9457  20.685  15.726   5.265
45250W        W 9458   1.917  38.338  13.312
45251W        W 9459  44.412  16.788  13.034
45252W        W 9460   2.847  21.518   0.757
45253W        W 9461  19.267   7.691   0.252
45254W        W 9462  11.175   7.398   3.823
45255W        W 9463  42.867  28.630   4.227
45256W        W 9464  39.450  22.029  12.092
45257W        W 9465  16.097  34.381   3.296
45258W        W 9466  11.648  10.682  14.514
45259W        W 9467  28.081  27.034   3.702
45260W        W 9468  13.600  37.863   3.644
45261W        W 9469   3.800  41.466  14.431
45262W        W 9470   1.322  26.661  14.321
45263W        W 9471  13.307  28.666   3.827
45264W        W 9472  21.135  21.101  14.795
45265W        W 9473   8.299   7.713   0.882
45266W        W 9474   4.251   7.872   3.727
45267W        W 9475  34.966  31.476   0.352
45268W        W 9476  16.238   8.331   1.914
45269W        W 9477  39.546  35.368   3.319
45270W        W 9478  40.443  25.136  10.072
45271W        W 9479   8.234  25.501  12.932
45272W        W 9480  14.656  10.301  13.353
45273W        W 9481  20.094  17.759   0.878
45274W        W 9482  38.949  26.682  10.962
45275W        W 9483  16.123  18.114   4.743
45276W        W 9484  24.650  36.972  10.993
45277W        W 9485   8.758  28.118   1.806
45278W        W 9486  10.755  25.091  12.074
45279W        W 9487  10.283  36.380   4.695
45280W        W 9488  17.698   1.789  13.985
45281W        W 9489  36.566  27.608   0.837
45282W        W 9490  35.073  25.118   5.318
45283W        W 9491   2.895  20.729  13.430
45284W        W 9492  18.599   2.821  14.028
45285W        W 9493  29.615   7.266   1.302
45286W        W 9494  37.443  13.302   2.348
45287W        W 9495   9.808   5.751   0.475
45288W        W 9496  34.974  40.836   0.291
45289W        W 9497  36.074  31.413   2.748
45290W        W 9498  38.923  34.992   4.657
45291W        W 9499  33.532  21.694  14.944
45292W        W 9500  39.022  29.563   0.468
45293W        W 9501   6.826  20.601   2.707
45294W        W 9502   2.445   0.451   4.818
45295W        W 9503  43.789  33.551   4.601
45296W        W 9504  26.011  14.139  13.802
45297W        W 9505  39.830  28.059  13.818
45298W        W 9506  15.199  18.139  11.928
45299W        W 9507  12.627  15.281  11.532
45300W        W 9508  40.830  14.744   1.698
45301W        W 9509  41.297  39.988   3.376
45302W        W 9510  31.403   7.261   2.837
45303W        W 9511  35.954   8.194  10.498
45304W        W 9512  11.187  33.969   3.365
45305W        W 9513  16.625  16.232  13.794
45306W        W 9514  10.844   1.839  10.636
45307W        W 9515  35.994  17.135   1.235
45308W        W 9516  16.249  36.462   0.434
45309W        W 9517  26.059   4.440   4.809
45310W        W 9518   0.363  25.051  12.554
45311W        W 9519  24.647  25.007   2.771
45312W        W 9520   0.408  17.557  11.084
45313W        W 9521  35.948   0.842   0.481
45314W        W 9522   0.895   1.427  10.405
45315W        W 9523  43.315  31.896  13.360
45316W        W 9524  37.545  28.623  12.374
45317W        W 9525  41.384  34.870   4.298
45318W        W 9526  22.230  22.729  13.930
45319W        W 9527  34.005  36.997  12.572
45320W        W 9528  14.748  27.637   1.279
45321W        W 9529  21.244  23.669   1.894
45322W        W 9530  41.466  40.929   4.194
45323W        W 9531   7.332   4.292   0.332
45324W        W 9532  23.089   6.419   2.294
45325W        W 9533  14.679  36.466   3.244
45326W        W 9534  28.953  38.942  13.064
45327W        W 9535  26.618  20.239  14.295
45328W        W 9536  25.630  17.625  10.491
45329W        W 9537   5.396  23.504   4.811
45330W        W 9538  38.347  43.813  14.965
45331W        W 9539  30.924   8.656   2.784
45332W        W 9540  28.638   8.342   1.305
45333W        W 9541  23.203  30.536  12.427
45334W        W 9542  38.921  38.335  10.630
45335W        W 9543  29.615  22.149  12.373
45336W        W 9544  33.012   4.769  11.583
45337W        W 9545  38.836   5.876  12.967
45338W        W 9546  19.271  41.955  11.906
45339W        W 9547   9.152  12.632  14.464
45340W        W 9548   8.334  12.626   9.647
45341W        W 9549  31.592  16.607   5.154
45342W        W 9550  42.812  44.817   4.250
45343W        W 9551   0.449  25.494  13.802
45344W        W 9552  41.421   8.204  14.836
45345W        W 9553  32.482  17.733  11.958
45346W        W 9554  42.948   2.746  11.608
45347W        W 9555  35.462  28.599   2.291
45348W        W 9556  19.222   3.787   4.789
45349W        W 9557  37.505  24.558  11.897
45350W        W 9558  27.105  10.837  12.430
45351W        W 9559  21.195  13.714  12.067
45352W        W 9560  16.752  11.738   0.871
45353W        W 9561  37.554   6.303   4.702
45354W        W 9562  30.057   9.320  13.864
45355W        W 9563  37.575   9.210  10.446
45356W        W 9564  32.131  17.750  14.425
45357W        W 9565  32.632  17.089  14.882
45358W        W 9566  41.850   8.866   2.287
45359W        W 9567  37.034   3.358   4.834
45360W        W 9568  39.468  37.395  10.639
45361W        W 9569  27.464  26.070   3.302
45362W        W 9570   9.394  38.399   4.779
45363W        W 9571  25.030  35.475  12.482
45364W        W 9572  19.744  28.503   2.379
45365W        W 9573   0.775   3.874  10.146
45366W        W 9574  26.074  10.367   2.903
45367W        W 9575  42.891  25.658   1.832
45368W        W 9576  38.513  37.898  14.957
45369W        W 9577   0.413  34.421   3.357
45370W        W 9578  15.140  44.421  13.479
45371W        W 9579  12.155  21.029  11.030
45372W        W 9580  34.973   0.973   0.936
45373W        W 9581  33.102  34.929   0.819
45374W        W 9582  28.131  26.508   0.960
45375W        W 9583  20.152  19.278  14.280
45376W        W 9584   6.703  37.062   2.831
45377W        W 9585   2.842   9.879   4.352
45378W        W 9586  18.770  40.870   2.189
45379W        W 9587   1.463   6.299   3.708
45380W        W 9588  38.377  23.060   0.864
45381W        W 9589  21.725  30.914  13.052
45382W        W 9590   2.299  25.114  11.536
45383W        W 9591   5.921  38.821   1.776
45384W        W 9592   3.392   9.831   2.193
45385W        W 9593   9.241  16.144   4.742
45386W        W 9594  34.407  24.993  10.551
45387W        W 9595  38.972  24.025  12.092
45388W        W 9596   5.254  19.061  13.437
45389W        W 9597  18.559  23.213   2.414
45390W        W 9598   2.725   2.299  12.035
45391W        W 9599   1.863  40.465   3.857
45392W        W 9600  44.892   8.744  13.470
45393W        W 9601  15.691   8.854   9.977
45394W        W 9602  22.011  19.568   1.355
45395W        W 9603  40.388  16.089   1.835
45396W        W 9604  29.618  38.872  10.419
45397W        W 9605  32.594  27.660  13.376
45398W        W 9606   3.367   2.755   2.322
45399W        W 9607  14.242  28.044   4.724
45400W        W 9608  28.515  18.252   4.631
45401W        W 9609  42.297  42.829  14.909
45402W        W 9610  34.000  20.689  12.016
45403W        W 9611  24.609  12.307  13.416
45404W        W 9612  34.928  29.520   3.711
45405W        W 9613  33.112  33.968   0.811
45406W        W 9614  20.249  22.146   0.274
45407W        W 9615   3.797  11.811   0.414
45408W        W 9616  44.470  29.115  10.626
45409W        W 9617  39.444   5.812   0.919
45410W        W 9618  42.802   5.200  12.003
45411W        W 9619  22.230  14.650   4.634
45412W        W 9620  33.451   5.760  10.612
45413W        W 9621  27.527  44.957   2.799
45414W        W 9622   6.292  35.992   2.296
45415W        W 9623  17.102  18.763   0.759
45416W        W 9624  38.016  19.203  11.935
45417W        W 9625  10.382  11.637  10.910
45418W        W 9626  10.276  42.011  10.614
45419W        W 9627  34.534  10.258  10.426
45420W        W 9628  12.827  32.030   0.310
45421W        W 9629  24.074  19.780   2.182
45422W        W 9630  43.413  22.096   2.869
45423W        W 9631  21.184  40.984   1.817
45424W        W 9632  13.758  35.381  12.485
45425W        W 9633   7.891  26.470  10.586
45426W        W 9634  26.026  21.063  12.022
45427W        W 9635  20.273  23.171   2.333
45428W        W 9636   8.179  40.027   4.768
45429W        W 9637   1.461  11.357   4.681
45430W        W 9638   6.248  29.587  13.431
45431W        W 9639  28.557  22.072  10.457
45432W        W 9640  44.385  40.820   5.295
45433W        W 9641  41.789  10.217  13.328
45434W        W 9642  11.370  39.928  10.456
45435W        W 9643  22.097  42.290  12.913
45436W        W 9644   5.337  35.939   0.825
45437W        W 9645  30.995  30.963   0.825
45438W        W 9646   6.748  12.784   1.829
45439W        W 9647  20.245  35.591  14.003
45440W        W 9648  29.477   6.887  13.399
45441W        W 9649  35.066   3.710  12.952
45442W        W 9650  25.071  32.636  14.816
45443W        W 9651  11.195  34.941  12.378
45444W        W 9652  31.493   3.266  11.539
45445W        W 9653  15.115  32.580  11.520
45446W        W 9654  14.177   8.273  11.506
45447W        W 9655   2.240   1.469   2.686
45448W        W 9656  40.011  31.602   3.325
45449W        W 9657  13.659  42.994  10.632
45450W        W 9658  42.436  19.214   9.998
45451W        W 9659  35.490  21.245  10.424
45452W        W 9660   0.839  41.505   1.710
45453W        W 9661  15.159   2.959  14.007
45454W        W 9662  33.437  42.451   2.853
45455W        W 9663  30.542  32.557  10.905
45456W        W 9664  22.121  36.886  14.363
45457W        W 9665  29.600   0.786  13.372
45458W        W 9666  23.527  22.530   4.176
45459W        W 9667  12.797   3.935   0.869
45460W        W 9668  44.286  44.966  11.994
45461W        W 9669  35.485  26.457  12.425
45462W        W 9670  43.823  19.196  10.576
45463W        W 9671  25.705   6.853  13.451
45464W        W 9672  39.810   8.704  14.962
45465W        W 9673  29.530  12.645   1.771
45466W        W 9674  10.173  41.006   0.375
45467W        W 9675   1.773  13.836  12.034
45468W        W 9676  10.660  33.060   2.832
45469W        W 9677  21.752  21.077  10.563
45470W        W 9678  11.151  40.422   0.872
45471W        W 9679  15.725  33.436  10.907
45472W        W 9680  34.511  30.441   0.417
45473W        W 9681  27.457  41.816  13.487
45474W        W 9682   8.833  14.338  13.868
45475W        W 9683  28.460   7.371  14.926
45476W        W 9684  15.585   7.800  12.562
45477W        W 9685  22.044  33.410  14.917
45478W        W 9686  39.019   6.244   1.258
45479W        W 9687  31.971  28.944   4.194
45480W        W 9688  33.031  26.199  11.108
45481W        W 9689  15.124  40.934   2.843
45482W        W 9690   6.890  17.176   4.131
45483W        W 9691  26.122   4.321  14.783
45484W        W 9692  21.711  42.377  14.461
45485W        W 9693  33.894  19.772   4.657
45486W        W 9694  44.494  24.106  13.909
45487W        W 9695  39.943  21.238  12.958
45488W        W 9696  16.598   1.357  14.483
45489W        W 9697  34.940  13.138   0.874
45490W        W 9698  40.962   8.240  11.006
45491W        W 9699  41.408  21.685   2.403
45492W        W 9700  33.625  28.151  14.452
45493W        W 9701  33.127   7.274   0.409
45494W        W 9702  27.165   5.884  12.045
45495W        W 9703  35.421  13.310  11.482
45496W        W 9704  13.752  40.349   3.644
45497W        W 9705  18.259   0.947   4.740
45498W        W 9706  44.409  29.950   3.233
45499W        W 9707  36.541   9.681   4.141
45500W        W 9708  33.909  39.468  13.483
45501W        W 9709  22.086  36.927   2.857
45502W        W 9710  36.593  16.272  14.830
45503W        W 9711  33.940  28.178   2.206
45504W        W 9712   1.974  14.185   4.243
45505W        W 9713  29.975  25.027   0.940
45506W        W 9714  16.604  37.341  14.491
45507W        W 9715   1.450  24.654  13.489
45508W        W 9716  39.057  36.439   3.197
45509W        W 9717   1.803  33.500   3.740
45510W        W 9718  14.319  14.777  11.075
45511W        W 9719   8.783   4.750   0.400
45512W        W 9720  44.319   9.191  12.045
45513W        W 9721  15.579  38.011  13.440
45514W        W 9722  39.029   3.718   1.727
45515W        W 9723  12.199  32.426   4.183
45516W        W 9724  28.002  28.561   1.710
45517W        W 9725  26.156  11.235  11.463
45518W        W 9726  28.051  34.392   2.776
45519W        W 9727   8.677  16.670  10.946
45520W        W 9728  43.882  11.827  10.440
45521W        W 9729  16.247  33.899  12.851
45522W        W 9730   1.331  20.158  11.535
45523W        W 9731   5.266  12.339  14.277
45524W        W 9732  25.084  12.344   2.180
45525W        W 9733  42.510   3.862   3.209
45526W        W 9734  42.493   1.933   4.755
45527W        W 9735  11.265  14.280   2.209
45528W        W 9736  12.822   3.796  10.539
45529W        W 9737  14.147  28.457  10.445
45530W        W 9738  34.434  35.422  14.784
45531W        W 9739  15.764  25.016  12.495
45532W        W 9740  38.046  40.926  13.487
45533W        W 9741  20.045  10.220  13.472
45534W        W 9742  25.600  27.671  14.406
45535W        W 9743   7.268   5.911  13.351
45536W        W 9744   5.807  20.526  12.396
45537W        W 9745  19.142  10.364  11.015
45538W        W 9746  22.546  39.314  11.409
45539W        W 9747  44.497   5.282  10.920
45540W        W 9748  35.918  12.311  10.965
45541W        W 9749  14.148  42.327   3.371
45542W        W 9750  22.569  18.180  14.318
45543W        W 9751  29.473   3.300  10.522
45544W        W 9752  17.677  43.297  14.491
45545W        W 9753  38.065   1.409   0.300
45546W        W 9754  18.159  30.911  10.558
45547W        W 9755  33.447   3.730   1.717
45548W        W 9756  23.728  13.749  10.989
45549W        W 9757  13.707  36.975  12.899
45550W        W 9758  31.436  22.714   0.439
45551W        W 9759  39.552  24.540   1.339
45552W        W 9760   8.331   3.844  14.399
45553W        W 9761  20.540  11.209   2.263
45554W        W 9762  26.108  40.844   4.177
45555W        W 9763   2.334  42.492  10.508
45556W        W 9764  28.957  40.048  11.488
45557W        W 9765  29.514  29.920   1.747
45558W        W 9766  37.540  28.134  11.449
45559W        W 9767  38.819  17.069  12.567
45560W        W 9768  39.527  23.241  11.058
45561W        W 9769  10.762  21.676   3.710
45562W        W 9770  37.388  37.478  12.092
45563W        W 9771  20.048  20.734  13.362
45564W        W 9772   7.911   1.295   3.240
45565W        W 9773  29.918  17.299  12.092
45566W        W 9774   1.371  17.576  13.022
45567W        W 9775  44.340   1.829  11.013
45568W        W 9776  25.703  12.346   3.249
45569W        W 9777  28.676   4.838  12.941
45570W        W 9778  33.960  11.358   2.740
45571W        W 9779   1.913   8.766   0.309
45572W        W 9780  39.843  16.631  12.893
45573W        W 9781  30.471  28.539   1.827
45574W        W 9782  29.492  18.710   3.306
45575W        W 9783  14.213  24.113  12.054
45576W        W 9784   6.821  40.934  13.309
45577W        W 9785  24.041  30.981  13.330
45578W        W 9786   6.350  39.414  11.923
45579W        W 9787   0.324  13.701  14.336
45580W        W 9788  34.553  14.323  10.509
45581W        W 9789  42.525  21.017  12.060
45582W        W 9790  25.567  29.966   3.331
45583W        W 9791  22.534   8.246   0.295
45584W        W 9792  39.948  40.962  12.901
45585W        W 9793  43.352  34.498   0.404
45586W        W 9794  22.190  44.794  12.427
45587W        W 9795  20.746  18.604   4.786
45588W        W 9796   9.375  36.945  14.479
45589W        W 9797  34.573   6.383  14.422
45590W        W 9798  17.729  39.375  11.591
45591W        W 9799  22.035   9.307  12.405
45592W        W 9800  26.478  25.503  13.846
45593W        W 9801   9.156  39.557  14.326
45594W        W 9802  28.152   3.808  10.940
45595W        W 9803  26.695  43.003   0.275
45596W        W 9804  13.325  14.631   1.836
45597W        W 9805   3.756  21.169  13.364
45598W        W 9806  33.906  41.799  12.561
45599W        W 9807   9.734  40.350   4.218
45600W        W 9808  23.642  28.138  13.388
45601W        W 9809   0.847  13.747   2.709
45602W        W 9810  22.683   6.707  12.948
45603W        W 9811   5.221  30.135  14.897
45604W        W 9812  19.207  31.619  12.960
45605W        W 9813  18.736  35.896  11.927
45606W        W 9814  20.738   1.966   2.258
45607W        W 9815  38.522  23.207  13.319
45608W        W 9816   7.860  33.103  12.998
45609W        W 9817  11.828  28.166  10.991
45610W        W 9818  22.568  30.983  12.487
45611W        W 9819  20.125  13.285   3.796
45612W        W 9820  44.485  33.939   1.227
45613W        W 9821  41.793  32.129   0.438
45614W        W 9822  24.018  12.282   1.222
45615W        W 9823  20.036  44.481   4.251
45616W        W 9824  39.338  19.750   2.317
45617W        W 9825  41.971   7.301   4.166
45618W        W 9826  17.784  20.072   3.321
45619W        W 9827  38.462  10.672   4.187
45620W        W 9828   8.716  34.610  11.054
45621W        W 9829  31.610  30.957  12.074
45622W        W 9830  17.138  35.467  13.466
45623W        W 9831  16.803  35.367  11.482
45624W        W 9832  14.662  19.559   5.155
45625W        W 9833  32.514  41.418  11.560
45626W        W 9834  24.028  41.903   2.723
45627W        W 9835  10.271  25.571  12.086
45628W        W 9836  11.673  25.508   3.232
45629W        W 9837  32.098  15.785   2.773
45630W        W 9838   1.264  42.452  13.868
45631W        W 9839  36.000  10.696   4.797
45632W        W 9840  18.071  20.234   4.677
45633W        W 9841  16.301   0.913  13.327
45634W        W 9842  41.465  29.653   4.696
45635W        W 9843   5.854  15.112  10.517
45636W        W 9844   1.410   6.833  13.455
45637W        W 9845  20.723  40.374   3.310
45638W        W 9846   9.308   7.811  10.945
45639W        W 9847   7.880  30.582   1.755
45640W        W 9848   1.968  32.457  11.013
45641W        W 9849   7.178  22.204  11.526
45642W        W 9850  35.508  12.838   4.622
45643W        W 9851  13.619  22.067   2.353
45644W        W 9852  25.552  44.003   1.774
45645W        W 9853  25.651  33.019   4.837
45646W        W 9854  16.267  37.983  13.980
45647W        W 9855  43.438  25.616  12.906
45648W        W 9856  36.084  32.892   2.682
45649W        W 9857  41.041  22.717  14.463
45650W        W 9858   1.358  25.590  10.894
45651W        W 9859  14.697  28.122  13.405
45652W        W 9860  33.018  10.692  14.395
45653W        W 9861   8.286  42.436  12.944
45654W        W 9862  14.280  41.510   3.664
45655W        W 9863  38.369  24.089  11.919
45656W        W 9864  18.163  12.627  11.456
45657W        W 9865  43.789  37.876   3.265
45658W        W 9866   3.909  37.066  11.515
45659W        W 9867  10.656  40.046  11.424
45660W        W 9868  19.681  10.653   4.632
45661W        W 9869  16.274  10.182   1.846
45662W        W 9870   9.677   8.844  12.516
45663W        W 9871   6.202  18.140  12.345
45664W        W 9872  40.978  19.101   3.720
45665W        W 9873  16.619   3.932   4.159
45666W        W 9874  25.084   8.730  13.823
45667W        W 9875  14.247   3.879   4.204
45668W        W 9876  13.762  18.616   0.476
45669W        W 9877   1.285  18.169  10.948
45670W        W 9878  33.420  43.278   0.783
45671W        W 9879  26.080  18.083  13.030
45672W        W 9880  31.589   0.960  14.901
45673W        W 9881   2.327  36.007  11.100
45674W        W 9882  39.873  43.460  13.326
45675W        W 9883  20.669   5.242  10.479
45676W        W 9884  21.746  12.219   1.419
45677W        W 9885   6.405  38.501   4.282
45678W        W 9886  31.051  31.113  13.971
45679W        W 9887  39.476  34.583   3.793
45680W        W 9888  34.898  18.778   1.388
45681W        W 9889   0.906   7.404  11.043
45682W        W 9890  38.014  36.580  14.326
45683W        W 9891   9.710  28.150   4.676
45684W        W 9892  28.496  13.660  14.795
45685W        W 9893  10.271  10.362  13.485
45686W        W 9894  44.303   6.757   2.294
45687W        W 9895  27.129  14.742   2.769
45688W        W 9896  28.978  13.179   0.835
45689W        W 9897  36.364   0.921  13.372
45690W        W 9898  33.028  42.839   4.344
45691W        W 9899  25.032   3.354   4.739
45692W        W 9900   7.252  25.517  11.858
45693W        W 9901  44.833   9.679  12.401
45694W        W 9902   2.903  36.568   3.778
45695W        W 9903  32.050  34.004  10.508
45696W        W 9904  32.022  10.182   4.213
45697W        W 9905  24.617  35.386  10.441
45698W        W 9906   7.841   6.402  10.544
45699W        W 9907   7.393  38.039   2.412
45700W        W 9908  33.518  17.162  13.884
45701W        W 9909  40.836   8.238   0.783
45702W        W 9910  20.264  29.078   3.374
45703W        W 9911  15.234  32.502   0.449
45704W        W 9912  25.147  11.789   2.194
45705W        W 9913  11.696   5.363   4.287
45706W        W 9914  39.942  38.474   4.321
45707W        W 9915   2.851  22.119   3.648
45708W        W 9916  23.142  29.555   2.313
45709W        W 9917  43.796  11.846   3.364
45710W        W 9918  15.695  34.476  14.892
45711W        W 9919   7.893  38.415   0.348
45712W        W 9920   0.411   4.925  13.871
45713W        W 9921  19.604  28.147  14.481
45714W        W 9922  25.532  29.492  14.498
45715W        W 9923  43.466  39.860   2.290
45716W        W 9924   0.770  28.090  12.430
45717W        W 9925  25.171  27.952   2.817
45718W        W 9926  43.482   4.907  13.049
45719W        W 9927  44.884   9.310  14.325
45720W        W 9928  21.592  35.097   3.720
45721W        W 9929  13.658  30.043  14.814
45722W        W 9930  32.450  16.117   1.439
45723W        W 9931  43.017  18.630   4.804
45724W        W 9932   3.761  12.198  11.968
45725W        W 9933  36.859  33.091  11.991
45726W        W 9934   2.236  27.503  11.949
45727W        W 9935  12.762  33.107   2.900
45728W        W 9936  44.288  26.653   2.752
45729W        W 9937  27.133  20.624   4.338
45730W        W 9938  35.503  29.147  11.948
45731W        W 9939   3.391  33.497  12.449
45732W        W 9940  41.343  36.384  11.598
45733W        W 9941  31.562  25.162  12.371
45734W        W 9942   1.731   5.278  11.034
45735W        W 9943  18.226  35.012   0.784
45736W        W 9944  12.831  23.053   1.894
45737W        W 9945  35.581  18.294   4.783
45738W        W 9946   2.440  12.175  11.529
45739W        W 9947  35.992  10.254   0.474
45740W        W 9948  37.833  29.992   3.153
45741W        W 9949  21.731  16.122  12.519
45742W        W 9950   2.454  33.594  14.282
45743W        W 9951   1.314  34.607  14.514
45744W        W 9952   7.339  28.128   2.237
45745W        W 9953  34.118  22.576   2.781
45746W        W 9954  27.005  44.968   3.278
45747W        W 9955  40.980  15.141   9.995
45748W        W 9956  10.318   2.915   1.910
45749W        W 9957  37.873  41.413   4.207
45750W        W 9958  14.253  28.619   1.220
45751W        W 9959  12.238   8.166  11.513
45752W        W 9960  18.071  43.442   1.856
45753W        W 9961  38.515  20.530   5.669
45754W        W 9962  44.755  10.695  14.394
45755W        W 9963  25.983   1.857   0.898
45756W        W 9964  16.639   2.851   0.363
45757W        W 9965  19.116  21.650   1.244
45758W        W 9966   3.389   7.759  14.785
45759W        W 9967   0.900  33.131   1.417
45760W        W 9968  33.961   1.411   4.308
45761W        W 9969  12.243  26.075  13.449
45762W        W 9970  20.098  39.477   1.359
45763W        W 9971  39.337  43.976  10.511
45764W        W 9972  42.943  13.134   3.724
45765W        W 9973  35.905  42.450   1.760
45766W        W 9974  37.397  22.504   1.813
45767W        W 9975   6.875  39.433   1.918
45768W        W 9976  33.985  38.826   0.251
45769W        W 9977  14.205  29.629  11.479
45770W        W 9978  37.465  44.284  13.458
45771W        W 9979  18.280  43.016  10.642
45772W        W 9980  43.333  29.666   2.784
45773W        W 9981  39.559  20.727  14.944
45774W        W 9982  15.746  42.366  11.062
45775W        W 9983  30.019   4.322   2.412
45776W        W 9984  16.155  39.350   5.161
45777W        W 9985  11.625  24.152   4.345
45778W        W 9986  11.683  24.654   0.733
45779W        W 9987  14.260  12.766  10.607
45780W        W 9988  33.473  21.584  11.083
45781W        W 9989  44.866  19.549  10.629
45782W        W 9990  39.046  40.471   1.823
45783W        W 9991  21.116  24.719   4.718
45784W        W 9992  34.076  23.001  11.397
45785W        W 9993  31.963  34.874   0.281
45786W        W 9994   3.757  16.570  13.336
45787W        W 9995  10.155  34.039   1.307
45788W        W 9996   0.931  12.239   4.807
45789W        W 9997  29.461   8.681   1.896
45790W        W 9998  38.487  17.768  11.499
45791W        W 9999  30.010  14.210  10.136
45792W        W10000  31.581  41.798   0.870
45793W        W10001  31.009  38.820  14.973
45794W        W10002   1.846  34.041  11.857
45795W        W10003  34.590   1.385  13.908
45796W        W10004  43.459   3.952  13.049
45797W        W10005   7.749  24.166   0.751
45798W        W10006   5.368  19.240   1.900
45799W        W10007  36.070   8.164  12.926
45800W        W10008  43.276  37.032   2.318
45801W        W10009   7.357  26.197  14.990
45802W        W10010   1.794   4.364   3.647
45803W        W10011  31.935  36.938  14.300
45804W        W10012  23.210  24.086   3.687
45805W        W10013  23.037  30.108   2.729
45806W        W10014  33.577  43.426   3.186
45807W        W10015  27.462  31.411  10.470
45808W        W10016  22.728  18.762   2.793
45809W        W10017  36.459   1.437   2.266
45810W        W10018  16.602  44.392  12.050
45811W        W10019  16.601  37.071  10.443
45812W        W10020  18.114   4.425  14.854
45813W        W10021  35.984  18.158  10.551
45814W        W10022   7.285   5.316  10.482
45815W        W10023   4.228  42.898  14.454
45816W        W10024  35.896   4.275  14.918
45817W        W10025  38.008  35.391   3.805
45818W        W10026   9.393  27.024   1.869
45819W        W10027  23.693  22.208  10.641
45820W        W10028  33.979   9.830   0.923
45821W        W10029   8.843   4.929   1.375
45822W        W10030  40.310   9.298   3.705
45823W        W10031   4.440   8.742  11.038
45824W        W10032  17.240   2.463  13.393
45825W        W10033  35.562   9.267  12.441
45826W        W10034  31.990   5.710   4.658
45827W        W10035  21.692  42.014  10.467
45828W        W10036  11.724   3.735  11.093
45829W        W10037  18.780  39.326   2.239
45830W        W10038  27.526  34.870  12.976
45831W        W10039  39.842  14.310  12.364
45832W        W10040  15.187  22.135   4.320
45833W        W10041  14.213  17.105   0.278
45834W        W10042  30.986   2.413  11.393
45835W        W10043   3.413  34.511  12.461
45836W        W10044  21.044  31.941   0.352
45837W        W10045  42.869  20.231   2.403
45838W        W10046  40.460  30.639  14.021
45839W        W10047   6.921   3.866  13.352
45840W        W10048  32.407  17.686  14.814
45841W        W10049  18.200  39.344   3.719
45842W        W10050  38.488  41.295   1.367
45843W        W10051  33.937  32.416   3.793
45844W        W10052  27.160  21.517   0.399
45845W        W10053  10.770  25.672  12.424
45846W        W10054  17.077  35.944   5.797
45847W        W10055   2.306  18.624  14.287
45848W        W10056  22.085  25.098  11.941
45849W        W10057   1.375  10.800  11.557
45850W        W10058  34.023  40.011  10.931
45851W        W10059  30.459   3.861   4.155
45852W        W10060  38.004  14.665  11.053
45853W        W10061  29.962  34.578   2.184
45854W        W10062  14.703  20.715  13.003
45855W        W10063  32.472  41.472   4.613
45856W        W10064  36.877  20.662   1.314
45857W        W10065   9.340  28.123  10.130
45858W        W10066   5.281  31.002   3.385
45859W        W10067  10.160  14.235  11.543
45860W        W10068  36.041  16.707   3.362
45861W        W10069  19.719  37.538  13.464
45862W        W10070  37.077   5.379  14.292
45863W        W10071  35.390  34.612   0.280
45864W        W10072  14.698  39.827  14.022
45865W        W10073   9.694  22.130  14.389
45866W        W10074  15.720  21.169   4.838
45867W        W10075  28.055   7.285   4.691
45868W        W10076  33.923  33.129  12.555
45869W        W10077  17.648  18.754   3.679
45870W        W10078  20.108  36.875   1.267
45871W        W10079  36.050  24.148   0.260
45872W        W10080   0.482   1.958   1.804
45873W        W10081   1.972  27.528   2.842
45874W        W10082  10.802   0.438  14.374
45875W        W10083  38.041  17.629   4.831
45876W        W10084  21.551   9.369   4.623
45877W        W10085  41.966  42.982  14.024
45878W        W10086  38.880   1.813  13.933
45879W        W10087  15.665  34.534   2.728
45880W        W10088  19.615  21.736   3.756
45881W        W10089   9.735  19.137   2.345
45882W        W10090  15.317   5.900  11.486
45883W        W10091  37.355  36.845  11.065
45884W        W10092   4.353  43.308   0.884
45885W        W10093  41.918  12.169   2.245
45886W        W10094  25.057  30.928   2.763
45887W        W10095  27.054  28.507  10.524
45888W        W10096  40.895   3.357  12.030
45889W        W10097  23.645   8.394  13.815
45890W        W10098   7.388   3.860  14.936
45891W        W10099  39.016  23.065   2.228
45892W        W10100  25.594  25.649  11.376
45893W        W10101  26.035   9.866  13.454
45894W        W10102  11.348  32.624   3.342
45895W        W10103  22.206  24.105   3.693
45896W        W10104  22.588   9.377   0.849
45897W        W10105  41.967  12.752  11.391
45898W        W10106  13.836  23.550   4.157
45899W        W10107  10.660  36.377  14.889
45900W        W10108  32.600  11.727   1.276
45901W        W10109  13.236   3.943   1.763
45902W        W10110  37.493  38.990   4.808
45903W        W10111  13.250   1.310   0.935
45904W        W10112  32.049  28.567   4.212
45905W        W10113  43.410  24.155  11.990
45906W        W10114  19.085  29.158  11.861
45907W        W10115  23.211  18.586  12.032
45908W        W10116  30.099  42.392  14.295
45909W        W10117   0.299  15.787   2.340
45910W        W10118  37.053   2.789  12.429
45911W        W10119  11.342  26.559  10.900
45912W        W10120  36.024   8.258   4.285
45913W        W10121   0.988  32.566  12.482
45914W        W10122  22.104  11.252   2.831
45915W        W10123   1.401  35.022   0.412
45916W        W10124   7.377   9.701   2.709
45917W        W10125  31.959  39.054   1.739
45918W        W10126  41.406  36.364   3.664
45919W        W10127  37.929  40.017   4.629
45920W        W10128  28.025  34.083   1.796
45921W        W10129  22.157  39.881   3.798
45922W        W10130  27.557  42.331  12.353
45923W        W10131   8.205   7.384  10.894
45924W        W10132  31.920   6.898   4.265
45925W        W10133  44.441  33.102  13.356
45926W        W10134  26.120  13.254   0.330
45927W        W10135  16.144   0.325  14.778
45928W        W10136   4.707  14.180   4.813
45929W        W10137  24.993   0.382  12.845
45930W        W10138  44.845  34.493  11.107
45931W        W10139   4.381  24.026   4.737
45932W        W10140  22.078  25.100  14.338
45933W        W10141  21.557  23.083   0.302
45934W        W10142  39.534   0.434  14.284
45935W        W10143  10.178  32.527   0.851
45936W        W10144  10.383  39.322   1.935
45937W        W10145  11.806  12.232   3.810
45938W        W10146  29.083  14.811   2.793
45939W        W10147  28.676  26.206  13.007
45940W        W10148  13.613  20.646  13.350
45941W        W10149   0.411  17.255  13.548
45942W        W10150  22.120  31.508  14.507
45943W        W10151  31.105   0.929   1.805
45944W        W10152   0.806  20.179  11.037
45945W        W10153  40.496  34.421  13.389
45946W        W10154   0.789  10.878  10.551
45947W        W10155  30.521   3.713  12.084
45948W        W10156   7.717  22.583   4.715
45949W        W10157  30.154   4.310   0.472
45950W        W10158   6.212  20.635   1.240
45951W        W10159  42.954  12.687  12.414
45952W        W10160  10.298  12.191   9.557
45953W        W10161   6.758  28.007   0.275
45954W        W10162  11.266  28.051  10.521
45955W        W10163  14.104  15.750   9.936
45956W        W10164  21.026   8.662  12.008
45957W        W10165  14.164  20.729   4.643
45958W        W10166  13.256   7.888   2.676
45959W        W10167  43.286  39.422  12.344
45960W        W10168  14.208  33.886  14.455
45961W        W10169  38.055  38.423  11.993
45962W        W10170   2.907  30.040   4.114
45963W        W10171  39.528  40.318  12.920
45964W        W10172  33.014  22.245   2.746
45965W        W10173  15.679  30.948  12.954
45966W        W10174   8.814  29.973  10.930
45967W        W10175   1.750  14.642   4.271
45968W        W10176  16.620  27.010  14.343
45969W        W10177   7.770  42.417  14.999
45970W        W10178  29.459  41.811  14.280
45971W        W10179  39.476  38.900   4.116
45972W        W10180  42.835  36.011   1.329
45973W        W10181   6.350  36.098   3.785
45974W        W10182   5.407  13.303  14.806
45975W        W10183   8.252   7.402  12.463
45976W        W10184  42.978  10.858   4.271
45977W        W10185  31.417   4.218   1.745
45978W        W10186  41.835  10.697   0.917
45979W        W10187  18.772  35.363   0.803
45980W        W10188  24.131  20.047  11.373
45981W        W10189  38.381  35.875   2.417
45982W        W10190  33.011  39.042  10.989
45983W        W10191  15.798  43.013  13.990
45984W        W10192  33.986  29.466   4.280
45985W        W10193  21.638  10.369   4.783
45986W        W10194  33.553  35.957   3.788
45987W        W10195  23.708  41.986   3.287
45988W        W10196  10.299  17.624  11.080
45989W        W10197   8.680  23.152  10.617
45990W        W10198  27.944   4.376   2.808
45991W        W10199  14.641  39.451   0.370
45992W        W10200  14.622  11.810   4.658
45993W        W10201  30.121  13.336  12.471
45994W        W10202  30.036  22.674  13.369
45995W        W10203  34.971  21.520  10.517
45996W        W10204  26.169  29.493  11.080
45997W        W10205  10.317  22.250  10.614
45998W        W10206   2.899  37.998   0.730
45999W        W10207   7.340   3.775   3.832
46000W        W10208  22.687   6.699   1.776
46001W        W10209   5.908   8.376   0.440
46002W        W10210   2.895   9.883   0.951
46003W        W10211  21.123  27.538  10.921
46004W        W10212  23.057  32.071   2.669
46005W        W10213  23.052  23.985   2.212
46006W        W10214   6.412  12.329  12.940
46007W        W10215  36.439  18.189  12.035
46008W        W10216  38.840  34.500   2.245
46009W        W10217  41.933  28.070  12.471
46010W        W10218  40.468  34.602  14.947
46011W        W10219  43.005   9.850  10.417
46012W        W10220   6.289  39.434  13.430
46013W        W10221  22.150   4.272   2.401
46014W        W10222   2.802  25.053  11.958
46015W        W10223  19.248   5.288   3.299
46016W        W10224  43.339  12.832  13.495
46017W        W10225  14.109  41.338   1.258
46018W        W10226  20.721  43.790  12.425
46019W        W10227   8.756  23.016  11.076
46020W        W10228  10.336   3.889   2.293
46021W        W10229  28.679  23.594  12.367
46022W        W10230  18.547  19.558  13.520
46023W        W10231  29.062  42.297   1.769
46024W        W10232  27.626  25.117  14.976
46025W        W10233   2.765  15.675  14.026
46026W        W10234  28.605  22.544  10.641
46027W        W10235  29.640   4.395  11.010
46028W        W10236  26.046  28.028   0.374
46029W        W10237  16.680   9.174   3.163
46030W        W10238  41.939  41.804  13.931
46031W        W10239   9.733  32.571  12.408
46032W        W10240  13.124   0.790   3.787
46033W        W10241   6.795  33.388   2.230
46034W        W10242   3.869  29.483  10.454
46035W        W10243  27.551  19.102   2.313
46036W        W10244  38.441   8.889   0.939
46037W        W10245   4.313  30.098  11.980
46038W        W10246  28.109   2.371  14.972
46039W        W10247  20.754   2.739  14.782
46040W        W10248  10.215   6.888  11.592
46041W        W10249  44.463  14.127   3.868
46042W        W10250   8.337  39.992  11.002
46043W        W10251  44.393  14.279   2.212
46044W        W10252   6.392  31.517   4.303
46045W        W10253  19.668  26.627   1.762
46046W        W10254  25.007  44.923   2.898
46047W        W10255   1.820  43.021  13.316
46048W        W10256   5.741  30.130  11.413
46049W        W10257  35.404  34.906   1.371
46050W        W10258   3.798  32.945   1.922
46051W        W10259  31.140  40.873   3.742
46052W        W10260  18.652   4.821   4.631
46053W        W10261  10.146   2.281  11.041
46054W        W10262  24.598  14.666   0.761
46055W        W10263  27.004   0.954  14.408
46056W        W10264  42.809  42.839  12.551
46057W        W10265  28.094  12.307   0.440
46058W        W10266  29.139  18.739   1.866
46059W        W10267  32.544  23.541   1.885
46060W        W10268  13.783  42.383   2.823
46061W        W10269  40.433   2.272   3.278
46062W        W10270  19.242  20.163  12.505
46063W        W10271  26.104  40.362   2.329
46064W        W10272  37.020   9.692   4.138
46065W        W10273  21.606  33.413   2.286
46066W        W10274  16.812  14.240   0.321
46067W        W10275  40.491  26.520  13.332
46068W        W10276  32.135  43.969   1.268
46069W        W10277  16.262   2.910  11.574
46070W        W10278  25.526  24.136  10.127
46071W        W10279   7.360  29.975  10.538
46072W        W10280  37.411   4.208   2.854
46073W        W10281  41.478  21.619   4.231
46074W        W10282   3.798  14.211  10.403
46075W        W10283  15.690   1.744   4.253
46076W        W10284  21.153  15.814  11.112
46077W        W10285  40.828  34.593  10.454
46078W        W10286  18.637  35.914  14.814
46079W        W10287  41.867   8.348   1.384
46080W        W10288  22.746  34.889  10.586
46081W        W10289  27.451  37.415  14.932
46082W        W10290  36.377  14.618  14.495
46083W        W10291  17.766  44.287  10.470
46084W        W10292   3.221   5.210  14.324
46085W        W10293  18.652  16.142   4.318
46086W        W10294  23.194  24.701  12.519
46087W        W10295  31.493  15.133   2.884
46088W        W10296  33.964  21.623  12.030
46089W        W10297  11.643   7.252   2.201
46090W        W10298  21.105  30.988   0.905
46091W        W10299  25.493  25.137   2.204
46092W        W10300  11.746  19.067   2.185
46093W        W10301  31.981  24.052  11.965
46094W        W10302  36.926  22.169  11.952
46095W        W10303  23.020  38.354  14.832
46096W        W10304   8.850  31.131   5.205
46097W        W10305  13.123  39.512   1.420
46098W        W10306  27.662  38.362  13.521
46099W        W10307  38.331   9.274  10.961
46100W        W10308  39.327  12.190  14.840
46101W        W10309   4.770  39.965  12.898
46102W        W10310  20.171  20.680  10.462
46103W        W10311  24.517  32.618  12.357
46104W        W10312  37.968  32.434   2.254
46105W        W10313  14.647  23.984  14.969
46106W        W10314  31.463   3.777   2.859
46107W        W10315  44.927  25.682  14.014
46108W        W10316   4.419  14.305  11.443
46109W        W10317  27.038  31.954  11.381
46110W        W10318  13.752  13.315   1.254
46111W        W10319   0.325   9.351  14.482
46112W        W10320  39.427   3.929  14.807
46113W        W10321   8.380  31.110  10.552
46114W        W10322   7.873  41.440   1.307
46115W        W10323  37.582   8.261   1.709
46116W        W10324  17.777  13.726  12.945
46117W        W10325  35.950  34.002   3.813
46118W        W10326   1.963  33.956  10.549
46119W        W10327   4.921   9.727   1.432
46120W        W10328  18.179  19.229   2.181
46121W        W10329  40.414  34.971  13.941
46122W        W10330  28.488  23.124  10.486
46123W        W10331  30.088  41.810   1.423
46124W        W10332  16.597   1.802  14.764
46125W        W10333  43.987  41.432   3.633
46126W        W10334  31.584   6.719   0.755
46127W        W10335  38.953  42.802  13.457
46128W        W10336  15.146  29.451  12.549
46129W        W10337  27.623  24.629   3.328
46130W        W10338  17.659   2.283   0.369
46131W        W10339  13.254  18.214  14.770
46132W        W10340  16.075  19.712   1.782
46133W        W10341  27.544  11.329   1.302
46134W        W10342  27.460  29.589  13.458
46135W        W10343   7.803  14.715  10.155
46136W        W10344  44.403   6.879   2.879
46137W        W10345  37.412  11.273  13.023
46138W        W10346  13.336  12.348   1.847
46139W        W10347  37.049  22.670   3.692
46140W        W10348  18.572  43.839  12.378
46141W        W10349  35.930  37.834   4.127
46142W        W10350  25.649   9.280  12.039
46143W        W10351   7.403  30.058   4.327
46144W        W10352  28.125  24.602  13.451
46145W        W10353  18.653  20.692  13.063
46146W        W10354  26.029  28.564   2.230
46147W        W10355  25.102  36.422  14.969
46148W        W10356   8.689  22.645  11.463
46149W        W10357   8.710  28.610   4.671
46150W        W10358  30.472  38.913   3.294
46151W        W10359   1.767  12.340   2.842
46152W        W10360  44.900  31.595   2.247
46153W        W10361  37.428  23.612  11.547
46154W        W10362   2.894   3.789  13.037
46155W        W10363  11.759  44.857   2.196
46156W        W10364  23.683   7.674  10.630
46157W        W10365  25.987  40.385  14.941
46158W        W10366  35.437  41.811   3.641
46159W        W10367  31.580  29.547  13.874
46160W        W10368   4.782  23.042  14.359
46161W        W10369  16.794  21.701  13.959
46162W        W10370  33.109  15.612   2.893
46163W        W10371  20.711  35.392   3.331
46164W        W10372  25.607  39.942   4.162
46165W        W10373  27.622  26.160   1.300
46166W        W10374  37.040  20.724   1.928
46167W        W10375  36.030  40.542   0.448
46168W        W10376  24.595  22.683   3.715
46169W        W10377  29.955  12.678  10.000
46170W        W10378  10.857   4.921   2.417
46171W        W10379   7.731  16.303   1.727
46172W        W10380  40.506  30.486  14.990
46173W        W10381  37.074  26.137  10.938
46174W        W10382  18.073  42.310  13.383
46175W        W10383  24.157   6.687  14.291
46176W        W10384  34.447  24.058  10.579
46177W        W10385  11.629  41.793  12.072
46178W        W10386  22.045   7.398  14.772
46179W        W10387  37.446   5.880  14.320
46180W        W10388  34.018  43.878  12.033
46181W        W10389  16.757  19.110  11.979
46182W        W10390  39.345   7.389  14.811
46183W        W10391  42.790  28.530  13.792
46184W        W10392   3.322   7.786   4.301
46185W        W10393   4.910  19.156   3.208
46186W        W10394  22.638  29.147  12.003
46187W        W10395  37.012  26.601  10.638
46188W        W10396   1.905  31.135  11.493
46189W        W10397  11.828   6.789   4.123
46190W        W10398  25.512  43.441   3.261
46191W        W10399  33.501   5.930  12.001
46192W        W10400  32.499  36.496   4.603
46193W        W10401  22.038  40.956  10.564
46194W        W10402  36.556  29.949   3.838
46195W        W10403  18.280  25.196   3.198
46196W        W10404  18.156  25.984   1.876
46197W        W10405   8.345   4.314  11.392
46198W        W10406  27.096  11.654  13.009
46199W        W10407   0.291  32.944   4.666
46200W        W10408  28.066  43.764  12.553
46201W        W10409  13.806   1.750   4.712
46202W        W10410  14.758  18.050  10.910
46203W        W10411  19.110  12.272   4.204
46204W        W10412  17.678  40.931  14.483
46205W        W10413  33.523  11.163  14.964
46206W        W10414  41.314  39.815   0.916
46207W        W10415  11.270  37.401  12.362
46208W        W10416  17.600  30.470   0.289
46209W        W10417   7.201  21.616   3.221
46210W        W10418  30.515  43.837  10.937
46211W        W10419  35.002  10.364   5.165
46212W        W10420  33.567   0.303   1.827
46213W        W10421  30.460  13.204  11.127
46214W        W10422  17.751  30.128   4.810
46215W        W10423  25.197  40.817   1.714
46216W        W10424  20.176  25.549   1.929
46217W        W10425  44.346  40.889  11.489
46218W        W10426  29.006  34.513   1.907
46219W        W10427  40.887  16.753  11.527
46220W        W10428  29.056  16.708   1.243
46221W        W10429  16.795  34.964  13.484
46222W        W10430   2.332  44.835   2.884
46223W        W10431  16.163  44.869   2.881
46224W        W10432  18.166   2.250  13.857
46225W        W10433  23.128  26.492  12.978
46226W        W10434  37.412  14.283  11.956
46227W        W10435  10.147   1.260   2.845
46228W        W10436  21.251  29.989   1.702
46229W        W10437  37.932  33.029   1.232
46230W        W10438  33.408  33.624   4.665
46231W        W10439  20.533  37.540   5.180
46232W        W10440  42.958  31.445   2.813
46233W        W10441  27.989  13.647  12.955
46234W        W10442  35.985  24.584   4.317
46235W        W10443  42.789   6.898  11.028
46236W        W10444  15.749  41.405  13.946
46237W        W10445  22.704  22.699   4.126
46238W        W10446  32.451   5.273   0.938
46239W        W10447  20.635  43.862  13.519
46240W        W10448   9.372  34.971   2.262
46241W        W10449  30.916  30.160   3.793
46242W        W10450  30.632  26.074   2.402
46243W        W10451  11.162  31.152  12.999
46244W        W10452   9.746  21.260  11.932
46245W        W10453   1.426  25.524  12.910
46246W        W10454  36.012  27.597   0.367
46247W        W10455   1.380  22.213  10.535
46248W        W10456  37.066  27.667  10.591
46249W        W10457  41.349  29.139  11.996
46250W        W10458  15.692  13.195   4.716
46251W        W10459  29.519  34.880   1.884
46252W        W10460   5.934  33.093   1.364
46253W        W10461  33.589  24.228   4.660
46254W        W10462   9.716  17.210  13.981
46255W        W10463  13.140  44.916  11.920
46256W        W10464  34.920  27.630  14.402
46257W        W10465  30.459  22.675  10.480
46258W        W10466  10.291  24.598   2.247
46259W        W10467  27.520  33.449   2.885
46260W        W10468  16.214   8.727  13.009
46261W        W10469   3.875  22.658   4.195
46262W        W10470  36.516   0.447   4.193
46263W        W10471   7.679   0.926   0.767
46264W        W10472  14.174  23.026   0.889
46265W        W10473  44.335  30.415   2.752
46266W        W10474  43.842   7.667   1.229
46267W        W10475  38.487  30.926  12.026
46268W        W10476  28.537  33.976   1.739
46269W        W10477  10.776  34.501  12.570
46270W        W10478  41.034  27.040  10.479
46271W        W10479  43.355   2.738  12.939
46272W        W10480  27.081  41.968  12.431
46273W        W10481   7.881  10.374  13.827
46274W        W10482  37.473  35.438   2.239
46275W        W10483  34.889  31.147  14.014
46276W        W10484  39.902  15.587  13.509
46277W        W10485  22.543  28.090   0.840
46278W        W10486  18.775  27.120   2.843
46279W        W10487  40.350   8.785  12.900
46280W        W10488   3.396  10.843  12.456
46281W        W10489  12.799   5.852  11.004
46282W        W10490  31.915  37.441   4.188
46283W        W10491  11.265  10.154  12.498
46284W        W10492  39.009  17.227  14.804
46285W        W10493  44.327  35.425   3.230
46286W        W10494  40.304   1.333  12.536
46287W        W10495  37.004  40.884   3.272
46288W        W10496  42.337   8.217   1.446
46289W        W10497  35.042  21.130   2.689
46290W        W10498  37.936  36.442  10.507
46291W        W10499  12.247  24.581  12.910
46292W        W10500  42.369  39.520   4.711
46293W        W10501  10.682  44.389   4.615
46294W        W10502  31.128  31.151   4.758
46295W        W10503  14.126  12.326   3.374
46296W        W10504  40.483  37.971  13.375
46297W        W10505  31.975  14.180  11.593
46298W        W10506   1.913   5.325   4.813
46299W        W10507   4.441  24.047  14.863
46300W        W10508  28.103   2.377  12.475
46301W        W10509  18.684   6.825   3.749
46302W        W10510  29.528   0.490  14.839
46303W        W10511  10.228  38.334  11.107
46304W        W10512  11.325  35.465  12.031
46305W        W10513  10.339   5.262  10.524
46306W        W10514  44.460  20.118  12.076
46307W        W10515   6.227  33.940  10.419
46308W        W10516  39.438  10.659   1.331
46309W        W10517  13.608  11.629  13.499
46310W        W10518  14.753  18.236   0.363
46311W        W10519  25.999  10.635   0.262
46312W        W10520  34.074  36.997   2.207
46313W        W10521  37.372  16.089   2.380
46314W        W10522   8.203  17.663  12.867
46315W        W10523  27.031   4.317   1.721
46316W        W10524  44.358  25.113  13.836
46317W        W10525  22.188  34.870   1.801
46318W        W10526  27.063  27.156   0.917
46319W        W10527  27.010  34.087   2.199
46320W        W10528  26.601   0.793  11.023
46321W        W10529  21.727  35.585  11.048
46322W        W10530  44.963  38.067   2.882
46323W        W10531  19.542  14.238   0.900
46324W        W10532  16.073  14.821  10.449
46325W        W10533  21.722  12.753   1.385
46326W        W10534  29.435  39.967  11.881
46327W        W10535  32.027   3.288  10.444
46328W        W10536  37.918  20.148  12.563
46329W        W10537  34.513  23.159  10.467
46330W        W10538  10.670   5.426  13.474
46331W        W10539  37.910   7.871   3.656
46332W        W10540  10.822  38.028   3.218
46333W        W10541  15.120  10.696   2.666
46334W        W10542   1.777  43.764  10.421
46335W        W10543  40.353  42.337   2.715
46336W        W10544  28.095  33.492   0.352
46337W        W10545   6.188  41.511  10.609
46338W        W10546   7.799  30.149   2.737
46339W        W10547  16.649  16.286  12.485
46340W        W10548  22.585  43.011  12.014
46341W        W10549  10.857   0.284  10.980
46342W        W10550  11.688   9.727   2.262
46343W        W10551  20.720   8.736   9.644
46344W        W10552  17.131  36.974  11.413
46345W        W10553  26.472  27.633  13.844
46346W        W10554  27.156  28.548  12.966
46347W        W10555   9.764   4.831   3.667
46348W        W10556  26.089   8.349   1.229
46349W        W10557  32.509  23.645   0.888
46350W        W10558  39.399  34.037  11.387
46351W        W10559   7.410  38.913  11.118
46352W        W10560  30.138  41.823   2.875
46353W        W10561  37.391  35.004  14.431
46354W        W10562  27.121  19.110  11.528
46355W        W10563  23.137  35.006   0.756
46356W        W10564   9.655  44.292  14.334
46357W        W10565   3.727   7.857   2.760
46358W        W10566  21.132  39.540  13.524
46359W        W10567  23.201  39.523   0.465
46360W        W10568  28.676  16.736  10.929
46361W        W10569  38.562  20.187   1.219
46362W        W10570   9.202   7.201   3.180
46363W        W10571  44.326  20.079  12.871
46364W        W10572  36.525  29.602  11.953
46365W        W10573  21.060  26.482  10.437
46366W        W10574  13.784  41.836   2.307
46367W        W10575  31.947  26.702  11.472
46368W        W10576  40.418  32.617   4.292
46369W        W10577   1.909  29.450  10.916
46370W        W10578  20.151  22.575   1.428
46371W        W10579   5.703   1.451   0.303
46372W        W10580   9.179  23.608   3.200
46373W        W10581  36.002  40.005  11.010
46374W        W10582   3.858  21.248   3.845
46375W        W10583   3.837  31.137   0.945
46376W        W10584  14.818   9.178   3.208
46377W        W10585  19.631  38.459   2.294
46378W        W10586  26.136  37.908  13.320
46379W        W10587  22.711  19.701   5.194
46380W        W10588   8.859  39.526   1.922
46381W        W10589  43.898  31.453  13.321
46382W        W10590   2.950   1.866  10.102
46383W        W10591   5.265  34.024  13.337
46384W        W10592   6.848  37.534  11.892
46385W        W10593  23.017   1.831   1.254
46386W        W10594   5.420  23.986  12.344
46387W        W10595   5.905  41.839  12.005
46388W        W10596   5.856  44.905   1.396
46389W        W10597  12.685  39.906  13.532
46390W        W10598  22.538  13.826   0.468
46391W        W10599  26.461  19.280  13.969
46392W        W10600  23.629  13.158  14.399
46393W        W10601   7.371   2.378  13.468
46394W        W10602  35.974  16.205  11.479
46395W        W10603  44.000  19.675   0.917
46396W        W10604  40.010  14.716   0.365
46397W        W10605  16.272  16.260  13.312
46398W        W10606  36.991  41.820  11.940
46399W        W10607  34.490  44.466  13.839
46400W        W10608  19.115  31.117   3.249
46401W        W10609  22.243   7.201   2.825
46402W        W10610   0.811  21.740  14.812
46403W        W10611  38.942  26.628   3.147
46404W        W10612  16.213  34.565   4.805
46405W        W10613  33.449  39.443  11.953
46406W        W10614   8.890  16.700  10.457
46407W        W10615  19.549  16.265   0.824
46408W        W10616  27.969   8.234   3.161
46409W        W10617  34.908  43.436   4.276
46410W        W10618  23.655  24.715  13.983
46411W        W10619  10.673  41.794   0.783
46412W        W10620  22.667   9.246   1.271
46413W        W10621  20.605  34.483   3.789
46414W        W10622  44.289  12.627  12.541
46415W        W10623  26.988  38.004  12.411
46416W        W10624  40.023  24.107  14.961
46417W        W10625  11.205   0.287   0.326
46418W        W10626  42.526  21.628  12.521
46419W        W10627   3.946  33.892  13.027
46420W        W10628  21.554  14.814  10.639
46421W        W10629   3.400  15.169  14.028
46422W        W10630  26.995  37.382  13.886
46423W        W10631  31.140  37.929  12.011
46424W        W10632  16.259  23.997  10.994
46425W        W10633  44.913  26.504   2.884
46426W        W10634   1.924  12.703   2.248
46427W        W10635  19.277   6.678  13.981
46428W        W10636  11.658   6.770  11.483
46429W        W10637  31.090  36.958   1.856
46430W        W10638   8.855   1.456   0.277
46431W        W10639  33.593  22.244  12.360
46432W        W10640  13.686  23.157  14.393
46433W        W10641   4.736  22.118  12.412
46434W        W10642  22.107  18.742   0.869
46435W        W10643  38.887  12.705  10.057
46436W        W10644  19.061  25.140  13.313
46437W        W10645  27.482  13.153  13.811
46438W        W10646  25.545  40.376   3.850
46439W        W10647  19.723  31.027   0.354
46440W        W10648  22.514  11.144  13.333
46441W        W10649  37.389  32.440   3.245
46442W        W10650  12.361  28.148  12.439
46443W        W10651  29.534  18.604  14.905
46444W        W10652  16.618  16.810   1.819
46445W        W10653  17.277   8.790  12.862
46446W        W10654  35.526  34.590   3.315
46447W        W10655  30.071  39.893  11.592
46448W        W10656  19.115  37.903  13.327
46449W        W10657  19.141  16.797  10.961
46450W        W10658  39.842  22.152   2.385
46451W        W10659  37.562  15.159   4.191
46452W        W10660   7.795  31.010  13.487
46453W        W10661  36.415  31.637  14.481
46454W        W10662  13.114  26.541   5.275
46455W        W10663  39.534  38.461   4.214
46456W        W10664  26.952   2.882  10.895
46457W        W10665   0.317   2.231   4.188
46458W        W10666  18.776  18.081  11.946
46459W        W10667   3.882  17.269  11.108
46460W        W10668  39.062  21.189   1.787
46461W        W10669  14.602  13.615  11.453
46462W        W10670  13.175  14.830  13.977
46463W        W10671   2.364  24.677   1.818
46464W        W10672  13.148  22.244   0.877
46465W        W10673  31.553  38.421  11.077
46466W        W10674  12.756  30.917  14.987
46467W        W10675   8.278   9.158  14.997
46468W        W10676  36.378  14.632   1.751
46469W        W10677   5.196  37.074  11.510
46470W        W10678  21.245  42.003   3.326
46471W        W10679  26.703   0.776  13.368
46472W        W10680  14.253  23.612  10.946
46473W        W10681  19.679  34.594  11.990
46474W        W10682  41.971   0.318   3.320
46475W        W10683   5.297  42.379   0.773
46476W        W10684  39.837  34.120  10.966
46477W        W10685  40.903   2.743   2.237
46478W        W10686  30.563  26.648  11.571
46479W        W10687  23.026  24.598  10.468
46480W        W10688   9.212  38.074   3.795
46481W        W10689  22.732  36.021   0.815
46482W        W10690  44.430   7.874   4.657
46483W        W10691  43.299  26.532  12.530
46484W        W10692   2.764  26.645  11.413
46485W        W10693  17.641   8.298   2.850
46486W        W10694  22.702  13.201  11.125
46487W        W10695  21.023  13.837   2.238
46488W        W10696   6.733  24.651   4.213
46489W        W10697  29.659   2.739   0.961
46490W        W10698  16.759  17.212  13.368
46491W        W10699  13.673  27.576   1.280
46492W        W10700   3.243  37.926  14.782
46493W        W10701   8.688  27.660   2.679
46494W        W10702  28.133  14.783   3.379
46495W        W10703  30.103   7.400  12.888
46496W        W10704  33.950   1.394   3.725
46497W        W10705  28.481  27.170   1.380
46498W        W10706  18.273  25.568   2.339
46499W        W10707  32.926  10.640  12.953
46500W        W10708   0.425  15.252  12.494
46501W        W10709  11.673  14.770  13.335
46502W        W10710  24.478   6.265  11.403
46503W        W10711  15.109  37.018  10.463
46504W        W10712  38.930   8.711   4.160
46505W        W10713  33.874  31.121  14.286
46506W        W10714  19.087  34.919  11.420
46507W        W10715   6.322  26.627  14.798
46508W        W10716  14.307  29.058  12.896
46509W        W10717  13.334   5.276  12.381
46510W        W10718  22.721  44.892  13.957
46511W        W10719  17.712   3.338   0.273
46512W        W10720  40.375  22.633   1.881
46513W        W10721   8.396   9.879  13.515
46514W        W10722  25.172  24.222   3.698
46515W        W10723  39.456  16.702   3.187
46516W        W10724  35.976  42.889   0.746
46517W        W10725  11.739   5.785  10.146
46518W        W10726  36.983  41.951   1.906
46519W        W10727  27.476  31.113  13.380
46520W        W10728  14.269  44.383  13.022
46521W        W10729  11.335  41.483  13.335
46522W        W10730  18.253  17.661  10.471
46523W        W10731  26.109  40.473   4.681
46524W        W10732  31.614  35.583   4.754
46525W        W10733  28.447  32.446   0.925
46526W        W10734  16.787  23.606   4.735
46527W        W10735  15.630   5.752  10.157
46528W        W10736   0.967  30.974   2.903
46529W        W10737  27.475   4.906  14.331
46530W        W10738   3.917  20.717   0.965
46531W        W10739   0.371  32.505  11.453
46532W        W10740  42.335  25.629   2.786
46533W        W10741  20.523  10.329  11.543
46534W        W10742  20.601  24.695  14.296
46535W        W10743  29.036  29.110  12.543
46536W        W10744  11.693  14.231   5.212
46537W        W10745  13.726  14.133   1.911
46538W        W10746  21.723  41.933  12.993
46539W        W10747  19.645  30.953  13.485
46540W        W10748  37.545  30.943  12.412
46541W        W10749  42.371  33.000   1.928
46542W        W10750  10.780  22.596  12.506
46543W        W10751  34.006  44.371  13.409
46544W        W10752  24.650  38.526  11.495
46545W        W10753  40.986  42.399   1.262
46546W        W10754  12.236   3.436   1.354
46547W        W10755   4.384  35.370  14.508
46548W        W10756  20.087  14.788   0.480
46549W        W10757  22.521  18.142   3.269
46550W        W10758  19.630   6.354   3.629
46551W        W10759  25.657  38.824  10.611
46552W        W10760  35.001  10.283   3.275
46553W        W10761  42.792  24.068   2.256
46554W        W10762  21.206  11.742   1.210
46555W        W10763  15.086   8.367  13.896
46556W        W10764  39.377  10.281   2.184
46557W        W10765  43.396  33.406   2.825
46558W        W10766  11.650  34.435  11.398
46559W        W10767  28.996  13.270   4.771
46560W        W10768  33.043  43.488  10.891
46561W        W10769   9.162   4.905  14.475
46562W        W10770  44.827   4.921   5.117
46563W        W10771  32.997  29.970  11.422
46564W        W10772  20.691  44.288   2.370
46565W        W10773  12.843  35.497  11.463
46566W        W10774   4.823  16.188  13.028
46567W        W10775  16.571  23.066   3.844
46568W        W10776   9.750  25.044  12.961
46569W        W10777  16.199   9.377  13.049
46570W        W10778  14.607  42.925   4.227
46571W        W10779  34.547  15.615   1.446
46572W        W10780  27.053  23.670   0.452
46573W        W10781  30.521  34.583  13.005
46574W        W10782  31.961  29.449   1.373
46575W        W10783  16.091  38.854  11.883
46576W        W10784  32.915  25.593  13.061
46577W        W10785  42.310  28.109   4.313
46578W        W10786   8.839  21.080  12.546
46579W        W10787  37.836  18.065   3.276
46580W        W10788  34.941  13.827  11.078
46581W        W10789   0.856   2.450  11.916
46582W        W10790   4.881   6.786  12.841
46583W        W10791  42.870   7.805   2.868
46584W        W10792   4.928  30.067  12.879
46585W        W10793  34.885  33.422   5.209
46586W        W10794  30.146   6.197  11.952
46587W        W10795   2.418   1.825   3.171
46588W        W10796  23.226   0.458   0.306
46589W        W10797   5.237  19.555  12.949
46590W        W10798  15.621   5.271  12.430
46591W        W10799  17.168  27.081   1.212
46592W        W10800  28.640   4.834   3.300
46593W        W10801  27.514  44.825  13.938
46594W        W10802  38.468   8.860   4.761
46595W        W10803   1.252  26.162   2.818
46596W        W10804  13.127  27.065   2.821
46597W        W10805  14.663  31.916   9.925
46598W        W10806  27.462   6.882   4.602
46599W        W10807  40.396  13.639  11.421
46600W        W10808  11.723  36.913   2.716
46601W        W10809  39.454  23.186  11.511
46602W        W10810  42.828  20.554  14.866
46603W        W10811   1.948  26.515   4.250
46604W        W10812  22.685  10.267   3.377
46605W        W10813  11.178  10.150  11.426
46606W        W10814   6.682  34.969   0.798
46607W        W10815  36.370  26.655   5.318
46608W        W10816  16.292  29.065  10.523
46609W        W10817   3.379  22.600  12.039
46610W        W10818  43.515  13.797  12.422
46611W        W10819  27.630   4.737   3.281
46612W        W10820  37.837   6.286  13.384
46613W        W10821  25.503  22.736   9.927
46614W        W10822  40.861  41.413  11.090
46615W        W10823  37.847  44.483  12.989
46616W        W10824  24.202   2.282   1.219
46617W        W10825   7.817  15.649   2.888
46618W        W10826  21.573   7.300  11.900
46619W        W10827  19.671   8.790  11.454
46620W        W10828  37.055  13.302   0.249
46621W        W10829   9.344  11.305   1.329
46622W        W10830  22.124  42.369   2.258
46623W        W10831  19.608  29.102   3.756
46624W        W10832  10.852  13.843   3.798
46625W        W10833  17.278  11.362   1.341
46626W        W10834  25.988  32.921   2.311
46627W        W10835   7.244  26.536   0.867
46628W        W10836  33.454  18.767   4.610
46629W        W10837  12.808  44.866   4.274
46630W        W10838  33.500   3.825  10.897
46631W        W10839  16.143  36.350  14.946
46632W        W10840  39.488  21.636  13.989
46633W        W10841  34.557   9.680   4.246
46634W        W10842  43.490   2.748  13.842
46635W        W10843   4.397  15.714   3.365
46636W        W10844  14.296   6.889   0.924
46637W        W10845   4.866  12.613  10.920
46638W        W10846  33.423  16.721  12.096
46639W        W10847  42.521   3.306   4.130
46640W        W10848   0.892   7.845   1.786
46641W        W10849   4.219  10.653   4.776
46642W        W10850   9.855  16.674   0.786
46643W        W10851   0.278  34.987   3.344
46644W        W10852   5.901  38.043  10.929
46645W        W10853  26.208  34.919  10.526
46646W        W10854  15.251  17.064   4.650
46647W        W10855  34.987  27.042   0.944
46648W        W10856  18.296  26.137  13.053
46649W        W10857  10.142  17.742   2.362
46650W        W10858  18.138  37.483   1.760
46651W        W10859  32.423   0.985  12.924
46652W        W10860  39.056  19.547   2.388
46653W        W10861  24.987  31.531  11.509
46654W        W10862  17.138  29.469  14.825
46655W        W10863  25.007  44.917   2.256
46656W        W10864  15.628  14.755  13.954
46657W        W10865  36.571  18.573  11.500
46658W        W10866  11.161  18.786   1.888
46659W        W10867   8.206  18.770  11.592
46660W        W10868  39.824  28.981  12.361
46661W        W10869  10.363   8.807  14.396
46662W        W10870  40.496  33.127  13.528
46663W        W10871  35.048   9.320  11.865
46664W        W10872  18.608   0.925  12.401
46665W        W10873   5.300  33.505   0.283
46666W        W10874  10.158  22.510   2.881
46667W        W10875   8.817   7.749  11.952
46668W        W10876  25.080   8.836  11.069
46669W        W10877   9.395  31.440  14.510
46670W        W10878  44.328  10.800  14.443
46671W        W10879  12.294  29.571  10.486
46672W        W10880   1.752   1.758  12.897
46673W        W10881  26.050   3.904  14.855
46674W        W10882  29.554  29.077   0.247
46675W        W10883  28.453  21.726  11.991
46676W        W10884  27.109  39.886  12.514
46677W        W10885  42.431  21.581  12.876
46678W        W10886  35.861  35.103  11.531
46679W        W10887  42.417  23.230  13.386
46680W        W10888  35.898   4.203   1.405
46681W        W10889  34.478  10.819  12.439
46682W        W10890   7.219  40.031   2.195
46683W        W10891  12.731  26.568  11.445
46684W        W10892  22.239   8.364   1.869
46685W        W10893  42.413  13.199   4.118
46686W        W10894  18.567  33.538  14.378
46687W        W10895  39.826  26.205  13.512
46688W        W10896  18.248  18.132  10.955
46689W        W10897  16.117  10.848  14.883
46690W        W10898   6.281  43.826   0.243
46691W        W10899  25.211  38.074  14.914
46692W        W10900  17.728  26.626  13.054
46693W        W10901  28.675  44.384  13.969
46694W        W10902  19.283  20.613   3.300
46695W        W10903   1.360  34.601  14.777
46696W        W10904   0.480  11.194   2.313
46697W        W10905  16.778  21.159   2.883
46698W        W10906  11.790  39.853  10.560
46699W        W10907  16.284  43.415  11.929
46700W        W10908  10.150  24.040  11.413
46701W        W10909  15.749  19.181   0.418
46702W        W10910   5.211  32.607   0.472
46703W        W10911  35.869  35.434  11.025
46704W        W10912  26.133  38.862  10.496
46705W        W10913  44.944  12.854   0.960
46706W        W10914  12.643  39.439   0.369
46707W        W10915  18.660  38.027  12.448
46708W        W10916  28.470  42.022   3.315
46709W        W10917   8.405   9.229   3.239
46710W        W10918  25.504  38.007  11.438
46711W        W10919  23.140  17.573   2.805
46712W        W10920  25.510  32.416   3.181
46713W        W10921  36.501  33.582   9.936
46714W        W10922   5.355  25.658   2.853
46715W        W10923  29.522  14.633   3.162
46716W        W10924  18.292  35.903   5.126
46717W        W10925  44.497   4.830   1.902
46718W        W10926  36.578  20.717   1.929
46719W        W10927  31.936  32.059  13.368
46720W        W10928  21.709  12.208  11.435
46721W        W10929  19.086  41.302   0.775
46722W        W10930  35.511  22.574  14.996
46723W        W10931  27.478  37.077  11.936
46724W        W10932  19.139  39.895  13.801
46725W        W10933  27.157  33.430   2.194
46726W        W10934  33.477   2.396  14.366
46727W        W10935  15.634  18.293   0.354
46728W        W10936  28.993   0.458   1.729
46729W        W10937  30.535  26.005   2.891
46730W        W10938   7.286  22.664   1.214
46731W        W10939  16.245  37.895   3.795
46732W        W10940  13.130  25.159  14.952
46733W        W10941  21.133   9.253   1.909
46734W        W10942   6.793   9.286  12.567
46735W        W10943   6.271  44.400   2.681
46736W        W10944  43.412  44.375  11.564
46737W        W10945  26.554   4.827  11.946
46738W        W10946  13.179  21.720  13.384
46739W        W10947  18.057   8.865  12.894
46740W        W10948  10.210  44.885   2.297
46741W        W10949  18.549   6.842   2.210
46742W        W10950  30.136   8.870  13.410
46743W        W10951  44.335   6.350   3.646
46744W        W10952  28.620  40.344  13.981
46745W        W10953  36.522   4.741  10.101
46746W        W10954  42.799  19.722  13.928
46747W        W10955  11.862   6.712   1.854
46748W        W10956  39.970  41.841   3.365
46749W        W10957   9.370   4.761  13.376
46750W        W10958  21.097  23.617  12.351
46751W        W10959   7.693  44.755  14.880
46752W        W10960  13.601   8.171  10.485
46753W        W10961  23.057  13.149   4.246
46754W        W10962  32.103  30.427   0.355
46755W        W10963  41.306   6.230  12.925
46756W        W10964   1.862  35.904   0.849
46757W        W10965  28.084  44.769   1.834
46758W        W10966  13.164  14.646   2.418
46759W        W10967  18.655  44.939  14.900
46760W        W10968  39.412  22.041   3.275
46761W        W10969  32.096   2.403   2.748
46762W        W10970  15.773  28.561   1.794
46763W        W10971  27.192  39.813  13.919
46764W        W10972  27.639   1.841  12.484
46765W        W10973  25.508  44.954   4.203
46766W        W10974   9.167  44.346   0.894
46767W        W10975  36.056  15.758   3.760
46768W        W10976  27.542   3.461   0.801
46769W        W10977   7.867   0.986   2.395
46770W        W10978  18.733  28.059  11.093
46771W        W10979   9.300  29.946   3.370
46772W        W10980  34.034   2.279  12.872
46773W        W10981  15.615  17.638   0.320
46774W        W10982  19.043   9.164  14.841
46775W        W10983  31.947   7.300   4.160
46776W        W10984  25.012  33.898  12.872
46777W        W10985   3.255  35.000   2.741
46778W        W10986  31.024  15.131  13.793
46779W        W10987  24.982  37.048   2.821
46780W        W10988   3.336   8.741  11.882
46781W        W10989  28.436  33.955  11.878
46782W        W10990  43.940  12.717  14.942
46783W        W10991  35.551  10.252  13.495
46784W        W10992  24.075  19.652   2.795
46785W        W10993   6.835  37.934   0.348
46786W        W10994  14.154  29.948   2.321
46787W        W10995  12.709  37.065  10.906
46788W        W10996   2.792  44.399   3.687
46789W        W10997  31.908  43.341  12.545
46790W        W10998  36.996  31.969  10.423
46791W        W10999  17.676  18.570  14.338
46792W        W11000  36.996  24.229   3.336
46793W        W11001  30.077  35.866   0.288
46794W        W11002   0.779  25.113   4.823
46795W        W11003  14.330  34.587  12.951
46796W        W11004  34.053  22.018   3.350
46797W        W11005  20.668   4.874   2.291
46798W        W11006  36.984  34.006  14.498
46799W        W11007  11.746  34.952   4.796
46800W        W11008  29.542  21.717   0.860
46801W        W11009   6.371  38.045  12.878
46802W        W11010  12.763  40.539  10.494
46803W        W11011   9.755   0.405  11.448
46804W        W11012  30.006  32.578  12.926
46805W        W11013  37.057  40.801  10.985
46806W        W11014  26.007  19.144  13.344
46807W        W11015  18.151   0.952   1.781
46808W        W11016  25.992  41.299  13.804
46809W        W11017  23.642  36.033   2.295
46810W        W11018  35.005  43.899   3.166
46811W        W11019  34.535  20.187  10.892
46812W        W11020  20.755  19.726   2.858
46813W        W11021  44.903  43.859   4.615
46814W        W11022  25.032  23.675   3.670
46815W        W11023   0.258   5.204   0.965
46816W        W11024  13.128  14.815  10.635
46817W        W11025  19.670   3.892  14.466
46818W        W11026  40.024  11.323   1.292
46819W        W11027   9.779  39.458   4.803
46820W        W11028  31.440  10.307   2.246
46821W        W11029  23.528  27.464   0.357
46822W        W11030  15.648  19.229   3.676
46823W        W11031  22.571  27.604  13.441
46824W        W11032   5.305  16.601   3.753
46825W        W11033  40.937  16.287  13.378
46826W        W11034  11.141  43.922   0.380
46827W        W11035  23.021  25.478   3.675
46828W        W11036  13.117  19.555   0.279
46829W        W11037  27.066  16.270  14.450
46830W        W11038  20.038   3.301  12.015
46831W        W11039  17.795  37.473   5.251
46832W        W11040  27.653  30.093   2.765
46833W        W11041  28.627   9.686   0.834
46834W        W11042  13.219  41.452   4.613
46835W        W11043  22.194  37.944   2.703
46836W        W11044  35.002   4.809   2.784
46837W        W11045  32.964   8.720  13.798
46838W        W11046  42.874  16.782  14.852
46839W        W11047  39.476  42.775  13.016
46840W        W11048  29.924  21.240  14.437
46841W        W11049  37.373  23.234  13.825
46842W        W11050  30.505  13.730   4.326
46843W        W11051  12.734   3.313   1.296
46844W        W11052   2.820   6.918  13.973
46845W        W11053  43.816  24.134   4.640
46846W        W11054  31.034   1.331   1.408
46847W        W11055  26.606  32.034  12.903
46848W        W11056  33.606   3.849  11.502
46849W        W11057  12.306   3.312  12.044
46850W        W11058   0.797  36.874  14.398
46851W        W11059  43.360  34.383  10.461
46852W        W11060  10.794  34.465   0.282
46853W        W11061  24.037  36.029   4.228
46854W        W11062  22.549   5.291   5.221
46855W        W11063  36.085   5.716  14.288
46856W        W11064  15.777   5.416  13.997
46857W        W11065  30.549  29.137  13.839
46858W        W11066  32.554  12.148  11.475
46859W        W11067  12.854  29.101   1.308
46860W        W11068  26.558  32.451   2.688
46861W        W11069  28.592  14.819  11.578
46862W        W11070   0.449  36.939   0.829
46863W        W11071  32.941   7.891   3.197
46864W        W11072  43.845  15.199   4.161
46865W        W11073  35.086  31.975  10.590
46866W        W11074  23.716  19.137  12.081
46867W        W11075   4.379  44.463  10.158
46868W        W11076  30.123  42.780  10.945
46869W        W11077  43.511  11.647   4.165
46870W        W11078  13.197  14.194   4.624
46871W        W11079  30.483  10.848   4.251
46872W        W11080  23.644  28.567   4.693
46873W        W11081  26.522  32.904   3.186
46874W        W11082  12.633  24.044  10.638
46875W        W11083   7.228  29.975  14.436
46876W        W11084  32.456  10.231   1.245
46877W        W11085  33.555  21.082   0.865
46878W        W11086  39.519   4.295   5.256
46879W        W11087  30.561  28.967  10.452
46880W        W11088   6.287  39.944   4.778
46881W        W11089  23.194   9.721  13.337
46882W        W11090   7.736  43.940   4.661
46883W        W11091  13.625   9.745  12.385
46884W        W11092  33.978  11.171   1.404
46885W        W11093  21.192  31.037  14.402
46886W        W11094  40.420  17.074   5.671
46887W        W11095  41.972  15.759   0.338
46888W        W11096   3.340  14.769  13.325
46889W        W11097  29.480  37.363   1.888
46890W        W11098  42.984  37.866  13.351
46891W        W11099  31.409  15.679   0.865
46892W        W11100   2.383   6.370   0.821
46893W        W11101   1.947  25.570  14.357
46894W        W11102  32.531   8.238  12.477
46895W        W11103   9.771  20.659  12.017
46896W        W11104  29.451  36.063  14.299
46897W        W11105   1.793  24.625   1.876
46898W        W11106  42.471  12.720  14.778
46899W        W11107  37.403  19.664  13.811
46900W        W11108  30.940   2.832  13.320
46901W        W11109  19.741  19.723   3.672
46902W        W11110  33.884  17.786  11.072
46903W        W11111  23.233   5.422   4.706
46904W        W11112  10.167  16.728  13.832
46905W        W11113  11.160   9.751   1.812
46906W        W11114  44.451  34.949  14.338
46907W        W11115  28.060   4.907  10.016
46908W        W11116  11.163  37.401   0.479
46909W        W11117  42.412  15.168  13.349
46910W        W11118  30.951  23.660  14.898
46911W        W11119   5.747   4.439  11.516
46912W        W11120  37.936   5.933   3.860
46913W        W11121  39.316  35.996   2.735
46914W        W11122  10.742  35.532  12.409
46915W        W11123  41.826  17.264   1.268
46916W        W11124  17.629   5.430  14.275
46917W        W11125  26.499  14.751   4.690
46918W        W11126  39.322  18.634  12.047
46919W        W11127  13.666   8.161  10.900
46920W        W11128   6.272  33.043  13.894
46921W        W11129  34.910  34.546  11.004
46922W        W11130  39.422  13.665   3.843
46923W        W11131  31.076  14.215   2.265
46924W        W11132  20.597  29.060  10.960
46925W        W11133   4.440  15.611  12.886
46926W        W11134   0.298  30.472   4.263
46927W        W11135  41.029  41.995   1.248
46928W        W11136   9.859  11.169  12.936
46929W        W11137  29.507  29.432  12.456
46930W        W11138   3.821   6.265  10.536
46931W        W11139  34.087  16.728   0.965
46932W        W11140  12.856  44.894   4.818
46933W        W11141  43.352  43.338  11.875
46934W        W11142  32.459   6.885  10.409
46935W        W11143  39.545  31.038   4.785
46936W        W11144  15.651  17.064   0.954
46937W        W11145   0.263  13.271   3.203
46938W        W11146  32.109  28.032  12.396
46939W        W11147  21.568  29.169   2.726
46940W        W11148   9.864  33.957  11.929
46941W        W11149   8.752  40.934  11.606
46942W        W11150  21.687  35.008   2.894
46943W        W11151  11.312  29.490   1.389
46944W        W11152  37.499  22.173   2.726
46945W        W11153  36.498  38.515   3.655
46946W        W11154  29.442  38.857  11.552
46947W        W11155  19.698  39.469  12.894
46948W        W11156  34.993  34.498   3.754
46949W        W11157  37.889  33.985  10.490
46950W        W11158  42.377  44.959  13.387
46951W        W11159  13.638  13.680   3.729
46952W        W11160  33.990  17.256  10.581
46953W        W11161  36.928  44.292   2.724
46954W        W11162  16.178   6.795   1.306
46955W        W11163   7.386  39.832  10.940
46956W        W11164  14.731  30.000  12.967
46957W        W11165  12.340  18.784  12.040
46958W        W11166   5.712  41.843   1.890
46959W        W11167  16.238  37.570   1.716
46960W        W11168  25.978  42.831   2.316
46961W        W11169  39.429  18.185   3.738
46962W        W11170  30.065  27.602   0.437
46963W        W11171  39.506  17.170  12.911
46964W        W11172  40.903  19.234   4.139
46965W        W11173  35.005   7.683  13.878
46966W        W11174  24.175  38.494   4.183
46967W        W11175  20.691  34.947   3.162
46968W        W11176  26.119  33.989  14.984
46969W        W11177   9.890  24.090   1.817
46970W        W11178   6.401  43.420  11.960
46971W        W11179   3.762  27.454  13.038
46972W        W11180  21.705  29.649  10.991
46973W        W11181  42.286  41.950   1.826
46974W        W11182  21.153  38.867  14.335
46975W        W11183  29.535  10.208  10.146
46976W        W11184  17.575   6.907   1.420
46977W        W11185  36.081   5.932  12.536
46978W        W11186  23.195   3.439  11.478
46979W        W11187  17.604  29.627  10.900
46980W        W11188  11.318  15.157  14.839
46981W        W11189  37.877  40.981   1.337
46982W        W11190  36.423   3.847   0.295
46983W        W11191  16.098  11.785  11.515
46984W        W11192  29.507  44.904   1.422
46985W        W11193  19.106  23.087  11.480
46986W        W11194  12.276   1.787  12.427
46987W        W11195  43.436  24.137  12.829
46988W        W11196  40.029  10.228   1.895
46989W        W11197  29.577  15.732  14.842
46990W        W11198  10.848  41.433   0.832
46991W        W11199  26.564  21.256   3.820
46992W        W11200   9.836  21.516  14.516
46993W        W11201  43.933   2.765  12.525
46994W        W11202  10.699   6.328   1.927
46995W        W11203  12.272   9.870   3.854
46996W        W11204  41.445   4.380   1.895
46997W        W11205  37.887  30.438   3.683
46998W        W11206  14.289  31.916   1.752
46999W        W11207  26.554  42.870  10.146
47000W        W11208  18.099  25.047   1.251
47001W        W11209   3.347  37.996   4.276
47002W        W11210  40.891  43.858  13.438
47003W        W11211  23.113   5.844   5.775
47004W        W11212  38.347   9.227  14.468
47005W        W11213  18.293  23.637   3.215
47006W        W11214  41.042   5.890   0.257
47007W        W11215  18.211  43.799   1.434
47008W        W11216   5.270  23.130   1.447
47009W        W11217  19.713  30.414   3.148
47010W        W11218   6.866   7.912  13.347
47011W        W11219  40.933   9.648   1.379
47012W        W11220   1.834   4.909   3.311
47013W        W11221  18.767  24.509  14.425
47014W        W11222   6.343   7.686  13.366
47015W        W11223  32.908  32.502  10.511
47016W        W11224   8.253  41.328  12.377
47017W        W11225  23.153  13.119   3.794
47018W        W11226  33.495  13.661   3.220
47019W        W11227   0.399  30.060  14.510
47020W        W11228  44.498  11.715   0.813
47021W        W11229  30.071  13.273   5.220
47022W        W11230  33.541  35.511  14.972
47023W        W11231   8.221  43.514  13.441
47024W        W11232  42.798  34.978   1.844
47025W        W11233   6.352  23.540   1.370
47026W        W11234  19.181  29.647  14.018
47027W        W11235  20.217  29.939  10.536
47028W        W11236  14.249   0.929  11.479
47029W        W11237   2.867   8.897  12.005
47030W        W11238  42.946  10.206   4.273
47031W        W11239  18.646  32.989   1.243
47032W        W11240   9.229  10.143  11.532
47033W        W11241  12.617  43.442   3.336
47034W        W11242  17.281  20.247  12.530
47035W        W11243  44.820  42.850   3.253
47036W        W11244  12.728  10.876  13.329
47037W        W11245  10.776  30.445  13.544
47038W        W11246  36.871  12.839   3.831
47039W        W11247  14.596  36.476  12.565
47040W        W11248   1.949  17.658   3.697
47041W        W11249  40.417  35.391  10.425
47042W        W11250  23.618  19.548  12.460
47043W        W11251  20.539  16.578   1.927
47044W        W11252  38.043  31.899  12.912
47045W        W11253  34.110  13.211   1.727
47046W        W11254  35.881  26.533   4.607
47047W        W11255  36.463   5.419  14.767
47048W        W11256  18.590   3.219   1.754
47049W        W11257  44.847  10.272   3.345
47050W        W11258  32.579  42.321   2.298
47051W        W11259  10.739  12.276   2.817
47052W        W11260  35.573  22.573   2.866
47053W        W11261  27.579  29.004   4.687
47054W        W11262  44.376  33.117  11.607
47055W        W11263  20.537  35.399   3.703
47056W        W11264   2.787  29.562  13.945
47057W        W11265  35.532  40.916  10.418
47058W        W11266  30.422  29.638  12.364
47059W        W11267  31.132  29.562   4.336
47060W        W11268   0.458  11.718  12.982
47061W        W11269  36.092  25.215   3.274
47062W        W11270  16.624  39.839  12.010
47063W        W11271  44.807  32.078   1.233
47064W        W11272   8.727  23.127   3.338
47065W        W11273   5.276  40.481   4.787
47066W        W11274  17.573  34.388   1.266
47067W        W11275  15.164  13.283   4.729
47068W        W11276   1.381  10.680  14.374
47069W        W11277   0.282  11.345  10.512
47070W        W11278   4.223  21.583  13.041
47071W        W11279  43.766   4.889   0.899
47072W        W11280  44.954  27.591   5.722
47073W        W11281  12.226  33.467   1.834
47074W        W11282  41.915   5.849   1.737
47075W        W11283  24.627   8.843   2.355
47076W        W11284  24.141  32.602  10.924
47077W        W11285  16.646  33.556   2.895
47078W        W11286  38.363   5.887  14.834
47079W        W11287  19.541  39.006  13.482
47080W        W11288  38.894   4.789  14.352
47081W        W11289  41.815  24.995  13.397
47082W        W11290   8.727  29.459  12.448
47083W        W11291  19.177   7.189   1.786
47084W        W11292  20.584  29.465  11.978
47085W        W11293  40.417   4.306   3.192
47086W        W11294  30.061  30.099   0.727
47087W        W11295  35.069  23.170  13.879
47088W        W11296  29.527   4.434   3.361
47089W        W11297  39.864  20.589   0.447
47090W        W11298   6.392  17.742  10.985
47091W        W11299  20.558  13.708   0.290
47092W        W11300  32.082  31.636  10.530
47093W        W11301   4.778   8.303  13.046
47094W        W11302  34.422  20.559   3.343
47095W        W11303  37.388  12.136   1.923
47096W        W11304  23.205  32.099   1.418
47097W        W11305  23.240  11.274  14.958
47098W        W11306  17.072  25.659  10.121
47099W        W11307   6.259  38.545  10.638
47100W        W11308  42.284  19.206  11.522
47101W        W11309  18.121  40.329   2.324
47102W        W11310  33.596  27.975  13.980
47103W        W11311   2.278  41.847  12.960
47104W        W11312  22.629  35.862   3.387
47105W        W11313  36.451   5.830  14.387
47106W        W11314  35.953  30.613   0.952
47107W        W11315  26.068  18.085   1.913
47108W        W11316  40.940  44.976  11.566
47109W        W11317   3.251  14.658   0.351
47110W        W11318  10.742  10.803  13.974
47111W        W11319  38.423  29.554   1.245
47112W        W11320   3.399  26.172  12.430
47113W        W11321  34.102  24.992  14.814
47114W        W11322  22.180  17.692  10.522
47115W        W11323   4.853  20.702   1.448
47116W        W11324  28.554   5.338   2.664
47117W        W11325  30.067  17.247  13.341
47118W        W11326   2.849   7.857   0.789
47119W        W11327  19.174  42.350  13.836
47120W        W11328   6.713  20.272  14.496
47121W        W11329  28.998  10.264   4.138
47122W        W11330  35.082  25.000  11.588
47123W        W11331  20.140  14.739  12.994
47124W        W11332  38.364  11.134   4.352
47125W        W11333  38.884  38.498  14.888
47126W        W11334   4.784  39.012   0.736
47127W        W11335   6.387  34.393  12.027
47128W        W11336  19.220   8.321   2.789
47129W        W11337  12.351   2.267  12.410
47130W        W11338  11.225   5.800  11.398
47131W        W11339   0.894  37.879   0.251
47132W        W11340  20.607  23.080   4.326
47133W        W11341  31.514  22.042   3.232
47134W        W11342  41.993  31.138  14.472
47135W        W11343  44.829  24.679  11.986
47136W        W11344  29.027  18.164   3.790
47137W        W11345   1.447   2.352   3.243
47138W        W11346  44.485  12.251  13.496
47139W        W11347  17.791  26.640   2.215
47140W        W11348  30.574  31.430   4.767
47141W        W11349  39.408  14.221  12.084
47142W        W11350   3.867  11.198  11.122
47143W        W11351  31.561  21.146  12.978
47144W        W11352  39.522   3.747  14.468
47145W        W11353   0.404   8.341  13.844
47146W        W11354  10.278  24.041   4.329
47147W        W11355  41.459  20.555   4.665
47148W        W11356  21.627  24.060   2.825
47149W        W11357  28.492  38.929   3.703
47150W        W11358  33.041  16.208  12.427
47151W        W11359  37.070  16.120  13.464
47152W        W11360  41.333  22.075  14.031
47153W        W11361  17.102  23.153  13.970
47154W        W11362  42.426   1.913  13.804
47155W        W11363  21.134   7.907  14.399
47156W        W11364   0.986  42.448   1.914
47157W        W11365  20.208  12.277  14.445
47158W        W11366  22.201  33.384   2.356
47159W        W11367  36.580  43.928   1.785
47160W        W11368  22.507  19.071   2.886
47161W        W11369  41.299   7.736  12.086
47162W        W11370  30.457  24.703  13.404
47163W        W11371  19.221   1.425  11.404
47164W        W11372  40.810  17.587  10.905
47165W        W11373  35.936  37.347   2.215
47166W        W11374  12.345  39.498   2.836
47167W        W11375  22.624  15.267  10.971
47168W        W11376   8.318  28.183   1.379
47169W        W11377  37.069  10.794   3.196
47170W        W11378  23.707   2.924  14.357
47171W        W11379  40.907  14.602  14.777
47172W        W11380  16.663  15.274   2.253
47173W        W11381  23.547  28.083  11.479
47174W        W11382  14.259  30.060   1.290
47175W        W11383  31.433  20.612   2.316
47176W        W11384  10.230  11.338  13.011
47177W        W11385  12.768  15.611  13.907
47178W        W11386   3.738   5.890  11.396
47179W        W11387  44.494  28.045  12.915
47180W        W11388  37.843  32.935   0.726
47181W        W11389  21.244  21.084  12.339
47182W        W11390   4.419  30.651  10.896
47183W        W11391  23.087  14.809  10.418
47184W        W11392  37.553  15.626  10.134
47185W        W11393   6.852  19.154   0.934
47186W        W11394  21.059   4.869   2.903
47187W        W11395  30.456   1.315   3.722
47188W        W11396   6.800  11.825   3.182
47189W        W11397  38.436   1.808   3.809
47190W        W11398  39.888   5.901  14.286
47191W        W11399  25.639  26.133  13.008
47192W        W11400  13.785  20.236   1.864
47193W        W11401  26.997  13.820   4.246
47194W        W11402   1.874   0.419   4.165
47195W        W11403  29.575  29.989  12.837
47196W        W11404   2.412  14.306   9.975
47197W        W11405  14.702  21.091   0.867
47198W        W11406  14.281   5.744  10.408
47199W        W11407  27.056  26.667   2.776
47200W        W11408  31.021  29.981   0.434
47201W        W11409  29.080  25.039   0.274
47202W        W11410  35.521  22.170  10.505
47203W        W11411  21.660  29.975  13.535
47204W        W11412   0.841  42.476   0.787
47205W        W11413   9.849  15.809   4.808
47206W        W11414  41.342  19.677  12.447
47207W        W11415  29.117  10.732  11.107
47208W        W11416  15.115  35.907  10.464
47209W        W11417  40.437  13.602  10.944
47210W        W11418  34.918   4.299  13.446
47211W        W11419   8.183  44.847  14.883
47212W        W11420  33.588   9.668  14.824
47213W        W11421  21.736  37.523   4.145
47214W        W11422  43.369   4.229  14.848
47215W        W11423  44.295   2.736   0.308
47216W        W11424  32.892  30.155   1.872
47217W        W11425   1.937  12.754  11.465
47218W        W11426  27.060   8.294  12.372
47219W        W11427  34.584  11.318  11.083
47220W        W11428  11.690  20.554  11.413
47221W        W11429  14.651  44.989   2.713
47222W        W11430  27.132  43.295  10.578
47223W        W11431  37.357  43.941   3.362
47224W        W11432  26.113  31.534   1.791
47225W        W11433  41.912  28.138   2.340
47226W        W11434  44.997  28.517  11.018
47227W        W11435  39.027  32.986  10.562
47228W        W11436  31.087   4.927   0.281
47229W        W11437   3.876  10.839  14.847
47230W        W11438  22.732   6.697   4.688
47231W        W11439  17.598   1.833   0.481
47232W        W11440   1.845   9.350   4.201
47233W        W11441  18.606  19.064  14.784
47234W        W11442  42.825  29.546   2.302
47235W        W11443  13.672   0.882  12.557
47236W        W11444  17.562  11.865  10.947
47237W        W11445  26.579  12.182  10.896
47238W        W11446  40.036   7.685  11.903
47239W        W11447   1.797  12.621   0.902
47240W        W11448   6.866  43.273   4.156
47241W        W11449  16.717  34.416   4.816
47242W        W11450   0.399  41.433   4.208
47243W        W11451   7.877  40.051  11.063
47244W        W11452  14.651  25.712  13.420
47245W        W11453  27.994  33.574  10.909
47246W        W11454  36.563  42.963   0.331
47247W        W11455  27.688  14.600   2.859
47248W        W11456  13.191  29.478   0.779
47249W        W11457  32.912  34.892   2.247
47250W        W11458  27.650   5.284  14.385
47251W        W11459   9.815  16.281  14.944
47252W        W11460  25.490  22.582  12.401
47253W        W11461  36.419  38.366  12.828
47254W        W11462   1.359  19.260   4.666
47255W        W11463  41.523  17.692  11.883
47256W        W11464   6.256  12.740   0.443
47257W        W11465  35.938  11.722   0.849
47258W        W11466  20.106   2.796   3.369
47259W        W11467  44.938  15.796   1.845
47260W        W11468   7.817  23.678  13.541
47261W        W11469  28.996  15.090  13.535
47262W        W11470  29.589  16.092   1.380
47263W        W11471  43.854  32.526   2.841
47264W        W11472  19.717   8.212   1.826
47265W        W11473  25.984   9.881   1.415
47266W        W11474  44.846  44.775  11.040
47267W        W11475  41.900  34.600   2.776
47268W        W11476  32.626  34.947   2.277
47269W        W11477  13.267   1.447  11.457
47270W        W11478   8.250  19.750  13.494
47271W        W11479  10.756  32.455   1.715
47272W        W11480  24.170  30.568   3.166
47273W        W11481  37.077  37.576  12.911
47274W        W11482  38.349   3.854   4.180
47275W        W11483  15.214  44.432  14.997
47276W        W11484  42.442  32.988   2.362
47277W        W11485   6.281  36.073   4.354
47278W        W11486  11.649  40.465  14.783
47279W        W11487  18.182  35.961  10.036
47280W        W11488   3.930  16.194  11.474
47281W        W11489  35.583  18.294   0.783
47282W        W11490  33.063  34.971  10.557
47283W        W11491  24.012  25.099  12.033
47284W        W11492  25.687  10.645   4.799
47285W        W11493   8.743  18.560   4.261
47286W        W11494   2.808  33.986  11.572
47287W        W11495  27.577  34.103  12.029
47288W        W11496   9.206  23.122  12.471
47289W        W11497   7.764  36.929   3.705
47290W        W11498   0.951   3.797  13.417
47291W        W11499  36.937   6.313   3.190
47292W        W11500   9.755  33.112  14.366
47293W        W11501  33.460  31.954  12.925
47294W        W11502  12.667   3.739   3.741
47295W        W11503  17.642  31.447   2.186
47296W        W11504  32.133   8.826   2.688
47297W        W11505  34.908  13.725  11.611
47298W        W11506  16.146  41.370   2.268
47299W        W11507  27.574  42.343  10.518
47300W        W11508   4.283  28.660  12.906
47301W        W11509  12.134  20.177   3.289
47302W        W11510  13.604  26.115   4.787
47303W        W11511  10.863  28.931  14.470
47304W        W11512  21.208  19.733   2.263
47305W        W11513  27.164  15.133  13.972
47306W        W11514  16.613  19.244   2.409
47307W        W11515  12.197   8.782   1.837
47308W        W11516   9.661   8.306  10.466
47309W        W11517  28.442  40.431  14.891
47310W        W11518  18.743  36.857  11.526
47311W        W11519   2.900  26.665   2.251
47312W        W11520  27.691  12.739   1.253
47313W        W11521  18.610   2.721   4.333
47314W        W11522  34.875   6.898  13.027
47315W        W11523   2.906  16.738  11.580
47316W        W11524   4.908  12.719   3.638
47317W        W11525  19.745  40.971   4.798
47318W        W11526   8.347  18.090  12.980
47319W        W11527   9.291   7.881   2.250
47320W        W11528  23.023   5.832   4.157
47321W        W11529   9.367  16.249   4.253
47322W        W11530   7.851  36.846   4.714
47323W        W11531  10.295  21.662   3.370
47324W        W11532  19.276   0.893  13.026
47325W        W11533  27.579  39.333  13.346
47326W        W11534  12.848  39.482   3.253
47327W        W11535  27.156  37.471  14.765
47328W        W11536   2.887  17.582  12.062
47329W        W11537  21.020  15.312  14.963
47330W        W11538  13.254  13.341  10.967
47331W        W11539  18.240  12.780  13.864
47332W        W11540  17.268   7.271  12.901
47333W        W11541  18.729  13.323   1.795
47334W        W11542  28.542  36.845   1.353
47335W        W11543  43.418  29.474   3.774
47336W        W11544  17.790  13.774   4.240
47337W        W11545  15.705  29.032   1.849
47338W        W11546  22.225  26.988  10.959
47339W        W11547  26.136  18.631  12.043
47340W        W11548  34.951  37.366  13.037
47341W        W11549  37.470  35.873  10.468
47342W        W11550  21.262  39.946  11.070
47343W        W11551  30.555  27.987   4.305
47344W        W11552  12.731  41.379  11.488
47345W        W11553  25.966  38.884   4.282
47346W        W11554  26.460   8.200  14.346
47347W        W11555  44.456  18.613   2.293
47348W        W11556  32.002  15.125   2.355
47349W        W11557  24.214   8.831  10.436
47350W        W11558   7.402  18.763  12.907
47351W        W11559   2.843   8.358  10.453
47352W        W11560   6.292   2.755  14.963
47353W        W11561  33.083   6.769   3.689
47354W        W11562   8.219   2.951   2.730
47355W        W11563  24.077   4.258   1.315
47356W        W11564   3.420   5.396  13.432
47357W        W11565  19.240  20.619   1.326
47358W        W11566  25.217  27.528  14.902
47359W        W11567   4.314  25.560  11.977
47360W        W11568  14.204  35.371   1.319
47361W        W11569  12.832   3.854  12.501
47362W        W11570  16.640  33.529  14.008
47363W        W11571  22.020  26.145   3.364
47364W        W11572  40.346  41.306   4.184
47365W        W11573  35.463  14.314  12.082
47366W        W11574   6.832  13.732   3.675
47367W        W11575  23.141   6.428  10.954
47368W        W11576  30.430  30.948   1.846
47369W        W11577  11.710  15.694   5.084
47370W        W11578  27.524  22.727  11.540
47371W        W11579  23.620  32.555   0.905
47372W        W11580  25.511  19.563   5.244
47373W        W11581   1.399  39.958  11.882
47374W        W11582  18.261  42.009  12.869
47375W        W11583  31.900  36.393   3.147
47376W        W11584  22.631  20.627   2.864
47377W        W11585  30.635  42.525   0.767
47378W        W11586   1.305  20.700  10.489
47379W        W11587  10.258   9.196   1.753
47380W        W11588  14.718   5.247  12.848
47381W        W11589  21.573  41.442   4.129
47382W        W11590  42.981  16.747   0.337
47383W        W11591  37.832   0.980  12.003
47384W        W11592  30.608  19.556   3.335
47385W        W11593  18.763   5.216   3.369
47386W        W11594  23.596  22.136   4.259
47387W        W11595  34.494  30.994   2.862
47388W        W11596  36.546   4.828  12.847
47389W        W11597   2.742  25.581  12.991
47390W        W11598  36.909  41.976   2.805
47391W        W11599  15.162  31.000  11.064
47392W        W11600  24.089  14.148  12.004
47393W        W11601  31.604  19.044  12.057
47394W        W11602  10.210  16.312   2.368
47395W        W11603  31.012   8.711  11.106
47396W        W11604  34.050  20.640  13.911
47397W        W11605   0.788  20.260   0.911
47398W        W11606  27.468  33.956   0.399
47399W        W11607  13.751   8.331  14.940
47400W        W11608   0.898   6.908  14.823
47401W        W11609   6.676  34.920  11.026
47402W        W11610  11.261  37.400   1.844
47403W        W11611   7.902  36.379  10.459
47404W        W11612   0.455  43.792   1.854
47405W        W11613  27.972   8.269  14.958
47406W        W11614  42.029  13.156   3.735
47407W        W11615   4.331  33.400   2.863
47408W        W11616  15.814  44.280  14.311
47409W        W11617  29.545   1.886  12.928
47410W        W11618  35.927  27.470  14.446
47411W        W11619  39.546   3.457  12.855
47412W        W11620  29.094   5.850  14.478
47413W        W11621  34.507  33.056   3.376
47414W        W11622  18.111   8.730  10.451
47415W        W11623  17.138  16.600   1.364
47416W        W11624  29.148   6.370  11.568
47417W        W11625  41.356   3.795   0.945
47418W        W11626  23.723  25.080   0.411
47419W        W11627  26.611  19.760  14.779
47420W        W11628   7.333   8.400   4.150
47421W        W11629  18.281  39.887  12.871
47422W        W11630  15.802   5.908   1.331
47423W        W11631  32.483  22.537  14.978
47424W        W11632  35.443  31.077  11.918
47425W        W11633  39.942  32.904   3.767
47426W        W11634  39.862  15.266   1.793
47427W        W11635  19.255  40.953  12.427
47428W        W11636  40.810  29.165   3.323
47429W        W11637   4.368  37.897  14.341
47430W        W11638  30.090  23.225  12.047
47431W        W11639  43.352  43.879  13.507
47432W        W11640  38.408  11.252  13.425
47433W        W11641  40.536  37.873   0.359
47434W        W11642   3.817  35.857  13.972
47435W        W11643  32.940   7.805   0.326
47436W        W11644   7.899  11.808  12.935
47437W        W11645  21.668   1.240   0.837
47438W        W11646  40.520  36.362   4.823
47439W        W11647  14.229   5.798   4.826
47440W        W11648  32.990  33.110  11.929
47441W        W11649   3.383   3.244  10.049
47442W        W11650  33.461  23.137   3.349
47443W        W11651  10.686  18.073  14.983
47444W        W11652  32.120  11.339   4.638
47445W        W11653  22.581  39.847  10.037
47446W        W11654  43.017   7.765   1.300
47447W        W11655  29.481  17.094   0.407
47448W        W11656  44.327   8.206  12.429
47449W        W11657  37.024   6.759  11.018
47450W        W11658  39.817  10.181   3.765
47451W        W11659  19.242  26.158  14.849
47452W        W11660   7.727  26.623  12.460
47453W        W11661  16.740  42.383  12.409
47454W        W11662  40.507  42.005   2.674
47455W        W11663  25.596  29.500  10.974
47456W        W11664  27.450   4.341   0.372
47457W        W11665  24.009   8.212  13.480
47458W        W11666   0.406   6.770  10.898
47459W        W11667  38.017   4.231   4.667
47460W        W11668  19.688   4.744  14.432
47461W        W11669   9.661  22.209  12.025
47462W        W11670   2.939  44.374   4.217
47463W        W11671  28.961  44.279  11.038
47464W        W11672  30.641   1.820   0.370
47465W        W11673   9.858  13.244   2.735
47466W        W11674  44.898  37.512  12.992
47467W        W11675  43.781  23.075   1.344
47468W        W11676  21.691  11.862   3.812
47469W        W11677  13.766  37.453   2.260
47470W        W11678   3.274   7.767  11.088
47471W        W11679  24.713  20.653   2.851
47472W        W11680  14.606   1.832  12.511
47473W        W11681  17.165   2.886  12.396
47474W        W11682  10.258  22.689   4.355
47475W        W11683  29.938  35.598   0.447
47476W        W11684   4.396  22.044  13.509
47477W        W11685   9.835  14.776  14.430
47478W        W11686   6.358   7.684   1.852
47479W        W11687  38.873   1.791  13.050
47480W        W11688  44.265  25.206   3.282
47481W        W11689   5.289   6.735  10.513
47482W        W11690  24.490  18.687  10.444
47483W        W11691  16.796  10.659  11.427
47484W        W11692  34.574  27.569   3.375
47485W        W11693  43.916   4.236  10.487
47486W        W11694   7.208  19.128   3.711
47487W        W11695   2.338   8.798   1.909
47488W        W11696  39.537  30.604   2.242
47489W        W11697  26.680  38.465   3.382
47490W        W11698  44.311  16.801   3.666
47491W        W11699  23.561  44.502  12.026
47492W        W11700  20.763  13.159   1.833
47493W        W11701   2.790  12.713  11.447
47494W        W11702  17.131  15.661  14.410
47495W        W11703  39.828  14.235   0.277
47496W        W11704  40.038  31.564  11.046
47497W        W11705  12.660  35.047  13.458
47498W        W11706  17.593  43.999  11.591
47499W        W11707  20.599  40.898  11.534
47500W        W11708  40.052   3.901   3.802
47501W        W11709  30.560  31.607   2.798
47502W        W11710  24.575  32.136   0.340
47503W        W11711  43.899  43.875  10.940
47504W        W11712  33.559   6.208   1.768
47505W        W11713  44.266   3.739   1.373
47506W        W11714  38.861  29.638  14.907
47507W        W11715  13.128  31.481   0.317
47508W        W11716  44.501  41.979   1.711
47509W        W11717  17.210  33.393  14.459
47510W        W11718  33.607  28.446   1.259
47511W        W11719  20.736  12.239   0.776
47512W        W11720  34.973  20.705   3.692
47513W        W11721  43.452  34.369   3.731
47514W        W11722  34.919  15.614   0.749
47515W        W11723  39.482  29.050   1.411
47516W        W11724  36.434   6.779   3.347
47517W        W11725  34.518   0.372   4.327
47518W        W11726  26.630  32.920  11.567
47519W        W11727  42.310  17.659  14.759
47520W        W11728  19.070  27.131   2.889
47521W        W11729  14.765  19.754   1.749
47522W        W11730  36.452  24.724   2.873
47523W        W11731  35.399  21.143   0.397
47524W        W11732   8.389  19.097  12.072
47525W        W11733   9.756  14.175  14.782
47526W        W11734  44.288  34.951  12.862
47527W        W11735  19.539   2.362  11.610
47528W        W11736  25.149  12.188   2.767
47529W        W11737  10.156   6.735   1.762
47530W        W11738  10.143  31.591   3.723
47531W        W11739  40.909   2.930   1.931
47532W        W11740  38.004  40.402  12.520
47533W        W11741  16.598   6.791   0.350
47534W        W11742  20.573  16.747  14.949
47535W        W11743  10.238   9.752  10.424
47536W        W11744  40.457  33.530   4.188
47537W        W11745  41.834  44.906  12.928
47538W        W11746  12.192   8.682  14.414
47539W        W11747   2.357  34.096  13.841
47540W        W11748  16.592  35.919   2.670
47541W        W11749  25.511   2.778  12.941
47542W        W11750  44.957  41.366   5.190
47543W        W11751  43.444  30.520  11.938
47544W        W11752  10.767  16.738  10.416
47545W        W11753  28.185  38.551  13.486
47546W        W11754  17.576  20.621  11.926
47547W        W11755  23.522  27.651  11.079
47548W        W11756  20.140  42.825  12.905
47549W        W11757  44.343  33.481   3.751
47550W        W11758   3.351  43.424  13.334
47551W        W11759  14.762  21.555   0.795
47552W        W11760  36.535   0.305   3.629
47553W        W11761  11.659   8.671   0.898
47554W        W11762   3.224  19.095   3.781
47555W        W11763  40.001  11.850   1.235
47556W        W11764  11.208   8.208  14.456
47557W        W11765  35.049   9.150  10.406
47558W        W11766   1.845   6.774  13.794
47559W        W11767   4.861  29.149   2.290
47560W        W11768   0.262  34.595   4.239
47561W        W11769  42.468   2.332  11.547
47562W        W11770  12.635   6.785  11.868
47563W        W11771  31.467  42.445   2.743
47564W        W11772   4.397  13.322   0.818
47565W        W11773  33.400   6.393  11.987
47566W        W11774  25.590  35.060  13.455
47567W        W11775  12.314  13.123   0.828
47568W        W11776   0.435  36.438  11.098
47569W        W11777  12.213   0.248  14.283
47570W        W11778  29.470  13.806  10.408
47571W        W11779   6.707  36.853   3.832
47572W        W11780  43.284   6.234   1.446
47573W        W11781  41.418  37.022  12.440
47574W        W11782  19.642  24.104  11.595
47575W        W11783   8.896  18.549  13.866
47576W        W11784   3.289   3.793   4.783
47577W        W11785  14.256   4.810   4.636
47578W        W11786  16.078  16.164  14.312
47579W        W11787  19.709  44.455   0.438
47580W        W11788  40.847  27.666   2.893
47581W        W11789   7.350  24.114   2.850
47582W        W11790   7.377   0.941   3.183
47583W        W11791  42.422  36.029  10.889
47584W        W11792  15.291  29.602   2.843
47585W        W11793  28.639  23.175   2.863
47586W        W11794  16.082  29.962   4.254
47587W        W11795  10.374  38.457  13.930
47588W        W11796  27.965  20.747  12.828
47589W        W11797  42.421  30.540   0.740
47590W        W11798   9.258  40.854  13.529
47591W        W11799  44.781   0.314   2.269
47592W        W11800   2.822  30.155   3.785
47593W        W11801   5.369  12.268  12.402
47594W        W11802  39.422  26.106  13.503
47595W        W11803  15.136  17.303   2.253
47596W        W11804  11.203  43.857   1.805
47597W        W11805   7.714  27.664  10.539
47598W        W11806  12.724  21.114  10.496
47599W        W11807  34.904   6.745  13.326
47600W        W11808  31.634  37.969  11.598
47601W        W11809  29.958  16.231  14.279
47602W        W11810  19.080  37.882   1.284
47603W        W11811   2.863  35.505  14.361
47604W        W11812  14.294  28.948  14.364
47605W        W11813  27.099  39.417  11.856
47606W        W11814  33.405  37.025   2.321
47607W        W11815  20.178  12.355  12.575
47608W        W11816  18.213  13.795  13.473
47609W        W11817  19.201  13.286   2.786
47610W        W11818  13.275  31.917   2.376
47611W        W11819   7.789  17.301   5.172
47612W        W11820   6.837  23.148   2.875
47613W        W11821   7.666  42.942  14.990
47614W        W11822  30.067  43.514  14.504
47615W        W11823  42.001  42.926   0.758
47616W        W11824  15.661   7.834   2.221
47617W        W11825  13.718  11.834  10.467
47618W        W11826  21.686  20.120  11.033
47619W        W11827  16.181  10.684   4.166
47620W        W11828  12.691  44.457  12.934
47621W        W11829  33.496  39.868  11.386
47622W        W11830  11.254  11.721  11.516
47623W        W11831  36.523   3.279   5.125
47624W        W11832  13.318  36.032   2.817
47625W        W11833  26.472   8.693  13.900
47626W        W11834  22.177  19.147  10.602
47627W        W11835  25.094  18.111   1.875
47628W        W11836  19.179  25.072   2.191
47629W        W11837   8.378  25.487  12.428
47630W        W11838  33.573  42.884   4.140
47631W        W11839  12.672   6.731   3.742
47632W        W11840  34.002  40.522   2.827
47633W        W11841  33.068   8.783  12.467
47634W        W11842  40.965  32.062  10.919
47635W        W11843  30.617   2.351  10.959
47636W        W11844  19.544   0.264   1.855
47637W        W11845  30.601  16.651  11.405
47638W        W11846  23.144  28.954   0.346
47639W        W11847   1.401  32.972  12.869
47640W        W11848  43.843  15.595  14.502
47641W        W11849  30.071  24.005  11.398
47642W        W11850   2.831   5.707  13.486
47643W        W11851  43.396  34.991  13.843
47644W        W11852   0.295  30.505   3.220
47645W        W11853  19.165  15.698  13.540
47646W        W11854  42.420  34.006  11.093
47647W        W11855  43.781  14.813  14.305
47648W        W11856  10.360   4.824   2.850
47649W        W11857  31.121  43.804   1.227
47650W        W11858  33.533   5.339   4.814
47651W        W11859  35.075  33.082  14.343
47652W        W11860  11.344  27.544  10.889
47653W        W11861   9.735  26.124   3.822
47654W        W11862  29.919  40.952   0.296
47655W        W11863   3.866  26.176  10.965
47656W        W11864  19.269  16.165   2.243
47657W        W11865  11.644   2.268  12.572
47658W        W11866   0.473  38.517  11.051
47659W        W11867   4.404  42.404  12.377
47660W        W11868  19.648  28.976   3.236
47661W        W11869  22.579  42.922   4.674
47662W        W11870   5.895  22.580  12.941
47663W        W11871   9.653  31.119   2.798
47664W        W11872  12.248   8.212   1.930
47665W        W11873   4.272  42.446  10.906
47666W        W11874  28.108   6.236  13.039
47667W        W11875  43.959  32.051  14.490
47668W        W11876   5.398  41.451   2.800
47669W        W11877  44.865  20.068  14.370
47670W        W11878  13.623  44.333   3.666
47671W        W11879  13.616   8.175  13.805
47672W        W11880  39.314  15.296  11.567
47673W        W11881  11.791  15.817   4.251
47674W        W11882  24.719  24.979   4.236
47675W        W11883  28.568  31.592   1.336
47676W        W11884   6.358  31.951   5.297
47677W        W11885   2.728  41.523  12.079
47678W        W11886  41.907  16.647  12.044
47679W        W11887  36.909  37.490   3.157
47680W        W11888   6.357  13.232   3.754
47681W        W11889  36.429  18.552   1.774
47682W        W11890  19.145  14.176  10.449
47683W        W11891   7.189  41.998  14.814
47684W        W11892  22.517  10.314  14.909
47685W        W11893  24.994   0.298   3.367
47686W        W11894  34.890  25.006   1.350
47687W        W11895  17.560  33.608  13.024
47688W        W11896  25.017  42.876   5.087
47689W        W11897  26.533  23.065   4.698
47690W        W11898  17.162  39.898   4.638
47691W        W11899  41.915  27.139   0.935
47692W        W11900  32.585   5.395   3.629
47693W        W11901  44.917  15.242   2.876
47694W        W11902  39.974  22.140   4.132
47695W        W11903  34.419   2.789  10.576
47696W        W11904  24.656   9.744   4.734
47697W        W11905  35.580  19.173   0.449
47698W        W11906  12.297  35.522  13.046
47699W        W11907  24.028  19.182  12.068
47700W        W11908  13.599   7.838   2.809
47701W        W11909  26.501  44.942   0.900
47702W        W11910   8.375  35.943  13.974
47703W        W11911  16.671  26.640   2.718
47704W        W11912  30.500  28.084  14.445
47705W        W11913  25.134  25.637   2.220
47706W        W11914  27.074  35.962   3.212
47707W        W11915  37.085  38.958   0.832
47708W        W11916  39.823  32.431   0.893
47709W        W11917  10.794   5.316  14.389
47710W        W11918  27.186  15.243   3.281
47711W        W11919  21.615  14.763  14.937
47712W        W11920  31.108   9.695   2.263
47713W        W11921  17.556  17.176  10.108
47714W        W11922  19.774  35.565   4.201
47715W        W11923  31.506  36.435   3.689
47716W        W11924  20.157   9.353  12.406
47717W        W11925  11.746   0.756   4.759
47718W        W11926  17.637  18.158   4.231
47719W        W11927  25.101  12.777  14.962
47720W        W11928  35.920  12.331  13.799
47721W        W11929  22.161  30.616  11.002
47722W        W11930  17.174  38.028   2.887
47723W        W11931  24.028   4.418   3.730
47724W        W11932  40.306  32.132   0.881
47725W        W11933   2.892  11.151   3.161
47726W        W11934   4.302  39.932   0.392
47727W        W11935  15.266  33.619   1.935
47728W        W11936  36.962   7.379   1.249
47729W        W11937   5.777  38.524   4.268
47730W        W11938   5.807  28.588  13.333
47731W        W11939   1.884  42.979  11.603
47732W        W11940   4.717  12.159   4.756
47733W        W11941  18.677  32.967   1.827
47734W        W11942   4.365  22.060   4.815
47735W        W11943   5.787   5.767   1.309
47736W        W11944  16.212  13.280  14.297
47737W        W11945   8.659   8.395   4.193
47738W        W11946  41.384  15.129   4.675
47739W        W11947  41.794  34.614  11.441
47740W        W11948   3.881   0.819   0.480
47741W        W11949   4.238  27.514   3.145
47742W        W11950  37.475  18.188  10.949
47743W        W11951  17.083  25.497   3.224
47744W        W11952  11.823  30.085  11.989
47745W        W11953  30.589  14.286   4.324
47746W        W11954  14.316  39.544   2.704
47747W        W11955  33.978  41.380   2.706
47748W        W11956  18.741  24.137  14.342
47749W        W11957  26.580  10.696   4.327
47750W        W11958  26.145  29.429   2.811
47751W        W11959  17.721  43.931   1.871
47752W        W11960  34.973  19.216   1.279
47753W        W11961  43.374  43.388  12.859
47754W        W11962  42.804  18.205   2.762
47755W        W11963  12.192  12.677   0.942
47756W        W11964  31.073   5.226   0.353
47757W        W11965  22.174  44.491  13.919
47758W        W11966   1.876  23.623   2.779
47759W        W11967   9.784  34.876  14.028
47760W        W11968  26.182   6.391  12.497
47761W        W11969   8.200  15.182  10.085
47762W        W11970  26.628  29.439   3.689
47763W        W11971  35.438   6.810  10.969
47764W        W11972   7.352  29.145   3.347
47765W        W11973  14.781  24.605  12.407
47766W        W11974  34.962  10.735  11.962
47767W        W11975  33.949  18.610   3.862
47768W        W11976   3.845   6.290   1.824
47769W        W11977   2.960  36.953  14.507
47770W        W11978  24.041  44.488  11.520
47771W        W11979  10.870  22.179  13.026
47772W        W11980  23.097  12.776  13.490
47773W        W11981  36.554  15.759   0.466
47774W        W11982  43.005   6.859   1.726
47775W        W11983  27.645  41.409   1.242
47776W        W11984  22.048  18.162  14.935
47777W        W11985  38.363  25.637  11.558
47778W        W11986   2.815  30.523   4.652
47779W        W11987  35.578  37.570   0.942
47780W        W11988  43.350  18.612  10.072
47781W        W11989  26.645   7.794  10.982
47782W        W11990  12.128  31.621  13.841
47783W        W11991  18.756  38.342   2.887
47784W        W11992  20.207  13.777   4.654
47785W        W11993  23.239  22.036   4.752
47786W        W11994  20.153  16.083   5.271
47787W        W11995  21.649   3.258   2.875
47788W        W11996  24.646  18.294  13.430
47789W        W11997  20.066  18.214   3.281
47790W        W11998  38.433  17.648   2.678
47791W        W11999  11.778   3.252   3.266
47792W        W12000   3.930  12.838  14.877
47793W        W12001   1.890   8.347   1.702
47794W        W12002  25.689  35.370  12.415
47795W        W12003  10.760   7.394   0.403
47796W        W12004  36.932  29.668   2.835
47797W        W12005  13.644  18.142  13.874
47798W        W12006   2.927   8.784   4.234
47799W        W12007  27.454   6.364  14.333
47800W        W12008  38.030  10.378  10.946
47801W        W12009  36.855  35.413   2.682
47802W        W12010  13.145  21.024   2.330
47803W        W12011  11.299  25.634   4.678
47804W        W12012  37.413   2.830  14.011
47805W        W12013   7.847  44.328   1.729
47806W        W12014   6.361  30.017   3.188
47807W        W12015   5.804  26.581   4.616
47808W        W12016  16.671  16.158  10.584
47809W        W12017   9.166  41.870  11.570
47810W        W12018  15.704   6.850   0.433
47811W        W12019   8.174  19.660   0.963
47812W        W12020   3.836  16.724   1.798
47813W        W12021  11.184  40.466  11.591
47814W        W12022  30.937  41.833   2.275
47815W        W12023   2.329   2.226   3.659
47816W        W12024  36.450   8.684   1.339
47817W        W12025  20.095  21.582  10.636
47818W        W12026  37.977  43.482   3.262
47819W        W12027  30.470  17.226  14.829
47820W        W12028  15.299  38.459   3.329
47821W        W12029   3.742  43.273  13.817
47822W        W12030  43.386  11.780  14.022
47823W        W12031  30.437  12.621  10.106
47824W        W12032  26.007   5.370  10.564
47825W        W12033  21.191  30.451   1.864
47826W        W12034   0.405   2.437  14.018
47827W        W12035  11.254  17.571   3.364
47828W        W12036   9.770  28.675  10.983
47829W        W12037  14.216  31.515   4.252
47830W        W12038  38.996  30.544   1.802
47831W        W12039  39.058  23.043  13.355
47832W        W12040  34.877  31.030   0.424
47833W        W12041   0.751  42.799  14.276
47834W        W12042  22.090  28.146  11.019
47835W        W12043  28.113  11.235  12.939
47836W        W12044  17.070  36.411   4.310
47837W        W12045   9.298   4.940  12.071
47838W        W12046  36.063  26.606  14.514
47839W        W12047  22.197  33.462   0.861
47840W        W12048   9.742  30.656   1.756
47841W        W12049  33.928  32.068   4.629
47842W        W12050  31.576  44.828   4.709
47843W        W12051   8.758  43.782  10.594
47844W        W12052  32.427  11.349  13.345
47845W        W12053  11.214  10.355  10.607
47846W        W12054  40.936  25.997   1.230
47847W        W12055  17.300  13.797   3.668
47848W        W12056  23.668  30.016  12.540
47849W        W12057  37.034   6.391   2.790
47850W        W12058  14.102  10.270   4.639
47851W        W12059   6.371  30.440   4.148
47852W        W12060   1.321  19.607   3.149
47853W        W12061  23.676   1.470   4.786
47854W        W12062  37.354  19.710  13.022
47855W        W12063  31.563  22.642   3.351
47856W        W12064  36.938  33.946   0.784
47857W        W12065   9.362  31.984  10.113
47858W        W12066  21.237  21.118   5.272
47859W        W12067  12.313   0.809  12.051
47860W        W12068   3.404   1.376  13.345
47861W        W12069  13.738  10.849   3.166
47862W        W12070  31.014   4.922  14.516
47863W        W12071  25.065  21.081   2.414
47864W        W12072  19.104  16.246   2.765
47865W        W12073  44.771  12.712  10.907
47866W        W12074  26.528  27.689  14.841
47867W        W12075   0.761  37.848   9.973
47868W        W12076  25.002  27.661   1.223
47869W        W12077   5.200  30.922  12.898
47870W        W12078  44.349  44.365  12.844
47871W        W12079  23.658  43.470   1.214
47872W        W12080  34.474   0.337  12.504
47873W        W12081  42.385  42.304  10.449
47874W        W12082  38.337   7.908  12.062
47875W        W12083  25.014  11.238  13.062
47876W        W12084  32.955   6.308  12.830
47877W        W12085  25.624  13.846  11.014
47878W        W12086  39.054  39.991   0.274
47879W        W12087  31.542  34.079  13.957
47880W        W12088  38.961  22.700   1.871
47881W        W12089  25.149  20.608  11.949
47882W        W12090  32.408  43.769  12.405
47883W        W12091  32.478   9.237   4.761
47884W        W12092   9.227  18.167   3.842
47885W        W12093  16.702  41.875   3.713
47886W        W12094  31.452  12.714  10.600
47887W        W12095  40.465   2.799   0.885
47888W        W12096  19.674  42.308  11.979
47889W        W12097   8.332  26.132   0.950
47890W        W12098   0.799  33.010   4.145
47891W        W12099  12.257  33.077   0.259
47892W        W12100  40.433  20.029  13.449
47893W        W12101   5.871  42.895   3.229
47894W        W12102  20.612  23.690  14.914
47895W        W12103  36.038  24.680  12.066
47896W        W12104  14.625   4.834   4.679
47897W        W12105  24.099  11.805  13.791
47898W        W12106  23.013  33.088   1.919
47899W        W12107  12.763   0.394   3.774
47900W        W12108   2.350   6.410   2.865
47901W        W12109  42.804  43.278   5.195
47902W        W12110  26.187  39.034  11.901
47903W        W12111   2.774   1.961  14.854
47904W        W12112   0.851  22.725  12.556
47905W        W12113  40.461  31.570  10.907
47906W        W12114   5.373   9.810   1.261
47907W        W12115  14.158   8.893   1.419
47908W        W12116  21.073  40.867   1.332
47909W        W12117  31.050  21.194   2.835
47910W        W12118  29.053  10.724  12.071
47911W        W12119  16.225  29.063   0.326
47912W        W12120  16.222  27.547   0.929
47913W        W12121  28.559  16.309  14.761
47914W        W12122   6.833   5.373   4.235
47915W        W12123  22.630   1.339  13.375
47916W        W12124  35.895  11.733  12.508
47917W        W12125   4.438  44.951  12.521
47918W        W12126  29.992  22.080   3.770
47919W        W12127  33.525  26.030   2.352
47920W        W12128  11.669  38.959  10.918
47921W        W12129  10.281  12.219   0.953
47922W        W12130  24.605   8.295  11.064
47923W        W12131  14.331   2.395  14.411
47924W        W12132  13.723  42.354  12.457
47925W        W12133  30.628  38.424  14.029
47926W        W12134  31.959  39.902   2.711
47927W        W12135  20.087   0.468  12.538
47928W        W12136  37.486  43.314   1.266
47929W        W12137  39.886  33.980   0.858
47930W        W12138  10.266  37.432   3.858
47931W        W12139  33.941  38.970   4.602
47932W        W12140  19.547   7.816   4.742
47933W        W12141   0.749   9.739  11.509
47934W        W12142  44.475  11.756  14.022
47935W        W12143  35.957  41.481   1.220
47936W        W12144  12.666  28.637  12.375
47937W        W12145  33.078  14.113  10.578
47938W        W12146  28.129   7.352  13.366
47939W        W12147  14.635  36.843  13.909
47940W        W12148   4.759  16.683   4.235
47941W        W12149  40.335  11.701  12.862
47942W        W12150  23.499  26.524  13.970
47943W        W12151  20.568  25.067   0.420
47944W        W12152  40.036   3.283  14.509
47945W        W12153  25.007  34.482   0.406
47946W        W12154  36.472  36.091  10.411
47947W        W12155  44.760   4.831  12.551
47948W        W12156  18.128   5.200  10.424
47949W        W12157  23.990   2.825  14.407
47950W        W12158  24.009  26.005   0.850
47951W        W12159  28.492  28.077  10.600
47952W        W12160  21.628  12.135  12.940
47953W        W12161  21.663  27.463  14.895
47954W        W12162   7.328  42.930  12.861
47955W        W12163   0.357  15.798   4.209
47956W        W12164  33.917  27.131  12.999
47957W        W12165  18.229  30.494   1.904
47958W        W12166  29.091   3.426   3.672
47959W        W12167  23.497   3.335   0.463
47960W        W12168  43.464  26.059   3.829
47961W        W12169   3.885  31.593   4.155
47962W        W12170  42.881   3.445   2.676
47963W        W12171  35.925   6.236  11.504
47964W        W12172   5.816   5.200   2.731
47965W        W12173  21.141   3.727   4.630
47966W        W12174  30.939  30.457   5.200
47967W        W12175   3.353  18.657   4.169
47968W        W12176  16.242  22.247  10.938
47969W        W12177  16.679  37.538  12.046
47970W        W12178  15.703  39.831  10.907
47971W        W12179  21.078  38.522   2.889
47972W        W12180   4.842  44.781   0.733
47973W        W12181   4.311  10.217   1.317
47974W        W12182   0.876  26.642   3.313
47975W        W12183  37.522   4.385   5.237
47976W        W12184   0.278  12.659  11.878
47977W        W12185  21.619  36.526   4.702
47978W        W12186  12.258  18.560  11.013
47979W        W12187  21.595  22.722   2.205
47980W        W12188  27.658  13.193   4.205
47981W        W12189  26.965  38.972  14.893
47982W        W12190   9.193   9.798   4.818
47983W        W12191  37.365   7.395  11.983
47984W        W12192   9.332  41.369   0.314
47985W        W12193  41.407  23.602  12.051
47986W        W12194  34.997  16.164   4.177
47987W        W12195  31.126   8.787  12.917
47988W        W12196  29.547   3.788  11.860
47989W        W12197  28.607   4.279   0.417
47990W        W12198   0.788   7.694   4.292
47991W        W12199  33.383  30.566  13.880
47992W        W12200  10.167   0.938   1.815
47993W        W12201  14.815  19.717  13.939
47994W        W12202  30.989  32.591   1.769
47995W        W12203  34.575  24.605  13.406
47996W        W12204   7.773  39.003  12.034
47997W        W12205  39.522   8.724  14.337
47998W        W12206  38.346   9.753  13.950
47999W        W12207  21.023  38.036  11.487
48000W        W12208   7.714   0.263  14.798
48001W        W12209  15.246  32.524  12.078
48002W        W12210  26.473  38.484  10.416
48003W        W12211  35.405  27.551   3.793
48004W        W12212  21.748   8.320   3.694
48005W        W12213  23.706   3.803  11.529
48006W        W12214  21.588  38.465  12.959
48007W        W12215  28.579   9.341   1.745
48008W        W12216  25.988  30.132   2.712
48009W        W12217  33.093  44.826   1.349
48010W        W12218  17.280   3.838   3.841
48011W        W12219  27.106   0.778   9.928
48012W        W12220   6.385  10.723   2.662
48013W        W12221  27.643  35.060   3.336
48014W        W12222  15.110  31.983   2.756
48015W        W12223   2.385  31.443  14.022
48016W        W12224  36.987   8.185   4.723
48017W        W12225  40.012  14.142  14.907
48018W        W12226  39.851  20.151   1.888
48019W        W12227  40.994  38.537   3.183
48020W        W12228  17.629  36.432   2.344
48021W        W12229  24.668  12.253   3.639
48022W        W12230   4.404  41.395  12.913
48023W        W12231  15.775  14.250   3.721
48024W        W12232  18.234   3.863   3.826
48025W        W12233  29.051  32.467  14.377
48026W        W12234   4.795  31.447  14.888
48027W        W12235  35.081  28.671   2.243
48028W        W12236  19.584   4.924   0.461
48029W        W12237  29.654  22.022  13.040
48030W        W12238  37.407  39.483   4.828
48031W        W12239  25.108  33.548   2.672
48032W        W12240  19.585  20.212  13.064
48033W        W12241  41.983  30.639  10.091
48034W        W12242  27.976   8.311   3.748
48035W        W12243  31.900  33.075  12.046
48036W        W12244  41.994   5.370   0.869
48037W        W12245  31.421   5.237  11.036
48038W        W12246  25.096  44.290   1.815
48039W        W12247  20.738  44.781   3.752
48040W        W12248  16.189  44.882  12.850
48041W        W12249   2.804  22.595   3.172
48042W        W12250  34.082  33.119   0.804
48043W        W12251   0.303   1.420  14.494
48044W        W12252   5.256   8.291  13.010
48045W        W12253  39.388  11.621   0.729
48046W        W12254  19.085   9.683  12.562
48047W        W12255   6.756  37.945  14.832
48048W        W12256  20.558  10.332   0.419
48049W        W12257  21.025  32.052   1.876
48050W        W12258  44.289  42.878  13.371
48051W        W12259   2.890   3.816  11.596
48052W        W12260  44.420   2.258  13.863
48053W        W12261   5.841  28.519   3.251
48054W        W12262  27.151  12.644  13.528
48055W        W12263  32.597  16.809   1.313
48056W        W12264  17.628  13.774  12.081
48057W        W12265   4.778  41.453  12.512
48058W        W12266   5.767   8.346   4.266
48059W        W12267  24.154  20.226   3.221
48060W        W12268   8.298   9.653   4.618
48061W        W12269  12.221   9.301   4.719
48062W        W12270  30.940  32.984   4.232
48063W        W12271  17.771  41.516  12.454
48064W        W12272  13.669  11.709   1.866
48065W        W12273  23.592  11.694   1.444
48066W        W12274  23.168  39.521  13.376
48067W        W12275  25.104  17.091  12.515
48068W        W12276   5.372  39.482   1.795
48069W        W12277  32.546  18.246  10.432
48070W        W12278  15.602  29.470  11.882
48071W        W12279  26.470  44.808  14.497
48072W        W12280  20.523  10.261   5.181
48073W        W12281  24.051   5.860   0.963
48074W        W12282  11.785   3.821  12.837
48075W        W12283  20.659  39.446  11.550
48076W        W12284   8.282   8.315  14.870
48077W        W12285  20.758  32.008   0.261
48078W        W12286  37.021  42.341  11.393
48079W        W12287  41.870   7.800   0.274
48080W        W12288   2.797  20.049  10.513
48081W        W12289   5.361  25.511   1.897
48082W        W12290  33.954  13.315   3.813
48083W        W12291  34.505  22.224   3.364
48084W        W12292  38.379  10.877  14.357
48085W        W12293   8.836  14.134  13.345
48086W        W12294  21.667  19.225   3.852
48087W        W12295  27.615  18.238  11.887
48088W        W12296  27.196  29.123   2.667
48089W        W12297   1.347  33.889  10.418
48090W        W12298  10.240  20.253   1.261
48091W        W12299  12.357  12.795   1.347
48092W        W12300  25.711   1.775  14.298
48093W        W12301  25.536   6.276   1.422
48094W        W12302   0.780  21.202   2.806
48095W        W12303  25.572   5.406  11.098
48096W        W12304  12.116  38.526   3.859
48097W        W12305  29.056  21.536   3.634
48098W        W12306  44.010   1.933   3.827
48099W        W12307  10.666   7.737  11.536
48100W        W12308  29.510  43.972   4.742
48101W        W12309   0.450   3.953  11.523
48102W        W12310  40.506  21.155   2.680
48103W        W12311  34.964   4.796   2.216
48104W        W12312  20.125  41.952   1.320
48105W        W12313  27.984  41.391  12.514
48106W        W12314  30.614  14.165   4.689
48107W        W12315  31.442  34.009  14.479
48108W        W12316  21.124  23.503   0.823
48109W        W12317  27.507  43.969  14.826
48110W        W12318   6.275  24.218  10.542
48111W        W12319  23.693   6.277  14.763
48112W        W12320  22.047   8.769  11.916
48113W        W12321  43.797  20.131   3.306
48114W        W12322  16.136  33.611   3.307
48115W        W12323  16.196  33.475  14.776
48116W        W12324   5.733  12.149  12.088
48117W        W12325   1.949  14.147  14.942
48118W        W12326  20.224   9.727   4.804
48119W        W12327  16.772   2.358   0.758
48120W        W12328  31.085  41.013   0.399
48121W        W12329  26.676   6.206  12.980
48122W        W12330   1.840   6.868   0.422
48123W        W12331  44.988  41.492  10.442
48124W        W12332  40.326  30.451  13.489
48125W        W12333   1.253  32.981   4.214
48126W        W12334  13.803  21.047   4.636
48127W        W12335   8.250   5.349   3.257
48128W        W12336   8.714   0.880  12.537
48129W        W12337  10.195  23.649  14.313
48130W        W12338  35.928   9.395   2.670
48131W        W12339  12.346   4.345   3.296
48132W        W12340  32.532  18.708  12.881
48133W        W12341  40.959  11.694  10.404
48134W        W12342  12.776  20.680   2.392
48135W        W12343  29.135   0.304   4.756
48136W        W12344  23.529   7.381  13.523
48137W        W12345  36.508  22.581   0.831
48138W        W12346  24.987  29.608   2.223
48139W        W12347  18.684  32.493   3.346
48140W        W12348  32.406  24.221  14.341
48141W        W12349  18.187  24.211  14.368
48142W        W12350  28.447  17.112  13.817
48143W        W12351  25.666  38.380  12.033
48144W        W12352  25.498   2.951  14.026
48145W        W12353  15.161   6.423   1.424
48146W        W12354  13.181  31.471   4.273
48147W        W12355  31.640   3.810   0.806
48148W        W12356  35.029  18.253  11.061
48149W        W12357  44.916  38.992   3.805
48150W        W12358  11.713   7.289   3.788
48151W        W12359  27.594  28.559  14.009
48152W        W12360  36.954  41.005  10.590
48153W        W12361  44.958  30.986  12.838
48154W        W12362  34.442  39.847   2.893
48155W        W12363  19.204  30.047   2.389
48156W        W12364  36.035  31.927  10.438
48157W        W12365   9.818   3.935  12.347
48158W        W12366  42.402  15.764   1.759
48159W        W12367  36.029  24.542  14.967
48160W        W12368  21.608  13.263  11.068
48161W        W12369   8.707  11.352   1.310
48162W        W12370  22.576  26.457   2.821
48163W        W12371  18.653  13.190  13.974
48164W        W12372  28.632  32.567  12.987
48165W        W12373  32.108  20.147  11.523
48166W        W12374   9.806  32.102   2.286
48167W        W12375  34.067  29.636   4.816
48168W        W12376  32.399  42.776   3.273
48169W        W12377  36.990  12.360  14.398
48170W        W12378  27.628  41.511   3.270
48171W        W12379  23.630   8.373  13.548
48172W        W12380   7.713  24.624   3.819
48173W        W12381  43.441   3.243   3.782
48174W        W12382  39.372  17.086   9.529
48175W        W12383  39.993  16.745   5.580
48176W        W12384  10.731  16.187   2.350
48177W        W12385   2.380   8.824   5.188
48178W        W12386  14.136  18.731   2.797
48179W        W12387  23.707  37.456  11.994
48180W        W12388  17.788  37.972   2.399
48181W        W12389  15.104  19.568  11.026
48182W        W12390  35.092  20.068  11.457
48183W        W12391  30.139  11.743  14.461
48184W        W12392   2.297   2.886   3.835
48185W        W12393  35.442   4.884  14.504
48186W        W12394  39.333  21.200  11.509
48187W        W12395   1.754   3.786  11.593
48188W        W12396  27.961   7.192  14.979
48189W        W12397  33.486  17.286   3.288
48190W        W12398  22.642  15.103   4.600
48191W        W12399  28.618  23.081  14.341
48192W        W12400  27.054  26.570   4.649
48193W        W12401  16.757   3.455   3.758
48194W        W12402  18.263  16.280  10.072
48195W        W12403   8.654  37.918   2.321
48196W        W12404  34.958  26.680  10.158
48197W        W12405  34.424  23.159  12.976
48198W        W12406  27.521  44.886  14.877
48199W        W12407  13.210  10.356  14.390
48200W        W12408  13.784  17.609  11.123
48201W        W12409  44.963  37.890  13.875
48202W        W12410  17.685   3.800  11.396
48203W        W12411  22.577   8.693   2.262
48204W        W12412  39.509  12.663   3.352
48205W        W12413  16.116  31.512  10.485
48206W        W12414  23.031  41.384  12.451
48207W        W12415  43.387  21.538   0.294
48208W        W12416  25.481  37.968  14.342
48209W        W12417  24.632  11.273  14.001
48210W        W12418  24.600  12.819   3.171
48211W        W12419   1.877  26.701   0.949
48212W        W12420  20.655   4.793  14.974
48213W        W12421  25.620   6.214   1.904
48214W        W12422  27.516  33.566   4.236
48215W        W12423   6.892  10.357   0.311
48216W        W12424  34.092  39.891  11.581
48217W        W12425  11.134  15.688  10.591
48218W        W12426   0.426  14.233   1.229
48219W        W12427  38.045   5.214  14.286
48220W        W12428  44.389  25.529   2.262
48221W        W12429  11.191  17.261   0.295
48222W        W12430  18.213  10.228   2.798
48223W        W12431   5.917  15.630   2.757
48224W        W12432  27.111  30.567   1.926
48225W        W12433  34.531  38.017  13.064
48226W        W12434  28.569  19.619  12.443
48227W        W12435  35.590  36.054   3.707
48228W        W12436  43.832  20.173  10.527
48229W        W12437  23.497   6.428   2.301
48230W        W12438  26.525  42.311   2.287
48231W        W12439   5.716   3.362  11.932
48232W        W12440  10.710  15.728  10.475
48233W        W12441   6.716   0.375  13.535
48234W        W12442   6.841  33.972   3.688
48235W        W12443   8.286  30.483  12.472
48236W        W12444   3.304  15.096  12.355
48237W        W12445  16.250   4.715  12.093
48238W        W12446  10.193   7.909  12.865
48239W        W12447  10.139  13.143   0.340
48240W        W12448  40.417  43.973  14.335
48241W        W12449  12.756  30.027   0.397
48242W        W12450  30.973   8.279   2.331
48243W        W12451  18.052  11.852   4.649
48244W        W12452  24.108  43.776  13.863
48245W        W12453  43.789  35.600   0.313
48246W        W12454  25.993  14.778   3.160
48247W        W12455  37.029  19.547  13.946
48248W        W12456   1.436  37.486   1.898
48249W        W12457   0.849  24.162  10.531
48250W        W12458  12.668   2.919  12.093
48251W        W12459  26.468   2.837   4.756
48252W        W12460  35.370  22.643   4.723
48253W        W12461  41.954  13.253  12.415
48254W        W12462   8.268   5.911  14.291
48255W        W12463  14.335  38.916   3.303
48256W        W12464  15.676   9.166  12.454
48257W        W12465  10.302  32.617  14.456
48258W        W12466  37.943   7.809  13.377
48259W        W12467  27.062  18.674  12.079
48260W        W12468   0.358  29.092   0.793
48261W        W12469  40.313   4.750  13.432
48262W        W12470  16.705   6.765   3.363
48263W        W12471  35.993  20.737   0.449
48264W        W12472  10.771  21.049  12.026
48265W        W12473   5.732  24.649   4.644
48266W        W12474  20.036  30.604   5.089
48267W        W12475  11.706  18.257   2.419
48268W        W12476   2.366  40.027  11.042
48269W        W12477  13.811   9.349  14.469
48270W        W12478  16.773  24.524   4.324
48271W        W12479  44.353  20.174   2.224
48272W        W12480   0.417   1.284  14.868
48273W        W12481  39.024  41.978   0.781
48274W        W12482  38.041  10.369   0.356
48275W        W12483  17.105  40.861   4.837
48276W        W12484  30.141  25.201  12.522
48277W        W12485  25.558  16.598   2.316
48278W        W12486  42.825  43.841   2.181
48279W        W12487  37.576   3.413   4.196
48280W        W12488   1.822  14.128   2.840
48281W        W12489  35.400  34.382  11.907
48282W        W12490  23.018  44.790   0.868
48283W        W12491   5.748  39.893  10.426
48284W        W12492  14.647  40.043  12.857
48285W        W12493  35.403  25.682   2.782
48286W        W12494   4.903  31.087   1.809
48287W        W12495  35.581   0.445  13.387
48288W        W12496  31.974  17.231  11.075
48289W        W12497  14.122  18.714   4.130
48290W        W12498   3.839  21.202  11.019
48291W        W12499  43.514   0.939   2.410
48292W        W12500   7.308  39.997   3.205
48293W        W12501   6.360   6.197   5.138
48294W        W12502   7.226  25.664  13.483
48295W        W12503  42.416  12.676   1.877
48296W        W12504  42.362  26.679  14.007
48297W        W12505  22.666  44.808   1.256
48298W        W12506   1.331  15.651   1.372
48299W        W12507  24.567  16.303  14.846
48300W        W12508  18.257  31.402   0.895
48301W        W12509  20.548  36.891  14.335
48302W        W12510  17.167   8.179  13.904
48303W        W12511  35.492  30.989   2.207
48304W        W12512  31.581  32.078   1.319
48305W        W12513  16.301  37.040  12.022
48306W        W12514  15.681  44.880  10.410
48307W        W12515   7.814   7.827  12.420
48308W        W12516   7.343  19.081  14.412
48309W        W12517  44.314  44.473   1.211
48310W        W12518  28.990   1.749   3.348
48311W        W12519  20.167  29.039  13.484
48312W        W12520  28.126  16.633  10.916
48313W        W12521  17.296  34.453  10.494
48314W        W12522  39.005  42.915   2.797
48315W        W12523  33.460  16.146  11.086
48316W        W12524  40.021   0.392  12.447
48317W        W12525  30.144  36.577   1.791
48318W        W12526   7.858  20.726   0.297
48319W        W12527   3.810  36.548  14.420
48320W        W12528   0.349  35.982   0.385
48321W        W12529   9.387   7.803   4.159
48322W        W12530  40.533   1.749   5.180
48323W        W12531  41.846  40.916  12.032
48324W        W12532   6.205  28.010   2.698
48325W        W12533   7.375  24.505   3.772
48326W        W12534   5.836  14.127  12.923
48327W        W12535  39.962   6.327   1.434
48328W        W12536   8.885  38.838  13.414
48329W        W12537   2.823  16.665   4.636
48330W        W12538  30.015   1.369   4.207
48331W        W12539  11.273  41.351  11.384
48332W        W12540  32.096  29.561   5.151
48333W        W12541  31.983  40.340   3.253
48334W        W12542  38.406   8.180   4.720
48335W        W12543  13.622  35.041   1.310
48336W        W12544   5.699  15.112  13.008
48337W        W12545  28.647   9.329  11.411
48338W        W12546  18.676  41.335   2.729
48339W        W12547  16.750  24.195   3.281
48340W        W12548  44.815   6.385   2.740
48341W        W12549  12.676  36.583   0.385
48342W        W12550  12.288  16.686  12.492
48343W        W12551  15.313  16.804  10.627
48344W        W12552  10.147  32.894   3.691
48345W        W12553  17.722  23.492  14.810
48346W        W12554  29.928  42.900  11.388
48347W        W12555  32.905   2.884  12.952
48348W        W12556  14.100   4.768   2.854
48349W        W12557   1.947   5.917   3.850
48350W        W12558  33.596  26.202  14.867
48351W        W12559  41.021  26.145  14.419
48352W        W12560   9.862  20.162  12.483
48353W        W12561  25.501  12.821   1.839
48354W        W12562  16.602  26.959   2.673
48355W        W12563  34.913  25.663  11.420
48356W        W12564  18.755  17.660  11.467
48357W        W12565  30.036  43.002  13.976
48358W        W12566  40.839  44.817   1.917
48359W        W12567  38.995  18.158  13.432
48360W        W12568  16.784  35.880  10.465
48361W        W12569  37.876  33.981  13.839
48362W        W12570  35.974  33.502   2.721
48363W        W12571  29.144  11.265  13.955
48364W        W12572  32.955  22.016   1.245
48365W        W12573  23.225  42.434   1.382
48366W        W12574  33.028  21.675  13.940
48367W        W12575  16.077  21.716   2.254
48368W        W12576  29.959  38.564  12.544
48369W        W12577  14.721  30.632  10.540
48370W        W12578  12.121  33.908   2.191
48371W        W12579  38.470   8.853  12.838
48372W        W12580  41.348  38.471   3.313
48373W        W12581   8.334   2.401   4.623
48374W        W12582   7.224  16.622   0.785
48375W        W12583   9.336  25.665  14.901
48376W        W12584  32.085  26.458  13.342
48377W        W12585  29.155  10.843   4.656
48378W        W12586  43.442  35.958  12.828
48379W        W12587  38.970  28.977  10.585
48380W        W12588  19.102  39.810   2.762
48381W        W12589  11.346  12.752   2.353
48382W        W12590  27.985   4.416   4.256
48383W        W12591  34.437  18.180   4.180
48384W        W12592  17.784  13.276  11.605
48385W        W12593  26.974  34.885  13.348
48386W        W12594  22.040  40.458   3.328
48387W        W12595  11.183  31.630   1.801
48388W        W12596   0.909  29.538   5.174
48389W        W12597  33.981  22.653   1.739
48390W        W12598  11.795  30.032   0.382
48391W        W12599   1.800  39.319  12.358
48392W        W12600  25.472  27.528  10.911
48393W        W12601  37.393  14.300  10.128
48394W        W12602  39.021  32.004  13.864
48395W        W12603  17.276   2.855  11.399
48396W        W12604  33.594  16.099  14.402
48397W        W12605  42.340  12.677   4.236
48398W        W12606   8.802  25.659   0.800
48399W        W12607   9.364  10.244  14.367
48400W        W12608  31.575  25.642   1.723
48401W        W12609  43.473  40.479  12.062
48402W        W12610  25.175  19.232  14.886
48403W        W12611  21.639   9.863  12.363
48404W        W12612  38.918  38.899  10.923
48405W        W12613  15.776  29.648   2.701
48406W        W12614  26.009   4.886   4.151
48407W        W12615  38.883  29.452  10.138
48408W        W12616   7.879  28.175   1.327
48409W        W12617  31.405  12.346  10.941
48410W        W12618  31.556  41.415  11.938
48411W        W12619   4.926  29.081   0.425
48412W        W12620  12.614  33.986  12.070
48413W        W12621   5.838  11.165   3.655
48414W        W12622   3.769  10.218   9.960
48415W        W12623  19.212  23.681   4.807
48416W        W12624  12.256  31.505   2.866
48417W        W12625  31.110  26.164   4.284
48418W        W12626  11.207  26.527   9.966
48419W        W12627  35.972  23.583  11.564
48420W        W12628  21.550  35.861   2.337
48421W        W12629   9.312  23.671   2.392
48422W        W12630  36.940  15.785  11.995
48423W        W12631   4.705  10.841   2.192
48424W        W12632  13.808   4.793   0.400
48425W        W12633  26.161   7.859  13.467
48426W        W12634  22.197  41.309  12.993
48427W        W12635  13.120  13.190  14.816
48428W        W12636  24.566  20.736  14.509
48429W        W12637  42.004  36.582  11.396
48430W        W12638   4.217  33.508   1.868
48431W        W12639  36.418   4.401   0.786
48432W        W12640  11.320   7.743  11.462
48433W        W12641  35.572  28.578   0.409
48434W        W12642  38.006  40.828  10.628
48435W        W12643   7.831  44.332  13.349
48436W        W12644  25.155  12.634   1.447
48437W        W12645  21.186  43.312   3.735
48438W        W12646  14.631  31.913   4.685
48439W        W12647   3.223   5.378   3.632
48440W        W12648  39.486  29.079   1.764
48441W        W12649  37.505  20.715   0.445
48442W        W12650  36.010   8.783  11.521
48443W        W12651  27.589  28.523  10.425
48444W        W12652  40.043   3.917   0.473
48445W        W12653   4.925  16.101   3.692
48446W        W12654  21.687   0.346  13.954
48447W        W12655  30.910  15.761  10.409
48448W        W12656  28.463   5.748  11.531
48449W        W12657  42.988   4.895  10.900
48450W        W12658   9.785  34.015  10.949
48451W        W12659   6.190  17.793   0.784
48452W        W12660  32.013   4.350   1.287
48453W        W12661  13.799  42.918   2.806
48454W        W12662  39.356  16.116   3.814
48455W        W12663  41.826  16.165  14.346
48456W        W12664   9.836   0.468   3.860
48457W        W12665  21.190   7.878  11.597
48458W        W12666  39.993  10.817   2.191
48459W        W12667  30.097  13.741  12.490
48460W        W12668  44.354  20.750   2.776
48461W        W12669  10.272  22.231   1.356
48462W        W12670  30.099  39.525   0.343
48463W        W12671   3.413  39.809  13.920
48464W        W12672  41.370   9.838   3.151
48465W        W12673  15.777  17.649  11.907
48466W        W12674  44.832  44.893   1.824
48467W        W12675  19.619   1.361  14.295
48468W        W12676  11.205  26.155  11.868
48469W        W12677  15.216  18.723  12.513
48470W        W12678  20.668  40.012   1.305
48471W        W12679  13.774  23.192   4.624
48472W        W12680  13.259  22.527  12.945
48473W        W12681   8.178  44.438  12.906
48474W        W12682  23.518  24.113  14.868
48475W        W12683  18.285  17.137  12.035
48476W        W12684   0.443  38.026  10.061
48477W        W12685  42.970   7.825   2.297
48478W        W12686  11.658  44.414   1.234
48479W        W12687  38.428  20.043  13.526
48480W        W12688  27.141  34.916   4.712
48481W        W12689  34.591  43.489  12.063
48482W        W12690  34.509   1.463   4.304
48483W        W12691  39.034  34.988   4.190
48484W        W12692  20.670  17.272  11.117
48485W        W12693   0.952  41.425  10.134
48486W        W12694  29.536   5.202  13.425
48487W        W12695   1.359  28.038  11.546
48488W        W12696  38.899  24.679   2.289
48489W        W12697  21.217  38.422   1.367
48490W        W12698  39.510  17.152  14.986
48491W        W12699   4.736   5.915   3.382
48492W        W12700   9.214  26.022  10.434
48493W        W12701  12.123  22.623   0.751
48494W        W12702  20.615  20.563   1.364
48495W        W12703  31.983  24.703   3.252
48496W        W12704   3.943   1.389  11.610
48497W        W12705  25.623  41.953   0.779
48498W        W12706  37.965  34.608   4.257
48499W        W12707  18.639   2.746  13.435
48500W        W12708   1.367  42.348  13.502
48501W        W12709   5.381  38.839   2.273
48502W        W12710  24.548  13.167   4.328
48503W        W12711   2.249   8.383   4.743
48504W        W12712  41.931  20.035   2.216
48505W        W12713  32.072  34.070   3.854
48506W        W12714  27.477  28.623   3.354
48507W        W12715   9.809  21.639  12.410
48508W        W12716   1.422  17.251   4.715
48509W        W12717  29.617   1.383   1.712
48510W        W12718   7.772  10.738  12.975
48511W        W12719  42.802  44.885  12.571
48512W        W12720  35.550  30.650   1.375
48513W        W12721  18.688  19.155   0.381
48514W        W12722  29.142  16.170   4.800
48515W        W12723  20.087  24.525  14.373
48516W        W12724  11.638  20.211  11.941
48517W        W12725  42.881   0.759   2.268
48518W        W12726  16.725  29.453   4.670
48519W        W12727   7.363   1.444  14.294
48520W        W12728  15.697  13.819   0.434
48521W        W12729  42.514   3.308   3.311
48522W        W12730  25.006  35.595  13.452
48523W        W12731   3.331   4.226  13.030
48524W        W12732  13.615  21.729  12.356
48525W        W12733   8.750   5.817   3.380
48526W        W12734  36.504  13.681  12.575
48527W        W12735   6.278  43.785   3.631
48528W        W12736  19.597  22.066  13.834
48529W        W12737   2.443  29.493  14.016
48530W        W12738  18.730  34.432  10.616
48531W        W12739  23.706  41.417  14.872
48532W        W12740   7.331  44.313   3.674
48533W        W12741  35.046   3.433   3.383
48534W        W12742   4.293  29.114  14.883
48535W        W12743  44.981   5.226  10.499
48536W        W12744  15.757  22.210   4.189
48537W        W12745  19.592  19.615   1.350
48538W        W12746  39.908  22.144   0.253
48539W        W12747   1.263  17.642   0.417
48540W        W12748  41.935  33.441   2.803
48541W        W12749  30.154  13.158  12.836
48542W        W12750   7.776   5.407  14.336
48543W        W12751   1.397  39.351  12.071
48544W        W12752  10.247  43.856   2.732
48545W        W12753  35.005  24.659  12.059
48546W        W12754  43.468  42.956  10.645
48547W        W12755   8.770  34.416   3.301
48548W        W12756  24.517  27.183   4.821
48549W        W12757   6.743   7.399   0.400
48550W        W12758  11.770   2.939  13.450
48551W        W12759   9.261  34.088  14.322
48552W        W12760   3.349  40.384  14.023
48553W        W12761  42.783  20.146   0.752
48554W        W12762  17.750  11.198  11.375
48555W        W12763  37.989  40.008  12.987
48556W        W12764  42.917  41.885   4.711
48557W        W12765   2.305  38.863  14.377
48558W        W12766  40.813  34.488  13.989
48559W        W12767   5.701  33.050  14.804
48560W        W12768   8.809   0.759   4.707
48561W        W12769  33.062  23.568   2.266
48562W        W12770  22.083   5.291  14.765
48563W        W12771  38.047  27.542  13.047
48564W        W12772  38.521   5.822   0.771
48565W        W12773  11.787  37.984  12.835
48566W        W12774   4.845  15.304  14.367
48567W        W12775   0.385  23.555   4.170
48568W        W12776  26.644  30.094  13.895
48569W        W12777  29.472  19.254   4.301
48570W        W12778  20.605  39.488  14.992
48571W        W12779  40.913  20.085   3.166
48572W        W12780  15.591  33.975   2.249
48573W        W12781  19.188  36.851   4.245
48574W        W12782   0.975   9.877  13.541
48575W        W12783  24.563  12.835  14.982
48576W        W12784  34.868  40.410  12.915
48577W        W12785   8.703  13.837   3.763
48578W        W12786   3.924  14.216  14.287
48579W        W12787  43.002  44.870   2.244
48580W        W12788  17.102  35.390  13.910
48581W        W12789  36.055  44.854   0.309
48582W        W12790  44.286  44.976  14.820
48583W        W12791  41.961  44.896   4.731
48584W        W12792  41.040  38.896   1.726
48585W        W12793   2.733   0.282   0.817
48586W        W12794  27.456  16.154   4.776
48587W        W12795  20.057  22.591  13.323
48588W        W12796  17.177  19.135  10.404
48589W        W12797  11.662  25.975  13.829
48590W        W12798  13.219  41.475   3.708
48591W        W12799  22.217  27.082   4.142
48592W        W12800   8.833   9.860  11.997
48593W        W12801   1.830  25.160   2.887
48594W        W12802   0.434   6.809  13.891
48595W        W12803  34.990  44.430  12.944
48596W        W12804  30.642  32.008   4.122
48597W        W12805  14.810  17.170   2.197
48598W        W12806  17.759  22.619  14.463
48599W        W12807  22.725  37.474  12.062
48600W        W12808   2.387  15.636  11.999
48601W        W12809  43.014  13.642  13.440
48602W        W12810  27.034  15.781   0.356
48603W        W12811  11.317  16.595   1.348
48604W        W12812  16.261  26.134  12.018
48605W        W12813   1.814  11.628   2.239
48606W        W12814  36.038  19.159   1.370
48607W        W12815  13.245  30.045  13.002
48608W        W12816   7.388   2.365  12.879
48609W        W12817  16.158  40.864   1.766
48610W        W12818   4.911   3.710   0.404
48611W        W12819  33.509   0.451   2.772
48612W        W12820  29.453   4.304   2.830
48613W        W12821   3.266   8.847  14.513
48614W        W12822  25.152  37.010  12.943
48615W        W12823  15.711  15.580   3.166
48616W        W12824  20.196  23.036  14.305
48617W        W12825  23.635  33.399   4.327
48618W        W12826  14.788  23.051   0.839
48619W        W12827   2.429  44.356  11.881
48620W        W12828  32.933  42.812  10.532
48621W        W12829  12.283  28.132  10.960
48622W        W12830  23.148   6.704  12.427
48623W        W12831  35.498  15.664   1.302
48624W        W12832  27.674  10.717  11.429
48625W        W12833  37.406  25.583  13.432
48626W        W12834  10.350  28.161   4.637
48627W        W12835  42.502  37.338  10.984
48628W        W12836  10.338   8.349  10.998
48629W        W12837  16.734   3.338  12.094
48630W        W12838  27.144   9.289   1.742
48631W        W12839  12.136   4.925  11.902
48632W        W12840  44.852  16.289  11.979
48633W        W12841  32.918   7.670   0.752
48634W        W12842  33.538   0.761  12.048
48635W        W12843   4.752  33.580   5.186
48636W        W12844  13.271  12.857   5.258
48637W        W12845  27.955  11.635   0.428
48638W        W12846  36.475  25.680  12.084
48639W        W12847  30.451  26.658  13.403
48640W        W12848  38.564  39.009   0.264
48641W        W12849  28.469   1.959  14.342
48642W        W12850  40.013  21.161   2.212
48643W        W12851  24.638  19.626   1.405
48644W        W12852  27.020  24.008  14.464
48645W        W12853  40.937  10.642   4.330
48646W        W12854   6.363  43.369   0.446
48647W        W12855   5.298   3.445  14.853
48648W        W12856   2.952  16.720   1.780
48649W        W12857   6.881   3.719   4.705
48650W        W12858  25.619  25.655  10.565
48651W        W12859  42.975  33.070  11.459
48652W        W12860   1.373  43.866  14.018
48653W        W12861  22.667  28.527   2.792
48654W        W12862  10.365  30.110   2.718
48655W        W12863  39.559  34.912  12.437
48656W        W12864  32.552  22.123  12.082
48657W        W12865  24.027  28.459   2.251
48658W        W12866  39.038   9.270  10.597
48659W        W12867  38.931  36.488  10.533
48660W        W12868  38.066  41.856  11.518
48661W        W12869   2.420  37.337  12.574
48662W        W12870   8.364  38.560  13.520
48663W        W12871  31.058  29.563   0.962
48664W        W12872  11.820  33.052   4.753
48665W        W12873  16.787  22.007  13.052
48666W        W12874  41.861  10.684   1.433
48667W        W12875  16.786  39.966  10.428
48668W        W12876  37.367  13.258  12.377
48669W        W12877   8.361   0.870  14.870
48670W        W12878  25.087   0.333  11.583
48671W        W12879  38.018  29.123  11.390
48672W        W12880   6.202  13.124  10.906
48673W        W12881  44.410  39.440   2.365
48674W        W12882   2.867   5.224  14.967
48675W        W12883  15.220  35.396   4.159
48676W        W12884  44.417  17.068  14.802
48677W        W12885  37.360  21.088  12.034
48678W        W12886  11.241  22.215   1.347
48679W        W12887  41.003  21.664   3.293
48680W        W12888  12.754   8.290   0.738
48681W        W12889   6.899  38.914  11.492
48682W        W12890   6.714  39.827  13.962
48683W        W12891   1.793  15.763   2.677
48684W        W12892  22.052   2.920  14.319
48685W        W12893  27.691  25.566   4.708
48686W        W12894  10.776   5.432   3.153
48687W        W12895  42.524  26.200  13.496
48688W        W12896  37.831  10.319   3.828
48689W        W12897  18.197  10.731   3.740
48690W        W12898  16.194  28.500   3.839
48691W        W12899  36.977  17.631  14.391
48692W        W12900  19.084   1.944  12.472
48693W        W12901  30.529  17.244   4.767
48694W        W12902  37.552   1.735   3.840
48695W        W12903  33.115  18.223   1.723
48696W        W12904  32.552   3.817  11.017
48697W        W12905  27.000  27.595   0.843
48698W        W12906  25.652  19.616  14.882
48699W        W12907  41.988  36.012   2.267
48700W        W12908  17.233   2.276   3.318
48701W        W12909  40.470  13.739   2.301
48702W        W12910  20.175  40.969   0.273
48703W        W12911  23.553  11.270   4.651
48704W        W12912  28.600  10.799  13.512
48705W        W12913   4.812  11.368  12.962
48706W        W12914  37.478  31.142  12.886
48707W        W12915  39.838   2.760  12.378
48708W        W12916  12.214  14.681  10.948
48709W        W12917  30.034  22.012   4.140
48710W        W12918  35.912  44.472  12.878
48711W        W12919  40.861  32.058   2.372
48712W        W12920  17.796   4.382  12.361
48713W        W12921  10.326   3.807   3.297
48714W        W12922   8.738   9.840  11.418
48715W        W12923  39.506  12.668  14.428
48716W        W12924  20.182  41.953   3.793
48717W        W12925  34.479  25.106   4.819
48718W        W12926   2.358  43.380   2.755
48719W        W12927  17.564  15.106   1.698
48720W        W12928   2.314   4.806   3.366
48721W        W12929  13.277  24.197  11.588
48722W        W12930  25.581  31.559   2.818
48723W        W12931  17.618  28.944  12.533
48724W        W12932  10.753  33.976  12.519
48725W        W12933   4.830  19.110   0.387
48726W        W12934  35.371  39.558  11.418
48727W        W12935   9.753  10.774  11.123
48728W        W12936  12.698  20.109  10.987
48729W        W12937  19.769  44.978   2.666
48730W        W12938  27.516  26.643   0.847
48731W        W12939  15.759  15.670  14.872
48732W        W12940  14.256  12.810   2.197
48733W        W12941  25.534  10.359   1.899
48734W        W12942  44.413  36.456  13.431
48735W        W12943  39.397  31.568   1.282
48736W        W12944   6.261  21.253  14.332
48737W        W12945   2.402   9.667   0.814
48738W        W12946  41.361  17.710   1.830
48739W        W12947  38.461  39.905   4.654
48740W        W12948   0.259  14.161   0.392
48741W        W12949   9.879  35.862   1.911
48742W        W12950   6.839   4.939   1.302
48743W        W12951  43.975  34.992   5.787
48744W        W12952  12.737  35.517  10.527
48745W        W12953  34.399  11.853  11.914
48746W        W12954  28.136  43.348  13.874
48747W        W12955   6.770   6.193  12.097
48748W        W12956  43.465  27.509   4.204
48749W        W12957   2.461  25.964   1.249
48750W        W12958  40.349  18.069   2.785
48751W        W12959   9.813  42.915  14.782
48752W        W12960  18.242  26.066  13.953
48753W        W12961  10.170  36.872   0.423
48754W        W12962  30.482   4.372   4.761
48755W        W12963  30.928  32.411  10.540
48756W        W12964  29.532  16.747  12.975
48757W        W12965  22.232   4.316  10.425
48758W        W12966   9.244   4.234   4.138
48759W        W12967   7.788  30.978  14.970
48760W        W12968   4.781  38.950   1.701
48761W        W12969  11.251  13.111  13.808
48762W        W12970  36.430  26.524  14.448
48763W        W12971  35.020  27.974  14.382
48764W        W12972   3.404  42.775  10.921
48765W        W12973  27.994  26.197  10.475
48766W        W12974  16.663  30.156  14.832
48767W        W12975   4.707  30.140   0.312
48768W        W12976  35.073  11.839  14.294
48769W        W12977  35.040  27.028   3.316
48770W        W12978   7.309  13.176   0.433
48771W        W12979  24.217  31.149  13.846
48772W        W12980  13.727  10.865  12.562
48773W        W12981  33.599   0.425  12.044
48774W        W12982   3.832  35.007  11.537
48775W        W12983  30.555  11.173   4.828
48776W        W12984  13.708  25.019   0.827
48777W        W12985   1.283  19.183   2.866
48778W        W12986   5.438  10.746   1.243
48779W        W12987  42.009   5.422   0.393
48780W        W12988  38.887  26.004  11.051
48781W        W12989  34.000  10.344  13.976
48782W        W12990   2.760  13.838  12.005
48783W        W12991  16.180  42.023   0.925
48784W        W12992  37.037  34.549   3.695
48785W        W12993  37.434  43.011   3.368
48786W        W12994  22.628  36.985  14.422
48787W        W12995  33.925  35.978   3.227
48788W        W12996  26.035  12.798   1.414
48789W        W12997   6.876   1.969   1.439
48790W        W12998  15.596  24.527   3.815
48791W        W12999  21.639  26.190   1.826
48792W        W13000  41.909  28.681  14.843
48793W        W13001  16.776  34.074   2.746
48794W        W13002  41.932  40.489   0.734
48795W        W13003  10.677  40.853   3.713
48796W        W13004   6.818  36.467  12.379
48797W        W13005  11.224  40.543  10.900
48798W        W13006  16.181  12.124   2.682
48799W        W13007  17.695  10.748   0.845
48800W        W13008  22.611  28.608  12.546
48801W        W13009   5.758  11.341  14.773
48802W        W13010  26.174  17.667   0.430
48803W        W13011  24.162  10.162  10.145
48804W        W13012  43.476  33.875   3.653
48805W        W13013  40.356   5.886   1.332
48806W        W13014  43.397  12.122  14.274
48807W        W13015  37.502  40.968  13.424
48808W        W13016   8.813  28.676  11.878
48809W        W13017   1.915   8.668  12.451
48810W        W13018  13.760  23.066   2.387
48811W        W13019  21.075  18.556  10.463
48812W        W13020   4.227  15.132   2.242
48813W        W13021   7.900   9.374   0.346
48814W        W13022   1.390  33.558  10.411
48815W        W13023  38.828  12.700  10.567
48816W        W13024   9.703  28.075   3.795
48817W        W13025   7.667   2.953  12.393
48818W        W13026  17.685  20.547  13.405
48819W        W13027  10.165  21.669  12.923
48820W        W13028   9.662  37.870  14.439
48821W        W13029  25.571  15.168   1.322
48822W        W13030  26.601  36.366   0.826
48823W        W13031  36.972  14.198  14.840
48824W        W13032  37.960  34.456   2.252
48825W        W13033  17.105  25.699   4.736
48826W        W13034  42.938  10.766   0.871
48827W        W13035  39.987  18.598   0.450
48828W        W13036  25.036  14.332  11.093
48829W        W13037  31.028  25.548   1.383
48830W        W13038  29.506  27.045   2.690
48831W        W13039  24.101   8.259  14.882
48832W        W13040  20.070  26.506  13.849
48833W        W13041   3.735  35.367   1.413
48834W        W13042   5.715  34.500  10.515
48835W        W13043  11.227  16.770  11.876
48836W        W13044  15.819  21.732   5.168
48837W        W13045  11.278  30.571   4.166
48838W        W13046  35.875  44.858  14.891
48839W        W13047  21.604   9.177  12.417
48840W        W13048  29.494   8.690  13.461
48841W        W13049   4.421   7.890   0.446
48842W        W13050  43.351  44.773  12.554
48843W        W13051  35.389  44.468   1.789
48844W        W13052  41.811   3.865  14.965
48845W        W13053   0.916  25.149   0.297
48846W        W13054   9.375  15.625   2.878
48847W        W13055  32.497  43.329   2.269
48848W        W13056   7.765  24.031   5.212
48849W        W13057  22.514   9.752   2.313
48850W        W13058   4.770  36.449  11.902
48851W        W13059  30.568  37.920  11.545
48852W        W13060   1.455   8.233   3.764
48853W        W13061  31.104  17.777   4.276
48854W        W13062   2.234  20.086   4.343
48855W        W13063  22.184   9.866  12.515
48856W        W13064  36.462  32.047   1.813
48857W        W13065  23.660   0.471  12.935
48858W        W13066   8.851   5.277  11.106
48859W        W13067  41.964  11.140  13.388
48860W        W13068  23.071  12.685   0.935
48861W        W13069   8.201  31.152  12.888
48862W        W13070   3.758  43.945   0.904
48863W        W13071  26.617  42.791   1.729
48864W        W13072  36.505   6.684  11.481
48865W        W13073  43.423  21.245  14.000
48866W        W13074  23.014  21.675  14.441
48867W        W13075  44.915  25.197  10.603
48868W        W13076  28.598  23.621  13.063
48869W        W13077  26.208   0.405   4.166
48870W        W13078   9.301  19.129   4.704
48871W        W13079  33.961  12.850  14.927
48872W        W13080  34.889   4.897   1.354
48873W        W13081  16.086   6.707  10.434
48874W        W13082  18.741  26.531   1.295
48875W        W13083  39.872  28.061   2.805
48876W        W13084   7.223   9.254  13.887
48877W        W13085  27.461  13.319  13.055
48878W        W13086   6.733  19.064   1.698
48879W        W13087  42.917  21.115   2.395
48880W        W13088  19.774  35.891   4.641
48881W        W13089  43.907  37.455   5.648
48882W        W13090  44.931  11.839  12.517
48883W        W13091  22.131  36.587   1.302
48884W        W13092  27.514   5.813   1.735
48885W        W13093  19.131  29.169   1.282
48886W        W13094  40.927  42.292  10.481
48887W        W13095  11.846  42.891   1.826
48888W        W13096   2.335  23.581  14.798
48889W        W13097  17.124  13.233   2.884
48890W        W13098  23.209  43.271   1.769
48891W        W13099  33.513  41.494   2.328
48892W        W13100   5.831  42.492   1.770
48893W        W13101  23.664  41.374  14.351
48894W        W13102  20.546   5.402  12.013
48895W        W13103  31.050  29.435   0.330
48896W        W13104  36.079  40.858   1.335
48897W        W13105  36.914  32.973   1.926
48898W        W13106  15.237  43.851   2.662
48899W        W13107  39.333  24.659  14.870
48900W        W13108  10.768   4.918   4.158
48901W        W13109  40.364   1.440  13.822
48902W        W13110  24.029  33.038  13.849
48903W        W13111  22.689  13.615   0.828
48904W        W13112  20.720  28.957  13.989
48905W        W13113  22.659  30.631   0.793
48906W        W13114  11.690  10.649  12.340
48907W        W13115  41.389  20.610  14.887
48908W        W13116  41.300  16.656   4.255
48909W        W13117   3.791  39.898   4.664
48910W        W13118  33.069  15.647  12.850
48911W        W13119  37.943   2.469  11.018
48912W        W13120  12.210  29.961   1.802
48913W        W13121  32.602  24.703  10.508
48914W        W13122  14.227  41.978   1.236
48915W        W13123   5.292  21.090   0.840
48916W        W13124   2.448   1.307   3.765
48917W        W13125  37.926   7.864   1.835
48918W        W13126   5.860  22.677  14.513
48919W        W13127   3.393  43.011  11.463
48920W        W13128  26.057  19.075   1.813
48921W        W13129   2.375  10.208  11.970
48922W        W13130  14.197   4.700   4.194
48923W        W13131  27.024  30.571   2.378
48924W        W13132  41.941  31.562   3.715
48925W        W13133  28.580  30.023  13.946
48926W        W13134  24.193  18.286  10.410
48927W        W13135  21.176   7.741  12.348
48928W        W13136   8.704  41.292  12.055
48929W        W13137  11.359  38.466   2.863
48930W        W13138  18.580   1.782   1.257
48931W        W13139  39.952  28.089  14.499
48932W        W13140  16.309   5.711   1.837
48933W        W13141  27.175  44.984  11.574
48934W        W13142  32.625  23.690  10.453
48935W        W13143  36.072  32.528  13.478
48936W        W13144  31.552  20.255  13.346
48937W        W13145  11.272  10.356   1.443
48938W        W13146  30.991  25.695  14.927
48939W        W13147   8.235   0.408   2.757
48940W        W13148  17.227   7.893  14.864
48941W        W13149  29.450  26.105  12.883
48942W        W13150   5.413  29.504  11.891
48943W        W13151  38.430  40.524  10.620
48944W        W13152  38.427  38.985   0.824
48945W        W13153  21.690  21.151   2.814
48946W        W13154  32.571  32.495  10.909
48947W        W13155  34.556   5.302  11.385
48948W        W13156  37.579   7.810   1.917
48949W        W13157  19.777  36.004  14.291
48950W        W13158  35.370  36.992   3.736
48951W        W13159  17.627  18.276  13.528
48952W        W13160  25.216   8.335  10.891
48953W        W13161  10.696   1.356   4.714
48954W        W13162  12.740  43.378  11.590
48955W        W13163  25.629  25.974   3.225
48956W        W13164  28.108  27.612  11.397
48957W        W13165  15.673  41.829   4.140
48958W        W13166  33.448  21.072   4.249
48959W        W13167  34.432  43.319  14.472
48960W        W13168  22.087  26.194   1.782
48961W        W13169   2.258   5.845  12.346
48962W        W13170  44.994  38.504  13.062
48963W        W13171  29.084  27.960   4.322
48964W        W13172  41.967  12.147   1.802
48965W        W13173  39.024  14.807   2.684
48966W        W13174   8.822  12.668  14.507
48967W        W13175  44.302  28.948  13.338
48968W        W13176  44.920  31.518  14.027
48969W        W13177  35.533   4.903   3.637
48970W        W13178   0.970  17.696   3.372
48971W        W13179  34.013  14.771   0.343
48972W        W13180   6.903   5.690  10.631
48973W        W13181   7.282   8.740   0.469
48974W        W13182  11.623   2.286   0.841
48975W        W13183  43.767  16.072  12.898
48976W        W13184  30.644   3.817  10.909
48977W        W13185  35.421  24.672   3.273
48978W        W13186  12.795  44.360  10.931
48979W        W13187  44.785  20.094  12.867
48980W        W13188  20.212  36.094  14.321
48981W        W13189  38.907   9.257  11.470
48982W        W13190   6.923   6.231  14.401
48983W        W13191  43.938  20.062   4.258
48984W        W13192  23.172   8.253  11.546
48985W        W13193  29.067  16.593  12.873
48986W        W13194  16.632  34.054  13.515
48987W        W13195  19.147  15.769   3.788
48988W        W13196   7.256  20.265  12.387
48989W        W13197  26.138  13.261   0.902
48990W        W13198  15.157  38.342   3.727
48991W        W13199  10.240  22.033  11.922
48992W        W13200  23.001  30.594   2.763
48993W        W13201  27.008  43.328  11.393
48994W        W13202   7.761  14.289  14.856
48995W        W13203  33.507   6.766   0.261
48996W        W13204  18.726  36.359   0.483
48997W        W13205  41.372   0.984  13.357
48998W        W13206   9.883  21.647   0.328
48999W        W13207  35.996  43.842   4.236
49000W        W13208  38.906   7.196   3.260
49001W        W13209  20.667   1.340  13.333
49002W        W13210   5.374  33.539  12.964
49003W        W13211  12.286  33.533  12.976
49004W        W13212   5.305  20.086   4.737
49005W        W13213  37.442  17.222  14.851
49006W        W13214  34.392  26.117   3.186
49007W        W13215  36.967   6.734   0.937
49008W        W13216  30.450  28.592  13.493
49009W        W13217   2.739  39.333  10.490
49010W        W13218  32.946  39.904   1.446
49011W        W13219   9.740   1.885  12.938
49012W        W13220  21.229  32.970  14.852
49013W        W13221  11.661  33.114   3.311
49014W        W13222  40.885  39.037  13.351
49015W        W13223   4.374  22.603  14.004
49016W        W13224  20.741   4.398   2.740
49017W        W13225  25.684  37.393  14.362
49018W        W13226  15.244  37.383   1.214
49019W        W13227  22.732  34.613   1.845
49020W        W13228  19.760  23.130   1.251
49021W        W13229  25.645  23.040  13.891
49022W        W13230  42.410  26.472   2.305
49023W        W13231  26.104  19.674   0.873
49024W        W13232  39.994  24.566   4.349
49025W        W13233  18.227  25.645  11.063
49026W        W13234  27.491  40.348  11.979
49027W        W13235  13.753  36.907   1.869
49028W        W13236   1.850  14.167   3.265
49029W        W13237  35.855  29.545   1.415
49030W        W13238  25.549  10.213   0.311
49031W        W13239  34.469   6.403   3.303
49032W        W13240  18.178  31.136  12.039
49033W        W13241  37.068  31.980   0.823
49034W        W13242  27.486  28.573  13.440
49035W        W13243   3.758  13.300   4.208
49036W        W13244  38.496  26.021  14.003
49037W        W13245   4.431  14.643   0.886
49038W        W13246   0.400   8.336   3.310
49039W        W13247  19.039  33.039   0.306
49040W        W13248   6.901  28.950  13.853
49041W        W13249   8.219  28.443  14.435
49042W        W13250  27.021  27.451   3.800
49043W        W13251  20.694   4.885  12.034
49044W        W13252  23.044   9.330   4.620
49045W        W13253  15.168   7.242   1.784
49046W        W13254   5.794   2.273  14.880
49047W        W13255  34.986  11.334  10.494
49048W        W13256  42.472  41.032   4.241
49049W        W13257  39.362  36.027  11.964
49050W        W13258  20.233  10.217   4.607
49051W        W13259   3.288  32.981   1.895
49052W        W13260  23.624  35.981   0.261
49053W        W13261  16.670  26.693  12.564
49054W        W13262  34.992  20.204  14.825
49055W        W13263  16.099  19.705  10.501
49056W        W13264  33.891  22.160  11.010
49057W        W13265  16.290  40.318  11.463
49058W        W13266   2.294  20.157   3.751
49059W        W13267  37.351  20.168   4.298
49060W        W13268  15.644  18.741   0.833
49061W        W13269  37.074  43.995  12.856
49062W        W13270  39.850  12.313   0.751
49063W        W13271   6.257  39.444   4.258
49064W        W13272   0.436  43.933   4.693
49065W        W13273  37.533  25.968  14.323
49066W        W13274  25.112  36.538  13.998
49067W        W13275   0.878   2.297   4.122
49068W        W13276  13.603  31.964   3.777
49069W        W13277  34.384  24.635   0.964
49070W        W13278   5.845   6.740  13.439
49071W        W13279  20.708  38.366  13.831
49072W        W13280  37.486  24.702   3.650
49073W        W13281  13.105  30.513   0.252
49074W        W13282  26.984  42.405  10.473
49075W        W13283   8.678  24.552  14.949
49076W        W13284  28.138  35.962   0.792
49077W        W13285  13.636  42.356   0.896
49078W        W13286  33.128  37.365  13.988
49079W        W13287  18.569   8.245   1.369
49080W        W13288  30.987  42.433   2.404
49081W        W13289   8.710  24.066   5.260
49082W        W13290  34.410  34.937  11.006
49083W        W13291  18.062  42.386  12.846
49084W        W13292  27.089  27.496   1.223
49085W        W13293  24.974  39.006   3.319
49086W        W13294  13.804  29.138   4.275
49087W        W13295  25.978  16.656   0.838
49088W        W13296  24.614   2.244  10.990
49089W        W13297  18.672  28.955  10.439
49090W        W13298  28.667  37.522  12.345
49091W        W13299  26.148   5.216  11.947
49092W        W13300  21.042  37.913  11.922
49093W        W13301  13.339  28.541  12.943
49094W        W13302   7.882  24.045  13.952
49095W        W13303  36.451   0.860   1.377
49096W        W13304  38.563  37.057   3.276
49097W        W13305  23.174  31.116  12.977
49098W        W13306   6.283  44.274  14.927
49099W        W13307   5.374  23.006  12.910
49100W        W13308  12.190  37.556   3.717
49101W        W13309  18.208  29.569   0.264
49102W        W13310   1.904   9.210  10.506
49103W        W13311  34.584   4.338  13.464
49104W        W13312  35.363   4.326   1.407
49105W        W13313  42.886  17.743  12.835
49106W        W13314  22.731  26.161  13.893
49107W        W13315  43.859   2.466   0.753
49108W        W13316  24.482  27.100  13.861
49109W        W13317  14.110  21.618  13.882
49110W        W13318  32.551   2.753   1.779
49111W        W13319  30.416  33.089  14.314
49112W        W13320  33.506  39.475   4.287
49113W        W13321   9.715  31.927  12.892
49114W        W13322  22.047  21.671  11.599
49115W        W13323  40.515  43.936   4.202
49116W        W13324  23.025  35.943   2.227
49117W        W13325  20.622  22.236  13.340
49118W        W13326   4.902   8.258   4.693
49119W        W13327  11.324  20.153  11.375
49120W        W13328  24.106  44.409  12.913
49121W        W13329   8.828  39.466  12.448
49122W        W13330  10.865  19.071   3.269
49123W        W13331  25.672   5.807  12.985
49124W        W13332   3.324  11.690   0.922
49125W        W13333  26.694   5.422  11.523
49126W        W13334  11.767  31.924  13.823
49127W        W13335  11.249  11.733   0.325
49128W        W13336  37.016   2.953   5.587
49129W        W13337  44.958   9.224   3.305
49130W        W13338  40.946  15.678   0.805
49131W        W13339  31.033  14.611   4.299
49132W        W13340  43.882  37.465  13.037
49133W        W13341   4.769  32.434  10.628
49134W        W13342   3.741  13.715   4.786
49135W        W13343  24.551  13.629   4.155
49136W        W13344  36.970  25.551   1.249
49137W        W13345  21.721  32.096   1.727
49138W        W13346  21.246  24.552   3.805
49139W        W13347  33.591  30.524   3.649
49140W        W13348  19.633  33.539  11.962
49141W        W13349   2.805   1.909  12.847
49142W        W13350  24.488  30.980  10.545
49143W        W13351  22.708  41.863   1.237
49144W        W13352  38.964  26.564   4.814
49145W        W13353  29.613   7.319   0.255
49146W        W13354   0.752  15.689   4.705
49147W        W13355  42.026  16.316  13.861
49148W        W13356  38.529  35.944   0.389
49149W        W13357  42.028  16.251  13.472
49150W        W13358  20.047  35.585   2.744
49151W        W13359  40.013  39.023  14.277
49152W        W13360  13.326  28.002   4.345
49153W        W13361  42.497  15.236   3.306
49154W        W13362  29.588  27.462   4.239
49155W        W13363  11.279   1.966   1.885
49156W        W13364  26.037  23.491  14.819
49157W        W13365   0.348  34.548   0.385
49158W        W13366   4.835  33.597  11.547
49159W        W13367  33.489   8.291   3.276
49160W        W13368  16.073  17.639  12.468
49161W        W13369  29.995  13.228  11.522
49162W        W13370  10.736  43.997  13.945
49163W        W13371  36.425  30.637   1.276
49164W        W13372   6.273  33.416   0.376
49165W        W13373  14.241   8.323   2.835
49166W        W13374  24.175  27.627  10.447
49167W        W13375  18.697  10.749   3.353
49168W        W13376  30.623  36.961   2.756
49169W        W13377  43.844   1.809   9.502
49170W        W13378  22.139  27.000  12.000
49171W        W13379  35.965   7.289  11.883
49172W        W13380  32.523  12.134   0.327
49173W        W13381   1.406  15.797  11.439
49174W        W13382  20.137   7.754  10.018
49175W        W13383  10.787   2.843  11.935
49176W        W13384  33.936  35.035   3.838
49177W        W13385   0.856  37.550  10.417
49178W        W13386  44.847  24.594   2.757
49179W        W13387  37.487  32.975  12.887
49180W        W13388   3.238   1.803   0.938
49181W        W13389   6.709  35.856   0.384
49182W        W13390  16.166  39.872  14.431
49183W        W13391  40.462  32.927  12.896
49184W        W13392  42.416  28.446  11.126
49185W        W13393  38.404   5.265  12.413
49186W        W13394  19.729   3.757   1.212
49187W        W13395  18.239   1.466   4.823
49188W        W13396  19.093  15.599   1.404
49189W        W13397  41.040  38.998  11.389
49190W        W13398  10.776  26.558   4.347
49191W        W13399  24.166   9.175  14.892
49192W        W13400  17.612  35.449   5.290
49193W        W13401  32.979  40.022   4.128
49194W        W13402  39.982  11.255   3.304
49195W        W13403  37.924   9.196  14.928
49196W        W13404  15.822   7.803  14.290
49197W        W13405  33.118  11.839  13.354
49198W        W13406   9.384  23.636  13.503
49199W        W13407  16.118  12.243  14.946
49200W        W13408  21.632  34.920   4.151
49201W        W13409  18.146  14.266   1.846
49202W        W13410  39.811  34.002   3.363
49203W        W13411  33.973  44.862  11.902
49204W        W13412  10.193  35.463  12.493
49205W        W13413   9.267  19.187   1.289
49206W        W13414  13.133  30.447   3.369
49207W        W13415   2.798  42.923   2.380
49208W        W13416  31.593  13.147  11.127
49209W        W13417  42.503  43.327   4.268
49210W        W13418   6.788   8.366  11.918
49211W        W13419  19.574  10.357   5.109
49212W        W13420  24.228  29.541   4.204
49213W        W13421  12.340  16.151  12.948
49214W        W13422   5.216   7.874  13.441
49215W        W13423   5.847   1.302  14.817
49216W        W13424  44.972  31.946   5.266
49217W        W13425   5.256   7.897   3.741
49218W        W13426  33.579  24.986  11.568
49219W        W13427  13.752  20.239   4.237
49220W        W13428  30.132  32.946   1.739
49221W        W13429   6.863  25.578   2.767
49222W        W13430  25.586  37.039  11.385
49223W        W13431  14.767  40.896   1.871
49224W        W13432  35.381   4.703  10.619
49225W        W13433   0.834  29.503   2.289
49226W        W13434  19.705  24.686   0.924
49227W        W13435   7.340  17.754  11.904
49228W        W13436  29.592  20.224   3.178
49229W        W13437  25.168  10.287   2.245
49230W        W13438  30.517  13.793   0.467
49231W        W13439   7.268  39.379  14.495
49232W        W13440  10.304  41.842  13.063
49233W        W13441   6.858  14.204  14.019
49234W        W13442  21.618  18.164   0.907
49235W        W13443  14.600  34.585   4.184
49236W        W13444  22.720  17.557   3.154
49237W        W13445  44.335  36.980  11.421
49238W        W13446  30.576  24.673   4.676
49239W        W13447   2.448   5.438   3.298
49240W        W13448   3.252  12.740   4.277
49241W        W13449  33.044  23.052   2.854
49242W        W13450  31.644   0.305   2.688
49243W        W13451   8.770  38.842  10.629
49244W        W13452  39.059  33.038   4.238
49245W        W13453  44.343  38.441  12.049
49246W        W13454  31.048  13.630  11.531
49247W        W13455  19.714  36.587  14.782
49248W        W13456   9.202  34.896  10.482
49249W        W13457  37.934  14.732  12.497
49250W        W13458  31.549  21.522   3.648
49251W        W13459  27.139  25.135  13.985
49252W        W13460  27.082  36.959   2.307
49253W        W13461   6.915  30.980   4.318
49254W        W13462  35.965  18.614   2.254
49255W        W13463  37.446   7.309   9.980
49256W        W13464  14.678  37.884   0.379
49257W        W13465  11.148   6.198   0.328
49258W        W13466  13.734  19.633   4.757
49259W        W13467  11.720  37.558  11.054
49260W        W13468   1.412  23.674   1.233
49261W        W13469  30.553  42.873  12.461
49262W        W13470  18.613  43.957  12.915
49263W        W13471  12.709  34.610   2.712
49264W        W13472  28.160  15.787   3.280
49265W        W13473  33.429  18.775  13.013
49266W        W13474  20.201  26.665   4.198
49267W        W13475  24.589  28.049  13.824
49268W        W13476  13.665  11.282  12.897
49269W        W13477  13.134  41.337   3.341
49270W        W13478   7.208   3.388   2.227
49271W        W13479  31.416  37.914   3.302
49272W        W13480  40.034  11.190   2.414
49273W        W13481   2.404  20.534   2.235
49274W        W13482   0.313   1.844   3.203
49275W        W13483  43.430  31.057  11.990
49276W        W13484  26.557  17.155  11.121
49277W        W13485  26.504   3.363   3.226
49278W        W13486  11.306  34.916  13.014
49279W        W13487  23.620  22.530   0.376
49280W        W13488   0.917  15.806  10.607
49281W        W13489  11.131  40.371   1.393
49282W        W13490  26.113   3.948   3.305
49283W        W13491  27.546  20.619   3.205
49284W        W13492   6.823   5.837   4.799
49285W        W13493  26.622  31.448   2.707
49286W        W13494  13.306  17.183  10.986
49287W        W13495  11.224  37.456   2.374
49288W        W13496  26.484  40.461   2.872
49289W        W13497  10.220  17.743  10.515
49290W        W13498   2.895  13.816  11.094
49291W        W13499   2.814  29.014   3.844
49292W        W13500  26.607  23.555   1.444
49293W        W13501  13.798   3.361  11.127
49294W        W13502   9.821  10.853  14.316
49295W        W13503  20.185  28.947   5.125
49296W        W13504  20.560   3.712   0.822
49297W        W13505  28.523  40.802  13.417
49298W        W13506  42.833   5.274   2.743
49299W        W13507  22.628   8.368  10.534
49300W        W13508  42.476  32.501  14.378
49301W        W13509   6.911  15.585   3.811
49302W        W13510  31.647   3.777  11.969
49303W        W13511  29.061  34.498  11.460
49304W        W13512  20.055   3.890  12.050
49305W        W13513  13.620  39.813  11.586
49306W        W13514  17.117  17.583   3.257
49307W        W13515  39.050  22.592  12.960
49308W        W13516  39.053  23.697  12.352
49309W        W13517  26.604  38.974  14.353
49310W        W13518  33.920  24.216  14.989
49311W        W13519  21.178  35.358   1.439
49312W        W13520  18.618  15.247   4.230
49313W        W13521  34.604  28.170  13.440
49314W        W13522  13.283  32.908  12.037
49315W        W13523  42.489  18.163   3.842
49316W        W13524   4.881   0.398  10.407
49317W        W13525  20.193  37.427  13.042
49318W        W13526   7.370  39.372   0.871
49319W        W13527  34.431  33.432   3.838
49320W        W13528  36.532   4.230   3.769
49321W        W13529  31.983  11.848  12.046
49322W        W13530  34.444  30.017   0.411
49323W        W13531  37.357   3.906  13.040
49324W        W13532   1.417  38.406   0.778
49325W        W13533   6.755   0.967   4.241
49326W        W13534  43.511   9.804   2.736
49327W        W13535  25.568  22.233  13.044
49328W        W13536  35.068  19.144  11.400
49329W        W13537  14.703  31.430  11.861
49330W        W13538  43.008  19.667   4.660
49331W        W13539  38.355  11.648   0.334
49332W        W13540  37.513  21.096  11.424
49333W        W13541  34.398  37.887   2.388
49334W        W13542  40.513  10.703  13.879
49335W        W13543   5.739  28.571  10.614
49336W        W13544  12.624  34.462  13.503
49337W        W13545  26.015  41.943   3.321
49338W        W13546  20.727   1.395   4.148
49339W        W13547  25.981  16.222   4.147
49340W        W13548  32.001   7.378   3.304
49341W        W13549  36.361  16.672   2.264
49342W        W13550  20.150  28.514  14.340
49343W        W13551  28.163   2.391  14.442
49344W        W13552  17.770  32.020  11.429
49345W        W13553  36.480  11.697  12.450
49346W        W13554  20.121  28.562  13.385
49347W        W13555  34.882  39.836   0.807
49348W        W13556   4.369   1.389  14.900
49349W        W13557  36.366  26.654  10.944
49350W        W13558  11.271  25.550   3.717
49351W        W13559  30.935   3.316  11.532
49352W        W13560  14.706  44.339   0.481
49353W        W13561  36.481   6.366   3.862
49354W        W13562   2.315  21.212   5.294
49355W        W13563  44.363  41.885   0.475
49356W        W13564   0.471   3.786   1.926
49357W        W13565  24.494   4.304   2.856
49358W        W13566  44.403  28.155  12.436
49359W        W13567  13.247  35.025  12.459
49360W        W13568  26.131  28.501  12.473
49361W        W13569  40.861  15.702   9.443
49362W        W13570  13.747  33.568   1.369
49363W        W13571   2.782   1.836  13.444
49364W        W13572  16.743   1.922   1.826
49365W        W13573  17.684  13.801   2.195
49366W        W13574  18.783  14.185  10.579
49367W        W13575  42.941  29.657  14.387
49368W        W13576   2.338   3.755  11.611
49369W        W13577  43.791   8.660  14.326
49370W        W13578  39.840  10.719  10.444
49371W        W13579  38.432  25.169  14.777
49372W        W13580   0.931  16.175   0.945
49373W        W13581  30.643  31.055   4.803
49374W        W13582  24.052  42.896   1.806
49375W        W13583  44.985  40.803   4.794
49376W        W13584   2.772  38.842  14.483
49377W        W13585  19.228  34.514  12.535
49378W        W13586  20.245   0.794   3.349
49379W        W13587  39.972  24.486   3.256
49380W        W13588  42.420  18.652  10.108
49381W        W13589  15.303  44.300  11.125
49382W        W13590  29.078  29.506   1.239
49383W        W13591  34.397  20.522  13.046
49384W        W13592  26.193  23.675  12.869
49385W        W13593  22.019  16.142   3.313
49386W        W13594   1.356  19.566  12.367
49387W        W13595  37.341  35.974  12.353
49388W        W13596  10.774  35.405   0.752
49389W        W13597  39.360  18.589   9.584
49390W        W13598  34.456  44.445   1.926
49391W        W13599  36.358  14.267  14.316
49392W        W13600  39.553   6.801  13.908
49393W        W13601  32.622  32.404   2.749
49394W        W13602  24.148  42.391   0.350
49395W        W13603  30.928  43.823   3.178
49396W        W13604  15.230  14.792   4.135
49397W        W13605  24.083  11.213   4.795
49398W        W13606   5.846   5.242  14.812
49399W        W13607  18.144  37.413   0.306
49400W        W13608   8.174   2.794  11.977
49401W        W13609   5.254  30.458  14.316
49402W        W13610  11.655  28.447  14.284
49403W        W13611  32.435   3.937   3.191
49404W        W13612  40.313  18.711   1.417
49405W        W13613  23.607  29.021   4.827
49406W        W13614   4.214  18.287  11.404
49407W        W13615  12.316  41.406   3.664
49408W        W13616  38.980  39.318   2.356
49409W        W13617   4.785  34.910   4.253
49410W        W13618  18.160  15.669   3.729
49411W        W13619  29.454  28.934  14.286
49412W        W13620  32.441   7.175   0.370
49413W        W13621  19.063   8.210   0.263
49414W        W13622  35.965  16.248  11.895
49415W        W13623   0.301  12.266  13.406
49416W        W13624  16.637  31.546   0.441
49417W        W13625  33.980  31.410  12.086
49418W        W13626   0.754  38.391  12.403
49419W        W13627  31.009  21.129   4.318
49420W        W13628  34.370  10.700   1.431
49421W        W13629  40.923  20.229   3.702
49422W        W13630  31.463  10.326  11.537
49423W        W13631  17.198  34.499   1.334
49424W        W13632  19.196  24.538   0.951
49425W        W13633   3.370  22.609  12.468
49426W        W13634  44.452  43.797  12.002
49427W        W13635  32.931  19.600  12.933
49428W        W13636  28.485  36.979   3.633
49429W        W13637   7.730  29.116   2.877
49430W        W13638  30.916   6.892   2.269
49431W        W13639  34.022  17.793  13.465
49432W        W13640  43.790  37.391   0.919
49433W        W13641   5.824  26.479   0.362
49434W        W13642  43.846   9.696   3.728
49435W        W13643  16.800  24.024  11.605
49436W        W13644  38.014  13.335   2.665
49437W        W13645  10.816   3.227  13.995
49438W        W13646  33.953  25.625  12.353
49439W        W13647  24.143  10.814  11.439
49440W        W13648  30.633  41.410   3.325
49441W        W13649  22.152  16.679  13.892
49442W        W13650  34.373  16.270  13.842
49443W        W13651  15.578   3.443   0.867
49444W        W13652  36.091  23.208  12.827
49445W        W13653  31.971  36.453  13.367
49446W        W13654  30.160  19.211  10.908
49447W        W13655  44.864  43.448  11.979
49448W        W13656  12.156   1.436  12.068
49449W        W13657   0.842  35.997  12.080
49450W        W13658  13.831   2.376   2.279
49451W        W13659  14.156   6.204   4.668
49452W        W13660   9.360  10.311  13.929
49453W        W13661  21.525  33.982   1.865
49454W        W13662  31.970  20.685  13.058
49455W        W13663  24.533  20.133   2.718
49456W        W13664   9.301  18.076   2.204
49457W        W13665  35.019   2.765  11.395
49458W        W13666  18.701  33.041   4.610
49459W        W13667   8.683   5.747  14.946
49460W        W13668  11.658   3.775  10.593
49461W        W13669  16.747  42.281   0.433
49462W        W13670  25.488   9.871  10.901
49463W        W13671  22.008  33.051   0.881
49464W        W13672  33.448   0.350  10.919
49465W        W13673  43.412  27.168   4.132
49466W        W13674  16.570  39.875  14.958
49467W        W13675   5.205  44.784   4.701
49468W        W13676  36.847  13.169  10.998
49469W        W13677  39.331  28.118   4.124
49470W        W13678  40.394   5.778   0.355
49471W        W13679   8.684  41.533  14.016
49472W        W13680  37.984   8.817   1.424
49473W        W13681  13.728  21.545  11.941
49474W        W13682  30.144  32.580   4.330
49475W        W13683  20.751  16.123   2.293
49476W        W13684  20.614  13.749   3.855
49477W        W13685  34.478  35.988   3.146
49478W        W13686  23.084  37.971   3.334
49479W        W13687  42.797  15.584   4.151
49480W        W13688  18.262  24.644   0.410
49481W        W13689  29.139  44.927  11.990
49482W        W13690  10.300  16.701   1.860
49483W        W13691  25.547   7.761  11.527
49484W        W13692  17.591  26.028  10.602
49485W        W13693  19.768  20.757   3.288
49486W        W13694   1.863  19.689   0.890
49487W        W13695  20.107  15.647   9.672
49488W        W13696  26.508   7.313  14.759
49489W        W13697  10.243  27.979  11.449
49490W        W13698  18.245  43.865   3.718
49491W        W13699  24.004  20.726   3.249
49492W        W13700   1.416  34.966   2.886
49493W        W13701  11.715  25.529  14.312
49494W        W13702  21.138  28.530   4.184
49495W        W13703  16.136  24.713  12.865
49496W        W13704  31.986  31.436  12.904
49497W        W13705  41.865  11.740   4.119
49498W        W13706  21.053  33.064  10.976
49499W        W13707  25.963   4.240   3.675
49500W        W13708  24.066  35.985   1.721
49501W        W13709  35.362  24.099  13.060
49502W        W13710  25.546  24.215  10.914
49503W        W13711   8.899  28.534   1.387
49504W        W13712  39.397  16.777  14.516
49505W        W13713  34.437   8.286   4.715
49506W        W13714   4.367  16.762   1.225
49507W        W13715  10.261  30.085   0.419
49508W        W13716  41.877  24.188   2.877
49509W        W13717   1.299  33.997   3.384
49510W        W13718   5.260  24.219   1.806
49511W        W13719  11.781  13.715  11.129
49512W        W13720  12.302  29.480  14.887
49513W        W13721  25.602  20.048  13.447
49514W        W13722  37.865  27.595   2.734
49515W        W13723  19.039  38.498  11.562
49516W        W13724  14.764  14.816   4.702
49517W        W13725  40.343   4.712   9.962
49518W        W13726  12.663  27.191   0.297
49519W        W13727  23.203  19.204  12.030
49520W        W13728  43.330  26.695  14.942
49521W        W13729  41.909  28.117  14.794
49522W        W13730   6.918  26.582  14.285
49523W        W13731  29.572   5.906   1.269
49524W        W13732  22.041  42.382  14.768
49525W        W13733  37.861  18.287   4.193
49526W        W13734   6.816  38.379   2.223
49527W        W13735  15.647  28.121  14.342
49528W        W13736   1.914  11.838  13.997
49529W        W13737  12.288  22.607   2.826
49530W        W13738  32.992  31.110   4.274
49531W        W13739  43.301   2.454  12.872
49532W        W13740   6.344   2.960   2.384
49533W        W13741  37.065  20.100   3.206
49534W        W13742  25.538  36.941   0.920
49535W        W13743  37.967   5.840   4.281
49536W        W13744  26.661  42.949   2.240
49537W        W13745  38.529   0.366   1.925
49538W        W13746  34.396  38.901  11.902
49539W        W13747  12.730  41.043  11.530
49540W        W13748   6.360  40.016   2.766
49541W        W13749  17.231  17.156  13.998
49542W        W13750   8.226  43.329  10.931
49543W        W13751  41.346   8.794   3.320
49544W        W13752  32.467  44.763   2.843
49545W        W13753  16.266   6.777  12.380
49546W        W13754  29.574  43.952  10.925
49547W        W13755  21.186  32.930  10.121
49548W        W13756  24.639  30.122   2.761
49549W        W13757  42.897  28.565  11.462
49550W        W13758  37.478  44.384   2.856
49551W        W13759  33.544  34.451  11.444
49552W        W13760  35.043  38.472  11.915
49553W        W13761  40.019   4.420  14.981
49554W        W13762  36.454  44.487  13.494
49555W        W13763  21.623  21.666  12.375
49556W        W13764  43.300   4.926  12.028
49557W        W13765   6.755  24.522   2.690
49558W        W13766  20.657   9.803   3.751
49559W        W13767  21.750  19.605   0.760
49560W        W13768  35.065  36.493   0.938
49561W        W13769  33.430  17.800   4.258
49562W        W13770  13.647   8.847   0.935
49563W        W13771  31.533  19.214  11.419
49564W        W13772  17.598  27.979  11.027
49565W        W13773  17.785  28.981  11.892
49566W        W13774  12.253  18.582   0.480
49567W        W13775  35.503  21.624   4.806
49568W        W13776  18.133  28.932  10.411
49569W        W13777  22.162  43.478   4.312
49570W        W13778  16.581  28.571   2.205
49571W        W13779  38.958  22.042   2.178
49572W        W13780  20.721  36.979   5.268
49573W        W13781  26.697  10.374   4.262
49574W        W13782  26.534  36.427  14.447
49575W        W13783   5.907  14.611  12.887
49576W        W13784  20.035   3.952   3.770
49577W        W13785  25.495   3.416  12.824
49578W        W13786   5.279  33.002   0.964
49579W        W13787  44.816   1.481  11.074
49580W        W13788  13.235  25.643  14.800
49581W        W13789  12.141  13.177  11.930
49582W        W13790   8.374  18.781   2.841
49583W        W13791  26.626  38.839  12.472
49584W        W13792  10.693  44.356   0.460
49585W        W13793   6.253  30.984   3.686
49586W        W13794  38.388  30.636   4.833
49587W        W13795  20.732  21.187  11.939
49588W        W13796  21.634  40.431   0.344
49589W        W13797  38.036  31.996  13.355
49590W        W13798  21.527  14.676  12.890
49591W        W13799  37.960   7.236   0.332
49592W        W13800   1.942  22.097  11.047
49593W        W13801  39.864  33.087   3.160
49594W        W13802  19.539   9.728   3.839
49595W        W13803  10.633  19.092   0.853
49596W        W13804  11.328   5.855   0.458
49597W        W13805  18.649  37.572   3.201
49598W        W13806  37.990   7.795   2.215
49599W        W13807   6.312   5.875   2.313
49600W        W13808   9.359  18.546   3.680
49601W        W13809   2.869   3.793   4.773
49602W        W13810  35.478  22.638  13.369
49603W        W13811  23.732  40.901   1.210
49604W        W13812  19.208  11.152  12.824
49605W        W13813  19.577  15.252   9.973
49606W        W13814   1.788   0.265   1.886
49607W        W13815   4.765   7.331   2.809
49608W        W13816  36.913  29.603   0.931
49609W        W13817  21.707  26.671  13.010
49610W        W13818  22.996   4.720   3.799
49611W        W13819   6.422  29.079  12.835
49612W        W13820   5.268  10.264  14.954
49613W        W13821  13.661  38.339  14.868
49614W        W13822   8.371  39.396  10.925
49615W        W13823  26.477  34.412  11.926
49616W        W13824  28.107   3.311   1.718
49617W        W13825   2.359   5.811  13.802
49618W        W13826  32.908  15.584  14.466
49619W        W13827  24.162  35.049   5.319
49620W        W13828  38.461   0.858  13.836
49621W        W13829  18.188  43.838  10.999
49622W        W13830  16.305  39.011  13.870
49623W        W13831  15.604   3.396   4.236
49624W        W13832   9.292  24.073  12.995
49625W        W13833  16.140  28.060  13.028
49626W        W13834  25.149  12.761   4.277
49627W        W13835  23.574   3.455  11.401
49628W        W13836  16.093  32.505   1.740
49629W        W13837  29.598  36.439   1.269
49630W        W13838  28.134   6.353  13.462
49631W        W13839  24.599  40.532   1.355
49632W        W13840  44.283   2.937  13.331
49633W        W13841  21.656  40.823  10.637
49634W        W13842  19.664   9.663   1.370
49635W        W13843   8.689  39.408  13.955
49636W        W13844  42.784  28.988  12.840
49637W        W13845  27.066  31.427  12.041
49638W        W13846  24.610  12.750  10.469
49639W        W13847  20.700  29.600   2.821
49640W        W13848  14.196  14.130   5.104
49641W        W13849   3.309  16.264  14.953
49642W        W13850  34.481  44.777  14.304
49643W        W13851  10.781  17.586   1.451
49644W        W13852  26.204  15.800   4.657
49645W        W13853  24.005  32.418  14.453
49646W        W13854  19.580  40.918  12.028
49647W        W13855  43.303  43.317   2.357
49648W        W13856  17.109  10.815  11.028
49649W        W13857  41.873   7.244   0.462
49650W        W13858   6.737  44.317  14.882
49651W        W13859  12.134   4.277   0.762
49652W        W13860  19.599  10.197   9.925
49653W        W13861   4.216  32.937  14.437
49654W        W13862  42.457   7.791  11.874
49655W        W13863  18.094  39.411   1.351
49656W        W13864  28.452   6.705  14.313
49657W        W13865   1.352  20.059  12.866
49658W        W13866  41.031  25.114   1.250
49659W        W13867   9.154  17.794  13.937
49660W        W13868  23.050  20.125  11.122
49661W        W13869  17.106  43.835   0.801
49662W        W13870  42.818  32.426   3.331
49663W        W13871  13.129   1.376   0.262
49664W        W13872  23.642  42.797  13.365
49665W        W13873   3.220   7.682   1.806
49666W        W13874  18.641  11.129  10.555
49667W        W13875  38.822  44.998   1.831
49668W        W13876  42.867  23.218  10.939
49669W        W13877  19.277  12.362  12.449
49670W        W13878  34.559  30.468  12.827
49671W        W13879  12.198   7.317  14.782
49672W        W13880  19.207  12.818  13.949
49673W        W13881  35.103  12.772  11.014
49674W        W13882  38.415   3.742   0.381
49675W        W13883  29.433  28.114   2.346
49676W        W13884  14.813   0.943  14.299
49677W        W13885   0.387  42.483  11.957
49678W        W13886  29.157  30.919  12.996
49679W        W13887  31.104   7.311   9.997
49680W        W13888   6.297  27.963   2.251
49681W        W13889  37.430  20.084  14.895
49682W        W13890  23.999   9.218   2.236
49683W        W13891  43.331   6.413  14.889
49684W        W13892  18.778  14.272  11.550
49685W        W13893  15.715  18.161  13.890
49686W        W13894   3.784  30.999  12.007
49687W        W13895  19.668   3.797  12.481
49688W        W13896   0.749  10.315  14.457
49689W        W13897  19.241  30.657  14.450
49690W        W13898  11.744  21.513   2.867
49691W        W13899  37.525  44.448  13.063
49692W        W13900  16.757  32.944  10.927
49693W        W13901  38.964  16.778   2.866
49694W        W13902  14.197  23.167  12.572
49695W        W13903   7.681  10.713   4.734
49696W        W13904  16.796  33.506   0.733
49697W        W13905   4.807   8.196   3.646
49698W        W13906   7.667  40.921  12.543
49699W        W13907   0.340  21.237  13.384
49700W        W13908  34.492  28.505   4.274
49701W        W13909  15.783  35.082  14.015
49702W        W13910  33.462  34.418  14.297
49703W        W13911  19.283  25.137   4.172
49704W        W13912  40.844  17.750  12.017
49705W        W13913  44.858  29.163   1.794
49706W        W13914   6.237  32.103   2.855
49707W        W13915   2.780  36.918  10.544
49708W        W13916  10.761  16.601  10.975
49709W        W13917  15.675  17.226  14.380
49710W        W13918  34.966  27.569   2.406
49711W        W13919  14.765  27.169   1.724
49712W        W13920  18.099  43.488   3.791
49713W        W13921  29.969  43.817   3.266
49714W        W13922  35.045  32.077   2.227
49715W        W13923   6.283  22.560  12.951
49716W        W13924   5.816  23.224  14.772
49717W        W13925   4.254  39.036  11.919
49718W        W13926  37.513  11.186  14.848
49719W        W13927  26.471  19.611   4.339
49720W        W13928  22.122  13.768  12.510
49721W        W13929   6.403   7.361  11.424
49722W        W13930   2.836  10.733  13.507
49723W        W13931  27.135  37.997   3.734
49724W        W13932  44.902  40.317   4.801
49725W        W13933  34.373  44.463  13.047
49726W        W13934   2.343  29.087  13.457
49727W        W13935  11.759  33.897  14.430
49728W        W13936  15.798  11.625   3.267
49729W        W13937   1.241  22.583   3.783
49730W        W13938  24.535  24.128  14.989
49731W        W13939  32.915   8.766   1.824
49732W        W13940  41.890  39.384  10.992
49733W        W13941  34.421  39.540  13.846
49734W        W13942  42.292  38.497  14.941
49735W        W13943  18.241  17.766   0.475
49736W        W13944   5.820  27.688   4.708
49737W        W13945  25.638  27.070   3.648
49738W        W13946   1.820  29.596  13.860
49739W        W13947  36.472  24.154   2.879
49740W        W13948  11.839   3.757   2.881
49741W        W13949   2.747  39.477   3.318
49742W        W13950  17.071   0.886   4.627
49743W        W13951  33.113   5.273   1.920
49744W        W13952  11.813  21.160  10.636
49745W        W13953  43.276   9.196   3.802
49746W        W13954  35.017  16.096  12.445
49747W        W13955  24.064  43.878   2.315
49748W        W13956   2.914   8.294  12.417
49749W        W13957  22.181  34.454  11.371
49750W        W13958  22.180  20.247   2.813
49751W        W13959  40.379   7.394   3.652
49752W        W13960  42.785  19.239   0.319
49753W        W13961  31.629  21.715   1.356
49754W        W13962  26.541  13.840  11.083
49755W        W13963  14.125   0.263  13.430
49756W        W13964   7.881  21.223  13.415
49757W        W13965  12.794  11.240  14.019
49758W        W13966  20.061  27.660  13.834
49759W        W13967  13.607   2.360  10.603
49760W        W13968  30.497  34.514   4.702
49761W        W13969  14.287  23.112   4.680
49762W        W13970  15.260  26.106   4.709
49763W        W13971  37.043   0.742   3.224
49764W        W13972  11.352  20.130  13.049
49765W        W13973   6.727  16.095   2.375
49766W        W13974  27.028  41.369  12.342
49767W        W13975  36.082  41.983  13.371
49768W        W13976  33.962   2.900  12.502
49769W        W13977  15.204   1.358   1.311
49770W        W13978  14.205   4.402  14.878
49771W        W13979   9.885  21.055   0.852
49772W        W13980  32.931  16.692  10.446
49773W        W13981  23.085  40.387   4.646
49774W        W13982  16.625   8.707  12.891
49775W        W13983  25.099  38.449   4.216
49776W        W13984  36.874  42.455  11.957
49777W        W13985  44.472  13.176  12.541
49778W        W13986  37.030  22.697  13.862
49779W        W13987  21.624  42.395  10.614
49780W        W13988  26.016  38.396  13.036
49781W        W13989  26.686  38.025   4.123
49782W        W13990  19.646  11.752   2.224
49783W        W13991   0.351   0.291  13.049
49784W        W13992   3.834  30.037  11.903
49785W        W13993  38.398   8.211  10.438
49786W        W13994  40.518  16.772   1.850
49787W        W13995  19.159  14.157   4.761
49788W        W13996  25.116  34.100   2.819
49789W        W13997  24.544  34.919   2.233
49790W        W13998  10.266  23.054   0.442
49791W        W13999  42.301  30.529   1.846
49792W        W14000   2.318  18.745  13.489
49793W        W14001   1.431  14.179  11.478
49794W        W14002  25.010  20.117   0.351
49795W        W14003   3.772  21.603  12.973
49796W        W14004  33.488  37.502  10.584
49797W        W14005  32.595  34.971  12.422
49798W        W14006  27.629   1.732  10.991
49799W        W14007  18.763  40.503  13.798
49800W        W14008  42.805   1.304   0.951
49801W        W14009  20.592   1.368   2.728
49802W        W14010  27.982  29.924  14.839
49803W        W14011  21.177  19.178  14.445
49804W        W14012  13.226  40.031  13.984
49805W        W14013  20.226  11.838  11.016
49806W        W14014  19.211  43.352  13.446
49807W        W14015  40.912  19.091   5.140
49808W        W14016  17.232  22.714   2.672
49809W        W14017  25.587  24.627   1.700
49810W        W14018  16.237  10.333  11.533
49811W        W14019   2.450  12.136  14.460
49812W        W14020  12.719  28.040   4.280
49813W        W14021  31.609  11.233   3.342
49814W        W14022   4.320  21.079   3.255
49815W        W14023  21.678  35.407   2.352
49816W        W14024  24.690  35.532  13.412
49817W        W14025  21.123  14.338  14.417
49818W        W14026  30.125  17.561  11.605
49819W        W14027   1.926   1.935  10.996
49820W        W14028  30.605  21.221  12.837
49821W        W14029   4.855   4.323   2.755
49822W        W14030  38.446  16.747  13.371
49823W        W14031   6.211  14.657  12.995
49824W        W14032   7.754  27.108   2.739
49825W        W14033  13.123  29.559   1.309
49826W        W14034   0.969   2.762  12.344
49827W        W14035  27.953  28.452   0.405
49828W        W14036  44.889  13.637   0.359
49829W        W14037  23.224  24.595   3.809
49830W        W14038   5.388  23.194   4.606
49831W        W14039  14.161  25.657   1.778
49832W        W14040   2.366  35.041  14.905
49833W        W14041  18.289   5.792  12.495
49834W        W14042  33.458  30.154  14.983
49835W        W14043  25.691  42.998  14.998
49836W        W14044  40.433   5.920   0.925
49837W        W14045  24.979  13.644  12.456
49838W        W14046   9.352  23.204   4.695
49839W        W14047  35.925  29.929  14.304
49840W        W14048  33.952   7.742  10.626
49841W        W14049   0.915  19.211   4.227
49842W        W14050  11.330   2.964   2.769
49843W        W14051   2.918  35.925   4.287
49844W        W14052   2.763   4.734   4.658
49845W        W14053  44.822  41.868  12.421
49846W        W14054  30.577   0.343   3.282
49847W        W14055  32.452  29.594  10.038
49848W        W14056  27.123  43.836  11.602
49849W        W14057  20.561  15.130   2.239
49850W        W14058  21.199  39.911  10.573
49851W        W14059  29.566  42.458  12.920
49852W        W14060  10.179  30.495   1.254
49853W        W14061  21.525  35.568   4.166
49854W        W14062  43.945   5.691   2.293
49855W        W14063  32.965  26.701  13.396
49856W        W14064  42.792  16.794  10.052
49857W        W14065   8.382  36.378   1.704
49858W        W14066  17.273  30.023   0.294
49859W        W14067  36.002  14.731  11.434
49860W        W14068  37.994  31.105  11.509
49861W        W14069  20.623  33.460  13.512
49862W        W14070  43.847  37.853   0.726
49863W        W14071  19.198  39.053   4.644
49864W        W14072   3.778  25.205   0.956
49865W        W14073   2.468  34.387   0.766
49866W        W14074   4.396  43.350   4.180
49867W        W14075   9.199  31.069   1.781
49868W        W14076  28.515  14.138   2.294
49869W        W14077   0.848  10.653  15.000
49870W        W14078   5.209  38.827  13.361
49871W        W14079   2.908   6.309  14.492
49872W        W14080  16.112  11.162  11.950
49873W        W14081  20.554  11.146  13.865
49874W        W14082  37.958  34.587  13.898
49875W        W14083   7.785  25.189   3.331
49876W        W14084  22.571   3.922   9.923
49877W        W14085  34.370  39.335  12.024
49878W        W14086  42.027   5.738  14.966
49879W        W14087   0.314  14.638   4.625
49880W        W14088  43.291  20.262  13.516
49881W        W14089  22.197  12.319   4.642
49882W        W14090   8.394  18.065  12.519
49883W        W14091  11.290  23.210  13.521
49884W        W14092  37.069  28.105  12.576
49885W        W14093  35.959  40.820  11.396
49886W        W14094  34.586  37.427  11.437
49887W        W14095   5.776   7.900  11.127
49888W        W14096  31.466   2.348   3.287
49889W        W14097  28.139  20.753   4.602
49890W        W14098  14.098   3.750  11.970
49891W        W14099  37.550  24.518  14.759
49892W        W14100  15.208  40.980  11.097
49893W        W14101  35.540  25.168  11.546
49894W        W14102  38.983  42.434  14.493
49895W        W14103  42.868  22.544   4.236
49896W        W14104  32.472  25.004   0.896
49897W        W14105  37.352  34.905  11.003
49898W        W14106  14.269  44.325   3.631
49899W        W14107  36.885  41.963   2.291
49900W        W14108   0.829  21.153  10.043
49901W        W14109  10.346  26.968   3.738
49902W        W14110  22.219  38.475   0.279
49903W        W14111  29.655  33.451   5.296
49904W        W14112  20.255  19.607  14.448
49905W        W14113  44.431  16.607  14.990
49906W        W14114  14.679  38.849   0.357
49907W        W14115  29.024  42.010  12.902
49908W        W14116  17.617   6.346   3.757
49909W        W14117  39.442   5.235  14.987
49910W        W14118  17.744  30.046   0.322
49911W        W14119   5.428  19.273  11.057
49912W        W14120  23.187  25.966   4.786
49913W        W14121  44.352  38.535   0.890
49914W        W14122  34.984  13.323  14.366
49915W        W14123  33.082   8.215   4.150
49916W        W14124  14.140  37.358   2.404
49917W        W14125  17.307  15.288   3.643
49918W        W14126   8.311   7.709  13.946
49919W        W14127  30.557  31.896  14.806
49920W        W14128  31.644  26.039   0.380
49921W        W14129   1.350  43.863  11.572
49922W        W14130  35.404  38.952   4.776
49923W        W14131   0.471  36.098  11.867
49924W        W14132   1.310  24.128  13.330
49925W        W14133  22.701  31.416   1.730
49926W        W14134  29.945  23.722  11.608
49927W        W14135  19.541   4.902   2.701
49928W        W14136  39.374  33.961  14.314
49929W        W14137  12.841  41.953  10.465
49930W        W14138  18.196  23.062  10.988
49931W        W14139   0.342  19.225   0.437
49932W        W14140  35.895  30.514   1.449
49933W        W14141   2.460  14.221  12.884
49934W        W14142  42.918  43.421  12.956
49935W        W14143  24.085   5.688  14.901
49936W        W14144  41.492  44.875   2.820
49937W        W14145  30.507  21.585   0.739
49938W        W14146  12.846  20.677   3.221
49939W        W14147  26.047  34.052   1.866
49940W        W14148  38.451  38.365  10.898
49941W        W14149  26.089  32.946   3.739
49942W        W14150  15.136  33.046  12.486
49943W        W14151  15.658   0.908   5.178
49944W        W14152  24.683  20.096   3.807
49945W        W14153  35.503   9.795   0.834
49946W        W14154  19.274   9.775  11.016
49947W        W14155  37.890  31.113  14.833
49948W        W14156  20.613  18.275  11.901
49949W        W14157   2.769  42.307  10.577
49950W        W14158   1.328  21.243   3.726
49951W        W14159  24.055   3.460   2.694
49952W        W14160  25.506  42.817   4.715
49953W        W14161  36.394  42.373   1.761
49954W        W14162  42.372   4.430  10.098
49955W        W14163  21.598  34.019   0.323
49956W        W14164  15.167  24.211  13.920
49957W        W14165  22.178  36.020   1.373
49958W        W14166  28.113   1.411  10.414
49959W        W14167  27.457   2.250  14.864
49960W        W14168  24.041   6.375  12.055
49961W        W14169  30.515  42.294  13.816
49962W        W14170   2.820  24.132   2.691
49963W        W14171  42.401  23.160   0.957
49964W        W14172  26.620  22.137   1.858
49965W        W14173  10.273   0.987   2.306
49966W        W14174  10.811  21.155  14.013
49967W        W14175  18.253  29.061   1.742
49968W        W14176  14.325  16.194   3.748
49969W        W14177  22.566  29.028  12.399
49970W        W14178  16.747  13.712  13.956
49971W        W14179  21.623  19.209   1.419
49972W        W14180  33.473  28.558  11.452
49973W        W14181  15.782  23.130   0.954
49974W        W14182  11.680  41.882  13.408
49975W        W14183  14.225   2.904  10.554
49976W        W14184  14.786  33.624   3.310
49977W        W14185   2.347  28.080   4.760
49978W        W14186  24.105  10.269   4.599
49979W        W14187  22.096  42.486  12.506
49980W        W14188  34.457  30.494  13.330
49981W        W14189  34.031  35.108   1.849
49982W        W14190   0.817  44.887   2.705
49983W        W14191  28.113  35.968  14.449
49984W        W14192   7.239  28.575   3.202
49985W        W14193  22.594   9.162   4.837
49986W        W14194  20.666   3.427   3.730
49987W        W14195   5.811  25.488   4.171
49988W        W14196  38.408  27.590   4.756
49989W        W14197  16.228   1.350  11.925
49990W        W14198  30.056  23.688  14.823
49991W        W14199  34.550  31.563  14.927
49992W        W14200   7.310  24.504  13.440
49993W        W14201   3.832  35.091   4.154
49994W        W14202  16.634   6.773   2.683
49995W        W14203  13.651  37.087   3.649
49996W        W14204  17.223  29.663  11.120
49997W        W14205  30.571  15.291   1.364
49998W        W14206  34.030  36.877   4.638
49999W        W14207  16.293  33.491  12.923
50000W        W14208  29.032  34.957  10.581
50001W        W14209   0.828   6.220  13.329
50002W        W14210  20.167  32.062  11.578
50003W        W14211  34.413  30.153   1.820
50004W        W14212  13.119  30.978   3.732
50005W        W14213  38.944  20.045  14.471
50006W        W14214  28.935  43.316   4.610
50007W        W14215  36.856  35.104  11.014
50008W        W14216  44.920  13.662  10.547
50009W        W14217   6.318   0.895  11.608
50010W        W14218  36.942  36.853   3.772
50011W        W14219   2.823   4.803   4.268
50012W        W14220  28.150  10.635   3.173
50013W        W14221  26.980  22.222  11.503
50014W        W14222  19.126   2.745   4.650
50015W        W14223  14.619  11.656   2.789
50016W        W14224  26.522  43.357   3.649
50017W        W14225  21.598  24.511   3.842
50018W        W14226  25.657   9.381  11.564
50019W        W14227  24.025  33.596   1.696
50020W        W14228  10.696   1.304   2.744
50021W        W14229  40.342   8.317   1.420
50022W        W14230  25.484  17.299  10.418
50023W        W14231   6.839  29.081   0.358
50024W        W14232  27.180  19.549   0.926
50025W        W14233  37.488  44.895   3.224
50026W        W14234   7.747  35.421  13.979
50027W        W14235  30.095  40.806  13.898
50028W        W14236  38.917  16.615  13.938
50029W        W14237  15.297  23.626  12.064
50030W        W14238  40.480   0.852   5.224
50031W        W14239  10.256  25.973   4.220
50032W        W14240  37.445  15.325   2.863
50033W        W14241  16.808  40.519  14.342
50034W        W14242   6.756  23.007   0.474
50035W        W14243  15.161  25.703   0.928
50036W        W14244  40.386   8.700  10.540
50037W        W14245  10.801  32.447  12.860
50038W        W14246  22.693  35.537  13.031
50039W        W14247   4.749   4.820   4.829
50040W        W14248  17.135  34.506  10.916
50041W        W14249  42.944  10.227  11.436
50042W        W14250   8.302  16.182  12.390
50043W        W14251  11.372  39.931  13.056
50044W        W14252  10.864   6.921   4.707
50045W        W14253  19.265  25.976   2.732
50046W        W14254  27.475  29.115  11.428
50047W        W14255  32.136  25.206   4.184
50048W        W14256  13.670   9.888  13.338
50049W        W14257   5.316  30.116  12.824
50050W        W14258  44.000   8.785  11.047
50051W        W14259  22.587  41.864   0.918
50052W        W14260   6.360  15.587   3.274
50053W        W14261  15.259  31.135   3.659
50054W        W14262  14.752  21.655   1.427
50055W        W14263   8.718   9.709   4.646
50056W        W14264  27.603  27.603  12.507
50057W        W14265  34.056  35.961  10.509
50058W        W14266  25.483  22.638   3.736
50059W        W14267  17.749  27.023   1.922
50060W        W14268  39.420  12.215  13.529
50061W        W14269  10.751  24.577  11.444
50062W        W14270  19.576   0.809  14.391
50063W        W14271   5.325  26.623   2.323
50064W        W14272  16.738   2.439  12.874
50065W        W14273   3.307  35.392  11.056
50066W        W14274   3.322   0.781   4.700
50067W        W14275  29.984  25.491   0.385
50068W        W14276   9.237  44.965  11.940
50069W        W14277  33.568  28.664  11.120
50070W        W14278  13.662   5.283  11.464
50071W        W14279  15.708   5.825   3.290
50072W        W14280  21.631   6.855  11.558
50073W        W14281  44.892  28.495  13.968
50074W        W14282  29.941  34.090  14.026
50075W        W14283  41.007  28.107  14.032
50076W        W14284   0.455  43.786  14.466
50077W        W14285  30.977   3.794  11.921
50078W        W14286   7.700  16.710   1.905
50079W        W14287  22.079  37.368   3.247
50080W        W14288  32.589  12.796  13.438
50081W        W14289  17.709   7.782  10.562
50082W        W14290  43.292  43.012  13.511
50083W        W14291  28.115   0.440   2.809
50084W        W14292  16.078   6.328   0.376
50085W        W14293  26.592  25.128  11.066
50086W        W14294   0.949  32.591  11.380
50087W        W14295  41.988  29.480   1.384
50088W        W14296  36.074  13.304   1.695
50089W        W14297   6.329  22.587   3.171
50090W        W14298  35.597  34.583   2.775
50091W        W14299  14.632  17.296  14.500
50092W        W14300  35.039  37.437  12.566
50093W        W14301  44.452  26.523   3.281
50094W        W14302   4.391   1.371  14.327
50095W        W14303  10.674  33.950  14.003
50096W        W14304  16.132  10.191  11.877
50097W        W14305  23.026  32.589  13.032
50098W        W14306   8.716  18.674   0.320
50099W        W14307  28.558  42.470  11.058
50100W        W14308  32.587  34.429  12.873
50101W        W14309  27.446  37.549  13.548
50102W        W14310  28.536  23.134   1.729
50103W        W14311  20.527  20.256   4.276
50104W        W14312  23.209  38.330  12.927
50105W        W14313  35.095  32.524  12.942
50106W        W14314  44.357  29.537  11.383
50107W        W14315  28.112  33.481   0.829
50108W        W14316  16.176  23.606   3.339
50109W        W14317   9.278  18.153  11.380
50110W        W14318  13.316  44.494   0.460
50111W        W14319  44.843  14.813   0.267
50112W        W14320  30.126  23.605  12.022
50113W        W14321   6.330  36.539   4.665
50114W        W14322  32.472  22.636  12.978
50115W        W14323   9.248   0.373  11.089
50116W        W14324  44.283   1.400  12.846
50117W        W14325   3.825   3.926  13.344
50118W        W14326  23.216  38.513   3.346
50119W        W14327  40.311  39.011  11.418
50120W        W14328  20.557  19.270   3.771
50121W        W14329   0.829   7.854  10.499
50122W        W14330   3.271   9.366   2.670
50123W        W14331   1.314  39.416   0.799
50124W        W14332   9.260  22.551  13.986
50125W        W14333  13.204  40.853  12.982
50126W        W14334  18.664  39.490   4.313
50127W        W14335  21.149  22.194  12.421
50128W        W14336  21.526  19.190   4.731
50129W        W14337  44.472  16.261   3.162
50130W        W14338   4.404  14.322  12.446
50131W        W14339  37.472   4.378  13.855
50132W        W14340  13.339  12.782   2.679
50133W        W14341   3.955  13.821  12.971
50134W        W14342  18.743  44.298   0.442
50135W        W14343  38.960  22.603   4.660
50136W        W14344  23.504  36.388   1.260
50137W        W14345  10.267   2.449  12.958
50138W        W14346  41.811  37.076  10.645
50139W        W14347   8.238  33.890   1.265
50140W        W14348  44.283   4.858  14.297
50141W        W14349   5.807   3.893  13.991
50142W        W14350  28.498  24.544   3.821
50143W        W14351  15.714  37.943  11.379
50144W        W14352  27.965  19.741  12.550
50145W        W14353   2.849   2.941  10.124
50146W        W14354  11.276  27.025  13.955
50147W        W14355  37.861   9.256  11.432
50148W        W14356  15.140  18.221  12.913
50149W        W14357  20.550  19.187  10.095
50150W        W14358  37.395  23.559   1.893
50151W        W14359  22.213  19.077  14.358
50152W        W14360  31.497  19.102   0.811
50153W        W14361  32.891   8.771   0.390
50154W        W14362   6.382  13.198  10.612
50155W        W14363   1.788  23.645   1.694
50156W        W14364  12.618   4.348   1.357
50157W        W14365   5.307   8.776   4.320
50158W        W14366  33.513  29.549  11.401
50159W        W14367  28.560  14.199  14.808
50160W        W14368  26.483  25.035  13.944
50161W        W14369   2.742  12.687   1.256
50162W        W14370  41.460  28.561   2.200
50163W        W14371   3.334  25.098   2.668
50164W        W14372  24.713   3.955   0.386
50165W        W14373   8.783  15.597   4.241
50166W        W14374  42.833  36.874  12.928
50167W        W14375   1.401  28.523  10.133
50168W        W14376  33.566  34.448  10.574
50169W        W14377  34.032  24.607   1.704
50170W        W14378  10.743  37.039  13.844
50171W        W14379  29.573  38.517  13.797
50172W        W14380  12.678   3.439  11.993
50173W        W14381  17.175  15.768  10.071
50174W        W14382   0.306  21.180  10.437
50175W        W14383   8.677  27.104  14.324
50176W        W14384   8.768   0.828   2.395
50177W        W14385   6.348  40.852  11.065
50178W        W14386   6.254   3.912  13.997
50179W        W14387  28.624  25.575  13.831
50180W        W14388  38.478   2.853   3.851
50181W        W14389  32.982  32.624  12.528
50182W        W14390  24.479  41.952   4.739
50183W        W14391   9.750  29.963  10.912
50184W        W14392  18.077   5.283   2.724
50185W        W14393  10.632  22.185  14.409
50186W        W14394   9.763  12.154  12.484
50187W        W14395  12.358   0.425  12.972
50188W        W14396  18.779  30.927   0.454
50189W        W14397  42.350  41.412   3.253
50190W        W14398  30.028  18.728   2.236
50191W        W14399  25.712   9.294  12.352
50192W        W14400  39.951  12.168  14.357
50193W        W14401   8.374  44.869   2.671
50194W        W14402  25.985   9.674  12.045
50195W        W14403  39.041  12.735  12.870
50196W        W14404  23.538  34.956  11.426
50197W        W14405   7.886  28.550  14.026
50198W        W14406  27.184  32.486   4.272
50199W        W14407  41.974  13.163   4.661
50200W        W14408  40.373   4.763   4.684
50201W        W14409  14.771  14.602  12.009
50202W        W14410  44.487  40.992   3.304
50203W        W14411   0.418  15.605   4.665
50204W        W14412  22.179  40.942   2.829
50205W        W14413  17.208  29.167   1.851
50206W        W14414  14.814  23.131  11.000
50207W        W14415   6.311  42.854   0.438
50208W        W14416  43.993  40.021   0.381
50209W        W14417  43.851  28.489   2.860
50210W        W14418  13.830  13.193  11.893
50211W        W14419  23.067  43.765  10.958
50212W        W14420  11.176  10.262   1.834
50213W        W14421  11.275  42.858   0.453
50214W        W14422  20.761  41.448   3.835
50215W        W14423   3.883  23.235  14.968
50216W        W14424  31.573  20.112  12.408
50217W        W14425  37.976  33.077   4.736
50218W        W14426   6.879   1.418  11.035
50219W        W14427  27.595  30.945  12.879
50220W        W14428  39.885  40.797   0.437
50221W        W14429   3.329  10.383  13.904
50222W        W14430  13.141   0.371   3.367
50223W        W14431   9.351  33.569   4.662
50224W        W14432  30.527  27.017   3.693
50225W        W14433   6.395   1.328  10.626
50226W        W14434  33.540  34.910  14.967
50227W        W14435  17.802  28.082   0.935
50228W        W14436  31.973  37.906  12.473
50229W        W14437   2.287   6.859  11.562
50230W        W14438  40.902  31.418   3.836
50231W        W14439  25.188  13.334  11.859
50232W        W14440  42.367  30.960  11.396
50233W        W14441  30.127   2.376   3.260
50234W        W14442  18.195   5.390  11.898
50235W        W14443  31.566  16.307  12.096
50236W        W14444  23.103  37.992   1.703
50237W        W14445   1.753   1.398   3.641
50238W        W14446  24.696  39.550  13.370
50239W        W14447  36.917  43.317  12.882
50240W        W14448  30.626   7.873   3.716
50241W        W14449   3.910  41.008   2.322
50242W        W14450   9.850   2.445  14.998
50243W        W14451  39.820  12.352  14.906
50244W        W14452  10.699  38.377  14.925
50245W        W14453  35.948  11.345  10.587
50246W        W14454  11.169  32.542   1.255
50247W        W14455   9.291   1.449   2.812
50248W        W14456   1.853   1.238   1.432
50249W        W14457  43.322  30.493  13.842
50250W        W14458  36.441  11.742   3.696
50251W        W14459   9.179   0.346  11.411
50252W        W14460  11.787  40.969   3.285
50253W        W14461  31.434   8.894   0.422
50254W        W14462   4.939  32.490  13.860
50255W        W14463   0.471  43.338  10.410
50256W        W14464   7.884  32.526   4.740
50257W        W14465  12.353  33.892   0.268
50258W        W14466  20.029   3.928  11.531
50259W        W14467  17.139  40.801  13.793
50260W        W14468  12.170  24.724   2.405
50261W        W14469  27.957  31.132  13.967
50262W        W14470  26.164   1.299   0.397
50263W        W14471  19.549   1.757  13.984
50264W        W14472  17.137  19.064  11.438
50265W        W14473  11.300  35.965  13.928
50266W        W14474  19.567  40.982   3.867
50267W        W14475  42.468  24.201  14.863
50268W        W14476  19.173  42.022   4.639
50269W        W14477  18.276  28.475  10.966
50270W        W14478  36.009  38.542  13.892
50271W        W14479  43.433  39.381  14.491
50272W        W14480  17.630  22.174   2.717
50273W        W14481  25.131  28.141   5.141
50274W        W14482  11.751   9.293  13.959
50275W        W14483  31.514   7.309   0.434
50276W        W14484  20.049  20.652   3.826
50277W        W14485  32.018  22.602  13.891
50278W        W14486   4.290  40.467   0.474
50279W        W14487  40.880  27.490  14.863
50280W        W14488  37.868  37.572   9.994
50281W        W14489  26.679  38.877  11.384
50282W        W14490  14.192   0.804   1.346
50283W        W14491  27.182  20.638   2.821
50284W        W14492  34.974  37.554   0.316
50285W        W14493  30.969  43.507  13.916
50286W        W14494  38.031   4.725   0.327
50287W        W14495  15.693  11.326   1.713
50288W        W14496  38.012  27.047  11.115
50289W        W14497  35.014  12.817   4.138
50290W        W14498  22.109  44.409  14.318
50291W        W14499  31.612   2.746   2.832
50292W        W14500  44.379  24.597  10.953
50293W        W14501  34.957  16.679   4.820
50294W        W14502  28.517   4.735   1.227
50295W        W14503  21.222  19.538   2.832
50296W        W14504  13.294  35.979  14.295
50297W        W14505  22.164  18.138   0.352
50298W        W14506  36.524  27.563  14.760
50299W        W14507  21.189  26.641  11.586
50300W        W14508  23.731  11.338  11.992
50301W        W14509  30.530   8.691  10.600
50302W        W14510  22.701   8.888  11.078
50303W        W14511  19.703   4.281   0.774
50304W        W14512   2.784  15.635  12.523
50305W        W14513  24.655   3.383  13.493
50306W        W14514  33.876  29.580  13.408
50307W        W14515  43.798  29.116   0.905
50308W        W14516  20.523   7.895   3.862
50309W        W14517  24.216   0.432  11.385
50310W        W14518  19.689  15.808  10.507
50311W        W14519   4.332  15.726   4.628
50312W        W14520  12.315  32.569   0.444
50313W        W14521  16.077   8.192   2.269
50314W        W14522   1.847  14.724  11.945
50315W        W14523  20.544  35.429   1.782
50316W        W14524  43.981  41.518   0.734
50317W        W14525   1.928  36.970   1.815
50318W        W14526  29.966  17.171   1.395
50319W        W14527  44.958  27.970   1.258
50320W        W14528  11.185  28.933  10.611
50321W        W14529   9.761  40.802  13.307
50322W        W14530   0.869  20.183  14.407
50323W        W14531  38.975  32.907   3.263
50324W        W14532  42.415  18.655  12.041
50325W        W14533   7.198   9.341   0.306
50326W        W14534  26.665  44.261   5.303
50327W        W14535  24.137  37.949   3.727
50328W        W14536  43.796  16.169  10.488
50329W        W14537  42.851  25.540  13.395
50330W        W14538  31.609   4.909   4.619
50331W        W14539  19.723  39.836  12.860
50332W        W14540  23.585   6.860   0.780
50333W        W14541  40.402  21.538   2.871
50334W        W14542  13.139   9.211   4.772
50335W        W14543   4.235   6.893  12.386
50336W        W14544  23.731   4.901   0.746
50337W        W14545  12.729  43.815  14.317
50338W        W14546   4.937  27.565  11.437
50339W        W14547  40.485   5.836  14.377
50340W        W14548  35.557   6.908   1.737
50341W        W14549  42.459   3.718   2.697
50342W        W14550  32.401   2.385   0.800
50343W        W14551   6.783  29.444   1.328
50344W        W14552   9.702   7.676  12.033
50345W        W14553  42.921   7.695  13.352
50346W        W14554  18.776  11.755   1.302
50347W        W14555  26.619  21.054   2.824
50348W        W14556  26.070  14.163   4.167
50349W        W14557  22.518  12.262  14.906
50350W        W14558  21.025  12.256  14.968
50351W        W14559  40.409  20.685   3.209
50352W        W14560  21.725  41.407   0.258
50353W        W14561  28.624  42.919  11.868
50354W        W14562   0.428   9.223   1.774
50355W        W14563   3.826  39.924  13.324
50356W        W14564  28.655  42.360   0.930
50357W        W14565  22.590  23.689  11.996
50358W        W14566  35.516  10.321   2.727
50359W        W14567  12.725  27.094  14.918
50360W        W14568  36.455  34.087  10.902
50361W        W14569   0.385  18.180   2.376
50362W        W14570  44.349  24.052  13.309
50363W        W14571  31.414  19.246   2.686
50364W        W14572  41.955  41.508   3.237
50365W        W14573  36.904  31.595  14.953
50366W        W14574  24.580  26.997   1.850
50367W        W14575   5.895  43.293  12.459
50368W        W14576  44.497  29.931   1.710
50369W        W14577  44.797  43.370  12.499
50370W        W14578  30.020  21.227   2.211
50371W        W14579  40.911   5.705   3.170
50372W        W14580  44.272  41.485  12.975
50373W        W14581  44.855   9.208  14.915
50374W        W14582   7.814  21.609  14.920
50375W        W14583  17.769  21.144   0.247
50376W        W14584  15.621  17.250   5.197
50377W        W14585  25.021   6.375  13.830
50378W        W14586  29.593  32.887   3.759
50379W        W14587  24.487  40.052  12.487
50380W        W14588  35.475  42.889   0.355
50381W        W14589  34.054   5.313  11.381
50382W        W14590   8.735  41.827  10.942
50383W        W14591  24.483  34.051   0.358
50384W        W14592  30.523  41.382  13.356
50385W        W14593  30.467  42.896   1.819
50386W        W14594  13.330  15.685  10.950
50387W        W14595  17.306   2.435  12.438
50388W        W14596  26.636   0.367  12.094
50389W        W14597  19.541   1.966   4.149
50390W        W14598   0.307  31.116   0.729
50391W        W14599  22.126  26.697   1.776
50392W        W14600  43.786  42.396   2.783
50393W        W14601  11.637  44.444  13.345
50394W        W14602  16.795  41.846   1.434
50395W        W14603  10.164  13.731   0.298
50396W        W14604  41.917  16.277  12.465
50397W        W14605  36.016  26.693  13.519
50398W        W14606   2.786  31.085   4.220
50399W        W14607   4.905  15.616   2.412
50400W        W14608  27.003  27.533  12.064
50401W        W14609  14.610  43.901   2.768
50402W        W14610  16.695  25.667  13.319
50403W        W14611  29.644  14.182   0.297
50404W        W14612  22.519  12.251  12.355
50405W        W14613  18.556  30.639   1.286
50406W        W14614   9.760  36.543  11.913
50407W        W14615  15.097  21.244  13.987
50408W        W14616  42.027  31.092   2.667
50409W        W14617   3.219  33.589   3.310
50410W        W14618  21.740  33.991  14.413
50411W        W14619  35.081   1.944  12.507
50412W        W14620  32.913  29.959   0.806
50413W        W14621  19.135  22.566  10.414
50414W        W14622  40.308  38.035  13.857
50415W        W14623  19.732  13.219  12.876
50416W        W14624  41.834  43.298   1.387
50417W        W14625  39.935  27.188   3.258
50418W        W14626   8.304   5.715  11.111
50419W        W14627   5.787   2.875   4.176
50420W        W14628  24.655  13.339   0.864
50421W        W14629   2.758  18.189  12.069
50422W        W14630  27.113  16.230   3.215
50423W        W14631  41.885  21.135   4.130
50424W        W14632   0.313   2.370  12.550
50425W        W14633  43.491   4.726   3.228
50426W        W14634  26.187  39.870   0.471
50427W        W14635  40.520  22.736   1.311
50428W        W14636  17.606  42.031   1.836
50429W        W14637  13.633  12.681  14.774
50430W        W14638  11.802  36.852  10.444
50431W        W14639  15.586  26.508   1.863
50432W        W14640  33.931  34.901  13.049
50433W        W14641  29.665  42.819   9.927
50434W        W14642  13.757  20.251  13.932
50435W        W14643  40.456  14.681   0.748
50436W        W14644  36.934  16.276  12.933
50437W        W14645  28.502  12.758  11.091
50438W        W14646   3.872  42.017   1.754
50439W        W14647   7.813  21.116   4.270
50440W        W14648   1.840  37.922  14.391
50441W        W14649  43.844   6.849  12.838
50442W        W14650   6.388  13.341  14.862
50443W        W14651  43.792  11.279   3.765
50444W        W14652  32.581   3.770  12.964
50445W        W14653  44.990  34.466   0.762
50446W        W14654  29.920  35.858  10.408
50447W        W14655  35.079  32.553  14.338
50448W        W14656  38.337  36.934   1.266
50449W        W14657  14.752   0.349   4.628
50450W        W14658  40.463  15.751  12.837
50451W        W14659  23.518   9.371   0.264
50452W        W14660  31.632  14.107   1.388
50453W        W14661   7.258  34.396   2.229
50454W        W14662   8.210   2.962  12.984
50455W        W14663  15.658  44.799  13.956
50456W        W14664  29.102  36.546   1.298
50457W        W14665   2.761  44.821  13.968
50458W        W14666  11.621  17.297   0.305
50459W        W14667  34.031  28.544   2.327
50460W        W14668  30.041  28.025  11.113
50461W        W14669   2.772  19.773   4.185
50462W        W14670  35.502  10.812  12.892
50463W        W14671   3.870   7.678  11.427
50464W        W14672   3.387  38.874   1.331
50465W        W14673   5.924  14.289   1.255
50466W        W14674  17.659  38.520  12.940
50467W        W14675   8.295  32.577  12.388
50468W        W14676  27.513  17.679   1.258
50469W        W14677  15.158  19.589  14.965
50470W        W14678  13.656  40.969   4.241
50471W        W14679   2.763  33.905   0.893
50472W        W14680   6.311   8.207  11.607
50473W        W14681  12.341  37.537   2.204
50474W        W14682  18.288  25.098   4.630
50475W        W14683  29.978   3.292   3.677
50476W        W14684  19.097   1.911  13.856
50477W        W14685  44.770  10.834   0.349
50478W        W14686   8.352  15.123   4.740
50479W        W14687  10.161  39.559  11.374
50480W        W14688  25.710  35.361  14.475
50481W        W14689  11.699  15.724  14.829
50482W        W14690   6.221  31.984  10.955
50483W        W14691  22.591  15.123   0.867
50484W        W14692  37.543   3.397  11.122
50485W        W14693  12.849  43.483  12.505
50486W        W14694  20.639  12.342  11.535
50487W        W14695  17.105   7.273   5.190
50488W        W14696  30.971  30.439   9.946
50489W        W14697  25.135  17.784   0.859
50490W        W14698  15.111  32.554   3.331
50491W        W14699  12.716  35.583  14.974
50492W        W14700  17.567  12.618   2.880
50493W        W14701  34.609  17.740  11.404
50494W        W14702  30.070  39.962  12.070
50495W        W14703  24.143  35.514   2.362
50496W        W14704   7.404   7.196   2.866
50497W        W14705   0.962  10.229  10.411
50498W        W14706   6.185   1.905   4.698
50499W        W14707   2.434  35.545   3.759
50500W        W14708  10.375  20.262   2.685
50501W        W14709   3.406   3.249  12.562
50502W        W14710  40.355  15.807  12.467
50503W        W14711  21.590  29.647  11.608
50504W        W14712  16.120   0.398  10.413
50505W        W14713  11.690  21.133  13.492
50506W        W14714  11.676  27.004  12.451
50507W        W14715  11.763  43.872  12.967
50508W        W14716  14.277  30.913  12.047
50509W        W14717  13.694  30.948   4.796
50510W        W14718  15.220  16.659  11.393
50511W        W14719  20.754   8.818   5.299
50512W        W14720   3.887  23.608   3.383
50513W        W14721  18.731  39.964   3.328
50514W        W14722  44.808  26.466   5.321
50515W        W14723  26.593  29.668  14.851
50516W        W14724  38.993  23.225  10.566
50517W        W14725  20.065   3.369  10.550
50518W        W14726  44.930  34.931   0.398
50519W        W14727  44.989  16.149   3.647
50520W        W14728  34.887  33.879   1.437
50521W        W14729  37.409  30.073   0.922
50522W        W14730  15.119  12.173   4.675
50523W        W14731  11.781  39.483   4.736
50524W        W14732  28.096  28.612   4.281
50525W        W14733   1.751  10.668  14.467
50526W        W14734  37.076  24.654   0.313
50527W        W14735  23.644   6.268   4.211
50528W        W14736  10.642  11.324   4.707
50529W        W14737  13.620  29.967  12.827
50530W        W14738  27.535   4.857  13.476
50531W        W14739  30.563  41.010   3.337
50532W        W14740   3.940   8.802   5.291
50533W        W14741  11.664  26.102  10.643
50534W        W14742  18.787  37.005   1.694
50535W        W14743  14.750   3.871   0.766
50536W        W14744  12.617  19.278   4.235
50537W        W14745   6.895  12.187  10.601
50538W        W14746   1.452   9.318  11.444
50539W        W14747  17.241  26.495  12.017
50540W        W14748   6.713   1.251  12.501
50541W        W14749   1.977  16.281  11.955
50542W        W14750  37.885  31.021  14.345
50543W        W14751  24.636   3.713  12.511
50544W        W14752  32.101  28.488  12.380
50545W        W14753  22.017  28.492  13.833
50546W        W14754  38.011  18.782  11.577
50547W        W14755  36.036   3.710   3.740
50548W        W14756   0.258  25.967   2.833
50549W        W14757  30.525  42.008   3.167
50550W        W14758  42.456  29.013  10.616
50551W        W14759  13.732  18.232   1.375
50552W        W14760   8.226  31.995  14.017
50553W        W14761  39.340  21.528  10.625
50554W        W14762  35.426  20.036   4.195
50555W        W14763  26.584  17.174  14.343
50556W        W14764  21.243  18.273  11.552
50557W        W14765  15.145  30.932   0.946
50558W        W14766   0.322  33.107   9.584
50559W        W14767  31.142  28.043  11.914
50560W        W14768  28.580   5.249  13.831
50561W        W14769  41.328   5.395  14.996
50562W        W14770  29.599  20.070  12.975
50563W        W14771  28.068  24.665   5.167
50564W        W14772   5.320  29.596   3.721
50565W        W14773   6.878   6.358   2.271
50566W        W14774  43.977  22.120  14.935
50567W        W14775  37.432  20.670  14.892
50568W        W14776   1.447  27.629  13.843
50569W        W14777  15.694  15.154   0.765
50570W        W14778   1.433  40.910  13.451
50571W        W14779  25.171   3.354  12.341
50572W        W14780  28.938  18.706   3.667
50573W        W14781  26.139  18.760   0.739
50574W        W14782  30.045  22.118   3.219
50575W        W14783  15.291  17.782   2.325
50576W        W14784   7.670  42.922   1.805
50577W        W14785  18.145   0.920  13.803
50578W        W14786  15.087  21.618   3.259
50579W        W14787  11.650   7.293  13.419
50580W        W14788   2.442  13.280   2.397
50581W        W14789  37.575   7.179   4.200
50582W        W14790  41.292  39.026   1.211
50583W        W14791  13.207  40.474   4.142
50584W        W14792  20.158  37.898  10.488
50585W        W14793  16.760  17.798  14.944
50586W        W14794  40.797  15.258   2.188
50587W        W14795  27.665   8.327  14.808
50588W        W14796  36.901  14.789  10.613
50589W        W14797  19.663  40.378  11.927
50590W        W14798  40.969  10.315   0.346
50591W        W14799  39.970  36.936   0.313
50592W        W14800  42.385  41.503  13.327
50593W        W14801  12.132  30.989   1.695
50594W        W14802   8.816   1.355   2.237
50595W        W14803  25.674  22.508   0.398
50596W        W14804  32.486   2.389   3.286
50597W        W14805   3.801  39.421  12.892
50598W        W14806  22.060   7.341  10.115
50599W        W14807  12.235  13.749   2.828
50600W        W14808  29.465  33.037  14.898
50601W        W14809  44.987  18.624  13.060
50602W        W14810  20.679   6.749   0.967
50603W        W14811  11.834   3.408   2.789
50604W        W14812  32.890  14.658  10.072
50605W        W14813  39.808  34.407  13.965
50606W        W14814  10.682  20.257  12.545
50607W        W14815   7.695  30.552  10.541
50608W        W14816   4.210  17.177   2.404
50609W        W14817   1.806   9.282  12.380
50610W        W14818  39.881  43.421   4.190
50611W        W14819  34.437  10.160   4.181
50612W        W14820  23.732  26.631   3.189
50613W        W14821   6.226  36.983   1.861
50614W        W14822  17.097   1.816  10.456
50615W        W14823  15.809  40.426   0.309
50616W        W14824  35.367  36.413   3.320
50617W        W14825  44.477   7.785   0.836
50618W        W14826   1.238  38.569  11.609
50619W        W14827   4.329   5.766  10.593
50620W        W14828  15.821   9.704   1.908
50621W        W14829  22.186  23.690  13.544
50622W        W14830  32.944  39.875   0.265
50623W        W14831  43.812  33.588  12.962
50624W        W14832  42.457  31.975  10.616
50625W        W14833   0.975   5.730   1.880
50626W        W14834  26.552  34.990  11.578
50627W        W14835  38.325   2.250   4.149
50628W        W14836  10.737  14.096  11.501
50629W        W14837  31.033   1.283   1.860
50630W        W14838  40.513  20.558  10.988
50631W        W14839  38.510  29.929  13.861
50632W        W14840  24.072  15.601  14.840
50633W        W14841  15.688  11.130   4.744
50634W        W14842  42.374  34.525  11.392
50635W        W14843  28.146  27.617  10.489
50636W        W14844  17.217   0.895   4.218
50637W        W14845  21.544  32.627  11.595
50638W        W14846  22.745  37.049   0.276
50639W        W14847  35.057  29.131   3.243
50640W        W14848  33.946   1.955  12.965
50641W        W14849  37.894  13.600   4.646
50642W        W14850  37.433   6.374   0.788
50643W        W14851  23.733  36.588   1.906
50644W        W14852  20.628  31.467   2.196
50645W        W14853  43.296  19.081  13.985
50646W        W14854  28.535  23.038  12.065
50647W        W14855  11.866  43.275  11.456
50648W        W14856  19.722  35.895   1.403
50649W        W14857  31.608  41.372  10.987
50650W        W14858  12.721  25.627  12.988
50651W        W14859  33.968  16.590  10.419
50652W        W14860   5.241   2.770   2.824
50653W        W14861  29.514  22.549  10.161
50654W        W14862  12.217  25.588  11.069
50655W        W14863   4.915  28.097  13.010
50656W        W14864  18.610  13.632   3.804
50657W        W14865  20.581  10.733   1.377
50658W        W14866  17.796  36.465   1.337
50659W        W14867   5.244  26.190  12.854
50660W        W14868  42.377  22.727   0.828
50661W        W14869  25.484  22.097  10.444
50662W        W14870  11.642  27.507   1.342
50663W        W14871   9.150   9.740  14.761
50664W        W14872  28.988  44.925   3.309
50665W        W14873  37.079   3.416  13.910
50666W        W14874   8.781  23.020   1.447
50667W        W14875  36.070  32.888  10.468
50668W        W14876  39.897  15.761  14.813
50669W        W14877  27.092  38.368  14.496
50670W        W14878  17.132  21.103   1.869
50671W        W14879  21.613  34.017  12.072
50672W        W14880  35.532   9.765  14.309
50673W        W14881  17.274  23.162  10.599
50674W        W14882   9.783  28.587  12.504
50675W        W14883  10.733  41.304  13.323
50676W        W14884   1.445  26.568  10.500
50677W        W14885  30.082  10.300  12.939
50678W        W14886   5.400  22.170  12.472
50679W        W14887  22.127   6.725   2.828
50680W        W14888  22.691   3.274   4.184
50681W        W14889   2.878  38.358  11.857
50682W        W14890  38.492  35.853  12.451
50683W        W14891  24.025   1.960   3.173
50684W        W14892  16.233  36.390  12.394
50685W        W14893  37.359  20.561  10.609
50686W        W14894  10.865   4.911  13.990
50687W        W14895  21.213  28.973  10.008
50688W        W14896  36.378   9.151  14.885
50689W        W14897  38.466  12.817  10.896
50690W        W14898  30.104   0.473   4.115
50691W        W14899  21.074  32.634  12.993
50692W        W14900   3.359  10.232  14.796
50693W        W14901  15.149  22.724   4.726
50694W        W14902  26.481   2.384   1.715
50695W        W14903  34.110  15.677  13.057
50696W        W14904   7.274   7.337   3.264
50697W        W14905  33.428  27.541   2.670
50698W        W14906  22.088  25.556   0.408
50699W        W14907  33.403  37.886   1.300
50700W        W14908  36.081  14.199  14.764
50701W        W14909  40.802  36.460   0.312
50702W        W14910  31.581   7.754   2.848
50703W        W14911  36.524  24.984  10.556
50704W        W14912  22.738  20.741  12.832
50705W        W14913  22.225  19.105   0.464
50706W        W14914  18.108  43.930  14.839
50707W        W14915   0.328  13.757   1.813
50708W        W14916  37.507   5.730   2.271
50709W        W14917  37.074  22.507   1.447
50710W        W14918  27.665  23.116   3.647
50711W        W14919  11.160  31.958  14.994
50712W        W14920  27.117  20.234   4.770
50713W        W14921  32.604  17.637   0.415
50714W        W14922  29.424  43.328   4.630
50715W        W14923  43.292   4.890  12.399
50716W        W14924   2.437  26.998   4.749
50717W        W14925  25.089  44.869  13.349
50718W        W14926  21.183  42.350   2.850
50719W        W14927  18.129  20.678   2.749
50720W        W14928   2.929  25.484  11.885
50721W        W14929  32.970  13.794  12.961
50722W        W14930  27.134  43.400  13.418
50723W        W14931  26.187   6.233  12.087
50724W        W14932   7.265  38.520  14.466
50725W        W14933  31.646   9.787  11.084
50726W        W14934  14.124  21.675   4.734
50727W        W14935   2.248  21.091   0.426
50728W        W14936  15.226   9.833  13.386
50729W        W14937   5.931  24.650   1.881
50730W        W14938  25.182  21.080   4.330
50731W        W14939  14.743  37.865   0.764
50732W        W14940   4.413  33.609   0.408
50733W        W14941  40.869  15.270  10.995
50734W        W14942  40.483  37.437   0.442
50735W        W14943  43.942  24.173   3.730
50736W        W14944   2.840  21.643   0.325
50737W        W14945  33.058  40.402   1.930
50738W        W14946  13.281  23.170  13.418
50739W        W14947  31.545  32.065  11.443
50740W        W14948  30.614  38.934   4.709
50741W        W14949  22.094  29.493   2.760
50742W        W14950  18.133  17.713   3.762
50743W        W14951  29.541  44.446  11.073
50744W        W14952  36.036  11.761  14.392
50745W        W14953  41.786  25.117   0.269
50746W        W14954  15.739  18.256  14.406
50747W        W14955  30.538  26.643  14.275
50748W        W14956  18.630  10.795  10.920
50749W        W14957  15.801  13.821   4.704
50750W        W14958  27.176  10.698   0.886
50751W        W14959   1.777  39.422  14.411
50752W        W14960  19.177  21.046  11.405
50753W        W14961  10.787  39.319  11.487
50754W        W14962  44.352  14.198   2.848
50755W        W14963   1.342   7.792   2.847
50756W        W14964   8.869  12.725  13.917
50757W        W14965  12.809   9.234   5.131
50758W        W14966   3.753   4.389  14.500
50759W        W14967  30.573  35.975   3.633
50760W        W14968  18.620  20.067   2.246
50761W        W14969  44.997  33.885   1.883
50762W        W14970  27.998  24.552   3.356
50763W        W14971   7.712  43.346   1.786
50764W        W14972  32.892  25.072   4.688
50765W        W14973  43.976  25.651   0.908
50766W        W14974  33.585   4.876   2.701
50767W        W14975  14.825  44.858   0.962
50768W        W14976  22.024  24.988  11.060
50769W        W14977  30.999   4.402   3.701
50770W        W14978  11.786  14.180   2.187
50771W        W14979  15.187  23.494   2.351
50772W        W14980   0.765  28.479  13.454
50773W        W14981   6.683  41.337   3.823
50774W        W14982  15.291  32.585   2.345
50775W        W14983  19.740  26.202   0.752
50776W        W14984  21.260  40.484  12.947
50777W        W14985  20.095  24.022  13.539
50778W        W14986  10.733   4.766   3.214
50779W        W14987  31.944  32.462  14.902
50780W        W14988  13.331  43.492   1.932
50781W        W14989  44.259   3.955  13.331
50782W        W14990  16.660   5.390  12.949
50783W        W14991  34.429   2.268   0.793
50784W        W14992  28.455   3.355   1.826
50785W        W14993   7.778  14.189  12.924
50786W        W14994   5.927  37.523   4.828
50787W        W14995  27.161   5.894   1.446
50788W        W14996  29.491  40.024  11.001
50789W        W14997   0.742  28.157  11.518
50790W        W14998   6.813  15.810   0.408
50791W        W14999  13.350  24.013  13.359
50792W        W15000  38.434  17.586   1.386
50793W        W15001  16.077  32.432   0.333
50794W        W15002  37.032  24.051  12.553
50795W        W15003  42.429  16.760  13.413
50796W        W15004  30.038  33.916  11.881
50797W        W15005  15.674   5.749  12.526
50798W        W15006  20.735   9.839  11.533
50799W        W15007   6.722   1.873  10.930
50800W        W15008  39.394   2.863  10.994
50801W        W15009  38.415  26.610  13.916
50802W        W15010   7.229  43.395  13.518
50803W        W15011  41.451   4.827   0.830
50804W        W15012  20.754  12.788  13.434
50805W        W15013  14.185  20.658   3.351
50806W        W15014  21.559  10.372  10.997
50807W        W15015  26.524   2.722   2.408
50808W        W15016  33.476   8.842  11.956
50809W        W15017  13.247   0.455  13.818
50810W        W15018   0.351  11.833   2.688
50811W        W15019   3.889  44.877   1.848
50812W        W15020  10.691  34.390  13.824
50813W        W15021  11.286  31.622   2.897
50814W        W15022   1.930  31.943   1.278
50815W        W15023  38.022  23.086   3.632
50816W        W15024  35.390  33.043  14.392
50817W        W15025  39.062   3.895   2.373
50818W        W15026  36.093  25.667   5.151
50819W        W15027  12.358  33.527   3.786
50820W        W15028  38.050  38.072  14.325
50821W        W15029  10.366  27.980  13.322
50822W        W15030  31.059  16.154  11.918
50823W        W15031  42.868  28.939  13.332
50824W        W15032   3.810  20.204   3.860
50825W        W15033  14.708  32.112  11.976
50826W        W15034  33.417  12.136   4.801
50827W        W15035  37.477  26.063   4.694
50828W        W15036   4.936  29.469  12.912
50829W        W15037  43.834  44.763  11.552
50830W        W15038  15.776  43.890   2.732
50831W        W15039  11.756   8.675   3.239
50832W        W15040  10.649  22.528   1.910
50833W        W15041  21.032  16.603   0.344
50834W        W15042  10.840  25.617   0.320
50835W        W15043  22.060  17.099  14.964
50836W        W15044  13.828  14.815  14.816
50837W        W15045  15.665   8.742  13.924
50838W        W15046   1.436  40.866   4.301
50839W        W15047  16.784  21.539   3.152
50840W        W15048  25.103  14.146   2.312
50841W        W15049  17.710  30.534   3.213
50842W        W15050  43.510  13.231   0.751
50843W        W15051   7.886  17.237  12.509
50844W        W15052  14.304  27.175  14.331
50845W        W15053  44.756  17.578   4.784
50846W        W15054  43.322  40.414   2.341
50847W        W15055  37.482  31.918   2.888
50848W        W15056  33.029  25.215   0.265
50849W        W15057  32.117  32.111   3.351
50850W        W15058  35.092  33.447  13.914
50851W        W15059  19.703  39.423   4.294
50852W        W15060   4.438   7.848  14.440
50853W        W15061  35.861   7.686  13.920
50854W        W15062  26.056   1.302  10.935
50855W        W15063  26.077   4.337  13.451
50856W        W15064  35.105  26.201   2.758
50857W        W15065  44.761  28.555   0.352
50858W        W15066   7.393  36.511  10.929
50859W        W15067   7.828  39.051  12.576
50860W        W15068  33.051  36.422   4.692
50861W        W15069  22.529  40.876   4.781
50862W        W15070  34.485  33.039   4.350
50863W        W15071  20.032  31.131   0.795
50864W        W15072  17.745  29.092  10.583
50865W        W15073  21.249   1.805   0.967
50866W        W15074  25.039   5.827  10.460
50867W        W15075   2.797  35.981  13.806
50868W        W15076  16.290  14.119  13.351
50869W        W15077  34.070  30.611   3.770
50870W        W15078  12.207   9.889  11.465
50871W        W15079  15.681  18.718   2.375
50872W        W15080  35.388  28.959  13.339
50873W        W15081   7.312  30.003   0.403
50874W        W15082  15.815  26.205  14.833
50875W        W15083  44.924  11.829  13.877
50876W        W15084  41.006  35.394   2.322
50877W        W15085   1.268   5.260   5.288
50878W        W15086   4.764  38.952   5.219
50879W        W15087  43.509  11.275   1.908
50880W        W15088   9.328  18.089  11.856
50881W        W15089  22.066   5.280   0.383
50882W        W15090  41.537  40.048   4.747
50883W        W15091  38.849  36.570  11.859
50884W        W15092  32.456  33.009  12.094
50885W        W15093  10.861  44.354   1.432
50886W        W15094   8.726   0.926  14.495
50887W        W15095  37.336  10.293  11.461
50888W        W15096  37.377  16.312   1.304
50889W        W15097  28.491  11.358  10.905
50890W        W15098  41.820  31.926  10.012
50891W        W15099  33.047  27.598  11.441
50892W        W15100  17.127  42.808   1.826
50893W        W15101  17.711  42.478  12.841
50894W        W15102  41.792   8.805   1.790
50895W        W15103  36.365  15.782   1.852
50896W        W15104  42.444  24.213   4.309
50897W        W15105   8.841  24.058  13.420
50898W        W15106  14.208   4.370   0.415
50899W        W15107  18.174  29.525  13.061
50900W        W15108  26.473   2.869  11.115
50901W        W15109  10.164  25.993   3.200
50902W        W15110  17.152  19.170   9.990
50903W        W15111  25.017  13.808   4.653
50904W        W15112  33.538  22.735  11.902
50905W        W15113   4.891  15.103   2.308
50906W        W15114   5.760  23.102  11.866
50907W        W15115  38.889  33.933   0.368
50908W        W15116  35.910  29.959   4.627
50909W        W15117  20.601  38.443  13.064
50910W        W15118  32.557   2.331  12.083
50911W        W15119  33.530  32.393  12.069
50912W        W15120  11.830  26.488  10.089
50913W        W15121   0.938   5.401   3.376
50914W        W15122  42.028  35.473  10.515
50915W        W15123  41.345  26.523  13.442
50916W        W15124  19.670  14.799  13.876
50917W        W15125  33.505  42.499   1.344
50918W        W15126  17.304  15.276   0.912
50919W        W15127  37.388  38.040   4.201
50920W        W15128  32.417  36.084  11.398
50921W        W15129  40.812   4.394   3.166
50922W        W15130  27.045  13.649  11.534
50923W        W15131  36.527  10.685  11.976
50924W        W15132   5.709  16.616  14.861
50925W        W15133  18.683  20.269   3.657
50926W        W15134  16.258   7.211  11.579
50927W        W15135   6.202  10.302  12.974
50928W        W15136  10.790  29.170  10.547
50929W        W15137  37.349  39.349   3.246
50930W        W15138  22.743  41.035   1.876
50931W        W15139  17.149   5.925  10.902
50932W        W15140  31.990  12.622   1.343
50933W        W15141  23.066  43.514  10.897
50934W        W15142  21.649  41.345  14.464
50935W        W15143   9.245  37.353   4.812
50936W        W15144   0.472   5.194  11.934
50937W        W15145  40.405  13.813  11.994
50938W        W15146  27.492  29.115  14.987
50939W        W15147   4.253  44.400  12.508
50940W        W15148  36.551  16.786   0.937
50941W        W15149  26.099  36.567   4.670
50942W        W15150   8.845  35.570  12.349
50943W        W15151  28.645   0.336  13.012
50944W        W15152  25.209   3.912   0.815
50945W        W15153  34.065  13.731  12.002
50946W        W15154  14.221  21.039   2.779
50947W        W15155  31.029  31.079  11.531
50948W        W15156  42.408  16.594   5.199
50949W        W15157  35.382   3.912  12.928
50950W        W15158  18.625  22.606   5.100
50951W        W15159  16.569  25.192  14.317
50952W        W15160  38.425  15.652  13.430
50953W        W15161  37.027  20.043  12.057
50954W        W15162  29.504   2.471  10.978
50955W        W15163  32.410  16.590   4.227
50956W        W15164  20.260  15.119   2.717
50957W        W15165  32.394  27.067   0.310
50958W        W15166  38.446   4.904   3.197
50959W        W15167  34.925  42.858  11.016
50960W        W15168  15.289  18.785   1.772
50961W        W15169  10.372  20.120   5.128
50962W        W15170  32.590  41.347  13.992
50963W        W15171  36.523  43.900   3.287
50964W        W15172  36.358  40.835   3.354
50965W        W15173  17.199  32.994  10.482
50966W        W15174  30.588  23.090  13.484
50967W        W15175   7.717  11.839   0.311
50968W        W15176  40.525   9.185   1.704
50969W        W15177   6.356  20.603   2.284
50970W        W15178   2.832  43.405  10.892
50971W        W15179  37.022   7.399   2.716
50972W        W15180  26.997  32.982  12.960
50973W        W15181  38.539  29.644  11.943
50974W        W15182   5.208  30.033  14.300
50975W        W15183  43.493  13.829  14.961
50976W        W15184  37.454  17.690   0.825
50977W        W15185  44.394   4.704   3.166
50978W        W15186  35.415  11.829  11.526
50979W        W15187  28.492   9.870  14.388
50980W        W15188  28.615  42.800  13.029
50981W        W15189  28.563  37.885  13.309
50982W        W15190  28.581   2.796  12.357
50983W        W15191  25.575   9.750  10.424
50984W        W15192  33.000  27.195  11.432
50985W        W15193  17.079  38.571   3.274
50986W        W15194  43.284  34.082  12.907
50987W        W15195   7.896   4.251   3.745
50988W        W15196  20.071  32.125   2.792
50989W        W15197  40.379  36.375  10.639
50990W        W15198  33.119  30.525  10.465
50991W        W15199  41.024  11.162  11.955
50992W        W15200   4.813   2.868   3.231
50993W        W15201  44.795  37.900   0.331
50994W        W15202  34.115  24.074  10.455
50995W        W15203  43.804  17.243  13.476
50996W        W15204  25.169  30.498   2.809
50997W        W15205  19.115  39.461   0.869
50998W        W15206  11.775  30.005   2.183
50999W        W15207  27.586  13.293  10.506
51000W        W15208  35.457  10.840  14.025
51001W        W15209   4.444  35.436  12.910
51002W        W15210  10.700   9.331   3.344
51003W        W15211   4.223  35.862  11.494
51004W        W15212  24.147  19.076  12.513
51005W        W15213  28.128  11.741   0.868
51006W        W15214  30.557  29.946  11.003
51007W        W15215  16.277  33.926   3.772
51008W        W15216   8.180  39.921   1.772
51009W        W15217   5.751  43.014  13.926
51010W        W15218  32.437  36.462  14.376
51011W        W15219  22.211   8.754   3.681
51012W        W15220  18.056  33.506  12.410
51013W        W15221   6.896   7.791  14.922
51014W        W15222  31.646  24.646   0.898
51015W        W15223  32.003  44.830  12.953
51016W        W15224  26.652  10.744  14.388
51017W        W15225  18.600  42.524   0.277
51018W        W15226   4.804  11.847  14.808
51019W        W15227  26.690  10.868   3.309
51020W        W15228  24.522   7.908  11.576
51021W        W15229  14.700  18.272   0.736
51022W        W15230  29.053  10.753  14.311
51023W        W15231  42.795  36.553   2.854
51024W        W15232  16.800  16.647  10.909
51025W        W15233  33.114  23.153   0.897
51026W        W15234  43.878  15.300   1.449
51027W        W15235  41.956   6.855  12.381
51028W        W15236  44.316  14.276   3.258
51029W        W15237  37.963  42.526  13.540
51030W        W15238  10.704  30.414   1.907
51031W        W15239  25.006  12.801   4.738
51032W        W15240   1.748  44.386   1.810
51033W        W15241  19.632  36.429  13.394
51034W        W15242   0.381   3.335  10.090
51035W        W15243  33.915  15.610   2.271
51036W        W15244  44.440  32.432   9.925
51037W        W15245  11.278  17.070   1.901
51038W        W15246  35.530  39.838   2.183
51039W        W15247  35.955  21.220   1.325
51040W        W15248  44.272  16.794   3.332
51041W        W15249  17.615  32.122  10.500
51042W        W15250  33.065   4.710  12.574
51043W        W15251  44.931  42.316  13.505
51044W        W15252  11.219  43.454  11.860
51045W        W15253  14.790  21.683  14.311
51046W        W15254  39.492  37.873  13.988
51047W        W15255   2.789   7.680  13.427
51048W        W15256  41.889   5.254   3.702
51049W        W15257   7.861   3.355   4.322
51050W        W15258  23.209   9.264  12.425
51051W        W15259  27.543   2.286  11.967
51052W        W15260  13.288  12.664  10.910
51053W        W15261  39.550  13.705   4.723
51054W        W15262  28.168  14.652  14.291
51055W        W15263  10.741  17.079   4.273
51056W        W15264  38.480  11.800  13.343
51057W        W15265  33.048  19.663  11.435
51058W        W15266  17.164  27.642   2.770
51059W        W15267  15.711  44.905   1.391
51060W        W15268  21.702   3.827   3.215
51061W        W15269  37.401  38.075   5.142
51062W        W15270  10.279  37.955   2.713
51063W        W15271  14.298  13.287  11.049
51064W        W15272  26.972  30.011   1.934
51065W        W15273  18.568  11.364  13.363
51066W        W15274  37.536  42.008   1.712
51067W        W15275  33.928  19.566   3.737
51068W        W15276  18.142   1.851  10.426
51069W        W15277   9.267  41.351   9.922
51070W        W15278  30.521  37.897   2.408
51071W        W15279  19.683  42.868  11.024
51072W        W15280  12.772  37.948  14.772
51073W        W15281  19.734  22.012   0.409
51074W        W15282  25.210  16.694  11.955
51075W        W15283  34.074  25.215   0.262
51076W        W15284  39.396  32.905   4.599
51077W        W15285   2.430  12.312  11.041
51078W        W15286   1.448  33.391  11.025
51079W        W15287  18.193  20.166   3.161
51080W        W15288   6.376  44.885  13.351
51081W        W15289  25.971  44.469   1.716
51082W        W15290  27.978  37.026   4.249
51083W        W15291  43.810  34.585   1.212
51084W        W15292  32.045  37.398   2.687
51085W        W15293   1.879  28.519  12.465
51086W        W15294  32.467  11.794  14.500
51087W        W15295  29.987  10.289  11.111
51088W        W15296   8.194  21.565   2.297
51089W        W15297  35.364  37.545  14.473
51090W        W15298  41.386  42.012  12.065
51091W        W15299  10.842  11.132   5.286
51092W        W15300  18.591  18.230  10.439
51093W        W15301  31.944  13.666  12.384
51094W        W15302   8.701  12.329   2.364
51095W        W15303   9.348  17.266  12.072
51096W        W15304  13.601  39.521   4.660
51097W        W15305  15.697  37.880  14.999
51098W        W15306   7.336   1.352  13.493
51099W        W15307  40.324  44.825   3.734
51100W        W15308  11.219  12.232  10.619
51101W        W15309  11.300   3.955  14.770
51102W        W15310  16.606   4.209   4.296
51103W        W15311   6.681  29.563   4.337
51104W        W15312  33.612  37.462  13.500
51105W        W15313  26.620   4.357   2.828
51106W        W15314   0.858  40.374  14.892
51107W        W15315  22.152  38.052   4.172
51108W        W15316  15.700  21.076  11.512
51109W        W15317   0.944  19.098  10.945
51110W        W15318  39.429  30.458   4.618
51111W        W15319  40.353  37.512  14.420
51112W        W15320  12.241  40.420  11.074
51113W        W15321  43.945  13.705  14.947
51114W        W15322  12.620  43.455   3.667
51115W        W15323   8.899  13.718  12.512
51116W        W15324  15.240  11.328  11.410
51117W        W15325  37.841  30.155   4.611
51118W        W15326  10.785  26.074   0.308
51119W        W15327   4.798   6.788  11.064
51120W        W15328  30.064  36.493   0.384
51121W        W15329  39.000  12.184  14.957
51122W        W15330  15.239  20.526   4.300
51123W        W15331  30.981  13.175   3.777
51124W        W15332  43.886   2.465  12.983
51125W        W15333  22.183  34.885   1.230
51126W        W15334   6.750   6.849   1.376
51127W        W15335  41.409  21.205   4.769
51128W        W15336  15.737  33.542  13.508
51129W        W15337  15.137  27.657  11.863
51130W        W15338  29.565  32.561   0.884
51131W        W15339  23.629  35.925  13.800
51132W        W15340  25.111  30.950  13.377
51133W        W15341  39.530  22.679   3.866
51134W        W15342  22.530  42.376   1.877
51135W        W15343  36.082  22.144   3.250
51136W        W15344  35.093  31.598   3.735
51137W        W15345   4.386  23.629   3.775
51138W        W15346  21.019  12.636  11.073
51139W        W15347  41.528   0.391   1.442
51140W        W15348  23.041  32.623  11.454
51141W        W15349   9.295   8.790   4.224
51142W        W15350   3.402  27.534  13.947
51143W        W15351  22.016  28.043   4.834
51144W        W15352  42.960  30.622  13.986
51145W        W15353  35.058  43.452  12.085
51146W        W15354  30.473  19.069  11.554
51147W        W15355   1.309  34.884  13.003
51148W        W15356  24.149  28.593   1.845
51149W        W15357  22.036  34.610  14.934
51150W        W15358  34.448  14.184  11.870
51151W        W15359  17.706   8.226  14.909
51152W        W15360   3.785  39.487   4.632
51153W        W15361  11.191  41.393  11.017
51154W        W15362  34.003   6.292  10.628
51155W        W15363  14.664   9.791  14.761
51156W        W15364  15.704  23.024   1.909
51157W        W15365  26.477  21.705  13.474
51158W        W15366  11.805  33.900   1.813
51159W        W15367  24.107  13.779  11.907
51160W        W15368   6.712  16.170  14.866
51161W        W15369  27.988   3.353   1.280
51162W        W15370   1.280  34.462   2.343
51163W        W15371  27.954  27.055   1.347
51164W        W15372  40.466   5.332   5.213
51165W        W15373  30.929  29.047  12.548
51166W        W15374   9.722   4.228   3.190
51167W        W15375   1.295  34.070   4.828
51168W        W15376  31.410  28.159  14.777
51169W        W15377  36.507  27.482  11.907
51170W        W15378  21.626  40.398  13.061
51171W        W15379  12.855  17.116   2.690
51172W        W15380  13.801  15.278   2.720
51173W        W15381  31.537  37.053  12.012
51174W        W15382  20.075  17.250   1.241
51175W        W15383   5.738   8.275  14.479
51176W        W15384  14.240  29.502   1.306
51177W        W15385  14.739   3.771  11.438
51178W        W15386  29.000  35.492   3.813
51179W        W15387  15.788  28.635  11.429
51180W        W15388  41.384   5.898   3.374
51181W        W15389  20.539  11.622   1.394
51182W        W15390  38.000  26.512   1.407
51183W        W15391   4.809   5.258   0.947
51184W        W15392  41.916  42.343  10.997
51185W        W15393  38.369  42.941  14.859
51186W        W15394  33.026  22.070   3.632
51187W        W15395  41.985   3.783  10.985
51188W        W15396  13.764   1.841  12.825
51189W        W15397  13.774  30.984   0.746
51190W        W15398   8.343   5.250   0.400
51191W        W15399  32.978  13.214   1.297
51192W        W15400  21.091   1.914  13.943
51193W        W15401  26.638  19.229  12.506
51194W        W15402  12.209  38.043  13.398
51195W        W15403   5.194  11.744  12.875
51196W        W15404   8.894   2.372   0.778
51197W        W15405   9.741  25.542   1.274
51198W        W15406   9.311  32.113   1.357
51199W        W15407  19.282  16.077   3.808
51200W        W15408   9.289  21.122   2.346
51201W        W15409  42.520  35.934   4.180
51202W        W15410   0.919  28.676  13.849
51203W        W15411   2.363  31.493  11.038
51204W        W15412  44.502  21.523  12.922
51205W        W15413  41.523   2.391   3.377
51206W        W15414   0.345   7.881   3.781
51207W        W15415   6.382  30.502   0.755
51208W        W15416   4.266  43.873   1.340
51209W        W15417  14.240  41.849  13.420
51210W        W15418  30.914   8.758  14.899
51211W        W15419  26.026  39.997  13.497
51212W        W15420  21.048   1.252  10.536
51213W        W15421  39.058   7.302  11.050
51214W        W15422   9.649  42.506   1.412
51215W        W15423  40.928  14.591   4.612
51216W        W15424   4.937  40.001  13.958
51217W        W15425   1.346   4.345   1.283
51218W        W15426   8.235  35.402  11.395
51219W        W15427  25.031  18.097  14.872
51220W        W15428   5.825  15.803   3.341
51221W        W15429  44.279   1.805  13.429
51222W        W15430  31.942  35.039   5.178
51223W        W15431  16.704  41.792   4.600
51224W        W15432  41.465  31.933   0.875
51225W        W15433  41.467  36.043   3.283
51226W        W15434  36.566  28.657   3.293
51227W        W15435  31.486   7.890  14.484
51228W        W15436  19.244  26.166   1.441
51229W        W15437  30.445  40.360   2.312
51230W        W15438  43.294  18.066   5.148
51231W        W15439  38.381  36.414  13.969
51232W        W15440  34.915  33.612   1.444
51233W        W15441  20.188  35.411  14.925
51234W        W15442  33.062  26.504   3.220
51235W        W15443   8.850  41.791   0.831
51236W        W15444  44.777  42.927   0.865
51237W        W15445  42.440  30.527   2.771
51238W        W15446  32.938  18.575   3.364
51239W        W15447  33.587   5.703   4.726
51240W        W15448  31.000  34.605   3.291
51241W        W15449   7.366  32.622  13.461
51242W        W15450   3.801  36.392   1.798
51243W        W15451  14.736  25.083  13.441
51244W        W15452  19.155  42.311   3.676
51245W        W15453  33.493  20.157   4.180
51246W        W15454  16.147  33.428  11.521
51247W        W15455  21.754  27.097  14.378
51248W        W15456  40.850  27.669   1.425
51249W        W15457   9.297  44.280   9.958
51250W        W15458  16.254   3.336   2.216
51251W        W15459  36.933  36.074   3.152
51252W        W15460  10.312  25.192  14.354
51253W        W15461  40.022   0.829   4.625
51254W        W15462  26.467   7.235  11.506
51255W        W15463   0.918  12.703   5.127
51256W        W15464  18.573  22.737  12.948
51257W        W15465  29.980  38.515   0.280
51258W        W15466  28.678  39.511   2.267
51259W        W15467  36.412  12.210  10.955
51260W        W15468  14.266  33.960  12.512
51261W        W15469  22.118  43.814   3.363
51262W        W15470  42.291   1.850   2.823
51263W        W15471   6.768   3.855  10.614
51264W        W15472  21.690  25.093  11.004
51265W        W15473  14.815  21.024  13.466
51266W        W15474  15.673  33.488   3.659
51267W        W15475  36.030  31.141   1.719
51268W        W15476  27.569  10.772   3.691
51269W        W15477  39.994  38.017   2.302
51270W        W15478   2.386   0.446   0.361
51271W        W15479  37.046  28.502  11.540
51272W        W15480   2.951  29.527   1.319
51273W        W15481   1.417  24.708   4.723
51274W        W15482  39.942  35.379  12.413
51275W        W15483  14.648   9.823   0.411
51276W        W15484  21.042  20.086  10.976
51277W        W15485  30.424  24.175   4.756
51278W        W15486   2.952  37.890  12.925
51279W        W15487  13.697  11.268  14.371
51280W        W15488  17.147  13.322   3.729
51281W        W15489  25.047   7.289  10.981
51282W        W15490  43.464  13.265   1.359
51283W        W15491  25.208  34.962   0.912
51284W        W15492  12.245  41.949  12.434
51285W        W15493  32.596  29.660  14.479
51286W        W15494  20.541  42.946  12.941
51287W        W15495  37.473   8.319   2.265
51288W        W15496  19.193  43.343  10.428
51289W        W15497   3.903  28.174   2.363
51290W        W15498  38.515  30.495  12.037
51291W        W15499  40.530   5.311  12.980
51292W        W15500  30.516  39.515  12.541
51293W        W15501  26.196  27.944   1.785
51294W        W15502  41.828  11.249  11.067
51295W        W15503   4.211   9.761   4.604
51296W        W15504  22.024  24.636   2.400
51297W        W15505   0.291  29.093   3.378
51298W        W15506  13.208  11.228  13.495
51299W        W15507  10.377  43.325  12.431
51300W        W15508  15.216  30.145   4.771
51301W        W15509  11.310  38.506  13.981
51302W        W15510  43.346  33.876   3.369
51303W        W15511   3.383  44.478  10.479
51304W        W15512  33.430   5.321  12.912
51305W        W15513  21.721   2.320  14.768
51306W        W15514  37.350  41.865   4.295
51307W        W15515   6.254   6.848   2.267
51308W        W15516   8.710   0.364   2.194
51309W        W15517  19.653  16.633  13.473
51310W        W15518  42.522  44.455  11.395
51311W        W15519  34.096  27.505  12.028
51312W        W15520  12.751  28.505  12.838
51313W        W15521   4.337  13.343   3.649
51314W        W15522   0.337  28.452  13.487
51315W        W15523  37.578  15.644  14.437
51316W        W15524   7.682   6.704   1.447
51317W        W15525  22.706  29.032   0.786
51318W        W15526  38.508  22.108   2.820
51319W        W15527  25.521  25.698  13.326
51320W        W15528  39.320  28.096   0.334
51321W        W15529   8.247  38.491   2.333
51322W        W15530  22.063  30.602   1.411
51323W        W15531   1.772  11.242   1.702
51324W        W15532  16.792  39.980   1.249
51325W        W15533  36.869   7.687   4.690
51326W        W15534  31.597  44.823  13.506
51327W        W15535  14.160  10.272   1.740
51328W        W15536  28.565   6.691   1.244
51329W        W15537  23.122   7.358   3.808
51330W        W15538  35.450  40.824   2.394
51331W        W15539  31.531  36.372  14.346
51332W        W15540  21.677   0.960   0.295
51333W        W15541   2.873  41.309  10.404
51334W        W15542  28.555  23.099   4.820
51335W        W15543  16.191  26.485   3.320
51336W        W15544  20.125  33.098  13.544
51337W        W15545  36.373  35.075   2.313
51338W        W15546   8.774   2.745   0.922
51339W        W15547   2.829  10.788  12.892
51340W        W15548  25.119  29.642  14.955
51341W        W15549  29.142  31.120  11.592
51342W        W15550  18.230  29.108  13.859
51343W        W15551  21.667  19.625   4.159
51344W        W15552  14.261   2.359  10.609
51345W        W15553  42.489  27.565  11.022
51346W        W15554  37.374  36.592   3.267
51347W        W15555  22.569  16.166   2.222
51348W        W15556  29.137   3.900  14.408
51349W        W15557  33.026   8.884   3.674
51350W        W15558  23.602  25.467   4.118
51351W        W15559  29.938   3.800  13.364
51352W        W15560  15.777   5.431   3.230
51353W        W15561  30.157  16.786  10.560
51354W        W15562   4.853  33.058   0.400
51355W        W15563  28.017   3.368   3.830
51356W        W15564  34.032   4.443  11.072
51357W        W15565   3.892   1.887  12.927
51358W        W15566  10.697  29.941  13.539
51359W        W15567  19.638   9.362   3.854
51360W        W15568   9.257   4.257  10.469
51361W        W15569  20.766  35.982  12.836
51362W        W15570  22.131   5.266   1.385
51363W        W15571  25.022  40.546   4.135
51364W        W15572  35.939  32.014  14.920
51365W        W15573  15.694   8.670   0.734
51366W        W15574  20.247  41.873  13.864
51367W        W15575   4.428  36.992  14.994
51368W        W15576  20.752  26.651   4.304
51369W        W15577  13.339  22.709  10.894
51370W        W15578  11.819   5.847  10.547
51371W        W15579   6.718  16.292  13.014
51372W        W15580  24.979  37.392   0.757
51373W        W15581  13.287  23.214   1.855
51374W        W15582  26.603  16.694   2.320
51375W        W15583  29.146  19.143   2.890
51376W        W15584  26.983  16.210   1.432
51377W        W15585  41.304  10.337   2.380
51378W        W15586  40.872   7.273  10.639
51379W        W15587   6.808   9.806  12.084
51380W        W15588  41.019  22.063   4.353
51381W        W15589  38.826  41.302  10.027
51382W        W15590  30.107  32.442   1.725
51383W        W15591  35.578  25.641  13.415
51384W        W15592   1.886   1.249   3.299
51385W        W15593  42.492  30.002   2.778
51386W        W15594  13.812  24.186   2.702
51387W        W15595  38.037  25.159   1.859
51388W        W15596  44.781   7.710  13.878
51389W        W15597  35.421  18.269   0.403
51390W        W15598  24.223  24.663   1.433
51391W        W15599  39.979   5.734  12.061
51392W        W15600  24.658  16.139  10.632
51393W        W15601   8.672   0.827  12.842
51394W        W15602  24.158  25.692   4.271
51395W        W15603  43.902  22.533  13.857
51396W        W15604  27.994  11.145   2.253
51397W        W15605   5.744   2.773   2.209
51398W        W15606   4.405  20.533   2.726
51399W        W15607  21.591   2.449  13.488
51400W        W15608  39.828  41.536   3.219
51401W        W15609  15.672  21.664  10.447
51402W        W15610   9.319  24.483   1.295
51403W        W15611  21.667  42.515   2.876
51404W        W15612  28.601  12.342   2.203
51405W        W15613  28.019   1.750   2.199
51406W        W15614  27.995  31.903   1.727
51407W        W15615  32.992  37.580   2.808
51408W        W15616  36.991  40.473  11.956
51409W        W15617  35.546  24.208   0.266
51410W        W15618  37.517  16.299  13.376
51411W        W15619   4.938  28.495  14.839
51412W        W15620  43.957  29.944  14.869
51413W        W15621   9.265  38.922  13.487
51414W        W15622  21.250  16.646   4.181
51415W        W15623  44.765   3.808  14.316
51416W        W15624  15.821  30.445  12.435
51417W        W15625  14.730  16.648   1.230
51418W        W15626  40.500  14.807  12.348
51419W        W15627  33.919  11.834  14.861
51420W        W15628   1.950  30.985   5.781
51421W        W15629  35.056  37.377   0.887
51422W        W15630  31.931  25.054  10.041
51423W        W15631   6.756  36.457   1.911
51424W        W15632   6.689  40.533   3.745
51425W        W15633   3.449  36.934  12.849
51426W        W15634  33.977  39.823  13.375
51427W        W15635   8.724  20.181  12.942
51428W        W15636  39.948  25.125   4.833
51429W        W15637  37.440   7.203  12.834
51430W        W15638  23.623  27.632   0.754
51431W        W15639  35.383  38.473   0.781
51432W        W15640  15.743  41.840   3.325
51433W        W15641  26.078  43.441  10.618
51434W        W15642  13.190  24.983   1.374
51435W        W15643  11.226   2.354  12.092
51436W        W15644  39.969   5.198  11.551
51437W        W15645  41.797  15.228   0.325
51438W        W15646  10.287  26.461  14.979
51439W        W15647  28.981  21.156   2.756
51440W        W15648  10.816  43.425   4.712
51441W        W15649   1.482   5.225  14.343
51442W        W15650   2.876  38.348   3.698
51443W        W15651  15.140  38.068  12.529
51444W        W15652   2.852  28.087  10.427
51445W        W15653   4.873   4.765   1.771
51446W        W15654  39.334  10.307  12.469
51447W        W15655  40.358  30.645   9.930
51448W        W15656  17.180  38.450  14.461
51449W        W15657  25.207  13.334  11.572
51450W        W15658  10.186  35.091  13.824
51451W        W15659  24.616  38.880   0.777
51452W        W15660  26.038  29.516  13.958
51453W        W15661  38.930   8.711   3.259
51454W        W15662  20.529  15.182   1.759
51455W        W15663  35.986  13.119   2.181
51456W        W15664  24.039   7.845   0.865
51457W        W15665  19.216   6.868   0.748
51458W        W15666  15.695  37.507   2.668
51459W        W15667   7.741   5.326  14.939
51460W        W15668  40.852  40.858  13.936
51461W        W15669  13.827  11.193   0.780
51462W        W15670  33.007  14.750   5.772
51463W        W15671   0.870  35.593  11.436
51464W        W15672  13.681  18.768  10.932
51465W        W15673  16.235  12.641  10.976
51466W        W15674  40.340  20.154   1.218
51467W        W15675  30.534  44.433  12.470
51468W        W15676   8.230   0.950   3.733
51469W        W15677  28.520   0.985  14.787
51470W        W15678  32.583  16.073   3.216
51471W        W15679  32.420  28.624  11.591
51472W        W15680  18.586   7.707   3.688
51473W        W15681  43.824  17.236  14.976
51474W        W15682  44.280  42.983  14.024
51475W        W15683   7.386  41.315  14.857
51476W        W15684  16.577  12.349   1.316
51477W        W15685   6.342  28.657   4.164
51478W        W15686  18.689   7.704  11.103
51479W        W15687  34.896  15.174   3.766
51480W        W15688  17.786  32.573  13.346
51481W        W15689  12.133  39.529  12.354
51482W        W15690  40.401  23.036   0.872
51483W        W15691  35.076  38.842  14.284
51484W        W15692  32.990  26.021  14.455
51485W        W15693  33.027  12.321   0.389
51486W        W15694   0.386  26.674  10.572
51487W        W15695  10.358  38.505   2.361
51488W        W15696  24.162  40.326  12.844
51489W        W15697   1.882  34.573   0.381
51490W        W15698  30.594   6.427  14.355
51491W        W15699  19.658  42.433   1.335
51492W        W15700  24.171   1.368   2.385
51493W        W15701  42.998   6.725  14.825
51494W        W15702  17.588   0.792  10.990
51495W        W15703  11.768   7.176   2.700
51496W        W15704  32.463  36.589   4.274
51497W        W15705  26.197  21.062   5.317
51498W        W15706  18.171  41.475  12.948
51499W        W15707  21.541  40.808   2.416
51500W        W15708   4.278   4.306   0.403
51501W        W15709   7.821  18.578  10.602
51502W        W15710  16.632   0.437  11.948
51503W        W15711  12.728  20.049   3.661
51504W        W15712   4.405  32.048   4.235
51505W        W15713  16.725  41.305  12.357
51506W        W15714  24.556  21.178  14.509
51507W        W15715  28.606  17.075  13.387
51508W        W15716  43.400  27.171  10.405
51509W        W15717  22.559  38.832   0.749
51510W        W15718   5.720   9.855   2.860
51511W        W15719  10.819  14.615  13.954
51512W        W15720  20.671  38.876   1.778
51513W        W15721  29.003   2.347  13.462
51514W        W15722  25.170  31.479   2.698
51515W        W15723  24.105   1.931  12.455
51516W        W15724  17.252  16.238   2.238
51517W        W15725  29.959  22.199  14.378
51518W        W15726  26.586  20.208   5.136
51519W        W15727  16.585   5.753   9.957
51520W        W15728  42.525  26.075   0.442
51521W        W15729  27.612  42.830  12.971
51522W        W15730  32.938  44.395   3.157
51523W        W15731  34.037   9.790  13.366
51524W        W15732  44.466  28.519  13.963
51525W        W15733  22.687  14.625   3.849
51526W        W15734  27.621  18.621   1.927
51527W        W15735  19.763   9.249   2.737
51528W        W15736   1.455   3.278   1.422
51529W        W15737   1.268  18.079  11.537
51530W        W15738  13.272  26.601  12.835
51531W        W15739   4.374  38.952   2.240
51532W        W15740   0.416  36.891  14.315
51533W        W15741  32.137  21.261  13.539
51534W        W15742   2.874  10.634  11.017
51535W        W15743   3.940  44.328   0.904
51536W        W15744   9.159   2.234   1.841
51537W        W15745  16.231  11.143   2.359
51538W        W15746  38.981  30.659  14.880
51539W        W15747   2.820  30.032  13.439
51540W        W15748  11.259  22.088  12.475
51541W        W15749  31.998  25.543  12.364
51542W        W15750   7.415   9.205  12.567
51543W        W15751  40.881  27.639  14.324
51544W        W15752   7.672  31.643   2.899
51545W        W15753  29.091   7.803   0.442
51546W        W15754   5.411  42.896  11.081
51547W        W15755   9.178  15.313  13.445
51548W        W15756  43.013  37.855  14.968
51549W        W15757  19.693  44.336  14.476
51550W        W15758  21.034   1.435   1.420
51551W        W15759  28.066  41.879   1.376
51552W        W15760   2.405  35.399  12.375
51553W        W15761  17.631  33.427   3.745
51554W        W15762  25.682   9.867   4.290
51555W        W15763  29.492  27.128  14.482
51556W        W15764   7.883  32.132  13.973
51557W        W15765  23.643  30.565  11.936
51558W        W15766   6.753   3.945  12.388
51559W        W15767  12.614  43.881  11.563
51560W        W15768  38.036  42.814  11.973
51561W        W15769   8.877  17.281  12.402
51562W        W15770   3.418   3.750  10.571
51563W        W15771  36.525  35.598  12.027
51564W        W15772  37.896   0.828   2.294
51565W        W15773  10.246  32.109  14.431
51566W        W15774  14.654   0.750  14.010
51567W        W15775  36.533  44.447  11.014
51568W        W15776  32.902  24.694   2.876
51569W        W15777  23.578  18.125   3.375
51570W        W15778   3.422  35.495  13.912
51571W        W15779  22.716   9.227  12.024
51572W        W15780  18.127  34.579  14.409
51573W        W15781  23.170   9.378   3.726
51574W        W15782  19.125  28.624  14.371
51575W        W15783  34.556  27.052  10.947
51576W        W15784  15.704  34.006  13.436
51577W        W15785  32.932   8.259   2.328
51578W        W15786  30.513   6.339   1.406
51579W        W15787  15.123  43.316  14.976
51580W        W15788  32.506  16.196  11.026
51581W        W15789  17.170   7.248   2.227
51582W        W15790  23.590  31.952   2.334
51583W        W15791   2.282  26.546  10.952
51584W        W15792  27.103  15.762  13.892
51585W        W15793  21.701  20.147  10.554
51586W        W15794  41.980   6.280  13.522
51587W        W15795   1.295  40.835   2.731
51588W        W15796  39.834  20.053   2.751
51589W        W15797  12.289  30.021  14.373
51590W        W15798  41.479   4.238   0.867
51591W        W15799  37.550  43.511   0.466
51592W        W15800   5.895  37.573   3.385
51593W        W15801   3.838   7.798   1.906
51594W        W15802  33.968   3.408   5.260
51595W        W15803   9.714  29.647  13.802
51596W        W15804   6.848  33.011   2.377
51597W        W15805   3.956  23.173  10.960
51598W        W15806  38.360  31.474   2.393
51599W        W15807   9.382  26.151   3.742
51600W        W15808  19.761  36.021   3.864
51601W        W15809  40.998   1.845   3.664
51602W        W15810  19.185  37.900  14.798
51603W        W15811   2.804  22.102  13.872
51604W        W15812   2.282  40.009  10.484
51605W        W15813  31.995  30.080  12.831
51606W        W15814  13.152  37.470  13.372
51607W        W15815  11.758  29.155   5.306
51608W        W15816  21.690  41.483  10.925
51609W        W15817   3.241   0.789   2.411
51610W        W15818   5.914  26.051  13.424
51611W        W15819  15.584  40.369   5.195
51612W        W15820  15.594  21.516  13.048
51613W        W15821  14.179  21.170   0.899
51614W        W15822  42.293   7.238  13.412
51615W        W15823  12.191  23.116  14.814
51616W        W15824  39.948  21.692  14.431
51617W        W15825   0.918   6.405   5.289
51618W        W15826   5.911  25.166  11.903
51619W        W15827  44.280  32.444   5.568
51620W        W15828  13.666   4.723  13.895
51621W        W15829   4.418  36.065   1.399
51622W        W15830  17.163  21.669  13.835
51623W        W15831  30.461   5.691  13.879
51624W        W15832   1.942  28.979  14.479
51625W        W15833   8.762  21.127   4.781
51626W        W15834   6.771  11.328   1.217
51627W        W15835  41.956  26.468  11.879
51628W        W15836  24.594  24.610   0.845
51629W        W15837  28.059   9.780   4.328
51630W        W15838  36.438  14.835   4.293
51631W        W15839   1.378   4.938  14.855
51632W        W15840  41.469  42.381   2.819
51633W        W15841  24.116  12.797  14.822
51634W        W15842  40.311   6.260   2.262
51635W        W15843   8.308  28.515  13.840
51636W        W15844  44.977  28.163   1.797
51637W        W15845  42.797  16.286  14.465
51638W        W15846  33.414   5.837   2.879
51639W        W15847  44.483  20.246  12.503
51640W        W15848  14.810  31.017  14.482
51641W        W15849  23.184  16.692  13.841
51642W        W15850  34.502  39.471  13.056
51643W        W15851  34.599   7.878   1.262
51644W        W15852   6.321   1.433  14.017
51645W        W15853   4.898  31.425  12.517
51646W        W15854  19.102   7.725  13.438
51647W        W15855  42.932  43.896  10.564
51648W        W15856   3.859   9.383  11.934
51649W        W15857  32.978  22.011   4.194
51650W        W15858  17.139   1.808   5.235
51651W        W15859  36.498  29.091  13.033
51652W        W15860  33.537  34.996   0.377
51653W        W15861  21.261   8.754   3.174
51654W        W15862  19.731  19.083   3.762
51655W        W15863  21.524  24.197  14.004
51656W        W15864  40.934  24.147   2.858
51657W        W15865  35.543  43.990  14.961
51658W        W15866  32.907  42.442  13.049
51659W        W15867  15.258  25.059   4.342
51660W        W15868  28.936  36.061  14.420
51661W        W15869   2.250  11.637   0.465
51662W        W15870  27.009  38.394   0.470
51663W        W15871   0.892  11.709   5.218
51664W        W15872   9.204  13.235   0.821
51665W        W15873  31.131   4.422  12.849
51666W        W15874   5.392  23.677  10.529
51667W        W15875  39.450  15.323  13.356
51668W        W15876   5.224  37.023  11.114
51669W        W15877  31.637  41.835  14.819
51670W        W15878   3.948  34.462  11.500
51671W        W15879  27.073  31.154  11.927
51672W        W15880  19.646  13.114   0.268
51673W        W15881  35.432  36.084  14.393
51674W        W15882   6.213  38.534  13.839
51675W        W15883  27.465  14.260  14.351
51676W        W15884  20.649  25.993  12.532
51677W        W15885  40.317  25.579   0.412
51678W        W15886  21.101  24.542  14.497
51679W        W15887  10.640  12.299  13.494
51680W        W15888  30.465  10.285  14.920
51681W        W15889   6.848   7.397  11.094
51682W        W15890  42.315  31.152   0.400
51683W        W15891   5.759  34.556  11.895
51684W        W15892  13.133  19.583   4.832
51685W        W15893   9.251   5.920   2.827
51686W        W15894   3.766  11.642  12.483
51687W        W15895  41.537  24.648  13.058
51688W        W15896  41.343  42.381  11.857
51689W        W15897   5.754  29.980  13.961
51690W        W15898  38.031  38.941  10.553
51691W        W15899  29.930   1.255   2.782
51692W        W15900   9.840   4.343   1.320
51693W        W15901  24.601  36.859   0.434
51694W        W15902  41.518   1.436  10.486
51695W        W15903  35.591  43.393   0.408
51696W        W15904   2.421  12.751  10.580
51697W        W15905  10.869  22.518   3.226
51698W        W15906  44.294   3.807   3.846
51699W        W15907  35.361  17.191   4.325
51700W        W15908   9.685  22.120   0.259
51701W        W15909  23.194  20.090   3.330
51702W        W15910  39.861   9.712  12.847
51703W        W15911  34.372  33.049   3.814
51704W        W15912  16.575  18.283   0.414
51705W        W15913  23.715  16.795   0.348
51706W        W15914  27.064  26.604  14.030
51707W        W15915   3.716  40.523  12.043
51708W        W15916   3.250  26.614   0.257
51709W        W15917  16.174  43.431   4.244
51710W        W15918  30.644  10.204  14.475
51711W        W15919   1.340   8.288   0.761
51712W        W15920  24.006  38.434   2.825
51713W        W15921  10.209  42.026  12.542
51714W        W15922  20.603  10.758  10.617
51715W        W15923   0.948  19.711  10.052
51716W        W15924  26.479  24.572   3.865
51717W        W15925   4.922   3.774  14.362
51718W        W15926  19.171  25.157   0.883
51719W        W15927  16.186  11.680  13.833
51720W        W15928  26.196  16.797  14.835
51721W        W15929  14.121  19.163  12.550
51722W        W15930  21.132  29.515  11.941
51723W        W15931   4.261  36.466  11.010
51724W        W15932   0.472  32.433   0.451
51725W        W15933  16.601  17.095  14.946
51726W        W15934   4.777  43.478   2.729
51727W        W15935  40.827   2.266   2.417
51728W        W15936  25.598   5.749   0.800
51729W        W15937  23.011   4.330  13.521
51730W        W15938  30.462   3.807   1.843
51731W        W15939   0.751  17.578  11.380
51732W        W15940   1.899  40.545  13.419
51733W        W15941  18.208  29.542  14.884
51734W        W15942  25.671   0.920  11.892
51735W        W15943  24.599  16.740   4.686
51736W        W15944  36.005  12.181   1.315
51737W        W15945   0.881  12.766   1.275
51738W        W15946   7.825  31.105  13.793
51739W        W15947  10.780  41.023   1.287
51740W        W15948   1.802   6.244   1.211
51741W        W15949   4.209  43.326   1.376
51742W        W15950  30.130   6.241   1.783
51743W        W15951  13.800  31.108   1.337
51744W        W15952  27.665  13.633   3.367
51745W        W15953  27.459  35.539   2.235
51746W        W15954  32.407   9.305   3.834
51747W        W15955  44.330  16.318   2.290
51748W        W15956   7.372  34.410  10.497
51749W        W15957   4.289  32.933  13.836
51750W        W15958  37.517  22.028  11.553
51751W        W15959   0.452  28.517   0.846
51752W        W15960  28.144  43.015  14.844
51753W        W15961  27.585  35.549  13.349
51754W        W15962  22.123   8.882   0.366
51755W        W15963  22.172  29.611   4.201
51756W        W15964   7.295  18.127  14.843
51757W        W15965   0.879  21.588  10.992
51758W        W15966  42.032   3.841  11.438
51759W        W15967   6.790  10.255  11.945
51760W        W15968  26.995  22.194  10.642
51761W        W15969  19.732  19.229   2.220
51762W        W15970  28.936  33.030  11.551
51763W        W15971  22.590  10.774  14.929
51764W        W15972  34.515  32.552  10.604
51765W        W15973   2.858  20.273  12.849
51766W        W15974   5.314  26.060   0.403
51767W        W15975  42.918  40.863  10.447
51768W        W15976  34.097  13.818   3.855
51769W        W15977   0.486  10.831   2.389
51770W        W15978  20.255  12.801   1.265
51771W        W15979   4.262  14.334   3.811
51772W        W15980  25.556  20.649   4.217
51773W        W15981  23.588  35.894  10.973
51774W        W15982  30.933  12.639   9.990
51775W        W15983  20.163   5.817   2.684
51776W        W15984  23.064  38.338  14.006
51777W        W15985  13.749  15.197  14.285
51778W        W15986  39.438  43.304   4.693
51779W        W15987  27.167  21.249  12.440
51780W        W15988   8.798  40.425  10.895
51781W        W15989  35.109   4.768  12.551
51782W        W15990   7.676  36.367   2.671
51783W        W15991  21.059  31.001  13.052
51784W        W15992  15.289  13.608   3.826
51785W        W15993  11.349  32.084  11.453
51786W        W15994  18.594   2.815  12.965
51787W        W15995   4.870  35.978  11.990
51788W        W15996  40.811  20.238   0.939
51789W        W15997  38.072  38.325  12.499
51790W        W15998   6.370  28.492  11.605
51791W        W15999  25.966  42.958  10.997
51792W        W16000   9.726  37.398  11.992
51793W        W16001   3.411   7.855  13.448
51794W        W16002   6.313  12.677   1.404
51795W        W16003   7.718   5.843   3.328
51796W        W16004   3.835  10.260  13.536
51797W        W16005  13.115  18.287  13.519
51798W        W16006  43.983   4.844  10.597
51799W        W16007  29.425  38.898  14.769
51800W        W16008   8.175  44.405   1.335
51801W        W16009  22.208  31.626  13.053
51802W        W16010  29.996  43.901  12.370
51803W        W16011  17.619   9.165   2.866
51804W        W16012  33.564   8.314  14.961
51805W        W16013  40.306  27.138   3.766
51806W        W16014  23.499  24.204   2.830
51807W        W16015   2.831  16.168   2.208
51808W        W16016   0.969  38.030   3.167
51809W        W16017  35.534  33.604  14.884
51810W        W16018  23.004  36.547   4.603
51811W        W16019  15.578  44.344  11.593
51812W        W16020  28.044  20.528  14.295
51813W        W16021  23.001  10.181  11.596
51814W        W16022  36.472  11.823   0.412
51815W        W16023  38.324   3.906   0.840
51816W        W16024  18.669   2.388  12.823
51817W        W16025  41.517  31.487   2.222
51818W        W16026  33.493  41.436  11.561
51819W        W16027  40.034  36.023  13.914
51820W        W16028  31.074  39.469   3.711
51821W        W16029  35.938  33.464  14.454
51822W        W16030  11.799  23.514   5.220
51823W        W16031  30.972  16.771   1.359
51824W        W16032  34.091   4.446   2.871
51825W        W16033  33.938  32.990   1.902
51826W        W16034  20.564  21.059   3.260
51827W        W16035   5.316  21.178   1.794
51828W        W16036  28.460  14.246   1.799
51829W        W16037   8.188   0.861  12.460
51830W        W16038  40.397   9.217  14.912
51831W        W16039  20.767  43.505   1.365
51832W        W16040  35.597  14.746   1.381
51833W        W16041  31.447  42.823  12.493
51834W        W16042  12.350  32.934  12.384
51835W        W16043   5.361  36.038   3.689
51836W        W16044  38.052  36.878   3.167
51837W        W16045  30.038  11.806  13.526
51838W        W16046  19.159  12.822  12.866
51839W        W16047  35.937  18.775  13.354
51840W        W16048  14.256  30.969  11.432
51841W        W16049  31.645  43.434   0.738
51842W        W16050   2.328   0.370   2.762
51843W        W16051  40.526   7.739   0.359
51844W        W16052  24.061  36.875  13.545
51845W        W16053  20.091  44.298   4.727
51846W        W16054  20.233   4.331  12.445
51847W        W16055   2.753  24.011   4.198
51848W        W16056  17.112  31.998   0.260
51849W        W16057   8.351  24.569  11.025
51850W        W16058  25.635  26.090   4.622
51851W        W16059  14.715   3.404  13.882
51852W        W16060  44.951  32.614  11.490
51853W        W16061  17.568  32.063  11.028
51854W        W16062  31.585  17.288   1.932
51855W        W16063  26.601   8.681  10.640
51856W        W16064  40.968  14.787   2.897
51857W        W16065  26.019  33.076   0.962
51858W        W16066  32.542  25.074  10.959
51859W        W16067  12.120   1.343  12.457
51860W        W16068  28.634  16.800  13.869
51861W        W16069  15.306  30.558   3.861
51862W        W16070   1.872  18.084  11.032
51863W        W16071   5.932   6.781  12.475
51864W        W16072  32.400  15.789  10.967
51865W        W16073  43.871  21.631  14.821
51866W        W16074  28.113  41.444   4.597
51867W        W16075   8.689   7.692  13.876
51868W        W16076  17.788  13.837   4.667
51869W        W16077  26.672  39.977   3.210
51870W        W16078  15.724  20.579   5.104
51871W        W16079   7.694  17.133  11.952
51872W        W16080   5.372  27.142   3.151
51873W        W16081  26.564   8.298   2.299
51874W        W16082   4.872  22.734   4.168
51875W        W16083  39.904   2.369   3.798
51876W        W16084  38.071  28.977   0.388
51877W        W16085  40.037  29.670   0.423
51878W        W16086  38.856  35.108  11.870
51879W        W16087  14.284  39.826  12.443
51880W        W16088  41.370  19.558  14.797
51881W        W16089  26.050  36.855  14.454
51882W        W16090   7.880  13.144  12.852
51883W        W16091  33.397  29.491   2.729
51884W        W16092  16.594  30.140  13.890
51885W        W16093   8.783   2.348  14.414
51886W        W16094  34.035  26.154   3.728
51887W        W16095  37.410  19.096   1.324
51888W        W16096   7.669  27.169   4.685
51889W        W16097  44.987  37.467  13.801
51890W        W16098  38.476  26.982   4.810
51891W        W16099   2.326  27.940   1.775
51892W        W16100  21.552  27.459  11.096
51893W        W16101   9.390  25.551   4.625
51894W        W16102  32.975   8.811   2.300
51895W        W16103  11.642  16.295   0.954
51896W        W16104   8.284  16.164  13.355
51897W        W16105  14.627  13.791  14.477
51898W        W16106  15.089   9.659  14.981
51899W        W16107   6.288  40.523  13.367
51900W        W16108  38.073   6.772  10.466
51901W        W16109   4.229  43.343   2.752
51902W        W16110  36.405  38.349  13.410
51903W        W16111  11.782   7.302  13.845
51904W        W16112  37.076  31.563  10.420
51905W        W16113  37.374  24.701   1.749
51906W        W16114  41.321  33.002   1.805
51907W        W16115  15.129  11.789  14.001
51908W        W16116  26.617  24.131   2.755
51909W        W16117  17.292  18.234   1.780
51910W        W16118  29.146   4.269  11.056
51911W        W16119  34.078  19.048  11.923
51912W        W16120  37.968  41.814   2.294
51913W        W16121  34.048  41.865  13.437
51914W        W16122  21.694  34.067   3.714
51915W        W16123  29.439  10.693   1.766
51916W        W16124   0.927  16.585  11.441
51917W        W16125  43.431  19.557  14.986
51918W        W16126  32.534  23.116  11.122
51919W        W16127  13.244  17.250   4.352
51920W        W16128  40.958  14.139   1.243
51921W        W16129  27.483  32.415  12.952
51922W        W16130  18.693  13.281   4.825
51923W        W16131  26.456  23.541   1.762
51924W        W16132   0.366  36.507   3.244
51925W        W16133   7.719  24.131   1.831
51926W        W16134  41.028  42.507   4.123
51927W        W16135  13.150  25.084  10.950
51928W        W16136   8.328  17.236   0.262
51929W        W16137  29.984  31.988   0.807
51930W        W16138   0.842  18.578  11.495
51931W        W16139  37.384  39.917  14.922
51932W        W16140   2.791  19.631  11.539
51933W        W16141   6.806  33.525  13.965
51934W        W16142  28.553   7.696   1.242
51935W        W16143  35.426  43.792  10.484
51936W        W16144  44.923   2.773   3.849
51937W        W16145   9.311   8.371  14.388
51938W        W16146  33.563  25.595  12.375
51939W        W16147  36.493  18.066  13.936
51940W        W16148  16.260  29.930   2.390
51941W        W16149  25.472  37.434   1.354
51942W        W16150   3.782  22.164  13.985
51943W        W16151  20.728   3.729   5.209
51944W        W16152  42.371  40.936  10.493
51945W        W16153   5.423  33.893  11.912
51946W        W16154   7.173  28.544   1.818
51947W        W16155  43.299  18.719   5.131
51948W        W16156   0.483  44.800   4.657
51949W        W16157  29.168  40.986  12.849
51950W        W16158  38.056   8.353   1.877
51951W        W16159   9.391  16.273  12.569
51952W        W16160  43.865  35.514   1.438
51953W        W16161  44.007  27.044   0.859
51954W        W16162  21.121  21.156   1.217
51955W        W16163  26.075  38.559  11.541
51956W        W16164  21.569  39.414  11.067
51957W        W16165  10.699  25.146   3.730
51958W        W16166  29.653   8.858  12.846
51959W        W16167   0.480  41.894   4.307
51960W        W16168  29.088  36.532  13.996
51961W        W16169  44.363   2.299   2.187
51962W        W16170  44.990  16.165   2.183
51963W        W16171  36.485  17.297   1.827
51964W        W16172  27.688  31.567  13.055
51965W        W16173  40.457  43.850   3.329
51966W        W16174  20.106   0.275   2.852
51967W        W16175  14.643  43.807  13.497
51968W        W16176  41.922   8.223  13.920
51969W        W16177  35.002  35.949  11.874
51970W        W16178  33.492   9.300  12.510
51971W        W16179  35.994  21.682  14.916
51972W        W16180  23.713  20.688  10.433
51973W        W16181  32.506  22.114  14.332
51974W        W16182  14.761  35.483   2.303
51975W        W16183  41.875   3.216   9.512
51976W        W16184  33.053  41.978  13.957
51977W        W16185  23.070  37.040   3.720
51978W        W16186  13.123  22.058  12.528
51979W        W16187  13.279   4.824   2.410
51980W        W16188  34.460  26.096  14.769
51981W        W16189  10.780  35.496   3.660
51982W        W16190   7.389  41.895  13.383
51983W        W16191  21.681  28.507  11.963
51984W        W16192  37.034  34.509  11.589
51985W        W16193  37.943  39.051  10.117
51986W        W16194   0.907  15.311  14.864
51987W        W16195  43.846  16.183   0.469
51988W        W16196  26.690   3.215  13.375
51989W        W16197  31.585  28.069  12.877
51990W        W16198  37.366  34.930   1.300
51991W        W16199  28.973  18.116  10.544
51992W        W16200   3.858   3.779  11.066
51993W        W16201  16.758  38.925  13.843
51994W        W16202  37.848  43.475   0.902
51995W        W16203  32.417  14.278   0.394
51996W        W16204  35.514   4.710   3.355
51997W        W16205   7.346  18.102  11.377
51998W        W16206  22.168  44.805  14.908
51999W        W16207  35.909  28.990   2.243
52000W        W16208  24.620  27.130  11.471
52001W        W16209  25.473   3.253  10.066
52002W        W16210  21.560  33.923   2.806
52003W        W16211  42.865  13.282  13.965
52004W        W16212  40.832  11.255   1.309
52005W        W16213  13.220  43.810  13.018
52006W        W16214  39.898  35.031   4.764
52007W        W16215  13.607  28.159  12.429
52008W        W16216   2.253  20.247  13.529
52009W        W16217  36.944  15.172   3.715
52010W        W16218  33.091  28.989  12.537
52011W        W16219  15.781  33.571   0.284
52012W        W16220  16.658  27.503  13.873
52013W        W16221  43.272   5.761   1.432
52014W        W16222  22.165   0.418   1.920
52015W        W16223   6.377  42.315  11.430
52016W        W16224  21.069   5.373  10.636
52017W        W16225  19.255  32.111  11.086
52018W        W16226   8.746  22.588   0.820
52019W        W16227  31.082  37.048   0.378
52020W        W16228  38.923  18.610  12.940
52021W        W16229   6.868  28.571   0.958
52022W        W16230  27.630  33.058   4.186
52023W        W16231   9.297  44.375  11.611
52024W        W16232   5.835  22.083  14.810
52025W        W16233  13.805  20.693  14.826
52026W        W16234  20.691   7.395   0.855
52027W        W16235   2.325  37.408   2.839
52028W        W16236  30.586  11.330  14.829
52029W        W16237  37.976  19.214   2.204
52030W        W16238   7.193   3.786  13.983
52031W        W16239  34.382  20.180  11.392
52032W        W16240   3.938  39.405  12.393
52033W        W16241  44.919  42.364  11.075
52034W        W16242  20.131   9.365   0.279
52035W        W16243  37.008   9.890   3.344
52036W        W16244  31.088  24.512  11.372
52037W        W16245  12.809  44.825  12.823
52038W        W16246   7.196  41.493   4.721
52039W        W16247  12.691   8.223   2.271
52040W        W16248  31.912  14.676   4.116
52041W        W16249   2.375   4.236  12.999
52042W        W16250  32.528  42.423   1.881
52043W        W16251  39.516  15.263   4.141
52044W        W16252  14.111  40.492   4.657
52045W        W16253  40.039   2.286  13.941
52046W        W16254   0.334   0.286   3.332
52047W        W16255   6.299  30.929  13.340
52048W        W16256  17.590   7.762  10.014
52049W        W16257   0.251   7.322   2.198
52050W        W16258  11.837  12.360  14.900
52051W        W16259  33.935   4.392   1.408
52052W        W16260  20.543  18.758  11.977
52053W        W16261  43.338  25.525   2.671
52054W        W16262  34.969   0.408  12.058
52055W        W16263  26.507  36.375  12.955
52056W        W16264  43.481  40.404  12.373
52057W        W16265  35.579  28.029  13.008
52058W        W16266   0.342  33.091   1.708
52059W        W16267  29.157   4.320  10.498
52060W        W16268  16.244  21.668  12.059
52061W        W16269  22.117   9.261   5.102
52062W        W16270  22.585  27.529   0.822
52063W        W16271  14.283  20.648  10.990
52064W        W16272  16.687  20.225   0.730
52065W        W16273   8.685  11.813  14.825
52066W        W16274   4.818  43.796   1.315
52067W        W16275  24.653   0.962   4.687
52068W        W16276   7.850  43.821  11.901
52069W        W16277  30.459  14.698  12.477
52070W        W16278  29.537  17.588  14.399
52071W        W16279  22.730  10.282  14.487
52072W        W16280  31.500   6.189  11.038
52073W        W16281   3.312  13.615   3.713
52074W        W16282  24.519  31.905   2.866
52075W        W16283   0.320  25.976   2.258
52076W        W16284  21.130  18.547   3.636
52077W        W16285  29.532  30.462  10.493
52078W        W16286   3.939  40.309   9.923
52079W        W16287  37.027  39.365  13.050
52080W        W16288  15.681  27.657   0.242
52081W        W16289  18.781  24.988   4.702
52082W        W16290  15.171  35.556   1.814
52083W        W16291  24.566  44.879  11.495
52084W        W16292  13.257  24.140   0.262
52085W        W16293  20.153   2.732   2.307
52086W        W16294  21.541   5.725   2.270
52087W        W16295   5.201  42.912   3.825
52088W        W16296  34.566  41.404  14.758
52089W        W16297  34.933   8.890  13.325
52090W        W16298  15.229  43.276   0.305
52091W        W16299  13.827   7.289  12.008
52092W        W16300  27.501  24.119   1.370
52093W        W16301   1.424   0.817   1.302
52094W        W16302  29.092  28.648  10.418
52095W        W16303   5.867  13.697   4.611
52096W        W16304  22.633  37.984  13.433
52097W        W16305  36.584  27.687  11.544
52098W        W16306  38.968  13.309   1.330
52099W        W16307   1.251  37.833   2.789
52100W        W16308  27.535  33.069  14.809
52101W        W16309  25.158  44.425  14.914
52102W        W16310  11.801  15.140   4.299
52103W        W16311  28.016  10.800   4.164
52104W        W16312  19.746  42.376   2.413
52105W        W16313  43.958  33.095   2.262
52106W        W16314  29.594  41.461  10.615
52107W        W16315  34.378   2.337  14.986
52108W        W16316  32.439   5.740  11.064
52109W        W16317  28.436   6.896  14.021
52110W        W16318  11.347  22.138   2.805
52111W        W16319  44.378  19.196   0.337
52112W        W16320  20.128   1.398  10.598
52113W        W16321  16.802  13.616   4.692
52114W        W16322   2.313   4.738   0.958
52115W        W16323  43.807  43.487   1.242
52116W        W16324  38.490  30.028  14.425
52117W        W16325  33.551   2.737   3.295
52118W        W16326  18.664  11.736  12.002
52119W        W16327  37.446   0.807  13.849
52120W        W16328  29.473  31.587  13.855
52121W        W16329  12.824  38.830   3.382
52122W        W16330  42.370  38.822  14.953
52123W        W16331  31.978  20.126  12.474
52124W        W16332  41.896  42.291   4.597
52125W        W16333  38.959  38.521   2.286
52126W        W16334   6.714  43.419   2.752
52127W        W16335  10.321  44.401   3.841
52128W        W16336   8.802  15.680   0.883
52129W        W16337   1.735  16.219  11.514
52130W        W16338  17.614  28.986  13.321
52131W        W16339  34.089   2.333  12.027
52132W        W16340  22.501  42.527   1.398
52133W        W16341  33.086  33.604   3.669
52134W        W16342  31.485  22.503  12.966
52135W        W16343  24.605   2.450  13.812
52136W        W16344  18.219  24.550  13.866
52137W        W16345  39.545  26.200   3.214
52138W        W16346  30.114  34.370  14.473
52139W        W16347   9.258  33.964   3.820
52140W        W16348  28.030  25.704   3.378
52141W        W16349  41.002  37.559   3.763
52142W        W16350  23.587  36.861  13.462
52143W        W16351   0.908  10.314  11.471
52144W        W16352  10.831  32.055   3.638
52145W        W16353  35.389  23.144   4.803
52146W        W16354  28.973  22.616  14.278
52147W        W16355   7.171  29.456  14.800
52148W        W16356  14.104   1.832   0.330
52149W        W16357   6.852  10.805   2.867
52150W        W16358   8.806  31.469   0.784
52151W        W16359   2.345  27.048   2.343
52152W        W16360   9.283  35.932  14.328
52153W        W16361  11.144  31.547   1.403
52154W        W16362  15.238  42.780  13.970
52155W        W16363  33.030  43.788   3.657
52156W        W16364  11.838  40.820  12.871
52157W        W16365  43.784  32.026   3.387
52158W        W16366  27.692  42.010  12.079
52159W        W16367  39.324   6.859  11.022
52160W        W16368  24.698  27.446   3.386
52161W        W16369  40.964  12.195  11.026
52162W        W16370  40.807   1.280  14.765
52163W        W16371  25.057   6.907  11.454
52164W        W16372  42.322  24.137  12.346
52165W        W16373  37.970  33.875  11.048
52166W        W16374  18.647   7.849   2.333
52167W        W16375  36.987  36.438  13.835
52168W        W16376  44.328   5.804   1.388
52169W        W16377  25.482  40.485  13.489
52170W        W16378  10.841  15.820  14.892
52171W        W16379   3.215  29.643   4.611
52172W        W16380  38.530   3.783  10.889
52173W        W16381  36.436  39.853   0.302
52174W        W16382  37.023   6.185  12.344
52175W        W16383  11.832  28.986   1.287
52176W        W16384  18.736  41.480   4.649
52177W        W16385   4.379  19.696   1.325
52178W        W16386  38.962  36.081  13.469
52179W        W16387  22.659  43.842  10.605
52180W        W16388   5.891  36.897  14.804
52181W        W16389  16.147  44.801   0.316
52182W        W16390  29.558  41.518   2.704
52183W        W16391  30.610  34.429  12.557
52184W        W16392   6.401  43.892   4.834
52185W        W16393  32.068  27.525  13.993
52186W        W16394  23.157  25.978  11.919
52187W        W16395  36.033  44.352   3.277
52188W        W16396  35.456  29.532  12.902
52189W        W16397  20.737   2.405  13.405
52190W        W16398   5.869  35.050   3.795
52191W        W16399   0.744  29.615  12.413
52192W        W16400  41.006   3.718   0.269
52193W        W16401  40.874   5.798   3.831
52194W        W16402  44.363  17.193   1.847
52195W        W16403   8.196  34.387   1.719
52196W        W16404   9.168  18.596  13.420
52197W        W16405  42.346  12.772   3.185
52198W        W16406  44.942  15.701   0.953
52199W        W16407  10.138   9.347  11.061
52200W        W16408  26.501  31.947   2.180
52201W        W16409  31.017  29.945  12.407
52202W        W16410  30.948   4.754   3.238
52203W        W16411  17.127  30.128   4.271
52204W        W16412  43.849  40.430  14.501
52205W        W16413  23.516  28.079   0.312
52206W        W16414  21.238  38.029   5.248
52207W        W16415   1.873  37.880  11.519
52208W        W16416  36.543   7.257   1.325
52209W        W16417   7.218  31.945   2.313
52210W        W16418  11.830  36.488   2.330
52211W        W16419  31.016  44.328  12.549
52212W        W16420   3.408  37.078  10.484
52213W        W16421  28.612  11.209  12.902
52214W        W16422   2.794  25.067  11.124
52215W        W16423  25.069  41.509  13.388
52216W        W16424   6.684  22.555  11.501
52217W        W16425  36.413  23.166  10.991
52218W        W16426   2.302   8.331   0.405
52219W        W16427  39.369  22.709  14.286
52220W        W16428  28.107   6.799  11.452
52221W        W16429  21.518  14.221   1.855
52222W        W16430  36.977  44.869  11.034
52223W        W16431  33.882  21.041  10.437
52224W        W16432  19.628  34.974   2.335
52225W        W16433  32.090  29.969   2.793
52226W        W16434  14.621  29.558   3.763
52227W        W16435  14.333  33.047   1.383
52228W        W16436  33.895  12.286  12.446
52229W        W16437  40.023  37.056   1.749
52230W        W16438  15.584  37.976  11.929
52231W        W16439  21.552  11.864   3.153
52232W        W16440  16.673  23.055  14.972
52233W        W16441  28.560  31.464  13.395
52234W        W16442  34.919  41.822  13.452
52235W        W16443   2.821  38.017  13.973
52236W        W16444  23.642  21.625  12.488
52237W        W16445  15.204  35.374   3.652
52238W        W16446  13.144  23.101  10.454
52239W        W16447  21.688  21.534   4.644
52240W        W16448  18.744   3.745   4.247
52241W        W16449   6.809  24.220  11.048
52242W        W16450   9.164  17.254  13.381
52243W        W16451   2.770  42.808   4.612
52244W        W16452  27.556  29.156   1.761
52245W        W16453  44.796  39.024  12.843
52246W        W16454  20.041   4.827   9.984
52247W        W16455  14.757  33.611  13.054
52248W        W16456  34.395   9.282  12.892
52249W        W16457  20.599  31.901  13.510
52250W        W16458   8.835  32.627   3.182
52251W        W16459  17.218  35.527   4.734
52252W        W16460  39.362  25.471   3.674
52253W        W16461  23.997   9.874  12.838
52254W        W16462  23.241  16.185  12.915
52255W        W16463  31.591  12.855   4.688
52256W        W16464   0.767  25.061   5.281
52257W        W16465  17.672  34.486   2.683
52258W        W16466  33.094  24.559   1.814
52259W        W16467  21.071  10.841  14.961
52260W        W16468  26.597   6.244   2.890
52261W        W16469   5.723  31.571  12.547
52262W        W16470  13.834   4.259   0.392
52263W        W16471  44.311  21.550   3.220
52264W        W16472  39.413  35.366   2.191
52265W        W16473  28.508   2.289  13.924
52266W        W16474  25.990  37.412   4.829
52267W        W16475  33.104  40.547   2.790
52268W        W16476  35.483   5.327  12.457
52269W        W16477   1.381  35.544  12.896
52270W        W16478  27.459   4.396  12.435
52271W        W16479  15.277  35.532   4.644
52272W        W16480  17.112  25.073   0.954
52273W        W16481   8.880  40.863   3.828
52274W        W16482  19.570  21.070   2.795
52275W        W16483  36.849  13.718  11.083
52276W        W16484  33.568  34.994  11.426
52277W        W16485   7.750  40.973  13.866
52278W        W16486  40.395  19.637   2.795
52279W        W16487  40.035  14.813  11.096
52280W        W16488  10.769  25.073   1.404
52281W        W16489  30.500   6.905  13.034
52282W        W16490  11.706  32.004  10.966
52283W        W16491  19.243  31.473  14.946
52284W        W16492  29.995  33.391  12.353
52285W        W16493  21.571  22.031  13.876
52286W        W16494   9.238  30.132   1.916
52287W        W16495  21.622  25.068  13.429
52288W        W16496  20.759  26.592  12.944
52289W        W16497  40.818  43.447  14.858
52290W        W16498  24.161  19.737  13.994
52291W        W16499  32.957  42.511   4.785
52292W        W16500   5.912  42.992  12.942
52293W        W16501  36.448   2.866   4.139
52294W        W16502  24.635  19.208   4.263
52295W        W16503  41.322  12.657  11.915
52296W        W16504  35.556  27.490   2.721
52297W        W16505  11.737  13.735   0.914
52298W        W16506  18.619   9.799   4.314
52299W        W16507  10.154  18.171   0.854
52300W        W16508  15.113  17.223  10.994
52301W        W16509   6.812  34.050  10.928
52302W        W16510  35.484  18.569  11.982
52303W        W16511  26.158  11.134  10.614
52304W        W16512  28.013   3.322  13.056
52305W        W16513  28.129  27.496  14.400
52306W        W16514  10.349   3.264   1.716
52307W        W16515   4.895   6.392  10.441
52308W        W16516  18.210  14.794  12.851
52309W        W16517   9.875  40.018   4.614
52310W        W16518  34.502  15.627  10.561
52311W        W16519  21.068  21.672   0.323
52312W        W16520   5.212  30.079  10.419
52313W        W16521  18.194  29.513   3.317
52314W        W16522  25.518  19.641   0.921
52315W        W16523   9.881  17.111  14.307
52316W        W16524  35.393  14.168   3.860
52317W        W16525   9.306  26.698   2.856
52318W        W16526   0.355   7.321   2.787
52319W        W16527   9.216   4.702   2.822
52320W        W16528  24.502  38.900   2.856
52321W        W16529  40.312  21.077   3.321
52322W        W16530  40.401   4.853   0.787
52323W        W16531  12.284   9.166  11.375
52324W        W16532  30.093  37.028  10.502
52325W        W16533  34.052  25.152  11.124
52326W        W16534  14.662   7.786  14.023
52327W        W16535  16.195   5.404   4.718
52328W        W16536  28.629  12.835   3.286
52329W        W16537  16.205  22.628  11.409
52330W        W16538  12.677  12.308  12.059
52331W        W16539  34.111  43.791   2.739
52332W        W16540  35.455  11.820  12.058
52333W        W16541  27.508   8.363  11.556
52334W        W16542  44.932  12.269  13.385
52335W        W16543  22.632  42.793  10.948
52336W        W16544  28.945  18.124  11.525
52337W        W16545  11.855  13.647   3.863
52338W        W16546  29.995  19.175   3.763
52339W        W16547  37.077  29.494  11.880
52340W        W16548  25.662  27.017  14.368
52341W        W16549  25.128   7.810  10.967
52342W        W16550  27.664  39.886  10.967
52343W        W16551   2.744   9.732   3.364
52344W        W16552  20.708  42.441  10.906
52345W        W16553  22.746  31.121   3.381
52346W        W16554   3.849  13.276  12.050
52347W        W16555  34.950  34.491  12.055
52348W        W16556  42.429  17.783  10.583
52349W        W16557  39.411  17.168   0.250
52350W        W16558  42.870  25.533   4.797
52351W        W16559  37.410  42.972   4.114
52352W        W16560   2.467  44.479  13.401
52353W        W16561   8.336  21.167   1.920
52354W        W16562  14.130   5.845  12.470
52355W        W16563   0.487   7.404   0.891
52356W        W16564  15.115  14.299  11.458
52357W        W16565  31.015   6.424   1.749
52358W        W16566  32.127  15.319  12.554
52359W        W16567  11.279  30.447  12.895
52360W        W16568  12.293   6.418  11.072
52361W        W16569  10.643  26.015   3.837
52362W        W16570  21.658  10.379   2.356
52363W        W16571   6.274  29.081   2.740
52364W        W16572  36.588  18.262  10.639
52365W        W16573  37.547  28.552  14.959
52366W        W16574  41.831   7.866  10.583
52367W        W16575  37.464  19.137  13.888
52368W        W16576  38.443  16.774  12.047
52369W        W16577  18.637  25.607  11.416
52370W        W16578   4.766  13.754   4.784
52371W        W16579  39.047  37.067   2.373
52372W        W16580  29.430  40.806   3.319
52373W        W16581   2.303   8.833   1.424
52374W        W16582   3.436  40.824  11.452
52375W        W16583  14.735  15.734  12.894
52376W        W16584  39.377  11.279  10.980
52377W        W16585  31.515  31.049   3.816
52378W        W16586  12.221  17.676   1.911
52379W        W16587  14.641  15.784   0.357
52380W        W16588  44.280  15.650  12.994
52381W        W16589  36.441   7.396  10.013
52382W        W16590  12.235  28.579   3.686
52383W        W16591  17.574  36.059  13.424
52384W        W16592   0.404   7.828  11.981
52385W        W16593   8.394  33.047   1.421
52386W        W16594  28.479   4.838  11.108
52387W        W16595  41.005  16.761   3.865
52388W        W16596  12.831  28.018   1.430
52389W        W16597  17.306  19.724  10.904
52390W        W16598  14.118   8.281  13.390
52391W        W16599  32.436  32.492  13.401
52392W        W16600  35.527  34.420  10.955
52393W        W16601  25.642   3.223   1.895
52394W        W16602  31.929   6.398  10.627
52395W        W16603  39.002  27.961  12.824
52396W        W16604  31.983  22.023  11.534
52397W        W16605  41.879   9.671  14.773
52398W        W16606   2.349  18.205  14.509
52399W        W16607  40.464  28.016  13.462
52400W        W16608  21.111  35.909  13.943
52401W        W16609  17.147   0.752   2.684
52402W        W16610  24.682  36.956  12.408
52403W        W16611  37.341  37.364   4.257
52404W        W16612  40.423  29.033   0.406
52405W        W16613  18.760   4.447   2.776
52406W        W16614  43.871  34.588  10.522
52407W        W16615  16.317  41.809   0.445
52408W        W16616  18.589  12.825  11.089
52409W        W16617  27.084  21.694  14.458
52410W        W16618  24.978  42.491  11.379
52411W        W16619  40.485  35.594  12.511
52412W        W16620  37.079   3.226  11.471
52413W        W16621  31.609  12.143   1.748
52414W        W16622  13.163  12.736   2.339
52415W        W16623  42.919   0.423  10.520
52416W        W16624  29.619  28.086   2.768
52417W        W16625   3.845  43.898  14.465
52418W        W16626  17.603  15.294   2.874
52419W        W16627  28.002  37.502   2.178
52420W        W16628  25.483  43.949   2.838
52421W        W16629  22.596  11.704   0.807
52422W        W16630  40.907   0.320  11.935
52423W        W16631  40.422   6.791  13.946
52424W        W16632  40.353  24.671  14.457
52425W        W16633  38.982  19.633   1.805
52426W        W16634  15.724  27.091  12.086
52427W        W16635  43.925   8.396   0.379
52428W        W16636  33.891  30.052  11.571
52429W        W16637  32.968  39.369   4.151
52430W        W16638  44.941  39.874   2.397
52431W        W16639  43.354  44.816   0.766
52432W        W16640   0.409  24.200  13.445
52433W        W16641   8.219  14.781  13.856
52434W        W16642  19.640  37.419  11.906
52435W        W16643  36.582  22.023   1.755
52436W        W16644  26.623  20.165  12.992
52437W        W16645  23.159  32.088  13.383
52438W        W16646  22.625   2.857  11.933
52439W        W16647  16.618  33.442  14.482
52440W        W16648  14.757  33.986  14.958
52441W        W16649  20.543  29.090   3.153
52442W        W16650  11.243   5.432  13.947
52443W        W16651  28.117   4.706   4.758
52444W        W16652  26.630   9.193   3.871
52445W        W16653   1.825   4.440   1.923
52446W        W16654  19.740  20.732   3.763
52447W        W16655  27.624  16.088   2.263
52448W        W16656  38.374  15.179  10.974
52449W        W16657  27.529  40.524  12.526
52450W        W16658  16.633  24.561  13.892
52451W        W16659   7.235   8.880  13.919
52452W        W16660   3.290   8.871   4.766
52453W        W16661  16.694  11.699  14.387
52454W        W16662  15.210  44.827  12.849
52455W        W16663  32.113  30.580   2.897
52456W        W16664  21.213   3.739   3.357
52457W        W16665  28.656  12.831  13.420
52458W        W16666  15.201   5.372   1.892
52459W        W16667  39.387  23.578   1.720
52460W        W16668   7.718  35.895   3.311
52461W        W16669  15.319  35.109  12.384
52462W        W16670   2.463  32.921  10.413
52463W        W16671   7.208   5.285   2.876
52464W        W16672  12.853  24.068   4.189
52465W        W16673  37.538   7.752   3.790
52466W        W16674   7.393  42.928  10.913
52467W        W16675   5.334  22.087  13.954
52468W        W16676  27.454   7.379   1.705
52469W        W16677  26.603  43.974  11.012
52470W        W16678  25.684  40.847  14.378
52471W        W16679  25.636  14.275   1.357
52472W        W16680  25.194  10.712  12.449
52473W        W16681  13.814  15.681   3.255
52474W        W16682   4.854   2.414   0.290
52475W        W16683   7.854  39.854   4.720
52476W        W16684  39.938   1.750   9.470
52477W        W16685  34.115  15.670  14.406
52478W        W16686   5.733  16.717  10.469
52479W        W16687  18.578  34.065   0.458
52480W        W16688  36.926  39.890  12.404
52481W        W16689  18.229  33.394   4.178
52482W        W16690  25.659  44.798   1.877
52483W        W16691  43.350  31.151   0.380
52484W        W16692   6.708  32.994   1.210
52485W        W16693   3.402  26.096  11.481
52486W        W16694  14.773   6.237   1.823
52487W        W16695  43.807  29.982  13.491
52488W        W16696  13.809  16.741   2.714
52489W        W16697  37.996  15.154   4.718
52490W        W16698  12.647  39.421  13.511
52491W        W16699  12.722  11.623  12.866
52492W        W16700   8.357   2.833  10.445
52493W        W16701  22.177  32.061   9.948
52494W        W16702  17.229  20.641   0.844
52495W        W16703  39.913  20.707  12.437
52496W        W16704  36.375  32.460   2.190
52497W        W16705  11.665  35.550   2.718
52498W        W16706  32.016  19.767   5.092
52499W        W16707  26.071  39.378   0.919
52500W        W16708  29.924  20.714  11.862
52501W        W16709   9.687  33.992  14.388
52502W        W16710  19.540  43.974   1.832
52503W        W16711  14.178  40.465   2.383
52504W        W16712  36.005   6.748  14.816
52505W        W16713  24.612   8.229   2.858
52506W        W16714  31.580  17.272   4.191
52507W        W16715   0.844  23.030   2.274
52508W        W16716  25.544  20.110   3.823
52509W        W16717   2.932  37.346   2.229
52510W        W16718  10.664  22.583   1.318
52511W        W16719  41.296   7.739   4.819
52512W        W16720  34.896  22.702  11.119
52513W        W16721  19.074   4.844  13.994
52514W        W16722  41.924  27.038  10.455
52515W        W16723  44.260   4.722  12.048
52516W        W16724   6.905  34.485   4.835
52517W        W16725  34.990   8.775  13.911
52518W        W16726  16.737  16.092   0.477
52519W        W16727   4.700   4.302   0.341
52520W        W16728  35.558  38.461  13.901
52521W        W16729   8.709  26.079   1.418
52522W        W16730  42.981  38.862   5.307
52523W        W16731  26.594  12.189  12.955
52524W        W16732  18.073  36.964  11.605
52525W        W16733  13.836  37.070  11.014
52526W        W16734  25.678   0.435   0.439
52527W        W16735   0.906  16.141   1.902
52528W        W16736  21.630  21.734   1.771
52529W        W16737  21.257  36.064  12.410
52530W        W16738  44.448  17.791   4.702
52531W        W16739  22.544  20.265  13.936
52532W        W16740  31.904  16.291   5.763
52533W        W16741  34.916  43.911  14.445
52534W        W16742   4.443   1.958   2.410
52535W        W16743  42.295  19.752  14.344
52536W        W16744  43.854   8.681   3.801
52537W        W16745  29.457  33.597   0.803
52538W        W16746   5.906  14.686   1.750
52539W        W16747  19.693  25.652   2.345
52540W        W16748  26.003  27.164  10.932
52541W        W16749  31.925  29.535  11.566
52542W        W16750  39.444  39.863   3.853
52543W        W16751  11.223  21.578   4.728
52544W        W16752  20.544  25.144   2.698
52545W        W16753   8.371  36.479  12.578
52546W        W16754  36.924   8.281   2.817
52547W        W16755  29.662   3.325   1.357
52548W        W16756   7.818  11.142  14.451
52549W        W16757   6.715  33.923  13.329
52550W        W16758  20.168  13.692  13.994
52551W        W16759  34.933   6.841   3.374
52552W        W16760  34.005  33.018  10.556
52553W        W16761  11.712   2.816   2.898
52554W        W16762  42.885  22.071  12.889
52555W        W16763  31.099  20.232  13.483
52556W        W16764  35.036  23.156  14.987
52557W        W16765   6.762  22.683  12.007
52558W        W16766  22.595  20.729   1.881
52559W        W16767  16.318  18.643  13.034
52560W        W16768  10.150  22.168  11.053
52561W        W16769  29.484  33.438   2.381
52562W        W16770  32.048  34.464   2.388
52563W        W16771  33.399  37.456   5.101
52564W        W16772   1.966  31.575   1.894
52565W        W16773  17.701   8.191  11.079
52566W        W16774  26.541  27.448   2.814
52567W        W16775  36.067  22.247   4.215
52568W        W16776  27.942  42.799   0.453
52569W        W16777  43.309  33.480   2.250
52570W        W16778   1.291  37.073   0.390
52571W        W16779  32.514  16.275  14.894
52572W        W16780   4.348  35.507   4.234
52573W        W16781   3.749   3.762   5.196
52574W        W16782  21.701  44.380   3.710
52575W        W16783  35.909  18.544  10.914
52576W        W16784  12.298  34.592   3.275
52577W        W16785  16.205  42.286   4.310
52578W        W16786  29.497  21.513   1.732
52579W        W16787  37.900   2.967  12.905
52580W        W16788  30.035  35.548   0.963
52581W        W16789  13.159  19.256  11.928
52582W        W16790  27.494  22.116  14.885
52583W        W16791  28.006  13.208   0.924
52584W        W16792  23.053  29.591  11.422
52585W        W16793  35.988   7.721   1.737
52586W        W16794   7.732  25.069   2.180
52587W        W16795  29.592  28.089  13.378
52588W        W16796   8.894  20.042  14.375
52589W        W16797  13.608  14.704   1.806
52590W        W16798   4.931  28.527  12.987
52591W        W16799  40.358  42.942   2.285
52592W        W16800  27.577  35.467  13.022
52593W        W16801  39.879  27.484   3.289
52594W        W16802  38.953   6.875  12.901
52595W        W16803  14.620  24.171  10.905
52596W        W16804   2.250  20.563  13.025
52597W        W16805  11.189  28.535   4.310
52598W        W16806  42.333  14.824   0.480
52599W        W16807  37.078  12.844  10.445
52600W        W16808  33.004  38.465  13.335
52601W        W16809  41.892  28.572   0.953
52602W        W16810  11.765  27.493   1.795
52603W        W16811   4.220   7.277  13.871
52604W        W16812  28.442  24.696   0.409
52605W        W16813  33.415  21.082  12.474
52606W        W16814  35.009   8.207   1.237
52607W        W16815  38.914  27.088   1.798
52608W        W16816   5.735  15.103  11.967
52609W        W16817   5.201  16.767  14.918
52610W        W16818   4.739  29.563  13.324
52611W        W16819   6.733   5.792   0.402
52612W        W16820  43.376  35.485   1.758
52613W        W16821  24.709  40.414   3.243
52614W        W16822   8.657   3.910   4.132
52615W        W16823  32.631  44.007  13.451
52616W        W16824  42.821  15.281  11.078
52617W        W16825  26.113  41.824  11.124
52618W        W16826  30.116   2.419   2.370
52619W        W16827  40.361  28.093  13.825
52620W        W16828   1.278  35.379  14.817
52621W        W16829  36.570  32.527  12.852
52622W        W16830  36.881  24.551   2.841
52623W        W16831  35.010  42.319   3.250
52624W        W16832  41.298  28.549   3.840
52625W        W16833  30.605  12.271  13.845
52626W        W16834  39.966  14.250  11.528
52627W        W16835   5.710  43.935  11.994
52628W        W16836  30.598  41.023  11.569
52629W        W16837  22.008   4.206  12.003
52630W        W16838   4.775  20.634   0.837
52631W        W16839  32.108  16.668   1.700
52632W        W16840  23.684  29.439   3.354
52633W        W16841  12.359  30.153   4.600
52634W        W16842  24.157   7.748   3.152
52635W        W16843  34.377   5.213  11.077
52636W        W16844  10.819  38.041  13.933
52637W        W16845  12.276  27.145  14.482
52638W        W16846   3.399  20.178  13.309
52639W        W16847  15.285   7.356   1.411
52640W        W16848  36.887   4.818  14.283
52641W        W16849  24.524  18.118   3.763
52642W        W16850   3.787  14.289   2.229
52643W        W16851  28.515  33.907  13.992
52644W        W16852   3.866  23.517   0.357
52645W        W16853  44.948  31.488  10.966
52646W        W16854   8.403  15.084   4.143
52647W        W16855  41.980  31.461  12.844
52648W        W16856  11.187  20.627   4.658
52649W        W16857  24.486  40.985  14.021
52650W        W16858   9.758  40.036  12.367
52651W        W16859  11.687  24.218  13.837
52652W        W16860  29.168  11.734  13.033
52653W        W16861   3.829  19.051   2.361
52654W        W16862  35.378   8.293  14.779
52655W        W16863  20.659  34.515   4.719
52656W        W16864   2.721  12.612   1.845
52657W        W16865  18.238  32.476   3.339
52658W        W16866  23.562  38.845   3.845
52659W        W16867  33.616  26.634  13.511
52660W        W16868  22.737   5.256  14.450
52661W        W16869  34.918  44.911  12.508
52662W        W16870  36.556   0.877  12.466
52663W        W16871  21.514   8.192  12.445
52664W        W16872   7.823  36.871  14.943
52665W        W16873   8.247  34.987   1.269
52666W        W16874  20.141   3.854  13.954
52667W        W16875  29.066  18.133   4.254
52668W        W16876  41.389  43.422  13.016
52669W        W16877   9.273  41.313   3.822
52670W        W16878  41.794  14.829   4.701
52671W        W16879  19.747  34.082  10.528
52672W        W16880  16.729  32.546   4.597
52673W        W16881   5.232  32.049   3.189
52674W        W16882  27.058  11.243  10.419
52675W        W16883  16.115  33.513   1.814
52676W        W16884  39.031  37.378  12.487
52677W        W16885  22.249   6.782  12.468
52678W        W16886  33.918   5.704  11.548
52679W        W16887   5.293  23.496  14.499
52680W        W16888   3.334  42.837   3.327
52681W        W16889  39.421  13.184  11.891
52682W        W16890   9.740   2.896  14.010
52683W        W16891  41.845  17.747  14.961
52684W        W16892   7.677  26.507   1.849
52685W        W16893  40.519  14.687   4.345
52686W        W16894  21.123  41.884  11.999
52687W        W16895  44.497  27.147  11.572
52688W        W16896  18.544  41.493   1.791
52689W        W16897  33.589  24.993  10.931
52690W        W16898  34.492  21.255  12.881
52691W        W16899  16.131  33.877  13.547
52692W        W16900  15.755  20.248  12.948
52693W        W16901  25.706   0.917   4.227
52694W        W16902  20.688   8.669   1.808
52695W        W16903   9.187  21.542   1.899
52696W        W16904  15.129  44.346  13.912
52697W        W16905  20.212   0.861  10.545
52698W        W16906  18.690  42.922   2.882
52699W        W16907  22.545  43.347  14.358
52700W        W16908   7.695  37.550  14.280
52701W        W16909  22.071  37.498  10.926
52702W        W16910  15.120  22.509   3.302
52703W        W16911  32.039  12.120   0.358
52704W        W16912  41.843  25.980   3.312
52705W        W16913  29.009  26.611   0.924
52706W        W16914   3.873  26.072  13.022
52707W        W16915  41.317  30.084  10.572
52708W        W16916  19.560  44.836  12.562
52709W        W16917  30.571  23.208   4.659
52710W        W16918  24.510  38.416   4.139
52711W        W16919   7.766   0.881  13.432
52712W        W16920  37.071  20.571  14.773
52713W        W16921  24.084  41.437   4.196
52714W        W16922  25.046  30.577   2.308
52715W        W16923  42.312  10.794  14.431
52716W        W16924  27.942   8.218  13.379
52717W        W16925  11.354  20.596  12.941
52718W        W16926   1.294   4.312   4.624
52719W        W16927   3.916  32.496  11.949
52720W        W16928  34.069   4.851  14.325
52721W        W16929  14.741  11.834  12.426
52722W        W16930  16.758  19.585  14.873
52723W        W16931  27.990   9.838   2.812
52724W        W16932  21.139  44.348   1.439
52725W        W16933   1.734  40.824  10.976
52726W        W16934  36.358  15.692   0.916
52727W        W16935  16.624   3.946  12.036
52728W        W16936  16.169  17.559  11.467
52729W        W16937  27.965  42.335  13.366
52730W        W16938  25.588   8.256   2.720
52731W        W16939   6.867  18.249  11.967
52732W        W16940   5.300  42.470  10.960
52733W        W16941  12.207  25.508   4.312
52734W        W16942  33.596  32.572  12.945
52735W        W16943   9.857   0.929  13.459
52736W        W16944  28.044  26.502   2.210
52737W        W16945  26.587  21.129  10.006
52738W        W16946  36.015  12.713   2.823
52739W        W16947  19.133  28.113   0.962
52740W        W16948   2.341  36.061   1.912
52741W        W16949  18.755  13.189  11.502
52742W        W16950  11.214  40.037   0.935
52743W        W16951  25.500  36.438   4.827
52744W        W16952  43.817  36.491   4.314
52745W        W16953  24.175  28.103   1.922
52746W        W16954  11.254  36.879  10.638
52747W        W16955  11.787  22.512  12.909
52748W        W16956   5.282   3.417   3.307
52749W        W16957  13.675   1.408   4.311
52750W        W16958   2.240  37.865  12.453
52751W        W16959  24.093   9.196   0.412
52752W        W16960  37.350  12.134   4.203
52753W        W16961  29.446  38.516   0.888
52754W        W16962  29.450   7.399  14.863
52755W        W16963  34.486   7.686   2.891
52756W        W16964  13.707  27.656   0.788
52757W        W16965   9.677  38.892   2.253
52758W        W16966  22.212   3.341  11.027
52759W        W16967   3.770  10.729   2.216
52760W        W16968  40.950  11.187   2.229
52761W        W16969  30.648  10.867   3.759
52762W        W16970  29.968  10.323   2.390
52763W        W16971  16.157   0.949   0.897
52764W        W16972   2.950  43.789   4.143
52765W        W16973  12.742  23.136   4.744
52766W        W16974   2.322  16.762   4.198
52767W        W16975  16.785  35.580  14.361
52768W        W16976  12.831   8.864  10.995
52769W        W16977  18.583  39.555   3.662
52770W        W16978  41.971  28.100  13.999
52771W        W16979  25.513  32.910  12.488
52772W        W16980  35.547   1.401  11.880
52773W        W16981  21.733  27.482   4.654
52774W        W16982  35.858  17.284   4.683
52775W        W16983  19.120  18.570  11.595
52776W        W16984  42.007   8.304   4.295
52777W        W16985  17.238   7.242  10.526
52778W        W16986  26.134  14.602   4.321
52779W        W16987  18.773  10.173   1.358
52780W        W16988  41.486   9.667  12.859
52781W        W16989  11.192  42.934   4.820
52782W        W16990  21.740  40.919   4.322
52783W        W16991  20.214  40.468   1.282
52784W        W16992  19.217  10.743  13.478
52785W        W16993   3.416  43.955  11.952
52786W        W16994   5.738  40.970   3.686
52787W        W16995  44.931   4.348   0.374
52788W        W16996  33.911  31.417  10.461
52789W        W16997   3.804  34.523  13.315
52790W        W16998  19.122  29.110   3.283
52791W        W16999  38.960  43.327  10.437
52792W        W17000   4.921  22.188  14.414
52793W        W17001   7.868  38.466   2.337
52794W        W17002  39.472  23.495   3.694
52795W        W17003   4.837  14.746  10.941
52796W        W17004  19.148  29.447   2.693
52797W        W17005  41.535  31.145   3.772
52798W        W17006  17.285  10.325   0.961
52799W        W17007   9.242   2.891   3.375
52800W        W17008  12.769   6.866  13.371
52801W        W17009   2.775  42.961   0.421
52802W        W17010  43.425  27.618  12.567
52803W        W17011  10.802  37.045   2.856
52804W        W17012  19.277  16.603  12.371
52805W        W17013  13.846  10.354  11.424
52806W        W17014  39.364  43.913  12.554
52807W        W17015   1.474  30.535  11.957
52808W        W17016  39.463  37.987   4.729
52809W        W17017  13.305  30.546   1.294
52810W        W17018  35.930   8.345   0.790
52811W        W17019  32.488  28.600   3.629
52812W        W17020   6.842   7.689   4.215
52813W        W17021  33.589  10.654   0.462
52814W        W17022   5.760  25.158   4.781
52815W        W17023  44.391   0.854   1.259
52816W        W17024  43.767  28.012  14.893
52817W        W17025  22.036  24.086   1.233
52818W        W17026  27.153  44.349  14.914
52819W        W17027   2.788  32.991  14.911
52820W        W17028  41.383  26.172  13.899
52821W        W17029  42.014  28.134  11.082
52822W        W17030  41.341  14.715   0.844
52823W        W17031  11.205  32.912  12.962
52824W        W17032  22.105  36.554  13.919
52825W        W17033  40.971   5.347  11.935
52826W        W17034  44.882  22.738  14.341
52827W        W17035  26.656   0.841   3.286
52828W        W17036  44.461  33.998   2.807
52829W        W17037  27.580  16.732   5.275
52830W        W17038  34.090  18.141   4.150
52831W        W17039  15.136  29.460   2.411
52832W        W17040  15.137  37.544  10.120
52833W        W17041  12.308  37.955  12.444
52834W        W17042  17.745  30.924  13.381
52835W        W17043  12.312  38.520   3.162
52836W        W17044  22.572  16.109  13.984
52837W        W17045  11.630  44.448  10.930
52838W        W17046  18.152  28.629  14.442
52839W        W17047  10.808   3.956   4.335
52840W        W17048  39.947  36.021   0.335
52841W        W17049  21.601  38.475   4.168
52842W        W17050  41.488  38.882   0.809
52843W        W17051  17.724  16.146  13.982
52844W        W17052   2.285   7.872  12.864
52845W        W17053   5.911  17.281  11.035
52846W        W17054  41.405  28.516   1.928
52847W        W17055  21.228  12.702  10.043
52848W        W17056  43.399  20.054  12.962
52849W        W17057  12.206  30.453  13.831
52850W        W17058  23.612  27.182  13.862
52851W        W17059   6.835  43.020   2.346
52852W        W17060  40.339  10.693   0.897
52853W        W17061  18.637   9.857   2.836
52854W        W17062   7.185  31.509  11.985
52855W        W17063  27.535  26.028  13.433
52856W        W17064   6.348  38.937  10.131
52857W        W17065  31.013  11.841   2.801
52858W        W17066  32.888   3.759  14.941
52859W        W17067   1.394   0.945  12.898
52860W        W17068  35.597  42.866  12.522
52861W        W17069  28.012   7.211   2.901
52862W        W17070   4.856  22.560  11.378
52863W        W17071  26.019  23.049  11.432
52864W        W17072   7.890  27.473   4.833
52865W        W17073  13.218  39.463   3.684
52866W        W17074  21.583  41.016   3.754
52867W        W17075  42.503  10.768  14.895
52868W        W17076   6.720  17.121   1.362
52869W        W17077  21.171  24.067   3.203
52870W        W17078  28.076  34.388   4.649
52871W        W17079  12.132  10.655   3.811
52872W        W17080  29.458  19.610   1.868
52873W        W17081  23.579  15.153   0.266
52874W        W17082   9.781  33.115   3.245
52875W        W17083  21.697  27.194  13.046
52876W        W17084  24.596   3.820  14.342
52877W        W17085   2.398  43.925   2.323
52878W        W17086  41.371  30.416   1.775
52879W        W17087  18.780  32.513   1.231
52880W        W17088  13.833  12.241   4.118
52881W        W17089  40.855  44.305   3.850
52882W        W17090   3.396   3.837  11.078
52883W        W17091  37.930  29.607  11.104
52884W        W17092   1.369  38.482  13.339
52885W        W17093  11.642  12.753  10.965
52886W        W17094  24.535  17.624   1.397
52887W        W17095  33.061  41.398   4.831
52888W        W17096  37.364   1.972  10.583
52889W        W17097  29.585  24.173  14.803
52890W        W17098  35.489   7.857   0.285
52891W        W17099  25.532  44.968  12.034
52892W        W17100  20.678  11.289  12.440
52893W        W17101   5.339  11.363   1.287
52894W        W17102  22.096  18.752   3.333
52895W        W17103   9.744  27.664  12.500
52896W        W17104  18.663  38.859  12.580
52897W        W17105   7.846  35.990  13.814
52898W        W17106  12.166  25.171  11.601
52899W        W17107  29.632   2.410  13.996
52900W        W17108  22.218   3.312  11.896
52901W        W17109  33.623  21.182   1.228
52902W        W17110  32.040  13.145  13.537
52903W        W17111   6.190  18.620   3.757
52904W        W17112  31.534  33.591   1.400
52905W        W17113  21.190  12.834  13.006
52906W        W17114  13.273  18.776   0.776
52907W        W17115  30.620  35.941  11.125
52908W        W17116  29.646  15.703  13.970
52909W        W17117  13.721  14.736  11.860
52910W        W17118  32.416   6.733   3.298
52911W        W17119  42.024  18.690  14.403
52912W        W17120   6.222  21.226   9.981
52913W        W17121   4.833  25.964   3.206
52914W        W17122  39.826  32.408  11.102
52915W        W17123  44.997  11.244  11.592
52916W        W17124  16.683  16.649  12.081
52917W        W17125  23.215   4.704   1.318
52918W        W17126  21.255  32.931   3.353
52919W        W17127  39.966   8.848  14.511
52920W        W17128  31.042  36.442   0.483
52921W        W17129  28.104  30.137   4.612
52922W        W17130  43.372  35.109   5.098
52923W        W17131  42.481  17.113   4.176
52924W        W17132  42.411  38.022  11.018
52925W        W17133  12.851   7.856  14.901
52926W        W17134  30.610  15.158  13.954
52927W        W17135  25.629  18.102  12.486
52928W        W17136  33.605  22.166   1.251
52929W        W17137  41.454  44.322   1.330
52930W        W17138   9.848  28.935  12.515
52931W        W17139  34.564  35.076  13.893
52932W        W17140   6.428   0.752   1.755
52933W        W17141   1.741   6.701  11.544
52934W        W17142  27.082  41.793  10.898
52935W        W17143  34.020  20.200  12.426
52936W        W17144  18.674  33.444   5.272
52937W        W17145   7.717  38.053   2.410
52938W        W17146  32.603  40.331   3.696
52939W        W17147  26.457  41.922   2.880
52940W        W17148  36.857  43.006  10.551
52941W        W17149   8.844   2.926   3.244
52942W        W17150   1.328   2.750  10.982
52943W        W17151   8.268  40.964   4.189
52944W        W17152  25.634   5.212  12.075
52945W        W17153   6.332   4.412  14.007
52946W        W17154  32.101  23.065  12.386
52947W        W17155   3.922  10.832   1.316
52948W        W17156  14.601  24.602  13.812
52949W        W17157  43.859  33.071  14.764
52950W        W17158   7.298  19.220   1.277
52951W        W17159  24.520  37.923  11.058
52952W        W17160  39.441  44.413  14.957
52953W        W17161  43.510  14.222  10.105
52954W        W17162  35.109   5.283  13.313
52955W        W17163   4.903  37.368  12.886
52956W        W17164  18.216  26.465  13.447
52957W        W17165  43.390  27.047   3.678
52958W        W17166  36.483   2.723  11.078
52959W        W17167   0.371  34.074   9.506
52960W        W17168  25.510  44.362  13.379
52961W        W17169  25.558   5.847  13.880
52962W        W17170  32.948  27.528   4.767
52963W        W17171  10.652  12.242   1.284
52964W        W17172   8.768   2.914  14.824
52965W        W17173   1.361  30.645  14.862
52966W        W17174  16.223  23.527  11.487
52967W        W17175  43.831  10.248   2.869
52968W        W17176   5.843  26.656  11.401
52969W        W17177  37.541  23.089  11.080
52970W        W17178   0.301  33.983  12.367
52971W        W17179  11.158  18.188   1.228
52972W        W17180  33.437  24.629  13.502
52973W        W17181  16.240   6.730   0.727
52974W        W17182  10.212  18.652   2.721
52975W        W17183  38.870  23.145   4.264
52976W        W17184  23.034  13.672   0.442
52977W        W17185  27.125   5.780  12.422
52978W        W17186  22.590  24.987   0.812
52979W        W17187  25.158  16.740  12.916
52980W        W17188  26.963  12.231  14.933
52981W        W17189  27.997   8.237   4.662
52982W        W17190   9.152  11.849   3.261
52983W        W17191  25.091   9.330   2.328
52984W        W17192  33.875  19.060  13.945
52985W        W17193   8.822  12.352  12.846
52986W        W17194  35.463   9.789   3.793
52987W        W17195  15.268  42.889   4.220
52988W        W17196  28.551  33.912  12.358
52989W        W17197   6.808   9.784  13.046
52990W        W17198  37.899  20.048   2.419
52991W        W17199  16.644  24.995   4.655
52992W        W17200  43.893  29.152   0.382
52993W        W17201  17.206  13.825   0.923
52994W        W17202  18.692   8.164   1.854
52995W        W17203  22.224  30.509  13.971
52996W        W17204  40.415  16.233  13.059
52997W        W17205  21.148  19.234   4.341
52998W        W17206  28.511  20.066   3.155
52999W        W17207  19.100  13.265   3.261
53000W        W17208  19.182  17.704   0.832
53001W        W17209   1.435  10.838   2.896
53002W        W17210  40.539  41.444   1.381
53003W        W17211  32.948  15.129   4.715
53004W        W17212  14.293   6.768  13.921
53005W        W17213  23.671  30.464  13.505
53006W        W17214  27.536  40.446  11.567
53007W        W17215  18.120   4.850  14.360
53008W        W17216  37.060  24.719   1.919
53009W        W17217  29.637  16.615   5.257
53010W        W17218  33.937   7.853   3.819
53011W        W17219   8.383  43.899  13.044
53012W        W17220  20.172   7.365   0.478
53013W        W17221  30.106  42.452   1.304
53014W        W17222  20.600  41.526   1.339
53015W        W17223  40.996   9.229  13.047
53016W        W17224  16.692  21.660  11.492
53017W        W17225  37.436   0.867  12.529
53018W        W17226  28.095   1.380  10.152
53019W        W17227  20.523  38.930  11.380
53020W        W17228   6.836  13.108  11.941
53021W        W17229  24.585  41.842  13.359
53022W        W17230  40.478  38.932  11.900
53023W        W17231  19.705   0.866   3.200
53024W        W17232  33.455  17.167   5.177
53025W        W17233  22.223  18.138   3.749
53026W        W17234  34.606  14.739   3.314
53027W        W17235   1.770  13.105  12.966
53028W        W17236  16.283   1.935  14.469
53029W        W17237  12.811  23.234  14.461
53030W        W17238  40.894  23.522  14.837
53031W        W17239  42.800  34.425  10.478
53032W        W17240  21.259  18.689   1.838
53033W        W17241  25.217  23.584  10.572
53034W        W17242   6.249  37.400  10.140
53035W        W17243  43.373   1.977  10.476
53036W        W17244  33.109   2.453  13.310
53037W        W17245  27.026  16.126   3.768
53038W        W17246  12.191  16.752  11.100
53039W        W17247  35.549  34.882   3.314
53040W        W17248  41.979  21.194   0.872
53041W        W17249  18.193   1.734   4.680
53042W        W17250   2.467  15.297  14.867
53043W        W17251  14.194  20.554  13.910
53044W        W17252  30.084  30.132   2.884
53045W        W17253  36.037  26.536  10.458
53046W        W17254  32.042  44.453   4.631
53047W        W17255  29.576  32.981  11.855
53048W        W17256  29.602   1.917  12.571
53049W        W17257   6.828  31.924  13.991
53050W        W17258   3.252  39.533  10.555
53051W        W17259   1.351  27.016   2.768
53052W        W17260  12.720  14.832   2.221
53053W        W17261   2.435  17.573  10.601
53054W        W17262   6.754   9.353  13.922
53055W        W17263  42.863  10.735  11.856
53056W        W17264  38.870  42.976   3.198
53057W        W17265  29.563  31.115   3.765
53058W        W17266  17.773  17.173  14.505
53059W        W17267  42.955  24.515   4.768
53060W        W17268  34.525   3.226  12.917
53061W        W17269   4.224   9.347  11.613
53062W        W17270   0.268  14.632  14.959
53063W        W17271  17.600  19.217   1.286
53064W        W17272   2.260  26.192   0.278
53065W        W17273  34.380  28.074   2.817
53066W        W17274  10.764  18.600   0.251
53067W        W17275  10.273   3.427   4.194
53068W        W17276   5.890   2.254  14.017
53069W        W17277   8.245  30.984   4.166
53070W        W17278   8.766  15.139   3.215
53071W        W17279  31.054  24.221   1.377
53072W        W17280  30.135  38.403  13.469
53073W        W17281  25.473  23.590   4.126
53074W        W17282  27.077  10.698   4.236
53075W        W17283  16.672  38.365  12.006
53076W        W17284  17.227  43.856   9.926
53077W        W17285  14.719  44.375   3.715
53078W        W17286   5.389  43.844  14.997
53079W        W17287   2.294   6.368   0.401
53080W        W17288  39.533   7.403   1.800
53081W        W17289  25.615   8.180   0.886
53082W        W17290  21.607   8.795   0.799
53083W        W17291  23.103  42.389   0.273
53084W        W17292  33.121  42.962  12.524
53085W        W17293  12.175  17.153  11.883
53086W        W17294  42.309  11.259  14.436
53087W        W17295  24.027  29.523  11.057
53088W        W17296  26.538   7.187   0.466
53089W        W17297  23.608  29.073  14.407
53090W        W17298  16.157  16.162   3.192
53091W        W17299  18.059  29.492   0.927
53092W        W17300   4.343   4.419   4.642
53093W        W17301   7.239  10.657   2.198
53094W        W17302   2.297  42.978   5.287
53095W        W17303  11.138  44.328  12.021
53096W        W17304  19.173   3.882   9.978
53097W        W17305  11.767  41.803  12.992
53098W        W17306  44.785   3.434  13.456
53099W        W17307  36.974  18.153   3.362
53100W        W17308  21.137  35.009  12.502
53101W        W17309  30.505  23.617   4.226
53102W        W17310  41.883   6.200   4.206
53103W        W17311  11.844  13.780   5.721
53104W        W17312  18.712  24.587  12.475
53105W        W17313  18.279  16.198   5.131
53106W        W17314  25.146  42.442  10.906
53107W        W17315   6.401  14.318   4.259
53108W        W17316  12.749  16.655  10.616
53109W        W17317  31.075  22.163   1.906
53110W        W17318   7.282  44.495  12.432
53111W        W17319  36.079  32.495  11.498
53112W        W17320   5.757  42.354  11.433
53113W        W17321  14.189  17.113  11.571
53114W        W17322   5.853  18.137   1.366
53115W        W17323  14.220  11.723  14.963
53116W        W17324  37.924  19.045  10.921
53117W        W17325  12.841  20.546  11.007
53118W        W17326  15.173   1.336  11.086
53119W        W17327  11.279  11.741   1.844
53120W        W17328  16.709  16.730   2.393
53121W        W17329   3.781  16.714   4.697
53122W        W17330  32.888  41.296  10.925
53123W        W17331  35.525  31.101  12.981
53124W        W17332  23.020  41.529   3.775
53125W        W17333  33.981  11.773  10.496
53126W        W17334  11.296  40.450  13.918
53127W        W17335  35.909  22.606  10.606
53128W        W17336  27.031  41.372  11.385
53129W        W17337  11.678  10.814  13.859
53130W        W17338  13.764   6.239  11.096
53131W        W17339   7.856  35.603  10.965
53132W        W17340   9.321  31.479   4.340
53133W        W17341  15.628  44.908  12.454
53134W        W17342  38.983   7.392   0.947
53135W        W17343  22.135   0.351   1.229
53136W        W17344  37.884  17.150   3.725
53137W        W17345  37.020  38.508  12.942
53138W        W17346  12.697  12.225   1.913
53139W        W17347  11.203  10.230  13.414
53140W        W17348  32.106  26.557  12.871
53141W        W17349  42.022  43.929   2.831
53142W        W17350  17.164  44.292  14.439
53143W        W17351  23.237  28.968   3.793
53144W        W17352  10.709  32.945   1.405
53145W        W17353  36.576  33.571   2.226
53146W        W17354  10.190  37.374  11.997
53147W        W17355  15.741  27.465   0.813
53148W        W17356  40.969  17.737  14.346
53149W        W17357  19.708  44.920   1.268
53150W        W17358  34.081  30.464  14.398
53151W        W17359  20.136   1.851  12.406
53152W        W17360  34.392   8.808   2.248
53153W        W17361   0.942  24.214   0.297
53154W        W17362  14.814  42.841  10.151
53155W        W17363  32.521  16.193  11.473
53156W        W17364   4.860   5.785   1.737
53157W        W17365  27.998   8.685   0.755
53158W        W17366   0.310  17.163  12.386
53159W        W17367  30.627  18.592  13.314
53160W        W17368  39.549  37.011  14.413
53161W        W17369  32.535  38.920   1.430
53162W        W17370  31.115  30.468  10.410
53163W        W17371  31.469  20.200   3.632
53164W        W17372  36.432  23.995   1.794
53165W        W17373  39.356   4.860  14.305
53166W        W17374   5.253   3.778   3.272
53167W        W17375  27.542  27.948   1.750
53168W        W17376  42.415  33.126   4.734
53169W        W17377  23.650  25.589  11.532
53170W        W17378  41.835  28.133   0.937
53171W        W17379  43.281  24.026  14.956
53172W        W17380  10.369  13.697  11.074
53173W        W17381  21.182  17.160   3.152
53174W        W17382   8.376  26.981   4.786
53175W        W17383   0.320  11.162   2.899
53176W        W17384  33.115  18.094  13.379
53177W        W17385  10.188  43.845   1.329
53178W        W17386  26.679  32.421   3.640
53179W        W17387  31.118   2.398  12.434
53180W        W17388   5.781  14.239   4.763
53181W        W17389   4.907  40.892   3.149
53182W        W17390   1.773  41.450  13.430
53183W        W17391   7.332  20.735  14.977
53184W        W17392  44.493   9.219   3.297
53185W        W17393  33.579  12.149  10.475
53186W        W17394  24.218   9.810  12.386
53187W        W17395  41.855  33.417   4.309
53188W        W17396  27.563   7.668   0.299
53189W        W17397  18.200  24.136  13.023
53190W        W17398  41.511  25.196   1.912
53191W        W17399  19.622  36.874   0.840
53192W        W17400  23.070  18.604   3.638
53193W        W17401   4.735  34.384   3.206
53194W        W17402  28.157   3.401   4.791
53195W        W17403   5.927  20.752  11.480
53196W        W17404   9.235  25.570  14.443
53197W        W17405  35.948  36.362  10.556
53198W        W17406  16.148  22.064   4.307
53199W        W17407   9.189  25.640   3.804
53200W        W17408   4.766  20.731   3.159
53201W        W17409  24.198  24.975   9.997
53202W        W17410   9.737  39.488   0.445
53203W        W17411  13.790  17.202   3.803
53204W        W17412   6.365  39.001  10.602
53205W        W17413  21.096  36.382   4.158
53206W        W17414  21.515  33.433   4.242
53207W        W17415  27.604  31.051  14.864
53208W        W17416  27.672   0.421   2.280
53209W        W17417  27.573   3.383   4.708
53210W        W17418   2.835   9.233  13.886
53211W        W17419   5.836  44.977  13.928
53212W        W17420  24.088   3.271  11.380
53213W        W17421  43.447   1.736   0.444
53214W        W17422  17.666  11.326   0.961
53215W        W17423   5.413  24.705   3.758
53216W        W17424   4.373  38.006  12.031
53217W        W17425  30.971  42.804   4.751
53218W        W17426   9.660  19.114  13.404
53219W        W17427  31.430  39.030   3.692
53220W        W17428  15.585  27.183   3.266
53221W        W17429  42.978  34.540  14.887
53222W        W17430  29.050  39.540  12.863
53223W        W17431  22.224  23.157  12.048
53224W        W17432  39.960   8.287   3.828
53225W        W17433  32.914  28.135   4.691
53226W        W17434  17.101  13.128  11.973
53227W        W17435  10.685  14.236   5.302
53228W        W17436  25.086  44.937   3.713
53229W        W17437   9.210   8.759  13.351
53230W        W17438  14.299  17.757  11.019
53231W        W17439  44.406  39.060   3.742
53232W        W17440   3.794  43.277  11.960
53233W        W17441  40.359  24.985  13.809
53234W        W17442  44.317  21.067   0.775
53235W        W17443  37.434  14.639  11.610
53236W        W17444  35.490  42.841   1.912
53237W        W17445   4.783  41.346   3.798
53238W        W17446   3.710   3.291   1.721
53239W        W17447  17.719  38.862  11.125
53240W        W17448   2.865   9.320   2.258
53241W        W17449   3.258  11.857  14.813
53242W        W17450  42.363   4.761   4.696
53243W        W17451  21.751  34.565  12.473
53244W        W17452  35.003  15.675   4.130
53245W        W17453  13.798  20.245  12.464
53246W        W17454  44.919  30.560   2.674
53247W        W17455  43.896  39.552  11.081
53248W        W17456  26.061   7.764  14.030
53249W        W17457  35.446  37.996  12.826
53250W        W17458  22.140  39.478   4.640
53251W        W17459  27.992  39.474  13.986
53252W        W17460   7.184  40.439  10.412
53253W        W17461  14.631   2.332  12.558
53254W        W17462  24.066  23.985   0.797
53255W        W17463  30.157  42.003  14.308
53256W        W17464  32.086  12.279  12.069
53257W        W17465  16.267  23.036   1.911
53258W        W17466   3.446  42.406  14.905
53259W        W17467  21.537  10.322  13.920
53260W        W17468  21.055  31.031  10.469
53261W        W17469  18.092  36.416  13.410
53262W        W17470  39.415  44.753   1.933
53263W        W17471  34.561   0.285   4.740
53264W        W17472  18.782  25.013   4.321
53265W        W17473  10.758   0.865   4.760
53266W        W17474  20.545  24.051   3.255
53267W        W17475  13.712  36.878  14.466
53268W        W17476  29.604  39.337  12.969
53269W        W17477  14.786   3.322  13.399
53270W        W17478  13.606  38.955   2.817
53271W        W17479   4.803  40.495   0.791
53272W        W17480  22.703  40.991  12.860
53273W        W17481  29.640   5.781   2.736
53274W        W17482  37.044  23.562   3.860
53275W        W17483  18.762  22.066   4.758
53276W        W17484  27.181  17.578   0.285
53277W        W17485  35.891  32.904   3.650
53278W        W17486   7.214  41.867   0.884
53279W        W17487   4.245  14.274   2.224
53280W        W17488   4.842  28.647   9.958
53281W        W17489  21.024  26.953   4.673
53282W        W17490  15.618  25.061   1.243
53283W        W17491  17.087  13.127   2.298
53284W        W17492  26.072  26.600   4.778
53285W        W17493  10.355  35.924  12.030
53286W        W17494  30.019   7.338   2.283
53287W        W17495  31.429  30.565  12.076
53288W        W17496  17.095   9.726   1.273
53289W        W17497   2.915  29.120  10.610
53290W        W17498  34.511  42.405   1.918
53291W        W17499  25.661  10.731   1.282
53292W        W17500  32.472  30.552   0.942
53293W        W17501  44.798  43.798  11.076
53294W        W17502   5.906  40.389   4.657
53295W        W17503   4.212  16.586   4.271
53296W        W17504  18.564   0.358   3.317
53297W        W17505  17.590  28.608   1.704
53298W        W17506  44.916  11.697   0.740
53299W        W17507  12.697  14.187   1.389
53300W        W17508  23.621  39.390   4.698
53301W        W17509  22.137  39.024   1.333
53302W        W17510  10.376  13.748   2.732
53303W        W17511  32.432  31.038  12.047
53304W        W17512  28.941  39.991   3.668
53305W        W17513  43.953  37.560   0.253
53306W        W17514  23.024  35.875   2.715
53307W        W17515  43.470   7.881   2.331
53308W        W17516  21.236  41.799  13.326
53309W        W17517  15.803  16.266   0.943
53310W        W17518  29.018  44.809  10.520
53311W        W17519  35.602  12.194   4.715
53312W        W17520  28.090  22.107  11.609
53313W        W17521  43.295  25.629   1.239
53314W        W17522  35.964  28.104   0.419
53315W        W17523  32.617  40.033  10.581
53316W        W17524  14.266   0.944   0.763
53317W        W17525  12.360  31.417   1.273
53318W        W17526  17.577   6.195   4.222
53319W        W17527  34.409   7.702   0.378
53320W        W17528  32.516  28.669   3.271
53321W        W17529  20.711  35.518   4.154
53322W        W17530  38.047  32.988   0.282
53323W        W17531  25.633   6.329  14.852
53324W        W17532  26.989  20.243   3.821
53325W        W17533  13.251  29.647   0.343
53326W        W17534   2.850   1.786  10.629
53327W        W17535  24.679  23.203   0.731
53328W        W17536   5.722   8.713  11.499
53329W        W17537  31.427  20.110   2.401
53330W        W17538  22.156  13.634   1.856
53331W        W17539  30.092  29.571   1.855
53332W        W17540   9.249   9.270  12.046
53333W        W17541  29.484  20.080   4.764
53334W        W17542   3.952   2.856   3.642
53335W        W17543  12.291  11.653   1.410
53336W        W17544  26.042  44.804  11.978
53337W        W17545  16.199   9.286  13.366
53338W        W17546  31.428  33.533  11.465
53339W        W17547  10.145   7.311  14.017
53340W        W17548   7.276  33.056  12.969
53341W        W17549  33.127  24.560   0.856
53342W        W17550  42.392  35.106   2.682
53343W        W17551  18.197  32.604  11.446
53344W        W17552  14.321  12.183   4.328
53345W        W17553  19.704  20.765   4.707
53346W        W17554  20.691  29.008  14.787
53347W        W17555  41.997  36.937  11.039
53348W        W17556  19.065  36.065  11.483
53349W        W17557  29.612  30.125  14.443
53350W        W17558  31.631  29.137  13.863
53351W        W17559  12.305  29.604   2.209
53352W        W17560  15.307  39.397   0.401
53353W        W17561  21.021  42.823  12.482
53354W        W17562  13.220  10.813  14.408
53355W        W17563  24.078   8.318   1.229
53356W        W17564  13.192  29.616  11.406
53357W        W17565  12.258  11.328   1.361
53358W        W17566   1.447  42.977  13.331
53359W        W17567  39.986  33.474   1.226
53360W        W17568  28.152  10.311  12.889
53361W        W17569  37.350  35.544   1.828
53362W        W17570  26.491  29.960  10.519
53363W        W17571  32.537  40.973   0.914
53364W        W17572  16.209  16.252  11.084
53365W        W17573   2.896  19.131  11.082
53366W        W17574  10.800  42.411   4.145
53367W        W17575  12.802  37.538   4.715
53368W        W17576  41.355   2.452   2.277
53369W        W17577  25.607  12.742  10.971
53370W        W17578  36.919  32.908  14.320
53371W        W17579  24.064   5.846  12.959
53372W        W17580  12.126  44.903   4.231
53373W        W17581  28.602  24.980   0.470
53374W        W17582  41.030  24.648  11.100
53375W        W17583   4.431  31.574   1.250
53376W        W17584  32.899  41.824   4.631
53377W        W17585  29.156  17.616   2.862
53378W        W17586  21.050  42.522  11.580
53379W        W17587  15.301  43.900  14.396
53380W        W17588   3.315   1.857  10.130
53381W        W17589  26.595  43.786   2.804
53382W        W17590  30.554   4.253  11.510
53383W        W17591   7.668  31.643   0.820
53384W        W17592  42.869  13.771  10.423
53385W        W17593  35.554  41.450  11.559
53386W        W17594  12.733  10.251  11.055
53387W        W17595  25.507   5.770  11.878
53388W        W17596  40.409   7.726   4.723
53389W        W17597  13.234   3.392   3.858
53390W        W17598  26.475  40.935  14.385
53391W        W17599   0.466  35.406   2.752
53392W        W17600  39.886  14.111   4.669
53393W        W17601  18.672  32.408  12.439
53394W        W17602   7.713  11.691   1.386
53395W        W17603  16.782  16.310   3.145
53396W        W17604  27.499  44.490   0.760
53397W        W17605  30.456   8.336  13.844
53398W        W17606   6.820   9.651  14.924
53399W        W17607  32.027  27.997   0.789
53400W        W17608   9.753  13.606  12.574
53401W        W17609  28.076   5.238  13.955
53402W        W17610   3.393  27.000  13.333
53403W        W17611  25.969  31.572   3.767
53404W        W17612   6.743  19.116  13.827
53405W        W17613   5.760  28.577   1.305
53406W        W17614  19.687  10.650  10.573
53407W        W17615  29.080  11.253   1.933
53408W        W17616   3.322  38.061  13.414
53409W        W17617   0.305  33.609  10.120
53410W        W17618  39.372   9.801  12.942
53411W        W17619  13.759  39.937  14.866
53412W        W17620  37.559  22.545  10.635
53413W        W17621  24.986  16.219   3.816
53414W        W17622  23.652   5.813  12.861
53415W        W17623  43.882  29.164  10.103
53416W        W17624   7.291  11.829  13.052
53417W        W17625  17.655  32.568  10.557
53418W        W17626  29.555  32.535   1.864
53419W        W17627  36.037   3.389   4.733
53420W        W17628  20.095   7.400   5.641
53421W        W17629   0.309  10.161   2.364
53422W        W17630  34.463  35.512   3.340
53423W        W17631  25.529  39.501   0.461
53424W        W17632  37.408  13.776   1.831
53425W        W17633  26.578  29.992   2.853
53426W        W17634  27.186   2.924  14.813
53427W        W17635  27.491  27.655   0.920
53428W        W17636  25.190  14.750   3.726
53429W        W17637  40.378   8.755  11.575
53430W        W17638  15.328  40.966  12.825
53431W        W17639  30.094   2.454   0.838
53432W        W17640  36.588  16.796  11.093
53433W        W17641  19.699  41.917  12.935
53434W        W17642   0.333   1.444  13.008
53435W        W17643  16.668   4.794   0.253
53436W        W17644  15.097   0.404  11.538
53437W        W17645   1.328  33.542  13.022
53438W        W17646  18.641  30.565   3.271
53439W        W17647  35.912  29.667   2.262
53440W        W17648  44.367  32.937  10.964
53441W        W17649  19.256  24.205   1.740
53442W        W17650  21.069  31.897  14.800
53443W        W17651  36.914   2.342  13.957
53444W        W17652  38.433  10.696  10.985
53445W        W17653  30.935  28.502   0.807
53446W        W17654  25.492  21.112   4.132
53447W        W17655  36.937  33.442  11.549
53448W        W17656  38.974   4.305  11.488
53449W        W17657  44.328  35.427  12.496
53450W        W17658  42.865  27.473   9.972
53451W        W17659  27.661   1.334   2.183
53452W        W17660  14.814   6.306  11.393
53453W        W17661  12.197   5.770   3.867
53454W        W17662  30.527  31.554   4.342
53455W        W17663  15.295  44.383  12.343
53456W        W17664  17.155   4.274   9.924
53457W        W17665  21.517  15.241   1.767
53458W        W17666  22.557  39.965  12.978
53459W        W17667  12.663  37.890   3.233
53460W        W17668  41.309   3.860   5.601
53461W        W17669  40.052  37.423   2.362
53462W        W17670  43.896  19.152  13.907
53463W        W17671  22.661  42.413  11.948
53464W        W17672   2.360  12.838  11.037
53465W        W17673  23.494   7.726   2.407
53466W        W17674   5.872  15.288   4.334
53467W        W17675  16.159  28.990   1.444
53468W        W17676  27.475  42.823  11.961
53469W        W17677  28.678  39.494   4.789
53470W        W17678  21.054  15.224  13.033
53471W        W17679  39.875  34.979   0.820
53472W        W17680  16.722  38.570   3.665
53473W        W17681  14.675   5.864   4.344
53474W        W17682  13.219  19.772   1.923
53475W        W17683  28.016  38.400  10.503
53476W        W17684  21.083   4.815  13.322
53477W        W17685   4.812  34.875  10.513
53478W        W17686   8.400  17.795   2.306
53479W        W17687  26.560  24.017   4.824
53480W        W17688  22.684  26.625  12.492
53481W        W17689  22.549  27.000  10.529
53482W        W17690  20.230  14.775   5.762
53483W        W17691  10.202  21.586   1.804
53484W        W17692  23.022   5.262  14.807
53485W        W17693  42.424  31.638  11.562
53486W        W17694  24.723  18.277  13.889
53487W        W17695  26.172  31.014   0.334
53488W        W17696  38.502   7.866   0.374
53489W        W17697  34.907   7.763  11.408
53490W        W17698   1.804  37.906  12.990
53491W        W17699  29.125  18.638   0.410
53492W        W17700   4.708  29.633   5.322
53493W        W17701  15.299  37.469  12.472
53494W        W17702  15.295   1.380  14.929
53495W        W17703  44.001  26.499  14.859
53496W        W17704  29.585  37.917  13.039
53497W        W17705  13.297  34.553  14.816
53498W        W17706   1.245  32.590  11.873
53499W        W17707  10.782   2.742   2.205
53500W        W17708  38.954  16.632   1.216
53501W        W17709  35.055  37.376  10.088
53502W        W17710   6.782  42.896   1.796
53503W        W17711  18.076   6.872   0.316
53504W        W17712  33.600  39.472  10.430
53505W        W17713  29.078  27.032  11.112
53506W        W17714  43.336  30.623   2.342
53507W        W17715  44.970  12.245   0.783
53508W        W17716   6.309  18.243   0.825
53509W        W17717  33.125  40.403   2.395
53510W        W17718  42.935  10.252  11.107
53511W        W17719  24.163  24.533  10.966
53512W        W17720  38.474  31.628   4.249
53513W        W17721  37.927   8.229   2.243
53514W        W17722   0.978  38.850   4.128
53515W        W17723  21.686  26.953   1.855
53516W        W17724  34.564  13.287   3.814
53517W        W17725  26.999  20.762   0.775
53518W        W17726  23.222  13.277  12.444
53519W        W17727   5.928   3.376  14.472
53520W        W17728   7.805   1.410  13.498
53521W        W17729  36.994  30.502  10.978
53522W        W17730   1.836  31.946  14.944
53523W        W17731   0.907  40.023   3.383
53524W        W17732   0.354  32.924   2.824
53525W        W17733   0.330  29.158  10.644
53526W        W17734  29.920  22.692   4.743
53527W        W17735  37.513   8.185  11.039
53528W        W17736  30.911  23.693   3.180
53529W        W17737  39.983   8.257   4.755
53530W        W17738  20.563  11.298   4.652
53531W        W17739  29.554  29.455  10.550
53532W        W17740  40.545  38.872  10.143
53533W        W17741  15.113  11.345   0.282
53534W        W17742  23.103   4.322  14.793
53535W        W17743   1.778  11.311   2.252
53536W        W17744  17.659  23.121   2.328
53537W        W17745  39.984  39.444  11.559
53538W        W17746  32.998  23.175   3.170
53539W        W17747   7.855   7.287   3.714
53540W        W17748  33.544   6.834  14.514
53541W        W17749  39.991  14.659   0.736
53542W        W17750   6.915  32.045  14.782
53543W        W17751  16.686  32.916  11.577
53544W        W17752   0.963   9.366  11.118
53545W        W17753  19.071  43.410   1.302
53546W        W17754  31.897  22.575   4.285
53547W        W17755  32.630  33.049  10.410
53548W        W17756  41.422  25.184  11.380
53549W        W17757  36.038  36.485   0.381
53550W        W17758  44.956  33.946   0.293
53551W        W17759  41.479  41.297  11.586
53552W        W17760   4.766  23.093   0.285
53553W        W17761  42.360   6.862  12.350
53554W        W17762  44.843  43.382  14.411
53555W        W17763  20.199  34.893  11.906
53556W        W17764  20.149  13.615   1.442
53557W        W17765  44.301  41.795  12.479
53558W        W17766   7.692  10.788   2.305
53559W        W17767  31.931  42.969   0.248
53560W        W17768   6.324  43.967   2.241
53561W        W17769   4.336  31.637  14.415
53562W        W17770  40.924  21.643   4.194
53563W        W17771  24.687  18.590   0.920
53564W        W17772  38.001  28.590   3.649
53565W        W17773  29.430  34.925  14.775
53566W        W17774  42.976   9.378  14.887
53567W        W17775   4.834  31.951  11.866
53568W        W17776  14.704  38.937  12.579
53569W        W17777   1.797  33.550  10.555
53570W        W17778   6.895  40.825  14.003
53571W        W17779  44.470  29.997   3.788
53572W        W17780  14.292  32.099  13.004
53573W        W17781  42.787  24.625   2.316
53574W        W17782  32.934  34.007  11.405
53575W        W17783   6.394  26.985   1.370
53576W        W17784  12.159   1.778  12.029
53577W        W17785  20.035  15.115  10.404
53578W        W17786  39.355  35.555  10.919
53579W        W17787  34.483  41.967   4.324
53580W        W17788  17.146  44.010  14.439
53581W        W17789   4.711  15.280   3.761
53582W        W17790  26.631  28.583   1.925
53583W        W17791  26.088  20.055   2.416
53584W        W17792  25.120  17.631   2.897
53585W        W17793  16.177   9.811   2.188
53586W        W17794   1.460  23.534  14.447
53587W        W17795   2.896  25.616   2.872
53588W        W17796  20.070  21.103   2.302
53589W        W17797  37.578   0.757   1.706
53590W        W17798  39.845  36.499   2.828
53591W        W17799  23.095   4.826  11.063
53592W        W17800  15.293  12.332   2.360
53593W        W17801  24.581  20.622  13.954
53594W        W17802  41.378   8.824  11.894
53595W        W17803   0.859  34.385  13.499
53596W        W17804  40.341  19.103   5.699
53597W        W17805  12.182   3.249  13.363
53598W        W17806  13.247  21.675   2.276
53599W        W17807   0.777  11.805   4.715
53600W        W17808  10.379   1.480  14.777
53601W        W17809   3.228  42.517   3.860
53602W        W17810  35.425  23.652  11.895
53603W        W17811  41.038  25.093   4.763
53604W        W17812  18.735  41.860   2.902
53605W        W17813  11.710   9.749  14.318
53606W        W17814  44.781  11.137   2.315
53607W        W17815  14.677  39.023   1.400
53608W        W17816  22.073  18.633  13.028
53609W        W17817  29.471  11.745   2.864
53610W        W17818   0.449  28.589   9.994
53611W        W17819  36.050  15.155  11.424
53612W        W17820  30.135  25.567   3.670
53613W        W17821  21.156  26.020   1.405
53614W        W17822   4.728  42.811  13.307
53615W        W17823  30.586  31.441  13.009
53616W        W17824  18.126  10.222   3.292
53617W        W17825  41.863   5.783   0.935
53618W        W17826  35.977   2.882   2.317
53619W        W17827  31.145   1.958  12.011
53620W        W17828  25.987  36.459  12.905
53621W        W17829  16.627  41.996   0.759
53622W        W17830  21.060  28.052   2.232
53623W        W17831   9.214  14.749  11.051
53624W        W17832  39.879  24.157  13.811
53625W        W17833  36.888  26.056   4.152
53626W        W17834  33.411  36.957   0.246
53627W        W17835  42.458  24.148   2.194
53628W        W17836  35.105  18.686   1.820
53629W        W17837  40.395  10.141   4.794
53630W        W17838  23.098  39.380  12.935
53631W        W17839  40.402  27.058   1.763
53632W        W17840   5.769   5.761   4.788
53633W        W17841  39.918  33.019  12.512
53634W        W17842  43.371  31.627   0.287
53635W        W17843  27.038   4.328   0.861
53636W        W17844  28.091  33.529   5.217
53637W        W17845  44.408   2.284  13.374
53638W        W17846  34.386  21.092  10.991
53639W        W17847  27.622  10.246  12.907
53640W        W17848  13.665  30.629   3.809
53641W        W17849  28.625  29.923   4.263
53642W        W17850  29.476  32.474   2.388
53643W        W17851  36.858  15.141   0.919
53644W        W17852  37.925  11.831   1.427
53645W        W17853  11.824   5.832  14.885
53646W        W17854  32.503   3.245   2.846
53647W        W17855  32.546  38.979  14.948
53648W        W17856  19.577   2.465  11.958
53649W        W17857   9.233  41.863   0.461
53650W        W17858  37.878  41.432   3.657
53651W        W17859  19.224  17.640  14.873
53652W        W17860  38.831  25.603  14.360
53653W        W17861  39.513   4.819  13.364
53654W        W17862  19.103   5.278  14.818
53655W        W17863  27.012   0.462   1.265
53656W        W17864  20.736   6.779  11.605
53657W        W17865   7.681  28.146   4.286
53658W        W17866  32.932  11.737  11.565
53659W        W17867  38.970  33.901  12.552
53660W        W17868  36.092  10.203   4.167
53661W        W17869  16.763  11.865  11.859
53662W        W17870  30.072  13.280  10.969
53663W        W17871  20.704  22.204   0.449
53664W        W17872  16.692   7.222  10.430
53665W        W17873  33.458   7.301  13.338
53666W        W17874  13.791  28.159   1.282
53667W        W17875  35.485  18.749  14.298
53668W        W17876  30.131  15.184   1.349
53669W        W17877  44.900  21.757   3.343
53670W        W17878   4.703  34.891   1.776
53671W        W17879  41.921  32.491  10.623
53672W        W17880   0.334  37.067   1.312
53673W        W17881   6.794  39.917  11.480
53674W        W17882   0.467   6.719  14.510
53675W        W17883   9.646   8.677  13.504
53676W        W17884  43.401  41.328  10.592
53677W        W17885  41.345  36.023   0.892
53678W        W17886   6.247  12.623  12.944
53679W        W17887  16.074   1.406  11.380
53680W        W17888  12.148   1.801  10.540
53681W        W17889  10.784   1.863   0.408
53682W        W17890  28.950  16.261   2.755
53683W        W17891  18.568  13.327   3.170
53684W        W17892   3.842  28.016  11.521
53685W        W17893  41.020  27.553  13.988
53686W        W17894  44.940  41.366   2.187
53687W        W17895  28.611   7.676   3.687
53688W        W17896  21.058  38.477   4.319
53689W        W17897  22.068  40.018  12.925
53690W        W17898   6.329  38.345   2.398
53691W        W17899  18.239  24.495  12.466
53692W        W17900  10.346  37.421   0.752
53693W        W17901  29.621  14.173   0.760
53694W        W17902  20.062  19.177   0.280
53695W        W17903  25.663  14.658  14.013
53696W        W17904  42.425  27.511  11.434
53697W        W17905  38.407  17.593   0.305
53698W        W17906   6.371  34.894  12.524
53699W        W17907  13.209  17.077  13.060
53700W        W17908  18.678  44.434   1.750
53701W        W17909  22.581  20.664  13.326
53702W        W17910  16.262   9.181   4.128
53703W        W17911  19.752  27.966   2.780
53704W        W17912   9.213  28.019   4.644
53705W        W17913  35.541  15.744   4.617
53706W        W17914   8.672  35.418  14.990
53707W        W17915   3.239   6.793   0.831
53708W        W17916  29.653  30.605   4.124
53709W        W17917  17.761  15.197  13.847
53710W        W17918  20.044  43.327   4.757
53711W        W17919  33.442   6.692   4.211
53712W        W17920  41.510  42.403   3.198
53713W        W17921  28.936  17.645  12.378
53714W        W17922  43.307  21.591   1.859
53715W        W17923  15.818  24.112   3.354
53716W        W17924   1.456   3.315   2.264
53717W        W17925  40.958  10.380  12.875
53718W        W17926  38.054  16.603   2.383
53719W        W17927  42.997  39.534  12.468
53720W        W17928   8.799  40.980  12.859
53721W        W17929  12.148  39.828  14.893
53722W        W17930  15.695   2.467   2.271
53723W        W17931   0.451  22.196   3.229
53724W        W17932  22.726  16.081   5.108
53725W        W17933   8.695   9.318   4.289
53726W        W17934  30.430   2.875  13.053
53727W        W17935  38.356  24.006   2.320
53728W        W17936  27.158   6.398  14.908
53729W        W17937  35.917   7.397   0.477
53730W        W17938   2.319  19.619   0.247
53731W        W17939  13.217  26.139   2.199
53732W        W17940  34.070   1.924  14.810
53733W        W17941  27.506  43.978   4.731
53734W        W17942  16.135   2.799   1.727
53735W        W17943  42.482   9.381   0.333
53736W        W17944  25.045  36.986   0.281
53737W        W17945  11.322  22.249   0.799
53738W        W17946  28.496  10.328  14.966
53739W        W17947   0.320  41.521  12.541
53740W        W17948  40.372   9.834   4.736
53741W        W17949  38.525  38.036   4.687
53742W        W17950  24.133  14.828  13.387
53743W        W17951   8.201   7.210   0.287
53744W        W17952  13.653  18.607  10.577
53745W        W17953  25.612  33.536  14.414
53746W        W17954  12.240  16.111  13.511
53747W        W17955   7.856  34.892   3.815
53748W        W17956   8.793  28.004  12.058
53749W        W17957   0.829  43.930  13.403
53750W        W17958   5.320  12.221   4.131
53751W        W17959  16.686  27.121  11.405
53752W        W17960  35.901  17.699   4.782
53753W        W17961  25.991  24.086  11.116
53754W        W17962  37.569  35.069  11.398
53755W        W17963  41.472  44.313   0.289
53756W        W17964  23.559  13.242   1.312
53757W        W17965  20.074  10.820  14.336
53758W        W17966  42.348  14.593   0.737
53759W        W17967  18.264  44.406   0.339
53760W        W17968  26.503  26.592  11.946
53761W        W17969  35.998  20.219   5.318
53762W        W17970  20.250  27.037  13.044
53763W        W17971  24.212  29.658   9.934
53764W        W17972  23.626   6.839   2.402
53765W        W17973  32.889  21.745  12.833
53766W        W17974  17.743  23.655   0.883
53767W        W17975   5.215  28.589   3.737
53768W        W17976   9.219  43.882   1.319
53769W        W17977  22.218  17.223  14.362
53770W        W17978  17.572  35.917   0.793
53771W        W17979  13.314   6.215  14.380
53772W        W17980  39.432  30.623   3.798
53773W        W17981   7.277   0.426   2.670
53774W        W17982  18.254  39.421   0.873
53775W        W17983  32.458  29.048   3.188
53776W        W17984  36.902  43.978   4.662
53777W        W17985  26.001  13.825  10.475
53778W        W17986  43.373  11.660  11.011
53779W        W17987  42.960   5.217   4.819
53780W        W17988  16.110  22.204   0.728
53781W        W17989  20.596  14.113  14.981
53782W        W17990  38.938  39.463  11.083
53783W        W17991   7.274  32.110   3.348
53784W        W17992  23.688  43.299   2.817
53785W        W17993  30.421  37.462  10.982
53786W        W17994  12.649  19.174  10.444
53787W        W17995   0.777  13.721  14.516
53788W        W17996   3.853  15.654   4.629
53789W        W17997  16.626  43.933   3.759
53790W        W17998  33.910  38.970  11.973
53791W        W17999  27.973  32.026  14.387
53792W        W18000  33.615  30.041  12.880
53793W        W18001  11.372  44.894   1.759
53794W        W18002  41.804  26.024  12.846
53795W        W18003  43.407  10.157  12.969
53796W        W18004   0.344   6.791  12.360
53797W        W18005  14.132  39.497  14.875
53798W        W18006  43.800  14.212  11.070
53799W        W18007  29.073  26.179  11.579
53800W        W18008  18.234  41.945   0.361
53801W        W18009  31.563   5.261   2.820
53802W        W18010   3.725  11.837  11.483
53803W        W18011  17.633  12.147   1.397
53804W        W18012  43.398  22.557   4.260
53805W        W18013  42.947  30.473  13.413
53806W        W18014  19.204  29.548   3.771
53807W        W18015  38.071  18.095   4.747
53808W        W18016  17.174  12.620  12.060
53809W        W18017  17.098  43.433  11.533
53810W        W18018  26.541  22.521   0.379
53811W        W18019  33.898  21.252  11.976
53812W        W18020  43.963   9.276  14.419
53813W        W18021   5.926  33.407   3.291
53814W        W18022  27.612   4.796   3.684
53815W        W18023   9.370  14.834  14.919
53816W        W18024   4.726   3.336   2.251
53817W        W18025  31.125   0.878  12.388
53818W        W18026   6.316  19.687   4.678
53819W        W18027  43.927   2.235   2.298
53820W        W18028  31.458   3.359   3.635
53821W        W18029  19.149   8.703  10.951
53822W        W18030  32.038  24.530  13.812
53823W        W18031  19.640  12.253  11.012
53824W        W18032  43.369  32.458  10.900
53825W        W18033   1.255  36.988   5.096
53826W        W18034   1.769  19.634  10.501
53827W        W18035   3.939  35.945   3.200
53828W        W18036  41.003  24.684  13.354
53829W        W18037   9.195  13.192  11.387
53830W        W18038  16.779  23.161   1.348
53831W        W18039  36.399  30.072  14.495
53832W        W18040   5.301   0.984  14.514
53833W        W18041   7.398  44.267  10.919
53834W        W18042  19.568  29.479  13.523
53835W        W18043  26.590  29.667  14.481
53836W        W18044  11.634  28.663   2.726
53837W        W18045  20.171  32.445   3.249
53838W        W18046   2.915  28.480   0.903
53839W        W18047  39.019   0.875  13.881
53840W        W18048  40.424  19.073  10.509
53841W        W18049  26.495   8.203   0.960
53842W        W18050   5.909  11.273   0.249
53843W        W18051  29.651  26.176  10.435
53844W        W18052  15.775  24.164   1.815
53845W        W18053  12.851   5.319   1.335
53846W        W18054  22.659   1.913  12.980
53847W        W18055   7.819  20.750   4.243
53848W        W18056  25.568  11.316  12.056
53849W        W18057  28.614  23.081  12.954
53850W        W18058   3.794  25.988   3.256
53851W        W18059  22.677  22.537   1.738
53852W        W18060  22.559  19.697  10.438
53853W        W18061   9.868   8.658   4.180
53854W        W18062  29.128  31.976  13.049
53855W        W18063  31.633  15.807   3.243
53856W        W18064   0.887  13.205   2.731
53857W        W18065  31.595  25.982   1.795
53858W        W18066  44.970   8.275  10.940
53859W        W18067  34.913  29.958  11.039
53860W        W18068  22.698  24.588  13.358
53861W        W18069  44.342  29.477   9.560
53862W        W18070  41.526  23.490  10.991
53863W        W18071  44.315  31.489   0.312
53864W        W18072   1.459  42.498  11.108
53865W        W18073   0.354  22.656   0.823
53866W        W18074  12.662  18.742  14.478
53867W        W18075  40.925  36.090  14.893
53868W        W18076  40.489  12.680  12.396
53869W        W18077  32.404  28.996   3.849
53870W        W18078  33.385   5.282  11.945
53871W        W18079  11.216  21.643  11.600
53872W        W18080  25.009   7.242   3.293
53873W        W18081  31.987  31.137   3.684
53874W        W18082  31.538  25.055   2.831
53875W        W18083   0.904  23.547  11.507
53876W        W18084  44.293  38.341  10.996
53877W        W18085  16.739  28.507  11.906
53878W        W18086  44.304  34.591  10.113
53879W        W18087  29.579  20.195   1.331
53880W        W18088  25.604   7.391  14.378
53881W        W18089  42.365  20.084   0.317
53882W        W18090  33.472  39.879  14.298
53883W        W18091   2.236  12.277   2.853
53884W        W18092  43.020  35.562  12.465
53885W        W18093  29.016  20.047   4.296
53886W        W18094   7.242   7.244  13.987
53887W        W18095  19.179   1.273  12.496
53888W        W18096   4.220   1.977  13.806
53889W        W18097  10.857  42.397   0.286
53890W        W18098  15.219   5.367  13.836
53891W        W18099  10.694  26.572   0.468
53892W        W18100   7.214  15.653   2.350
53893W        W18101  32.508  38.835   1.858
53894W        W18102  18.690  29.658   2.258
53895W        W18103   3.404  41.039   2.759
53896W        W18104  41.823  17.771   2.187
53897W        W18105  20.572   0.306  10.963
53898W        W18106  16.136  31.130   0.846
53899W        W18107  26.088  38.366  10.990
53900W        W18108   0.445  28.105  11.910
53901W        W18109  31.942  42.797   1.225
53902W        W18110  36.915  30.005  12.088
53903W        W18111   6.332  31.473   3.858
53904W        W18112  29.164  19.142  12.957
53905W        W18113  36.459   4.750  13.387
53906W        W18114  32.520   3.757   1.829
53907W        W18115  42.899  10.150   0.399
53908W        W18116  31.406  24.979  12.901
53909W        W18117  30.650  25.067   2.187
53910W        W18118  25.977  42.905   0.371
53911W        W18119  39.858  43.929  10.429
53912W        W18120  31.023  11.853  13.402
53913W        W18121  43.775  21.113  11.938
53914W        W18122  23.090   5.833   3.159
53915W        W18123  34.502  12.748  12.923
53916W        W18124  22.073  31.534   3.357
53917W        W18125  11.291  36.883  13.531
53918W        W18126  44.791   5.392   3.274
53919W        W18127  38.923   2.829   0.410
53920W        W18128   8.339  11.278   3.817
53921W        W18129  44.446  20.133   3.319
53922W        W18130  14.333   2.901  13.455
53923W        W18131  25.625   7.805   3.295
53924W        W18132  19.591  29.089   2.822
53925W        W18133  27.982  44.920  14.002
53926W        W18134  19.744   2.272   0.740
53927W        W18135  38.923  37.030  10.965
53928W        W18136   9.301  17.115  14.370
53929W        W18137  25.125  32.474   4.835
53930W        W18138   1.960  12.217  14.967
53931W        W18139  19.548  36.018   0.833
53932W        W18140   3.779  12.160  14.511
53933W        W18141  24.489  34.470  12.342
53934W        W18142  20.590  16.207  13.060
53935W        W18143  21.578  21.646  12.973
53936W        W18144  13.120  19.755  11.955
53937W        W18145  28.529  35.983   0.729
53938W        W18146  31.054  15.315   1.363
53939W        W18147  36.477  13.187   3.344
53940W        W18148  34.048   7.270   2.278
53941W        W18149   9.733  23.005   1.728
53942W        W18150  36.903   1.276  11.973
53943W        W18151  34.957   9.818  11.572
53944W        W18152   8.212   3.747   1.390
53945W        W18153  22.706  33.561  13.492
53946W        W18154  33.458  15.583  12.855
53947W        W18155  34.956  24.552   4.837
53948W        W18156  19.780  31.456   3.630
53949W        W18157  44.943  26.630   3.774
53950W        W18158   0.755  27.977  10.504
53951W        W18159  19.201  11.142  11.418
53952W        W18160  15.792  11.312  11.473
53953W        W18161  12.749  24.125  14.433
53954W        W18162  18.173  13.706  14.007
53955W        W18163   0.843  43.304  10.477
53956W        W18164  29.471   0.335  13.421
53957W        W18165  34.020  33.521  12.070
53958W        W18166   2.910   9.262   0.418
53959W        W18167  12.190  24.975  13.438
53960W        W18168  13.246  16.202  14.865
53961W        W18169  35.920   0.800  12.488
53962W        W18170  30.510   0.928   1.722
53963W        W18171  38.559  15.311  13.425
53964W        W18172  10.299  14.127  14.005
53965W        W18173  15.095   7.713   4.633
53966W        W18174  33.955  27.446  14.477
53967W        W18175  39.520  14.227   1.355
53968W        W18176  41.914  42.860   3.178
53969W        W18177  31.563   3.381   4.598
53970W        W18178  42.302   5.742  12.973
53971W        W18179  12.164  34.976   4.246
53972W        W18180  31.412  44.964   1.390
53973W        W18181   5.415   1.977  12.551
53974W        W18182  23.179  28.959   1.361
53975W        W18183  12.720   6.302  13.824
53976W        W18184  21.081  43.299   3.218
53977W        W18185  30.939  13.314   5.156
53978W        W18186   7.174  31.049  12.966
53979W        W18187   2.768  32.527   0.406
53980W        W18188  28.680  43.429   2.838
53981W        W18189  37.472  36.992   3.225
53982W        W18190  23.550  13.298   3.247
53983W        W18191  15.696  12.689  12.862
53984W        W18192  30.468  13.318  14.999
53985W        W18193  22.176  22.077  10.460
53986W        W18194  10.649   1.936  10.998
53987W        W18195  38.037  23.534   2.835
53988W        W18196  34.553   2.459  13.415
53989W        W18197  16.639   6.419   1.315
53990W        W18198  21.160  13.258  10.910
53991W        W18199  21.186  19.191  13.846
53992W        W18200   3.356   8.732  13.471
53993W        W18201  38.378  17.739  13.396
53994W        W18202  28.596  19.049  14.001
53995W        W18203  44.435  25.591  12.951
53996W        W18204  42.473  24.060  13.494
53997W        W18205   5.902  33.050   3.195
53998W        W18206  24.494  26.131   1.803
53999W        W18207  40.348  30.075   3.642
54000W        W18208  30.566  24.042  10.629
54001W        W18209  40.481   0.389   0.794
54002W        W18210  30.920  31.505   3.647
54003W        W18211  30.046  41.457  14.508
54004W        W18212  23.014  42.826   0.387
54005W        W18213  22.631  37.066  13.428
54006W        W18214  39.499  16.239  13.511
54007W        W18215   8.843  36.580   3.802
54008W        W18216  11.174  35.917  11.464
54009W        W18217   5.394   3.358   2.184
54010W        W18218  25.057  28.508  10.445
54011W        W18219  29.072   9.330  11.923
54012W        W18220  23.492  28.546  10.995
54013W        W18221  42.472  43.970   0.405
54014W        W18222  32.562   3.778  14.312
54015W        W18223  28.959   0.304  11.603
54016W        W18224  34.998  20.623  11.390
54017W        W18225  34.915  26.488  12.377
54018W        W18226  12.650  44.981  14.824
54019W        W18227  31.969  16.678   4.342
54020W        W18228  44.855  23.700   2.862
54021W        W18229   7.370   3.240  14.451
54022W        W18230  20.066  32.952  14.424
54023W        W18231   4.371  32.042  10.644
54024W        W18232   9.384  18.195   4.328
54025W        W18233  26.074  32.080   2.265
54026W        W18234  44.279  17.572  10.550
54027W        W18235  35.416  24.494   0.890
54028W        W18236  34.461  37.019  11.383
54029W        W18237   7.372  26.667  11.952
54030W        W18238  26.519  29.568   4.790
54031W        W18239  33.389  39.005  12.429
54032W        W18240   6.226   7.229   3.733
54033W        W18241   7.868  44.434  10.136
54034W        W18242   0.783  44.400   5.316
54035W        W18243  27.508   4.242   0.816
54036W        W18244  39.828  28.065  12.858
54037W        W18245   8.724  26.499   1.298
54038W        W18246  24.571  34.420   4.763
54039W        W18247   4.293   1.976   3.750
54040W        W18248   0.431  15.215  11.381
54041W        W18249  22.012  20.523   0.419
54042W        W18250  35.023  41.530   1.274
54043W        W18251  35.588  23.992  13.912
54044W        W18252  29.064  27.461  13.933
54045W        W18253  26.614  39.854  11.390
54046W        W18254  41.450  23.023   2.802
54047W        W18255  15.178  29.633  13.972
54048W        W18256  23.171  40.358  14.030
54049W        W18257  16.139  30.597   0.363
54050W        W18258  18.208  22.204   0.320
54051W        W18259  22.201   4.362   4.634
54052W        W18260  33.580  29.431   1.313
54053W        W18261   4.309   9.271  13.309
54054W        W18262  19.254  22.164  13.522
54055W        W18263  24.057  10.325  11.036
54056W        W18264   7.410  28.007  13.413
54057W        W18265  17.244  37.428   2.374
54058W        W18266  32.454  42.479  14.373
54059W        W18267  21.166  33.392  14.848
54060W        W18268  26.063  19.587  11.608
54061W        W18269  17.774  31.630  10.990
54062W        W18270  33.001  41.309   4.139
54063W        W18271  40.882  10.181   4.676
54064W        W18272  41.032  28.093   2.861
54065W        W18273  20.535  10.196  10.521
54066W        W18274  33.537   8.254  13.329
54067W        W18275  13.656  36.898   4.775
54068W        W18276  44.336  37.987   0.961
54069W        W18277  40.910  35.408  10.432
54070W        W18278  18.072  35.862   2.893
54071W        W18279  32.031  34.414  11.106
54072W        W18280  33.498  38.340   2.727
54073W        W18281   8.324   4.894  12.532
54074W        W18282  14.707  27.448  14.813
54075W        W18283   7.345  43.996   2.187
54076W        W18284  17.644  36.855   2.827
54077W        W18285  28.665  34.608   3.810
54078W        W18286  43.917  23.656   3.794
54079W        W18287  12.808  42.885   2.880
54080W        W18288  36.411  36.943  12.852
54081W        W18289  13.340  16.573   1.717
54082W        W18290  28.183  20.069   2.323
54083W        W18291  25.101   6.361  12.929
54084W        W18292  15.590   4.408   0.406
54085W        W18293  18.677  23.096   4.730
54086W        W18294  14.268  34.090   3.832
54087W        W18295  16.697  41.039   1.897
54088W        W18296  30.975  39.917   0.353
54089W        W18297  31.054  17.601   3.792
54090W        W18298   7.720  34.608  11.474
54091W        W18299  41.994  29.666  13.879
54092W        W18300   2.229  18.280  13.336
54093W        W18301  39.463   4.359   4.328
54094W        W18302   0.328  27.493   2.197
54095W        W18303  24.974  29.155  13.860
54096W        W18304   2.424  15.790  10.894
54097W        W18305  32.996   0.460  12.972
54098W        W18306  42.524  40.931   0.758
54099W        W18307  33.124   9.721   2.418
54100W        W18308  28.140  41.412   1.786
54101W        W18309  17.801  12.678  14.935
54102W        W18310  35.882   2.354  14.011
54103W        W18311  34.991  40.311  10.978
54104W        W18312   5.705  19.211   3.247
54105W        W18313   5.853  32.973  10.943
54106W        W18314   1.261  16.103   1.797
54107W        W18315  34.467  23.192   1.266
54108W        W18316  11.688  31.911  14.480
54109W        W18317  13.260   1.804  12.465
54110W        W18318   0.878   6.217  10.157
54111W        W18319  16.121  42.462   2.802
54112W        W18320   8.343   7.298   1.361
54113W        W18321  27.943  32.999   2.342
54114W        W18322  35.565  44.305  14.344
54115W        W18323  29.941   3.763  13.064
54116W        W18324   9.873  35.446   0.376
54117W        W18325  41.486  13.620   4.350
54118W        W18326   6.224  37.534  11.128
54119W        W18327   4.305   1.793   0.358
54120W        W18328  14.801   9.700   1.826
54121W        W18329  44.840  17.189   2.308
54122W        W18330  25.214  23.189  14.994
54123W        W18331  12.293  34.953   0.728
54124W        W18332   8.725  36.027   2.872
54125W        W18333  32.904  34.481   3.684
54126W        W18334  10.158  32.599  14.030
54127W        W18335  25.496   0.871   4.731
54128W        W18336  42.376  40.402  10.460
54129W        W18337  13.191   3.377  13.851
54130W        W18338  30.528  40.034  13.869
54131W        W18339  39.025  18.626   0.243
54132W        W18340   6.710   5.785   3.242
54133W        W18341  17.306   6.308   0.734
54134W        W18342  34.496  41.856  10.456
54135W        W18343   7.349  34.965   4.819
54136W        W18344  16.678  43.497   3.384
54137W        W18345  44.957   9.285  12.952
54138W        W18346  18.205  13.699  14.409
54139W        W18347  13.600  24.639  14.762
54140W        W18348  17.772  24.184  14.810
54141W        W18349  17.731   3.405   3.181
54142W        W18350  44.340  41.036  10.532
54143W        W18351  31.962  12.729   2.853
54144W        W18352  34.095  10.203   4.192
54145W        W18353  24.088  44.342   0.777
54146W        W18354  19.051   6.893   3.818
54147W        W18355  24.524  28.183  13.313
54148W        W18356  11.776  41.868  13.896
54149W        W18357  11.753  33.469   0.305
54150W        W18358  42.940  11.785   5.103
54151W        W18359   8.819  35.934  11.105
54152W        W18360  21.106  41.493  13.413
54153W        W18361  29.616   5.392  12.959
54154W        W18362  39.909   9.230   4.784
54155W        W18363   7.725  14.785  12.003
54156W        W18364   6.226  34.935   4.279
54157W        W18365  30.023  30.142   3.830
54158W        W18366  42.498  25.628   3.648
54159W        W18367   0.879  38.516   0.364
54160W        W18368  23.232   2.383   4.609
54161W        W18369  35.933  38.400   3.178
54162W        W18370  25.002  11.715  11.406
54163W        W18371  10.297  14.733   1.343
54164W        W18372  36.988  16.686   4.642
54165W        W18373  27.184  34.881   3.755
54166W        W18374  29.981  35.031  12.351
54167W        W18375   0.926   9.793   3.683
54168W        W18376   4.890   3.421   1.450
54169W        W18377  41.299  33.957  14.420
54170W        W18378  30.078  12.298  10.461
54171W        W18379  22.218  40.004   1.370
54172W        W18380   1.791  38.439   3.760
54173W        W18381  22.730  30.510  10.053
54174W        W18382  43.483   0.784   3.248
54175W        W18383   2.832  28.534  12.913
54176W        W18384   7.714  22.135   0.295
54177W        W18385  29.951  42.399  11.980
54178W        W18386  30.621  21.061   4.615
54179W        W18387   6.692  20.726   3.756
54180W        W18388  42.485  29.983  13.363
54181W        W18389   6.298  28.970  11.499
54182W        W18390  15.793  35.483   4.174
54183W        W18391  42.006   9.247   2.692
54184W        W18392  38.529  10.293   3.163
54185W        W18393  43.418   0.974   0.280
54186W        W18394  12.665  36.015  11.573
54187W        W18395  35.459  10.762  11.901
54188W        W18396  14.105  12.295  10.567
54189W        W18397  11.172  15.277  13.039
54190W        W18398  26.048  41.435   4.830
54191W        W18399  14.672   5.710   1.766
54192W        W18400  17.177  44.970  14.441
54193W        W18401   3.870   3.948   2.370
54194W        W18402  36.002  25.215   1.928
54195W        W18403  17.268  27.161  12.373
54196W        W18404   2.430  19.087   0.775
54197W        W18405  25.504  32.906   3.655
54198W        W18406  13.807  27.483   3.867
54199W        W18407  11.178  17.706  13.836
54200W        W18408   3.392  37.401   4.645
54201W        W18409  36.945  25.505  11.069
54202W        W18410  32.055  17.637   3.175
54203W        W18411  24.642  37.361   1.423
54204W        W18412  10.719  10.339  11.103
54205W        W18413  17.187  38.033   3.307
54206W        W18414  41.950  11.682   5.307
54207W        W18415  15.632  21.586   1.749
54208W        W18416  34.086   0.817  12.868
54209W        W18417  22.698   7.666   4.705
54210W        W18418  21.579  29.577   2.326
54211W        W18419  31.536  41.529  13.907
54212W        W18420  26.990  38.939  12.401
54213W        W18421  17.598  41.410  12.853
54214W        W18422  31.592   8.819   1.340
54215W        W18423  11.767   3.715   4.173
54216W        W18424   0.310  29.976   2.215
54217W        W18425  32.090   5.259   4.270
54218W        W18426  26.119  43.871   2.257
54219W        W18427  20.132  34.040   1.334
54220W        W18428  42.874  31.957   1.856
54221W        W18429   9.262   1.453   1.260
54222W        W18430  28.444   7.750   4.602
54223W        W18431  39.528  38.556  14.325
54224W        W18432  19.217  33.879  12.025
54225W        W18433  32.082  22.674  13.416
54226W        W18434  13.832  32.895   0.862
54227W        W18435  44.467   9.744   4.302
54228W        W18436  29.665  39.956  10.441
54229W        W18437  35.882  36.891  10.504
54230W        W18438  24.185  25.067   1.733
54231W        W18439  20.601   9.878  14.475
54232W        W18440   0.447  19.106   4.227
54233W        W18441  15.132  38.402  14.504
54234W        W18442  10.218  29.002  14.943
54235W        W18443  26.012  24.576   2.405
54236W        W18444  34.372  12.150   3.784
54237W        W18445  33.927  16.255   1.254
54238W        W18446  10.188   3.234  12.382
54239W        W18447   4.304   1.241   0.831
54240W        W18448  14.190  17.107  13.544
54241W        W18449  29.079  41.929   2.342
54242W        W18450  30.985  35.889   1.333
54243W        W18451  40.459  31.473  12.406
54244W        W18452   1.319  18.137   1.848
54245W        W18453  22.541   1.245   0.455
54246W        W18454  44.500   7.688   5.320
54247W        W18455  27.033  38.383   1.775
54248W        W18456   3.380  15.741  11.532
54249W        W18457  25.133  22.220   0.376
54250W        W18458  31.997  14.658   9.640
54251W        W18459  11.342  17.107  13.802
54252W        W18460  33.479  35.070  14.477
54253W        W18461   6.390   3.733   0.255
54254W        W18462   4.702  38.355   4.820
54255W        W18463  11.735  40.853  14.837
54256W        W18464  31.592   7.205  13.027
54257W        W18465  42.409  19.534   0.943
54258W        W18466  42.337  26.200   3.280
54259W        W18467   9.271  40.451  10.451
54260W        W18468  17.080  32.617  12.380
54261W        W18469   4.765  36.556   3.737
54262W        W18470   5.738   2.731  14.961
54263W        W18471  13.126   9.851  11.381
54264W        W18472  44.766  39.315   2.267
54265W        W18473  26.471  35.598   5.301
54266W        W18474  44.902  28.967  11.490
54267W        W18475  37.473  16.244  11.047
54268W        W18476  29.943  28.151   2.396
54269W        W18477  25.130  23.590   3.341
54270W        W18478   4.354  33.100  10.486
54271W        W18479  16.117  43.788  12.367
54272W        W18480   1.356   0.321  10.061
54273W        W18481  14.312  23.535  12.452
54274W        W18482   1.914  18.711  10.557
54275W        W18483  17.678  14.193   5.132
54276W        W18484  34.935  38.356  14.847
54277W        W18485  35.923  22.191   4.663
54278W        W18486  44.756  32.106  12.886
54279W        W18487  42.415  37.433  11.604
54280W        W18488  19.185  28.528  11.503
54281W        W18489   4.336  23.139  13.867
54282W        W18490   5.775  32.594   3.350
54283W        W18491  40.353  13.174   1.784
54284W        W18492  41.857  26.127  11.876
54285W        W18493  19.261   0.760   4.816
54286W        W18494   4.397  15.715  12.514
54287W        W18495   1.962   8.234  11.400
54288W        W18496  19.176  10.248   0.472
54289W        W18497  23.221  37.982   0.771
54290W        W18498  22.536   1.794   1.786
54291W        W18499  17.287  27.682   4.254
54292W        W18500   2.265  31.619  12.915
54293W        W18501  17.083  42.004  13.802
54294W        W18502  33.573  43.408   3.833
54295W        W18503  43.002  22.743  13.465
54296W        W18504  27.193  27.102   1.883
54297W        W18505  29.472  15.190  14.864
54298W        W18506   6.215  11.318   0.845
54299W        W18507  36.067   3.932   2.764
54300W        W18508   2.256  43.010  14.332
54301W        W18509  33.431  36.424   3.375
54302W        W18510   7.383   4.930   1.798
54303W        W18511   1.374  11.852   3.745
54304W        W18512  41.446   3.429   3.791
54305W        W18513  11.292  11.848   0.895
54306W        W18514  10.709  20.198  12.997
54307W        W18515  44.961  32.408   1.823
54308W        W18516  43.836  10.825   1.900
54309W        W18517  15.683   8.201   0.397
54310W        W18518  16.145  12.645  14.854
54311W        W18519   2.423  23.080   3.204
54312W        W18520  37.366  40.369  12.976
54313W        W18521   8.225   0.279   4.765
54314W        W18522  19.087   1.948  11.535
54315W        W18523  39.362  42.440  11.419
54316W        W18524  33.997   9.366   1.417
54317W        W18525  22.675  22.531   4.771
54318W        W18526  32.094  17.160  12.886
54319W        W18527  39.994  43.936  14.482
54320W        W18528  13.732   3.409  14.968
54321W        W18529  42.954  25.141   1.792
54322W        W18530  41.992  40.521  10.966
54323W        W18531   9.735  43.914   3.346
54324W        W18532  10.148  24.497  13.423
54325W        W18533   6.255  39.887  11.020
54326W        W18534  18.577   0.901  13.484
54327W        W18535  36.370   7.244   2.214
54328W        W18536  18.254  13.677   0.954
54329W        W18537   8.738  19.566  10.023
54330W        W18538   2.840   7.303  13.872
54331W        W18539  28.074  44.449   9.921
54332W        W18540  13.603  11.277  13.393
54333W        W18541  44.318   6.216  13.466
54334W        W18542  22.181  41.515   4.640
54335W        W18543  32.414   0.925   3.776
54336W        W18544   2.425  11.227   1.308
54337W        W18545  28.595  32.526  10.407
54338W        W18546  38.414  29.058   3.287
54339W        W18547  26.568  41.839  12.986
54340W        W18548  32.564  27.651   2.384
54341W        W18549  36.458  44.871  12.989
54342W        W18550   7.291   9.712   3.202
54343W        W18551  44.836  32.076   5.788
54344W        W18552   1.750  23.121   4.308
54345W        W18553  14.173  21.183  14.916
54346W        W18554  27.057  41.946  14.940
54347W        W18555  27.955  42.474   0.957
54348W        W18556  21.696  26.667   1.431
54349W        W18557  21.191  10.205   4.223
54350W        W18558  13.294  43.513  14.952
54351W        W18559   5.884  35.495   4.782
54352W        W18560  37.984  21.253  14.780
54353W        W18561  27.576   5.198   0.778
54354W        W18562  11.254  35.588  13.901
54355W        W18563   8.731  30.136  11.374
54356W        W18564  20.648   2.455   1.855
54357W        W18565  29.541   8.751  11.903
54358W        W18566  22.161  18.723  12.489
54359W        W18567  12.852   8.223   3.841
54360W        W18568  34.878  15.653  10.152
54361W        W18569  16.267  34.415   0.454
54362W        W18570  27.590   5.226  13.436
54363W        W18571  21.120  35.059   0.329
54364W        W18572   3.905  37.384   4.135
54365W        W18573  18.106  34.499  11.428
54366W        W18574  40.336  31.966   3.833
54367W        W18575  22.617  44.291   2.213
54368W        W18576   4.375  26.638  13.456
54369W        W18577   3.255   6.838   3.856
54370W        W18578   0.814  22.520   1.907
54371W        W18579   3.764  24.529   1.333
54372W        W18580  19.579  13.677  10.608
54373W        W18581  41.986  15.707   2.847
54374W        W18582  25.610  24.168   2.883
54375W        W18583   2.451  30.625  13.883
54376W        W18584   3.430  38.528  12.438
54377W        W18585  32.429  40.488   1.794
54378W        W18586   3.776  30.018  13.491
54379W        W18587  14.808  18.789   1.419
54380W        W18588  25.052   8.204  12.467
54381W        W18589  40.319  35.093  10.412
54382W        W18590  25.505  38.410   0.342
54383W        W18591  13.219  38.552  12.994
54384W        W18592  10.651  32.889  11.561
54385W        W18593  21.650   7.760   0.269
54386W        W18594  10.776   7.406   3.331
54387W        W18595  33.946   2.775  13.954
54388W        W18596  44.772  22.632   2.283
54389W        W18597  12.251   8.765  11.930
54390W        W18598  11.161  23.701   3.273
54391W        W18599  29.509   0.761   3.360
54392W        W18600   8.732  15.594   2.365
54393W        W18601  21.569   3.278  11.055
54394W        W18602  10.809  42.855   3.651
54395W        W18603  37.856  21.201   3.317
54396W        W18604  40.303  28.019  13.060
54397W        W18605  41.862  16.791   1.731
54398W        W18606   2.800  26.629  12.838
54399W        W18607  13.199  36.496   4.647
54400W        W18608  22.512  33.519   3.255
54401W        W18609  27.556   9.369   0.787
54402W        W18610  11.719  26.050  12.545
54403W        W18611   0.382   0.744  14.952
54404W        W18612   7.847  35.509   3.743
54405W        W18613   9.392  24.722  14.995
54406W        W18614  23.710  24.095  11.510
54407W        W18615  12.119  39.975   3.642
54408W        W18616  43.875   2.784  13.011
54409W        W18617  34.577  21.095  14.872
54410W        W18618  35.892   1.919  10.486
54411W        W18619   1.281   1.386  11.096
54412W        W18620  31.119  29.562  11.510
54413W        W18621  43.801   1.778   4.184
54414W        W18622  13.235  11.139  12.409
54415W        W18623  30.549  25.530   4.300
54416W        W18624  22.632   6.781  11.441
54417W        W18625  38.546   7.198  13.440
54418W        W18626  32.132   7.824   4.345
54419W        W18627   3.955  21.716   4.769
54420W        W18628  41.531  17.276   4.350
54421W        W18629   3.909  37.861  13.485
54422W        W18630  16.802  25.117  10.582
54423W        W18631  33.898  10.249  10.606
54424W        W18632   6.311  27.511   0.785
54425W        W18633  14.637  42.984   2.723
54426W        W18634   8.852  14.178  10.560
54427W        W18635  38.962  38.403  10.070
54428W        W18636   0.334  33.521   1.261
54429W        W18637  23.626   6.696  14.465
54430W        W18638   8.367  17.239  11.382
54431W        W18639  32.940  33.000   2.845
54432W        W18640   1.330  16.578  11.545
54433W        W18641  13.212  35.559  11.382
54434W        W18642   1.408  41.326  11.127
54435W        W18643  31.089  12.799  11.581
54436W        W18644   8.688  43.506  12.917
54437W        W18645  10.141  44.382   2.208
54438W        W18646  16.169   1.968  11.538
54439W        W18647  42.990  30.516   0.359
54440W        W18648  37.839  20.545   0.843
54441W        W18649  14.188  28.621   3.714
54442W        W18650   7.354   0.312   1.931
54443W        W18651  36.462  20.763   3.336
54444W        W18652  13.271   1.908  13.867
54445W        W18653  28.036   5.371  12.571
54446W        W18654  33.996  43.770  10.447
54447W        W18655  13.258   5.249   2.184
54448W        W18656   2.412  29.028   1.800
54449W        W18657  43.510  19.118   2.859
54450W        W18658   6.236  35.855   2.718
54451W        W18659  19.207  21.224  14.795
54452W        W18660  44.489   2.735   3.322
54453W        W18661  21.163  23.539   4.130
54454W        W18662  16.606  21.735   0.399
54455W        W18663  38.979  14.271  13.059
54456W        W18664  12.307  27.472  13.839
54457W        W18665  31.558  29.497  12.042
54458W        W18666  14.252  13.845  14.401
54459W        W18667  44.401  17.594   3.189
54460W        W18668  33.473  37.419   3.209
54461W        W18669  21.707  11.662  13.362
54462W        W18670   1.262  22.726   0.280
54463W        W18671  38.990   7.332  14.338
54464W        W18672  44.437   9.862   2.809
54465W        W18673   9.172  19.257  12.827
54466W        W18674  24.709  40.500   4.171
54467W        W18675  18.131  23.625  11.576
54468W        W18676  40.502   8.679   1.855
54469W        W18677  40.529  42.310  14.909
54470W        W18678  23.064  30.120   3.686
54471W        W18679  30.069  13.725  13.957
54472W        W18680  37.497  24.981   1.268
54473W        W18681  16.310   2.961  12.011
54474W        W18682   4.717  37.448  13.373
54475W        W18683   4.879  16.226  12.511
54476W        W18684  28.091   0.492   0.761
54477W        W18685  43.983  14.222  12.851
54478W        W18686  34.369   5.916   0.842
54479W        W18687  36.098  40.836   2.856
54480W        W18688   0.878   1.811   1.807
54481W        W18689  27.183   0.485  12.988
54482W        W18690  34.536  26.659  11.583
54483W        W18691  20.035   6.827   4.255
54484W        W18692  38.873   3.347  11.959
54485W        W18693  40.352   0.778  12.848
54486W        W18694  43.495  44.880  11.080
54487W        W18695  12.677   5.758   4.211
54488W        W18696  27.548  27.095  12.493
54489W        W18697   3.843   9.792   4.200
54490W        W18698  29.587   0.749   5.309
54491W        W18699  19.260  14.601   3.836
54492W        W18700  11.865   6.247  14.951
54493W        W18701  10.245   3.815   3.819
54494W        W18702  30.601  28.155  12.391
54495W        W18703  10.249   7.210   0.427
54496W        W18704  34.013  15.711   4.140
54497W        W18705  12.651  12.210  13.048
54498W        W18706   7.310  14.832  13.418
54499W        W18707  34.460  19.160  11.441
54500W        W18708   2.371  44.799   2.341
54501W        W18709  43.795  27.057   4.773
54502W        W18710  30.111  12.291   3.305
54503W        W18711  16.084  28.466   3.287
54504W        W18712  19.690   7.860   0.764
54505W        W18713   5.766  32.110   0.760
54506W        W18714  39.445   1.340   5.099
54507W        W18715  10.178  25.496  10.996
54508W        W18716   5.281  18.168  12.451
54509W        W18717  10.324  20.147  12.937
54510W        W18718  36.093  20.273  13.500
54511W        W18719  30.624   8.379   1.238
54512W        W18720   9.196   0.907  13.819
54513W        W18721   6.908  12.326  11.476
54514W        W18722  27.097   3.234  10.639
54515W        W18723  20.527  26.468  10.633
54516W        W18724  24.206  40.505   5.229
54517W        W18725  40.417  35.029   1.826
54518W        W18726  18.605  43.769  14.933
54519W        W18727  33.058  25.558  12.425
54520W        W18728  33.089  35.937   4.307
54521W        W18729   1.921  10.809  11.051
54522W        W18730  35.511  36.516   0.408
54523W        W18731  26.157  23.522   1.264
54524W        W18732  23.030   8.785  13.364
54525W        W18733  35.062   7.751  13.473
54526W        W18734  16.666  18.544  12.492
54527W        W18735  29.089  13.708   0.746
54528W        W18736  12.194  21.153  12.449
54529W        W18737  20.768  24.012   1.443
54530W        W18738   7.873  31.444  11.455
54531W        W18739  14.245  40.305  12.878
54532W        W18740  11.681  37.036  13.377
54533W        W18741   1.400  15.814   2.719
54534W        W18742  38.894  44.991   0.775
54535W        W18743  11.143  34.591   0.918
54536W        W18744  22.240  43.418  11.016
54537W        W18745  17.067  32.450  10.522
54538W        W18746  18.079  13.115   4.332
54539W        W18747   6.409   2.724   1.729
54540W        W18748  24.535  44.865   3.247
54541W        W18749  29.481  24.094  14.278
54542W        W18750  25.068  37.418   1.925
54543W        W18751  26.135  43.863  10.980
54544W        W18752   5.199  41.370  12.071
54545W        W18753  16.076  27.946   2.890
54546W        W18754  31.573  13.218  10.600
54547W        W18755  27.187   1.753   4.718
54548W        W18756  16.675  38.820  14.410
54549W        W18757  34.967  11.730  14.766
54550W        W18758   7.392  40.337  11.989
54551W        W18759  24.662   0.314  12.496
54552W        W18760  20.247  32.035  10.107
54553W        W18761  24.160  26.956   3.670
54554W        W18762   9.747   5.895  14.812
54555W        W18763  22.016   8.681   3.149
54556W        W18764  20.686   2.362  11.064
54557W        W18765  42.338  44.398   1.310
54558W        W18766  27.457   3.797  13.953
54559W        W18767  40.046  25.662  14.011
54560W        W18768  34.091  31.006  14.931
54561W        W18769  25.154  13.338   4.654
54562W        W18770   2.720  29.490   4.648
54563W        W18771  19.673  25.684   3.723
54564W        W18772  30.134  37.475  12.866
54565W        W18773  25.510  43.430  12.080
54566W        W18774  20.229   8.824   3.800
54567W        W18775  28.127  42.375   3.638
54568W        W18776  42.292  24.725   4.167
54569W        W18777  41.410  17.591   3.675
54570W        W18778  25.476  34.605   2.825
54571W        W18779  17.165  34.537   2.870
54572W        W18780  21.203  44.429  14.812
54573W        W18781  42.477  30.543   4.640
54574W        W18782   7.276  22.552   1.804
54575W        W18783  43.801  24.199  14.853
54576W        W18784  38.509  27.635  14.954
54577W        W18785  29.944   6.248  11.515
54578W        W18786  30.052  42.885  10.525
54579W        W18787  38.875  10.145   0.865
54580W        W18788  16.689  28.097   2.319
54581W        W18789   8.756  20.049   2.394
54582W        W18790  33.506  25.493   1.728
54583W        W18791  24.558  22.625   2.307
54584W        W18792  40.920  10.634   2.849
54585W        W18793   0.322   7.857  10.405
54586W        W18794  34.087  38.553  11.870
54587W        W18795  27.963  36.479  14.804
54588W        W18796  43.369  27.449  12.060
54589W        W18797  17.156   6.299   1.889
54590W        W18798   8.828   3.911  11.554
54591W        W18799  33.394  30.463   4.772
54592W        W18800  39.411   7.868  11.906
54593W        W18801  38.404  30.038   1.302
54594W        W18802   8.281  26.179  14.797
54595W        W18803  34.118   0.319  14.839
54596W        W18804  32.017  21.580  14.386
54597W        W18805  12.619   9.178   2.228
54598W        W18806   9.847   1.854   1.293
54599W        W18807   5.814  17.788   3.862
54600W        W18808  20.077  32.016  10.549
54601W        W18809  37.531  12.849   3.192
54602W        W18810   5.740  25.998   0.842
54603W        W18811  23.581   7.675   4.349
54604W        W18812  14.126  37.075  13.447
54605W        W18813  16.189  16.798  11.972
54606W        W18814   7.278   1.965   0.754
54607W        W18815  17.782  43.277  11.949
54608W        W18816  15.325  21.641  12.045
54609W        W18817  18.548  29.054   0.738
54610W        W18818   3.794  10.771   3.331
54611W        W18819  43.275  37.013  12.556
54612W        W18820  22.249  40.853  11.994
54613W        W18821   7.806  35.564   2.182
54614W        W18822  27.619  20.078  11.911
54615W        W18823  27.669  23.176  11.932
54616W        W18824  24.607  38.038  13.062
54617W        W18825   3.879  39.929  14.406
54618W        W18826  13.136   9.751  12.923
54619W        W18827   0.374  24.079  14.502
54620W        W18828  25.679  22.734  11.956
54621W        W18829  21.124  15.635  12.452
54622W        W18830  37.384  19.043  11.991
54623W        W18831  29.044  25.669   1.896
54624W        W18832  43.498  11.822  10.134
54625W        W18833  33.074  42.308  11.592
54626W        W18834  24.609   8.854   0.797
54627W        W18835  23.587  44.995   1.447
54628W        W18836   9.653  28.457  14.515
54629W        W18837  34.565  40.834   2.265
54630W        W18838  42.345  43.840  11.459
54631W        W18839  17.200  10.191  14.384
54632W        W18840  24.015  11.132  11.424
54633W        W18841   7.859  39.809  13.487
54634W        W18842  15.276   5.854   0.267
54635W        W18843   0.765  15.242  14.023
54636W        W18844  15.094  15.186  13.957
54637W        W18845  17.113  41.984   1.311
54638W        W18846  13.817  34.428  10.516
54639W        W18847   7.761  39.439   3.383
54640W        W18848  43.860  34.604   5.083
54641W        W18849  42.850  34.446   0.388
54642W        W18850  28.506   3.731   4.204
54643W        W18851   1.385  34.885   4.347
54644W        W18852   3.912  25.062   1.389
54645W        W18853  41.391  28.970   3.379
54646W        W18854  21.056   0.799   4.272
54647W        W18855  29.936  37.558  11.087
54648W        W18856   7.796  12.248  13.955
54649W        W18857  20.570  41.903   1.324
54650W        W18858  41.876  34.536   2.317
54651W        W18859   4.873  25.070  11.569
54652W        W18860   3.235  27.032  10.514
54653W        W18861  37.538  32.578  13.396
54654W        W18862  28.028  36.510   4.659
54655W        W18863  22.042  24.554  12.925
54656W        W18864  31.942  20.164  13.793
54657W        W18865  13.740  41.299   4.756
54658W        W18866  38.017  28.062  13.857
54659W        W18867   2.468  29.546  12.358
54660W        W18868  43.827  14.268  13.882
54661W        W18869  25.515  39.460   4.684
54662W        W18870  30.087  18.790  13.369
54663W        W18871   0.423  18.741  11.090
54664W        W18872   2.438   7.804   1.822
54665W        W18873  40.409   3.726   4.280
54666W        W18874   5.343  18.076   4.638
54667W        W18875   0.353   5.381   4.694
54668W        W18876  20.765   0.265  13.031
54669W        W18877  40.886  37.894   4.628
54670W        W18878  34.440   4.883   0.937
54671W        W18879   0.483  17.682   2.269
54672W        W18880  28.002  16.305  12.579
54673W        W18881  41.298   5.827  12.394
54674W        W18882  37.018   3.722   4.782
54675W        W18883  39.349  42.022  12.036
54676W        W18884  13.128  34.379   2.797
54677W        W18885  25.694   4.811   3.733
54678W        W18886   9.389   0.369   0.757
54679W        W18887  32.959  14.295   9.967
54680W        W18888   9.771  33.600   3.293
54681W        W18889  18.633  12.348  12.048
54682W        W18890  38.949  15.799   0.777
54683W        W18891  36.921  39.819   4.678
54684W        W18892  19.083  34.439  13.985
54685W        W18893  30.651  33.563  14.469
54686W        W18894  12.647  42.468   3.366
54687W        W18895   9.645   2.914  11.547
54688W        W18896  34.404   2.788   4.336
54689W        W18897  13.215   3.334  14.771
54690W        W18898  17.206  10.175  11.578
54691W        W18899   9.202  41.979  12.932
54692W        W18900  27.637   0.470   3.354
54693W        W18901  24.687  11.801   2.214
54694W        W18902  40.030  38.022  13.491
54695W        W18903  22.115  23.619   1.398
54696W        W18904  27.687   1.251   0.448
54697W        W18905   5.841  37.052   0.928
54698W        W18906   1.925  44.909  11.049
54699W        W18907  28.162  37.979  10.906
54700W        W18908  35.506  43.007   3.148
54701W        W18909  41.529  19.688   0.259
54702W        W18910  42.012  26.642  13.055
54703W        W18911  36.378   4.233   1.865
54704W        W18912  33.597   9.844   2.333
54705W        W18913  35.984  44.866  12.019
54706W        W18914   8.205  16.667  13.022
54707W        W18915  23.612   8.733  12.395
54708W        W18916  31.566  30.137   3.681
54709W        W18917  10.660  21.024  11.518
54710W        W18918  42.865  24.214   3.276
54711W        W18919  38.456  11.724  13.839
54712W        W18920  11.296  13.626  11.983
54713W        W18921  10.278  19.104   1.351
54714W        W18922   4.734   1.341  14.452
54715W        W18923  23.020  12.657   1.866
54716W        W18924  29.520  11.299   2.249
54717W        W18925  18.220  13.698   3.693
54718W        W18926  38.002   8.345  11.975
54719W        W18927  43.893  10.868   4.269
54720W        W18928  25.712   9.218  10.910
54721W        W18929   4.799  16.135   0.409
54722W        W18930  27.969  27.984  12.907
54723W        W18931  13.309  16.724  14.946
54724W        W18932  12.119  28.972  11.448
54725W        W18933  25.066  39.349  10.466
54726W        W18934   2.243  31.597  10.073
54727W        W18935  31.963   8.325  10.912
54728W        W18936  27.014  26.578   1.289
54729W        W18937   3.246  39.824  13.340
54730W        W18938  44.820   3.729   0.402
54731W        W18939  14.122   6.851   1.854
54732W        W18940  21.711  11.748  10.494
54733W        W18941  23.575  22.106  13.822
54734W        W18942   1.964   6.921   4.169
54735W        W18943  34.906  14.316   2.234
54736W        W18944   2.919  21.613   1.273
54737W        W18945  38.905  32.074  11.060
54738W        W18946  23.192  26.119   4.263
54739W        W18947  29.073  16.165  13.882
54740W        W18948  20.211   0.757   1.808
54741W        W18949  36.394  13.263  13.025
54742W        W18950  43.973  41.411  12.389
54743W        W18951  44.817  17.751   2.418
54744W        W18952  12.150  42.961  14.896
54745W        W18953  33.886  13.286   4.832
54746W        W18954  12.748   0.306   2.809
54747W        W18955   9.836  18.557  12.502
54748W        W18956   3.284  15.641  12.866
54749W        W18957   7.694   0.488   0.262
54750W        W18958  13.657  15.577  11.475
54751W        W18959  29.023  37.440   3.181
54752W        W18960  27.503  24.701  13.964
54753W        W18961   0.265  44.289  14.031
54754W        W18962  43.357   2.467   2.201
54755W        W18963  43.272  38.067   3.728
54756W        W18964  27.505  28.958  11.956
54757W        W18965  12.639  16.126   3.325
54758W        W18966  14.299  33.011   4.319
54759W        W18967  10.643  43.909   1.315
54760W        W18968  16.805  43.857   4.826
54761W        W18969  44.893   9.743   3.644
54762W        W18970  20.082  34.415  14.827
54763W        W18971  20.068  16.184   3.177
54764W        W18972  39.556  22.020   4.602
54765W        W18973  32.576  16.705   0.741
54766W        W18974   0.471  33.413  14.448
54767W        W18975  28.039   0.284  14.406
54768W        W18976   6.770  17.799  13.857
54769W        W18977   1.355  44.916   0.344
54770W        W18978  39.352  36.032   0.400
54771W        W18979  18.579   2.752   0.900
54772W        W18980  13.739   9.766  10.449
54773W        W18981   2.461  33.475  12.521
54774W        W18982  19.157  12.712   4.609
54775W        W18983  39.851  13.339   0.325
54776W        W18984  15.199  15.278  10.570
54777W        W18985   8.658  13.186  12.530
54778W        W18986  23.685  26.208   0.263
54779W        W18987  13.288  13.236   9.920
54780W        W18988   3.764  27.494  10.540
54781W        W18989  40.439  10.723   2.763
54782W        W18990  31.920  38.905  10.446
54783W        W18991  16.584  42.481  11.551
54784W        W18992  39.522  19.651  11.127
54785W        W18993  23.093  36.070  12.991
54786W        W18994  22.625  18.692   1.336
54787W        W18995  36.843  13.336  13.471
54788W        W18996   1.274  20.249   3.340
54789W        W18997  37.541  32.483   2.704
54790W        W18998  22.188  32.056  14.503
54791W        W18999   1.746  20.710   4.773
54792W        W19000  20.115  43.855   0.796
54793W        W19001  27.462  16.798  10.644
54794W        W19002   3.849  34.585   9.955
54795W        W19003  16.580  33.438  13.496
54796W        W19004  39.972   3.293   0.360
54797W        W19005  15.152   7.683   2.836
54798W        W19006  36.947  22.681   0.477
54799W        W19007  29.459  17.684  11.088
54800W        W19008  14.298  37.077   4.330
54801W        W19009  12.135  21.522  12.960
54802W        W19010  35.997  22.119   2.207
54803W        W19011   2.356  33.437  14.931
54804W        W19012  39.810  35.474   4.262
54805W        W19013  21.550  42.027  12.398
54806W        W19014  33.589   3.430  14.406
54807W        W19015  27.079  20.615  14.480
54808W        W19016  26.642  24.622   3.256
54809W        W19017   2.329  33.540   1.314
54810W        W19018  21.671  24.663   3.244
54811W        W19019  14.264  42.423  12.077
54812W        W19020  35.563  14.241  11.504
54813W        W19021  37.562  19.086   0.284
54814W        W19022  15.788  41.799  12.342
54815W        W19023  27.052  41.011  12.372
54816W        W19024  44.968  44.299  14.326
54817W        W19025  12.287   0.291  12.537
54818W        W19026  30.605  26.563   3.242
54819W        W19027  38.010   8.281   3.800
54820W        W19028  17.073   0.432   9.945
54821W        W19029  23.644  14.118  11.960
54822W        W19030  37.859   5.913   0.402
54823W        W19031   8.825   4.429   4.152
54824W        W19032  10.861  13.210   0.406
54825W        W19033   4.273  35.003  11.017
54826W        W19034  32.469   7.315   2.900
54827W        W19035  33.974  27.194   1.440
54828W        W19036  42.520  13.776   0.279
54829W        W19037   0.969  34.597   2.328
54830W        W19038  21.098  31.536  12.943
54831W        W19039  29.628  21.161  10.037
54832W        W19040  42.509  18.107   0.351
54833W        W19041  39.039  17.292   2.776
54834W        W19042  32.070   6.695  12.842
54835W        W19043   4.207  33.590  13.526
54836W        W19044  37.354  32.436  14.993
54837W        W19045  23.990   4.764   4.318
54838W        W19046  25.658  42.844  14.289
54839W        W19047  39.059  40.961  12.537
54840W        W19048  24.689  32.636   3.154
54841W        W19049  16.092  16.729  14.362
54842W        W19050  37.537   3.327  14.494
54843W        W19051  33.511  42.836   0.344
54844W        W19052  40.358  44.928  12.920
54845W        W19053  31.938  11.711   1.887
54846W        W19054  42.356  38.879  13.324
54847W        W19055  33.048   6.394  14.403
54848W        W19056  37.383  23.678  12.900
54849W        W19057  32.137  17.611   1.312
54850W        W19058  37.511  15.751   1.268
54851W        W19059  38.035  22.083   2.298
54852W        W19060  28.130  34.473   0.786
54853W        W19061  25.203  35.935  14.956
54854W        W19062   8.882  18.244   4.273
54855W        W19063  14.703   3.904  12.081
54856W        W19064  37.036   9.716  11.880
54857W        W19065  39.327  28.129  13.485
54858W        W19066  16.114  11.152  11.371
54859W        W19067  44.792  42.330   0.283
54860W        W19068  22.226  29.038   2.751
54861W        W19069  34.547   3.253   3.789
54862W        W19070  43.822  12.228  14.505
54863W        W19071  11.835   9.194   0.264
54864W        W19072  15.194  38.918  11.442
54865W        W19073   0.406  37.895   4.175
54866W        W19074  33.588  39.379  14.881
54867W        W19075  10.872  21.667   0.734
54868W        W19076   2.415  16.734  13.874
54869W        W19077  35.887  40.977  13.002
54870W        W19078   3.902   3.222   3.666
54871W        W19079  25.132  29.472  13.050
54872W        W19080  30.578  12.200  13.495
54873W        W19081  15.617  16.101  13.515
54874W        W19082  33.879  28.127   4.139
54875W        W19083  31.623   8.183   0.278
54876W        W19084  14.216  25.535  12.909
54877W        W19085   3.335  42.381   2.345
54878W        W19086  20.610   2.282   4.249
54879W        W19087  14.692  10.641   4.757
54880W        W19088   7.910  40.937  14.387
54881W        W19089  32.986  21.064   0.287
54882W        W19090  21.758  40.821  11.067
54883W        W19091  26.055  41.806  10.532
54884W        W19092  24.604  31.540  12.993
54885W        W19093   6.242  21.255   5.285
54886W        W19094  43.772  31.048   3.784
54887W        W19095  16.662  19.114  11.118
54888W        W19096  32.539  16.783  12.420
54889W        W19097  41.979  21.261   3.333
54890W        W19098  43.854  23.573  14.294
54891W        W19099  18.635  27.164  11.480
54892W        W19100   2.926  32.617   1.348
54893W        W19101  17.293  44.833   1.303
54894W        W19102  21.159  26.559   0.792
54895W        W19103  41.939  14.129  12.058
54896W        W19104  28.459  21.585  13.385
54897W        W19105  26.505  33.903  11.916
54898W        W19106  31.913  32.976  14.340
54899W        W19107  37.960   5.193   3.816
54900W        W19108   3.436  23.507   3.168
54901W        W19109  29.062  40.938  10.496
54902W        W19110  38.893  14.162  12.453
54903W        W19111  41.853   6.393  10.111
54904W        W19112  10.823  13.122   1.404
54905W        W19113  21.120  14.771  11.990
54906W        W19114   4.417  22.529  11.950
54907W        W19115  38.020  27.172   2.321
54908W        W19116  34.448  32.062  14.475
54909W        W19117  26.180  37.901  10.551
54910W        W19118   5.749  17.671   2.874
54911W        W19119   1.793  18.563  12.920
54912W        W19120  43.420  33.384   3.364
54913W        W19121  15.319  24.670  12.359
54914W        W19122  30.960  13.268   2.303
54915W        W19123  28.636  18.072  11.543
54916W        W19124  37.429  21.690   1.432
54917W        W19125   2.411  17.071   1.428
54918W        W19126  38.531   2.891  11.511
54919W        W19127   1.268  32.957  13.955
54920W        W19128  19.696  35.942   9.930
54921W        W19129  17.061  42.499  10.976
54922W        W19130  26.208  20.525  12.957
54923W        W19131  16.606  20.046   1.851
54924W        W19132  41.842   3.251   1.236
54925W        W19133  11.675   5.270   0.366
54926W        W19134  43.887  43.962  13.946
54927W        W19135   2.456   0.804  11.538
54928W        W19136  17.787  19.577   4.232
54929W        W19137  34.114  38.976  14.333
54930W        W19138  30.560  35.451   3.651
54931W        W19139  31.491  11.670   3.711
54932W        W19140  25.024  13.250   4.205
54933W        W19141   1.321  11.230   1.373
54934W        W19142  39.933  16.754   0.888
54935W        W19143  19.688  34.970  11.386
54936W        W19144  43.794   5.193   0.453
54937W        W19145  27.517  14.231  11.927
54938W        W19146  39.359   5.809  14.812
54939W        W19147  31.912  14.339  10.067
54940W        W19148  17.204  30.482   5.204
54941W        W19149  20.751  27.450   1.818
54942W        W19150  40.436  11.715   4.342
54943W        W19151   4.942  37.452  11.564
54944W        W19152  12.732  43.362   1.309
54945W        W19153   9.760  27.510   2.362
54946W        W19154  42.328   8.672   4.333
54947W        W19155  28.490  13.738  12.955
54948W        W19156  13.758  41.352   1.335
54949W        W19157   0.940  37.016  10.963
54950W        W19158  34.461  30.050  11.551
54951W        W19159  42.340  39.426   3.811
54952W        W19160   3.404   9.712  11.946
54953W        W19161   1.840  18.655   3.245
54954W        W19162  21.169  16.807  13.801
54955W        W19163  10.197  36.995   3.700
54956W        W19164  11.252   5.432   2.743
54957W        W19165  30.556  12.213  13.013
54958W        W19166  18.781  36.053   1.853
54959W        W19167   2.914   8.363   3.296
54960W        W19168  10.788   4.365  11.988
54961W        W19169   2.942  16.242  14.015
54962W        W19170  37.062   0.976   2.190
54963W        W19171   3.280  21.080  13.451
54964W        W19172  34.491   3.774  12.919
54965W        W19173  12.703   1.854  12.404
54966W        W19174  13.838  18.691   4.626
54967W        W19175  41.976  44.327   1.432
54968W        W19176  14.094   4.795  12.844
54969W        W19177   0.949  36.038   2.839
54970W        W19178  30.533  16.655  11.030
54971W        W19179  34.921  38.934   1.925
54972W        W19180   7.376  16.629  11.598
54973W        W19181  15.784   1.933  11.929
54974W        W19182  33.918  31.463   0.435
54975W        W19183  24.605  17.562   0.804
54976W        W19184  24.120  31.086   3.212
54977W        W19185  42.483  39.958   0.245
54978W        W19186  13.668  10.304  12.914
54979W        W19187  37.516   6.245   1.706
54980W        W19188  39.891  42.902   0.438
54981W        W19189   0.353   5.285   1.317
54982W        W19190  32.412  32.520  14.946
54983W        W19191  25.567  24.515  11.521
54984W        W19192   7.709  35.421  14.975
54985W        W19193  19.606  40.918   1.708
54986W        W19194   5.315  19.206  14.906
54987W        W19195  24.084  25.663   2.345
54988W        W19196   1.895  37.355  14.954
54989W        W19197  33.977  14.125   5.082
54990W        W19198  16.616   0.820  11.895
54991W        W19199  20.632  12.299  13.831
54992W        W19200  26.475  18.055   0.788
54993W        W19201   0.836   8.396  14.868
54994W        W19202  40.993  26.135   4.240
54995W        W19203  42.787  39.010  13.808
54996W        W19204  36.851   1.468   2.847
54997W        W19205   9.723  27.119  13.465
54998W        W19206  12.146  30.141  12.453
54999W        W19207  41.450  37.839   3.165
55000W        W19208  30.914  10.867   0.341
55001W        W19209   2.245  23.581   1.306
55002W        W19210   2.734   2.862  13.503
55003W        W19211   2.378  10.745   2.272
55004W        W19212  42.922   9.175   5.279
55005W        W19213  26.053  39.055   4.664
55006W        W19214  12.119  43.797   3.666
55007W        W19215  11.858  32.005   2.314
55008W        W19216   0.759   1.943   2.379
55009W        W19217  33.412  22.192   4.628
55010W        W19218  24.203  38.013  14.894
55011W        W19219  22.615  33.561  13.852
55012W        W19220  32.049  42.908   4.128
55013W        W19221  37.028   4.725  10.511
55014W        W19222  22.580  41.299  13.877
55015W        W19223   8.221   1.426  13.980
55016W        W19224  42.950  23.221  11.502
55017W        W19225  34.531  28.446  11.087
55018W        W19226   8.716  28.614   0.827
55019W        W19227  20.154  20.031  11.984
55020W        W19228   3.918  44.907  11.609
55021W        W19229  40.933   3.361  13.319
55022W        W19230  38.042  17.640   3.801
55023W        W19231   4.239  28.022  11.948
55024W        W19232  33.131  14.155   0.911
55025W        W19233  39.381  13.777  13.330
55026W        W19234  36.588  38.899  11.432
55027W        W19235   0.379   4.721  14.508
55028W        W19236   4.355  35.878   4.718
55029W        W19237   5.930  40.489   3.866
55030W        W19238  38.072  14.150  14.911
55031W        W19239  12.161  17.676   2.662
55032W        W19240  30.128  10.848   4.142
55033W        W19241  17.680  24.148  13.814
55034W        W19242  26.047   6.690   2.791
55035W        W19243  15.085  14.652  13.897
55036W        W19244  40.937  19.109   2.776
55037W        W19245   4.386  38.008   2.317
55038W        W19246  37.386  36.501  11.920
55039W        W19247  29.167   8.399  12.551
55040W        W19248  29.091   6.290  10.904
55041W        W19249  26.968  15.645   9.995
55042W        W19250  22.059  11.785  14.759
55043W        W19251  19.074  13.764   4.207
55044W        W19252   4.908  32.921   1.869
55045W        W19253  21.585   4.713  12.958
55046W        W19254  24.499  20.695   4.190
55047W        W19255  10.865  44.959  11.000
55048W        W19256  43.383  29.064   2.198
55049W        W19257  25.090  39.877   0.932
55050W        W19258   8.220  17.560   3.830
55051W        W19259  20.058  18.175   0.339
55052W        W19260  27.987   3.715  10.567
55053W        W19261   1.429   9.268   0.837
55054W        W19262  30.659  39.008   1.385
55055W        W19263  33.462  33.104  11.040
55056W        W19264  39.485  39.938   4.617
55057W        W19265  41.849  18.062   4.333
55058W        W19266  10.712   5.333   4.316
55059W        W19267   5.858  38.004  11.598
55060W        W19268  28.490   4.210   2.795
55061W        W19269  26.584  35.010  14.274
55062W        W19270  40.966   1.458   1.912
55063W        W19271  27.056  17.599  13.385
55064W        W19272  44.325  18.274  11.040
55065W        W19273  33.918  43.936  13.482
55066W        W19274  11.732   4.699  12.903
55067W        W19275   5.917  43.965  11.402
55068W        W19276  38.048  44.443  13.408
55069W        W19277  26.147  15.317   0.866
55070W        W19278  28.989  44.344  13.889
55071W        W19279   4.310  44.838  14.787
55072W        W19280  28.484  21.622  12.414
55073W        W19281  34.104  30.573  11.461
55074W        W19282  11.638  22.560   0.296
55075W        W19283  34.868  11.154  11.070
55076W        W19284  20.088  23.226  10.903
55077W        W19285  35.864  39.473   3.251
55078W        W19286  24.624  33.507  12.933
55079W        W19287   2.905  30.491  12.424
55080W        W19288  18.581  27.013   2.198
55081W        W19289  16.660  26.200   1.405
55082W        W19290  24.707   7.671   4.689
55083W        W19291  12.214  13.758  14.322
55084W        W19292  41.028   9.276   1.809
55085W        W19293  34.526  33.518   2.341
55086W        W19294  41.315  11.154  10.933
55087W        W19295  20.700   6.372  13.425
55088W        W19296  35.546  13.642   3.817
55089W        W19297  36.057  36.008   4.230
55090W        W19298  41.459   0.830  14.988
55091W        W19299  12.784  27.003   1.330
55092W        W19300  11.673  28.543   2.365
55093W        W19301   5.691  30.994  11.066
55094W        W19302  33.401  14.123  11.420
55095W        W19303  43.442  20.184   9.501
55096W        W19304  35.568  20.638  11.915
55097W        W19305  23.654   7.691   4.807
55098W        W19306  17.782  17.139  11.463
55099W        W19307   0.380  18.197  11.034
55100W        W19308  10.825  27.944   0.332
55101W        W19309  33.937  20.256  10.894
55102W        W19310   5.900  15.113   4.739
55103W        W19311  20.262  36.441   9.936
55104W        W19312  30.421  27.127   4.817
55105W        W19313  17.591  34.448  10.557
55106W        W19314  33.980  27.164   4.297
55107W        W19315  13.198  25.974  10.588
55108W        W19316  23.047  33.380   0.781
55109W        W19317   8.668  38.380  10.564
55110W        W19318  23.216  34.429   0.470
55111W        W19319  29.988  31.452   0.276
55112W        W19320  44.865  40.892  13.917
55113W        W19321  44.958  37.475   3.285
55114W        W19322  29.598  27.530   1.290
55115W        W19323  11.679  11.698  11.080
55116W        W19324  16.186  30.488   0.831
55117W        W19325  36.016  38.368  11.002
55118W        W19326  21.652  14.677  13.916
55119W        W19327  33.426   9.261   0.781
55120W        W19328  12.764   4.413   1.772
55121W        W19329  34.998   5.709   2.383
55122W        W19330  39.492   4.440   4.787
55123W        W19331  17.618  20.707   1.917
55124W        W19332  35.493  14.780  12.362
55125W        W19333   1.286  33.934  14.813
55126W        W19334  29.120  25.509   4.792
55127W        W19335  41.017  41.315   2.230
55128W        W19336   3.833   1.386   3.767
55129W        W19337  19.111  37.873  10.931
55130W        W19338   1.262  28.968   1.782
55131W        W19339  39.836  13.138  12.979
55132W        W19340  15.775  34.511   4.826
55133W        W19341  30.512  44.995   3.298
55134W        W19342  31.986  44.399   1.410
55135W        W19343   1.877  19.590  14.291
55136W        W19344  13.753  24.633  10.550
55137W        W19345  26.135  43.882  13.319
55138W        W19346  21.694  33.099  12.421
55139W        W19347  14.202  34.079   1.698
55140W        W19348  22.524  22.016   0.828
55141W        W19349  17.249  23.728   3.312
55142W        W19350   7.802  30.425  10.921
55143W        W19351  15.170  41.035   0.357
55144W        W19352   0.872  39.962  10.621
55145W        W19353  29.168  38.332   2.764
55146W        W19354   8.234  24.115  13.923
55147W        W19355  29.122  33.105   2.300
55148W        W19356   2.346   7.196  13.469
55149W        W19357  43.443  30.529   0.775
55150W        W19358  40.958  22.229   3.158
55151W        W19359  38.567  10.755   1.255
55152W        W19360  27.181  23.681   3.287
55153W        W19361  30.602  29.063  13.319
55154W        W19362  40.354  22.692   5.081
55155W        W19363  42.818  26.551  13.328
55156W        W19364   8.678   0.384  10.073
55157W        W19365  11.845  25.191   4.833
55158W        W19366  40.396  40.888   3.359
55159W        W19367  39.834  24.536   4.697
55160W        W19368   6.711  32.066   4.723
55161W        W19369   9.801  25.975  13.459
55162W        W19370  40.993   8.228   2.671
55163W        W19371  32.068  34.013   4.631
55164W        W19372  15.668   9.241  12.075
55165W        W19373  22.678  23.075  12.396
55166W        W19374  13.682  43.812  14.311
55167W        W19375  29.654   7.782   3.298
55168W        W19376  40.898  21.034  11.549
55169W        W19377   9.688  25.102  12.051
55170W        W19378  33.995  40.310   0.828
55171W        W19379  10.716  39.481  14.983
55172W        W19380  39.849  39.353   0.412
55173W        W19381  35.062  39.829  14.771
55174W        W19382  22.636  24.000   1.819
55175W        W19383  30.007  43.978  12.939
55176W        W19384  24.214  13.113  11.522
55177W        W19385   0.802  38.060  11.551
55178W        W19386  38.496  15.628   2.406
55179W        W19387  21.581  18.714  12.385
55180W        W19388  27.161  31.918   2.247
55181W        W19389  32.012   2.235   0.314
55182W        W19390  22.097  25.047  14.799
55183W        W19391  23.663  41.910  12.352
55184W        W19392  36.914   0.968   2.890
55185W        W19393   8.897  24.723   2.255
55186W        W19394  40.020   0.367   1.915
55187W        W19395   8.794  44.354   0.250
55188W        W19396   4.289   5.749  13.986
55189W        W19397  39.053  29.005   1.739
55190W        W19398  25.487  41.968   4.176
55191W        W19399  18.253  32.421   1.409
55192W        W19400  28.140   6.913   3.177
55193W        W19401   8.274  44.960  13.321
55194W        W19402   0.959  32.529   3.663
55195W        W19403  20.222  31.505   0.908
55196W        W19404  32.086  28.042  11.979
55197W        W19405   6.327  37.958  14.935
55198W        W19406  20.221   6.277   4.746
55199W        W19407  17.639  14.805  12.974
55200W        W19408  21.603   9.845   4.618
55201W        W19409  30.144   1.856   4.328
55202W        W19410  20.605  13.839  12.466
55203W        W19411  17.629  19.592  13.874
55204W        W19412  26.006  41.874  12.896
55205W        W19413  13.187  16.732  14.316
55206W        W19414  21.644  17.176   1.264
55207W        W19415  26.644  22.556   3.214
55208W        W19416   1.412   8.243  14.930
55209W        W19417  13.788  31.911   3.289
55210W        W19418  31.437  39.912   3.312
55211W        W19419  40.032  13.672   4.724
55212W        W19420   0.303  39.808   0.738
55213W        W19421  27.568  42.416  13.004
55214W        W19422  25.150   1.346  14.489
55215W        W19423   6.408   0.480  14.345
55216W        W19424  14.320   2.727   3.839
55217W        W19425  39.987   4.722   1.352
55218W        W19426  27.132  35.362   2.227
55219W        W19427  40.379   3.734   1.700
55220W        W19428   8.311   0.412  10.580
55221W        W19429   6.321  32.552  12.000
55222W        W19430  13.174  22.077   1.258
55223W        W19431  42.515   9.310  13.799
55224W        W19432  31.555  30.016  14.956
55225W        W19433  23.559   1.475  12.007
55226W        W19434  17.297  27.974  11.975
55227W        W19435   6.211  12.735   1.922
55228W        W19436  32.126  33.471   1.901
55229W        W19437  44.502   6.286  13.049
55230W        W19438  13.765   9.703  11.946
55231W        W19439  39.332  32.030  14.012
55232W        W19440  21.602  28.501   0.855
55233W        W19441  22.040  16.159  10.606
55234W        W19442   8.207  14.178   1.315
55235W        W19443  26.970  31.500  11.586
55236W        W19444  40.382  16.592   9.661
55237W        W19445  14.296  28.139   2.331
55238W        W19446  19.628   1.237   2.354
55239W        W19447  33.440  24.720  12.860
55240W        W19448  22.645   9.329  10.420
55241W        W19449  40.324  22.606  11.529
55242W        W19450  40.880   9.820   3.852
55243W        W19451   4.756  41.788   1.439
55244W        W19452  37.922  25.042  13.452
55245W        W19453   8.807  21.524   2.189
55246W        W19454  34.407  28.494  11.952
55247W        W19455  17.254   5.285   1.290
55248W        W19456   7.794  37.088  13.052
55249W        W19457  18.725  24.699   4.676
55250W        W19458  28.031  10.182  12.441
55251W        W19459   5.308   5.297   4.153
55252W        W19460  23.529   7.241  14.407
55253W        W19461  34.045  40.482   1.317
55254W        W19462  15.744  26.983   3.685
55255W        W19463  34.978  24.689   2.374
55256W        W19464  35.459   5.931   3.301
55257W        W19465  13.748   1.313   0.846
55258W        W19466  31.904   7.765   1.408
55259W        W19467  26.680   1.792   2.893
55260W        W19468  10.761  11.268   5.645
55261W        W19469  16.732  12.276  13.502
55262W        W19470  35.886  37.552  13.859
55263W        W19471   6.893   7.898   0.245
55264W        W19472   0.846  31.133   0.913
55265W        W19473   0.842  22.512   4.744
55266W        W19474   7.274  28.055  14.296
55267W        W19475  22.180   8.872  10.475
55268W        W19476  27.515  33.936   2.742
55269W        W19477  44.885   4.388  12.455
55270W        W19478  16.298  20.699   1.901
55271W        W19479  31.430   4.275  11.418
55272W        W19480  28.998  29.667  14.864
55273W        W19481  29.935  43.768   2.278
55274W        W19482  36.926  13.219  14.419
55275W        W19483  21.751  21.108   4.157
55276W        W19484  17.779  37.995   3.859
55277W        W19485  19.620  39.439  13.461
55278W        W19486  18.585  32.129   0.276
55279W        W19487  13.776  28.444   4.633
55280W        W19488  38.062  28.137  12.032
55281W        W19489  23.024  12.341  12.368
55282W        W19490   7.175  44.925   3.675
55283W        W19491  22.178  30.504   4.660
55284W        W19492  22.120   2.778  10.929
55285W        W19493   9.645  16.186  12.396
55286W        W19494   9.759  11.329   3.376
55287W        W19495  26.199  44.947   3.776
55288W        W19496  35.861  37.496   3.358
55289W        W19497  35.410  11.784  13.361
55290W        W19498  36.883  22.201  13.799
55291W        W19499  38.972  12.839   0.793
55292W        W19500  29.118   2.794   4.717
55293W        W19501   5.328  29.165   0.763
55294W        W19502  23.686  18.742  10.500
55295W        W19503  39.401  40.916  10.547
55296W        W19504  30.945  27.140   1.715
55297W        W19505  35.918  16.219  14.007
55298W        W19506  36.951  39.831   1.378
55299W        W19507  29.526  26.661   1.810
55300W        W19508   9.335   8.747  10.080
55301W        W19509  39.853   3.820   3.187
55302W        W19510  35.942   2.297   3.189
55303W        W19511  32.997  40.916  10.501
55304W        W19512  28.084   5.729   1.291
55305W        W19513  17.080   1.939   2.343
55306W        W19514   4.303  31.978  11.456
55307W        W19515  15.594   7.807  14.851
55308W        W19516  32.578   2.368  10.645
55309W        W19517  32.494   4.434  11.085
55310W        W19518  33.030  14.145   1.248
55311W        W19519  31.552  15.291  11.959
55312W        W19520  29.459  34.058   3.386
55313W        W19521   0.748   8.387  10.972
55314W        W19522  32.581  21.601   2.819
55315W        W19523  20.694  40.456  10.443
55316W        W19524  35.023  21.530  12.079
55317W        W19525  27.588  29.154  13.518
55318W        W19526   6.373  39.315  10.406
55319W        W19527  20.696  33.006  13.314
55320W        W19528  40.910  28.594  10.996
55321W        W19529   3.262   6.187  11.575
55322W        W19530  33.092  19.688   0.288
55323W        W19531  34.969  40.938  13.963
55324W        W19532  38.420   6.332  13.342
55325W        W19533  19.243  26.056   4.766
55326W        W19534  40.814   1.768   2.795
55327W        W19535  33.891  30.911  12.383
55328W        W19536  20.590  20.082   0.408
55329W        W19537  12.267  13.809   4.219
55330W        W19538  19.251   2.727  11.981
55331W        W19539  44.357  43.906   3.200
55332W        W19540  28.658  15.707   0.845
55333W        W19541   8.180  13.217   5.762
55334W        W19542  21.151  23.993  12.406
55335W        W19543  18.714  37.840   3.731
55336W        W19544  43.993  11.270   1.371
55337W        W19545  33.950  38.045  12.394
55338W        W19546  27.070  25.658  11.421
55339W        W19547   1.978  21.130   1.325
55340W        W19548  27.574  32.924  13.363
55341W        W19549  29.486   1.382  13.863
55342W        W19550  44.487  37.437  14.023
55343W        W19551  40.838  31.899  11.612
55344W        W19552   9.704  42.381   0.301
55345W        W19553  23.111  31.476   3.282
55346W        W19554  43.836   0.373  13.485
55347W        W19555  35.057  37.862  12.371
55348W        W19556  10.873  30.598  12.401
55349W        W19557  39.955   2.798  11.094
55350W        W19558  20.577  37.074  13.362
55351W        W19559  23.147  43.376  12.533
55352W        W19560  28.959  17.239  10.513
55353W        W19561  30.478  14.209   3.381
55354W        W19562  30.914  38.066  12.567
55355W        W19563  15.138  44.448   1.410
55356W        W19564   5.339  41.805   1.716
55357W        W19565  40.514  41.890  13.334
55358W        W19566  14.278  32.049  11.077
55359W        W19567  42.390  32.479  11.425
55360W        W19568  36.356  11.144   2.291
55361W        W19569  31.418  37.035  14.828
55362W        W19570  36.422  12.838  10.137
55363W        W19571  24.137   2.773   4.792
55364W        W19572   8.184  28.674  13.540
55365W        W19573   3.433  40.884   3.703
55366W        W19574  34.929  11.353  12.525
55367W        W19575  25.613  33.093  12.838
55368W        W19576   2.424  10.362  13.056
55369W        W19577   0.867  12.124   0.264
55370W        W19578  12.165  31.513  10.600
55371W        W19579  23.583   2.425  13.925
55372W        W19580   7.703  43.272   0.874
55373W        W19581  31.018  20.029  11.563
55374W        W19582  31.507  36.456   0.857
55375W        W19583  31.481  34.929  12.859
55376W        W19584  22.501  30.151  14.441
55377W        W19585  31.629  14.728   2.723
55378W        W19586  16.227  19.569  13.489
55379W        W19587  14.672  43.475  12.922
55380W        W19588  24.134  39.316   3.829
55381W        W19589   7.849  25.486   0.813
55382W        W19590  41.805  33.042  12.987
55383W        W19591  27.953  11.749   9.935
55384W        W19592  30.103  12.769  14.792
55385W        W19593  29.089  27.055   4.748
55386W        W19594  20.683  31.917  14.906
55387W        W19595  41.355  16.291  10.559
55388W        W19596  18.215  12.231  14.988
55389W        W19597   3.218   7.907  14.285
55390W        W19598  18.547  12.719  12.944
55391W        W19599  31.534  28.076  11.606
55392W        W19600  14.644  12.778   3.309
55393W        W19601   5.734  20.562   0.759
55394W        W19602  34.531  34.070  14.973
55395W        W19603  16.207  37.050   9.990
55396W        W19604  27.171  37.885   4.239
55397W        W19605  22.187   8.270  10.508
55398W        W19606  35.388   2.770  14.987
55399W        W19607   0.927  28.014  14.373
55400W        W19608  14.338  18.249  14.410
55401W        W19609  16.299   8.236  12.933
55402W        W19610  30.533   6.206  10.618
55403W        W19611  41.351  40.864  11.990
55404W        W19612  36.928  42.809  11.474
55405W        W19613  41.438   9.738  10.538
55406W        W19614  37.931  26.489   3.868
55407W        W19615   5.929  43.319  10.594
55408W        W19616  16.602  19.078  14.871
55409W        W19617  35.081  22.241   4.622
55410W        W19618  23.580  27.617   3.255
55411W        W19619  28.008   9.781   0.743
55412W        W19620  43.379  28.997  11.566
55413W        W19621  16.691  27.940  14.465
55414W        W19622  41.381  31.082   2.826
55415W        W19623  36.494  10.176  10.983
55416W        W19624  22.710  38.002   1.351
55417W        W19625  32.405  19.624  14.801
55418W        W19626  41.895  32.015  13.982
55419W        W19627   3.839  27.985  10.106
55420W        W19628  16.300  20.149  11.379
55421W        W19629  16.670   8.365   4.299
55422W        W19630  36.927  17.119   2.258
55423W        W19631  42.849  39.466   4.226
55424W        W19632  10.277  28.174   3.219
55425W        W19633  33.528  13.290  14.830
55426W        W19634  40.331  10.314   2.279
55427W        W19635   3.903  26.033   3.779
55428W        W19636  33.409  26.542   4.350
55429W        W19637  24.163  15.579  12.568
55430W        W19638  33.960  33.883  11.936
55431W        W19639   3.936   5.920  14.483
55432W        W19640   0.941   4.375   2.178
55433W        W19641  11.207   3.238  11.870
55434W        W19642   2.354  38.517   0.258
55435W        W19643  43.977  23.997   0.456
55436W        W19644  28.532  22.063  14.419
55437W        W19645  33.576  32.136   2.745
55438W        W19646  36.989  31.441  10.941
55439W        W19647  19.273  39.817   4.771
55440W        W19648  36.519  19.534  13.936
55441W        W19649  26.606  29.175  10.140
55442W        W19650  13.213   5.748  11.856
55443W        W19651  17.580  20.167  11.535
55444W        W19652  30.491   0.781  11.872
55445W        W19653  17.262   3.237   1.778
55446W        W19654  32.438  30.011  13.828
55447W        W19655  37.028  38.880  10.416
55448W        W19656  43.773  33.081   3.699
55449W        W19657  25.206   6.848  11.103
55450W        W19658  15.111  35.956  11.013
55451W        W19659  11.776   6.818  12.053
55452W        W19660   9.179  27.576  11.078
55453W        W19661   3.869   7.198   2.729
55454W        W19662  22.203  29.922   2.880
55455W        W19663  39.387  11.332  12.354
55456W        W19664  37.464   9.170   0.859
55457W        W19665  13.601   5.222   1.804
55458W        W19666  31.433  34.950  10.536
55459W        W19667  12.749  17.748  12.472
55460W        W19668  13.673  40.858  13.430
55461W        W19669  40.966  17.292   2.389
55462W        W19670  12.271  18.256  11.886
55463W        W19671  11.756  39.926   3.210
55464W        W19672   9.319   0.796  14.394
55465W        W19673  29.133  24.158  14.783
55466W        W19674  13.338  37.970  14.824
55467W        W19675   7.408  17.735  11.127
55468W        W19676  43.797  10.159   4.688
55469W        W19677  14.268  18.557   0.287
55470W        W19678  34.873  31.504   1.811
55471W        W19679  24.210  22.997  14.353
55472W        W19680  20.168  27.016   1.771
55473W        W19681  15.664  35.561  13.528
55474W        W19682  13.298   9.366  13.035
55475W        W19683  29.446  23.073   0.437
55476W        W19684  22.055  27.124  14.913
55477W        W19685  30.972  41.807  12.393
55478W        W19686   2.907  36.864   2.708
55479W        W19687  39.367  33.416   2.755
55480W        W19688  44.327  30.453  14.429
55481W        W19689  34.956   5.382   0.733
55482W        W19690  29.955  25.633  14.329
55483W        W19691  27.620   7.322   3.769
55484W        W19692   7.299  18.759   0.426
55485W        W19693  17.588   8.787  11.595
55486W        W19694  20.610  25.547   2.252
55487W        W19695  26.201  14.225   3.330
55488W        W19696   6.203  42.341  12.015
55489W        W19697  35.567   2.298   4.759
55490W        W19698  38.953   4.729  12.827
55491W        W19699   8.827  39.880   2.891
55492W        W19700  10.681  43.794   1.714
55493W        W19701  19.554  22.730  10.589
55494W        W19702  16.736  23.617  12.430
55495W        W19703  42.510  33.382  11.005
55496W        W19704  22.714   1.766   3.238
55497W        W19705  43.918   4.211  13.420
55498W        W19706  28.572  40.052   2.888
55499W        W19707  38.030  20.161  13.012
55500W        W19708  24.711  17.219  14.970
55501W        W19709  39.893  38.457   0.800
55502W        W19710  28.048  37.344  10.026
55503W        W19711  25.077  24.004   1.912
55504W        W19712  37.430  13.186  10.990
55505W        W19713   9.826  42.497   4.239
55506W        W19714  39.538  19.194   0.338
55507W        W19715  32.624  10.816  12.535
55508W        W19716  43.994  10.639   3.340
55509W        W19717  20.067  33.052   1.741
55510W        W19718  11.210  17.587   4.170
55511W        W19719  33.009  21.640   3.290
55512W        W19720  19.223  21.078  11.937
55513W        W19721  23.208  32.520  11.905
55514W        W19722  44.428   0.457   1.929
55515W        W19723  33.022  43.801   0.472
55516W        W19724   2.378   0.474  10.951
55517W        W19725   5.406  33.022  10.574
55518W        W19726  24.635  19.703   0.456
55519W        W19727  40.495   2.893   2.794
55520W        W19728  32.487   1.396  12.090
55521W        W19729  22.186  37.412   1.694
55522W        W19730  44.444  18.782  12.989
55523W        W19731  33.911  29.582   3.715
55524W        W19732  23.611  25.966   2.228
55525W        W19733   7.240  10.234  12.095
55526W        W19734   3.293  29.452   4.233
55527W        W19735  44.311  35.992   9.982
55528W        W19736  22.100  44.296  14.963
55529W        W19737  23.704  40.053   1.302
55530W        W19738  17.625  19.627   3.703
55531W        W19739  24.126  10.348   0.322
55532W        W19740  10.167  18.736  11.934
55533W        W19741  39.008  36.592   4.760
55534W        W19742  27.993  32.400  13.861
55535W        W19743  31.629  42.469  12.455
55536W        W19744  26.057  29.153  11.912
55537W        W19745  14.624  27.996  12.358
55538W        W19746   1.898  26.189   4.351
55539W        W19747  25.680  38.928  12.568
55540W        W19748  26.474  34.571   1.317
55541W        W19749  43.770  17.763  11.413
55542W        W19750  30.943  28.625   2.869
55543W        W19751   8.868  13.602  13.539
55544W        W19752  38.070  40.798   3.829
55545W        W19753  25.087  12.728   2.787
55546W        W19754  38.561  27.980  13.357
55547W        W19755  44.263   3.282   4.167
55548W        W19756  44.341  41.913  11.023
55549W        W19757   5.347  34.436  11.471
55550W        W19758  21.174  42.472  13.814
55551W        W19759  18.117  29.028  13.453
55552W        W19760  31.550  14.790  14.768
55553W        W19761  42.919  10.865  14.373
55554W        W19762  14.188  31.110  14.001
55555W        W19763  33.984  15.734   0.293
55556W        W19764  30.603  41.467   0.356
55557W        W19765   9.273   4.781  10.070
55558W        W19766  17.172  26.676   1.811
55559W        W19767  22.618  39.447   1.222
55560W        W19768  10.808  26.675  14.342
55561W        W19769  13.789  32.501   3.779
55562W        W19770  11.661  35.578   1.298
55563W        W19771   9.262   1.973   3.784
55564W        W19772  18.278  43.946  12.901
55565W        W19773   9.758  11.789  14.898
55566W        W19774  34.433  40.356  12.499
55567W        W19775  29.014  17.674   5.151
55568W        W19776  26.567  29.599  12.523
55569W        W19777  35.391   6.195  11.075
55570W        W19778  28.124  32.009   4.231
55571W        W19779  29.173  25.091  11.503
55572W        W19780  42.441  33.501   2.813
55573W        W19781  41.956   8.669   2.780
55574W        W19782  40.422   0.861  11.506
55575W        W19783  14.772  29.102  14.461
55576W        W19784   1.394  44.903  13.486
55577W        W19785  16.778   2.784   1.421
55578W        W19786  17.275  22.083  11.109
55579W        W19787  24.480  21.163  10.613
55580W        W19788  30.498   6.374  10.960
55581W        W19789  22.679  23.592  13.350
55582W        W19790  15.658   5.727   0.309
55583W        W19791   2.844  12.145  10.492
55584W        W19792   2.746  23.522  11.580
55585W        W19793  24.125  36.577   3.297
55586W        W19794   5.295   6.919  12.017
55587W        W19795  35.038  37.080   2.329
55588W        W19796  28.082  14.833  11.081
55589W        W19797  36.487  31.151  11.407
55590W        W19798  29.597  11.684  14.433
55591W        W19799  37.488   4.709   0.823
55592W        W19800  38.063  39.009   2.810
55593W        W19801  42.517   6.335   0.848
55594W        W19802  37.969  26.129   1.290
55595W        W19803  13.297   2.737   2.205
55596W        W19804  20.247  33.878   1.802
55597W        W19805  16.705  38.472  12.834
55598W        W19806  21.058  16.712  14.499
55599W        W19807   5.824  39.414  14.866
55600W        W19808  41.431  29.557   1.363
55601W        W19809  18.633  44.301   2.348
55602W        W19810  34.584  42.978  14.831
55603W        W19811   5.341  43.868  13.404
55604W        W19812  25.194   3.755  10.634
55605W        W19813  11.853  27.999   9.965
55606W        W19814   4.764  27.167   0.761
55607W        W19815  22.192  20.078  11.109
55608W        W19816  39.048  37.972   2.298
55609W        W19817  27.600  27.019   0.766
55610W        W19818   8.853  17.133   1.933
55611W        W19819  16.736  24.602   0.348
55612W        W19820  34.380  41.866  12.920
55613W        W19821  24.650  20.593  14.916
55614W        W19822  23.188  44.880   1.710
55615W        W19823  35.564  10.264   1.931
55616W        W19824  10.632   2.901   1.757
55617W        W19825  34.041  29.528   1.934
55618W        W19826   3.846  34.382  12.903
55619W        W19827  17.270  37.865  11.537
55620W        W19828   1.740  40.939   3.723
55621W        W19829  35.989   1.784  13.797
55622W        W19830   0.371  40.428   1.871
55623W        W19831   9.742  17.208   2.759
55624W        W19832  38.913   7.846   1.360
55625W        W19833  43.928  34.926   1.217
55626W        W19834   9.289  16.612  11.104
55627W        W19835  19.079   5.731   1.443
55628W        W19836  38.501  43.959  11.096
55629W        W19837  40.501  16.612  12.545
55630W        W19838  35.546  29.064  12.895
55631W        W19839  31.511  44.903  11.015
55632W        W19840  22.229  20.033   2.300
55633W        W19841   2.357  14.291  11.391
55634W        W19842   1.907  16.245  10.411
55635W        W19843  19.707  11.627   0.286
55636W        W19844  29.612  34.012  13.890
55637W        W19845   1.868  29.120   2.717
55638W        W19846  38.368  33.111  12.824
55639W        W19847  26.551  32.057  11.024
55640W        W19848  11.806   7.383  10.576
55641W        W19849  33.045   7.870  10.486
55642W        W19850  10.279  38.885  11.458
55643W        W19851  19.096   6.740  12.351
55644W        W19852   6.711  40.811  11.040
55645W        W19853  16.193  22.546   0.954
55646W        W19854  12.259   0.341  14.861
55647W        W19855  13.652   9.792   2.200
55648W        W19856  23.005  40.400   1.874
55649W        W19857   0.815  21.098  14.984
55650W        W19858  28.552  26.508  14.870
55651W        W19859  38.546  12.699  13.481
55652W        W19860   6.837  22.066  13.915
55653W        W19861  11.304  21.240  10.607
55654W        W19862   6.249  42.998  14.503
55655W        W19863   9.372   5.823  11.998
55656W        W19864   4.255  21.178  11.927
55657W        W19865   0.805  36.033   3.291
55658W        W19866  22.654  35.873   5.234
55659W        W19867   3.230   0.272   1.418
55660W        W19868  11.762  39.993   0.848
55661W        W19869  32.898  22.719   4.319
55662W        W19870   6.295   6.722   4.185
55663W        W19871  23.717  23.147   1.923
55664W        W19872  37.851  15.626  10.599
55665W        W19873  39.378  18.730   0.929
55666W        W19874  20.205  18.772   3.866
55667W        W19875   0.745  37.384   9.954
55668W        W19876  23.539  39.360   1.702
55669W        W19877   7.737  20.068  14.940
55670W        W19878  27.531  37.402   1.302
55671W        W19879  21.558  37.035   2.409
55672W        W19880   2.287   4.759   3.763
55673W        W19881   1.968   6.307  10.955
55674W        W19882  10.685   0.382   4.220
55675W        W19883  43.816   1.814   1.721
55676W        W19884  12.669  15.218   9.649
55677W        W19885  12.293  28.144   1.302
55678W        W19886  35.027   1.253   3.206
55679W        W19887  20.177  35.070   1.746
55680W        W19888  43.391  40.404   2.871
55681W        W19889  23.636  33.949   1.240
55682W        W19890  42.781  28.166  13.023
55683W        W19891  40.451  18.567   2.316
55684W        W19892   8.380  32.538   0.803
55685W        W19893  16.186  41.514  14.916
55686W        W19894  18.625  32.610   1.855
55687W        W19895  28.091  43.885   2.328
55688W        W19896  41.364  35.881   3.678
55689W        W19897  25.045  28.175  12.086
55690W        W19898  41.852   4.876  10.584
55691W        W19899  22.058  24.705  14.978
55692W        W19900  40.374  26.040  14.926
55693W        W19901   5.878  16.269   1.238
55694W        W19902  23.201  30.134   4.321
55695W        W19903  44.992  28.994   1.239
55696W        W19904  13.685   4.280   2.812
55697W        W19905  21.133   1.958  10.452
55698W        W19906  15.595  24.618  11.912
55699W        W19907  36.582  13.221  14.285
55700W        W19908  20.195  13.768  14.819
55701W        W19909   2.854   3.726   2.415
55702W        W19910  29.928  10.683   3.190
55703W        W19911   8.892  25.126   2.712
55704W        W19912  19.663   2.446  10.494
55705W        W19913   1.372  34.497   4.224
55706W        W19914   4.347  19.186  14.506
55707W        W19915  43.869   0.439  14.382
55708W        W19916  43.923  22.529  11.038
55709W        W19917  18.247  16.099   5.588
55710W        W19918  14.702  15.231  10.645
55711W        W19919  36.378  11.145  10.094
55712W        W19920  25.586  42.911   2.751
55713W        W19921  14.729  12.189   0.884
55714W        W19922   1.244  17.704   3.704
55715W        W19923  12.138  33.460  10.559
55716W        W19924  19.106  14.244   1.427
55717W        W19925  43.900  38.550  13.010
55718W        W19926   0.395  42.284  14.769
55719W        W19927  39.321   4.883  11.469
55720W        W19928  20.095  38.450   5.804
55721W        W19929  15.700  43.293  10.986
55722W        W19930  22.243  19.617   1.737
55723W        W19931  17.668  35.523  12.952
55724W        W19932  17.757  18.127   0.274
55725W        W19933  34.396  25.562  11.485
55726W        W19934  16.302  24.019   2.371
55727W        W19935  27.989  35.889   0.409
55728W        W19936  31.100  21.239  11.401
55729W        W19937  10.342   2.933   3.866
55730W        W19938  17.162  33.399  11.011
55731W        W19939  30.111  35.862   1.869
55732W        W19940  22.240  24.614   2.772
55733W        W19941  22.112  19.737  13.802
55734W        W19942  40.896  40.816  14.781
55735W        W19943   7.867  13.251  11.524
55736W        W19944  10.687  15.745  11.087
55737W        W19945   9.194  25.041   1.819
55738W        W19946  17.134  15.649  11.424
55739W        W19947   1.418  43.770  14.424
55740W        W19948  37.456  34.940   3.167
55741W        W19949  12.129  23.577   1.838
55742W        W19950  29.434  36.026   4.622
55743W        W19951   1.879   8.719  13.051
55744W        W19952  34.990  31.027  11.916
55745W        W19953  21.044  18.617  12.907
55746W        W19954  26.676  19.155  13.310
55747W        W19955  25.609  22.079  13.846
55748W        W19956   9.715  43.314  10.464
55749W        W19957  33.012  32.480  11.613
55750W        W19958  39.434  27.448  10.935
55751W        W19959  40.313  11.856   1.376
55752W        W19960  34.427  31.063  11.591
55753W        W19961  36.035  44.957   2.885
55754W        W19962  39.385  21.196  13.433
55755W        W19963   4.348  32.509   1.427
55756W        W19964  43.330  34.573  13.906
55757W        W19965   6.895   9.237   2.822
55758W        W19966  13.695  16.236  13.984
55759W        W19967   2.755  27.530   4.679
55760W        W19968  37.504   6.797  11.097
55761W        W19969  25.175  22.114  12.838
55762W        W19970  44.341   0.889  12.548
55763W        W19971  16.194  43.390   0.435
55764W        W19972  38.533  24.487  14.996
55765W        W19973  41.937  33.414  13.881
55766W        W19974  28.611  37.048   1.804
55767W        W19975  32.008  16.126  12.867
55768W        W19976  25.052  28.593  11.968
55769W        W19977   0.763  31.601  14.331
55770W        W19978  34.923   6.293   5.164
55771W        W19979  44.806  23.505  10.515
55772W        W19980   1.738  36.469  12.830
55773W        W19981  19.099  21.753  10.602
55774W        W19982  38.486  22.675  12.567
55775W        W19983  27.130  13.197  13.025
55776W        W19984   5.246  36.031  14.462
55777W        W19985   7.828  32.570   2.703
55778W        W19986  17.189  13.203   0.363
55779W        W19987   8.349  44.458  13.407
55780W        W19988  25.690   7.872   2.889
55781W        W19989  38.528  20.554   5.217
55782W        W19990  25.647  26.512   9.927
55783W        W19991  44.963  44.954  10.547
55784W        W19992  19.612  42.966  14.944
55785W        W19993  44.310  23.687   3.157
55786W        W19994  38.049  43.856   0.371
55787W        W19995   4.440  20.044   4.828
55788W        W19996  36.915  41.036  13.031
55789W        W19997  40.034  31.013  12.429
55790W        W19998  39.029  36.385  13.925
55791W        W19999  38.372  38.441   0.953
55792W        W20000  18.678  39.817  11.106
55793W        W20001  16.572  21.076   4.149
55794W        W20002  25.483  13.763  13.877
55795W        W20003  15.581  24.092   2.798
55796W        W20004   3.799  29.617   1.853
55797W        W20005  16.678   9.382   1.759
55798W        W20006  24.504  14.812   2.706
55799W        W20007  31.613  38.910   1.716
55800W        W20008  11.819  35.907  13.992
55801W        W20009  18.206  13.266   2.867
55802W        W20010  13.347   0.420  12.026
55803W        W20011  19.600  41.475   4.813
55804W        W20012  34.090  40.033   4.779
55805W        W20013  24.676  23.722   2.839
55806W        W20014  18.120   2.361   0.912
55807W        W20015  44.829  42.936   4.644
55808W        W20016  35.435   4.724  11.936
55809W        W20017  20.688  33.552   2.810
55810W        W20018  37.009  18.250   1.273
55811W        W20019  41.535  22.016  11.428
55812W        W20020  33.899  35.524   0.906
55813W        W20021   7.239  19.618  10.941
55814W        W20022  36.403  37.997  11.442
55815W        W20023  19.653  29.112   4.616
55816W        W20024  30.101   6.690  13.864
55817W        W20025  17.064  41.007   4.294
55818W        W20026  23.555  12.726   4.827
55819W        W20027  36.486  33.410   4.790
55820W        W20028  34.981  24.152   0.911
55821W        W20029   3.936  31.086   1.804
55822W        W20030  30.086   6.746  13.467
55823W        W20031  18.174  16.113   1.282
55824W        W20032  10.702  20.727   4.826
55825W        W20033  33.914  17.163  13.505
55826W        W20034  16.222  20.736  13.807
55827W        W20035  14.309  11.741   1.331
55828W        W20036  30.140   7.749   3.379
55829W        W20037  38.445  32.398   1.210
55830W        W20038  25.058  27.954  10.922
55831W        W20039  18.188  41.889  11.860
55832W        W20040  41.307   7.178  14.283
55833W        W20041  13.345  25.509   1.345
55834W        W20042  17.671  14.814  13.969
55835W        W20043  20.562  21.676   1.335
55836W        W20044  27.677  35.961   4.653
55837W        W20045  39.461   7.349   4.664
55838W        W20046  40.386  38.554  12.397
55839W        W20047  33.467  44.815   1.425
55840W        W20048   7.299  17.099   2.884
55841W        W20049   9.328  13.669   2.315
55842W        W20050  28.115  10.328   1.721
55843W        W20051  42.390  10.353  13.373
55844W        W20052   9.331  33.925  11.398
55845W        W20053  39.851  10.732   1.817
55846W        W20054  16.168  10.644  14.391
55847W        W20055  33.049   8.400  11.946
55848W        W20056  21.207  24.030  13.023
55849W        W20057   2.790  33.402  12.010
55850W        W20058  27.630  17.614   3.854
55851W        W20059  23.014  39.537   0.797
55852W        W20060  31.128  14.796  13.936
55853W        W20061   7.803  34.966   4.295
55854W        W20062  17.752   7.885  14.307
55855W        W20063  36.056  39.498  13.547
55856W        W20064  44.833  40.831  14.771
55857W        W20065  13.289   9.357  14.780
55858W        W20066  27.465  26.967  11.380
55859W        W20067  29.633  33.583   4.709
55860W        W20068   3.941   3.340   2.333
55861W        W20069  29.085  21.594  12.848
55862W        W20070   2.295   5.925   0.967
55863W        W20071   1.952  24.514  14.018
55864W        W20072  32.019   2.289   2.266
55865W        W20073  25.699   9.281  14.901
55866W        W20074   0.923  27.997   5.265
55867W        W20075  16.281  15.239  13.833
55868W        W20076  33.920  38.886   2.736
55869W        W20077  26.549   8.718   4.180
55870W        W20078  13.638   0.926   0.384
55871W        W20079  24.699  10.274  14.019
55872W        W20080  29.108  24.995   2.799
55873W        W20081  17.799  35.390   1.877
55874W        W20082  17.062   0.862   3.335
55875W        W20083  31.127  17.772  10.597
55876W        W20084   5.858  35.045   3.280
55877W        W20085  18.767  17.290   2.208
55878W        W20086   7.719  12.343   4.833
55879W        W20087  25.983  27.592  12.520
55880W        W20088   1.768  29.507  12.006
55881W        W20089   4.421   8.856  13.402
55882W        W20090  40.865  43.509  10.518
55883W        W20091  33.928  37.874  10.509
55884W        W20092   7.850  27.112  13.932
55885W        W20093  21.663  25.636  14.494
55886W        W20094  34.544  29.646  12.079
55887W        W20095  19.161   2.319   0.444
55888W        W20096  23.048  26.547   0.881
55889W        W20097  28.095  31.058   2.818
55890W        W20098   3.282  38.895   2.792
55891W        W20099  33.949  31.075   0.783
55892W        W20100  23.046  33.474   3.804
55893W        W20101  20.264  43.936  12.878
55894W        W20102   2.339  44.977   0.419
55895W        W20103   2.763  41.890  14.967
55896W        W20104  13.269  44.935  11.404
55897W        W20105  39.871  32.503  14.923
55898W        W20106  12.157  38.919  12.836
55899W        W20107  27.636  26.659  11.571
55900W        W20108   9.730  31.081   3.860
55901W        W20109  26.613  14.809  12.019
55902W        W20110  31.071  10.266   2.800
55903W        W20111  13.167  39.353  11.942
55904W        W20112   1.473   1.773  14.291
55905W        W20113   8.199   5.356  14.865
55906W        W20114   7.801  43.368   3.736
55907W        W20115  24.004  22.086   0.762
55908W        W20116  14.731  10.178  13.821
55909W        W20117  39.553  34.893   3.353
55910W        W20118  23.659   7.817  11.537
55911W        W20119  41.941  21.018  12.063
55912W        W20120   8.715   9.728  10.480
55913W        W20121   8.820  10.718  10.435
55914W        W20122   9.172  23.603   3.742
55915W        W20123  42.386  41.983   4.819
55916W        W20124  22.082  26.460   4.170
55917W        W20125  33.615  35.991   2.323
55918W        W20126  29.017  44.390  13.428
55919W        W20127  38.327  17.754  13.994
55920W        W20128  31.487   3.401  14.963
55921W        W20129  18.547  15.220   3.223
55922W        W20130   0.809   6.716   2.210
55923W        W20131  31.467  15.744  14.505
55924W        W20132   7.410  16.265  11.116
55925W        W20133  26.152  41.417  12.410
55926W        W20134  39.843  12.195   2.286
55927W        W20135  25.654  28.935  11.096
55928W        W20136  30.654  43.834   0.473
55929W        W20137  20.643  23.173  13.834
55930W        W20138  16.111  39.848  11.986
55931W        W20139  28.667  42.396  11.960
55932W        W20140   5.912   2.397   2.853
55933W        W20141  36.925  17.117   4.353
55934W        W20142  23.589  18.296  12.339
55935W        W20143  42.893   1.957   5.314
55936W        W20144  29.615  42.291   0.272
55937W        W20145  44.893  43.847   0.270
55938W        W20146  21.620  34.933   3.367
55939W        W20147  19.184  28.975  14.948
55940W        W20148  41.407  39.467   4.622
55941W        W20149  29.482  27.104  10.644
55942W        W20150   8.384  31.131   3.350
55943W        W20151  27.614  19.634  10.476
55944W        W20152  36.967   1.837  14.784
55945W        W20153   3.877  23.614   0.937
55946W        W20154  36.371   9.708  14.862
55947W        W20155  36.507  42.372  11.575
55948W        W20156  13.711  43.309  13.445
55949W        W20157   8.690  13.303  13.390
55950W        W20158  32.962  23.090  12.840
55951W        W20159  14.202   7.843   3.630
55952W        W20160  31.405   6.298  14.759
55953W        W20161  11.634   1.931   2.407
55954W        W20162   4.429  29.037   0.324
55955W        W20163  30.424   4.818  11.587
55956W        W20164  36.948  18.229  11.896
55957W        W20165   4.922  10.859  14.299
55958W        W20166  42.468  10.201  11.112
55959W        W20167  30.090  37.887   2.220
55960W        W20168  16.101   9.268  12.373
55961W        W20169  33.065  40.978   2.812
55962W        W20170  41.882  31.542   0.807
55963W        W20171  23.681   4.409  14.348
55964W        W20172  31.528  18.586  14.977
55965W        W20173  10.293  43.319   1.871
55966W        W20174  16.737  29.173   4.178
55967W        W20175  14.784  44.980  10.450
55968W        W20176   6.243   9.389   1.902
55969W        W20177   0.761   5.719  11.457
55970W        W20178  44.973  31.994  11.471
55971W        W20179  26.584  10.303  11.867
55972W        W20180  41.833  38.571   3.782
55973W        W20181  10.359  35.078  12.000
55974W        W20182  11.850  31.475  11.878
55975W        W20183  19.068  12.274   2.824
55976W        W20184  33.401   1.888   0.478
55977W        W20185  28.534  39.409  12.050
55978W        W20186  17.224  28.583   0.389
55979W        W20187   0.978  29.483   1.403
55980W        W20188  27.940  40.488  13.422
55981W        W20189  19.675   8.186  10.554
55982W        W20190  11.181  36.518   0.262
55983W        W20191  16.136  37.053  13.525
55984W        W20192  12.755   9.261  11.469
55985W        W20193  20.047  25.094  12.858
55986W        W20194  14.766  27.184   3.837
55987W        W20195  44.484  10.752   4.239
55988W        W20196  43.284  33.558  11.093
55989W        W20197  40.036   7.853   3.656
55990W        W20198   8.318  42.986  14.442
55991W        W20199  17.261  25.533   3.833
55992W        W20200  35.876  42.867  11.503
55993W        W20201  22.094  18.643  11.563
55994W        W20202  37.503  21.250  13.881
55995W        W20203   5.720  22.602  14.017
55996W        W20204  27.468  14.163   4.637
55997W        W20205   7.794  21.072   2.231
55998W        W20206  30.427   1.807  11.515
55999W        W20207  43.932  43.994  12.853
56000W        W20208  11.708   0.891   0.340
56001W        W20209   6.416   3.247  12.022
56002W        W20210  15.578  10.805  13.383
56003W        W20211  16.629  12.168  14.350
56004W        W20212  18.768   5.208  12.525
56005W        W20213   1.418   5.798  11.528
56006W        W20214   7.750  11.848   3.193
56007W        W20215   3.867  32.961   4.695
56008W        W20216  26.085   7.394  14.986
56009W        W20217  43.491  22.543  13.423
56010W        W20218   9.707  26.597   1.906
56011W        W20219  28.469   1.445  14.888
56012W        W20220  29.085  21.596  11.110
56013W        W20221  12.712   3.736   2.188
56014W        W20222   0.332  10.722  14.861
56015W        W20223  21.660  44.900   1.881
56016W        W20224  34.425   0.857   3.778
56017W        W20225   6.780   8.174  14.282
56018W        W20226  34.926   7.351   0.458
56019W        W20227  36.420  31.963  11.928
56020W        W20228  10.207   2.332   4.681
56021W        W20229  26.486   5.206   2.744
56022W        W20230   8.200  44.932  14.503
56023W        W20231  31.614  15.822   0.265
56024W        W20232  36.872  20.176  12.495
56025W        W20233  17.290  35.587   4.188
56026W        W20234   9.341  32.401  14.778
56027W        W20235   5.360  37.424  11.867
56028W        W20236  11.653  28.588  11.078
56029W        W20237  30.922  36.572  11.588
56030W        W20238  43.277  18.264   0.867
56031W        W20239  35.542  27.112  11.401
56032W        W20240  39.369   7.760   1.327
56033W        W20241  28.621  10.850   1.752
56034W        W20242  37.992  32.969   3.234
56035W        W20243  11.632   3.324  12.491
56036W        W20244  21.019  18.148   3.764
56037W        W20245  10.845  31.442  14.882
56038W        W20246   1.877  26.052  14.405
56039W        W20247  31.055  10.860   4.736
56040W        W20248  39.335  12.326   2.791
56041W        W20249  43.856  28.186  13.869
56042W        W20250  25.984  22.105   1.908
56043W        W20251  19.563   8.246  12.547
56044W        W20252  41.439   6.814   2.823
56045W        W20253  22.509  39.428  14.798
56046W        W20254  40.020  18.273   2.877
56047W        W20255  32.965  44.369  14.492
56048W        W20256  30.560  31.960   1.386
56049W        W20257  44.435   4.769   4.668
56050W        W20258  42.338  44.913  10.537
56051W        W20259   5.373  25.624  10.511
56052W        W20260  44.349   0.786  13.332
56053W        W20261   7.862  24.994  10.988
56054W        W20262   4.809   4.365  10.435
56055W        W20263  29.532  16.236  12.558
56056W        W20264  21.108  17.672   4.241
56057W        W20265  28.018  12.344  12.919
56058W        W20266  41.295  28.992  14.906
56059W        W20267  26.470  30.997   4.226
56060W        W20268  14.728  18.607  11.010
56061W        W20269  22.705  44.791   0.288
56062W        W20270  19.536  32.419  12.924
56063W        W20271  13.790  17.679   1.317
56064W        W20272  14.272  41.329   2.792
56065W        W20273   8.403  11.367  12.902
56066W        W20274  29.096  20.614  12.414
56067W        W20275  27.189  28.127  10.410
56068W        W20276  18.619  21.601   4.331
56069W        W20277  37.382   3.891   3.752
56070W        W20278  43.803  44.398  10.627
56071W        W20279  41.512   7.213   3.645
56072W        W20280  25.600  17.077  11.859
56073W        W20281  20.691  33.973   1.432
56074W        W20282  16.718  44.460   2.753
56075W        W20283   1.955  13.602  10.461
56076W        W20284  23.690  16.632   4.799
56077W        W20285   6.866   2.801   2.664
56078W        W20286  13.176   1.447   3.710
56079W        W20287  41.437   4.846   1.213
56080W        W20288  43.820   7.685  11.385
56081W        W20289  24.212  28.660   1.222
56082W        W20290   1.742  33.417   4.777
56083W        W20291  14.327  23.223   1.832
56084W        W20292   3.881  38.456  13.832
56085W        W20293  15.751   1.829  11.068
56086W        W20294   8.868  22.537   1.302
56087W        W20295  32.023  34.059  11.063
56088W        W20296   1.869  19.279   1.443
56089W        W20297   3.433   1.747  11.985
56090W        W20298   4.935  14.138  10.467
56091W        W20299  17.752  25.182   3.755
56092W        W20300   7.270  43.879  10.610
56093W        W20301  42.893  26.679   3.658
56094W        W20302  23.656  44.382   2.318
56095W        W20303  32.932  16.118  14.783
56096W        W20304  42.515   0.462   2.274
56097W        W20305  28.569  25.491   3.645
56098W        W20306  10.292  42.782   1.915
56099W        W20307  30.112  16.788  14.971
56100W        W20308  29.438  24.041   3.752
56101W        W20309  33.570   1.928   3.764
56102W        W20310   9.161  44.325   3.304
56103W        W20311  25.634  32.974   4.179
56104W        W20312  18.724  15.143  14.436
56105W        W20313  11.286  36.388   4.300
56106W        W20314  40.469  33.081   2.687
56107W        W20315   8.853   6.355  12.936
56108W        W20316  21.165  22.238  10.507
56109W        W20317  32.402  38.965  10.122
56110W        W20318  34.005  43.428  12.423
56111W        W20319  42.911  42.410   1.859
56112W        W20320  12.638  44.468  12.440
56113W        W20321  40.811   0.817  12.033
56114W        W20322  26.636   5.406  13.801
56115W        W20323  20.698  39.484  13.807
56116W        W20324  36.066  36.877  11.449
56117W        W20325  17.776   2.729   4.645
56118W        W20326  25.681  44.911  11.478
56119W        W20327  22.043  16.644   4.177
56120W        W20328  25.571  42.936   4.324
56121W        W20329  31.469  34.966  10.942
56122W        W20330  42.028  17.150  14.030
56123W        W20331  23.571  28.066   4.346
56124W        W20332   9.180  22.610  14.877
56125W        W20333  14.812  32.414  10.430
56126W        W20334  19.552   7.216  14.384
56127W        W20335  30.129  41.308  14.018
56128W        W20336  15.617  29.061   4.733
56129W        W20337  32.934  21.038  13.531
56130W        W20338  27.134  14.618   4.169
56131W        W20339  31.976   9.314   2.246
56132W        W20340  24.225  23.037  11.860
56133W        W20341  12.835  28.139   3.740
56134W        W20342  30.975  41.022   4.304
56135W        W20343  32.587  43.418  12.392
56136W        W20344  12.341   3.237   3.762
56137W        W20345  39.342   4.867   2.361
56138W        W20346  30.982   7.840   1.254
56139W        W20347  42.812  12.357   1.780
56140W        W20348  18.280  24.044   2.685
56141W        W20349  42.295   8.702  11.416
56142W        W20350  28.513  17.598   4.289
56143W        W20351  23.176  16.576   3.285
56144W        W20352   0.906  13.806   0.288
56145W        W20353   5.427  11.685  14.924
56146W        W20354  19.563  11.346  13.024
56147W        W20355  41.944  15.648  10.069
56148W        W20356  36.088  19.169  12.029
56149W        W20357  14.266  29.618  14.957
56150W        W20358  21.554   0.337   3.688
56151W        W20359  34.370  26.027   1.293
56152W        W20360   4.817  41.356  11.097
56153W        W20361  39.042   6.874  10.640
56154W        W20362  44.007  32.590   1.270
56155W        W20363  32.946   5.688   4.122
56156W        W20364  14.287  17.237   0.740
56157W        W20365  22.620  37.511  10.122
56158W        W20366  41.847  25.694   1.850
56159W        W20367  30.967  35.526   2.809
56160W        W20368  30.951  31.006  13.332
56161W        W20369   0.250   5.820   3.746
56162W        W20370  22.585  26.078  10.458
56163W        W20371  41.018  38.944   0.260
56164W        W20372   4.799  40.018  14.962
56165W        W20373  39.927   1.779  11.878
56166W        W20374  39.914  42.865   2.294
56167W        W20375  32.421  33.581  11.528
56168W        W20376  39.489  24.030   0.428
56169W        W20377  12.219  34.110   2.722
56170W        W20378  16.734  22.218   0.769
56171W        W20379  31.935  44.347  11.549
56172W        W20380   8.294   7.848   2.679
56173W        W20381   8.180  21.521   1.935
56174W        W20382  23.062  35.488   2.721
56175W        W20383  30.072   7.241   4.700
56176W        W20384  18.295   0.481   2.347
56177W        W20385  16.136   1.412   0.333
56178W        W20386  18.730   9.368   3.334
56179W        W20387  24.184  12.625   2.224
56180W        W20388  24.989  11.854   3.267
56181W        W20389   5.296   7.897   1.284
56182W        W20390  16.249   9.345   1.342
56183W        W20391   4.258  43.433  13.037
56184W        W20392  11.798   6.719  12.928
56185W        W20393  25.169  38.863  12.062
56186W        W20394   1.760  40.468  14.775
56187W        W20395  25.582   9.742   1.815
56188W        W20396   2.823  40.537   0.814
56189W        W20397  14.227  42.305  13.922
56190W        W20398  18.080  22.145  10.411
56191W        W20399   2.429  39.369   0.737
56192W        W20400  34.996  32.474   2.350
56193W        W20401   3.819  43.946  11.873
56194W        W20402  29.481  37.070  14.898
56195W        W20403  21.170  30.049  14.389
56196W        W20404   1.480  21.087  12.023
56197W        W20405  35.579  23.538  10.533
56198W        W20406  40.011  11.206  11.075
56199W        W20407  32.618   2.904  13.851
56200W        W20408  41.328   9.231  14.366
56201W        W20409  40.959  16.184  10.074
56202W        W20410  17.689  38.868   4.675
56203W        W20411  42.970  14.178  12.474
56204W        W20412  41.839  37.940   1.801
56205W        W20413   3.429  15.798   1.716
56206W        W20414  28.583  17.202  11.518
56207W        W20415   3.364  13.105  14.792
56208W        W20416  44.903   8.863   1.352
56209W        W20417  21.570  17.065   3.335
56210W        W20418  32.448  32.508   3.201
56211W        W20419   3.828   8.323  14.763
56212W        W20420  27.973  23.050  14.508
56213W        W20421  43.323   5.752  12.840
56214W        W20422  27.070  15.793   3.688
56215W        W20423  29.543  43.947  10.594
56216W        W20424  11.623  21.161   2.870
56217W        W20425  35.407  29.943  14.879
56218W        W20426  28.971  43.919   0.410
56219W        W20427  41.795  14.102  12.846
56220W        W20428  10.249   6.884   4.251
56221W        W20429   1.836  37.085  13.860
56222W        W20430   4.407  37.003   0.885
56223W        W20431  36.387   4.807   2.849
56224W        W20432  41.978  43.870   4.298
56225W        W20433  20.613  34.091   3.846
56226W        W20434  38.010   9.869   2.844
56227W        W20435  36.458  42.426   3.342
56228W        W20436  38.328   6.193  14.329
56229W        W20437  19.564  40.973   4.281
56230W        W20438   9.345  27.019   4.196
56231W        W20439  27.481   5.435   0.481
56232W        W20440  39.345  26.565  11.412
56233W        W20441  36.944   7.750   1.710
56234W        W20442  28.561   1.947   1.930
56235W        W20443  31.569   6.229   3.153
56236W        W20444  20.186  32.096   3.662
56237W        W20445   6.887  41.506   1.324
56238W        W20446  21.089   1.344   4.195
56239W        W20447  30.485   4.372   1.746
56240W        W20448  10.220   5.211   2.408
56241W        W20449  36.973   6.923   0.459
56242W        W20450  20.083  28.458   4.706
56243W        W20451  23.527  27.501  11.604
56244W        W20452   9.667  21.149  14.827
56245W        W20453   4.414  15.278   2.785
56246W        W20454  29.494   6.315   0.378
56247W        W20455  41.855  12.127   0.256
56248W        W20456  13.241  38.860   4.165
56249W        W20457  19.696  33.887  14.858
56250W        W20458  23.070  33.022  12.374
56251W        W20459  42.285  19.646   1.338
56252W        W20460  43.792  21.741   1.900
56253W        W20461   9.668   1.792   3.657
56254W        W20462  22.066   2.786   1.392
56255W        W20463   7.265  26.683   5.233
56256W        W20464  16.620  31.495   3.679
56257W        W20465  29.033  14.193  10.014
56258W        W20466  29.496  13.342   0.348
56259W        W20467  22.719   7.314  13.931
56260W        W20468   2.410   8.814  10.158
56261W        W20469  32.560  38.557  13.471
56262W        W20470  21.131  10.209  14.832
56263W        W20471   0.323  13.170  13.998
56264W        W20472   0.370  18.099  13.058
56265W        W20473  20.209   2.332  11.075
56266W        W20474   3.747  22.196   2.349
56267W        W20475  22.709   6.421  13.431
56268W        W20476  40.408  15.304   2.222
56269W        W20477  43.885  20.089   1.254
56270W        W20478  30.464   7.268  14.457
56271W        W20479   6.367  29.124  11.006
56272W        W20480  35.594  35.564   0.859
56273W        W20481  42.524   3.932  12.876
56274W        W20482  44.484   0.308   1.228
56275W        W20483  25.712   8.807   4.762
56276W        W20484   3.413  14.734  10.581
56277W        W20485   7.277  29.523   0.346
56278W        W20486  18.549  40.003   0.413
56279W        W20487   0.929  29.447   4.698
56280W        W20488  31.541   3.383   4.240
56281W        W20489  17.697  30.476   1.405
56282W        W20490  33.052   1.958  10.909
56283W        W20491  16.095  43.396  13.809
56284W        W20492  28.046  42.828  12.908
56285W        W20493  29.433  42.286   3.346
56286W        W20494  25.506  15.248  11.028
56287W        W20495  25.136  35.457  14.909
56288W        W20496   5.247  18.295  11.924
56289W        W20497  26.687   8.848   9.954
56290W        W20498  16.615   4.835  12.416
56291W        W20499   5.694   6.681   1.875
56292W        W20500   4.379  28.022   4.336
56293W        W20501  26.560  26.014  14.966
56294W        W20502  18.666   4.733  13.955
56295W        W20503   8.686   8.702  13.340
56296W        W20504   6.836  19.667  14.313
56297W        W20505   3.381  41.460  13.811
56298W        W20506   9.728  23.037   2.849
56299W        W20507  22.666  19.066  12.414
56300W        W20508  15.724   0.789   3.730
56301W        W20509   3.900  26.111  11.952
56302W        W20510  24.032  12.786   4.694
56303W        W20511  12.727  38.939  14.506
56304W        W20512  13.246  15.100  14.333
56305W        W20513  15.801  36.063   1.238
56306W        W20514  32.498  11.795  14.818
56307W        W20515   3.934   8.780  12.939
56308W        W20516  23.031  40.313   1.216
56309W        W20517  42.876  35.379  14.516
56310W        W20518  11.317  27.473   1.814
56311W        W20519  10.852  36.379   1.277
56312W        W20520  37.408  10.247   2.194
56313W        W20521  26.968  21.132   5.191
56314W        W20522  34.559  12.806  11.383
56315W        W20523   7.392   8.842   0.882
56316W        W20524  17.242  32.534   2.796
56317W        W20525   1.925  43.374   2.308
56318W        W20526  33.061  12.757  10.449
56319W        W20527   7.811   3.264   1.725
56320W        W20528  37.360  44.956   1.405
56321W        W20529  15.631  10.230   5.120
56322W        W20530  17.661   8.679   0.468
56323W        W20531  41.830  29.045   2.793
56324W        W20532  35.989  35.943   0.925
56325W        W20533  11.353  18.248  14.815
56326W        W20534  35.601  15.237   2.808
56327W        W20535   0.858  11.306  13.501
56328W        W20536  37.989  18.727   0.929
56329W        W20537  24.675  25.192  13.434
56330W        W20538  24.675  17.774  11.120
56331W        W20539  39.553   7.367  13.900
56332W        W20540  33.448  39.438  13.950
56333W        W20541  29.170   0.472  13.397
56334W        W20542  23.104  44.365   2.359
56335W        W20543  37.027   6.920  11.590
56336W        W20544   8.846   2.372   2.339
56337W        W20545  36.392  12.617   0.378
56338W        W20546  25.622  20.126  11.417
56339W        W20547  32.115  33.981   4.208
56340W        W20548  41.425  31.422   1.355
56341W        W20549   2.880   8.761  14.002
56342W        W20550  25.516  15.822   0.354
56343W        W20551  24.710  37.863   0.249
56344W        W20552  39.353  17.638  11.455
56345W        W20553  21.587   4.352   5.566
56346W        W20554  36.399  14.194  12.433
56347W        W20555   0.377  24.999   1.258
56348W        W20556  23.502  25.603   1.901
56349W        W20557   6.297   2.884  14.345
56350W        W20558  41.298  42.400   0.442
56351W        W20559   1.792  20.199   1.817
56352W        W20560   7.756  26.988  14.511
56353W        W20561  25.700  23.659   0.381
56354W        W20562  20.067  44.442   0.763
56355W        W20563  38.884  29.661   2.671
56356W        W20564  29.444  43.282   1.419
56357W        W20565  16.721  22.624  10.918
56358W        W20566  43.837   9.165   1.393
56359W        W20567  35.983  11.810   2.890
56360W        W20568  32.426  42.465  13.013
56361W        W20569  16.126   6.901   2.837
56362W        W20570   0.338  39.035  14.992
56363W        W20571  11.127   0.969   4.206
56364W        W20572  41.901   9.787  13.845
56365W        W20573  11.192  34.483   3.815
56366W        W20574  37.970  36.405   2.398
56367W        W20575  20.565  13.277  14.408
56368W        W20576   2.297   5.386   4.235
56369W        W20577  17.242  24.513  13.329
56370W        W20578  37.450  29.166   4.189
56371W        W20579  42.475  22.238  12.866
56372W        W20580   2.424  26.567   1.707
56373W        W20581  34.601  27.448   4.331
56374W        W20582  41.308  20.225   2.184
56375W        W20583   2.879   0.291  11.011
56376W        W20584   2.925  26.115   4.284
56377W        W20585  40.050  30.939   3.683
56378W        W20586   0.425  24.159   0.728
56379W        W20587  42.416  31.429   4.197
56380W        W20588   5.206   0.312   3.639
56381W        W20589  28.948  37.438   1.820
56382W        W20590   0.855  28.560   4.707
56383W        W20591  34.024   7.683  12.832
56384W        W20592   6.818  30.142   1.324
56385W        W20593  36.037  36.844   1.733
56386W        W20594  26.481  41.954  12.457
56387W        W20595  32.528  21.131  14.365
56388W        W20596  19.555  43.388  12.002
56389W        W20597  10.170  12.294   1.868
56390W        W20598  43.489  33.472  10.120
56391W        W20599  23.722   8.301  10.601
56392W        W20600   2.754   0.833  12.082
56393W        W20601  26.674   2.361  11.052
56394W        W20602  32.552   5.761   4.133
56395W        W20603  12.318  11.250  13.906
56396W        W20604  37.558  23.023   2.746
56397W        W20605  36.869   8.862   2.671
56398W        W20606   9.765   3.868  10.466
56399W        W20607   9.695  43.339   0.947
56400W        W20608   7.407  27.634   1.375
56401W        W20609   5.396  30.645  11.386
56402W        W20610  17.217  11.800  10.073
56403W        W20611  35.867  29.465  12.012
56404W        W20612  21.093  34.994   2.295
56405W        W20613  27.569   6.785  13.035
56406W        W20614  38.001  33.130  10.637
56407W        W20615   0.432  37.848   3.864
56408W        W20616   6.845  41.420  11.927
56409W        W20617  38.030  37.080  11.521
56410W        W20618  23.040   0.951   1.814
56411W        W20619  29.557  22.523  12.436
56412W        W20620  20.729  35.562  10.607
56413W        W20621  27.981  43.284   4.268
56414W        W20622  14.109  25.981   0.907
56415W        W20623  37.571  11.207  12.418
56416W        W20624  13.635  11.372  11.928
56417W        W20625   3.909  36.862   0.447
56418W        W20626  13.269  18.111   0.824
56419W        W20627  42.312  18.778  11.421
56420W        W20628  15.627   3.845   3.322
56421W        W20629  14.772  29.454   0.729
56422W        W20630  40.355   6.203  11.095
56423W        W20631   1.430  24.973  11.471
56424W        W20632   7.275  13.783   4.658
56425W        W20633   4.800  25.144   3.280
56426W        W20634   0.806  38.907   2.354
56427W        W20635  11.221  20.120  10.918
56428W        W20636  28.490  14.721  12.391
56429W        W20637  11.800  31.964   4.184
56430W        W20638  30.647   6.309   4.819
56431W        W20639  22.180  30.447  10.572
56432W        W20640  24.520  16.080   0.865
56433W        W20641  13.617   6.423   3.821
56434W        W20642   8.265  36.451   0.876
56435W        W20643  29.461  10.150   2.237
56436W        W20644   9.749   8.817  10.526
56437W        W20645  10.261  41.998   0.448
56438W        W20646  41.535  17.754  11.451
56439W        W20647  41.836  12.817   2.320
56440W        W20648  41.972   4.808   0.731
56441W        W20649   8.714  19.258   0.406
56442W        W20650  42.296   5.364  12.419
56443W        W20651  16.141  29.547   3.771
56444W        W20652   4.440  41.925  11.993
56445W        W20653  11.192  24.681   3.330
56446W        W20654   4.365  22.667  13.405
56447W        W20655  21.727  24.658  10.957
56448W        W20656  22.172   3.894   3.854
56449W        W20657  41.794  20.168   4.811
56450W        W20658  18.075   1.366   3.365
56451W        W20659  27.599  12.827  14.907
56452W        W20660  41.407  31.150  13.988
56453W        W20661  31.996   9.755   3.652
56454W        W20662   0.390  12.322  10.516
56455W        W20663  33.050  30.157  12.422
56456W        W20664  24.080   5.255   0.436
56457W        W20665  18.274  41.334   0.290
56458W        W20666   9.691  12.126  11.942
56459W        W20667  28.150  19.172  11.898
56460W        W20668  30.603  36.980  10.557
56461W        W20669  38.832  36.943  10.475
56462W        W20670  15.254   4.261  11.873
56463W        W20671  41.025  37.537  13.988
56464W        W20672  40.819  32.440  13.533
56465W        W20673  16.146   9.740  10.493
56466W        W20674   1.339  42.912  11.074
56467W        W20675   2.282   8.833  11.395
56468W        W20676  44.291   4.808   3.819
56469W        W20677  39.508  42.921  11.090
56470W        W20678  29.436  19.773   1.249
56471W        W20679  16.218   8.186   4.183
56472W        W20680  22.540  24.061   3.298
56473W        W20681  14.707   1.403  11.901
56474W        W20682  35.483   3.301  12.373
56475W        W20683  38.869  43.353   1.858
56476W        W20684  28.614  44.993   0.790
56477W        W20685  36.402  10.841   2.345
56478W        W20686  35.542  34.081   3.812
56479W        W20687  38.059  36.059  14.303
56480W        W20688   2.440  42.997  11.435
56481W        W20689  35.915  29.056  13.041
56482W        W20690  12.355  15.796  13.385
56483W        W20691  35.419  43.942  11.456
56484W        W20692  43.280   2.958   4.263
56485W        W20693  32.051   9.756  13.858
56486W        W20694  15.282  32.065  12.035
56487W        W20695  30.418  39.921   1.226
56488W        W20696   7.338  43.854   3.286
56489W        W20697  36.542   2.868   1.794
56490W        W20698  15.165  22.196   4.628
56491W        W20699  10.216  26.523  13.889
56492W        W20700   1.325   1.407   4.617
56493W        W20701  19.767  28.031  11.067
56494W        W20702  19.200  36.938  10.984
56495W        W20703  15.260  28.977  12.457
56496W        W20704   6.871  17.154  10.508
56497W        W20705  28.496  23.578   1.234
56498W        W20706   5.225  19.600  14.834
56499W        W20707  11.327   5.343   2.344
56500W        W20708  19.175   9.272  13.971
56501W        W20709  22.626  39.511  10.464
56502W        W20710  43.475  21.646   1.270
56503W        W20711  33.126  21.254  11.858
56504W        W20712   9.658  32.412  14.010
56505W        W20713  44.763  34.519  11.593
56506W        W20714  21.526  34.608  11.404
56507W        W20715  43.862   3.306  13.894
56508W        W20716  12.658   6.864  13.966
56509W        W20717  42.525   5.285  10.453
56510W        W20718  13.192  33.082  13.515
56511W        W20719  30.075   2.417  12.525
56512W        W20720   4.802  30.984  12.399
56513W        W20721  36.554   0.265   0.411
56514W        W20722   8.864  31.153  13.394
56515W        W20723  29.549   7.406   4.235
56516W        W20724   3.762   0.321   1.891
56517W        W20725  35.489  41.006   0.824
56518W        W20726   2.872   1.445   4.656
56519W        W20727  22.221  26.001  14.977
56520W        W20728  29.642   8.254   1.444
56521W        W20729  19.110   6.362   0.878
56522W        W20730   4.876  21.174  10.965
56523W        W20731  12.134  34.014  10.451
56524W        W20732   8.196  34.918   4.349
56525W        W20733  23.534   9.388  13.541
56526W        W20734  17.252  41.900  14.934
56527W        W20735  12.212  12.249   1.237
56528W        W20736  23.609  38.528   4.231
56529W        W20737   6.730  26.609   0.274
56530W        W20738  43.799   1.252  10.144
56531W        W20739   4.941  39.358  12.402
56532W        W20740   9.166  40.408  10.922
56533W        W20741   1.275   8.313  12.915
56534W        W20742  36.855  15.207  14.853
56535W        W20743   9.332  21.568  14.397
56536W        W20744  25.994  12.811  11.000
56537W        W20745  27.987   1.453  13.043
56538W        W20746   7.228   8.742   3.792
56539W        W20747  33.907  23.571  12.904
56540W        W20748   6.219  38.890   4.776
56541W        W20749  24.998   7.861   4.761
56542W        W20750  30.528   0.359   1.875
56543W        W20751  29.946  30.155  14.465
56544W        W20752  36.932  10.716  11.552
56545W        W20753  15.609  35.572  13.878
56546W        W20754  41.349  31.142   4.676
56547W        W20755  21.191  33.477  14.404
56548W        W20756  35.931   3.933  11.606
56549W        W20757   9.878   5.266   2.862
56550W        W20758  43.407  30.650  14.311
56551W        W20759  23.106   6.856   1.870
56552W        W20760   1.744  16.621  12.517
56553W        W20761   7.331  30.472  11.930
56554W        W20762  42.498  39.961   4.674
56555W        W20763  33.393   4.414  13.465
56556W        W20764  26.702   3.923   3.255
56557W        W20765  13.785  25.207   1.429
56558W        W20766  43.873  36.055   1.244
56559W        W20767  41.851  38.449   2.235
56560W        W20768  18.599  26.546   0.352
56561W        W20769  41.321  17.168  14.815
56562W        W20770  26.101  44.775   2.829
56563W        W20771  22.220   8.386  11.031
56564W        W20772  12.279  12.738   2.882
56565W        W20773   8.322  38.449   2.855
56566W        W20774  18.556  43.372  11.861
56567W        W20775  11.347  21.201   0.384
56568W        W20776  42.331  24.215   4.673
56569W        W20777  29.111  19.145  13.345
56570W        W20778  31.984  20.158   4.721
56571W        W20779  27.490  42.820   0.840
56572W        W20780   0.901  10.774   4.829
56573W        W20781  14.232  17.278   3.241
56574W        W20782  25.572  20.136   2.235
56575W        W20783  35.001  19.251  12.905
56576W        W20784  33.622  43.339   2.334
56577W        W20785  16.603  20.759  10.991
56578W        W20786  10.760  44.875  12.347
56579W        W20787  18.265  39.328  13.056
56580W        W20788   3.257  35.422   2.746
56581W        W20789   2.868   4.388   3.331
56582W        W20790  13.660  23.560   2.277
56583W        W20791  24.552  25.041  13.842
56584W        W20792  37.088  15.582  13.308
56585W        W20793  40.456  30.480   5.304
56586W        W20794  15.240  21.707  13.369
56587W        W20795  36.028  20.065   0.836
56588W        W20796  10.152  24.540   0.308
56589W        W20797  37.522  31.407   3.644
56590W        W20798  38.883  24.546   2.739
56591W        W20799  18.081  39.945  11.447
56592W        W20800   0.888  11.755   0.751
56593W        W20801  21.093   2.303   1.393
56594W        W20802  41.907  25.984   4.748
56595W        W20803  35.415  40.928  10.946
56596W        W20804  19.759  14.094   2.856
56597W        W20805  31.621   3.825  12.848
56598W        W20806   5.794  12.204  14.970
56599W        W20807  28.513   1.976  11.505
56600W        W20808  29.475  40.320  12.023
56601W        W20809  21.101  44.305   0.783
56602W        W20810  13.776  26.150   1.703
56603W        W20811   1.820  42.520   3.752
56604W        W20812  18.715  31.460  13.005
56605W        W20813  19.742  42.879   4.165
56606W        W20814  24.560   5.230   4.118
56607W        W20815  16.140   8.261  13.328
56608W        W20816  17.603  35.994  13.928
56609W        W20817   8.398  19.164  13.055
56610W        W20818  35.075  30.541   3.316
56611W        W20819   0.776  11.736   3.275
56612W        W20820  26.083  22.059  12.061
56613W        W20821  25.112  22.097   1.761
56614W        W20822  22.095  16.659  14.857
56615W        W20823   1.273  44.499   0.270
56616W        W20824  42.353  34.388   0.844
56617W        W20825   7.878   4.755   5.150
56618W        W20826  16.796   1.434  13.009
56619W        W20827  41.419  29.531  10.958
56620W        W20828  32.510  35.927  14.460
56621W        W20829  10.275  25.590  12.356
56622W        W20830  10.812  27.057  14.860
56623W        W20831   0.250   8.867  11.974
56624W        W20832  34.902  41.381   0.882
56625W        W20833  21.713  24.192   0.886
56626W        W20834  39.015  25.072  12.371
56627W        W20835  33.605  41.380   1.260
56628W        W20836  26.121  40.797  10.422
56629W        W20837  27.644  30.980  12.514
56630W        W20838  14.717  37.938  10.586
56631W        W20839  14.094  13.136  14.356
56632W        W20840  18.546  18.278   3.866
56633W        W20841  40.368  44.895  14.008
56634W        W20842  29.959  40.317   1.894
56635W        W20843  41.945  22.022   3.261
56636W        W20844  23.163   6.313  13.525
56637W        W20845  38.456  30.953   1.373
56638W        W20846   5.227  20.058   2.333
56639W        W20847  41.957  43.843  11.500
56640W        W20848  34.883  17.239  10.565
56641W        W20849  13.656   7.713   0.356
56642W        W20850  14.590  36.505   4.767
56643W        W20851  19.194  38.939  11.586
56644W        W20852   9.769  19.770   4.203
56645W        W20853  34.595  36.873   4.237
56646W        W20854   2.252   3.856   2.730
56647W        W20855  29.443  23.504  14.941
56648W        W20856  26.043  11.145  14.325
56649W        W20857  10.199  36.511  13.368
56650W        W20858   9.296   6.732  12.953
56651W        W20859  10.242  15.776  11.998
56652W        W20860  40.876  15.302  11.416
56653W        W20861  11.674  14.834   1.900
56654W        W20862  40.938  33.978   0.924
56655W        W20863  30.059  35.527  13.792
56656W        W20864  11.622  22.047  12.859
56657W        W20865  14.709  19.122  11.056
56658W        W20866   2.769   3.375   9.923
56659W        W20867  16.729  40.882   1.215
56660W        W20868  32.068   6.691  11.607
56661W        W20869  37.906   1.424  14.293
56662W        W20870  34.453   6.400   4.682
56663W        W20871  43.396  13.218   3.692
56664W        W20872  28.000   6.307   4.243
56665W        W20873   3.342  21.757  14.011
56666W        W20874  11.747  34.524   4.148
56667W        W20875  36.402  44.312  12.447
56668W        W20876  37.466   5.341   1.741
56669W        W20877  28.546  33.418   2.803
56670W        W20878  16.194  41.520   2.799
56671W        W20879  26.622  18.101  11.406
56672W        W20880   6.737  10.215   1.323
56673W        W20881  32.013  44.989   4.625
56674W        W20882  28.667  41.332   0.466
56675W        W20883  30.050  28.151  14.889
56676W        W20884  33.022   0.953   2.189
56677W        W20885   2.394  28.130   1.273
56678W        W20886  38.558  26.088  10.479
56679W        W20887  26.525  12.656  11.443
56680W        W20888  38.485  33.527  14.330
56681W        W20889  37.928  13.184   3.868
56682W        W20890  10.344  36.520   1.324
56683W        W20891  16.812   8.697   2.796
56684W        W20892  21.097  42.014   1.825
56685W        W20893  13.309  23.065   0.931
56686W        W20894  32.920   0.350   2.206
56687W        W20895   4.905  31.544   4.685
56688W        W20896  26.983  43.960  12.394
56689W        W20897  13.181  40.496   0.465
56690W        W20898  23.224  41.382   4.621
56691W        W20899  43.865  11.787   4.630
56692W        W20900  43.949  21.177   4.174
56693W        W20901  44.487  42.977   4.734
56694W        W20902  10.317  22.171  13.338
56695W        W20903   2.883  38.560   2.855
56696W        W20904   5.299  10.777  11.933
56697W        W20905  26.102  29.025  12.541
56698W        W20906  30.507  39.971   1.861
56699W        W20907  23.543  39.879   2.817
56700W        W20908  25.172   3.941   3.833
56701W        W20909  23.620  12.311   4.330
56702W        W20910  30.109  27.626   4.244
56703W        W20911  32.908  22.651   3.795
56704W        W20912  14.811   5.270  11.860
56705W        W20913   5.308  14.656  14.438
56706W        W20914   7.184  23.119  14.896
56707W        W20915  41.879  31.598   0.440
56708W        W20916   7.201   9.707  13.046
56709W        W20917   5.699   3.726  14.448
56710W        W20918  32.399  21.727   1.238
56711W        W20919  30.957   5.352   3.735
56712W        W20920   5.321  20.709  13.342
56713W        W20921  19.692  41.324   0.920
56714W        W20922  16.215  32.914   4.673
56715W        W20923  18.739  28.552   1.332
56716W        W20924  26.487  22.510  10.515
56717W        W20925  11.788  10.257   0.445
56718W        W20926  15.132   3.947  13.308
56719W        W20927   5.200  20.038  11.929
56720W        W20928  28.987  43.871   1.364
56721W        W20929  10.727  25.046   1.818
56722W        W20930   3.904  22.249  13.432
56723W        W20931   1.434  23.526   4.660
56724W        W20932  36.868  23.534   4.657
56725W        W20933  24.658  40.802  14.967
56726W        W20934  42.388  34.432   3.258
56727W        W20935   0.743  15.301  10.991
56728W        W20936  44.950  12.175  11.456
56729W        W20937  40.916  10.219   3.303
56730W        W20938  24.029  27.531   4.204
56731W        W20939   1.900  11.146  11.076
56732W        W20940   0.809  40.893   4.277
56733W        W20941  11.812  26.536  12.516
56734W        W20942  37.336  24.176   1.419
56735W        W20943   6.907  31.604   1.735
56736W        W20944  20.139  30.594  11.500
56737W        W20945   7.796  42.888   1.423
56738W        W20946   4.845  34.400  14.020
56739W        W20947  28.602   2.883  13.016
56740W        W20948  14.288  32.058   3.793
56741W        W20949  44.984  28.123   4.607
56742W        W20950  37.979  15.216   0.732
56743W        W20951  31.145  33.509   2.279
56744W        W20952  36.855  43.454  13.544
56745W        W20953   1.790   2.729   3.807
56746W        W20954  11.782  42.922  11.594
56747W        W20955  36.480  21.721   4.741
56748W        W20956  31.622  12.236  12.512
56749W        W20957   2.957  43.854  14.979
56750W        W20958  34.582  12.206   3.190
56751W        W20959   4.867  27.492  13.928
56752W        W20960  17.071  21.209  13.369
56753W        W20961  17.587  25.631   1.916
56754W        W20962   8.230  25.596   3.283
56755W        W20963  29.948  44.844  13.485
56756W        W20964   5.745  32.951  11.468
56757W        W20965  13.136  11.800   2.888
56758W        W20966  17.248  38.437  12.441
56759W        W20967   1.420  29.472   1.904
56760W        W20968   8.162   4.854  10.529
56761W        W20969  37.936  22.103   1.344
56762W        W20970   8.665   4.753   4.298
56763W        W20971  43.012  14.109   2.792
56764W        W20972  19.246  41.863   2.412
56765W        W20973  25.200  43.770  10.447
56766W        W20974  41.850  36.019   5.321
56767W        W20975  22.148   5.855   1.872
56768W        W20976  12.785   6.339   2.705
56769W        W20977  41.998  21.695   4.191
56770W        W20978   9.166  23.685  10.120
56771W        W20979  25.513  36.880  10.586
56772W        W20980   6.715  23.695   1.902
56773W        W20981  12.154  30.964  14.436
56774W        W20982   1.368  14.300   4.765
56775W        W20983  39.410  22.156   3.773
56776W        W20984  14.742   5.811   3.688
56777W        W20985  11.187  15.220  11.970
56778W        W20986   9.150  24.069   4.814
56779W        W20987  37.354   5.690   4.117
56780W        W20988  35.926  16.120   1.434
56781W        W20989   9.178  16.243   2.766
56782W        W20990  44.926  13.698  11.921
56783W        W20991  16.278  16.751   3.359
56784W        W20992  13.604  15.268  11.567
56785W        W20993   5.372   9.383   2.762
56786W        W20994  44.460  22.663   4.598
56787W        W20995  26.184  10.795   4.212
56788W        W20996   5.885  40.029   3.684
56789W        W20997  36.894  17.067  14.865
56790W        W20998  19.225  25.688  14.437
56791W        W20999   6.859  43.776   3.224
56792W        W21000  10.199  18.666  12.387
56793W        W21001  35.029  44.296   2.353
56794W        W21002  43.321   3.306  11.869
56795W        W21003   2.805  42.387  14.899
56796W        W21004  42.281   8.703  10.600
56797W        W21005  38.953   7.715   2.824
56798W        W21006   3.772  18.731  14.775
56799W        W21007  32.029  40.994  13.493
56800W        W21008  19.267  20.716   2.330
56801W        W21009  33.571   4.769   3.835
56802W        W21010  12.730  29.645   4.627
56803W        W21011  44.960  12.229   2.666
56804W        W21012   4.746  29.919   1.397
56805W        W21013  15.241  18.128   2.234
56806W        W21014   5.820  42.359   2.839
56807W        W21015  25.686  27.514   2.412
56808W        W21016  16.790  13.723   0.430
56809W        W21017  29.607   3.304  13.938
56810W        W21018  37.889  23.611  13.950
56811W        W21019  17.098  31.047  13.407
56812W        W21020  38.339   5.227   1.262
56813W        W21021   2.966   7.315  10.893
56814W        W21022  28.006   5.750   2.374
56815W        W21023   2.426  26.556  14.290
56816W        W21024  11.722  33.409  12.862
56817W        W21025  22.232  32.925   2.900
56818W        W21026  36.501  28.063   5.094
56819W        W21027   0.407  41.988   1.282
56820W        W21028  44.799  31.015  14.431
56821W        W21029  17.161  28.648  14.949
56822W        W21030  25.998  36.988   3.702
56823W        W21031  39.961  31.139   1.310
56824W        W21032  24.057  41.823  11.494
56825W        W21033  31.933  29.619   1.880
56826W        W21034  21.563  33.491   2.892
56827W        W21035   0.379  40.354  10.603
56828W        W21036  38.924  44.930  11.482
56829W        W21037  23.583  35.469  11.411
56830W        W21038  32.637   8.815   4.771
56831W        W21039  22.047   8.786  14.887
56832W        W21040   3.817  28.532  13.482
56833W        W21041   0.487   3.865   2.273
56834W        W21042  20.070  25.142  14.999
56835W        W21043  38.338  32.437  11.558
56836W        W21044  41.815  18.637   5.633
56837W        W21045  17.277  27.957   1.422
56838W        W21046   6.225   0.950  13.394
56839W        W21047  16.129  36.057  10.117
56840W        W21048  36.387   8.712  12.501
56841W        W21049  39.008   3.948   4.232
56842W        W21050  41.510   6.686   2.280
56843W        W21051  40.375   0.339  13.062
56844W        W21052  19.139   7.194  12.355
56845W        W21053  31.928  26.539   3.200
56846W        W21054  21.529  28.168   1.334
56847W        W21055  22.717   4.755  13.845
56848W        W21056  12.664  22.591  12.849
56849W        W21057  14.746   0.962  11.399
56850W        W21058  26.080  41.870   4.614
56851W        W21059   4.244  40.020  12.023
56852W        W21060   5.352   5.768   0.431
56853W        W21061  17.184  43.959  14.032
56854W        W21062   7.706   9.761  11.916
56855W        W21063  27.664  26.089   1.863
56856W        W21064  38.412  27.627   2.318
56857W        W21065   0.833   9.790  11.909
56858W        W21066  11.630  39.519   1.284
56859W        W21067  29.486  39.398   2.769
56860W        W21068  43.485   0.406   4.809
56861W        W21069  27.541   1.437  14.487
56862W        W21070  23.055  26.028   0.456
56863W        W21071  16.246   5.397  13.004
56864W        W21072  38.390  25.218  11.910
56865W        W21073   2.428   0.485   0.948
56866W        W21074  29.517  30.543  13.030
56867W        W21075  44.954  22.745   0.260
56868W        W21076  41.426  40.032   2.829
56869W        W21077   9.799  18.687   1.261
56870W        W21078  25.166   6.316   2.696
56871W        W21079  15.166  14.335  11.910
56872W        W21080  31.643  40.908   4.758
56873W        W21081   9.154  42.415  10.951
56874W        W21082  23.043  33.497   4.798
56875W        W21083   2.782   7.321   1.741
56876W        W21084  12.779  42.347   4.122
56877W        W21085  23.085  13.716   1.794
56878W        W21086  40.375  40.455  14.958
56879W        W21087  15.769  40.475   0.823
56880W        W21088  13.682  21.259   1.899
56881W        W21089  22.649   7.883  10.437
56882W        W21090  38.358  38.332   3.161
56883W        W21091  41.483   3.749  13.419
56884W        W21092  20.710  31.633   0.813
56885W        W21093  33.405  34.104  13.342
56886W        W21094   6.769  41.462   0.808
56887W        W21095   0.354  27.635   1.886
56888W        W21096  30.622  19.280   2.670
56889W        W21097  31.563   4.243  14.968
56890W        W21098   5.291  42.858  10.412
56891W        W21099   9.757  12.206  14.783
56892W        W21100  32.952   7.722  12.921
56893W        W21101  16.279  43.482  10.991
56894W        W21102   3.899  39.512   1.885
56895W        W21103  22.579  35.862  11.432
56896W        W21104   4.894  42.416  10.433
56897W        W21105  16.737  18.250  12.376
56898W        W21106  37.349  38.972  10.562
56899W        W21107  18.254   9.861   0.852
56900W        W21108   5.881   4.436  11.994
56901W        W21109  16.206  33.562   1.380
56902W        W21110  36.853  11.653  14.514
56903W        W21111  20.194  39.007   1.437
56904W        W21112   8.217  36.031   1.719
56905W        W21113  44.499  32.459   0.930
56906W        W21114  19.751  13.336   4.804
56907W        W21115  26.117   2.420  11.404
56908W        W21116  21.052  11.643  11.997
56909W        W21117  13.327  18.569  11.003
56910W        W21118  18.251  25.178  11.112
56911W        W21119  16.691  22.549   0.788
56912W        W21120  17.677   3.820   4.306
56913W        W21121  17.175  40.923  12.435
56914W        W21122  18.154  25.523   0.759
56915W        W21123  19.254  11.301   1.402
56916W        W21124   9.852  31.952  13.901
56917W        W21125   9.829  40.322  11.405
56918W        W21126  43.414   8.333  12.557
56919W        W21127   4.381  14.761   1.872
56920W        W21128  28.533   5.763   2.355
56921W        W21129  31.446  22.734  13.866
56922W        W21130  17.688  29.578  10.564
56923W        W21131  23.604  27.978  12.849
56924W        W21132  44.874  33.580   4.730
56925W        W21133   1.858  21.210  10.972
56926W        W21134   3.883  11.231   1.878
56927W        W21135  30.054   9.689  13.360
56928W        W21136  24.163  26.498   2.184
56929W        W21137  26.662  25.021  11.410
56930W        W21138  25.489  25.011  11.036
56931W        W21139  10.702  35.364   0.280
56932W        W21140  27.644  14.724  10.598
56933W        W21141   7.879   8.190   4.735
56934W        W21142  21.049  29.118   0.816
56935W        W21143  40.395  33.550   3.671
56936W        W21144   5.910  24.575  12.985
56937W        W21145  13.818   1.343  13.989
56938W        W21146   7.286  34.043  14.908
56939W        W21147  40.033  33.527   4.621
56940W        W21148  20.554  38.425  14.315
56941W        W21149  33.894  34.864  11.549
56942W        W21150  14.695  16.305   2.347
56943W        W21151  16.583  20.540  13.509
56944W        W21152  43.409  35.977   1.399
56945W        W21153  33.385  19.682  13.960
56946W        W21154  23.056  20.052   4.234
56947W        W21155  20.539   3.284  12.059
56948W        W21156  10.657  19.238  11.551
56949W        W21157  25.602   5.870  10.496
56950W        W21158  11.356   4.849  13.468
56951W        W21159  34.928  28.046  13.018
56952W        W21160  11.204   0.252  12.412
56953W        W21161  19.272   8.676  14.912
56954W        W21162  19.703  42.008   4.154
56955W        W21163  31.039  28.021   1.899
56956W        W21164  31.101  24.672  13.863
56957W        W21165   8.293  31.999   2.314
56958W        W21166  11.749   2.873   2.298
56959W        W21167  18.666  28.123   9.996
56960W        W21168  11.724  25.206   5.185
56961W        W21169  26.098   4.888  11.086
56962W        W21170  36.509  14.627   4.676
56963W        W21171  26.680  33.060  12.006
56964W        W21172   2.941  16.746   0.368
56965W        W21173  14.754  31.089   1.373
56966W        W21174  11.298  28.439   1.226
56967W        W21175  14.728  15.271   3.231
56968W        W21176  14.212  38.053   4.230
56969W        W21177  20.560   2.728  12.513
56970W        W21178  11.221  21.619   0.386
56971W        W21179  24.623  23.615   2.199
56972W        W21180  32.938  34.052   0.465
56973W        W21181  30.080  11.783  11.583
56974W        W21182  39.056  15.188   2.308
56975W        W21183  19.667  10.684   0.417
56976W        W21184  20.128   6.398  14.300
56977W        W21185  13.732  32.497  13.512
56978W        W21186   3.217  31.585  10.416
56979W        W21187  17.075   3.231  14.293
56980W        W21188  26.952  33.420  11.497
56981W        W21189   4.709   7.321   4.254
56982W        W21190  25.600  21.714   2.682
56983W        W21191  39.809   3.282   2.873
56984W        W21192  11.318  18.129   2.727
56985W        W21193  43.409   6.192  10.055
56986W        W21194  30.458  17.687   0.842
56987W        W21195  41.811  43.973   1.384
56988W        W21196   2.269  29.436   2.728
56989W        W21197   9.753  42.881   2.892
56990W        W21198  30.548  24.173   1.355
56991W        W21199  10.866  44.788   1.787
56992W        W21200  39.843  13.822  12.410
56993W        W21201  19.687   4.912  10.507
56994W        W21202  38.917  25.498   0.382
56995W        W21203  44.774  11.857   2.728
56996W        W21204  14.673   2.341   2.343
56997W        W21205   1.482  16.165  14.955
56998W        W21206  44.958  15.133  10.970
56999W        W21207  37.039  21.026   3.235
57000W        W21208  38.507  42.329  14.791
57001W        W21209  15.607  42.952   4.275
57002W        W21210  18.120  32.025  11.988
57003W        W21211   8.837  36.975   0.275
57004W        W21212  32.042  18.141  13.342
57005W        W21213  12.254  16.181   0.804
57006W        W21214  27.983  39.538   4.222
57007W        W21215  39.347  27.576  14.814
57008W        W21216  29.436  12.166  10.519
57009W        W21217  21.147  12.714  14.767
57010W        W21218   8.171  33.525   0.290
57011W        W21219  25.662  19.060   2.293
57012W        W21220  10.190  34.404   2.349
57013W        W21221   4.204  20.146   3.188
57014W        W21222  26.163  11.323  13.962
57015W        W21223  44.281   9.359   5.311
57016W        W21224  15.602  12.679   0.882
57017W        W21225  38.936  18.235  14.973
57018W        W21226  15.778  10.764  13.865
57019W        W21227  20.247   5.793  13.514
57020W        W21228  44.459  27.196  10.615
57021W        W21229  14.299  29.139   1.217
57022W        W21230  12.713  30.912   1.399
57023W        W21231  27.667   7.829   0.782
57024W        W21232  41.329   8.353  10.432
57025W        W21233  38.835   0.465  13.914
57026W        W21234  31.027  37.929   4.332
57027W        W21235   3.776   2.460   4.829
57028W        W21236  12.213  31.136   0.442
57029W        W21237  21.755  42.322   1.214
57030W        W21238  18.082  24.490   2.261
57031W        W21239  28.947  19.772  14.829
57032W        W21240  24.540  14.769  13.850
57033W        W21241   4.280  26.200  12.564
57034W        W21242   0.419  42.282  13.514
57035W        W21243  10.383  24.985   0.434
57036W        W21244   3.274  14.272   2.684
57037W        W21245  12.270  30.656  10.476
57038W        W21246  10.689  20.081   1.304
57039W        W21247  21.022   9.224  11.102
57040W        W21248  30.498  14.184  12.367
57041W        W21249  16.795  10.382  12.958
57042W        W21250  41.530  37.993   3.813
57043W        W21251  19.743  35.387   1.824
57044W        W21252   8.289  21.752   1.282
57045W        W21253  29.466  36.498   1.853
57046W        W21254  41.918  16.094   4.735
57047W        W21255   7.292  18.074   0.922
57048W        W21256   7.286  29.558  13.378
57049W        W21257  12.140  34.495   3.860
57050W        W21258  39.415   7.345   0.360
57051W        W21259   5.697  37.045  10.582
57052W        W21260  35.951  12.175   0.435
57053W        W21261  24.177  15.299  12.020
57054W        W21262  34.566  33.485   4.616
57055W        W21263  35.449  26.031   4.703
57056W        W21264  37.979   6.912   3.726
57057W        W21265  42.937   0.820  11.127
57058W        W21266  16.314  39.066   4.681
57059W        W21267   7.403  23.100   3.635
57060W        W21268  30.442  33.973  12.851
57061W        W21269  18.254   8.784  11.990
57062W        W21270  37.559  21.048   2.730
57063W        W21271  38.874  13.304   4.660
57064W        W21272  40.962  16.289  11.960
57065W        W21273  29.066  36.979   4.718
57066W        W21274   2.781  26.170  13.981
57067W        W21275  31.108  28.068  12.987
57068W        W21276  17.677  35.958  14.453
57069W        W21277   4.797  37.923  12.884
57070W        W21278  43.468  22.594  14.412
57071W        W21279  32.625   9.209   0.306
57072W        W21280  15.662  42.846   9.936
57073W        W21281  37.447  31.054  10.487
57074W        W21282  27.464  13.694   1.314
57075W        W21283  32.885  15.283   2.706
57076W        W21284  31.439  23.694   4.221
57077W        W21285  36.986  28.038  10.601
57078W        W21286  16.759   4.909  10.915
57079W        W21287  37.066  38.951  12.494
57080W        W21288  32.012   6.395  14.316
57081W        W21289  11.676  41.478   2.833
57082W        W21290  23.048  23.175  14.337
57083W        W21291  13.194  25.561  14.402
57084W        W21292  25.107  17.235   2.338
57085W        W21293  12.168   4.319  12.021
57086W        W21294  14.809   1.393   4.313
57087W        W21295  27.486  24.080   4.624
57088W        W21296   5.298  16.127   4.607
57089W        W21297  39.816   6.211  14.342
57090W        W21298  11.866   0.459   9.965
57091W        W21299  36.459  29.161   3.247
57092W        W21300  19.633  42.280   1.750
57093W        W21301   5.692  10.193  10.572
57094W        W21302  36.378  37.926  10.631
57095W        W21303  40.309  15.306   3.159
57096W        W21304  31.010  38.920  11.128
57097W        W21305  22.718  13.732  11.490
57098W        W21306   4.923  20.150  10.507
57099W        W21307   3.881  35.945   2.413
57100W        W21308   3.879  27.620  11.049
57101W        W21309  33.128   8.865  13.406
57102W        W21310   6.365   1.842   3.218
57103W        W21311  22.604  35.931   3.806
57104W        W21312  41.991  42.982   9.968
57105W        W21313  39.322  23.233  10.637
57106W        W21314  37.006  44.922   3.674
57107W        W21315  18.051   7.694   3.226
57108W        W21316   5.399   8.670  13.484
57109W        W21317   8.210   1.742  13.429
57110W        W21318  20.575  28.985  13.412
57111W        W21319  44.442   9.289  10.998
57112W        W21320  38.853  42.394   3.147
57113W        W21321  13.186  21.028  10.101
57114W        W21322  31.634   7.220  11.396
57115W        W21323  26.559   7.746  13.031
57116W        W21324  10.300  11.781   1.381
57117W        W21325  43.413  23.640   3.177
57118W        W21326   8.785   4.935   0.763
57119W        W21327   7.380  44.448  11.426
57120W        W21328  40.923  34.928  12.458
57121W        W21329  44.981  36.046   1.429
57122W        W21330  23.167  17.590   4.305
57123W        W21331  12.776  42.282  13.880
57124W        W21332  33.003  12.243  13.909
57125W        W21333  12.310  41.446  13.373
57126W        W21334  32.600  30.503   3.228
57127W        W21335   5.897  16.099   2.191
57128W        W21336  13.224  41.982  11.986
57129W        W21337  14.246  44.439  10.964
57130W        W21338   9.199  27.120  12.828
57131W        W21339  41.881  34.112   1.768
57132W        W21340   4.727  40.823  14.412
57133W        W21341   0.923  11.724   4.184
57134W        W21342  10.797  41.818   3.778
57135W        W21343   4.351  36.507   1.291
57136W        W21344  13.304  40.538  11.385
57137W        W21345   6.910  14.706   1.228
57138W        W21346   4.940  28.461   2.702
57139W        W21347  11.234   0.287  13.989
57140W        W21348  20.724  27.469   0.937
57141W        W21349  17.109  19.586  11.526
57142W        W21350  39.886  26.665   3.150
57143W        W21351  21.166  18.645  12.471
57144W        W21352  41.876   0.944   2.183
57145W        W21353  26.670  31.466   1.911
57146W        W21354   7.331  36.366   4.141
57147W        W21355   5.720  31.580   2.899
57148W        W21356  13.166  11.324   1.783
57149W        W21357  41.978  35.032  12.579
57150W        W21358  43.302  16.291   0.813
57151W        W21359  33.445   4.743   0.405
57152W        W21360   4.798   6.729  14.424
57153W        W21361  40.909  31.119   3.696
57154W        W21362  33.965  25.618   4.344
57155W        W21363  25.024   8.345   1.422
57156W        W21364  43.847   7.201   0.946
57157W        W21365  40.442  30.531  11.588
57158W        W21366  38.933  16.173   2.389
57159W        W21367   3.231  44.957   2.313
57160W        W21368  14.163  31.458   3.153
57161W        W21369  44.373   5.392   4.783
57162W        W21370  15.270  29.664  10.513
57163W        W21371   6.722  10.213   2.845
57164W        W21372  43.321  24.650   4.795
57165W        W21373  16.598  41.811  11.543
57166W        W21374  13.721  36.522  13.956
57167W        W21375   2.257   0.457  14.908
57168W        W21376  25.491  15.626  11.536
57169W        W21377  30.657  13.334   0.351
57170W        W21378   5.336  15.698   3.182
57171W        W21379  13.704  38.398  12.548
57172W        W21380   4.893  10.866   2.829
57173W        W21381  42.027  32.630  11.051
57174W        W21382  24.223  28.074   5.245
57175W        W21383  41.993  44.904  11.099
57176W        W21384  15.238  42.914  12.093
57177W        W21385   9.303  11.248   3.344
57178W        W21386  17.237  11.343   2.343
57179W        W21387  28.674  15.114  13.968
57180W        W21388  10.740  19.697  11.443
57181W        W21389  17.593   0.857  14.432
57182W        W21390  32.504   4.925  12.929
57183W        W21391  37.372  37.909  12.924
57184W        W21392  36.999  36.857  12.542
57185W        W21393  11.808  37.001  12.960
57186W        W21394  30.521  33.026   0.365
57187W        W21395  20.269   9.732  13.439
57188W        W21396  25.502  23.118  11.554
57189W        W21397  40.962  12.192  12.485
57190W        W21398   7.827   7.687  14.781
57191W        W21399   6.880  22.589   2.709
57192W        W21400   7.366  43.275   4.330
57193W        W21401  36.377  44.286   0.746
57194W        W21402  38.930  42.914  12.034
57195W        W21403  40.402  30.158  11.399
57196W        W21404   1.936  30.438   5.175
57197W        W21405  10.338  44.841  13.546
57198W        W21406  36.554  41.300   3.792
57199W        W21407  20.195  28.079  13.821
57200W        W21408  27.949  14.617   5.659
57201W        W21409  17.645   6.911   4.599
57202W        W21410  25.136   8.696  12.002
57203W        W21411  28.135   9.222  14.854
57204W        W21412  44.370  44.926   2.838
57205W        W21413  14.166  15.714  12.506
57206W        W21414  15.809  42.332   3.208
57207W        W21415  26.050  17.235   4.779
57208W        W21416  36.576  18.716  13.989
57209W        W21417  31.570  39.970  13.457
57210W        W21418   0.445  21.607  13.875
57211W        W21419  41.399  11.138   2.686
57212W        W21420  17.277   9.692  13.008
57213W        W21421   5.369  14.130   2.827
57214W        W21422  21.200  12.275  11.407
57215W        W21423  26.090  29.024  12.930
57216W        W21424  16.724  33.576  12.393
57217W        W21425  30.009  33.559   0.739
57218W        W21426  44.985  27.492   0.786
57219W        W21427  21.150  21.700  14.491
57220W        W21428   4.212  16.094   3.704
57221W        W21429  43.361  18.088   9.651
57222W        W21430  32.081   0.788   3.212
57223W        W21431  19.739  36.528  14.026
57224W        W21432  17.220  31.641   4.245
57225W        W21433  24.127  21.226   1.232
57226W        W21434  42.388   3.849  11.996
57227W        W21435  38.548  21.716  14.991
57228W        W21436  39.939   2.240  13.455
57229W        W21437  41.941  25.107   5.115
57230W        W21438  13.846  10.653   1.883
57231W        W21439  17.251   6.894  10.980
57232W        W21440  43.847   8.901   4.729
57233W        W21441   9.311  26.523  14.318
57234W        W21442   4.363  38.857   1.754
57235W        W21443  11.181  33.074   4.711
57236W        W21444  12.185  35.409   1.843
57237W        W21445   9.830  42.483   4.777
57238W        W21446  34.413   0.473  11.925
57239W        W21447   3.241   3.931   1.235
57240W        W21448  40.908   9.282  11.083
57241W        W21449  23.032  34.056  13.362
57242W        W21450  26.703  41.037   0.955
57243W        W21451   8.668  40.833  12.350
57244W        W21452  34.614  23.514   4.703
57245W        W21453  28.142  38.371   0.812
57246W        W21454  26.010  25.497   4.352
57247W        W21455  33.403  25.469   0.743
57248W        W21456   0.372   0.460  14.985
57249W        W21457   3.288  11.824   2.815
57250W        W21458  25.531  16.810  14.892
57251W        W21459  44.411  15.239  14.847
57252W        W21460  18.263   3.848  12.379
57253W        W21461   7.322  12.152   2.684
57254W        W21462   6.707  22.735  14.500
57255W        W21463  30.980  37.037  14.860
57256W        W21464  27.571  22.514  11.074
57257W        W21465  34.434  13.837   1.708
57258W        W21466  10.763  15.796   2.802
57259W        W21467   8.325  14.329  13.865
57260W        W21468   2.227   7.194   2.826
57261W        W21469  23.593  26.021   3.836
57262W        W21470  28.621  41.517  12.922
57263W        W21471  30.099  40.908  12.912
57264W        W21472  12.727  16.313  13.443
57265W        W21473  33.436  36.929  11.441
57266W        W21474  15.313  24.673   0.450
57267W        W21475  24.170   1.413   3.211
57268W        W21476  11.367  32.135  12.845
57269W        W21477  18.174  20.752  12.341
57270W        W21478  23.125  12.795   4.814
57271W        W21479  21.178   4.415   3.191
57272W        W21480  42.358   1.801   0.854
57273W        W21481  22.552  42.310   4.797
57274W        W21482  16.654   9.764  14.911
57275W        W21483  19.246  28.509  14.896
57276W        W21484  31.914  33.937  12.563
57277W        W21485  24.169  38.929  14.964
57278W        W21486   2.433  20.239   2.197
57279W        W21487   9.660   1.474  13.542
57280W        W21488   5.360   1.902   0.287
57281W        W21489  41.946  24.558  10.420
57282W        W21490   2.284  41.976  12.443
57283W        W21491  26.614  38.436   2.312
57284W        W21492  12.307   4.728   2.875
57285W        W21493  17.763  39.488   1.703
57286W        W21494  24.688  38.032  14.797
57287W        W21495  29.137  17.188   4.729
57288W        W21496  12.203  40.484  14.013
57289W        W21497  22.010  21.532   1.390
57290W        W21498  23.078  40.323  14.511
57291W        W21499  29.655  21.026   0.905
57292W        W21500  37.911   4.929   3.684
57293W        W21501  34.110  44.300  11.984
57294W        W21502  23.137  25.110   0.273
57295W        W21503  31.584  25.703  12.366
57296W        W21504  19.650   0.279  12.899
57297W        W21505  21.735   3.290   3.776
57298W        W21506  23.688   8.817   1.694
57299W        W21507  40.009  25.594   4.770
57300W        W21508   1.965   9.347  11.018
57301W        W21509  22.203  23.529  12.863
57302W        W21510  10.280   9.745  14.387
57303W        W21511  33.055  37.513   2.396
57304W        W21512   0.452  18.079   4.669
57305W        W21513  42.930  27.510   0.471
57306W        W21514  30.024  36.586   0.837
57307W        W21515   3.721  21.225  10.031
57308W        W21516  27.531  31.512   2.815
57309W        W21517   1.888  21.053   4.671
57310W        W21518  44.370   4.863   2.828
57311W        W21519  24.078  39.337   2.895
57312W        W21520   2.470  32.502  12.477
57313W        W21521   8.364   4.369   1.716
57314W        W21522  19.283  44.975   1.412
57315W        W21523  21.195  16.646  12.375
57316W        W21524  40.987   4.816   1.241
57317W        W21525  25.475  40.459  14.390
57318W        W21526  39.419  43.815   3.347
57319W        W21527  25.046  20.219   2.879
57320W        W21528  27.471  32.092  14.338
57321W        W21529  26.645   9.758   3.299
57322W        W21530  43.944   8.738   3.157
57323W        W21531  15.256  28.033  10.521
57324W        W21532  14.324  21.019   2.203
57325W        W21533  28.088  19.273   3.242
57326W        W21534  31.985  24.010   4.253
57327W        W21535  38.482  13.630  10.975
57328W        W21536  41.891  22.018   2.229
57329W        W21537  41.452  25.076   3.639
57330W        W21538  25.685  22.577  14.780
57331W        W21539  27.658  25.092  13.545
57332W        W21540   7.297   9.283   1.288
57333W        W21541   9.221  26.068  12.429
57334W        W21542  41.835  15.746   4.248
57335W        W21543  24.485  21.642  12.579
57336W        W21544  19.601  17.275  13.936
57337W        W21545  39.442  31.037   2.890
57338W        W21546  27.085  11.367   0.301
57339W        W21547   9.698  17.669   2.246
57340W        W21548  36.939  33.432  12.998
57341W        W21549   3.408  11.638  10.464
57342W        W21550   9.686  41.341   2.783
57343W        W21551   7.312  35.542   4.209
57344W        W21552  30.995  17.565  12.391
57345W        W21553   0.765  42.338   2.181
57346W        W21554   6.406  36.898   0.367
57347W        W21555  13.230  23.530  12.906
57348W        W21556  23.558  28.064  14.344
57349W        W21557  15.259  14.684  10.515
57350W        W21558  24.694  29.000  12.093
57351W        W21559   6.286  18.277  10.076
57352W        W21560   9.156  43.777  11.043
57353W        W21561  32.081  17.600   4.732
57354W        W21562  35.557   9.309   0.365
57355W        W21563   3.816  22.539  10.452
57356W        W21564  30.992  17.198   3.815
57357W        W21565   3.343  18.214   3.789
57358W        W21566  42.282  37.577   4.713
57359W        W21567  21.672  37.872   3.228
57360W        W21568   2.333  31.068  12.998
57361W        W21569   2.872  41.855   3.813
57362W        W21570   5.778  28.524  12.392
57363W        W21571  36.893  23.033  12.476
57364W        W21572  37.959   2.268  11.404
57365W        W21573  31.933   7.757  14.373
57366W        W21574  21.740   0.839  10.965
57367W        W21575   7.174  39.426  14.980
57368W        W21576   7.196  40.517  13.061
57369W        W21577   6.676   4.292  12.497
57370W        W21578  15.281  26.200  14.847
57371W        W21579  20.161  38.513  11.993
57372W        W21580  31.535  12.270  13.795
57373W        W21581  16.790  35.397  13.838
57374W        W21582  43.830   8.702   2.370
57375W        W21583   8.877  19.270   1.749
57376W        W21584  32.092  44.922   0.818
57377W        W21585  14.622  17.081   1.390
57378W        W21586  15.581  33.947   1.438
57379W        W21587  24.987  21.059   0.866
57380W        W21588  40.509   4.365  14.292
57381W        W21589   8.217  16.644   0.398
57382W        W21590   8.307   6.685   1.238
57383W        W21591   1.386  19.206  12.979
57384W        W21592  37.083  25.706  14.918
57385W        W21593  15.608  23.153  10.428
57386W        W21594  37.487  17.729   2.364
57387W        W21595  14.814  39.061  13.964
57388W        W21596  37.045  12.336  13.345
57389W        W21597  10.378   5.846  13.341
57390W        W21598  22.634  13.723  11.058
57391W        W21599  10.257   8.395  12.574
57392W        W21600  43.968   6.273  12.507
57393W        W21601  10.292   1.419  11.985
57394W        W21602  30.948   9.681  14.471
57395W        W21603  34.567  34.024   1.840
57396W        W21604   9.231  43.290  12.480
57397W        W21605  26.980  18.252   2.811
57398W        W21606  10.243  44.302  14.010
57399W        W21607  18.633  38.495  11.914
57400W        W21608  11.650   3.834   3.667
57401W        W21609  11.361   1.877   4.340
57402W        W21610  26.063  40.440   1.891
57403W        W21611  36.376   4.304   3.224
57404W        W21612  14.338  29.957  14.898
57405W        W21613  30.053   4.363  11.415
57406W        W21614  23.073  16.797   3.860
57407W        W21615  29.536  40.004   4.833
57408W        W21616  29.601  18.777  12.381
57409W        W21617  12.750  21.729  10.604
57410W        W21618  33.024  43.284  11.467
57411W        W21619  19.690   1.968  10.568
57412W        W21620  20.714  44.477  14.836
57413W        W21621   7.194  34.515  11.103
57414W        W21622  31.045  21.609  10.495
57415W        W21623  29.669  31.047  14.431
57416W        W21624   2.846  11.804   1.223
57417W        W21625  29.079  27.138  14.279
57418W        W21626   3.300  14.813  10.971
57419W        W21627  17.074  32.892  14.445
57420W        W21628  27.029   5.273  12.355
57421W        W21629  36.418  33.928   0.890
57422W        W21630   6.881  16.099  10.636
57423W        W21631  33.393  31.007  10.497
57424W        W21632  34.498   3.408  11.047
57425W        W21633   2.757  18.155   3.720
57426W        W21634   5.239  39.869   2.190
57427W        W21635   2.258   3.397   3.717
57428W        W21636  13.135  21.686   1.832
57429W        W21637   8.828  10.214  11.958
57430W        W21638   8.793   9.707   2.388
57431W        W21639  21.706  44.364   0.918
57432W        W21640  33.489   4.857   1.778
57433W        W21641  14.316  13.279   2.388
57434W        W21642  31.115  43.460  12.550
57435W        W21643  22.550  23.187   3.334
57436W        W21644  33.614  42.023  13.864
57437W        W21645   3.438  30.002   3.209
57438W        W21646   9.321   6.832   0.455
57439W        W21647  32.939  20.688   1.760
57440W        W21648  33.606  36.407  13.337
57441W        W21649  18.075  44.762   1.216
57442W        W21650  41.877   6.694  13.048
57443W        W21651  21.594  35.906   4.706
57444W        W21652   7.706  20.671   3.664
57445W        W21653  42.889  17.149   4.332
57446W        W21654  29.474  13.296   3.317
57447W        W21655  39.368   1.743   1.347
57448W        W21656   2.435   0.292  11.526
57449W        W21657  37.965  25.065  10.557
57450W        W21658  34.992  38.424   0.437
57451W        W21659  30.495  29.460   1.238
57452W        W21660  17.170  37.553  12.944
57453W        W21661  10.831   2.324  11.376
57454W        W21662   3.446  43.488  13.989
57455W        W21663  43.312  26.546  10.092
57456W        W21664  14.239  42.998  14.281
57457W        W21665  20.587  16.179  13.932
57458W        W21666  42.527  38.938  10.411
57459W        W21667  36.875  18.109   4.767
57460W        W21668   5.230  23.567  12.013
57461W        W21669   7.688   9.753   3.821
57462W        W21670   6.706   7.327  12.870
57463W        W21671   9.878   8.390   4.140
57464W        W21672  37.538  31.545  13.313
57465W        W21673  24.061  36.571   1.933
57466W        W21674  11.679  31.982   0.870
57467W        W21675   0.807  37.494   3.243
57468W        W21676  21.168  37.946   2.725
57469W        W21677  25.973   7.367   1.927
57470W        W21678  31.616  29.967   2.374
57471W        W21679  36.582   8.195  11.961
57472W        W21680  44.289  31.047  11.530
57473W        W21681  40.524   1.893  10.054
57474W        W21682   0.915  43.844   3.244
57475W        W21683  23.178   6.761  13.817
57476W        W21684  29.937   2.741  11.451
57477W        W21685   0.311  11.703   1.805
57478W        W21686  25.505   6.882   2.830
57479W        W21687  29.107   3.824  12.409
57480W        W21688  26.688   8.166  13.457
57481W        W21689  34.400  25.007   2.796
57482W        W21690  37.357  37.067  10.538
57483W        W21691  23.005  17.270   4.216
57484W        W21692  20.059   5.255   4.114
57485W        W21693  28.977  29.964  13.969
57486W        W21694   6.877  11.272   3.741
57487W        W21695  29.567  40.915   4.316
57488W        W21696  30.087  32.037  12.087
57489W        W21697   8.827   4.827   2.333
57490W        W21698  24.659   8.380  10.521
57491W        W21699   7.322  34.057   2.209
57492W        W21700  22.586   7.250  12.973
57493W        W21701  30.942  12.819  14.297
57494W        W21702  43.500  27.476   2.823
57495W        W21703  30.657  26.149  11.579
57496W        W21704   2.740  19.748  14.973
57497W        W21705  16.603  20.619   2.263
57498W        W21706  40.981  34.528  11.407
57499W        W21707  34.032   0.461   0.422
57500W        W21708  28.546  16.283   1.765
57501W        W21709  24.583   3.390   1.930
57502W        W21710  44.815  35.432   0.889
57503W        W21711  41.440  36.486   1.313
57504W        W21712  19.083  37.942   1.893
57505W        W21713  15.303   6.751  12.365
57506W        W21714   4.334  42.877   3.206
57507W        W21715  20.625   9.644  10.461
57508W        W21716  28.159  34.962  11.386
57509W        W21717   6.236  27.604  13.455
57510W        W21718   4.423  37.551  12.387
57511W        W21719   0.973  34.963  12.421
57512W        W21720   9.307   7.326  10.437
57513W        W21721  27.450  23.167  12.475
57514W        W21722  39.523   6.763   2.785
57515W        W21723  18.191  16.086  12.062
57516W        W21724  25.979   7.763   0.277
57517W        W21725  43.512  24.510   1.239
57518W        W21726   0.457  10.279   3.182
57519W        W21727   7.292  30.127  13.397
57520W        W21728  13.325   3.839  13.441
57521W        W21729  17.218  40.355  14.026
57522W        W21730  23.169  34.601  12.504
57523W        W21731   6.418  28.179  12.520
57524W        W21732  15.803  11.767   0.397
57525W        W21733  12.170  40.477   2.325
57526W        W21734  39.420  15.801   2.709
57527W        W21735  15.159  10.763   3.785
57528W        W21736  38.075  31.527   3.269
57529W        W21737  26.652  22.632  14.026
57530W        W21738   5.712   5.415   3.658
57531W        W21739  15.133  41.911   2.670
57532W        W21740   2.431   2.726   1.761
57533W        W21741   0.417  16.247   1.766
57534W        W21742   0.360  23.580   1.355
57535W        W21743  42.379  16.134   9.998
57536W        W21744  19.538  37.014  12.407
57537W        W21745  35.409   1.939  14.347
57538W        W21746  21.743  23.232   3.716
57539W        W21747  35.517  25.622  11.027
57540W        W21748  34.119  44.313  12.846
57541W        W21749  39.370  25.206   0.475
57542W        W21750  14.687  39.984   1.924
57543W        W21751  44.439  44.812   1.271
57544W        W21752   7.871  25.702  11.053
57545W        W21753  28.009  32.886  12.945
57546W        W21754   4.328  41.461   4.314
57547W        W21755  30.935  30.475   1.432
57548W        W21756  19.194  29.670  12.374
57549W        W21757  44.835  35.873   9.495
57550W        W21758  27.582   3.721   4.317
57551W        W21759  27.141  25.089  11.455
57552W        W21760  40.396  18.113  12.064
57553W        W21761   2.759  12.144  13.469
57554W        W21762  24.121  32.514  14.973
57555W        W21763  42.400  28.951   0.753
57556W        W21764  21.113   8.866   5.116
57557W        W21765   2.432  26.554  13.867
57558W        W21766  40.797  30.563   1.352
57559W        W21767  35.869  28.095   1.895
57560W        W21768  22.131  31.596  11.006
57561W        W21769  37.893   0.963  13.425
57562W        W21770  21.527   5.919   3.289
57563W        W21771  35.551   4.328  12.898
57564W        W21772  44.968  24.698   4.309
57565W        W21773   0.290   4.207   2.400
57566W        W21774   8.678  29.632   3.196
57567W        W21775   6.244   1.861   1.807
57568W        W21776  41.357   1.966   0.964
57569W        W21777  14.140  35.414   2.771
57570W        W21778  29.517  13.623   3.381
57571W        W21779  12.786  40.924   2.755
57572W        W21780  10.818  23.138   1.262
57573W        W21781  28.042  24.049  11.405
57574W        W21782  18.273  20.230   1.428
57575W        W21783  19.152   3.437  10.513
57576W        W21784  20.053   6.854   5.089
57577W        W21785  33.393  32.954   0.312
57578W        W21786  27.008   2.813   3.833
57579W        W21787  23.588  26.637   9.973
57580W        W21788  27.506  25.160  11.402
57581W        W21789  18.759  42.808  14.986
57582W        W21790  36.069  10.366   3.363
57583W        W21791  39.028  10.174   0.344
57584W        W21792  44.370  19.211   1.233
57585W        W21793   0.883  41.803  12.033
57586W        W21794  17.649  44.868   2.742
57587W        W21795   7.324  19.553   2.769
57588W        W21796  42.415  44.980   2.363
57589W        W21797  33.955   3.855   1.345
57590W        W21798   0.364   4.329  14.780
57591W        W21799  27.005  15.664   1.358
57592W        W21800  12.299  23.996   4.680
57593W        W21801  37.970  39.471  12.551
57594W        W21802  13.161  36.981  11.103
57595W        W21803  19.077  43.826  14.323
57596W        W21804  14.774  13.801   3.678
57597W        W21805  44.786  43.929  13.522
57598W        W21806  21.616   9.736   3.833
57599W        W21807   3.876  44.765  14.503
57600W        W21808  29.565  43.916  14.286
57601W        W21809  26.577  37.537   9.992
57602W        W21810  29.039  12.686   0.865
57603W        W21811  13.818  14.668   0.814
57604W        W21812   8.241  24.117   1.761
57605W        W21813   2.274  33.592  13.347
57606W        W21814  44.270  37.984   5.128
57607W        W21815  27.582  39.833  12.470
57608W        W21816  34.503  32.113  12.053
57609W        W21817  30.466  24.056   1.913
57610W        W21818  23.563   8.861   2.211
57611W        W21819  35.508  17.244  13.460
57612W        W21820   5.302   9.858   3.716
57613W        W21821  29.437   3.921   4.330
57614W        W21822  15.720  33.132  10.890
57615W        W21823  34.469  35.537   1.817
57616W        W21824  15.311  38.398  13.005
57617W        W21825   6.272  44.799   1.345
57618W        W21826  23.052  37.908   2.281
57619W        W21827  41.791   1.968   4.800
57620W        W21828   7.287   8.273   0.795
57621W        W21829  29.165  16.759  10.431
57622W        W21830   6.678  13.144   2.705
57623W        W21831  38.362  28.135  11.536
57624W        W21832   0.847  18.751  12.344
57625W        W21833   5.396  27.459   1.419
57626W        W21834   0.766   4.875   2.235
57627W        W21835  37.071  21.588   3.827
57628W        W21836  33.521  40.826  11.034
57629W        W21837  11.849  11.318   1.328
57630W        W21838  22.146  24.998   4.296
57631W        W21839  14.762  43.963  12.563
57632W        W21840   4.236  42.333   4.250
57633W        W21841   4.392   9.314   1.875
57634W        W21842   4.893  22.033  13.527
57635W        W21843  29.110  44.394  12.053
57636W        W21844  42.318   8.834   0.267
57637W        W21845  30.100   1.308   4.609
57638W        W21846  41.507   4.786   4.185
57639W        W21847  29.436  39.501   3.718
57640W        W21848  42.393  20.132   2.307
57641W        W21849  34.533  41.342   3.738
57642W        W21850  11.152  19.701   2.396
57643W        W21851  11.816   1.310  14.463
57644W        W21852  14.099  38.390  13.361
57645W        W21853  31.921  33.553   3.172
57646W        W21854  19.059  42.825  14.982
57647W        W21855  43.812  17.760  10.408
57648W        W21856   3.770  32.564  14.328
57649W        W21857  16.237  15.728  13.935
57650W        W21858  12.681  19.576   0.453
57651W        W21859   5.282  21.120  13.865
57652W        W21860  28.002  13.172  13.458
57653W        W21861  26.988  36.520   4.252
57654W        W21862  29.518  22.545  11.591
57655W        W21863  10.283  37.067  12.912
57656W        W21864  19.127  14.137   4.157
57657W        W21865  36.922  22.213  14.333
57658W        W21866   3.776  19.240  10.465
57659W        W21867  13.168   7.748   1.893
57660W        W21868  38.065  36.946   4.233
57661W        W21869   2.430  43.791  13.411
57662W        W21870  32.921  26.702   2.802
57663W        W21871  40.836   3.301  14.813
57664W        W21872  20.052  38.459  13.521
57665W        W21873  42.992  26.601  10.005
57666W        W21874  14.233  35.968  11.911
57667W        W21875  23.559  37.540   0.769
57668W        W21876  31.995  25.057   3.292
57669W        W21877  17.130  34.508  14.387
57670W        W21878   7.746   8.695  11.119
57671W        W21879  19.702  11.641  11.915
57672W        W21880  33.621  41.840   1.889
57673W        W21881  41.298  44.929  14.828
57674W        W21882  28.040  28.118   2.339
57675W        W21883  12.855  39.863   1.353
57676W        W21884  34.413  40.501  11.448
57677W        W21885  25.188  36.095  13.439
57678W        W21886  35.560  14.211  10.505
57679W        W21887  28.986  44.957   3.806
57680W        W21888   6.243   3.309  14.346
57681W        W21889  37.832  43.465   4.814
57682W        W21890  31.479  10.771   1.319
57683W        W21891   8.707   5.846  12.357
57684W        W21892  27.095  33.402  11.889
57685W        W21893  38.062   3.817   0.475
57686W        W21894  12.128  39.485  13.456
57687W        W21895  33.442   6.198   3.180
57688W        W21896  27.027   6.864   3.847
57689W        W21897  35.401  32.423  14.428
57690W        W21898  40.858  16.768  13.809
57691W        W21899  19.772  21.700   1.899
57692W        W21900  28.075  16.117  13.545
57693W        W21901  19.644  40.832  13.882
57694W        W21902   2.440  24.693   2.865
57695W        W21903  37.076  31.968  12.524
57696W        W21904   4.894  29.097  10.615
57697W        W21905   0.837  36.407   9.981
57698W        W21906  11.740  30.046   0.771
57699W        W21907  16.292  19.270   4.729
57700W        W21908  11.314  12.734   0.335
57701W        W21909  24.121  16.165   2.802
57702W        W21910   1.362   8.223   0.297
57703W        W21911  20.598  28.561   2.254
57704W        W21912  43.511  41.805   3.743
57705W        W21913   3.768   3.853   9.993
57706W        W21914  29.093  14.199  13.532
57707W        W21915  14.332  15.746  10.979
57708W        W21916  39.825  21.209   9.947
57709W        W21917   2.381  31.507   9.625
57710W        W21918   0.261  44.922  12.392
57711W        W21919  33.381   3.910  14.975
57712W        W21920  39.454  39.009   3.710
57713W        W21921  37.357  42.971   2.805
57714W        W21922   2.368  25.479   1.809
57715W        W21923  15.310   3.243   3.764
57716W        W21924  34.934  12.269  11.957
57717W        W21925  10.225  31.012   3.355
57718W        W21926  16.683  24.017  14.870
57719W        W21927   5.213   5.906  11.579
57720W        W21928   0.252  23.602   3.635
57721W        W21929  18.098  44.296   3.365
57722W        W21930  23.151   7.286  13.013
57723W        W21931  15.289  40.437   0.861
57724W        W21932  29.652  23.673   5.086
57725W        W21933  14.289  28.009   3.709
57726W        W21934  35.460  37.348   3.783
57727W        W21935  38.996  20.254  11.557
57728W        W21936  26.542  35.495  13.318
57729W        W21937  29.563  23.054  13.036
57730W        W21938  17.770  35.002   1.929
57731W        W21939  37.865  30.947   0.797
57732W        W21940  36.534  21.127   4.636
57733W        W21941  35.363  28.675   3.210
57734W        W21942  15.688  28.633   1.409
57735W        W21943  27.624  26.178   4.195
57736W        W21944  36.383  20.089  10.438
57737W        W21945  16.190   2.934   0.843
57738W        W21946  10.869  20.270  11.860
57739W        W21947   2.936   6.299   3.828
57740W        W21948  41.014  15.133   0.335
57741W        W21949  23.601  26.493  11.965
57742W        W21950   7.367   3.861   0.294
57743W        W21951  24.183  33.470   2.883
57744W        W21952  32.617  28.596   1.797
57745W        W21953   4.724   9.393   4.725
57746W        W21954   0.303  27.513   2.878
57747W        W21955  23.005  34.931   2.855
57748W        W21956  15.760  31.410   1.220
57749W        W21957  11.171  34.058   4.149
57750W        W21958  27.063  20.088   2.257
57751W        W21959  20.119  44.789   3.161
57752W        W21960  36.351  15.642   3.778
57753W        W21961  24.572  32.606  12.883
57754W        W21962   2.282   8.748  12.974
57755W        W21963  42.522   2.315  11.034
57756W        W21964  17.752  14.792  13.397
57757W        W21965  23.627   7.801   0.407
57758W        W21966  22.148  27.178   3.292
57759W        W21967  21.241  42.498   3.165
57760W        W21968   2.420  27.147  11.864
57761W        W21969  30.421  35.853  13.323
57762W        W21970  32.569  11.339   3.265
57763W        W21971  36.423  23.580  14.339
57764W        W21972   5.284  42.452  10.568
57765W        W21973   7.380  42.939   1.765
57766W        W21974  23.213  42.865   4.309
57767W        W21975   0.349  25.127  13.000
57768W        W21976  22.725  18.679   5.243
57769W        W21977  17.122  40.497  10.621
57770W        W21978  20.233   3.242  14.456
57771W        W21979  17.245  25.108   1.355
57772W        W21980  20.761   9.692   0.275
57773W        W21981  10.199  18.113   3.241
57774W        W21982  19.602  38.373   5.739
57775W        W21983  28.496   9.650   2.845
57776W        W21984  24.525  12.855   0.459
57777W        W21985  15.782  23.192   4.628
57778W        W21986  14.235   5.226  11.978
57779W        W21987  40.950  41.394  11.992
57780W        W21988   3.401  35.055  11.392
57781W        W21989   4.725  26.137   1.781
57782W        W21990   7.220  35.572   4.753
57783W        W21991  10.174  34.097   4.312
57784W        W21992   3.816  10.280  12.024
57785W        W21993  12.116  16.797   2.335
57786W        W21994  42.991   5.731  13.396
57787W        W21995  24.066  42.828   4.158
57788W        W21996  25.525  27.152   0.284
57789W        W21997  44.289  14.757   1.794
57790W        W21998   9.709   9.281   4.620
57791W        W21999  25.596  16.579   0.957
57792W        W22000  39.930   4.245  10.151
57793W        W22001  39.517  26.609  14.350
57794W        W22002   4.821  15.604  13.909
57795W        W22003  32.004  30.458  14.956
57796W        W22004   9.318   0.345   1.296
57797W        W22005   5.735  31.553   1.385
57798W        W22006  16.158  19.256  11.863
57799W        W22007   9.699  21.716  13.854
57800W        W22008   6.209   1.279  11.985
57801W        W22009  38.003  34.555   2.900
57802W        W22010  27.113   5.354   1.261
57803W        W22011  16.250  23.078  13.829
57804W        W22012  16.138  42.299  12.451
57805W        W22013  42.891  21.514  12.496
57806W        W22014  24.112  37.908   2.723
57807W        W22015   3.240   6.854   4.291
57808W        W22016  30.524  33.510   3.258
57809W        W22017  24.135  28.140   0.388
57810W        W22018   4.284  27.038  12.475
57811W        W22019  31.642  17.625  14.810
57812W        W22020  22.567  35.373  10.543
57813W        W22021  39.880  15.233  14.392
57814W        W22022  11.159  19.269   4.615
57815W        W22023   0.957  19.144  12.466
57816W        W22024   0.297  15.704  12.908
57817W        W22025  12.787   1.771   2.224
57818W        W22026   4.268  37.831   0.943
57819W        W22027  41.941  26.567   3.265
57820W        W22028  12.709   8.782   1.214
57821W        W22029  12.318  27.170   3.635
57822W        W22030  30.095   4.260   1.849
57823W        W22031   9.216  27.961   2.249
57824W        W22032  36.935  18.556  14.317
57825W        W22033  24.168  30.030   3.747
57826W        W22034  10.688   2.871  12.501
57827W        W22035  10.778  36.563  11.604
57828W        W22036  14.719  22.169   1.269
57829W        W22037   9.878  44.843   2.788
57830W        W22038  42.001  42.304   1.717
57831W        W22039  35.408  19.152   1.878
57832W        W22040   7.767   4.273   4.684
57833W        W22041  26.184  20.047   4.276
57834W        W22042   2.418  33.049  14.819
57835W        W22043   9.784  14.669   0.923
57836W        W22044  10.772  23.734  10.541
57837W        W22045  33.458  35.032   2.224
57838W        W22046  43.834  30.916   2.195
57839W        W22047   1.815  10.147  14.971
57840W        W22048  32.624  14.271  10.894
57841W        W22049  35.905  23.029   0.322
57842W        W22050  44.444  21.637   1.434
57843W        W22051  17.098   3.360   9.961
57844W        W22052  39.828  37.361  10.137
57845W        W22053  41.799   9.828   1.893
57846W        W22054   3.371  10.140   4.286
57847W        W22055  12.685  17.228   0.306
57848W        W22056  37.880  18.133   2.815
57849W        W22057  38.011  15.726  12.567
57850W        W22058  16.733  36.992  14.962
57851W        W22059  40.887  21.672   9.657
57852W        W22060  37.424  29.573   0.473
57853W        W22061  14.592  41.945   4.349
57854W        W22062  12.238  19.167   1.748
57855W        W22063  31.640   7.266  13.937
57856W        W22064   2.228  17.613  13.524
57857W        W22065  15.327   0.758  14.459
57858W        W22066  39.417   7.384  10.457
57859W        W22067  18.050   9.875   2.842
57860W        W22068   3.440   4.866  13.542
57861W        W22069  11.764  14.247  10.915
57862W        W22070  22.699  10.346  11.502
57863W        W22071  15.303  34.590  14.910
57864W        W22072  40.410  35.096   3.811
57865W        W22073  33.001  17.771   2.741
57866W        W22074  37.403  29.605  13.477
57867W        W22075   7.714   4.441  12.925
57868W        W22076  30.552  22.240  11.439
57869W        W22077   3.276  24.496   0.371
57870W        W22078  31.928  28.118   2.773
57871W        W22079  31.469  40.471   4.701
57872W        W22080   4.828  44.893   2.854
57873W        W22081  38.835  27.976  13.505
57874W        W22082  10.674   2.291   1.826
57875W        W22083  11.308  18.178  12.357
57876W        W22084  16.772  27.452  13.316
57877W        W22085  24.977  25.146   1.889
57878W        W22086  41.019   9.379   4.208
57879W        W22087  24.571  14.807   1.273
57880W        W22088  10.138  16.216  13.392
57881W        W22089  15.220  38.012  10.589
57882W        W22090  16.651   7.352   0.783
57883W        W22091  34.417  34.396  11.930
57884W        W22092  17.613  26.550   3.793
57885W        W22093   6.350  22.011   1.334
57886W        W22094  44.335  14.142  11.371
57887W        W22095   9.836  18.152  13.016
57888W        W22096  10.727  21.724  14.329
57889W        W22097  41.366  30.067  14.291
57890W        W22098  39.006  21.605  13.355
57891W        W22099  35.890  24.540   1.220
57892W        W22100  29.598  37.921   4.770
57893W        W22101  22.666  27.977  14.936
57894W        W22102  13.282  23.594   1.858
57895W        W22103   2.355  17.305   2.872
57896W        W22104  18.625  14.219   3.177
57897W        W22105  43.433   8.759   2.737
57898W        W22106  33.408  39.361   3.312
57899W        W22107   0.914  36.482  14.338
57900W        W22108   1.475  36.433   4.827
57901W        W22109  32.001  10.856  13.504
57902W        W22110   9.831  20.695  13.795
57903W        W22111  19.641  35.019  12.962
57904W        W22112   8.270  34.893  14.964
57905W        W22113  25.031   5.292  14.811
57906W        W22114  10.274   8.883  10.970
57907W        W22115  12.624  27.511   3.648
57908W        W22116  33.507  25.087   1.443
57909W        W22117  35.385  22.627   0.917
57910W        W22118  23.061  29.945  12.931
57911W        W22119  24.603  44.796  13.393
57912W        W22120  21.112  20.761   4.187
57913W        W22121  18.219  16.272   4.333
57914W        W22122  42.895  37.994   0.780
57915W        W22123  34.997  18.767   0.891
57916W        W22124  24.222  38.378  14.500
57917W        W22125  20.175   6.899  12.401
57918W        W22126   9.314  22.210   4.224
57919W        W22127  10.694  40.525  14.914
57920W        W22128  42.518   5.702  12.573
57921W        W22129  37.446   0.490  14.966
57922W        W22130  13.324  27.986   2.737
57923W        W22131  32.933  18.665   3.705
57924W        W22132  43.916   8.840   1.303
57925W        W22133  15.160  35.544   1.254
57926W        W22134  42.446  42.893   2.823
57927W        W22135  19.569  13.799   1.285
57928W        W22136  40.303  12.769   2.386
57929W        W22137  30.970  19.225   0.482
57930W        W22138  21.065  17.622  11.887
57931W        W22139   1.472  26.976   2.308
57932W        W22140  44.923   9.171   1.758
57933W        W22141  13.801  44.465  11.449
57934W        W22142   2.298   7.843   0.457
57935W        W22143  32.573  24.563   1.932
57936W        W22144  29.556  39.939   2.401
57937W        W22145  10.822   9.797   3.768
57938W        W22146  36.075  40.492   3.235
57939W        W22147  31.953   4.308  13.910
57940W        W22148  23.509   2.295   1.748
57941W        W22149  32.419  29.548  10.897
57942W        W22150   8.185  41.974  11.506
57943W        W22151  43.331  22.223  12.016
57944W        W22152   2.400  15.605  10.628
57945W        W22153  19.040  34.990   1.836
57946W        W22154  44.940  19.122  12.423
57947W        W22155  38.338  20.595   1.713
57948W        W22156  25.192  31.105  12.347
57949W        W22157  22.052   7.665  13.914
57950W        W22158  25.673  30.554   0.422
57951W        W22159  31.134  43.271  11.026
57952W        W22160  17.706  42.430  11.124
57953W        W22161  15.226  34.913   0.960
57954W        W22162  39.820  14.272   1.285
57955W        W22163  32.015   4.319   2.800
57956W        W22164  18.554   5.839   5.740
57957W        W22165   7.849  34.081  12.422
57958W        W22166  38.836  35.975  10.486
57959W        W22167  26.481  27.072  13.409
57960W        W22168  22.506  24.044   0.741
57961W        W22169  20.224  37.052  14.475
57962W        W22170  32.403  23.636   1.213
57963W        W22171  20.559  35.901   2.226
57964W        W22172  18.274   7.681  13.526
57965W        W22173  16.075  28.643  13.799
57966W        W22174  44.889  42.840  10.458
57967W        W22175  33.418  18.055  10.439
57968W        W22176  21.244  44.840  11.881
57969W        W22177  20.598  40.025  13.545
57970W        W22178  16.694   7.796   0.786
57971W        W22179  33.620   7.247   3.828
57972W        W22180  31.126   1.767   0.460
57973W        W22181  21.206  28.528  13.001
57974W        W22182  36.537  44.956  11.570
57975W        W22183  18.209  25.485   4.623
57976W        W22184   0.838  25.153  13.015
57977W        W22185  17.782  21.064   2.297
57978W        W22186   2.962  22.114  11.479
57979W        W22187  37.508  14.793   4.790
57980W        W22188  34.112   3.783   0.479
57981W        W22189  25.635  41.327   2.768
57982W        W22190  44.367  23.138   4.277
57983W        W22191  24.005  44.995   0.746
57984W        W22192  14.823  37.400  11.544
57985W        W22193   4.236  33.880  12.428
57986W        W22194  31.031  35.468  10.416
57987W        W22195  42.852  29.057  13.899
57988W        W22196  40.524  31.965   1.803
57989W        W22197  17.092   2.228  10.568
57990W        W22198  19.181   6.748   0.352
57991W        W22199  39.560  24.217  11.985
57992W        W22200  42.973  18.144  14.306
57993W        W22201   3.304  32.483   0.292
57994W        W22202  44.756   8.182  12.555
57995W        W22203  39.399   5.780  13.384
57996W        W22204  35.367  33.425   1.316
57997W        W22205  32.634  23.040   4.800
57998W        W22206   2.432  33.395   1.865
57999W        W22207  43.823  31.454  12.386
58000W        W22208  27.528  29.557   0.909
58001W        W22209  24.987  40.904  12.924
58002W        W22210  25.615  39.347  10.584
58003W        W22211   9.849  27.997   3.349
58004W        W22212   3.949   6.756   3.172
58005W        W22213  21.033  31.553   2.841
58006W        W22214  29.081   5.403   0.343
58007W        W22215  16.802  27.509   4.610
58008W        W22216  15.808   9.193   1.803
58009W        W22217  41.814  38.028   4.248
58010W        W22218  10.720   5.852   2.297
58011W        W22219  18.164  16.676  14.763
58012W        W22220  42.938  17.214  10.607
58013W        W22221  15.273  37.555   1.769
58014W        W22222   8.334  10.224   4.301
58015W        W22223  15.820  44.931  13.531
58016W        W22224  39.881   7.330  10.544
58017W        W22225   8.201  43.935   0.445
58018W        W22226  31.545  33.902  10.464
58019W        W22227  43.334  18.120   2.785
58020W        W22228  17.303  14.205   3.781
58021W        W22229  19.626  43.808   3.245
58022W        W22230  21.171  14.244  12.560
58023W        W22231   5.737  16.673   4.621
58024W        W22232  17.596  28.436  12.927
58025W        W22233  42.832  36.886  11.458
58026W        W22234  11.832  21.149  13.854
58027W        W22235  26.971  20.144   4.182
58028W        W22236  17.081  39.857   5.301
58029W        W22237  12.249  30.062  13.442
58030W        W22238  22.685  13.113  13.793
58031W        W22239  31.615  30.658   0.945
58032W        W22240  12.285  36.095  13.401
58033W        W22241  15.176  41.823   3.304
58034W        W22242  38.056   0.426   3.269
58035W        W22243  30.986   8.736  13.842
58036W        W22244  24.683  32.398   1.355
58037W        W22245  26.461  19.095   3.853
58038W        W22246  13.195  11.316  10.497
58039W        W22247  14.254   6.901  13.461
58040W        W22248   9.308  36.588  13.443
58041W        W22249   7.188  25.701  12.877
58042W        W22250  22.157   7.367   0.930
58043W        W22251   7.261  23.707  11.508
58044W        W22252   8.706  17.766  11.420
58045W        W22253  33.082  27.502   2.409
58046W        W22254   4.739  17.666   4.644
58047W        W22255  16.778   5.383   4.767
58048W        W22256  38.477  41.517   0.251
58049W        W22257  25.112  18.572   4.608
58050W        W22258   7.208   4.857   2.670
58051W        W22259  34.031  31.429  12.580
58052W        W22260   2.425  33.941   0.259
58053W        W22261   1.823   5.877   4.675
58054W        W22262  36.038  10.363  13.852
58055W        W22263  16.307  20.073   2.827
58056W        W22264  26.000  32.553   3.847
58057W        W22265  24.683  43.830   1.919
58058W        W22266  15.230  14.634  14.448
58059W        W22267  14.302  41.319  12.346
58060W        W22268  21.686  21.678   2.240
58061W        W22269  17.157  41.000   2.415
58062W        W22270   6.280  29.966   0.254
58063W        W22271  19.173  32.972  12.094
58064W        W22272  17.088   3.286   5.266
58065W        W22273  20.701  12.695  14.778
58066W        W22274  17.082   5.194   4.638
58067W        W22275  15.184   5.933   4.606
58068W        W22276  16.075  30.920  10.477
58069W        W22277  38.520  32.096  12.368
58070W        W22278  37.418  21.733   3.690
58071W        W22279  44.815  41.970   0.869
58072W        W22280   4.399  36.489  12.431
58073W        W22281  29.653  23.677   4.198
58074W        W22282  11.171   9.291   3.236
58075W        W22283  15.718  40.911  11.860
58076W        W22284  28.993  43.505   0.798
58077W        W22285  43.308  41.455   2.704
58078W        W22286  41.453   8.729  13.322
58079W        W22287  16.239  35.949   3.375
58080W        W22288   0.748  19.079  12.965
58081W        W22289  27.447   0.931  14.444
58082W        W22290  32.949  43.478   1.364
58083W        W22291  44.877  19.053  11.585
58084W        W22292   1.329  31.423   4.692
58085W        W22293  27.515  13.601   0.750
58086W        W22294  31.515  23.128   3.702
58087W        W22295  33.402   1.469  10.889
58088W        W22296  23.718  18.583   1.357
58089W        W22297  39.390   9.168  10.542
58090W        W22298  34.917   6.415   3.363
58091W        W22299  11.259  11.369   0.443
58092W        W22300   1.262  13.211   2.678
58093W        W22301  20.751  39.529  13.455
58094W        W22302  12.320   9.365  14.869
58095W        W22303  26.555  12.325   3.219
58096W        W22304  25.675  41.924   4.807
58097W        W22305  39.497  43.888  13.944
58098W        W22306  28.464  30.154  14.403
58099W        W22307   2.276  22.657  13.384
58100W        W22308   3.245  13.184   4.743
58101W        W22309  33.975  33.022   3.196
58102W        W22310  31.573  29.110   1.929
58103W        W22311  29.552  25.965  14.762
58104W        W22312   7.350   7.671   3.355
58105W        W22313  11.667   7.731  10.576
58106W        W22314  40.387  28.462   1.344
58107W        W22315   5.904  44.364  11.500
58108W        W22316   1.316  30.980   1.852
58109W        W22317  23.558  12.792  12.877
58110W        W22318  37.867  29.587  13.474
58111W        W22319   9.828  38.874  14.986
58112W        W22320   9.184  34.370   3.726
58113W        W22321  43.343  10.826  14.770
58114W        W22322   4.364  14.331   2.723
58115W        W22323  44.355  25.148  12.993
58116W        W22324  20.615  41.875   2.277
58117W        W22325   5.334  15.160  10.960
58118W        W22326  10.858  20.609  13.507
58119W        W22327  13.793  35.569   2.736
58120W        W22328  36.882  37.002   4.163
58121W        W22329  11.752   4.361  11.123
58122W        W22330   5.903  11.774  13.010
58123W        W22331  33.050  11.784   1.371
58124W        W22332  44.351  25.131   4.122
58125W        W22333   9.851   7.408  14.939
58126W        W22334  24.558  26.460   0.383
58127W        W22335  18.594  22.116  11.936
58128W        W22336  30.983   0.799  11.411
58129W        W22337  42.849   3.420   2.321
58130W        W22338  13.336   1.905  14.367
58131W        W22339  14.825  12.271   1.242
58132W        W22340  12.713  39.834   0.249
58133W        W22341  35.570  23.117  14.475
58134W        W22342  14.784  15.694   4.782
58135W        W22343  36.022  28.635  10.552
58136W        W22344   9.350   8.345   3.305
58137W        W22345   0.356  14.635  13.887
58138W        W22346  20.570   9.236  12.022
58139W        W22347  44.279   6.306  13.861
58140W        W22348  14.606  15.655   5.148
58141W        W22349  34.559  34.924   0.861
58142W        W22350  11.840  36.947  13.813
58143W        W22351  34.602  43.488   3.286
58144W        W22352   0.263  29.558   1.727
58145W        W22353  34.020   7.327   3.754
58146W        W22354   2.781  42.498  11.557
58147W        W22355  43.935  35.475   2.384
58148W        W22356  38.057  42.482  12.561
58149W        W22357  29.070  38.456   1.434
58150W        W22358  38.827   5.298   2.206
58151W        W22359  43.382   8.174  14.031
58152W        W22360  12.195   2.792   2.341
58153W        W22361  25.472   8.220   4.838
58154W        W22362   1.842  10.173  12.355
58155W        W22363  32.923  33.943   4.155
58156W        W22364   1.757  28.096   4.801
58157W        W22365   7.367   6.689   2.300
58158W        W22366  31.555  13.838   3.643
58159W        W22367   1.736  17.722  14.909
58160W        W22368   6.184  20.266   0.286
58161W        W22369   7.261  43.271   0.898
58162W        W22370  11.652  17.156  10.072
58163W        W22371  44.953  38.325  10.603
58164W        W22372  38.335  25.647   0.362
58165W        W22373  33.461  22.102   3.352
58166W        W22374   0.846   6.189  14.301
58167W        W22375   6.233  24.609   3.191
58168W        W22376  23.730  20.218  13.387
58169W        W22377  38.337  19.612   4.272
58170W        W22378  44.936   8.873  14.845
58171W        W22379  11.847   2.743   4.696
58172W        W22380  34.475  28.575   4.740
58173W        W22381  12.116   1.772   4.727
58174W        W22382  34.558  21.580  10.642
58175W        W22383  36.469  22.095   2.848
58176W        W22384  17.606  21.075  14.292
58177W        W22385  39.953   0.874   3.719
58178W        W22386  11.629  28.055   3.826
58179W        W22387  14.759  14.638   4.152
58180W        W22388   9.274  35.987   2.859
58181W        W22389  11.233   4.760  12.962
58182W        W22390  44.291   3.220   5.234
58183W        W22391   1.295  27.115   0.914
58184W        W22392  28.028  43.403  14.854
58185W        W22393  29.090   9.156  10.890
58186W        W22394  44.326  13.677   3.238
58187W        W22395  14.284  29.588   0.476
58188W        W22396  24.669   4.288  13.411
58189W        W22397  12.825  10.702  13.874
58190W        W22398  16.085   4.407   4.683
58191W        W22399  15.700  12.167  13.437
58192W        W22400   3.415  16.201  13.916
58193W        W22401   3.419   5.399   1.386
58194W        W22402  28.177  36.975   3.658
58195W        W22403  30.135  25.704  12.944
58196W        W22404   6.880  25.963   4.227
58197W        W22405  16.213  32.899  14.765
58198W        W22406  13.718  20.148   3.756
58199W        W22407  14.768  21.050   4.823
58200W        W22408  16.258  34.073   2.889
58201W        W22409  42.923   2.349   3.796
58202W        W22410  23.150  44.935  10.895
58203W        W22411  39.877  30.007  14.997
58204W        W22412  13.702  17.784   4.599
58205W        W22413   8.858  13.178  11.869
58206W        W22414  38.450  37.933  12.364
58207W        W22415   0.359  32.592  13.411
58208W        W22416  28.969  39.558   3.733
58209W        W22417  32.068  35.412   1.848
58210W        W22418  23.099  32.042   4.115
58211W        W22419  14.282  16.632  10.892
58212W        W22420  17.794   7.361   4.761
58213W        W22421  15.239   0.290  12.928
58214W        W22422  38.032  18.789  10.470
58215W        W22423  44.890  33.394   3.205
58216W        W22424   0.464  25.176   4.611
58217W        W22425  26.465  16.749  12.364
58218W        W22426  29.509  12.126   2.818
58219W        W22427  21.739  36.390   1.711
58220W        W22428  17.736   4.253   0.448
58221W        W22429   3.928   9.823  12.937
58222W        W22430  44.270  36.510   1.850
58223W        W22431  10.165  43.842  12.570
58224W        W22432  15.216  39.919   0.456
58225W        W22433   7.323  39.421  11.877
58226W        W22434  17.615   7.674  12.444
58227W        W22435  24.186  26.569  13.469
58228W        W22436  29.026  35.917   0.953
58229W        W22437  40.809  18.229  14.875
58230W        W22438  27.188   8.267  11.481
58231W        W22439  44.372  37.403   2.203
58232W        W22440  25.639  36.480  13.884
58233W        W22441  11.781  26.633  13.899
58234W        W22442  29.018  11.157   0.939
58235W        W22443   3.765  39.544  14.398
58236W        W22444  33.546  10.839   1.934
58237W        W22445   7.691  39.370   0.349
58238W        W22446  42.950  36.359   0.421
58239W        W22447  12.132  20.608   2.765
58240W        W22448  36.932   1.942   4.681
58241W        W22449   2.867  42.826  10.041
58242W        W22450  17.273   6.296   3.368
58243W        W22451  20.251  38.018  11.973
58244W        W22452  35.363  41.957   0.892
58245W        W22453  43.950  44.383  14.440
58246W        W22454  13.816  11.195   0.364
58247W        W22455  30.016  37.398   9.999
58248W        W22456  34.016  26.072  13.495
58249W        W22457   8.249  16.615  10.933
58250W        W22458  21.561   9.389  14.499
58251W        W22459  35.364  12.746  11.416
58252W        W22460  17.703  12.351  12.906
58253W        W22461   5.400  12.720   1.743
58254W        W22462  34.390  25.209  11.950
58255W        W22463  21.119   9.697  13.375
58256W        W22464  20.527  18.148   9.465
58257W        W22465  43.821  44.351   3.266
58258W        W22466   3.787  26.146  13.796
58259W        W22467  37.483  37.582   2.226
58260W        W22468   3.245  41.393  11.098
58261W        W22469  27.580  27.507   2.304
58262W        W22470  41.983  31.469   4.643
58263W        W22471   7.888   4.888   0.360
58264W        W22472   9.798   2.743  11.988
58265W        W22473  10.733  29.063  11.949
58266W        W22474  36.423  14.708  14.925
58267W        W22475  37.996   6.255   2.716
58268W        W22476  31.590   8.864   4.220
58269W        W22477   1.325  36.471   2.305
58270W        W22478   8.387  10.298  11.967
58271W        W22479  33.496   1.791   1.899
58272W        W22480  19.745   8.821   0.907
58273W        W22481  33.535   4.826  13.951
58274W        W22482  43.408  41.406  11.058
58275W        W22483  44.853  20.114  10.433
58276W        W22484  23.021  10.168  13.410
58277W        W22485  29.520  19.268  13.009
58278W        W22486   4.857   7.737   3.166
58279W        W22487   5.866  27.515   1.294
58280W        W22488  30.430  44.404   2.890
58281W        W22489  32.925  19.045  12.015
58282W        W22490  26.615  35.571   3.711
58283W        W22491   1.465  14.110   3.736
58284W        W22492  18.603  27.137   3.846
58285W        W22493   0.402  26.534  10.980
58286W        W22494  31.946  33.046  14.006
58287W        W22495  42.419  14.592   3.763
58288W        W22496  35.484  23.690  12.479
58289W        W22497  33.013   6.400  12.529
58290W        W22498  28.929   6.741   3.655
58291W        W22499  40.444  24.016   2.709
58292W        W22500   6.240  38.492   0.386
58293W        W22501   7.262  22.221   1.724
58294W        W22502   7.186  24.109   2.248
58295W        W22503  16.157  37.964   0.344
58296W        W22504  26.631  16.179  11.052
58297W        W22505  22.251   4.884   0.305
58298W        W22506  14.162   3.454   0.409
58299W        W22507  36.509  11.774   3.316
58300W        W22508  12.718   2.266  11.499
58301W        W22509  26.513  20.674   0.419
58302W        W22510  38.425  10.801  13.039
58303W        W22511  32.408  22.229   0.830
58304W        W22512  43.914  12.673  13.408
58305W        W22513  23.049  41.878  14.289
58306W        W22514  13.205  20.163   3.752
58307W        W22515   7.798  19.103   1.722
58308W        W22516   5.926  25.137   2.181
58309W        W22517  36.480  43.809   0.326
58310W        W22518  39.559  41.483  14.003
58311W        W22519  34.880  41.982   4.300
58312W        W22520   8.749  22.097  10.527
58313W        W22521  43.880   1.767   1.320
58314W        W22522  28.062  43.002   3.290
58315W        W22523  17.207   5.361  14.973
58316W        W22524  16.669  30.934   3.818
58317W        W22525  36.875  36.351  10.482
58318W        W22526  20.066  13.697  12.473
58319W        W22527  17.093  12.811   1.728
58320W        W22528  42.433  33.920   4.346
58321W        W22529  10.322  16.309   4.601
58322W        W22530  15.765  11.186  12.938
58323W        W22531  43.367  34.548  14.476
58324W        W22532  38.929  34.567  13.037
58325W        W22533  20.613  11.708  10.905
58326W        W22534  25.985   5.396   2.219
58327W        W22535  16.730  40.998  11.428
58328W        W22536  19.734  37.851   3.187
58329W        W22537  34.921  11.788  10.014
58330W        W22538  29.068   7.356  12.458
58331W        W22539  18.777  36.417   3.647
58332W        W22540  11.265   6.406  12.957
58333W        W22541  20.259  17.798   2.778
58334W        W22542  29.558  30.616   5.120
58335W        W22543  26.621  30.100   1.447
58336W        W22544  19.278   0.284  12.902
58337W        W22545  43.470  14.217   4.156
58338W        W22546  28.665  39.997  13.013
58339W        W22547  27.957   8.824  14.300
58340W        W22548  41.534  26.528   1.250
58341W        W22549  28.556   9.337   2.853
58342W        W22550   6.386  11.744  10.563
58343W        W22551  17.265  39.953  11.966
58344W        W22552  39.906  20.545  10.584
58345W        W22553  16.769  18.099  11.114
58346W        W22554  20.656  29.467   4.218
58347W        W22555  17.618  33.913  14.794
58348W        W22556  16.187  30.640   1.796
58349W        W22557   2.275  25.556   0.266
58350W        W22558  23.588  19.608   1.822
58351W        W22559  36.052  38.843   0.777
58352W        W22560  32.431  18.258  11.413
58353W        W22561  34.964  36.494  12.351
58354W        W22562   4.846   3.793  12.430
58355W        W22563  41.353  37.950  10.490
58356W        W22564   4.397  12.626  12.460
58357W        W22565  33.588  35.965  10.984
58358W        W22566   5.843  21.253  13.814
58359W        W22567  37.043   0.276  13.378
58360W        W22568  41.924  23.064  11.096
58361W        W22569  33.391  24.075  10.476
58362W        W22570  24.012   0.382   0.399
58363W        W22571  25.205   9.753  13.410
58364W        W22572  27.108  20.679  11.483
58365W        W22573  40.855   2.900   3.287
58366W        W22574  20.164  18.659  12.010
58367W        W22575   5.363  35.955  14.872
58368W        W22576  41.800  30.921  12.559
58369W        W22577  31.095  27.968  12.464
58370W        W22578  42.789  10.383  13.850
58371W        W22579   6.357  24.648   1.228
58372W        W22580  14.272   3.784   2.807
58373W        W22581  44.972   3.442   3.365
58374W        W22582  20.131  27.457  13.519
58375W        W22583   7.362   3.911  13.514
58376W        W22584  28.046  39.896  10.040
58377W        W22585   7.332  42.934   4.304
58378W        W22586   6.255  39.862   0.940
58379W        W22587  40.898  34.973  12.016
58380W        W22588   2.778   8.184  14.313
58381W        W22589  31.120  24.663  10.453
58382W        W22590  21.098  22.546  12.512
58383W        W22591  38.927  29.965  14.455
58384W        W22592   7.200  34.047  11.585
58385W        W22593  30.620  22.134  12.049
58386W        W22594   2.470   2.319   0.785
58387W        W22595  28.586  34.368  11.056
58388W        W22596  18.111  30.135  11.899
58389W        W22597  24.152  30.604   0.963
58390W        W22598  28.494   8.854   3.788
58391W        W22599  27.598  13.781  12.527
58392W        W22600  33.967  28.048   1.447
58393W        W22601  35.390  37.019   2.815
58394W        W22602  27.669   2.741  10.498
58395W        W22603  10.756  21.597  14.964
58396W        W22604  31.010  43.352   0.247
58397W        W22605  24.023  14.231  13.495
58398W        W22606  25.649  41.347   3.871
58399W        W22607   0.881  42.948   1.372
58400W        W22608  31.468   7.775   2.413
58401W        W22609   2.398   1.312   5.316
58402W        W22610  28.116   1.407   4.339
58403W        W22611  20.054  27.961   4.670
58404W        W22612  42.377  17.727   3.303
58405W        W22613  30.926  20.131  12.886
58406W        W22614  35.075  13.824   3.178
58407W        W22615   3.838  34.876  11.895
58408W        W22616   4.379  43.764  13.965
58409W        W22617   1.769  21.256  10.495
58410W        W22618  28.973  12.734   4.215
58411W        W22619   9.202   0.949  10.915
58412W        W22620  34.879   1.310   2.706
58413W        W22621  30.987  32.024  13.496
58414W        W22622   1.268  26.191   4.128
58415W        W22623  18.270  28.168  13.949
58416W        W22624  38.394   3.235  11.492
58417W        W22625   0.451  20.129  12.543
58418W        W22626  25.566  40.904  11.982
58419W        W22627   5.870  13.630   2.730
58420W        W22628  17.628  34.393  13.479
58421W        W22629  38.467  38.008   1.349
58422W        W22630  30.048   1.850  14.909
58423W        W22631  37.901  27.593  12.056
58424W        W22632  29.574  25.480   3.694
58425W        W22633  13.202  35.433  11.931
58426W        W22634   5.692  44.760   2.384
58427W        W22635   8.161  26.458  14.920
58428W        W22636  35.462  30.124  11.402
58429W        W22637  42.304  44.371  10.606
58430W        W22638   6.909  14.694   0.848
58431W        W22639  19.244  27.670  11.945
58432W        W22640   6.908  27.999  14.337
58433W        W22641  17.229  35.936   4.811
58434W        W22642  41.840  12.711  14.976
58435W        W22643  44.786  26.040   0.346
58436W        W22644   5.745   2.338  10.929
58437W        W22645  42.802   2.378   4.216
58438W        W22646   6.726  28.541   4.263
58439W        W22647  35.927  15.111   0.375
58440W        W22648   6.829  24.100  12.384
58441W        W22649   9.692  31.131  14.502
58442W        W22650   5.817   2.388   1.306
58443W        W22651  30.438   7.367  12.986
58444W        W22652  35.954  33.882   1.411
58445W        W22653  43.857   6.790   1.344
58446W        W22654   5.883  16.784  11.021
58447W        W22655  20.763   3.324   2.698
58448W        W22656  27.133  15.607  11.093
58449W        W22657   3.364  37.542  11.052
58450W        W22658  15.248  33.118   1.853
58451W        W22659   1.480   1.437   3.698
58452W        W22660  23.590  11.660   4.282
58453W        W22661  30.057  42.475   2.864
58454W        W22662  32.125  30.118  10.451
58455W        W22663  27.550  11.213  13.934
58456W        W22664  37.925  18.787  13.336
58457W        W22665  18.110   9.654   2.264
58458W        W22666  33.472  16.129  13.907
58459W        W22667  31.067  22.244  12.867
58460W        W22668  20.253  22.243  13.516
58461W        W22669  37.422  15.290   1.810
58462W        W22670  13.325  19.763  14.786
58463W        W22671  35.960   6.902   4.707
58464W        W22672  30.659  41.981  12.021
58465W        W22673   3.318  15.328  11.003
58466W        W22674  11.862   8.809  14.501
58467W        W22675  26.628  15.775   2.711
58468W        W22676  28.985  42.947  12.567
58469W        W22677  33.625  27.150  11.116
58470W        W22678   2.904  29.556   1.766
58471W        W22679  41.981   4.897  14.787
58472W        W22680   2.419  34.995   2.885
58473W        W22681  21.206  16.631   3.375
58474W        W22682  42.289   2.226  13.386
58475W        W22683  32.901  21.020   3.282
58476W        W22684   6.761  16.567   3.636
58477W        W22685   8.680  23.495   4.663
58478W        W22686   2.883  42.814  10.501
58479W        W22687  30.465  39.935  14.877
58480W        W22688  30.574  10.188  12.921
58481W        W22689  42.960  40.814   4.136
58482W        W22690  20.736  26.556  10.984
58483W        W22691  32.958  23.126  13.971
58484W        W22692  26.052  18.655  14.843
58485W        W22693  19.658   5.270   2.696
58486W        W22694  36.354  31.543   2.849
58487W        W22695   9.288  27.487   1.301
58488W        W22696   9.377   2.739   1.303
58489W        W22697  16.707  40.382  11.916
58490W        W22698   0.807  28.468  12.865
58491W        W22699  14.197   2.875  12.502
58492W        W22700  24.513  17.672   4.118
58493W        W22701  25.118  30.116  13.874
58494W        W22702  11.132  17.664  12.359
58495W        W22703   5.930   5.374   4.168
58496W        W22704  11.139  35.865  10.578
58497W        W22705   6.767   6.792  11.082
58498W        W22706   5.292  30.929  13.453
58499W        W22707  39.356  44.356   3.843
58500W        W22708   5.867  11.231  13.024
58501W        W22709  27.494  15.180  11.112
58502W        W22710   6.871   8.741  10.934
58503W        W22711  38.915  38.486   0.798
58504W        W22712   7.246   8.405  12.398
58505W        W22713   0.321  26.977   2.252
58506W        W22714   4.926  34.581   4.227
58507W        W22715  22.526  13.147   3.684
58508W        W22716  43.291  26.682   2.839
58509W        W22717  10.682  42.980  11.579
58510W        W22718  40.800  15.243   4.738
58511W        W22719   3.858  27.131  13.977
58512W        W22720  10.230  17.155  14.791
58513W        W22721  39.404  16.679  13.474
58514W        W22722  16.316  38.015   2.672
58515W        W22723  32.405   2.897  11.478
58516W        W22724  22.726  17.802   1.748
58517W        W22725  16.201   0.934  14.949
58518W        W22726   0.889  21.201  12.990
58519W        W22727  14.231  43.406   1.764
58520W        W22728  25.574  34.508   4.786
58521W        W22729  13.794   9.768   0.407
58522W        W22730   7.734  13.306   1.439
58523W        W22731  43.847  23.544   0.786
58524W        W22732   1.807  41.510  14.870
58525W        W22733  34.481  28.976   4.795
58526W        W22734  19.764  43.784   1.328
58527W        W22735  28.667  21.025  12.075
58528W        W22736  17.180  33.993  14.424
58529W        W22737   0.788   4.274   5.241
58530W        W22738   7.250   1.295   1.367
58531W        W22739  33.927  32.510   4.724
58532W        W22740  37.909  44.011   1.337
58533W        W22741  30.163  32.037  12.572
58534W        W22742  38.907  28.046  12.512
58535W        W22743  25.621   8.663  12.023
58536W        W22744  28.175   1.971  14.329
58537W        W22745  20.245   9.262   5.165
58538W        W22746  12.834  27.180   3.822
58539W        W22747  10.187  21.060  12.402
58540W        W22748  43.835   4.430  12.071
58541W        W22749  27.109  32.515   3.844
58542W        W22750  41.971   1.762  13.470
58543W        W22751  25.687  12.721  13.906
58544W        W22752  22.650  16.651  12.937
58545W        W22753  14.825   4.432  12.933
58546W        W22754  10.251  14.101   0.284
58547W        W22755  13.128  29.146   4.211
58548W        W22756  17.721  15.329   0.444
58549W        W22757  35.885  23.997   4.302
58550W        W22758  34.048  14.213   3.232
58551W        W22759  37.065  27.023   3.186
58552W        W22760  13.767  44.372  14.848
58553W        W22761  34.563   5.886   2.687
58554W        W22762  33.920  31.065   1.723
58555W        W22763  10.855  17.636  12.049
58556W        W22764  18.080  33.975   4.324
58557W        W22765  33.440  42.810  14.879
58558W        W22766  36.371  13.205  13.411
58559W        W22767  35.995  21.599   4.293
58560W        W22768  15.651   8.658  14.325
58561W        W22769  38.876  44.928   3.846
58562W        W22770  21.565  12.775  11.932
58563W        W22771  37.947  43.813   4.320
58564W        W22772  35.457  37.442   1.715
58565W        W22773  43.499  31.502  10.123
58566W        W22774  38.042  27.521  13.793
58567W        W22775   9.243   3.842  12.944
58568W        W22776  31.928   4.739   2.869
58569W        W22777  22.563  35.471   4.673
58570W        W22778  12.302  40.439   9.936
58571W        W22779  20.159  39.417   3.818
58572W        W22780   4.899   3.885   1.749
58573W        W22781  16.200  18.587   4.115
58574W        W22782   9.354   5.277   1.786
58575W        W22783  33.420  20.748  11.513
58576W        W22784   3.393  27.487  12.941
58577W        W22785  13.155  39.903  13.356
58578W        W22786  20.656  16.768   2.284
58579W        W22787  21.726  38.425  14.838
58580W        W22788  33.100  10.244  13.340
58581W        W22789  14.203  42.519   1.905
58582W        W22790  28.058  32.452   1.750
58583W        W22791  42.801  36.980   2.198
58584W        W22792  41.885  10.324   2.736
58585W        W22793  42.309   6.747   1.338
58586W        W22794   4.211  19.618  12.010
58587W        W22795  33.932  26.467   3.656
58588W        W22796  32.492  32.978   4.335
58589W        W22797  13.624   0.444   1.906
58590W        W22798  27.184   3.366  13.347
58591W        W22799  44.382  37.004  13.807
58592W        W22800  40.979  35.392  13.392
58593W        W22801  17.063   8.739   2.795
58594W        W22802  26.477  29.532   1.789
58595W        W22803  30.460   8.799  12.523
58596W        W22804  31.994  38.480  11.439
58597W        W22805   1.349  36.464  14.512
58598W        W22806  34.403  19.709  11.532
58599W        W22807   6.700  35.573   4.743
58600W        W22808  41.858  31.578  10.512
58601W        W22809  21.575  26.113   0.474
58602W        W22810   0.965  16.652  11.082
58603W        W22811  10.678  24.491  10.612
58604W        W22812   7.215  24.678  10.561
58605W        W22813  20.564   3.950   4.225
58606W        W22814  40.922  34.380   3.172
58607W        W22815  18.591  33.398  10.564
58608W        W22816  44.792  27.958   5.168
58609W        W22817  25.489  44.787   3.848
58610W        W22818  42.946  37.490   4.679
58611W        W22819  36.375  35.043   4.602
58612W        W22820  23.642   7.345   0.817
58613W        W22821   6.790   9.258   4.708
58614W        W22822  16.104  22.514   2.805
58615W        W22823  23.605  33.059  11.443
58616W        W22824  23.664  11.182   4.226
58617W        W22825  26.053  37.410  12.876
58618W        W22826  30.140  34.592   3.308
58619W        W22827  40.496   3.937   0.742
58620W        W22828   2.325   1.829   2.776
58621W        W22829  36.392  17.129  14.358
58622W        W22830  14.340  28.129  11.446
58623W        W22831  22.192   4.882  12.833
58624W        W22832  16.127  19.099   3.715
58625W        W22833  23.180  14.637   4.286
58626W        W22834  36.854  21.553  13.036
58627W        W22835   3.366  20.632   1.822
58628W        W22836  19.053   4.789  14.777
58629W        W22837  15.651  30.416   4.689
58630W        W22838   4.753  38.034  10.526
58631W        W22839   7.880   3.233  10.625
58632W        W22840  12.691  18.063   4.317
58633W        W22841  32.393  19.107   2.747
58634W        W22842  14.674   1.304  11.513
58635W        W22843  34.902   5.877   2.682
58636W        W22844  20.745  13.686  11.868
58637W        W22845  33.003  16.187  13.983
58638W        W22846  11.796  42.874  10.527
58639W        W22847  17.098  18.755  12.889
58640W        W22848  12.831  22.054  14.938
58641W        W22849  33.924   7.366   2.892
58642W        W22850  23.176  17.075   0.870
58643W        W22851  22.733   6.220   3.324
58644W        W22852  10.875   8.879  14.803
58645W        W22853   7.311  24.510  11.528
58646W        W22854  44.806  22.083  12.954
58647W        W22855  16.171  38.431   1.379
58648W        W22856  26.653  37.380  13.982
58649W        W22857  33.381  30.619   4.231
58650W        W22858   2.415  12.264  10.513
58651W        W22859   5.711  21.748  11.885
58652W        W22860  19.085  13.244  14.284
58653W        W22861   8.689  23.144  11.437
58654W        W22862   0.876   3.398   5.669
58655W        W22863   5.227  17.684   4.651
58656W        W22864  24.981  24.563   2.315
58657W        W22865   3.300  34.887  10.050
58658W        W22866   6.705  25.015   0.951
58659W        W22867  33.005  41.010   0.365
58660W        W22868   0.749  39.052  12.824
58661W        W22869  29.557  42.383   3.751
58662W        W22870  17.089  22.147   0.297
58663W        W22871  40.454  28.640  13.492
58664W        W22872  44.350  35.019   0.462
58665W        W22873  15.153  36.046   3.674
58666W        W22874  34.580  23.667  12.834
58667W        W22875  28.437   1.288  13.876
58668W        W22876  27.119  23.692  10.547
58669W        W22877   7.819  44.933   2.253
58670W        W22878   6.250  12.227  10.430
58671W        W22879   1.850  38.542  10.488
58672W        W22880  15.303  12.850  11.398
58673W        W22881  36.033   5.837  13.481
58674W        W22882   9.752  35.507  10.507
58675W        W22883  13.710  39.954  12.453
58676W        W22884  37.920  13.619  10.605
58677W        W22885  42.027   6.803  11.982
58678W        W22886   6.193  33.888  14.993
58679W        W22887   2.787  31.625  10.920
58680W        W22888  19.227   8.839   0.767
58681W        W22889  30.498  28.128  11.587
58682W        W22890  11.626  15.291   1.810
58683W        W22891   6.415   1.267  14.348
58684W        W22892  41.513  28.032   5.104
58685W        W22893  42.457  43.771   3.816
58686W        W22894  23.105  32.885  12.964
58687W        W22895  23.081  22.617   0.331
58688W        W22896  27.490  25.057   1.355
58689W        W22897   3.807   0.873  11.935
58690W        W22898  20.157  13.253   0.343
58691W        W22899   2.423  19.260   0.358
58692W        W22900   0.975  14.715   2.781
58693W        W22901  25.493   0.801   1.311
58694W        W22902  17.569   2.720   0.884
58695W        W22903  36.045  15.796   0.896
58696W        W22904   8.255  42.023  13.052
58697W        W22905   0.823   4.275  11.876
58698W        W22906  19.726   0.931  13.317
58699W        W22907  23.161  27.152   3.226
58700W        W22908  33.563   9.243  11.612
58701W        W22909  12.623  44.376   2.778
58702W        W22910  38.472  28.118   3.278
58703W        W22911  30.144  15.634  14.011
58704W        W22912  39.011  24.079   0.342
58705W        W22913  11.701  18.604   2.782
58706W        W22914  22.645   6.706   3.295
58707W        W22915  44.773  33.097   0.947
58708W        W22916  10.824  17.099  10.994
58709W        W22917   6.687  40.015   0.876
58710W        W22918  30.541  32.453   0.356
58711W        W22919  14.594   3.411   3.274
58712W        W22920  42.503  16.301  12.464
58713W        W22921  30.123  12.762  13.927
58714W        W22922  41.995  41.528   2.238
58715W        W22923  36.448  24.093  11.008
58716W        W22924   3.815  38.833   2.676
58717W        W22925  43.930  31.546  11.889
58718W        W22926   1.929  27.620  13.025
58719W        W22927  35.922  38.421  11.401
58720W        W22928  35.093  15.780  12.916
58721W        W22929  34.506  23.536   1.769
58722W        W22930  35.986   8.354  11.024
58723W        W22931  13.240  38.907  11.544
58724W        W22932  26.006   3.807  10.495
58725W        W22933  32.445  30.127   1.768
58726W        W22934  24.118  35.962   0.785
58727W        W22935   3.820  26.536   0.856
58728W        W22936  28.612  24.696  10.458
58729W        W22937  14.767   2.947   1.235
58730W        W22938   3.233   1.849  12.492
58731W        W22939   5.344  16.205  10.912
58732W        W22940   0.349  39.844   4.221
58733W        W22941  28.457   1.810  11.992
58734W        W22942  41.034  41.875   3.350
58735W        W22943   7.385  37.503   1.326
58736W        W22944  26.013  44.818   1.911
58737W        W22945  22.054  11.646   2.762
58738W        W22946  28.644  40.007   4.219
58739W        W22947   1.972  35.591  11.422
58740W        W22948   2.351  30.016   9.526
58741W        W22949  21.032  33.477  12.990
58742W        W22950  10.217  19.069   0.886
58743W        W22951  34.943  11.723   3.338
58744W        W22952  34.887  34.512  12.456
58745W        W22953  11.344  18.552  11.084
58746W        W22954  26.099   3.862   2.303
58747W        W22955  38.435   8.784  14.342
58748W        W22956   3.394  41.407  13.004
58749W        W22957   1.858  37.534  10.597
58750W        W22958  12.829  22.091   3.802
58751W        W22959  44.953  38.999  11.122
58752W        W22960   5.781  31.149  11.953
58753W        W22961  34.020   3.265  14.953
58754W        W22962  24.028  40.917   4.820
58755W        W22963  18.699  18.633   4.133
58756W        W22964  25.129   0.844   1.881
58757W        W22965  23.648  41.026  14.332
58758W        W22966  29.614  11.269  10.451
58759W        W22967  15.729  24.520   0.397
58760W        W22968  40.374  16.253   3.763
58761W        W22969   3.433  32.087  13.793
58762W        W22970  27.094  13.243  10.514
58763W        W22971   8.376  12.768   1.918
58764W        W22972  21.060  20.028  14.767
58765W        W22973  10.274  21.062  11.395
58766W        W22974  44.409  33.486  11.390
58767W        W22975  14.654  41.512   2.296
58768W        W22976  34.882  38.447  11.124
58769W        W22977  16.094  41.027   2.878
58770W        W22978   5.873   7.895   4.223
58771W        W22979   8.703   8.200   3.667
58772W        W22980  29.170   7.268  10.971
58773W        W22981  38.428  28.639  13.450
58774W        W22982  35.012  28.499  14.764
58775W        W22983  18.606   0.886  10.426
58776W        W22984  35.401  41.889  10.569
58777W        W22985  32.097   9.851  11.974
58778W        W22986  21.170  15.656   4.712
58779W        W22987  43.812  33.926  11.118
58780W        W22988  39.977  33.433   4.255
58781W        W22989   8.779  25.047  13.975
58782W        W22990  18.618  39.473  10.537
58783W        W22991  39.901  14.196   3.265
58784W        W22992  15.136  18.267  10.965
58785W        W22993  36.010  13.599   4.755
58786W        W22994  36.884  24.688  14.276
58787W        W22995  29.108   2.454  12.073
58788W        W22996  25.997   5.272   3.367
58789W        W22997  13.220  13.348   4.817
58790W        W22998  43.282   4.714  13.803
58791W        W22999   0.763   9.335   0.341
58792W        W23000  17.093   2.845   3.839
58793W        W23001  28.986  36.923   4.256
58794W        W23002  44.473   5.341   0.467
58795W        W23003  15.147  10.697  10.446
58796W        W23004  37.544  44.407   5.237
58797W        W23005  23.020  36.552   3.232
58798W        W23006   3.927   8.808  14.829
58799W        W23007   6.246   6.734   0.844
58800W        W23008   4.748   2.813  14.969
58801W        W23009  14.648  29.932  14.324
58802W        W23010   6.274   4.702   4.742
58803W        W23011  29.563  43.946   0.844
58804W        W23012  33.460  20.767  14.834
58805W        W23013  20.079  30.084   2.738
58806W        W23014  20.268  32.916   0.298
58807W        W23015  25.195   5.855   4.835
58808W        W23016  24.575  10.149   1.714
58809W        W23017  18.622  38.978   3.797
58810W        W23018  16.634  44.859  11.410
58811W        W23019  32.486  35.962  13.351
58812W        W23020  35.901  31.489   2.183
58813W        W23021   8.380   5.867   0.755
58814W        W23022   3.363  15.329   1.375
58815W        W23023  39.015  33.425   0.422
58816W        W23024  11.656  26.674   4.810
58817W        W23025  29.622  37.417  13.857
58818W        W23026   3.397  34.936   0.907
58819W        W23027   7.194  25.043  12.448
58820W        W23028   6.303  42.404  14.918
58821W        W23029  16.797   9.855   1.217
58822W        W23030  40.044  42.468   1.381
58823W        W23031  24.511  16.684  14.356
58824W        W23032  37.866  32.960  12.825
58825W        W23033  23.570   8.369   0.865
58826W        W23034  39.517  28.569   1.916
58827W        W23035  26.974  17.649   3.358
58828W        W23036   9.211   4.358   0.875
58829W        W23037  25.507  20.224   4.790
58830W        W23038   8.293  15.275   2.693
58831W        W23039  17.270   0.309   1.242
58832W        W23040  30.536  12.741   0.275
58833W        W23041   8.225  34.967  13.874
58834W        W23042   7.299   1.318   0.387
58835W        W23043  15.275  39.501   5.588
58836W        W23044  26.611  35.038   5.263
58837W        W23045  14.820  30.021  12.020
58838W        W23046  22.070  18.615   0.331
58839W        W23047  42.959  24.074   4.650
58840W        W23048  36.355  23.535   1.333
58841W        W23049  22.130   2.809   0.759
58842W        W23050  16.182  27.175   4.120
58843W        W23051  28.517  43.426   1.735
58844W        W23052  10.777  32.464  10.496
58845W        W23053  31.030  18.267  14.782
58846W        W23054  17.572  10.190  14.316
58847W        W23055  29.936   4.329  12.534
58848W        W23056  22.189  17.266   1.852
58849W        W23057   5.750  16.741  11.983
58850W        W23058   8.858  24.620   0.295
58851W        W23059  44.812   0.298   0.341
58852W        W23060  31.989  13.789   0.420
58853W        W23061  16.727   4.711   2.758
58854W        W23062  24.052  44.935  11.860
58855W        W23063   7.671  39.016   0.807
58856W        W23064  27.579  24.574   0.315
58857W        W23065   5.822  26.541   2.247
58858W        W23066  18.051  40.346   1.769
58859W        W23067   4.236   6.316   0.767
58860W        W23068   7.911  42.832   9.935
58861W        W23069   4.364  14.238  14.845
58862W        W23070  44.931   2.751  11.987
58863W        W23071  40.398  18.742  12.952
58864W        W23072  24.167   5.343  13.462
58865W        W23073   4.925  31.418   4.328
58866W        W23074  13.684  16.158   3.784
58867W        W23075  44.439  25.521   2.892
58868W        W23076   3.709   1.971   0.765
58869W        W23077  29.612  13.247  12.489
58870W        W23078  28.635  42.816   4.254
58871W        W23079   4.376  19.245  12.967
58872W        W23080  24.712  19.777  13.953
58873W        W23081  41.800  29.554   3.636
58874W        W23082  21.660  35.549   3.310
58875W        W23083   6.690  24.217  10.547
58876W        W23084   4.915   7.217   3.723
58877W        W23085  36.493  22.235  12.577
58878W        W23086  17.800  21.110  13.973
58879W        W23087  31.432   9.788   1.347
58880W        W23088  37.967  16.710   3.739
58881W        W23089  35.941  23.178  11.577
58882W        W23090  24.615  15.156  12.365
58883W        W23091   4.716  40.037   9.962
58884W        W23092  42.011  38.566  11.535
58885W        W23093  34.371  23.710   2.385
58886W        W23094   0.367  19.253   1.745
58887W        W23095  24.115   2.830  11.490
58888W        W23096  12.132  42.420   2.845
58889W        W23097  34.520  33.446  13.936
58890W        W23098  36.504  33.453   3.739
58891W        W23099  43.922  22.564   4.703
58892W        W23100  28.073  38.077  13.897
58893W        W23101  22.667   4.736   2.662
58894W        W23102   1.394  14.787  12.574
58895W        W23103  19.560  41.982   5.148
58896W        W23104   0.945   1.311   0.909
58897W        W23105  15.702  25.533   1.345
58898W        W23106   6.797   5.234   1.710
58899W        W23107  24.697  17.252   2.278
58900W        W23108   0.448  25.005   2.278
58901W        W23109  35.079  44.920   0.300
58902W        W23110  20.119   8.378   1.928
58903W        W23111  24.050  31.515  14.394
58904W        W23112  23.089  23.210   1.246
58905W        W23113   2.807  26.049   1.814
58906W        W23114  18.188  39.529   3.368
58907W        W23115  44.259   1.850   3.646
58908W        W23116  38.495  24.018   4.626
58909W        W23117  39.479  15.313   1.345
58910W        W23118  34.057  26.607  12.484
58911W        W23119  35.109  21.211   1.288
58912W        W23120  37.995  15.767   4.605
58913W        W23121   0.756  14.766   3.755
58914W        W23122  32.887  43.878  11.578
58915W        W23123  43.291   5.716   3.172
58916W        W23124   3.811  13.821  11.391
58917W        W23125  22.719  36.871  12.463
58918W        W23126  27.597  16.233   0.950
58919W        W23127  10.727  33.576   2.743
58920W        W23128  30.979   3.825  10.966
58921W        W23129  33.978   7.732  12.019
58922W        W23130  24.224  31.467  10.598
58923W        W23131  13.350  21.723  10.953
58924W        W23132  44.763  13.786   4.815
58925W        W23133  25.590  24.213  10.479
58926W        W23134  38.482   8.395  12.035
58927W        W23135  11.707  37.515   0.875
58928W        W23136  26.480   7.238  13.942
58929W        W23137  36.408  19.729   1.910
58930W        W23138  44.444  26.971   0.809
58931W        W23139  27.190   7.256   0.336
58932W        W23140   4.383  11.629   3.195
58933W        W23141  23.676  38.436  12.409
58934W        W23142  13.775  39.930   2.197
58935W        W23143   3.321  25.525   2.868
58936W        W23144   9.795  27.035  14.317
58937W        W23145  35.592   7.187  14.919
58938W        W23146  32.141  16.742   2.217
58939W        W23147   1.854  35.530  13.321
58940W        W23148   4.341   8.700  10.503
58941W        W23149  32.606  20.096   4.187
58942W        W23150  30.118  16.774  14.473
58943W        W23151  33.970  25.216   2.204
58944W        W23152  31.941  10.186   3.325
58945W        W23153  38.046  13.222   0.466
58946W        W23154  35.855  40.015  14.343
58947W        W23155  28.648  16.717   2.677
58948W        W23156  11.252  34.053  11.019
58949W        W23157  22.075  28.068   4.277
58950W        W23158  26.173  25.968   2.346
58951W        W23159  35.411  19.720  14.368
58952W        W23160   7.726  30.123  13.479
58953W        W23161   4.281  40.469  10.611
58954W        W23162  32.487  19.048  11.380
58955W        W23163  12.714  19.576   1.418
58956W        W23164  40.347  26.479  14.954
58957W        W23165  10.675  42.370   1.385
58958W        W23166  10.287  22.194   3.790
58959W        W23167   0.863  19.239   0.331
58960W        W23168  28.004  16.737   3.815
58961W        W23169  33.959  21.716   1.894
58962W        W23170  28.481  10.849   0.795
58963W        W23171  43.497   0.360  14.860
58964W        W23172  10.831  29.575  13.000
58965W        W23173  24.506  38.556   2.328
58966W        W23174  15.636   4.743   3.364
58967W        W23175  23.024  38.549  12.464
58968W        W23176  27.476  41.024  14.980
58969W        W23177   9.808  18.741  12.899
58970W        W23178  30.522  11.164   4.296
58971W        W23179  28.543   8.344  11.571
58972W        W23180  38.378   5.246  13.836
58973W        W23181   8.400   2.236   1.753
58974W        W23182  34.032  42.422   2.343
58975W        W23183  40.897   5.733   0.752
58976W        W23184  25.534  21.068   5.133
58977W        W23185  33.559  30.945   1.233
58978W        W23186  20.201  18.761  14.478
58979W        W23187  33.598  18.285  11.583
58980W        W23188  25.014   3.429   0.443
58981W        W23189  31.027   9.246   3.794
58982W        W23190   4.825  42.421  12.056
58983W        W23191  42.290   2.732  11.859
58984W        W23192  19.194  25.689  12.971
58985W        W23193  15.196  23.200   3.358
58986W        W23194  29.044  34.600   3.252
58987W        W23195  39.467  28.675   1.378
58988W        W23196  21.066  15.628   1.298
58989W        W23197   1.254  39.390  10.452
58990W        W23198   9.674   7.405  11.538
58991W        W23199  24.545  29.452  12.916
58992W        W23200  10.788  26.025  11.080
58993W        W23201   8.893  40.041   3.228
58994W        W23202  36.545  24.221  14.829
58995W        W23203  39.543  42.784  11.604
58996W        W23204  31.613   2.472  10.506
58997W        W23205  26.073  31.566  13.345
58998W        W23206  27.129  41.017   1.293
58999W        W23207  25.526  16.768   2.895
59000W        W23208   7.268  34.102   1.895
59001W        W23209  38.033  27.685  13.470
59002W        W23210  21.514   1.892  14.017
59003W        W23211  38.951  37.570   3.192
59004W        W23212  26.016  14.785   1.377
59005W        W23213  30.523  22.013   0.309
59006W        W23214  44.296   7.801  14.276
59007W        W23215  10.200  44.377  12.855
59008W        W23216  40.536  22.508   2.794
59009W        W23217   6.413  17.139   0.773
59010W        W23218  33.578  30.005  14.413
59011W        W23219   2.349  29.470  11.016
59012W        W23220  13.701   8.793   4.764
59013W        W23221   9.805  35.867  13.976
59014W        W23222  12.730  38.069   3.675
59015W        W23223  28.535  17.580   1.365
59016W        W23224  22.181  35.895  12.948
59017W        W23225  32.928  31.610   0.369
59018W        W23226  22.999   3.740  12.906
59019W        W23227  32.576  20.678  12.843
59020W        W23228  26.498  20.584   2.302
59021W        W23229  32.081   4.215  10.469
59022W        W23230  39.336  13.683  14.372
59023W        W23231   0.745  38.012   4.346
59024W        W23232  27.002  21.126   0.807
59025W        W23233  33.465  31.000   3.375
59026W        W23234   3.431   6.308  10.536
59027W        W23235   2.950   8.272   0.799
59028W        W23236   1.268  28.087   1.377
59029W        W23237  40.485  14.219  14.031
59030W        W23238  18.130  34.579  10.540
59031W        W23239   1.882  28.435   0.337
59032W        W23240  38.865  14.807  12.900
59033W        W23241  42.284  23.125  14.472
59034W        W23242  20.173   9.663   2.707
59035W        W23243   3.383  16.670   4.800
59036W        W23244  43.852  12.829  11.604
59037W        W23245  35.060  38.359  11.506
59038W        W23246  40.938  38.336  11.539
59039W        W23247  44.382  14.765  14.996
59040W        W23248  28.500  41.343   1.344
59041W        W23249  17.172  40.916  13.009
59042W        W23250  18.626  42.956  10.571
59043W        W23251  33.006  40.892   3.329
59044W        W23252  41.939  12.773  13.961
59045W        W23253   4.366   2.450  14.777
59046W        W23254  33.620  31.509  14.459
59047W        W23255  26.512  30.997   1.236
59048W        W23256  12.634   7.786   3.783
59049W        W23257  39.361   0.274   5.207
59050W        W23258  18.076  40.900  10.967
59051W        W23259  13.655   9.809  11.382
59052W        W23260   9.160  39.986   2.845
59053W        W23261   4.408   0.435   0.318
59054W        W23262  38.539  13.224   0.479
59055W        W23263  26.138  30.115   3.760
59056W        W23264  27.452   4.784   2.786
59057W        W23265  13.153  23.181  14.279
59058W        W23266  23.614  15.685   0.472
59059W        W23267  29.085  17.605   9.642
59060W        W23268  32.605  36.476  12.528
59061W        W23269  11.200  39.553   1.422
59062W        W23270  28.942   3.432   5.176
59063W        W23271  27.491   8.337   0.334
59064W        W23272  36.504  40.530  14.848
59065W        W23273  30.525  25.498  13.813
59066W        W23274  33.126  35.451   2.684
59067W        W23275   7.902  14.605   1.271
59068W        W23276  35.877  40.992   2.245
59069W        W23277  12.292  25.146  12.346
59070W        W23278  27.146   3.763  11.376
59071W        W23279   8.271  21.258  13.377
59072W        W23280  15.800   0.438  11.603
59073W        W23281  44.003   3.931   3.815
59074W        W23282  15.698  15.584  14.374
59075W        W23283  16.780  15.267  10.986
59076W        W23284  34.500   2.451  10.418
59077W        W23285   4.257  11.818   2.662
59078W        W23286  33.930  30.040   1.280
59079W        W23287  38.842   1.342   1.916
59080W        W23288  42.791  41.434  10.586
59081W        W23289  35.963  18.619   0.848
59082W        W23290  16.193  23.557  13.997
59083W        W23291  23.658  22.109  12.556
59084W        W23292  16.101  18.662   3.289
59085W        W23293   1.731  15.633   2.351
59086W        W23294  37.905   4.399  12.030
59087W        W23295  13.737  24.066   0.928
59088W        W23296  29.518  19.631  10.503
59089W        W23297  19.088  33.453   3.718
59090W        W23298  35.944   7.770   0.850
59091W        W23299  11.692   2.342  13.310
59092W        W23300   7.820  22.588  12.478
59093W        W23301  11.242  37.475  14.975
59094W        W23302  11.372  19.683   4.785
59095W        W23303   9.825  34.614  11.905
59096W        W23304  32.540  21.537  14.466
59097W        W23305  41.421  14.181   3.733
59098W        W23306   3.241   2.391  13.804
59099W        W23307   1.911  36.491   3.180
59100W        W23308  20.549  37.883  12.029
59101W        W23309  38.018  38.478   1.434
59102W        W23310  22.182  29.444   2.219
59103W        W23311  18.642  22.582  13.483
59104W        W23312   8.178  17.182  14.018
59105W        W23313  43.944  26.016  12.856
59106W        W23314  37.956  17.075   1.730
59107W        W23315  24.188  37.392  10.918
59108W        W23316  38.842   5.727  12.467
59109W        W23317  27.974  17.782   3.154
59110W        W23318   9.237   3.921   1.349
59111W        W23319   6.777   4.941  13.356
59112W        W23320  15.627  26.485  12.866
59113W        W23321  34.056   8.662  11.932
59114W        W23322  36.380  34.491  13.014
59115W        W23323  31.581   5.273   0.888
59116W        W23324  17.082  13.748  14.779
59117W        W23325  13.291  21.131   0.242
59118W        W23326   0.780  18.154   2.278
59119W        W23327   8.881  19.675  11.885
59120W        W23328   5.854  28.150   2.720
59121W        W23329   2.879  40.514   3.679
59122W        W23330  12.222  37.446  13.936
59123W        W23331  17.071  40.306   0.470
59124W        W23332   6.342  23.547   4.803
59125W        W23333  36.069  30.465  12.501
59126W        W23334   6.259  41.365  13.418
59127W        W23335  16.586  32.953   4.603
59128W        W23336   2.805  18.566   0.807
59129W        W23337   7.278  17.759  13.835
59130W        W23338  25.626  15.110   2.704
59131W        W23339  41.832  29.945   3.240
59132W        W23340  38.546  16.757  10.405
59133W        W23341  16.742  28.031  13.508
59134W        W23342  24.975  23.031   1.307
59135W        W23343  30.152   7.330  13.414
59136W        W23344  31.011   8.258  13.057
59137W        W23345   9.873  38.935   2.667
59138W        W23346   2.385  12.813  11.536
59139W        W23347  10.859  41.510   1.728
59140W        W23348   2.819   7.784   1.416
59141W        W23349  11.212  33.981   0.430
59142W        W23350  37.038  29.131   3.791
59143W        W23351  32.394  14.767  14.310
59144W        W23352   3.786   6.303   2.766
59145W        W23353  28.652  43.903  11.912
59146W        W23354   0.479  35.404  12.450
59147W        W23355  25.081   2.890   2.854
59148W        W23356  23.002  37.053   4.617
59149W        W23357  37.479  15.095  14.325
59150W        W23358   9.675  38.514   3.371
59151W        W23359   0.374  37.455  12.510
59152W        W23360  27.627  30.626   0.837
59153W        W23361  19.216  35.976   4.792
59154W        W23362  36.890  19.225   0.322
59155W        W23363   1.440  11.227   4.276
59156W        W23364  32.017   7.868   0.861
59157W        W23365  39.458  19.555  12.573
59158W        W23366  11.161   3.941   0.812
59159W        W23367  24.148  38.927  11.089
59160W        W23368  11.300  14.244  12.437
59161W        W23369   3.419  23.152   0.747
59162W        W23370  33.389  17.264  13.390
59163W        W23371  14.172  41.483   1.823
59164W        W23372   4.809  29.514   0.961
59165W        W23373   8.857  25.093   3.764
59166W        W23374  43.291  18.057  10.984
59167W        W23375   5.796  13.124  12.013
59168W        W23376  25.518  44.881  13.336
59169W        W23377   7.357  35.471   3.260
59170W        W23378  29.136   4.421  12.897
59171W        W23379   1.952  16.626   1.784
59172W        W23380  30.996   8.888   5.147
59173W        W23381  22.676  37.943  12.989
59174W        W23382  24.082  22.654   4.142
59175W        W23383   6.827  20.553  14.354
59176W        W23384  28.470  37.017   4.617
59177W        W23385  41.901  22.674   9.941
59178W        W23386  10.676  42.486  13.883
59179W        W23387   0.329  33.609  10.430
59180W        W23388   5.333   4.887   2.790
59181W        W23389  38.424  40.394  13.010
59182W        W23390  14.096  22.654   4.597
59183W        W23391  22.172  24.647  10.965
59184W        W23392  43.357  13.705   1.876
59185W        W23393  33.081  29.972   3.233
59186W        W23394  11.831  43.475  14.942
59187W        W23395  21.726  12.208   2.303
59188W        W23396  13.243   1.976   2.770
59189W        W23397  18.245  15.211  10.405
59190W        W23398  17.275  10.322  13.494
59191W        W23399  28.490   2.961  11.954
59192W        W23400  35.069  10.207  12.533
59193W        W23401  14.690  22.518   2.734
59194W        W23402  42.328   4.249   4.168
59195W        W23403  20.215  44.868  10.404
59196W        W23404  26.002  41.337  11.016
59197W        W23405  20.083  37.845   4.211
59198W        W23406  14.677  26.575   2.808
59199W        W23407   8.309  26.116  14.393
59200W        W23408  42.915   4.860   2.401
59201W        W23409  29.524  15.090   4.250
59202W        W23410  44.309  39.906   4.189
59203W        W23411  18.283  22.177  12.927
59204W        W23412  22.999  36.368  12.848
59205W        W23413  14.694  20.098  10.468
59206W        W23414  39.971  16.239   4.113
59207W        W23415  29.431   4.875   1.445
59208W        W23416  10.842  13.630   0.874
59209W        W23417  30.510  25.630  12.434
59210W        W23418  19.700  43.425  10.487
59211W        W23419  11.665  38.911  12.967
59212W        W23420  43.983  13.662   2.412
59213W        W23421  40.044  11.354   3.672
59214W        W23422   3.388   2.924   1.244
59215W        W23423  43.386  21.199  13.462
59216W        W23424  23.507   4.405  13.984
59217W        W23425   8.358  17.152   0.830
59218W        W23426  19.174  35.586  12.934
59219W        W23427   9.761  16.694  10.962
59220W        W23428   1.306   8.896   0.363
59221W        W23429   2.333  22.147   0.322
59222W        W23430  29.098  35.467  13.499
59223W        W23431  40.404  33.561  14.293
59224W        W23432  37.437  17.669  11.559
59225W        W23433  39.555  41.404  11.456
59226W        W23434  41.988   9.809   0.408
59227W        W23435   9.199  43.423  10.494
59228W        W23436  19.080  44.355  12.015
59229W        W23437  38.977  19.274   0.956
59230W        W23438  41.427  38.940  13.360
59231W        W23439  39.453  34.582   0.827
59232W        W23440  17.701  21.564  13.955
59233W        W23441  30.150  19.132   4.662
59234W        W23442  27.062  17.789   1.447
59235W        W23443  18.065  34.459   0.864
59236W        W23444  25.203  25.070   2.759
59237W        W23445  28.453  40.926   0.834
59238W        W23446  12.212   1.805  11.534
59239W        W23447  24.589  15.305   1.414
59240W        W23448   2.912  35.409  14.935
59241W        W23449   1.443   2.892  12.939
59242W        W23450  21.511  19.230   9.926
59243W        W23451  15.144  42.991  11.122
59244W        W23452  15.781  20.214   2.718
59245W        W23453  43.458  29.973   4.141
59246W        W23454  20.218  30.052   0.730
59247W        W23455  33.062  29.523   2.219
59248W        W23456  13.198  20.536   4.237
59249W        W23457  12.351  37.067  13.407
59250W        W23458   0.952  41.969  11.407
59251W        W23459   5.906  42.964   4.269
59252W        W23460  12.804  31.623   4.226
59253W        W23461  41.999  37.048  13.366
59254W        W23462  44.778  27.584  14.387
59255W        W23463  39.498  14.158  12.966
59256W        W23464   4.226  35.073   3.365
59257W        W23465  28.070  21.646  10.452
59258W        W23466  35.506  38.066  10.955
59259W        W23467  24.117   9.831   0.277
59260W        W23468  19.580  34.406  11.424
59261W        W23469  39.367   4.351  11.586
59262W        W23470  41.007   8.324  13.392
59263W        W23471   8.818  30.573   4.271
59264W        W23472  21.235  19.576  13.883
59265W        W23473  12.171  38.462   4.745
59266W        W23474  34.002  34.581  12.510
59267W        W23475  38.922  21.538   4.157
59268W        W23476  18.155  38.845   2.237
59269W        W23477  11.373  29.658   2.288
59270W        W23478  41.414   4.871   3.261
59271W        W23479  40.848   6.893   0.407
59272W        W23480  32.054  44.852   4.300
59273W        W23481  16.650  20.741  14.765
59274W        W23482  19.755  11.630   1.446
59275W        W23483  42.988   6.849   0.913
59276W        W23484  12.292  20.127  13.018
59277W        W23485  36.897  35.390  13.006
59278W        W23486  31.968   6.889  13.885
59279W        W23487  13.827  29.563  12.510
59280W        W23488  11.250  41.956  11.530
59281W        W23489   7.237  34.370   0.916
59282W        W23490  36.526  30.417   9.952
59283W        W23491  40.462  28.161   5.191
59284W        W23492  10.312   4.840   3.292
59285W        W23493  40.857  21.654  14.505
59286W        W23494   8.820  14.275   1.434
59287W        W23495  40.947  25.666   1.739
59288W        W23496  37.084   6.798   3.252
59289W        W23497  43.377  27.689   1.736
59290W        W23498   9.727  14.761  12.858
59291W        W23499   0.284  23.552   2.244
59292W        W23500  10.222  42.499  13.366
59293W        W23501  38.061  43.892  14.293
59294W        W23502  38.001  18.573   3.660
59295W        W23503  37.373   2.937   4.292
59296W        W23504  38.889  31.475   4.307
59297W        W23505   1.264  43.827   1.708
59298W        W23506   2.460  37.005  11.592
59299W        W23507  31.070  22.019   0.800
59300W        W23508   9.821  42.322   2.779
59301W        W23509  42.522  22.708   4.812
59302W        W23510  34.443  25.149  12.572
59303W        W23511  15.160  22.014  13.009
59304W        W23512  44.966   0.880   5.129
59305W        W23513  41.791  42.413  13.530
59306W        W23514  19.653  39.947   3.724
59307W        W23515   5.244  20.762   4.681
59308W        W23516  20.267  40.971   1.915
59309W        W23517  17.743   8.759   5.187
59310W        W23518  11.367   4.767   4.287
59311W        W23519  24.060  10.338   3.376
59312W        W23520  35.110   5.323   4.202
59313W        W23521  24.722  15.746  12.573
59314W        W23522   8.690  20.559  14.395
59315W        W23523  35.876  28.999   1.761
59316W        W23524  35.091  42.002  14.320
59317W        W23525  43.398  25.055  13.445
59318W        W23526  20.242  23.004   0.905
59319W        W23527   3.385   2.343   2.375
59320W        W23528  35.532  33.478  10.136
59321W        W23529  18.290   1.371  11.612
59322W        W23530  17.629  21.515  11.984
59323W        W23531  31.623  44.321   9.951
59324W        W23532  14.631  11.691   1.775
59325W        W23533  23.158   9.796   1.751
59326W        W23534  44.914  13.131   4.344
59327W        W23535  10.304  33.035   0.298
59328W        W23536  20.591  11.207   1.889
59329W        W23537  33.618  14.819   3.807
59330W        W23538  12.207  26.104  10.635
59331W        W23539  42.501  13.170  12.477
59332W        W23540  20.055  22.028   2.385
59333W        W23541  34.012  39.530   3.313
59334W        W23542   3.377  31.614   0.760
59335W        W23543   7.281  22.139  12.858
59336W        W23544  40.912  36.067  11.969
59337W        W23545   7.767  20.111  13.319
59338W        W23546  34.599   9.381   2.288
59339W        W23547  15.581  34.386   9.974
59340W        W23548   9.809  34.500  10.557
59341W        W23549  32.005   2.898   1.819
59342W        W23550  24.526  33.593  11.105
59343W        W23551   0.904  39.830   2.721
59344W        W23552   9.203  31.577  13.943
59345W        W23553  17.796  12.836   1.917
59346W        W23554   9.790  28.484   2.188
59347W        W23555  43.863   7.703   4.653
59348W        W23556  44.824  29.054   3.800
59349W        W23557   0.463  23.682  11.377
59350W        W23558  37.866  11.227   0.934
59351W        W23559  34.437  24.161   4.312
59352W        W23560  37.434  41.840   0.397
59353W        W23561  19.538  14.632   0.845
59354W        W23562  20.703  23.707  14.349
59355W        W23563  39.880  20.116   2.419
59356W        W23564  16.284  27.039   0.334
59357W        W23565  36.398  42.969  11.533
59358W        W23566   3.737  28.661   1.813
59359W        W23567   4.871  40.054  13.518
59360W        W23568  22.062  14.825  12.842
59361W        W23569  37.086   2.921  13.982
59362W        W23570  14.314   4.822  11.577
59363W        W23571  20.688  40.854   1.302
59364W        W23572   3.723   2.317   2.802
59365W        W23573  26.143   1.241   4.131
59366W        W23574   5.827  14.751  12.551
59367W        W23575   0.272  41.508   3.256
59368W        W23576   0.426   1.435   3.384
59369W        W23577  44.392  22.036   0.933
59370W        W23578   7.250  15.640  12.433
59371W        W23579  23.188  34.451  12.070
59372W        W23580  40.818  28.555  11.461
59373W        W23581  43.831  28.035   0.726
59374W        W23582  10.730  10.158   3.652
59375W        W23583  32.074  44.399  12.957
59376W        W23584  19.644  17.092   0.429
59377W        W23585  13.770  28.563  11.128
59378W        W23586  38.426  18.670  13.506
59379W        W23587  27.578  34.018  10.593
59380W        W23588  13.169   7.359   5.315
59381W        W23589  20.554  24.529  12.889
59382W        W23590  10.146  23.563   4.618
59383W        W23591  10.808  33.015  12.575
59384W        W23592  25.016   6.736   1.373
59385W        W23593  44.797  23.536  11.465
59386W        W23594  33.625  16.076   1.799
59387W        W23595  36.951   9.287  10.982
59388W        W23596  13.350  28.937  13.369
59389W        W23597  33.570  28.175  11.091
59390W        W23598   9.854  19.705  14.383
59391W        W23599   6.817  40.316  10.994
59392W        W23600   0.361   4.387  14.015
59393W        W23601  33.057   4.256   1.253
59394W        W23602   9.267  23.733   1.434
59395W        W23603  20.658  25.563   3.752
59396W        W23604  41.335  33.410  10.501
59397W        W23605   4.321  34.881  11.991
59398W        W23606  31.041  44.450   0.901
59399W        W23607  40.898  36.576   3.649
59400W        W23608  13.188  44.806   4.805
59401W        W23609  35.542  29.096  11.003
59402W        W23610   8.247  16.802  10.639
59403W        W23611  12.233   5.796   0.348
59404W        W23612  32.584   9.722   1.724
59405W        W23613  10.737  30.472   0.470
59406W        W23614  17.099  16.677   2.694
59407W        W23615  15.275  37.468   2.824
59408W        W23616  31.971  23.593   3.802
59409W        W23617  10.215   7.302  12.455
59410W        W23618  10.719   8.370   3.273
59411W        W23619   0.763   1.739  12.450
59412W        W23620  31.002   8.170   0.772
59413W        W23621  14.671  23.062  13.311
59414W        W23622  13.647  20.230  13.005
59415W        W23623   4.718  14.716   1.372
59416W        W23624  37.087  19.188   2.315
59417W        W23625  25.156  33.611   0.741
59418W        W23626  36.910   6.244  11.466
59419W        W23627  34.511   8.888  11.995
59420W        W23628  34.892  36.097   1.826
59421W        W23629  32.903  14.680  11.517
59422W        W23630  28.653  35.871  14.280
59423W        W23631  35.103  13.242   5.129
59424W        W23632  22.091  22.065  12.937
59425W        W23633  10.652  22.057   3.664
59426W        W23634   3.777  33.977  13.850
59427W        W23635  10.266  39.905   1.316
59428W        W23636   7.205  21.143  13.969
59429W        W23637  20.178  11.819   4.211
59430W        W23638  33.413   1.419  12.879
59431W        W23639  38.371  15.189  14.378
59432W        W23640  11.772  28.540  12.535
59433W        W23641  13.822  36.525  14.846
59434W        W23642   1.368  16.782  11.044
59435W        W23643  30.622   2.341   3.201
59436W        W23644   3.432   7.815  12.358
59437W        W23645  27.073  24.103   2.735
59438W        W23646   4.264   2.375   0.275
59439W        W23647  43.308  41.502   3.855
59440W        W23648  39.852  12.841  11.398
59441W        W23649  15.682  26.029   0.275
59442W        W23650  25.650  13.149   3.631
59443W        W23651   5.216  27.182   1.775
59444W        W23652  17.249  24.211   1.388
59445W        W23653   8.659  23.516  12.577
59446W        W23654  35.961  10.748   0.461
59447W        W23655  16.676  20.226  13.037
59448W        W23656   2.394   8.705   2.714
59449W        W23657  11.312   0.318   3.792
59450W        W23658  29.933   2.322   4.346
59451W        W23659  30.078  25.218   0.340
59452W        W23660  44.986   5.273   3.860
59453W        W23661  22.581  26.164  12.455
59454W        W23662  39.870  31.942  13.942
59455W        W23663  19.657  20.732  14.457
59456W        W23664  43.810  38.892   3.301
59457W        W23665  43.829  36.378   4.746
59458W        W23666  20.629  17.773  11.978
59459W        W23667  38.042  22.119  13.504
59460W        W23668   0.286  25.020  13.849
59461W        W23669  13.753  40.507   3.185
59462W        W23670   2.358  28.474  14.479
59463W        W23671  20.264  39.990   2.316
59464W        W23672  31.140  27.687  10.559
59465W        W23673  25.521   0.315  13.418
59466W        W23674  38.900  28.177   4.788
59467W        W23675  41.828  12.213  13.058
59468W        W23676  32.562  19.552   4.820
59469W        W23677   7.316  34.894  12.969
59470W        W23678  23.610  35.526   4.680
59471W        W23679  43.836  32.406  14.281
59472W        W23680  11.679  34.999   2.751
59473W        W23681  36.500   1.445  12.573
59474W        W23682  30.122  21.617   3.269
59475W        W23683  43.334  18.689   0.277
59476W        W23684   3.783  35.442  11.465
59477W        W23685  41.887  25.508   4.622
59478W        W23686  34.565  10.286   0.368
59479W        W23687  44.376  31.556  10.427
59480W        W23688  42.021   0.942  13.959
59481W        W23689   0.488  13.163  12.524
59482W        W23690  23.223  12.162   2.191
59483W        W23691  19.271  10.192  14.901
59484W        W23692   7.760   4.737   3.637
59485W        W23693  20.671  30.418  11.014
59486W        W23694   5.439   8.271   4.218
59487W        W23695  34.377  32.424  12.425
59488W        W23696  38.535  43.988   0.438
59489W        W23697  39.540   5.842   2.253
59490W        W23698  20.740  19.219   4.828
59491W        W23699  11.625  35.872  10.498
59492W        W23700   5.708  39.552  12.980
59493W        W23701  39.856  14.771   4.297
59494W        W23702  35.530   9.353  14.001
59495W        W23703   5.816   4.787   2.378
59496W        W23704  14.316   4.296   3.722
59497W        W23705  24.114  42.930  14.909
59498W        W23706  25.132  29.050   1.281
59499W        W23707  22.588   5.843  13.043
59500W        W23708   2.762  42.351   2.690
59501W        W23709  41.393  36.950   3.322
59502W        W23710  25.673  44.845  12.850
59503W        W23711  25.016  42.013  13.516
59504W        W23712   9.372  25.052  13.509
59505W        W23713  14.715   8.329  11.456
59506W        W23714  36.934  27.563  12.398
59507W        W23715  12.798  43.488  11.888
59508W        W23716   2.425  35.075  12.964
59509W        W23717  21.579  33.035  14.868
59510W        W23718  31.483  38.035  14.929
59511W        W23719   2.836   5.396   2.311
59512W        W23720  21.178  34.375   3.778
59513W        W23721  37.386   1.923  12.412
59514W        W23722  39.483  35.411  11.431
59515W        W23723  24.223   0.927   4.746
59516W        W23724  31.116  21.044   1.317
59517W        W23725  13.262  31.527   1.825
59518W        W23726  22.032  29.142  10.533
59519W        W23727  44.331  33.929   0.351
59520W        W23728   6.856  10.679  14.822
59521W        W23729  22.995   4.275  11.919
59522W        W23730  35.376   7.242  11.026
59523W        W23731  13.115  43.008  11.517
59524W        W23732   1.933  19.555   2.721
59525W        W23733  17.164   1.973   4.337
59526W        W23734  13.826  23.214  11.937
59527W        W23735  35.002   8.737   4.227
59528W        W23736   6.209  35.999  14.360
59529W        W23737  17.758  25.590  12.985
59530W        W23738  17.697  44.387   1.430
59531W        W23739  18.768   9.876   0.757
59532W        W23740  20.254  26.209   4.743
59533W        W23741  26.670  30.108   4.201
59534W        W23742  34.118  42.851   4.717
59535W        W23743  24.180  39.850   4.653
59536W        W23744   8.856  22.027  11.458
59537W        W23745  19.144  44.994  14.386
59538W        W23746   5.742  32.599  10.416
59539W        W23747  24.482   9.711   3.156
59540W        W23748   7.803  30.618  11.922
59541W        W23749  32.139  21.067  14.010
59542W        W23750  10.156  13.631   1.425
59543W        W23751  38.988  10.267  13.981
59544W        W23752  36.020  44.811  12.981
59545W        W23753  23.621  14.748   0.837
59546W        W23754  29.515  43.983   0.269
59547W        W23755  19.569  11.681  12.492
59548W        W23756  21.707  29.014   1.446
59549W        W23757  31.528  20.256   0.902
59550W        W23758  12.689  35.095   2.864
59551W        W23759  11.654  31.150  13.871
59552W        W23760  24.630  28.107   1.740
59553W        W23761  16.155  20.273  14.771
59554W        W23762  34.978   5.387   0.444
59555W        W23763  20.101  37.449  13.999
59556W        W23764  10.723  36.939  11.386
59557W        W23765  23.709  28.934   2.210
59558W        W23766   0.261  26.616  12.472
59559W        W23767   5.241   8.290  11.555
59560W        W23768  14.108  35.923  14.504
59561W        W23769  10.873  25.049  14.917
59562W        W23770  35.423  24.163   3.829
59563W        W23771  25.972  21.586  13.036
59564W        W23772   2.831  12.733   4.696
59565W        W23773   3.450  39.527  13.821
59566W        W23774  11.342   7.177   0.760
59567W        W23775  19.661   7.863  14.397
59568W        W23776  30.588  24.508  12.850
59569W        W23777  38.546  35.045  14.888
59570W        W23778  13.266   7.226  13.316
59571W        W23779  36.904   0.317  11.477
59572W        W23780  38.979   6.912   4.230
59573W        W23781  23.592  42.938   3.349
59574W        W23782  15.687  22.505  10.943
59575W        W23783  41.996   7.318   3.332
59576W        W23784  17.175  29.504   1.254
59577W        W23785  11.162  31.103   0.396
59578W        W23786   3.735  23.199  11.431
59579W        W23787  17.583  28.124  10.619
59580W        W23788   6.735  23.631   0.860
59581W        W23789   1.959  30.614   0.369
59582W        W23790   2.447   7.299  12.404
59583W        W23791   9.238  32.550   0.314
59584W        W23792  11.633  10.375   2.414
59585W        W23793  15.694  30.081   0.737
59586W        W23794  33.415  22.171  11.601
59587W        W23795  44.960  41.451   3.755
59588W        W23796  31.109  37.856  13.486
59589W        W23797  44.861   0.939  11.948
59590W        W23798  26.506  22.091  11.997
59591W        W23799  18.254  17.623   1.327
59592W        W23800  40.844   5.272  10.042
59593W        W23801  22.713  18.121  10.923
59594W        W23802  41.964   7.758  13.362
59595W        W23803  25.527  38.897  12.988
59596W        W23804   6.684   0.416   2.395
59597W        W23805  41.400  43.979  13.845
59598W        W23806  12.816  40.447   3.697
59599W        W23807  34.513  26.491  12.481
59600W        W23808  34.461  18.573  12.428
59601W        W23809   1.913  18.626   4.168
59602W        W23810  29.062  32.079  11.106
59603W        W23811  10.176  23.199   5.103
59604W        W23812  12.174  13.118   1.927
59605W        W23813  42.878  35.106  14.005
59606W        W23814  20.198   2.783  13.311
59607W        W23815  30.093  18.593   0.434
59608W        W23816   1.737  34.878   3.810
59609W        W23817   3.773   7.757  12.546
59610W        W23818  41.869  38.997   1.912
59611W        W23819  30.017  34.892  11.607
59612W        W23820  18.276  43.369   0.267
59613W        W23821   1.950  13.351  11.414
59614W        W23822  29.134  32.909   0.286
59615W        W23823  22.071  20.264   0.728
59616W        W23824  36.527  28.997   2.843
59617W        W23825  39.343  32.601  14.993
59618W        W23826  26.688  20.234  14.992
59619W        W23827  42.907  18.255   5.705
59620W        W23828  35.954  38.562  14.962
59621W        W23829  19.272   4.441   4.644
59622W        W23830  39.830  20.129  11.996
59623W        W23831  10.729  23.654   0.911
59624W        W23832  18.683  32.908  14.950
59625W        W23833  31.520  10.212  12.511
59626W        W23834   1.839  37.473  12.551
59627W        W23835  28.590  35.513  14.496
59628W        W23836  25.540   9.854  11.890
59629W        W23837   0.295  44.339  12.941
59630W        W23838  41.984  42.930  11.526
59631W        W23839  21.170  32.513  10.445
59632W        W23840   7.205  10.169   1.444
59633W        W23841   0.460  44.761  14.789
59634W        W23842   9.855  16.586   2.326
59635W        W23843  30.558   6.713  11.428
59636W        W23844   4.773  30.460   4.262
59637W        W23845  23.144  10.635   3.780
59638W        W23846  18.146  29.428  11.418
59639W        W23847  27.994  38.953   4.675
59640W        W23848  13.163   2.731  13.500
59641W        W23849  16.101  24.089  13.517
59642W        W23850   4.796  22.524   3.779
59643W        W23851   9.202   7.199   0.838
59644W        W23852  20.140  42.810  10.436
59645W        W23853  36.040   4.281   3.686
59646W        W23854  23.173  37.834   3.753
59647W        W23855  34.046   1.397   2.703
59648W        W23856  20.053  26.629   1.385
59649W        W23857  27.656  27.106  14.800
59650W        W23858  35.536   9.201  10.985
59651W        W23859   2.955  11.345   1.274
59652W        W23860   6.303  38.419   9.939
59653W        W23861  26.964  25.978  11.980
59654W        W23862  33.500  34.955  12.984
59655W        W23863  17.294  39.556   2.360
59656W        W23864  32.473   7.242   4.653
59657W        W23865  25.092   1.793  12.489
59658W        W23866   2.319  34.614  14.990
59659W        W23867  13.293  11.232  12.825
59660W        W23868  36.451  30.652   3.720
59661W        W23869  40.306   0.449   2.700
59662W        W23870   3.439  26.998   4.202
59663W        W23871  44.937  26.590   3.359
59664W        W23872  18.720  36.862  10.486
59665W        W23873   0.918  30.110  11.046
59666W        W23874  40.484  31.535   0.897
59667W        W23875  19.539  30.939   3.358
59668W        W23876   7.200   5.344   1.381
59669W        W23877  32.399  27.121  14.851
59670W        W23878  43.270   4.309   2.687
59671W        W23879  33.445  27.084   2.238
59672W        W23880   4.243  20.551   2.252
59673W        W23881  37.930  27.159  11.961
59674W        W23882  16.186  31.943   3.290
59675W        W23883  11.324  43.358   1.896
59676W        W23884  15.750  43.485  13.380
59677W        W23885  24.079   8.669  11.020
59678W        W23886  31.917  12.330  10.972
59679W        W23887  12.781   3.893  11.378
59680W        W23888  16.231  16.589  14.845
59681W        W23889  22.121  19.238   1.376
59682W        W23890  36.558  13.726  11.961
59683W        W23891  29.480  41.800   1.297
59684W        W23892  37.523   5.218   0.285
59685W        W23893   4.318  19.269   3.842
59686W        W23894  16.768  20.653  12.952
59687W        W23895   5.700  25.998  10.515
59688W        W23896  44.406  40.855  13.826
59689W        W23897   1.964  32.494  13.795
59690W        W23898  26.543   1.932   4.626
59691W        W23899  32.132  44.872   3.757
59692W        W23900  23.563  27.000   2.791
59693W        W23901  34.419  24.575   0.251
59694W        W23902   9.366  18.631  14.442
59695W        W23903  42.493   9.806   1.761
59696W        W23904  27.137   9.341   3.696
59697W        W23905   4.305  20.257   3.731
59698W        W23906  34.023  15.593  13.495
59699W        W23907  17.208  11.801  12.438
59700W        W23908  37.432  42.869  11.391
59701W        W23909  17.648  43.869   3.173
59702W        W23910  14.242  12.638  13.798
59703W        W23911  23.190   3.361  14.275
59704W        W23912  11.693  32.426   1.298
59705W        W23913  41.809  24.669   4.226
59706W        W23914  33.483  44.259  11.426
59707W        W23915   1.244  25.713  11.975
59708W        W23916  34.546   0.837  10.599
59709W        W23917  30.598   9.743   4.207
59710W        W23918  19.055   7.713   1.437
59711W        W23919  30.616   4.226  14.879
59712W        W23920  40.345  44.802   0.328
59713W        W23921  28.027  35.579   4.166
59714W        W23922  28.099   2.780   3.751
59715W        W23923  19.168  33.453  13.028
59716W        W23924  13.113  27.604  11.118
59717W        W23925   0.457  43.994   2.708
59718W        W23926  33.946  24.161   4.705
59719W        W23927  10.653  17.072  12.469
59720W        W23928  36.867  23.707  11.862
59721W        W23929  12.779  14.606  12.538
59722W        W23930   7.732  19.694   5.138
59723W        W23931  31.007  11.359  11.440
59724W        W23932  20.210  19.197  12.497
59725W        W23933  21.088  28.601   3.379
59726W        W23934  28.160  37.941   2.712
59727W        W23935   7.838  12.727   2.672
59728W        W23936   5.241  26.973  14.014
59729W        W23937  34.434   8.893   3.691
59730W        W23938  36.445  38.414  12.355
59731W        W23939  28.136  10.240  11.409
59732W        W23940  27.512   8.789   0.936
59733W        W23941   2.819   1.437  10.565
59734W        W23942   6.824  25.607  10.926
59735W        W23943   1.457  11.659   2.274
59736W        W23944  28.607  43.358   2.270
59737W        W23945  43.273   5.234  11.915
59738W        W23946  25.483  34.574   3.362
59739W        W23947  15.661   3.886   0.830
59740W        W23948  14.230  11.791   4.248
59741W        W23949  35.461  13.114   3.745
59742W        W23950  32.604  35.484  12.994
59743W        W23951  44.915  32.408   2.312
59744W        W23952  44.264   2.795  14.825
59745W        W23953  29.647  35.375  13.017
59746W        W23954  22.032  27.685  14.888
59747W        W23955  10.227   3.841   1.774
59748W        W23956  39.528  33.905  10.439
59749W        W23957  15.644  12.277  11.571
59750W        W23958  20.561  41.797  13.528
59751W        W23959  43.016  15.712  11.475
59752W        W23960  13.143  16.259  13.953
59753W        W23961  22.677  26.539  11.525
59754W        W23962  13.622  10.801  10.425
59755W        W23963  37.954  12.738  11.603
59756W        W23964  13.305  42.972  13.474
59757W        W23965  26.698  16.133  13.842
59758W        W23966  38.875  28.463  12.549
59759W        W23967   1.910  15.628   1.886
59760W        W23968  41.506  39.998  12.984
59761W        W23969   4.343  30.510  11.886
59762W        W23970  29.921   2.364  13.869
59763W        W23971  29.640  11.363  12.376
59764W        W23972  11.838  12.270   0.775
59765W        W23973  16.272  42.859  13.476
59766W        W23974   8.874  31.036   1.704
59767W        W23975   5.707  27.110  12.881
59768W        W23976  31.935  41.417  10.138
59769W        W23977  16.764  21.204   4.717
59770W        W23978  37.043  41.532  12.418
59771W        W23979  35.876  26.960   4.658
59772W        W23980  17.771  15.578   3.764
59773W        W23981  19.606  18.151   0.381
59774W        W23982  13.778  23.654   3.345
59775W        W23983  34.965   0.370   1.363
59776W        W23984  37.499   9.297  11.396
59777W        W23985  32.967   3.929   0.807
59778W        W23986   4.352   0.965  10.900
59779W        W23987   7.193  29.106   4.772
59780W        W23988  16.297  15.788  11.966
59781W        W23989  16.712   8.696   5.305
59782W        W23990  39.438  18.661   2.765
59783W        W23991  27.642  43.827   3.735
59784W        W23992  41.331  36.461   0.377
59785W        W23993  41.839   4.739   4.720
59786W        W23994   1.456  26.475  13.355
59787W        W23995  31.930   1.820  11.059
59788W        W23996  24.682  44.269  11.546
59789W        W23997  16.247   0.308  11.377
59790W        W23998  23.094  20.102   0.440
59791W        W23999   0.865  19.724  14.402
59792W        W24000  44.292  25.168  13.398
59793W        W24001  32.600  19.578   1.435
59794W        W24002   8.724   4.408  14.446
59795W        W24003  35.025  39.824  13.348
59796W        W24004  13.714  21.223  13.390
59797W        W24005  41.904  39.538  11.388
59798W        W24006  18.258  32.988   3.753
59799W        W24007  28.467  19.188   0.942
59800W        W24008  26.147   9.268  13.462
59801W        W24009   0.376  25.009   0.853
59802W        W24010  14.253  22.557   4.251
59803W        W24011  34.990  44.902  10.923
59804W        W24012  27.010  43.276  11.922
59805W        W24013  28.053  13.608  10.952
59806W        W24014  14.701  40.929   4.639
59807W        W24015  27.055  35.050   4.244
59808W        W24016  31.411  16.587  12.933
59809W        W24017  14.265  29.569  14.018
59810W        W24018  22.077  43.376   0.751
59811W        W24019  29.948  40.522   3.678
59812W        W24020  33.033  20.710  13.058
59813W        W24021  16.115  22.250   2.889
59814W        W24022   9.889   2.417  14.386
59815W        W24023   3.768  26.594  12.038
59816W        W24024   6.872  26.599  13.837
59817W        W24025  31.436  42.014   3.710
59818W        W24026  39.062  33.104  12.537
59819W        W24027  35.037  28.530   0.877
59820W        W24028  31.044  33.893  10.642
59821W        W24029  40.903   7.848   4.613
59822W        W24030  29.014  33.578   3.832
59823W        W24031  33.056   3.914   3.263
59824W        W24032  44.954  28.044  10.590
59825W        W24033  15.733   9.214  11.063
59826W        W24034  35.375  31.066  14.784
59827W        W24035  22.650   9.175  11.529
59828W        W24036   5.780   4.283   3.781
59829W        W24037  42.474  32.451   0.483
59830W        W24038  17.763  40.975   1.426
59831W        W24039  32.547  21.090  13.907
59832W        W24040  34.094  34.986  13.500
59833W        W24041  41.472  28.067  10.596
59834W        W24042  21.019  22.649   3.759
59835W        W24043  39.886   6.395  12.347
59836W        W24044  41.359  25.026   0.384
59837W        W24045  30.003   1.737  10.444
59838W        W24046  19.209  19.043  14.870
59839W        W24047  15.678  41.377   0.326
59840W        W24048  27.012  40.896   0.796
59841W        W24049  44.929  39.857  12.871
59842W        W24050  38.891  43.316   4.245
59843W        W24051  25.653  37.405   2.407
59844W        W24052  29.521  40.041   1.697
59845W        W24053   6.358  11.142   4.328
59846W        W24054  21.549  38.069  13.523
59847W        W24055  12.732  18.782  11.985
59848W        W24056  24.703  32.035   1.394
59849W        W24057   3.880  12.245   2.833
59850W        W24058  29.983   4.851   2.185
59851W        W24059  12.173  27.108  13.423
59852W        W24060  14.154  40.806   1.356
59853W        W24061  35.385   4.884  13.360
59854W        W24062   2.898   1.748   2.252
59855W        W24063  15.805  27.973   2.671
59856W        W24064  31.007  20.537  13.418
59857W        W24065  19.596  31.073   2.388
59858W        W24066  36.435  23.147   1.403
59859W        W24067  39.383  23.641  13.817
59860W        W24068   2.246  33.503  11.104
59861W        W24069  44.373  22.738   0.451
59862W        W24070  40.507  19.265   4.757
59863W        W24071  33.403  16.682   1.923
59864W        W24072  34.540   3.837   3.644
59865W        W24073  32.132  40.893  13.834
59866W        W24074  30.613  43.900  11.483
59867W        W24075   2.889   6.216   0.433
59868W        W24076   9.234  37.925  14.813
59869W        W24077   7.399  15.669  12.946
59870W        W24078   7.780   4.939  13.910
59871W        W24079  29.581  32.403   2.889
59872W        W24080  17.064  26.122   4.802
59873W        W24081  21.095  31.080  12.380
59874W        W24082  36.582  36.943   3.359
59875W        W24083   6.250   0.370  10.610
59876W        W24084   1.479  38.567   1.801
59877W        W24085  24.568  32.524   4.132
59878W        W24086  24.982  18.701   1.790
59879W        W24087   5.887  38.863   3.761
59880W        W24088   7.688  28.942  12.374
59881W        W24089  32.483  17.075   0.744
59882W        W24090  17.664  34.537  11.571
59883W        W24091  14.132  42.951  12.933
59884W        W24092  31.540  34.411   0.808
59885W        W24093  14.238  14.137  10.640
59886W        W24094   1.351  10.859   2.362
59887W        W24095   0.486  15.207   2.319
59888W        W24096  28.931  35.982   3.326
59889W        W24097  15.708  19.215  14.323
59890W        W24098  18.266   8.749  12.347
59891W        W24099   6.276  16.302  12.086
59892W        W24100  16.302  41.989  10.897
59893W        W24101   4.907  28.956   1.313
59894W        W24102  27.015  26.623   0.749
59895W        W24103  18.605  14.273  11.057
59896W        W24104  14.706  14.116  11.410
59897W        W24105   1.806   7.721  13.978
59898W        W24106   1.471   1.745   0.385
59899W        W24107   6.367  24.555   0.948
59900W        W24108  26.057  39.864  14.841
59901W        W24109  10.731  28.490   1.400
59902W        W24110  14.297  41.477   4.312
59903W        W24111   2.791  35.532   0.332
59904W        W24112   4.788   8.756  13.865
59905W        W24113   9.874  34.978   3.762
59906W        W24114  36.968   3.414  10.593
59907W        W24115  36.861  42.844  14.486
59908W        W24116   7.192   8.692   1.376
59909W        W24117  17.733  44.849   4.716
59910W        W24118  37.034  30.542   0.327
59911W        W24119  12.814  36.447  11.961
59912W        W24120   6.761  19.587   3.822
59913W        W24121   4.719   5.360  12.895
59914W        W24122   8.709  29.495  13.829
59915W        W24123   1.376  29.604   2.192
59916W        W24124  18.781  11.324   0.751
59917W        W24125   1.850  20.615   2.836
59918W        W24126   0.274  11.203   3.168
59919W        W24127   2.250  36.378   0.260
59920W        W24128  32.482  17.119   3.693
59921W        W24129   5.759  38.001  10.485
59922W        W24130  29.498  43.767  13.835
59923W        W24131  22.027  14.265  12.014
59924W        W24132  38.858  13.649   3.654
59925W        W24133  20.086   2.437  12.869
59926W        W24134  34.458  16.251  14.489
59927W        W24135   6.281  20.206   4.347
59928W        W24136  22.706   1.417  12.011
59929W        W24137  34.050  17.672   2.815
59930W        W24138  33.610  21.654   4.800
59931W        W24139  42.305   8.161   0.262
59932W        W24140  24.043  14.679  12.444
59933W        W24141  22.735   3.439   4.660
59934W        W24142  11.356  16.746   4.274
59935W        W24143  26.065  19.673   4.338
59936W        W24144  41.959  24.183  10.080
59937W        W24145  37.913  37.008  13.442
59938W        W24146   6.241   0.358  10.154
59939W        W24147   1.956  15.691   4.306
59940W        W24148   4.738  42.397   2.866
59941W        W24149   6.358  15.189  11.449
59942W        W24150  18.121   8.335  14.420
59943W        W24151  32.960  15.708  14.798
59944W        W24152   6.315  44.464   3.353
59945W        W24153  43.981  10.326  12.974
59946W        W24154  36.411  39.851  14.929
59947W        W24155  30.489   4.368  14.425
59948W        W24156  36.428  39.870   2.886
59949W        W24157  21.073  20.628   0.380
59950W        W24158  26.976  21.216  13.507
59951W        W24159  28.049  38.936  10.459
59952W        W24160  39.429  18.570  14.471
59953W        W24161  16.716   1.910   4.718
59954W        W24162  13.691  11.829  13.901
59955W        W24163  13.167   2.390  13.793
59956W        W24164  29.635  21.150  14.020
59957W        W24165  23.098   7.715  11.091
59958W        W24166   3.809  43.838   2.835
59959W        W24167  23.067  37.499   0.361
59960W        W24168   1.768  41.500   3.275
59961W        W24169  42.327  28.087   1.712
59962W        W24170  19.610  11.753   0.819
59963W        W24171  21.600   6.229  11.531
59964W        W24172  41.449   4.347   5.143
59965W        W24173  28.526  43.775  13.364
59966W        W24174  10.680   1.889  13.859
59967W        W24175  22.608  26.542  12.867
59968W        W24176  24.089  37.927  13.367
59969W        W24177  15.115  42.305   2.853
59970W        W24178   2.268  34.988  13.948
59971W        W24179  44.350  10.196   3.371
59972W        W24180  16.303  34.418  11.899
59973W        W24181   9.808  13.232  12.425
59974W        W24182  23.554  27.641  14.932
59975W        W24183  27.494  35.427  13.938
59976W        W24184  24.596  44.975  11.019
59977W        W24185  36.369  30.470  11.040
59978W        W24186  34.026  20.663   4.293
59979W        W24187   1.436   2.315  13.403
59980W        W24188  26.473  34.420   3.216
59981W        W24189   4.822   1.770   0.275
59982W        W24190  22.618  38.530   3.335
59983W        W24191  15.696  10.146   3.370
59984W        W24192  31.601  42.983   4.745
59985W        W24193  29.515  41.418   4.294
59986W        W24194  36.379  26.484  12.523
59987W        W24195  26.061  27.505   0.864
59988W        W24196   6.349  27.178   2.356
59989W        W24197  23.546  20.769  12.469
59990W        W24198  40.365  31.445   1.863
59991W        W24199  44.911  42.956   0.455
59992W        W24200  23.161  13.638  13.344
59993W        W24201  21.127  19.543  10.450
59994W        W24202  10.647  42.904   2.213
59995W        W24203  36.535   2.469   0.867
59996W        W24204  28.674  31.993  12.358
59997W        W24205  41.929   2.353   1.926
59998W        W24206   6.295  33.022   3.276
59999W        W24207  27.988  36.929   0.294
60000W        W24208  16.797  34.917   2.702
60001W        W24209  25.637  20.610   0.820
60002W        W24210  39.996  41.373  13.995
60003W        W24211   8.724  37.961   4.715
60004W        W24212   2.358   1.785   5.139
60005W        W24213  41.903  21.178   0.289
60006W        W24214  31.113   0.438  11.057
60007W        W24215  38.361   8.787  11.057
60008W        W24216  31.416  43.487   2.778
60009W        W24217  21.657  15.820  11.389
60010W        W24218  13.256   3.825   0.281
60011W        W24219  21.138  34.065   3.200
60012W        W24220  35.480  41.823  14.871
60013W        W24221   0.865   4.820   1.223
60014W        W24222  25.195  31.967  14.316
60015W        W24223  25.963  25.023   1.215
60016W        W24224  28.445   0.444   0.924
60017W        W24225   2.786   9.229   3.764
60018W        W24226  40.959  28.952  14.429
60019W        W24227   1.935  28.453   2.780
60020W        W24228  34.960  35.913   2.387
60021W        W24229  24.215  25.583   3.707
60022W        W24230  42.432   7.720   0.297
60023W        W24231  26.630  27.079  12.539
60024W        W24232  27.533  36.901   4.354
60025W        W24233  12.190  28.174  10.606
60026W        W24234  43.930  36.033   4.684
60027W        W24235  28.656   1.306   2.322
60028W        W24236  43.812  38.494  11.889
60029W        W24237  22.039  34.412   3.663
60030W        W24238  37.366  22.566  13.864
60031W        W24239  36.965  35.420  14.796
60032W        W24240  18.738  16.765  10.535
60033W        W24241  25.193  40.801  12.413
60034W        W24242  23.146  19.697   3.827
60035W        W24243  16.147  19.567   5.247
60036W        W24244  41.833  10.728  10.528
60037W        W24245  19.726  30.083  14.031
60038W        W24246  18.581  23.175  11.440
60039W        W24247  14.834  41.477   4.128
60040W        W24248  30.562  34.989   0.402
60041W        W24249  14.828   6.224   3.792
60042W        W24250  10.169  11.338   9.522
60043W        W24251  41.299  22.560   4.752
60044W        W24252  40.523  34.032  12.563
60045W        W24253  30.078  35.440  10.941
60046W        W24254  21.104  27.497   2.790
60047W        W24255   6.701   8.356   4.754
60048W        W24256  10.664   7.405  14.350
60049W        W24257  11.175  44.323  14.396
60050W        W24258   3.344  31.444  13.494
60051W        W24259  33.974  14.733   4.606
60052W        W24260  43.284  12.635  13.910
60053W        W24261  25.042  10.257  11.124
60054W        W24262  28.599  34.941   3.693
60055W        W24263  24.165  30.031  12.340
60056W        W24264  27.043   2.329  11.025
60057W        W24265  14.228  42.835   2.717
60058W        W24266  18.176  25.617  13.479
60059W        W24267  30.510   3.909   3.741
60060W        W24268   5.432  11.627  13.314
60061W        W24269   3.335  15.199   0.309
60062W        W24270  26.681  21.147   3.377
60063W        W24271  33.926  32.918  12.033
60064W        W24272   0.312  26.990   1.907
60065W        W24273   9.676  20.719  12.855
60066W        W24274  35.864  15.691  13.854
60067W        W24275   9.382  21.074   0.842
60068W        W24276  11.333  40.958   2.735
60069W        W24277   4.205  33.052  13.543
60070W        W24278  32.033   1.257   4.125
60071W        W24279  13.305  43.816  13.308
60072W        W24280  38.882  44.279  13.940
60073W        W24281   6.919   5.289  10.541
60074W        W24282  43.850  20.044  12.576
60075W        W24283  15.584  21.038   0.730
60076W        W24284  25.106  30.125  12.536
60077W        W24285   6.296  33.595   0.880
60078W        W24286  15.793  20.182   4.709
60079W        W24287  15.667  31.906   9.975
60080W        W24288   3.282  17.256  13.957
60081W        W24289  12.217  20.237   0.817
60082W        W24290  37.533  28.994   0.967
60083W        W24291  14.283  43.849   1.381
60084W        W24292  17.101  27.104  14.813
60085W        W24293  38.001   1.758   4.696
60086W        W24294   2.916   0.445  13.831
60087W        W24295  40.914  35.541  12.407
60088W        W24296  24.226  22.568  10.897
60089W        W24297  24.694   2.965  12.558
60090W        W24298  32.948  26.188   4.250
60091W        W24299  31.007  38.560   3.218
60092W        W24300  24.029  24.093  11.022
60093W        W24301  26.996   3.792  13.011
60094W        W24302  24.549   3.777  13.497
60095W        W24303  43.776  43.411  10.946
60096W        W24304  35.992  21.261  13.366
60097W        W24305  10.248  13.155  10.553
60098W        W24306  42.946  34.615   3.375
60099W        W24307   5.826  11.784   1.834
60100W        W24308  25.647  15.739  13.330
60101W        W24309  15.619  32.454   3.859
60102W        W24310  37.442  31.120  13.442
60103W        W24311  20.028  20.116  14.446
60104W        W24312  11.241  14.817   3.753
60105W        W24313  11.227   9.307   0.344
60106W        W24314   0.925  30.024   1.761
60107W        W24315  19.272  39.326  11.563
60108W        W24316  14.810  39.883  12.411
60109W        W24317   3.785  17.580   4.620
60110W        W24318  17.207   3.455  10.405
60111W        W24319   8.291  37.464  14.949
60112W        W24320  44.423  26.161   3.776
60113W        W24321   5.361  15.578   3.828
60114W        W24322  44.490  40.416   1.904
60115W        W24323  25.164  23.497  14.380
60116W        W24324   7.818  20.102  13.872
60117W        W24325  29.603  17.222  12.454
60118W        W24326  14.809   2.338   3.207
60119W        W24327  18.670  13.715  12.492
60120W        W24328  13.335  37.869  13.500
60121W        W24329  29.620  18.283   3.289
60122W        W24330  36.584   2.292   0.282
60123W        W24331  20.101  28.587   4.297
60124W        W24332   2.793  12.822  13.396
60125W        W24333  30.977  10.778  13.321
60126W        W24334  35.915  30.577   4.692
60127W        W24335   8.163  41.961  10.962
60128W        W24336   8.802  43.405  14.468
60129W        W24337  19.642  24.981  14.879
60130W        W24338  36.480   8.282   4.255
60131W        W24339  22.639  24.154  12.881
60132W        W24340  31.912  40.884  14.967
60133W        W24341  20.718  28.462   1.699
60134W        W24342  36.513  40.302  10.131
60135W        W24343  30.528  44.893   4.741
60136W        W24344  38.964  10.264   1.897
60137W        W24345  19.572   8.745  10.002
60138W        W24346  20.711  12.850  11.459
60139W        W24347   6.410  29.490   0.850
60140W        W24348   3.246  29.928  10.939
60141W        W24349  24.495  31.132   4.204
60142W        W24350  33.523  44.443  12.444
60143W        W24351  43.439  13.153  13.828
60144W        W24352  27.609  28.072   0.400
60145W        W24353  23.670  24.153   2.369
60146W        W24354  39.891  31.501  12.911
60147W        W24355  13.682  21.712   4.758
60148W        W24356   0.828   4.213   2.877
60149W        W24357  21.737   8.800   4.739
60150W        W24358  37.935  31.503  11.597
60151W        W24359  34.051  33.590   3.770
60152W        W24360  24.080   8.777   0.263
60153W        W24361   1.733   3.846  11.888
60154W        W24362   8.398  22.550  13.009
60155W        W24363  10.188  16.767  13.399
60156W        W24364   2.352  40.031   0.389
60157W        W24365  12.243   8.189   3.783
60158W        W24366  33.109   9.275   1.270
60159W        W24367  44.932  37.351  11.565
60160W        W24368  25.607  43.350  13.462
60161W        W24369  14.730  22.009  14.461
60162W        W24370  36.373   7.712   2.417
60163W        W24371  16.633   2.859  13.907
60164W        W24372   3.919  30.417   2.239
60165W        W24373  37.469  22.068  13.544
60166W        W24374   6.855  29.635  11.378
60167W        W24375  40.832   7.906   4.281
60168W        W24376  17.194   8.761  11.022
60169W        W24377  32.499  36.382   2.182
60170W        W24378  35.457   6.724  14.347
60171W        W24379  32.886  21.712   1.330
60172W        W24380  43.809  17.784   4.285
60173W        W24381  38.408  31.081  11.520
60174W        W24382  33.416  13.154  13.957
60175W        W24383   9.809  13.739   3.633
60176W        W24384  44.769  13.216  14.927
60177W        W24385   4.825  38.331  14.388
60178W        W24386  27.118   2.437  11.569
60179W        W24387  42.463   2.765  14.449
60180W        W24388  21.534   7.797  10.091
60181W        W24389  13.725   5.327  13.050
60182W        W24390  17.681   6.351   0.353
60183W        W24391  35.928  22.728  14.366
60184W        W24392  18.067  42.351   0.245
60185W        W24393  32.423  31.105  13.005
60186W        W24394  38.541   3.778   2.711
60187W        W24395  13.218   4.392   3.703
60188W        W24396  10.697  36.488  13.979
60189W        W24397   9.157  36.351  11.963
60190W        W24398  39.059  29.547  13.983
60191W        W24399  38.513  19.088  13.902
60192W        W24400  21.161  24.128  10.452
60193W        W24401   7.335   2.359  13.849
60194W        W24402   5.786  40.443   4.344
60195W        W24403  25.011   5.209  14.310
60196W        W24404  25.121  41.012   2.269
60197W        W24405   4.874   1.857  10.034
60198W        W24406  16.651  13.762   3.288
60199W        W24407  16.776  31.528  13.858
60200W        W24408  26.640  17.162   5.210
60201W        W24409  22.643   2.320  11.418
60202W        W24410   2.738  36.447   3.350
60203W        W24411   6.419   0.828  11.920
60204W        W24412  30.062  12.817   2.417
60205W        W24413  32.124  25.665  14.854
60206W        W24414   8.377  22.152   0.287
60207W        W24415   1.823   9.188   1.314
60208W        W24416  42.487  21.544  13.479
60209W        W24417  43.844  43.812  14.782
60210W        W24418  31.584  24.519  10.937
60211W        W24419  24.028  25.564   0.318
60212W        W24420  37.394   9.721  11.454
60213W        W24421  32.403  20.549  14.895
60214W        W24422  43.865  27.000  14.953
60215W        W24423  25.214   4.749   3.315
60216W        W24424   7.396   9.798   4.646
60217W        W24425  27.951  17.705  13.949
60218W        W24426  30.159  33.409   2.748
60219W        W24427   2.836   7.810  11.515
60220W        W24428   7.398   3.844   1.299
60221W        W24429  28.124   4.908  13.933
60222W        W24430   0.801  34.117   5.729
60223W        W24431   5.423  15.612  13.910
60224W        W24432  40.935  42.823   3.373
60225W        W24433  44.402  34.427   4.718
60226W        W24434  25.050   0.475  12.540
60227W        W24435  18.084   0.417   4.826
60228W        W24436  16.674   2.836  14.903
60229W        W24437  18.215  12.208   0.822
60230W        W24438  28.014   6.404   0.744
60231W        W24439  18.145  16.758   5.152
60232W        W24440  11.224  34.942  11.608
60233W        W24441  40.837   0.880   4.200
60234W        W24442  10.309   4.295  13.547
60235W        W24443  37.946  14.595   4.303
60236W        W24444  11.340  16.760  14.504
60237W        W24445  34.893  26.667   4.185
60238W        W24446  10.261  29.044  12.075
60239W        W24447  25.596  27.525   1.260
60240W        W24448  23.720  20.263   1.444
60241W        W24449  41.964  41.318   1.782
60242W        W24450  34.526  37.056  12.909
60243W        W24451  13.294  12.742  13.915
60244W        W24452   5.392  40.899  10.552
60245W        W24453  19.748  33.526   1.760
60246W        W24454   0.798  44.279   1.874
60247W        W24455   6.787  20.053   2.240
60248W        W24456  16.162  22.715   1.858
60249W        W24457  11.315   8.846   0.901
60250W        W24458  12.774  10.830   1.845
60251W        W24459   2.954  44.471  12.345
60252W        W24460  21.606   9.848  14.394
60253W        W24461  31.106   3.911  13.009
60254W        W24462   8.358  26.068  12.465
60255W        W24463  32.570   4.897   0.836
60256W        W24464   1.330  43.010   3.162
60257W        W24465  11.258   3.817  14.397
60258W        W24466  21.142  41.396   0.274
60259W        W24467  28.054  23.003   4.196
60260W        W24468  23.222  27.653  13.440
60261W        W24469  39.012  40.489   4.628
60262W        W24470  18.081  44.861  11.063
60263W        W24471   8.803  42.785   1.366
60264W        W24472  44.939  38.925  13.852
60265W        W24473   1.346  36.951  11.395
60266W        W24474   2.967  42.341   0.909
60267W        W24475  13.163   8.303   3.354
60268W        W24476  43.807  25.592  14.962
60269W        W24477  15.288  26.541   1.835
60270W        W24478  31.974  29.925   1.263
60271W        W24479   3.334  35.052  12.077
60272W        W24480  12.738  43.905   4.802
60273W        W24481   2.729   6.344  13.408
60274W        W24482  21.148  41.949   1.292
60275W        W24483   3.886  33.998  13.376
60276W        W24484   3.253  43.975   2.393
60277W        W24485  43.936  41.345   2.671
60278W        W24486   6.905  33.553   4.229
60279W        W24487  29.155  15.158  13.943
60280W        W24488  21.022  18.553   5.703
60281W        W24489  32.491  37.435   1.316
60282W        W24490  17.686   3.293   1.231
60283W        W24491  12.277  18.250  12.484
60284W        W24492  32.433  41.839  12.913
60285W        W24493  43.362   0.901  14.434
60286W        W24494  26.570  37.013   0.833
60287W        W24495   7.728  24.536   3.316
60288W        W24496  32.069  16.757   5.280
60289W        W24497   3.723  15.124  13.356
60290W        W24498  15.298  29.588   4.301
60291W        W24499  23.051  14.658  11.521
60292W        W24500   0.326  21.027  14.313
60293W        W24501  31.599  41.478  14.325
60294W        W24502  13.341   2.857  10.511
60295W        W24503  40.527  24.086   4.733
60296W        W24504  40.512  16.679   2.865
60297W        W24505  43.297  37.832  11.411
60298W        W24506   4.410  27.605   4.310
60299W        W24507  16.772  23.134  13.329
60300W        W24508  13.779   8.387   3.185
60301W        W24509  24.701  11.680  10.959
60302W        W24510  22.218   3.436  10.607
60303W        W24511  30.422   0.845   3.172
60304W        W24512  23.671  16.219  12.944
60305W        W24513  15.640   1.924   1.302
60306W        W24514  38.819  17.228   0.423
60307W        W24515  36.484   2.795   4.624
60308W        W24516   9.212  11.724   2.355
60309W        W24517   6.223  44.329  14.510
60310W        W24518  28.583   3.246   0.325
60311W        W24519   9.337  26.094   2.903
60312W        W24520  20.204   5.368   4.725
60313W        W24521  13.208  33.625  10.406
60314W        W24522  29.081  44.266   3.156
60315W        W24523  31.541  17.728  12.082
60316W        W24524   4.239  26.980   2.686
60317W        W24525   6.914  43.359  12.432
60318W        W24526  19.568  10.341   3.653
60319W        W24527  23.611  32.089   3.854
60320W        W24528   3.953   3.426  11.877
60321W        W24529   7.865  37.475   2.190
60322W        W24530  35.052  40.926  12.839
60323W        W24531  19.702  32.618  14.801
60324W        W24532  40.416   0.803   2.720
60325W        W24533  19.107  32.484   0.264
60326W        W24534  42.424  37.414   4.254
60327W        W24535  38.383  39.983   4.299
60328W        W24536  20.726  39.950   2.866
60329W        W24537  42.950  42.943   0.771
60330W        W24538  32.941  44.858  14.866
60331W        W24539  16.690  16.680  12.377
60332W        W24540  42.421  21.755  13.820
60333W        W24541  16.675  11.711  12.853
60334W        W24542   0.917  43.401  14.306
60335W        W24543   4.914   7.261  13.537
60336W        W24544  35.932   9.754   3.381
60337W        W24545   0.308  10.155   4.329
60338W        W24546  39.492  19.602   3.214
60339W        W24547  39.058  27.035   0.780
60340W        W24548   5.774   3.940   3.780
60341W        W24549  19.617   0.373   3.247
60342W        W24550   6.887   4.427   4.729
60343W        W24551  28.491  15.319  11.994
60344W        W24552   2.911  30.542   2.191
60345W        W24553   8.298   9.175   1.264
60346W        W24554  15.233  21.198  11.092
60347W        W24555  18.280  19.647  13.958
60348W        W24556  41.040  23.199  14.347
60349W        W24557  31.576  40.499   0.770
60350W        W24558  25.700   6.682   0.432
60351W        W24559  17.606   6.378  12.863
60352W        W24560  31.459   2.760  11.431
60353W        W24561  19.200  37.342   4.705
60354W        W24562  27.680  25.592  11.998
60355W        W24563  37.932  27.970  14.962
60356W        W24564  35.367  11.189  12.889
60357W        W24565  30.630  42.940  11.101
60358W        W24566  35.574  23.705   4.822
60359W        W24567  34.462  34.542  10.644
60360W        W24568  21.530  11.280   2.887
60361W        W24569   7.731   1.773  14.010
60362W        W24570  38.428  13.124   4.643
60363W        W24571   3.799  24.191  13.845
60364W        W24572   4.397  28.668  11.119
60365W        W24573  11.303  13.770  11.012
60366W        W24574  39.435   0.346  14.810
60367W        W24575  39.533  36.995  13.417
60368W        W24576  17.197   9.382   1.835
60369W        W24577  12.838  26.170   3.383
60370W        W24578   7.671  12.740  13.790
60371W        W24579   6.193  37.860  10.592
60372W        W24580  34.954   6.870   4.118
60373W        W24581  20.080  21.021  12.922
60374W        W24582  19.090   5.733   4.227
60375W        W24583  26.040  23.116   1.274
60376W        W24584  12.675  35.576   1.816
60377W        W24585  35.576   0.750  13.440
60378W        W24586  27.952   9.183  10.542
60379W        W24587  15.743  19.719   1.733
60380W        W24588  21.592  23.196   2.744
60381W        W24589  44.764  38.882   4.754
60382W        W24590   7.175  44.827  10.897
60383W        W24591  37.900  22.031   2.819
60384W        W24592  36.059  15.318  11.008
60385W        W24593  10.733  44.494  11.868
60386W        W24594   1.783  21.164  13.439
60387W        W24595  38.346  31.077   0.469
60388W        W24596  29.650  27.064   1.823
60389W        W24597  31.479  34.117   0.296
60390W        W24598   6.367   9.816   0.411
60391W        W24599  22.566  12.133   3.196
60392W        W24600  32.539   2.897   1.233
60393W        W24601  10.749  25.471   1.376
60394W        W24602  37.440  20.183  10.898
60395W        W24603  33.022   0.796  10.436
60396W        W24604  19.145  29.101  14.349
60397W        W24605  19.056  11.316   3.183
60398W        W24606   9.193  10.146  10.036
60399W        W24607   2.933  30.514   0.916
60400W        W24608  27.630  18.149  13.505
60401W        W24609  15.238   4.335   1.304
60402W        W24610  44.462  29.984  12.025
60403W        W24611  37.423  15.161   3.868
60404W        W24612  38.566  43.014   0.841
60405W        W24613   4.297   2.861  12.375
60406W        W24614  11.743  14.804   2.192
60407W        W24615  13.153  26.955  11.903
60408W        W24616  44.383  31.068   2.843
60409W        W24617  13.737   0.316   4.658
60410W        W24618   9.331  32.894   4.788
60411W        W24619  40.001  16.748   5.143
60412W        W24620  10.845   2.873  14.423
60413W        W24621  17.667  35.452   3.217
60414W        W24622  23.086  31.536   2.854
60415W        W24623   7.325  10.856  14.422
60416W        W24624  26.603   4.320  10.054
60417W        W24625   9.169   7.845  12.460
60418W        W24626  14.793  14.637  11.566
60419W        W24627  21.625   9.360   0.727
60420W        W24628   8.738  19.600   0.759
60421W        W24629  29.519  37.958  10.436
60422W        W24630   4.823   7.723  13.513
60423W        W24631  31.994  19.214  11.955
60424W        W24632   8.389  38.532  14.472
60425W        W24633  41.402   7.363   2.796
60426W        W24634   7.677  43.455  10.934
60427W        W24635  36.995  35.574   0.312
60428W        W24636   3.412  17.618  13.864
60429W        W24637  28.499  15.311   5.797
60430W        W24638   6.307   3.388   2.824
60431W        W24639  16.807  34.095   4.723
60432W        W24640   0.961  29.084  11.938
60433W        W24641  18.166  36.903   2.205
60434W        W24642   5.897  37.056  11.015
60435W        W24643  27.524  43.926   4.126
60436W        W24644  10.779   1.305   0.393
60437W        W24645  30.591  33.605   1.315
60438W        W24646  42.413  30.022  11.008
60439W        W24647  10.312   5.267   0.937
60440W        W24648  42.006  39.542   1.816
60441W        W24649  20.572  25.671   0.738
60442W        W24650  12.346  23.193  13.442
60443W        W24651  21.201   9.658  12.468
60444W        W24652   3.308  13.195  10.510
60445W        W24653  33.549  19.585   0.372
60446W        W24654   6.428   6.363  11.575
60447W        W24655  44.840  25.165  13.049
60448W        W24656   9.266  38.982   3.272
60449W        W24657  20.532   1.320  12.501
60450W        W24658  34.021   2.796   4.125
60451W        W24659  26.487  16.091  14.778
60452W        W24660  24.015  36.470  11.922
60453W        W24661  17.124  35.442   1.888
60454W        W24662   0.335  20.732  10.421
60455W        W24663  12.315  12.181   3.779
60456W        W24664   6.874  16.299   0.793
60457W        W24665  24.163  10.231  13.390
60458W        W24666   2.425  39.501  12.487
60459W        W24667   5.264   8.799  12.498
60460W        W24668  40.403  37.524   4.121
60461W        W24669  11.245  41.373   1.774
60462W        W24670  19.044   1.293   2.205
60463W        W24671  18.088  19.093  10.425
60464W        W24672  19.604   2.265  13.834
60465W        W24673  43.901  12.231   3.839
60466W        W24674  10.774  35.997  12.409
60467W        W24675  41.918  20.031  11.025
60468W        W24676  33.895  16.655   3.254
60469W        W24677   3.915  36.449  12.996
60470W        W24678  24.480  26.510  13.536
60471W        W24679  15.592  15.104  14.403
60472W        W24680   4.715  34.068   0.835
60473W        W24681  29.113  43.415   0.453
60474W        W24682  44.829  13.794  11.074
60475W        W24683  21.200  37.363   2.264
60476W        W24684   2.412  27.020  12.913
60477W        W24685  13.305   0.822  10.504
60478W        W24686  23.678  11.688   4.685
60479W        W24687  44.942   0.276   3.689
60480W        W24688  13.845   5.693  14.860
60481W        W24689  20.172  22.251   4.690
60482W        W24690  16.107  40.931   0.407
60483W        W24691   8.212  18.056  11.463
60484W        W24692  25.985   4.387   2.673
60485W        W24693  29.505  44.276   3.850
60486W        W24694  39.461  26.666   4.159
60487W        W24695  28.944  16.650  12.428
60488W        W24696  11.662  42.839   1.314
60489W        W24697  11.327  36.899   2.328
60490W        W24698   2.787  13.829   0.351
60491W        W24699   8.885  18.569   1.255
60492W        W24700  37.465  38.951   1.913
60493W        W24701  20.713  19.083  11.020
60494W        W24702  17.589  36.970   1.436
60495W        W24703  15.752  12.188  10.561
60496W        W24704  18.088   3.866   4.119
60497W        W24705   5.416   6.314  10.465
60498W        W24706  44.941  42.885  13.416
60499W        W24707  23.182  43.972   0.277
60500W        W24708  21.585  39.878   4.346
60501W        W24709  18.627  11.726  12.367
60502W        W24710   3.403   4.801  11.014
60503W        W24711  44.345  15.111   2.276
60504W        W24712   6.742  35.523  14.383
60505W        W24713  42.293   1.368   0.767
60506W        W24714  31.648   7.708  10.987
60507W        W24715  28.571  39.961  14.503
60508W        W24716  10.202  21.654   0.892
60509W        W24717  25.994  22.666   1.892
60510W        W24718  28.087   9.657  12.453
60511W        W24719  44.882  40.819  11.379
60512W        W24720  19.666  41.956   1.896
60513W        W24721  20.634  38.392   0.285
60514W        W24722  33.096  25.523  14.463
60515W        W24723  17.678  43.886   4.183
60516W        W24724  43.305  38.010   3.250
60517W        W24725  11.310  26.024   3.640
60518W        W24726  17.304   1.770  11.053
60519W        W24727  37.434   6.752   0.414
60520W        W24728  36.561  21.742  11.590
60521W        W24729  37.984  22.595   3.738
60522W        W24730  14.156   1.424   0.861
60523W        W24731  30.562   4.382  13.952
60524W        W24732  38.888   5.275  11.505
60525W        W24733  18.730  44.414   3.788
60526W        W24734   2.443  42.932  12.472
60527W        W24735  26.579   2.839  13.343
60528W        W24736  27.119   5.720  14.827
60529W        W24737  15.304  30.520   2.809
60530W        W24738  25.153  26.553  10.633
60531W        W24739  44.312  11.694   3.649
60532W        W24740  34.602  41.487   1.281
60533W        W24741  18.086  22.612  13.471
60534W        W24742  22.648  32.436   0.383
60535W        W24743  27.683   1.365   3.284
60536W        W24744  34.075   3.900   4.204
60537W        W24745   2.791  38.462  14.901
60538W        W24746  29.937  28.139   4.141
60539W        W24747  29.507  43.388   3.238
60540W        W24748  18.186  40.374   4.335
60541W        W24749  21.141  21.213   4.150
60542W        W24750   5.912  42.445   2.376
60543W        W24751  34.559  19.131   0.349
60544W        W24752  32.080  35.898   3.172
60545W        W24753  38.828  18.212   2.383
60546W        W24754  18.180  15.763   0.819
60547W        W24755  39.545  32.430   2.180
60548W        W24756  21.055  37.340  12.093
60549W        W24757  29.512  40.539  10.529
60550W        W24758  20.533   6.916   2.863
60551W        W24759  27.570  28.610  12.433
60552W        W24760  25.167  34.977  11.596
60553W        W24761   2.737  11.764  13.540
60554W        W24762  21.139   7.176   0.361
60555W        W24763  26.010   8.279  11.083
60556W        W24764  20.116  13.205   0.770
60557W        W24765   0.774  26.030   3.844
60558W        W24766  33.876  41.844   0.458
60559W        W24767   1.413   9.812  11.961
60560W        W24768  41.877  36.423   2.714
60561W        W24769   4.428  26.083  14.390
60562W        W24770   3.825  28.591  10.573
60563W        W24771  25.491  40.429  10.608
60564W        W24772  13.641   8.363  12.400
60565W        W24773  31.586  29.944   3.196
60566W        W24774  12.656  18.282  11.385
60567W        W24775  17.064  23.142  11.506
60568W        W24776   8.229   7.745  11.555
60569W        W24777  18.129  21.244  11.891
60570W        W24778   2.798  11.768   4.775
60571W        W24779  28.083  41.013   3.657
60572W        W24780   4.280  37.946   4.324
60573W        W24781  38.890  10.657  10.059
60574W        W24782  38.931  10.713   2.699
60575W        W24783  39.347  34.607   1.449
60576W        W24784  33.003  22.581   0.366
60577W        W24785  12.653  44.398   4.311
60578W        W24786  18.058   5.700  12.927
60579W        W24787  25.611   3.258  10.520
60580W        W24788  10.180  39.496   0.767
60581W        W24789  23.043  14.155  13.397
60582W        W24790  28.442  20.125  10.607
60583W        W24791  32.123  35.021  12.013
60584W        W24792   9.834  36.419  12.524
60585W        W24793  43.987  34.967  14.314
60586W        W24794  38.507  25.584  14.433
60587W        W24795   2.817  32.971   3.267
60588W        W24796   0.808  34.913  11.397
60589W        W24797  38.996  16.180  13.864
60590W        W24798  36.877   4.275  12.524
60591W        W24799  17.754   6.276  11.007
60592W        W24800  18.193  22.228   4.180
60593W        W24801   7.721  39.014   4.137
60594W        W24802   1.357  44.312   1.714
60595W        W24803  26.104  21.516   3.199
60596W        W24804  32.902   2.425  14.016
60597W        W24805  39.057  30.460  10.104
60598W        W24806  24.647  35.369   1.429
60599W        W24807   4.299  38.341   2.722
60600W        W24808  17.088  18.132  14.450
60601W        W24809  43.784  44.414  12.824
60602W        W24810  14.799  43.449   0.392
60603W        W24811  34.951   4.234   2.193
60604W        W24812  41.495  31.153   0.453
60605W        W24813  38.958  17.077  14.469
60606W        W24814  26.504  26.150   2.398
60607W        W24815  16.600  42.418   0.840
60608W        W24816   5.247   5.306  11.603
60609W        W24817   7.767   2.916   4.163
60610W        W24818   0.830  13.706   2.338
60611W        W24819  29.943  18.195   0.265
60612W        W24820  38.405   3.281   2.858
60613W        W24821  28.667  20.260  11.439
60614W        W24822  39.551  44.472  12.066
60615W        W24823  38.521  14.729   4.308
60616W        W24824  27.052  33.116  10.602
60617W        W24825  30.520  43.415   1.439
60618W        W24826   5.886  23.084  11.553
60619W        W24827  33.050   3.929  10.492
60620W        W24828  40.918  37.015  13.465
60621W        W24829   3.279   3.795   4.124
60622W        W24830   9.652  19.570  10.910
60623W        W24831  14.598  21.210   3.289
60624W        W24832  20.731  16.736   4.186
60625W        W24833   4.912  31.485   3.724
60626W        W24834  36.400  19.273  14.823
60627W        W24835  24.112  17.724  12.918
60628W        W24836  33.006  13.795  12.375
60629W        W24837  24.656  26.512   4.691
60630W        W24838  29.620  42.789   4.210
60631W        W24839  29.663  44.259   1.823
60632W        W24840  13.112  27.969  14.422
60633W        W24841   3.364  34.612   1.439
60634W        W24842  33.530  36.459   0.461
60635W        W24843   6.237  15.729  13.536
60636W        W24844  42.302  42.284   2.361
60637W        W24845  23.522  15.222   3.656
60638W        W24846  17.791  20.763  11.404
60639W        W24847  21.701   4.859  13.393
60640W        W24848  16.192  38.488  13.031
60641W        W24849  34.417  22.097  14.916
60642W        W24850  42.486  26.002  11.864
60643W        W24851  24.664   7.251  12.872
60644W        W24852  34.078  39.054   3.715
60645W        W24853  11.186   8.791   0.457
60646W        W24854  34.880  20.600   4.794
60647W        W24855  18.783  33.557  10.054
60648W        W24856   2.940  27.625  13.402
60649W        W24857   5.241  43.899   1.852
60650W        W24858  33.967  26.570   4.752
60651W        W24859  20.697  24.679   0.948
60652W        W24860  27.626  33.899  14.783
60653W        W24861  23.042  41.470  11.509
60654W        W24862  41.367   4.806  14.300
60655W        W24863  36.566  20.069   2.759
60656W        W24864  19.069  36.053   1.367
60657W        W24865  10.152   4.823   0.358
60658W        W24866   1.300  32.467   1.727
60659W        W24867  34.544   3.944  14.968
60660W        W24868  31.601  26.468  12.067
60661W        W24869  22.124   1.238   4.606
60662W        W24870   1.429   7.323   1.410
60663W        W24871   5.206   1.462   1.748
60664W        W24872  17.561  30.127  12.005
60665W        W24873  35.071  28.659  12.514
60666W        W24874  28.539   4.879   1.858
60667W        W24875  16.613  14.192  11.971
60668W        W24876  30.446   1.790  10.570
60669W        W24877  15.664  16.249   4.281
60670W        W24878   2.275   2.375  14.931
60671W        W24879  19.253  40.369  13.997
60672W        W24880   1.414   0.365   0.366
60673W        W24881  37.074  39.415  10.628
60674W        W24882  32.950  30.548  12.951
60675W        W24883   5.417   0.312   0.937
60676W        W24884  28.651  33.944   3.705
60677W        W24885   6.257   7.873  12.515
60678W        W24886  14.630   9.748  13.440
60679W        W24887  28.035  38.560   4.770
60680W        W24888  33.106  44.863  12.482
60681W        W24889  30.960  35.951  13.408
60682W        W24890  41.874  26.605   2.755
60683W        W24891   3.376  31.439   0.471
60684W        W24892  17.283  42.865   0.916
60685W        W24893  30.952  40.394   2.400
60686W        W24894  30.085   2.774  10.567
60687W        W24895   1.373  18.164   0.289
60688W        W24896  22.547  25.164   5.101
60689W        W24897   1.404  36.039   1.272
60690W        W24898  17.153   1.912  13.969
60691W        W24899  44.973   4.805  13.524
60692W        W24900  16.633  39.969   1.710
60693W        W24901   3.274  24.162   0.289
60694W        W24902  29.562   7.259  13.469
60695W        W24903  38.974  26.509   3.866
60696W        W24904  35.949   2.750   1.861
60697W        W24905   8.223  40.398  14.760
60698W        W24906  12.245  33.031   1.929
60699W        W24907  25.519  44.458   4.119
60700W        W24908  26.632  16.163  10.526
60701W        W24909  25.685  42.280   2.303
60702W        W24910  39.972  27.497   4.150
60703W        W24911  17.612  13.305   1.293
60704W        W24912  18.072  39.048   5.651
60705W        W24913  27.034  22.163   1.718
60706W        W24914  15.165  27.117  14.510
60707W        W24915  36.091  38.889  14.434
60708W        W24916  26.058  31.942  10.582
60709W        W24917   7.315  41.798   4.784
60710W        W24918   4.380  19.711   4.348
60711W        W24919  30.131  41.950   1.727
60712W        W24920   4.756  44.892   4.259
60713W        W24921   6.862  42.420  14.816
60714W        W24922   9.886  21.528  10.632
60715W        W24923  27.124  26.116   2.722
60716W        W24924  10.670  34.100   1.346
60717W        W24925  11.835  35.406   4.129
60718W        W24926  40.318  26.954   2.793
60719W        W24927   5.222  27.510   2.314
60720W        W24928  37.869   7.359   1.828
60721W        W24929  41.447   1.929   1.798
60722W        W24930   9.206  39.950  14.952
60723W        W24931  26.090  26.504   4.132
60724W        W24932  20.179  11.354   0.326
60725W        W24933   2.802  17.253   3.742
60726W        W24934   5.848  31.416   3.247
60727W        W24935  41.815  12.213   2.727
60728W        W24936  30.448   0.787   0.791
60729W        W24937   4.305   2.731   2.401
60730W        W24938  41.497  38.834   2.398
60731W        W24939  32.096  40.544   3.864
60732W        W24940   9.785  27.678   1.406
60733W        W24941  18.161  12.349  13.895
60734W        W24942   8.256  28.149  11.018
60735W        W24943  24.612  18.594  13.434
60736W        W24944  13.736  19.145   2.178
60737W        W24945  39.525   3.954   0.457
60738W        W24946  44.008  39.507   2.687
60739W        W24947  43.872   3.894   2.690
60740W        W24948  37.914  44.896   0.818
60741W        W24949  38.838  26.980   3.802
60742W        W24950  19.675  28.139   3.847
60743W        W24951  23.153  39.360   2.769
60744W        W24952  35.457  10.635  12.369
60745W        W24953  31.623  36.400   4.336
60746W        W24954  28.027  35.088   2.368
60747W        W24955  20.220  32.486  14.493
60748W        W24956  28.159  29.543   0.781
60749W        W24957  23.990  16.604   2.781
60750W        W24958  44.898  37.546  14.509
60751W        W24959  12.636  27.598  13.353
60752W        W24960  26.536  38.855   0.245
60753W        W24961  44.827  38.437   1.805
60754W        W24962  28.141  22.218  13.850
60755W        W24963  38.065  22.520   3.318
60756W        W24964  12.307  41.025   0.319
60757W        W24965  18.667   1.781  14.886
60758W        W24966  38.975  12.707  14.294
60759W        W24967  33.589  10.661  14.975
60760W        W24968  28.155  30.958   2.377
60761W        W24969  37.449  27.990  12.516
60762W        W24970  26.072  32.948  10.619
60763W        W24971  26.479  22.179   1.335
60764W        W24972  23.123  43.283   2.340
60765W        W24973  16.712  24.645   2.883
60766W        W24974  35.985  18.238   2.375
60767W        W24975  30.976   6.199   0.251
60768W        W24976   4.351  33.570   3.201
60769W        W24977  22.616  27.523   1.396
60770W        W24978  36.916  29.053   4.664
60771W        W24979  44.918  29.167   5.601
60772W        W24980  38.441  15.149  13.896
60773W        W24981  43.975  12.751   0.274
60774W        W24982  42.986  24.524   1.821
60775W        W24983   4.226  43.340   3.366
60776W        W24984  27.972  20.578  14.976
60777W        W24985  32.408  20.566   0.312
60778W        W24986  35.418  37.059   1.422
60779W        W24987  17.687  25.527   2.334
60780W        W24988  12.135  28.008   0.378
60781W        W24989  26.669  36.006  11.985
60782W        W24990  13.279  38.970   0.788
60783W        W24991   2.738   8.231  12.869
60784W        W24992  18.095   5.866   3.181
60785W        W24993  33.060  12.624  14.510
60786W        W24994   4.807  10.325   0.356
60787W        W24995  33.098  31.124   0.867
60788W        W24996  13.694  22.734   0.918
60789W        W24997  37.419  26.614   3.214
60790W        W24998  29.078   4.277  13.971
60791W        W24999  39.915  35.018   2.707
60792W        W25000  13.637  38.009  14.868
60793W        W25001   9.237  37.939  12.085
60794W        W25002  41.942  31.644   2.197
60795W        W25003  42.810  39.364   2.180
60796W        W25004  43.017  11.657   1.891
60797W        W25005  34.533  23.522  10.933
60798W        W25006  17.727  44.860  14.476
60799W        W25007  10.367  27.539  11.590
60800W        W25008  31.072   3.244  13.401
60801W        W25009   2.892  41.884  11.899
60802W        W25010  29.036  34.075  13.882
60803W        W25011  10.160   6.850  12.016
60804W        W25012  39.860  13.776  13.914
60805W        W25013  26.123   8.403  14.845
60806W        W25014   4.931   8.860  12.025
60807W        W25015   7.767  28.519  11.993
60808W        W25016  14.272  26.474  11.923
60809W        W25017  44.822   7.837   1.277
60810W        W25018   2.378  23.050   4.747
60811W        W25019  40.831  15.211  14.973
60812W        W25020  41.954  18.553   1.272
60813W        W25021  31.500  14.225  10.025
60814W        W25022  30.624  13.795   5.165
60815W        W25023  22.068  12.776  14.018
60816W        W25024  23.164   1.818  11.107
60817W        W25025   6.275  18.545   1.446
60818W        W25026  27.019  21.581  12.033
60819W        W25027   7.243  18.142  13.310
60820W        W25028  16.119  22.057  11.942
60821W        W25029  30.582   7.828  11.863
60822W        W25030  19.722  17.771   1.738
60823W        W25031  28.529  17.145   2.359
60824W        W25032   5.261  25.104   2.359
60825W        W25033  43.808  20.589   4.752
60826W        W25034  14.321  20.156   2.370
60827W        W25035  35.091  13.177  13.494
60828W        W25036   7.243  14.250   0.890
60829W        W25037  23.174   8.890   0.942
60830W        W25038  28.436  31.535  14.941
60831W        W25039  16.096   7.861   1.730
60832W        W25040  41.419  34.588   1.768
60833W        W25041  43.858  41.483   0.290
60834W        W25042  39.938  42.301   4.791
60835W        W25043   1.473   1.914   4.239
60836W        W25044  19.062  23.683  12.339
60837W        W25045  20.185  19.596  12.362
60838W        W25046  26.572   1.789   2.334
60839W        W25047  12.141  32.555   1.345
60840W        W25048   0.471   4.251   0.912
60841W        W25049   5.353  21.597   3.861
60842W        W25050  40.925  41.932   0.799
60843W        W25051  28.659   3.459   3.157
60844W        W25052  21.686  30.476   1.241
60845W        W25053  38.033  24.642  13.791
60846W        W25054  42.940  41.795  13.996
60847W        W25055  43.410  42.300  12.441
60848W        W25056  34.463  41.529  10.987
60849W        W25057  31.603  21.045   3.287
60850W        W25058  44.321   6.882  13.354
60851W        W25059  43.811  15.311   0.447
60852W        W25060  43.417  18.211  12.512
60853W        W25061  32.921  19.697  14.954
60854W        W25062  10.861  37.046   1.794
60855W        W25063  38.419  16.213  13.026
60856W        W25064  29.009  18.767  12.824
60857W        W25065   3.923   0.440   0.841
60858W        W25066   3.913   2.434   2.403
60859W        W25067  34.002   6.739   3.670
60860W        W25068  35.929  21.195  10.458
60861W        W25069  20.704   7.820   0.962
60862W        W25070   2.847   8.867  12.842
60863W        W25071  10.210  22.590   1.305
60864W        W25072  21.592  22.021  14.845
60865W        W25073  19.088   6.726   2.725
60866W        W25074  10.745  41.496  14.961
60867W        W25075   7.895  13.843   1.288
60868W        W25076  12.315   0.762   0.388
60869W        W25077   0.301   4.826   2.831
60870W        W25078  14.237  34.949   2.863
60871W        W25079  19.267  21.619  13.371
60872W        W25080  37.410  40.419   4.818
60873W        W25081  33.530  19.218  14.318
60874W        W25082   2.837   9.867   0.279
60875W        W25083  30.067  37.849   0.394
60876W        W25084  26.482  37.476   2.248
60877W        W25085   3.812  10.812   4.640
60878W        W25086  22.725   0.753   3.230
60879W        W25087  13.284   5.884   2.813
60880W        W25088  19.121  15.649  10.474
60881W        W25089  33.907   5.261  10.952
60882W        W25090  43.409  40.967  10.571
60883W        W25091  17.698  40.517   4.830
60884W        W25092  19.583  24.006   2.246
60885W        W25093   5.832   9.827   3.158
60886W        W25094  21.741  43.486  14.444
60887W        W25095  42.783  27.999   0.384
60888W        W25096  39.412  14.177   3.167
60889W        W25097   9.761  30.002   0.351
60890W        W25098  27.469  27.010  10.902
60891W        W25099  29.927   2.312   3.688
60892W        W25100   3.311  41.531   1.326
60893W        W25101  12.175  29.035   0.790
60894W        W25102  20.084  25.024  13.522
60895W        W25103   1.880  44.468  11.063
60896W        W25104  15.207  36.065   2.326
60897W        W25105   3.297   3.218   5.185
60898W        W25106  37.987   3.864  14.973
60899W        W25107  10.863  11.260   0.840
60900W        W25108  32.004  20.267  10.613
60901W        W25109  42.439  30.000   1.731
60902W        W25110  22.138  22.201   0.833
60903W        W25111  19.653   2.745  14.486
60904W        W25112  17.080  12.826   3.180
60905W        W25113  15.142  41.009   4.821
60906W        W25114   5.731  39.877   3.287
60907W        W25115  33.886  10.745   0.810
60908W        W25116  36.051  21.740  13.057
60909W        W25117  34.470  28.650  11.587
60910W        W25118  18.149  42.014   1.832
60911W        W25119  11.162   8.888  11.567
60912W        W25120  23.018   0.862  12.349
60913W        W25121  34.426   4.735  13.978
60914W        W25122   7.321  26.992   0.966
60915W        W25123  15.209  30.642  14.982
60916W        W25124   4.941  15.621   4.128
60917W        W25125  21.655  11.135   2.346
60918W        W25126   9.721  40.921   2.348
60919W        W25127  38.347   4.918   1.767
60920W        W25128   1.344  44.455   1.384
60921W        W25129  22.102  27.451  10.957
60922W        W25130  28.563  36.378  13.847
60923W        W25131  13.314  33.065   3.180
60924W        W25132  22.737  18.734  12.857
60925W        W25133  10.641  20.758  14.325
60926W        W25134  37.020   2.847   2.868
60927W        W25135  25.576  26.564  11.103
60928W        W25136  23.578  33.602   3.385
60929W        W25137  27.051  18.070   1.336
60930W        W25138   1.479   4.889  14.488
60931W        W25139   7.251   1.929   1.916
60932W        W25140  40.534   1.761   2.876
60933W        W25141  41.383  22.740   0.439
60934W        W25142  30.615  14.123  14.339
60935W        W25143   2.871  28.993  11.908
60936W        W25144   9.342  26.668   0.751
60937W        W25145   8.207   3.818   0.874
60938W        W25146  41.474  33.017   0.887
60939W        W25147  29.586  21.177  12.950
60940W        W25148  15.755  31.551   2.316
60941W        W25149  13.829  35.891   0.321
60942W        W25150  14.191  14.590   2.757
60943W        W25151   7.734  12.619  12.418
60944W        W25152  42.782  40.955   3.766
60945W        W25153   3.770  41.850   4.163
60946W        W25154  29.555  40.510   0.735
60947W        W25155   4.236  33.885   0.474
60948W        W25156  25.206  24.510  14.931
60949W        W25157  36.011   8.248   2.890
60950W        W25158  35.369   1.350  13.828
60951W        W25159  13.189  26.548  10.161
60952W        W25160   5.274  34.973   3.292
60953W        W25161  14.144  25.541   4.127
60954W        W25162  38.419  15.206  11.487
60955W        W25163  32.886  40.836  14.856
60956W        W25164  33.506  14.789  14.288
60957W        W25165  26.574  29.655   2.410
60958W        W25166  28.652   2.762   1.706
60959W        W25167  40.922  10.165  13.861
60960W        W25168  25.576  38.355   3.659
60961W        W25169  30.923  41.489   3.675
60962W        W25170  26.076  42.871  11.593
60963W        W25171   4.244   2.353   2.846
60964W        W25172   2.856  26.696   0.825
60965W        W25173  21.547  14.785   0.342
60966W        W25174   4.882  34.889   0.339
60967W        W25175  22.596   4.395  14.480
60968W        W25176  28.069  17.252  13.339
60969W        W25177  15.155  39.405  10.887
60970W        W25178  26.010  36.914  10.602
60971W        W25179  43.385  26.151  11.374
60972W        W25180   1.324   4.905   2.817
60973W        W25181  23.674  31.532   3.788
60974W        W25182  24.159  19.161   0.761
60975W        W25183  19.123  20.614   0.309
60976W        W25184  40.029   1.330  12.049
60977W        W25185  28.542  23.495   4.736
60978W        W25186   2.883  37.454  14.933
60979W        W25187   2.267   7.400   3.330
60980W        W25188   4.228  18.116   4.605
60981W        W25189  40.412  42.326   4.300
60982W        W25190  27.591  21.513   4.216
60983W        W25191  25.528  30.658   3.642
60984W        W25192  24.551  25.486   3.838
60985W        W25193  13.757  24.158   1.766
60986W        W25194   0.914  31.410   0.442
60987W        W25195  34.598  19.160  13.997
60988W        W25196  32.523  12.791   2.786
60989W        W25197  29.077  21.108   3.361
60990W        W25198  36.459  34.871  13.458
60991W        W25199   4.226  35.433  11.571
60992W        W25200  25.042  12.619  10.447
60993W        W25201   7.331  41.484  11.970
60994W        W25202  20.242  41.379  11.421
60995W        W25203  23.003  19.179   2.292
60996W        W25204  27.174  30.086   0.472
60997W        W25205   2.868   0.441   3.161
60998W        W25206   4.782  11.840  12.517
60999W        W25207  28.667  16.267   3.158
61000W        W25208  17.195  14.721  11.083
61001W        W25209  39.062  34.445  12.518
61002W        W25210  10.373  37.465   1.392
61003W        W25211  26.070  32.409  14.871
61004W        W25212   3.857  43.884   4.725
61005W        W25213  37.980  26.535  13.315
61006W        W25214   0.747  30.458  13.472
61007W        W25215   7.303   1.412   1.826
61008W        W25216  20.741   1.428  11.039
61009W        W25217  14.306  32.506  12.459
61010W        W25218  26.007  30.628   3.827
61011W        W25219   4.807  44.431  10.147
61012W        W25220  32.105   0.945  13.405
61013W        W25221  43.270  14.596   3.743
61014W        W25222  35.513  31.571   2.193
61015W        W25223  20.540  12.733   0.420
61016W        W25224  40.841  42.907   3.667
61017W        W25225  29.145  44.976  11.077
61018W        W25226  11.672  31.092  10.610
61019W        W25227  41.855  14.652  11.905
61020W        W25228  36.424  17.770   1.352
61021W        W25229  23.013   0.474   2.829
61022W        W25230  43.778   3.871  12.426
61023W        W25231  44.315   5.767  11.444
61024W        W25232  24.016   7.889  12.914
61025W        W25233  22.524  38.924   2.337
61026W        W25234  36.964  17.702   3.210
61027W        W25235  38.971  43.926  12.525
61028W        W25236  17.773   0.375   4.783
61029W        W25237  30.466  35.402  12.390
61030W        W25238   9.344  12.747  11.005
61031W        W25239   2.258  34.484  13.476
61032W        W25240  19.625  12.282   2.710
61033W        W25241   1.914   5.869  14.296
61034W        W25242   1.282  41.800   1.783
61035W        W25243  39.895  36.994  12.379
61036W        W25244  34.895  33.007   3.819
61037W        W25245  28.593  15.766  14.412
61038W        W25246   5.737  14.252  14.874
61039W        W25247  17.595  31.931   1.808
61040W        W25248   9.850  16.284   5.136
61041W        W25249   9.847  21.722   0.935
61042W        W25250  27.622  30.917   2.853
61043W        W25251  28.583  13.120   3.763
61044W        W25252  12.344  22.559  14.429
61045W        W25253  43.894  43.342  10.507
61046W        W25254   2.245  38.063  10.484
61047W        W25255   9.387  34.896   0.477
61048W        W25256  43.342  34.593  12.493
61049W        W25257  36.909  33.126  13.961
61050W        W25258  27.109  16.616   4.220
61051W        W25259  31.933   3.811   0.915
61052W        W25260  43.975   0.792   2.239
61053W        W25261  37.457   6.746   4.818
61054W        W25262  17.620  16.090   3.309
61055W        W25263  25.103  22.603  14.885
61056W        W25264  17.767  44.759  11.909
61057W        W25265  28.002  17.215  14.852
61058W        W25266  20.173  41.971  14.323
61059W        W25267   1.879  19.223  11.493
61060W        W25268  36.511  13.665   3.650
61061W        W25269  22.245  44.386   2.331
61062W        W25270  32.475  10.328  14.290
61063W        W25271   0.272   3.755  13.356
61064W        W25272   0.459  20.556  11.924
61065W        W25273   6.799  38.943   2.714
61066W        W25274  10.325   6.302  12.890
61067W        W25275  16.243   1.309  13.457
61068W        W25276  29.600   8.792   5.241
61069W        W25277  22.713   2.778   1.721
61070W        W25278  44.283  18.670   0.942
61071W        W25279  28.038  24.650   4.127
61072W        W25280  14.224  22.213  10.911
61073W        W25281  15.250  20.722   3.800
61074W        W25282  11.295   1.288  14.011
61075W        W25283  14.111  26.614   2.808
61076W        W25284  15.766  16.116  12.460
61077W        W25285  39.365  33.119   1.218
61078W        W25286   9.280  44.341   2.708
61079W        W25287   1.890  23.023   1.758
61080W        W25288   0.283  20.201  14.458
61081W        W25289   7.802  13.234   1.805
61082W        W25290  15.658  39.062   1.901
61083W        W25291  23.076   8.710   1.373
61084W        W25292  31.600  33.581  10.915
61085W        W25293  39.976   4.278  13.410
61086W        W25294  14.674  39.936   9.970
61087W        W25295  19.235   6.251   1.794
61088W        W25296  16.274  22.025   1.711
61089W        W25297  15.590  22.544  11.481
61090W        W25298  33.906  35.892   0.774
61091W        W25299  43.344  38.561   0.763
61092W        W25300  41.429  35.476   0.429
61093W        W25301  11.244  31.558  12.921
61094W        W25302  44.314  14.608  13.012
61095W        W25303  11.856  34.520  10.981
61096W        W25304   1.446  13.805  13.840
61097W        W25305  33.578  35.411  14.027
61098W        W25306  14.815   9.769  12.047
61099W        W25307  12.201   3.833  11.988
61100W        W25308  16.198   6.409   3.845
61101W        W25309  37.521  10.257  12.873
61102W        W25310  27.687  27.643  14.931
61103W        W25311  20.715  24.073  14.319
61104W        W25312  22.158  41.889  13.341
61105W        W25313  36.091  29.925   1.826
61106W        W25314  27.675  22.568   1.395
61107W        W25315   3.251  30.067  13.029
61108W        W25316  13.727  26.658  13.507
61109W        W25317  16.648   9.349  11.079
61110W        W25318  39.991   7.771  13.888
61111W        W25319  17.211   3.225  11.093
61112W        W25320  12.339  33.951   4.758
61113W        W25321  21.108  25.496  13.962
61114W        W25322  31.927  33.021   4.611
61115W        W25323  23.022  15.203   1.354
61116W        W25324  34.396   5.372  13.479
61117W        W25325  25.200  35.443   4.664
61118W        W25326   2.825  40.812  13.971
61119W        W25327  36.550  36.402   0.777
61120W        W25328   3.860  10.249   5.314
61121W        W25329  37.935   5.422   2.233
61122W        W25330  39.526  23.520   4.157
61123W        W25331   4.711  42.959   2.719
61124W        W25332  14.297   7.261  13.918
61125W        W25333   1.281  38.024  11.446
61126W        W25334  22.110  22.173   4.177
61127W        W25335  16.241   2.774   3.207
61128W        W25336  23.512   9.811  10.897
61129W        W25337  31.053  11.159   3.696
61130W        W25338   5.873  41.466  13.519
61131W        W25339  22.212   6.374  13.041
61132W        W25340   3.249   1.764   3.818
61133W        W25341   8.821   8.325  11.557
61134W        W25342  29.133  41.355   0.297
61135W        W25343  39.368   2.813  12.910
61136W        W25344   6.266  29.095   1.275
61137W        W25345  44.424  41.979   0.882
61138W        W25346  12.344   2.447   1.449
61139W        W25347  29.158  30.640   1.778
61140W        W25348  14.764  21.576   2.389
61141W        W25349  25.549   2.877   0.741
61142W        W25350  40.466  10.651   3.378
61143W        W25351  31.597  19.667  12.870
61144W        W25352  12.360  18.224  11.088
61145W        W25353   2.227   6.310  11.961
61146W        W25354  38.850  18.728  13.867
61147W        W25355  24.539  27.620   4.169
61148W        W25356  37.366   7.813   4.238
61149W        W25357  15.665  16.748  12.448
61150W        W25358  43.022  41.302  10.148
61151W        W25359  11.150  38.443   0.935
61152W        W25360  41.475  16.275   2.840
61153W        W25361  22.095   4.265   1.909
61154W        W25362  19.126  20.165  11.446
61155W        W25363  31.026  30.651  11.023
61156W        W25364  32.533  42.471   4.615
61157W        W25365  19.218  43.475  11.024
61158W        W25366  20.629  40.410   1.380
61159W        W25367  34.611   8.665  13.395
61160W        W25368   3.762  44.910   0.808
61161W        W25369  13.647  40.329   0.918
61162W        W25370  27.100   5.363   4.308
61163W        W25371  38.996  37.469  11.904
61164W        W25372  43.420  32.568  14.498
61165W        W25373  39.496  44.490  11.448
61166W        W25374  28.158  23.608  11.866
61167W        W25375  21.080   4.242   4.274
61168W        W25376  15.778  27.514   1.926
61169W        W25377  19.093  23.031  14.417
61170W        W25378   8.823  32.128   3.295
61171W        W25379  28.640  27.948  13.488
61172W        W25380  27.517  16.150   3.189
61173W        W25381   9.757  28.610   0.481
61174W        W25382  39.933   9.262  14.877
61175W        W25383  23.187  38.019  12.969
61176W        W25384   1.434  34.067  10.070
61177W        W25385   6.792  39.044   1.404
61178W        W25386  26.513  15.157   1.913
61179W        W25387  31.020  33.482  12.942
61180W        W25388  14.707  31.911   1.304
61181W        W25389  13.789  43.371   2.799
61182W        W25390  14.131  38.978  13.008
61183W        W25391  38.360  15.098   3.277
61184W        W25392  35.870  10.644  10.890
61185W        W25393   2.745  15.328   2.785
61186W        W25394   3.364   3.713   3.227
61187W        W25395  26.044  10.817  11.859
61188W        W25396  32.586  31.954  13.434
61189W        W25397  44.954   7.726   2.903
61190W        W25398  41.009   8.739   5.242
61191W        W25399  41.933  35.908  11.576
61192W        W25400  31.559  21.164  10.956
61193W        W25401   5.206  28.071  12.511
61194W        W25402  37.833  20.170  11.489
61195W        W25403  35.064  11.632   4.738
61196W        W25404  26.166  20.272   0.893
61197W        W25405  44.844  16.245   0.299
61198W        W25406  27.075  30.434  12.941
61199W        W25407  35.982  33.095   4.662
61200W        W25408  10.257   0.450   2.215
61201W        W25409  25.058  12.802   1.812
61202W        W25410  27.678  29.519   0.358
61203W        W25411   7.403   6.887   1.934
61204W        W25412  13.139  26.689   4.342
61205W        W25413  26.553  17.605   0.439
61206W        W25414  27.669  10.803   3.354
61207W        W25415  35.399  40.925   3.840
61208W        W25416   6.286   6.384  12.495
61209W        W25417  23.194  11.638   1.300
61210W        W25418   8.724  12.629   3.323
61211W        W25419  39.402   0.978   0.388
61212W        W25420  28.453  32.000  13.934
61213W        W25421  44.885  25.979   3.314
61214W        W25422  34.499  36.929   2.188
61215W        W25423   0.820  18.673  13.899
61216W        W25424  10.295  39.901  14.768
61217W        W25425  25.172  15.269  11.942
61218W        W25426  17.187  28.163   2.284
61219W        W25427  31.460  39.556  14.430
61220W        W25428  36.357  40.861   4.814
61221W        W25429  15.605   5.808   1.930
61222W        W25430  24.520   4.323   0.897
61223W        W25431  40.495   9.177   4.175
61224W        W25432  31.492  15.188  11.591
61225W        W25433  44.482  15.623   4.718
61226W        W25434   7.764  10.837   1.796
61227W        W25435  29.128   9.664   2.194
61228W        W25436  22.014  39.842   4.790
61229W        W25437  22.679  28.185  10.054
61230W        W25438   9.373  19.661   4.767
61231W        W25439  33.481  27.142   1.699
61232W        W25440  37.970   4.433  14.800
61233W        W25441  20.203   2.767  14.408
61234W        W25442  39.375   8.733  10.507
61235W        W25443  42.458  29.054  11.903
61236W        W25444  17.276  11.329  10.080
61237W        W25445  40.045  25.067   0.805
61238W        W25446   7.842   2.249   4.242
61239W        W25447  29.138  32.532   1.861
61240W        W25448  11.836  27.100  10.894
61241W        W25449  44.812  41.949  14.787
61242W        W25450   7.860  37.060  12.383
61243W        W25451  26.048  10.267   4.173
61244W        W25452  38.442  20.607  14.414
61245W        W25453   4.435  11.782  12.454
61246W        W25454   3.898  23.627  10.501
61247W        W25455   3.267  29.560  12.830
61248W        W25456   0.792  28.650  10.911
61249W        W25457  15.819   0.819   4.623
61250W        W25458   3.875  39.997  13.972
61251W        W25459  26.058  38.064   4.259
61252W        W25460   1.967  17.167   2.662
61253W        W25461  25.040  27.632   4.754
61254W        W25462  24.204  20.037   4.835
61255W        W25463  37.046  37.063  11.015
61256W        W25464  38.037  35.017   1.403
61257W        W25465  39.033  20.238   3.370
61258W        W25466  21.533  32.475  13.541
61259W        W25467  26.020  11.211   4.811
61260W        W25468  33.461  20.678  12.512
61261W        W25469  40.455  29.040   4.659
61262W        W25470   4.833  26.463  12.980
61263W        W25471  21.611  16.110   3.367
61264W        W25472   3.736   9.294   0.744
61265W        W25473  31.942  38.008   0.322
61266W        W25474  30.122  44.263   4.262
61267W        W25475  20.186  44.389  12.933
61268W        W25476  29.924   3.455   4.717
61269W        W25477   4.374  33.939   1.451
61270W        W25478  34.592  27.019   4.216
61271W        W25479  18.239  35.930  14.296
61272W        W25480   0.356  12.125   0.429
61273W        W25481  16.109   4.734   3.730
61274W        W25482  36.918  34.422  13.874
61275W        W25483   5.193  28.961   1.808
61276W        W25484  44.826   1.879   4.193
61277W        W25485  32.923  30.908   0.479
61278W        W25486  42.920  36.573   3.149
61279W        W25487  23.052  13.644  12.008
61280W        W25488   8.358  11.358  10.901
61281W        W25489   1.317   5.895   0.453
61282W        W25490  34.470  28.545   2.262
61283W        W25491  23.082   1.462   3.842
61284W        W25492  26.528  25.552   1.420
61285W        W25493  28.127   4.783   0.286
61286W        W25494  34.496  21.537   2.754
61287W        W25495  39.317  15.326  14.460
61288W        W25496  35.585  41.966   4.656
61289W        W25497  37.461  11.184   1.914
61290W        W25498  42.464   9.238  11.551
61291W        W25499  20.057   8.344  13.035
61292W        W25500   4.206   1.774  12.076
61293W        W25501   5.293  12.325  13.924
61294W        W25502  18.667  30.462   3.638
61295W        W25503  42.827  44.451   4.196
61296W        W25504   2.468  30.077  13.452
61297W        W25505  40.538   8.828   5.286
61298W        W25506   3.220  30.638  11.884
61299W        W25507   6.355   9.292   3.221
61300W        W25508  31.131   4.885  14.760
61301W        W25509  22.602   7.803  12.483
61302W        W25510  31.958  34.891  12.475
61303W        W25511   1.318  30.934   0.950
61304W        W25512   7.772   1.764   0.273
61305W        W25513  43.382  41.928  14.504
61306W        W25514  13.281  37.960   2.673
61307W        W25515   8.823  14.640  10.910
61308W        W25516  19.763  31.116  14.971
61309W        W25517  22.717  27.167   3.794
61310W        W25518  12.128   2.932  10.974
61311W        W25519  31.571  22.559  12.374
61312W        W25520  23.646  12.815   4.331
61313W        W25521  39.522  25.074   3.644
61314W        W25522  22.535  24.057   2.745
61315W        W25523  10.155  41.860  11.117
61316W        W25524   1.251  16.130  11.023
61317W        W25525  12.139  33.886  13.891
61318W        W25526  23.186  16.193  12.424
61319W        W25527  37.837   9.172  12.997
61320W        W25528   8.309  33.446  10.635
61321W        W25529  19.625   0.370  13.480
61322W        W25530  22.150   1.425  11.598
61323W        W25531  38.930   8.191   4.820
61324W        W25532  13.698  30.632   2.356
61325W        W25533  38.431  12.255  12.458
61326W        W25534  20.028  19.215   1.343
61327W        W25535  23.033  22.108  13.485
61328W        W25536  11.353  24.993   4.649
61329W        W25537  13.765  30.121   3.764
61330W        W25538  15.649  36.445  11.126
61331W        W25539  31.962  37.853   2.778
61332W        W25540  29.073   1.767  13.446
61333W        W25541   8.861   9.717  12.875
61334W        W25542  42.845  38.878   2.778
61335W        W25543  36.487  40.000  11.991
61336W        W25544  15.222  38.890  11.093
61337W        W25545   6.198   8.871  12.445
61338W        W25546  40.393  30.579   1.904
61339W        W25547  13.285  15.757   9.941
61340W        W25548   1.931  21.120   0.408
61341W        W25549  37.870  18.679  11.019
61342W        W25550  28.458  28.560  10.615
61343W        W25551   7.705  34.518  11.989
61344W        W25552  20.578  32.006   3.259
61345W        W25553  40.307  24.987  11.865
61346W        W25554  38.531  18.217  12.452
61347W        W25555  26.194  25.157   3.185
61348W        W25556  11.656  30.577  12.396
61349W        W25557  40.974   1.942  12.524
61350W        W25558   5.907  23.996  12.963
61351W        W25559  36.401  43.855   3.719
61352W        W25560  29.445  25.698  12.555
61353W        W25561  34.575  14.242   0.279
61354W        W25562  24.646  11.670  10.546
61355W        W25563  44.825  22.136   0.257
61356W        W25564  14.831  42.428  12.389
61357W        W25565  10.852  40.960  11.949
61358W        W25566  23.498  23.019   2.267
61359W        W25567  12.781  29.998   3.265
61360W        W25568  40.904  39.445  13.856
61361W        W25569  20.225  41.427  10.931
61362W        W25570   2.316   4.800  13.510
61363W        W25571  15.751   2.285  11.610
61364W        W25572  38.842  21.258  13.962
61365W        W25573  12.316  22.604  13.003
61366W        W25574  36.849   6.394  14.770
61367W        W25575  22.574  13.297  14.435
61368W        W25576  37.375  27.623  10.477
61369W        W25577  23.121   7.384  11.912
61370W        W25578  14.806  32.141  13.389
61371W        W25579   3.757  11.697  10.137
61372W        W25580  27.007  41.023  12.054
61373W        W25581  41.877  37.029  13.933
61374W        W25582  44.966  29.667   3.665
61375W        W25583  23.156  17.141   5.292
61376W        W25584  13.698   3.716  14.388
61377W        W25585  42.484   7.213   0.335
61378W        W25586  16.287   7.331   2.396
61379W        W25587  28.603  13.107   1.807
61380W        W25588  22.033  43.978   1.301
61381W        W25589  33.890  10.803   1.925
61382W        W25590  41.973   9.842  10.481
61383W        W25591  35.475  19.251  10.616
61384W        W25592   0.416  17.141   2.767
61385W        W25593  19.738   5.381  10.592
61386W        W25594   7.218  20.029  14.417
61387W        W25595  27.040   6.797   2.376
61388W        W25596  38.841  40.998  10.603
61389W        W25597   2.345  33.889  12.020
61390W        W25598  35.501  25.153  13.469
61391W        W25599   9.757  18.761   2.857
61392W        W25600  33.886  30.567  10.998
61393W        W25601  10.640  12.655  11.493
61394W        W25602  10.739  41.986   4.603
61395W        W25603  15.096  13.114   2.209
61396W        W25604  10.724  28.458  11.078
61397W        W25605  10.165  38.328   3.171
61398W        W25606  35.912  25.123  13.046
61399W        W25607  39.470  14.710  10.541
61400W        W25608  31.601  23.011   0.955
61401W        W25609  28.062  14.737   5.315
61402W        W25610  12.665  18.084  14.985
61403W        W25611  17.175  31.963  12.429
61404W        W25612   7.364   3.720   2.747
61405W        W25613  29.068  24.540  10.621
61406W        W25614   4.749  38.545   4.171
61407W        W25615   6.211  36.366  12.459
61408W        W25616  16.572   6.309   0.814
61409W        W25617  39.860  15.267   2.352
61410W        W25618  38.957  12.362   0.826
61411W        W25619  38.943  41.883  14.902
61412W        W25620  44.792  31.129   2.205
61413W        W25621  31.039  36.989  11.874
61414W        W25622  15.290  30.452  13.345
61415W        W25623  27.498  32.102  12.835
61416W        W25624  40.029  15.604  12.867
61417W        W25625  37.925   3.349   9.586
61418W        W25626  13.782   5.842   0.302
61419W        W25627  33.991  28.985  14.804
61420W        W25628  43.953   2.929   1.386
61421W        W25629   0.298  23.016   4.184
61422W        W25630  24.705   7.353   4.246
61423W        W25631  28.091  24.152   1.702
61424W        W25632  44.376  37.418   3.630
61425W        W25633  42.879  44.875   0.964
61426W        W25634  41.836   4.358  10.419
61427W        W25635  18.196  26.980  13.525
61428W        W25636  43.841  31.502  14.465
61429W        W25637  26.100  36.920   2.771
61430W        W25638  14.647   0.444   2.732
61431W        W25639  35.438  43.883   0.833
61432W        W25640  30.657  37.051   4.690
61433W        W25641  43.908  41.417  14.934
61434W        W25642  43.948  31.586   5.224
61435W        W25643  33.508  36.363  13.056
61436W        W25644  43.852  12.116  11.570
61437W        W25645  37.556  38.547   1.928
61438W        W25646  36.038  26.954  13.330
61439W        W25647   0.355   1.329   1.236
61440W        W25648  27.027  36.482  13.815
61441W        W25649  43.304  23.530  10.996
61442W        W25650  29.956  30.110  12.974
61443W        W25651   8.723  37.912   1.379
61444W        W25652  36.414   0.331  11.909
61445W        W25653  32.987  36.565   0.866
61446W        W25654  29.588  36.573  13.544
61447W        W25655  19.131  31.496   3.720
61448W        W25656  24.013  32.547   3.367
61449W        W25657  19.552  12.197  14.478
61450W        W25658  35.561  28.172  10.609
61451W        W25659  19.059  41.982  11.376
61452W        W25660  14.663  44.403   1.248
61453W        W25661  24.660  14.218   2.696
61454W        W25662  23.189  13.214  12.926
61455W        W25663   3.387  25.503   4.765
61456W        W25664   8.900  11.251   3.827
61457W        W25665  35.520  38.372   1.384
61458W        W25666  20.754  37.452  13.543
61459W        W25667  18.727  34.594  12.938
61460W        W25668  25.053  12.129   4.149
61461W        W25669  14.309  15.580   1.410
61462W        W25670   5.722  36.350  13.841
61463W        W25671  42.835   0.963   2.688
61464W        W25672   3.820   1.352  12.092
61465W        W25673  14.184  18.105  13.983
61466W        W25674  40.316  20.599   4.251
61467W        W25675  34.376   9.351   3.166
61468W        W25676  31.117  11.339  13.003
61469W        W25677  13.773  11.207   3.192
61470W        W25678   6.920   4.370   2.743
61471W        W25679  15.602  41.312  14.412
61472W        W25680  27.675  23.576   3.304
61473W        W25681  36.975   2.844  10.467
61474W        W25682  38.480  14.698  14.308
61475W        W25683  13.620  30.098   0.309
61476W        W25684   4.772  29.487  11.902
61477W        W25685  16.732  14.758  10.575
61478W        W25686  27.074  36.474  12.824
61479W        W25687  12.139  12.760   9.550
61480W        W25688  44.303  34.514   1.287
61481W        W25689   1.861  41.039  13.312
61482W        W25690  32.952   9.210  14.454
61483W        W25691  37.381  27.478   3.641
61484W        W25692   5.839   2.740  12.348
61485W        W25693  20.750  36.852   1.755
61486W        W25694  23.570  37.415  10.511
61487W        W25695  29.482  21.260  11.033
61488W        W25696   2.251  27.612  14.408
61489W        W25697  37.898   8.779  14.330
61490W        W25698  20.274  19.565   3.346
61491W        W25699  36.412  37.908   2.250
61492W        W25700   6.391   8.384   0.400
61493W        W25701  16.110   2.769   2.677
61494W        W25702  21.109  39.348  11.886
61495W        W25703  28.464  44.406  12.036
61496W        W25704  39.316  27.663  13.950
61497W        W25705  11.704  16.092   4.297
61498W        W25706   7.895  24.583   1.234
61499W        W25707  40.432  25.691   3.344
61500W        W25708  43.379  11.836   3.263
61501W        W25709  17.700  32.464  14.023
61502W        W25710  31.636   1.977  11.886
61503W        W25711   1.793  43.380  13.312
61504W        W25712  29.984  24.023   4.269
61505W        W25713   8.802   5.795   0.753
61506W        W25714   4.265  25.043  12.077
61507W        W25715  37.962  10.844  12.970
61508W        W25716  30.516   2.425   0.960
61509W        W25717  44.478   3.375  10.161
61510W        W25718  40.403  29.008  10.573
61511W        W25719  26.983   1.275  12.493
61512W        W25720  27.148  10.673   1.429
61513W        W25721  40.548  38.848  10.951
61514W        W25722  23.521  36.545  11.572
61515W        W25723   9.870  11.200   5.165
61516W        W25724  30.500  35.415   0.965
61517W        W25725  13.818  32.999  12.479
61518W        W25726   5.408   2.962  12.367
61519W        W25727  27.092  16.775  10.517
61520W        W25728  38.503  12.232  10.420
61521W        W25729  28.028  30.605   2.380
61522W        W25730   3.723  31.933   3.290
61523W        W25731  42.841  24.040   1.255
61524W        W25732  36.861  15.285   1.927
61525W        W25733   0.382  30.475  13.963
61526W        W25734  39.545  29.592  12.355
61527W        W25735   9.776  38.860  13.530
61528W        W25736  15.082  36.423  11.102
61529W        W25737  15.668  37.559   3.349
61530W        W25738  39.490   4.289  13.512
61531W        W25739  38.448  20.227  11.935
61532W        W25740  38.556  21.063  13.335
61533W        W25741   7.341  26.645   4.322
61534W        W25742  41.786  34.042  12.374
61535W        W25743  26.654   2.356   4.341
61536W        W25744  12.207  30.456  14.500
61537W        W25745  17.683  11.818   4.135
61538W        W25746  40.038  41.848  13.430
61539W        W25747   5.259  42.870   4.730
61540W        W25748  42.912  15.268  12.859
61541W        W25749  13.302  41.894  12.970
61542W        W25750  10.281  34.580  12.826
61543W        W25751  21.076  32.072  11.904
61544W        W25752   2.733   0.324  14.796
61545W        W25753  20.227   6.397  14.919
61546W        W25754   5.731  18.727  11.520
61547W        W25755   2.233   7.897  14.957
61548W        W25756  22.584  12.186   0.831
61549W        W25757  31.980   6.748  14.898
61550W        W25758  23.041   7.239   4.762
61551W        W25759  31.560   4.302   3.644
61552W        W25760   6.697  28.965  12.405
61553W        W25761  34.933   2.861   0.259
61554W        W25762   9.345   6.713   3.241
61555W        W25763  22.162  20.179   1.229
61556W        W25764  42.000  41.380  12.359
61557W        W25765  36.036  33.384  11.581
61558W        W25766   5.748  30.991   4.791
61559W        W25767  24.527   9.170  10.888
61560W        W25768  11.858  17.748   1.722
61561W        W25769  22.033  17.738  14.449
61562W        W25770  34.537  28.640   3.706
61563W        W25771  17.126  40.308   2.903
61564W        W25772  40.514  40.549  14.470
61565W        W25773   1.796   4.347  11.568
61566W        W25774   3.719  40.979  13.401
61567W        W25775  15.224  39.993   0.916
61568W        W25776  38.954  32.049   4.188
61569W        W25777   5.421  11.366   4.640
61570W        W25778   4.809   0.367  10.951
61571W        W25779  16.735   6.785   3.772
61572W        W25780   0.450  24.722  10.926
61573W        W25781  15.137   3.410  12.508
61574W        W25782  17.749  24.987   3.270
61575W        W25783  19.734  18.057   0.859
61576W        W25784  13.280  44.992  11.009
61577W        W25785  29.141  12.323   2.849
61578W        W25786  34.459   6.224   0.310
61579W        W25787  21.041  16.141   2.378
61580W        W25788  27.472  11.855  12.352
61581W        W25789  21.144  20.161  10.132
61582W        W25790  37.398  11.710   2.689
61583W        W25791   6.769  35.434  13.914
61584W        W25792  25.054  39.500  10.979
61585W        W25793  37.029  14.598  12.944
61586W        W25794   5.243  14.825  13.468
61587W        W25795  32.469  31.087  11.547
61588W        W25796  24.205  37.410   4.704
61589W        W25797  28.051  22.671  11.925
61590W        W25798  15.778  23.723  14.015
61591W        W25799  24.133   0.453   2.334
61592W        W25800   1.468  23.523  14.988
61593W        W25801  20.126   2.739   4.313
61594W        W25802   5.374  42.518   1.258
61595W        W25803  29.609  26.651   4.225
61596W        W25804  10.635  27.545  11.576
61597W        W25805  10.146   5.927  14.439
61598W        W25806  20.568  31.111  13.513
61599W        W25807  13.767   5.356   4.352
61600W        W25808  11.682   5.347  12.513
61601W        W25809  21.248  43.912  12.423
61602W        W25810   5.759  33.443   3.776
61603W        W25811  19.076   3.880   2.271
61604W        W25812  30.609  20.256  14.914
61605W        W25813  22.155  25.522   0.916
61606W        W25814  43.014  17.614  13.407
61607W        W25815  34.482  26.157  12.922
61608W        W25816  43.912  35.107   2.207
61609W        W25817   5.695  35.103  14.893
61610W        W25818  40.935  27.138  14.032
61611W        W25819   2.323   4.883  11.025
61612W        W25820  26.631  37.541  12.044
61613W        W25821  28.557  25.058   1.905
61614W        W25822  19.087  15.670  11.892
61615W        W25823  44.823   3.813   2.717
61616W        W25824  20.717  27.599   2.329
61617W        W25825  17.118  33.558  10.535
61618W        W25826  11.346  18.610   3.815
61619W        W25827  18.623  17.772  10.641
61620W        W25828  27.036  42.376   0.429
61621W        W25829  41.980   9.871  11.404
61622W        W25830  17.766  30.098  13.033
61623W        W25831   4.329  15.647   2.328
61624W        W25832   4.396  18.753   2.753
61625W        W25833  39.012  22.114  14.302
61626W        W25834  23.122   7.666   2.255
61627W        W25835  35.427  39.357   2.192
61628W        W25836  38.357  16.634   1.266
61629W        W25837  44.881   0.869   4.235
61630W        W25838  37.900  11.735  10.119
61631W        W25839   5.286  35.021  13.944
61632W        W25840  20.528   7.278   3.803
61633W        W25841  33.437   9.781   4.707
61634W        W25842  23.516   4.807   3.869
61635W        W25843  23.627  38.961  14.971
61636W        W25844  26.137  14.637   0.871
61637W        W25845  17.236  35.011   5.124
61638W        W25846   7.362  39.826   3.685
61639W        W25847  31.538  39.325  13.869
61640W        W25848  42.006  44.339  10.612
61641W        W25849  16.674  28.108   1.829
61642W        W25850   3.311  31.632   3.265
61643W        W25851   9.384   3.939   0.911
61644W        W25852  25.544  31.643  12.887
61645W        W25853  11.209  25.985  10.958
61646W        W25854  26.689  22.630   5.276
61647W        W25855   8.669  44.912   3.717
61648W        W25856   9.683   5.809   1.395
61649W        W25857   8.692  30.523  11.530
61650W        W25858   2.248  29.017  10.048
61651W        W25859  32.961  15.290   0.416
61652W        W25860   9.221  10.281   0.855
61653W        W25861  44.381  14.733   3.275
61654W        W25862  35.985   9.193   1.885
61655W        W25863  25.975  28.111   4.154
61656W        W25864   7.276  15.111   3.851
61657W        W25865  28.174  37.920  11.514
61658W        W25866  19.248  18.056  14.286
61659W        W25867  24.211  39.997   3.765
61660W        W25868   1.322  29.659  14.938
61661W        W25869  28.156   6.250   5.126
61662W        W25870   8.673   4.265  13.943
61663W        W25871  39.449  37.969  11.485
61664W        W25872  25.983   4.252  12.061
61665W        W25873  10.169  20.693  12.990
61666W        W25874  38.037  31.418  13.539
61667W        W25875  17.168  27.684   3.183
61668W        W25876  37.339  20.110   0.811
61669W        W25877   6.877   5.247  12.864
61670W        W25878  25.530  40.395   0.343
61671W        W25879  28.020  41.935   0.830
61672W        W25880   1.286  34.585  11.025
61673W        W25881   2.309  34.998  12.484
61674W        W25882  34.996  14.641  11.612
61675W        W25883  36.471  30.512  12.982
61676W        W25884  32.113   9.355   5.289
61677W        W25885  14.595  18.090   3.179
61678W        W25886   1.444  25.214  11.894
61679W        W25887  10.644  31.548  12.929
61680W        W25888  23.566   3.933   4.746
61681W        W25889  37.557  36.973  12.381
61682W        W25890  30.446  16.087  13.427
61683W        W25891  13.327  28.020   2.315
61684W        W25892  37.041  33.390   2.861
61685W        W25893  13.601  12.665  12.000
61686W        W25894  21.092  31.917   2.703
61687W        W25895  39.480   6.871   1.702
61688W        W25896  29.081  28.050  11.958
61689W        W25897  20.210  30.938  10.437
61690W        W25898  22.502  44.362   5.286
61691W        W25899  39.968  23.539   3.231
61692W        W25900   4.331  11.224  12.868
61693W        W25901  28.956  44.963   4.130
61694W        W25902  38.330   9.324  13.456
61695W        W25903  29.568   9.657   3.208
61696W        W25904  31.899  22.045   3.357
61697W        W25905  38.395  36.462   0.452
61698W        W25906  12.650  33.401   4.609
61699W        W25907  13.747  33.542   3.377
61700W        W25908  31.509  37.394   3.829
61701W        W25909  18.150  27.016   1.872
61702W        W25910  13.134   6.355  12.494
61703W        W25911  22.133  22.230   1.715
61704W        W25912  33.877  17.145   1.347
61705W        W25913  21.137  39.814   2.236
61706W        W25914  30.505  31.502   2.411
61707W        W25915   1.411   4.809  12.374
61708W        W25916  14.746  41.422   2.780
61709W        W25917  20.199   2.737  10.931
61710W        W25918  28.999  34.572  13.367
61711W        W25919   1.469  42.456   2.888
61712W        W25920   2.894  22.622   2.339
61713W        W25921  31.431  38.843  10.590
61714W        W25922  41.038   1.255   0.762
61715W        W25923  14.237  27.089  11.950
61716W        W25924  34.493  17.239   1.363
61717W        W25925  24.500  31.957  12.576
61718W        W25926   3.802   3.241  12.420
61719W        W25927  38.378  25.607  10.895
61720W        W25928   8.194  15.226   3.635
61721W        W25929   4.844  27.151  14.437
61722W        W25930  23.082  23.544  11.498
61723W        W25931   2.792  26.151   0.301
61724W        W25932  40.926  27.579  10.438
61725W        W25933  42.881  22.503   3.250
61726W        W25934  43.456   7.309  13.030
61727W        W25935  26.665   7.884   3.670
61728W        W25936  35.980  43.828   0.367
61729W        W25937  41.504  17.727  13.503
61730W        W25938  24.225  10.655   2.406
61731W        W25939  24.513  30.492  14.828
61732W        W25940  42.880  22.055   3.819
61733W        W25941  33.930  27.690   0.409
61734W        W25942  24.998  35.409   3.312
61735W        W25943  23.222  39.041  13.535
61736W        W25944  21.597  31.068   0.878
61737W        W25945  20.134  27.591   3.757
61738W        W25946  38.434  24.132   1.851
61739W        W25947  13.329  28.554   0.254
61740W        W25948  23.027  18.280   9.948
61741W        W25949  12.637   6.276   0.750
61742W        W25950  21.544  22.244   0.377
61743W        W25951  19.584  33.047  12.891
61744W        W25952  33.981  28.623  14.296
61745W        W25953  27.666  24.118  13.879
61746W        W25954  20.130  30.476  12.941
61747W        W25955  22.579  34.539  13.857
61748W        W25956   2.737  19.721   2.742
61749W        W25957  43.428   6.815   3.768
61750W        W25958  14.096  20.127  11.386
61751W        W25959  23.504  31.030   3.782
61752W        W25960   6.795   1.396  13.449
61753W        W25961  23.061   9.188   0.932
61754W        W25962  27.513   7.373   0.365
61755W        W25963   2.438  43.821  10.539
61756W        W25964  38.993  33.531   3.289
61757W        W25965   5.789   0.261   4.146
61758W        W25966  28.022  16.106   3.852
61759W        W25967  10.196   4.810  12.999
61760W        W25968  36.010  27.033  12.022
61761W        W25969   8.335  29.650  10.559
61762W        W25970  34.607  19.704   4.235
61763W        W25971  20.272  30.463   1.757
61764W        W25972  12.225  20.690  13.814
61765W        W25973  39.349   0.842  12.369
61766W        W25974  18.159   9.344  12.444
61767W        W25975  20.236  16.812   3.816
61768W        W25976  38.065  43.447   2.344
61769W        W25977  15.180  37.451   3.799
61770W        W25978  16.599  26.556   1.444
61771W        W25979  19.604   1.827   1.785
61772W        W25980  31.951  15.181  10.922
61773W        W25981  10.336  11.272  14.364
61774W        W25982  32.484  14.786  11.597
61775W        W25983  38.077  35.954   0.309
61776W        W25984  37.996  13.200   1.819
61777W        W25985  40.522   2.916  11.009
61778W        W25986  43.499  41.407   0.474
61779W        W25987  12.699  43.294  14.362
61780W        W25988   9.310  37.085   1.715
61781W        W25989  11.293  21.713  12.827
61782W        W25990  22.720  30.104   3.323
61783W        W25991  23.104  31.030   1.448
61784W        W25992  19.556  22.625   0.275
61785W        W25993  22.996  30.654   4.622
61786W        W25994   6.411  42.922   2.741
61787W        W25995  41.949  38.077   0.275
61788W        W25996  38.571  29.983   4.780
61789W        W25997  29.591   1.405   3.225
61790W        W25998  15.250  25.479  12.876
61791W        W25999  34.042  30.450  12.041
61792W        W26000   5.316   4.293   4.753
61793W        W26001   9.755  41.464   0.824
61794W        W26002  39.391  19.675   1.385
61795W        W26003  38.339  18.060  14.389
61796W        W26004  37.953  19.205   0.353
61797W        W26005   4.217   7.273   3.834
61798W        W26006  24.526   9.684  10.418
61799W        W26007  26.581   6.783  13.980
61800W        W26008  23.157  27.971  13.833
61801W        W26009   3.857  27.683  14.297
61802W        W26010  13.719  43.955   2.256
61803W        W26011  23.109  17.165  14.928
61804W        W26012   6.785  10.731  11.970
61805W        W26013  12.793   1.328   4.609
61806W        W26014  40.421  19.284  12.823
61807W        W26015  40.978  44.352   1.700
61808W        W26016  26.080  42.287  10.962
61809W        W26017  12.128  30.549   3.662
61810W        W26018  17.270   0.332   2.234
61811W        W26019  25.129  11.686   1.878
61812W        W26020  30.917  14.204   4.266
61813W        W26021  23.697  22.566   4.798
61814W        W26022  16.138   0.339   2.875
61815W        W26023  29.433  11.135  10.892
61816W        W26024  28.173  43.417   0.944
61817W        W26025  17.076  42.981   2.366
61818W        W26026  38.398  31.083   2.178
61819W        W26027  27.620  25.069   2.280
61820W        W26028  21.574  43.413  11.945
61821W        W26029   3.946  19.086  14.340
61822W        W26030  24.160   5.193   3.641
61823W        W26031  34.370  13.834   1.273
61824W        W26032  10.258  32.430  11.909
61825W        W26033  36.877  33.065   0.756
61826W        W26034  12.228  31.923  10.910
61827W        W26035  14.824  15.741  10.042
61828W        W26036  25.578  30.543  12.344
61829W        W26037  26.110  42.926   4.772
61830W        W26038  15.324  41.858  11.899
61831W        W26039  25.072   1.303  14.986
61832W        W26040  16.314  26.569  10.955
61833W        W26041   0.772  23.163  13.444
61834W        W26042   4.711  21.617  14.993
61835W        W26043   6.834  28.119   2.228
61836W        W26044  23.194  18.607  12.532
61837W        W26045  15.320  21.117  10.485
61838W        W26046   2.420  17.672  12.083
61839W        W26047  34.581  27.622   0.872
61840W        W26048  25.165  11.837  13.826
61841W        W26049  32.053   1.280   3.633
61842W        W26050  19.082  32.048  12.448
61843W        W26051  11.808   5.234  14.472
61844W        W26052  12.675  42.425  11.873
61845W        W26053  10.167  20.163   4.157
61846W        W26054  39.366   8.674   0.255
61847W        W26055  14.727  37.399  13.510
61848W        W26056  29.639  27.019  11.987
61849W        W26057  19.068   4.854  12.839
61850W        W26058  37.438  16.260  12.094
61851W        W26059   8.826  25.163  14.350
61852W        W26060  43.372  33.485   0.872
61853W        W26061   4.786  32.892   4.255
61854W        W26062   4.817  11.843  10.432
61855W        W26063  23.574  37.085   1.712
61856W        W26064  30.465   1.373   0.901
61857W        W26065  43.461  33.532   4.341
61858W        W26066  24.645  41.534  11.540
61859W        W26067  17.070  39.523   0.376
61860W        W26068  20.118  39.503   5.273
61861W        W26069   3.862  23.540   2.840
61862W        W26070  26.123   4.808   3.702
61863W        W26071  32.413  44.319  11.013
61864W        W26072  41.336  33.436   2.304
61865W        W26073  22.589  17.599   9.491
61866W        W26074  17.187  35.522   2.185
61867W        W26075  36.404   6.360   5.197
61868W        W26076  35.012  44.427  11.064
61869W        W26077  14.104  40.819   0.937
61870W        W26078  23.028  19.650   4.130
61871W        W26079  30.117   5.723  12.549
61872W        W26080  33.024  33.987   1.224
61873W        W26081  33.413  30.136   0.936
61874W        W26082  36.027  44.384   4.720
61875W        W26083   6.313  31.624  12.008
61876W        W26084   8.787  13.128   3.274
61877W        W26085   5.838  35.051   0.912
61878W        W26086   3.944  21.251  11.963
61879W        W26087  21.196   3.898  13.442
61880W        W26088  44.855  21.106  14.864
61881W        W26089  32.939  27.969   1.249
61882W        W26090  22.021  28.671   2.739
61883W        W26091   1.327  28.977   3.755
61884W        W26092  16.679  39.495   2.210
61885W        W26093  30.650   1.300   1.882
61886W        W26094   8.344  39.383  14.491
61887W        W26095  16.712  41.879   2.215
61888W        W26096  27.627   4.799  12.368
61889W        W26097  42.342   7.213   3.635
61890W        W26098  37.352  17.567   3.851
61891W        W26099  41.386   7.202  13.380
61892W        W26100  29.054  34.519  13.881
61893W        W26101  16.194  19.657   0.877
61894W        W26102   9.154  35.416   1.221
61895W        W26103  39.815  26.035   1.780
61896W        W26104   1.753  13.764  13.355
61897W        W26105  32.920  29.110   4.667
61898W        W26106  34.970  14.338   0.816
61899W        W26107   8.692  27.518   3.190
61900W        W26108  24.576  27.573  10.923
61901W        W26109  42.978  30.137  11.460
61902W        W26110  13.647  41.448   0.932
61903W        W26111  43.436  35.558   0.364
61904W        W26112  31.074  26.593   2.901
61905W        W26113  31.497   8.693  14.982
61906W        W26114   4.857  39.013   1.213
61907W        W26115   9.876   5.398  11.954
61908W        W26116  20.145  42.993  13.386
61909W        W26117  25.154  32.075   4.744
61910W        W26118  18.150  37.060   5.632
61911W        W26119  27.564   5.710   3.773
61912W        W26120   6.696  30.605  13.851
61913W        W26121  25.703  33.947  14.468
61914W        W26122  16.103  14.337   4.634
61915W        W26123   8.894  29.939   1.930
61916W        W26124   5.932  29.034   3.771
61917W        W26125  10.684   4.752  11.901
61918W        W26126  23.169   2.454   4.318
61919W        W26127  43.470  27.188   0.948
61920W        W26128   7.814  22.533  14.794
61921W        W26129  34.893  42.780   2.238
61922W        W26130  40.942   0.311  10.640
61923W        W26131  15.293  43.439  11.438
61924W        W26132  33.522   1.257  11.389
61925W        W26133  35.984  13.827  12.926
61926W        W26134   1.469  30.013  14.934
61927W        W26135  28.067  10.189   2.201
61928W        W26136   5.438  11.653  11.973
61929W        W26137   4.790  40.869  13.842
61930W        W26138  32.564  41.438   2.677
61931W        W26139  32.954  29.135   2.833
61932W        W26140  11.637  10.327   1.220
61933W        W26141  21.235   0.485  11.958
61934W        W26142  41.347  16.072   0.383
61935W        W26143  38.448   4.373   4.637
61936W        W26144  27.626  15.092   2.689
61937W        W26145  40.949   8.374   1.713
61938W        W26146  16.093  11.373   4.838
61939W        W26147  12.776   5.349  13.353
61940W        W26148   4.800  32.114  11.611
61941W        W26149  11.721   3.381  13.496
61942W        W26150  43.458  35.989  13.334
61943W        W26151  33.451  38.003   0.916
61944W        W26152  24.983   8.395  14.763
61945W        W26153  32.454  39.813   4.645
61946W        W26154  29.495  16.265   1.829
61947W        W26155  31.622  25.081   2.237
61948W        W26156  21.206  22.673   4.820
61949W        W26157  10.792  33.444   0.814
61950W        W26158  23.118  13.197   1.407
61951W        W26159  22.028  19.759   2.355
61952W        W26160  31.012  21.616   0.747
61953W        W26161  12.321  14.341   0.329
61954W        W26162  35.866   6.679   3.295
61955W        W26163  44.942  24.203   3.813
61956W        W26164  38.869   9.156   4.806
61957W        W26165  36.575  10.655   0.936
61958W        W26166   8.877   6.329   2.393
61959W        W26167  30.074  13.602   5.313
61960W        W26168   4.872  32.552  14.346
61961W        W26169  32.619  10.799  14.857
61962W        W26170   1.369  27.457  10.451
61963W        W26171   9.285  10.869   1.904
61964W        W26172   2.741  19.240  14.789
61965W        W26173  32.425  24.081   1.850
61966W        W26174  24.642  38.545  11.061
61967W        W26175  42.290  23.586  12.464
61968W        W26176  17.075   7.863   1.318
61969W        W26177  30.937  29.081   2.708
61970W        W26178  18.721  13.157  12.451
61971W        W26179  10.377  14.280  12.851
61972W        W26180  40.889  21.247   2.770
61973W        W26181   6.826  37.019  12.383
61974W        W26182   7.693  17.154  13.474
61975W        W26183  27.555  33.940  13.412
61976W        W26184  36.586   2.882  11.543
61977W        W26185   1.748   4.281   4.198
61978W        W26186  10.732   7.691  12.964
61979W        W26187  35.423   5.777  14.498
61980W        W26188   3.316  38.052   4.652
61981W        W26189  32.594  24.209  12.508
61982W        W26190  17.705  31.104  13.967
61983W        W26191  41.825  14.661  12.935
61984W        W26192  26.092   1.457   0.858
61985W        W26193  25.976  37.541  14.029
61986W        W26194  31.435  15.578  13.976
61987W        W26195  25.123  17.184  12.024
61988W        W26196  24.572  11.296   1.228
61989W        W26197  29.455  23.582  14.344
61990W        W26198  42.398  16.626  14.794
61991W        W26199  33.930  27.473  13.058
61992W        W26200  20.708  41.512  11.448
61993W        W26201  44.478  38.483   2.355
61994W        W26202   2.318  18.279   0.748
61995W        W26203  28.491  17.747   0.778
61996W        W26204  20.730  41.462   2.740
61997W        W26205  31.559   5.901   1.311
61998W        W26206  28.633  15.329   2.892
61999W        W26207  26.018   4.796   4.715
62000W        W26208   3.710  19.222  13.989
62001W        W26209  24.106  35.401  11.487
62002W        W26210   9.219  17.800   4.261
62003W        W26211  21.561  19.574   3.353
62004W        W26212  13.771  43.912  13.968
62005W        W26213  37.536   8.776  11.400
62006W        W26214  11.196  31.942  11.927
62007W        W26215  17.113  30.957  14.514
62008W        W26216   6.213   0.931   2.270
62009W        W26217   2.737   3.872  10.945
62010W        W26218   5.237  12.302  10.642
62011W        W26219   8.178   8.759   4.724
62012W        W26220  23.101  13.656   0.743
62013W        W26221  15.608  41.427   5.297
62014W        W26222   9.756  19.667   0.933
62015W        W26223  34.892  31.561  13.834
62016W        W26224  28.991  24.479   3.765
62017W        W26225  40.924   1.783   3.230
62018W        W26226  18.193  37.023  14.948
62019W        W26227  30.449  37.467  14.788
62020W        W26228  22.594  27.480   2.180
62021W        W26229  21.533  39.915   2.677
62022W        W26230  27.684  34.479  13.501
62023W        W26231  29.656   4.922   4.780
62024W        W26232  38.499  20.581  10.139
62025W        W26233   3.314  23.164   1.268
62026W        W26234   1.734  42.903   4.728
62027W        W26235  19.587  43.393  13.022
62028W        W26236   9.863  40.854  12.526
62029W        W26237  33.094   3.890   1.776
62030W        W26238  31.966  27.070  11.980
62031W        W26239  25.025  29.991  12.024
62032W        W26240  26.542  34.613   2.706
62033W        W26241  43.377  39.019  10.894
62034W        W26242   7.262   1.339  10.589
62035W        W26243   7.863  36.418  13.432
62036W        W26244  15.312   1.255   3.231
62037W        W26245  29.097  40.959   1.819
62038W        W26246   6.316  18.676  13.040
62039W        W26247  18.154  26.608  14.869
62040W        W26248  21.692  15.614   3.184
62041W        W26249  30.930  37.976  10.604
62042W        W26250  15.632  11.245   0.964
62043W        W26251  33.556  21.543  10.445
62044W        W26252  35.010  29.116  10.549
62045W        W26253  26.190  16.108   2.247
62046W        W26254   7.860   2.245   4.625
62047W        W26255  35.045   4.769  13.339
62048W        W26256  24.049  29.121  11.387
62049W        W26257  27.645   8.829  10.992
62050W        W26258  15.275   4.841   1.334
62051W        W26259   1.840  41.380  13.846
62052W        W26260   2.253  13.671  11.856
62053W        W26261   1.754  15.200   2.750
62054W        W26262  42.785  39.356   0.338
62055W        W26263   9.867  30.498   2.890
62056W        W26264  39.941  19.660  10.409
62057W        W26265  35.412   8.283  12.581
62058W        W26266  19.741  43.773  10.923
62059W        W26267  11.648  41.342  14.960
62060W        W26268  22.161   1.939   2.844
62061W        W26269  13.639  19.168  13.538
62062W        W26270  23.616  26.981  13.041
62063W        W26271  38.418  11.135   2.371
62064W        W26272  15.681  14.313   0.755
62065W        W26273  37.977  28.549  11.989
62066W        W26274  12.279  31.433   2.280
62067W        W26275   9.811  30.428  14.972
62068W        W26276  23.004  39.024   4.266
62069W        W26277   3.218  28.994  13.362
62070W        W26278   1.360  43.359  10.425
62071W        W26279  11.256   1.945   0.397
62072W        W26280  29.656  27.170  12.561
62073W        W26281  18.699  18.589  13.810
62074W        W26282  34.013   4.331  14.968
62075W        W26283  30.934  13.166   9.624
62076W        W26284  35.900   7.354   4.826
62077W        W26285   6.281  24.624  13.365
62078W        W26286  12.127   2.395   2.217
62079W        W26287   8.199   0.922  12.865
62080W        W26288  26.637  40.410   2.401
62081W        W26289   6.756  36.997  11.466
62082W        W26290  36.866  33.607  10.560
62083W        W26291  37.357  34.559   3.296
62084W        W26292  10.874  34.575  11.094
62085W        W26293   1.438  28.162   2.225
62086W        W26294  29.116   0.941  13.006
62087W        W26295  25.041  42.508   3.711
62088W        W26296  29.521  32.487   0.403
62089W        W26297  31.977  38.404   0.256
62090W        W26298   1.921  30.422  12.870
62091W        W26299  34.002  38.934  13.841
62092W        W26300  28.098  15.802   4.129
62093W        W26301   1.972  13.159   4.680
62094W        W26302  14.280  38.899  12.424
62095W        W26303  12.258  20.528   3.831
62096W        W26304  38.498  30.068  11.969
62097W        W26305  37.343  18.241   4.836
62098W        W26306  25.160  28.964   0.269
62099W        W26307  38.022  25.480  13.042
62100W        W26308  34.900  18.057  13.064
62101W        W26309  27.678  15.330  10.644
62102W        W26310  43.463  32.516   2.350
62103W        W26311  18.751  35.523  13.374
62104W        W26312  14.235  19.185  14.919
62105W        W26313  15.783  20.245   2.250
62106W        W26314  14.760  11.714   1.388
62107W        W26315   0.350   9.183  10.596
62108W        W26316   8.261  34.552   3.196
62109W        W26317  10.684  42.366  11.995
62110W        W26318  21.744  22.013  11.077
62111W        W26319   1.809  25.600  13.011
62112W        W26320  18.775   3.341  10.496
62113W        W26321  14.267  37.466  13.342
62114W        W26322  36.917  11.631   4.116
62115W        W26323  20.647  40.887   0.446
62116W        W26324  15.798  31.970   0.799
62117W        W26325   6.391   5.330  14.847
62118W        W26326  28.105  13.646   3.739
62119W        W26327  39.859  25.214  14.289
62120W        W26328  19.773  44.832  12.971
62121W        W26329  39.466   4.721  10.896
62122W        W26330   7.312  17.195   4.351
62123W        W26331   5.735  43.783   3.787
62124W        W26332  35.857  13.627  12.537
62125W        W26333  20.535  29.643   1.744
62126W        W26334  32.108  10.332  13.042
62127W        W26335  37.875   4.228  10.572
62128W        W26336   3.712  14.185  13.003
62129W        W26337  13.346  29.594   2.732
62130W        W26338   5.868  41.530  14.984
62131W        W26339  37.940  35.571   4.114
62132W        W26340  35.989   4.805  12.825
62133W        W26341   1.275   6.296  14.402
62134W        W26342  44.481  25.979   0.395
62135W        W26343   6.691  20.074   4.260
62136W        W26344   0.872   4.381   1.251
62137W        W26345   4.312  25.479  14.025
62138W        W26346  14.702  34.476   2.671
62139W        W26347  27.035  13.719  10.508
62140W        W26348  28.046  37.522  13.417
62141W        W26349  42.360  18.704  10.635
62142W        W26350  13.290  14.331  12.561
62143W        W26351  20.630  26.110  11.996
62144W        W26352  14.160  42.385  13.328
62145W        W26353  15.625  39.420  11.999
62146W        W26354  27.510  40.999   2.392
62147W        W26355  10.772  14.646   0.955
62148W        W26356  23.527  39.841  13.056
62149W        W26357  20.266  34.593   1.407
62150W        W26358  12.293  32.954  10.520
62151W        W26359   5.842   9.658   1.702
62152W        W26360  22.010   1.278  13.809
62153W        W26361  40.054  43.374  14.907
62154W        W26362  32.007  30.637   1.299
62155W        W26363  10.838  29.941  12.878
62156W        W26364  29.003  10.867  12.371
62157W        W26365  19.255   2.760  10.441
62158W        W26366  19.069  28.066  11.080
62159W        W26367   9.188  18.195   2.753
62160W        W26368  13.769  44.449  11.014
62161W        W26369   2.466  35.569  13.025
62162W        W26370  14.274  13.705   3.314
62163W        W26371  28.482  41.318  12.398
62164W        W26372  30.960  34.043  12.966
62165W        W26373  25.483  19.769   1.378
62166W        W26374   8.706  32.053   0.411
62167W        W26375  40.357  32.583   1.334
62168W        W26376  19.116   3.287   0.880
62169W        W26377  15.307   1.391   0.311
62170W        W26378  20.579  28.092   1.909
62171W        W26379   7.777  44.288  14.360
62172W        W26380  41.854  17.583   3.303
62173W        W26381  29.990  38.987   2.701
62174W        W26382  19.141  25.639  14.847
62175W        W26383  42.519  39.399   2.689
62176W        W26384  14.631  11.799   4.287
62177W        W26385   6.894  12.820  12.432
62178W        W26386  29.498   8.384  11.377
62179W        W26387  19.133  15.725  14.511
62180W        W26388  17.301  33.502   3.677
62181W        W26389  43.918  18.123  12.409
62182W        W26390   1.837  32.534   0.761
62183W        W26391   7.737  30.468   3.839
62184W        W26392  35.913  34.399   2.323
62185W        W26393  38.942  12.353  10.902
62186W        W26394   2.340  34.457   5.751
62187W        W26395  19.251  42.376  11.562
62188W        W26396  26.162  26.571  11.504
62189W        W26397   2.879  20.717   4.346
62190W        W26398   7.412   7.195   1.394
62191W        W26399  40.805  12.740  10.554
62192W        W26400  42.931  27.454  10.410
62193W        W26401   0.482  34.462  14.377
62194W        W26402  27.147   1.898  10.562
62195W        W26403  22.138  23.725   0.458
62196W        W26404  23.620  16.127   1.391
62197W        W26405  37.510   0.293  14.379
62198W        W26406  44.766  10.339  14.894
62199W        W26407   3.228  36.430  10.614
62200W        W26408  37.358  15.256  11.408
62201W        W26409   5.730  40.925   4.667
62202W        W26410   0.258  36.580  12.380
62203W        W26411  36.539  14.336  10.916
62204W        W26412  14.630   7.174  13.423
62205W        W26413   7.864  14.696   4.826
62206W        W26414  32.635  35.584  13.482
62207W        W26415  18.554  22.658  14.940
62208W        W26416  35.879  39.560   1.373
62209W        W26417   9.791   2.425   1.881
62210W        W26418  26.599  26.656   2.730
62211W        W26419  30.013  19.775   1.704
62212W        W26420  19.235  10.757   4.710
62213W        W26421   6.853  21.712  11.113
62214W        W26422  15.804  37.451   9.677
62215W        W26423  23.240  16.639   2.317
62216W        W26424  20.527  14.208   2.845
62217W        W26425   7.702  22.065  11.517
62218W        W26426  33.559   7.794   0.436
62219W        W26427  13.740  18.070  10.994
62220W        W26428  18.084   6.403   4.181
62221W        W26429  18.087  40.831  11.589
62222W        W26430  11.848  41.938  11.566
62223W        W26431   4.939   5.346   3.831
62224W        W26432  22.113  12.174   0.930
62225W        W26433  36.898  27.046   4.726
62226W        W26434  27.476   1.312   4.187
62227W        W26435  36.042  21.114  14.276
62228W        W26436  37.392  21.133  11.069
62229W        W26437  33.542  13.250  11.418
62230W        W26438   2.369  39.551   1.442
62231W        W26439   4.752   2.451  12.001
62232W        W26440   5.827  20.078  11.963
62233W        W26441  29.008  35.095   4.789
62234W        W26442  34.020   4.904  14.776
62235W        W26443   7.748  23.088  10.604
62236W        W26444   2.801  32.133   0.733
62237W        W26445  31.096   7.230  13.824
62238W        W26446   2.765  11.846  14.450
62239W        W26447  41.450  43.941  14.295
62240W        W26448  13.190  24.718   3.298
62241W        W26449  36.523   8.279  11.488
62242W        W26450   1.815   9.772   1.705
62243W        W26451   7.399  31.089   1.927
62244W        W26452   0.889  11.177   1.384
62245W        W26453  36.914  27.018  10.429
62246W        W26454   5.329  33.425   4.631
62247W        W26455   3.942   0.340   1.421
62248W        W26456  11.816  31.418  14.283
62249W        W26457   9.704  33.458   0.758
62250W        W26458  32.903  20.088  13.945
62251W        W26459   5.884  24.159   3.682
62252W        W26460  33.526  22.656   1.342
62253W        W26461   4.390  15.703  10.552
62254W        W26462  35.060   0.919   2.240
62255W        W26463  13.797  34.950   0.771
62256W        W26464  12.618  36.874   0.909
62257W        W26465  39.477  32.462  13.881
62258W        W26466  42.507  13.652   3.752
62259W        W26467  41.340  25.193   4.804
62260W        W26468  22.240  33.415  13.983
62261W        W26469  11.183  18.266   4.677
62262W        W26470  26.566  25.128  10.644
62263W        W26471   7.273  19.042  12.514
62264W        W26472  11.709  23.082   2.391
62265W        W26473  30.078  41.897   0.315
62266W        W26474  44.352   4.258   0.962
62267W        W26475  28.565  17.677  11.393
62268W        W26476  16.132  15.124  11.865
62269W        W26477  41.856  36.524   3.366
62270W        W26478  13.205  27.162   1.236
62271W        W26479  17.213  17.139   0.830
62272W        W26480   7.389  24.105   0.258
62273W        W26481  22.732  16.095   1.297
62274W        W26482  44.300  10.800   2.323
62275W        W26483  28.525   2.301  13.461
62276W        W26484  44.505   6.216  14.856
62277W        W26485  37.913  42.955  14.967
62278W        W26486   2.371  43.428  14.464
62279W        W26487   0.264  42.783  14.981
62280W        W26488  25.022  16.569   2.352
62281W        W26489   9.751  34.495  11.502
62282W        W26490  21.588  44.423   2.262
62283W        W26491  20.088  35.461   1.885
62284W        W26492  24.003  42.983   3.306
62285W        W26493  23.674  38.066  10.571
62286W        W26494   5.853  24.032   4.131
62287W        W26495   9.717   7.260  13.861
62288W        W26496  13.318  15.769   4.126
62289W        W26497   7.836  44.431   3.691
62290W        W26498   8.233  10.228  13.477
62291W        W26499   6.752  38.897  12.841
62292W        W26500  33.935  28.096   4.810
62293W        W26501   7.679  36.352   0.772
62294W        W26502  40.307   6.720   0.271
62295W        W26503   3.715  42.944  13.406
62296W        W26504  13.840  15.146  11.013
62297W        W26505   4.239   4.345   1.315
62298W        W26506   5.743   6.794   3.696
62299W        W26507  29.594  33.043   4.610
62300W        W26508  43.516  33.510  11.938
62301W        W26509  16.219  13.258  11.606
62302W        W26510   3.413  30.936  13.326
62303W        W26511  34.478  28.013   1.718
62304W        W26512   4.727  23.126   3.745
62305W        W26513  30.436  34.927   1.249
62306W        W26514  40.014  28.627   4.673
62307W        W26515  34.896  13.148   3.746
62308W        W26516   9.264  38.407   0.955
62309W        W26517  19.700  38.033  14.485
62310W        W26518  29.430  16.214  12.879
62311W        W26519  28.495  13.679   4.705
62312W        W26520   3.335  38.879  12.489
62313W        W26521   0.894  21.049  13.841
62314W        W26522  21.602   6.877  13.391
62315W        W26523  22.604  16.801   2.388
62316W        W26524   2.806  37.873   3.803
62317W        W26525  33.952   5.346  13.918
62318W        W26526   9.283   0.976  13.024
62319W        W26527  41.485  22.550  11.923
62320W        W26528   8.763  10.205  12.357
62321W        W26529  28.673  22.625   1.342
62322W        W26530   6.770  10.355   3.754
62323W        W26531  17.669  14.703   4.772
62324W        W26532  25.983  14.168  14.428
62325W        W26533  11.738  12.806  12.963
62326W        W26534  35.415  36.049   2.855
62327W        W26535  31.089   8.879   0.958
62328W        W26536  44.471  22.572  10.893
62329W        W26537   8.820  40.878   1.330
62330W        W26538  37.081  34.593   1.301
62331W        W26539  20.690  43.331   0.461
62332W        W26540  30.610  42.508   0.419
62333W        W26541   2.951  21.753  13.398
62334W        W26542  23.122   9.149  13.038
62335W        W26543   1.468  37.382  14.446
62336W        W26544  16.583  40.801   3.852
62337W        W26545   9.715  33.606  12.513
62338W        W26546   5.249  17.633  11.057
62339W        W26547  26.624  30.590  10.974
62340W        W26548   6.797  13.693   0.803
62341W        W26549  26.652  11.779   3.219
62342W        W26550  16.183  24.222   1.288
62343W        W26551  32.909  31.628   2.813
62344W        W26552  27.592   0.476  14.031
62345W        W26553  19.672  14.273  10.510
62346W        W26554  26.624  42.328  13.063
62347W        W26555  19.593  32.920   3.312
62348W        W26556  40.864  30.495   3.279
62349W        W26557  39.349  37.512  13.429
62350W        W26558  23.720  11.299   3.832
62351W        W26559  19.655  15.309   3.841
62352W        W26560  13.845   6.828  14.408
62353W        W26561  20.604   9.727   3.146
62354W        W26562  17.070  25.500  14.390
62355W        W26563  15.702  14.790  14.468
62356W        W26564  43.928  38.011  13.440
62357W        W26565  38.041  13.243  12.427
62358W        W26566   2.938  17.172  14.809
62359W        W26567  23.670   9.286  14.907
62360W        W26568  30.098  36.851  12.366
62361W        W26569  14.660  21.688  12.843
62362W        W26570  37.574  34.388  11.912
62363W        W26571  37.950  34.600  14.909
62364W        W26572  34.378  33.047  12.857
62365W        W26573  23.733  27.675   2.245
62366W        W26574  27.454  36.428   4.744
62367W        W26575  37.997  27.172  10.563
62368W        W26576  10.281  29.505  11.390
62369W        W26577  37.970  32.057  14.001
62370W        W26578  35.410   1.827   3.174
62371W        W26579  42.290  29.146  14.955
62372W        W26580  38.885  32.051  13.017
62373W        W26581  15.101  27.136  10.488
62374W        W26582   0.748  24.012   2.250
62375W        W26583   5.809  41.851  14.432
62376W        W26584   0.840   0.285   0.318
62377W        W26585  41.922  44.998   3.292
62378W        W26586  14.611  26.583   2.189
62379W        W26587  15.259   0.365  14.969
62380W        W26588  15.177  14.802  12.462
62381W        W26589  16.305  31.580  13.448
62382W        W26590  36.377  35.899   3.311
62383W        W26591  23.574   2.434   2.180
62384W        W26592  20.044   5.732  14.799
62385W        W26593   9.791  18.061   3.721
62386W        W26594   6.810  21.042   1.373
62387W        W26595  24.211  14.195  12.518
62388W        W26596  15.294   5.817   3.378
62389W        W26597  10.277   4.373   0.866
62390W        W26598   2.922  14.813   1.798
62391W        W26599  32.103  39.418   4.157
62392W        W26600   4.698  34.519  12.407
62393W        W26601  24.191  34.476  12.947
62394W        W26602  15.196  33.007  11.606
62395W        W26603   2.825   9.277  14.938
62396W        W26604  24.150  41.819   3.706
62397W        W26605   0.957   7.291  13.924
62398W        W26606  22.166  14.827   3.860
62399W        W26607  44.468  32.606   3.356
62400W        W26608   8.312  44.830  13.064
62401W        W26609  16.644   5.720  14.916
62402W        W26610   0.779   3.399   4.237
62403W        W26611  32.106   0.883  14.513
62404W        W26612  32.925  12.329   3.818
62405W        W26613  33.438  16.144  10.157
62406W        W26614  24.023  33.562  14.399
62407W        W26615  41.852  26.643   4.640
62408W        W26616   6.409  40.502   2.719
62409W        W26617  43.465  21.130  11.463
62410W        W26618  15.646  41.310  12.981
62411W        W26619  35.550  18.229   3.172
62412W        W26620   5.379   2.381  10.983
62413W        W26621  11.200  30.532  14.892
62414W        W26622  40.539  16.221   5.725
62415W        W26623  16.630  23.992  14.468
62416W        W26624   8.765  35.505   3.197
62417W        W26625  14.283  35.857  13.335
62418W        W26626  16.755   4.718   3.172
62419W        W26627  15.328   3.841   1.322
62420W        W26628  15.272  34.384   1.895
62421W        W26629  21.542  23.129   2.217
62422W        W26630   7.229   0.476   3.305
62423W        W26631  42.361  38.424   4.114
62424W        W26632  42.807  43.447  13.352
62425W        W26633   3.754  44.769  11.063
62426W        W26634   2.880  36.078   2.208
62427W        W26635  16.746  31.624   3.264
62428W        W26636   2.959  26.637  10.965
62429W        W26637  38.362  42.465  10.423
62430W        W26638  36.445   9.305  14.360
62431W        W26639  41.510  36.527  14.943
62432W        W26640   5.429   8.710   1.899
62433W        W26641  11.294  40.502  14.980
62434W        W26642  11.337  41.430   3.738
62435W        W26643  16.082  40.338  12.375
62436W        W26644   2.888  33.604   9.936
62437W        W26645  12.329  36.935   1.234
62438W        W26646  36.402  12.666  11.529
62439W        W26647   2.293  16.772   1.421
62440W        W26648  12.173  17.146  14.347
62441W        W26649  33.963  11.655  14.419
62442W        W26650  20.567   7.723  11.057
62443W        W26651  25.192  41.357   1.302
62444W        W26652  22.507  40.043  12.019
62445W        W26653  13.233  33.581  11.912
62446W        W26654  13.702  19.710   1.298
62447W        W26655  11.695  19.553   0.350
62448W        W26656  13.280  23.528   4.754
62449W        W26657  30.553  36.957  11.401
62450W        W26658  16.680  35.989   4.180
62451W        W26659  38.047   5.792  12.043
62452W        W26660   1.447  29.116  11.902
62453W        W26661  14.612  32.418   0.829
62454W        W26662  39.413  41.972  10.892
62455W        W26663  35.870  23.151   0.921
62456W        W26664  21.543   2.274  11.492
62457W        W26665   6.252  27.651  10.046
62458W        W26666   7.181  29.965   2.236
62459W        W26667  41.931  38.358  10.504
62460W        W26668  22.244  14.278  11.462
62461W        W26669  41.943   1.300  14.008
62462W        W26670  29.993  22.517   2.723
62463W        W26671  43.500  13.314  13.415
62464W        W26672  12.174  34.513  10.902
62465W        W26673  16.219  42.837   1.281
62466W        W26674  23.522   4.932  12.989
62467W        W26675  37.476  10.816   4.246
62468W        W26676  33.609  38.024   2.671
62469W        W26677  33.991  38.338  13.918
62470W        W26678  39.435   8.759  13.801
62471W        W26679   6.408   5.927   4.599
62472W        W26680  42.019  44.873   2.739
62473W        W26681  37.985  35.034  11.553
62474W        W26682  39.371  10.231   1.293
62475W        W26683  13.310  43.014   0.727
62476W        W26684  22.128  11.796   4.649
62477W        W26685  36.464  11.231   3.759
62478W        W26686  33.453  27.002  13.942
62479W        W26687  39.462  13.186   1.366
62480W        W26688  40.876   5.399   0.453
62481W        W26689  11.686  17.625   2.685
62482W        W26690  20.196  27.686  10.414
62483W        W26691  29.155   5.752   1.854
62484W        W26692  23.496  40.470  11.583
62485W        W26693   9.756  29.132  11.512
62486W        W26694   2.919  39.321  10.946
62487W        W26695  27.485  30.054   3.341
62488W        W26696  37.457  22.662   3.231
62489W        W26697  10.799  26.098  14.278
62490W        W26698  35.468  42.313  10.946
62491W        W26699  32.886  24.030   1.837
62492W        W26700  31.986  30.417  11.054
62493W        W26701  31.086  15.779  11.855
62494W        W26702  33.383  38.974  13.026
62495W        W26703   2.309  36.379   1.261
62496W        W26704  19.599   6.307   2.271
62497W        W26705   5.721  11.643  12.417
62498W        W26706  32.451  12.217  12.495
62499W        W26707  36.959   3.866  14.805
62500W        W26708  15.751  14.293  12.043
62501W        W26709  27.469  12.142   0.279
62502W        W26710  29.483   0.815  13.885
62503W        W26711   9.197  40.004   4.318
62504W        W26712   8.218  27.141   0.331
62505W        W26713  41.826  12.175  14.799
62506W        W26714  39.528  16.196  14.887
62507W        W26715   1.857   8.736   1.883
62508W        W26716  26.625  40.402  13.515
62509W        W26717  44.266   7.175  10.466
62510W        W26718  31.151  30.000   4.295
62511W        W26719  28.613  12.761   1.262
62512W        W26720  30.566  39.380  10.644
62513W        W26721  20.737  17.682  10.916
62514W        W26722  30.465  41.316   0.894
62515W        W26723   2.889  23.501  10.553
62516W        W26724   0.417  42.430   3.727
62517W        W26725  22.706  42.472  11.002
62518W        W26726   1.976  35.540   4.280
62519W        W26727  24.011  38.821   2.662
62520W        W26728  18.661  14.643   4.706
62521W        W26729  19.736   2.848   1.856
62522W        W26730  24.164  38.849  10.441
62523W        W26731  31.417  35.468   0.946
62524W        W26732  29.451  41.478  11.972
62525W        W26733  20.630  26.575  12.409
62526W        W26734  12.813  22.619  12.097
62527W        W26735  20.065   4.761   5.270
62528W        W26736   1.950  40.820   0.295
62529W        W26737  26.489  22.578   2.778
62530W        W26738  17.197  33.443  11.542
62531W        W26739  22.664  11.863   1.713
62532W        W26740  35.534  34.505  10.547
62533W        W26741  35.016  33.886  10.447
62534W        W26742  25.619   5.212  14.305
62535W        W26743  20.637  41.384  10.902
62536W        W26744  11.698  12.132  11.570
62537W        W26745  15.677   6.339  12.848
62538W        W26746   3.735   0.867  14.335
62539W        W26747  36.447  37.532   0.953
62540W        W26748  34.523  19.570   0.842
62541W        W26749  37.923   5.297  13.891
62542W        W26750  29.596  17.802   4.267
62543W        W26751  29.556  11.703   0.864
62544W        W26752   7.790   9.293  12.823
62545W        W26753   1.378  32.980  12.517
62546W        W26754  30.580  17.771   9.941
62547W        W26755  32.395  17.128   2.358
62548W        W26756  25.029   3.865   2.285
62549W        W26757  26.144  37.336  12.491
62550W        W26758  40.537  29.055  13.934
62551W        W26759   9.204  12.663   4.299
62552W        W26760  26.601  13.800   0.764
62553W        W26761  18.288  33.939   2.376
62554W        W26762  41.864   8.252  14.943
62555W        W26763  14.325  33.620  12.565
62556W        W26764  22.171   8.735   0.931
62557W        W26765   1.301  19.551  14.960
62558W        W26766  14.259  15.723   2.332
62559W        W26767  19.686  26.619   9.971
62560W        W26768   4.864  10.260  12.428
62561W        W26769  25.136   9.230  12.969
62562W        W26770  35.463  43.482  11.407
62563W        W26771   5.390  23.128   3.856
62564W        W26772  26.960  37.014   4.319
62565W        W26773  35.933  23.211  14.486
62566W        W26774  22.180   8.669  12.955
62567W        W26775  12.126   0.919   4.681
62568W        W26776  19.669  43.971   0.951
62569W        W26777  18.594  12.298   4.606
62570W        W26778  37.042   6.382   4.708
62571W        W26779  30.940  28.457  12.096
62572W        W26780   0.989  37.044   3.673
62573W        W26781  22.179   3.848  13.043
62574W        W26782  32.080  34.093   2.681
62575W        W26783  32.025  21.071   1.451
62576W        W26784  38.058   8.811   1.921
62577W        W26785   2.317  23.561  13.371
62578W        W26786  43.894   6.216   2.205
62579W        W26787  30.103  34.102   4.600
62580W        W26788   5.285   3.932  12.537
62581W        W26789   0.985  15.585   2.897
62582W        W26790   0.804  28.988  10.946
62583W        W26791   7.668  14.197  11.556
62584W        W26792  27.997   3.441  14.826
62585W        W26793  26.168   9.316  11.596
62586W        W26794   8.175  33.127   3.305
62587W        W26795  15.168  39.486  10.160
62588W        W26796  30.957  14.203  14.449
62589W        W26797  44.421  16.138  12.046
62590W        W26798  16.735  43.271  11.579
62591W        W26799  24.674  16.729  14.919
62592W        W26800   8.276  19.688  12.030
62593W        W26801  44.429  15.124  11.032
62594W        W26802  21.725   9.356   2.762
62595W        W26803  13.800  14.640   4.619
62596W        W26804  14.590  44.983   1.266
62597W        W26805  38.005  29.120  13.381
62598W        W26806  20.567  41.916   3.334
62599W        W26807  15.704  11.225   3.753
62600W        W26808  38.067  29.065   4.713
62601W        W26809  35.405  37.954  12.072
62602W        W26810   7.707  15.254   3.302
62603W        W26811  10.678  40.847   3.300
62604W        W26812  44.804   6.256  12.418
62605W        W26813  23.504  37.911   2.696
62606W        W26814  42.497  30.050   3.659
62607W        W26815  13.151  22.742   1.764
62608W        W26816  27.536  43.286   3.303
62609W        W26817  28.588  26.544  13.404
62610W        W26818  19.187  44.466   1.712
62611W        W26819   4.932  17.119   3.227
62612W        W26820   4.205  26.069   3.263
62613W        W26821  15.735  11.743   4.183
62614W        W26822  35.584  31.603  10.486
62615W        W26823  17.080  14.623  11.967
62616W        W26824  10.297   4.767  10.490
62617W        W26825  35.360  12.283  13.428
62618W        W26826  16.797   9.875   4.727
62619W        W26827  23.047   6.407  14.835
62620W        W26828   4.307  25.689   0.932
62621W        W26829  39.503  17.238  12.482
62622W        W26830  12.215   5.280  11.469
62623W        W26831  41.962  44.322   2.334
62624W        W26832  20.753  22.593   0.755
62625W        W26833  33.042   7.413  10.889
62626W        W26834  34.499  15.193  10.431
62627W        W26835  29.497   1.803   1.900
62628W        W26836  10.216   4.939  13.899
62629W        W26837  31.065  12.242   0.907
62630W        W26838   4.389  17.696   0.242
62631W        W26839   1.831  15.678  14.807
62632W        W26840  42.358  13.294   3.223
62633W        W26841  36.516  18.128   5.299
62634W        W26842   7.831   7.837   4.340
62635W        W26843  28.982  14.599  12.525
62636W        W26844  39.469  27.174  12.405
62637W        W26845   7.224  19.565  13.972
62638W        W26846  26.012   3.401  12.567
62639W        W26847  43.950  31.606  14.901
62640W        W26848   3.432  10.243  14.488
62641W        W26849  41.398  10.848   4.221
62642W        W26850  25.700  39.056  10.146
62643W        W26851   0.970  20.265   0.471
62644W        W26852  31.043   1.459   3.347
62645W        W26853  20.636  23.058   3.734
62646W        W26854  20.083  25.056   1.297
62647W        W26855   5.235  18.587  10.433
62648W        W26856  43.855  39.513   3.270
62649W        W26857   8.210  36.425   2.190
62650W        W26858  36.445   8.379  13.848
62651W        W26859   9.385   3.369  13.534
62652W        W26860  23.086  40.302  14.799
62653W        W26861  17.656  37.855   4.657
62654W        W26862  26.032  33.002   2.896
62655W        W26863  30.095  41.819   3.804
62656W        W26864  28.550  11.148   2.729
62657W        W26865  29.600  28.622  12.986
62658W        W26866   5.413  33.562   1.883
62659W        W26867  25.091  22.625   2.902
62660W        W26868  33.047  13.631  11.883
62661W        W26869  11.809  28.664   4.209
62662W        W26870  30.632  29.171   4.233
62663W        W26871  25.710  32.093  10.412
62664W        W26872  19.157  37.550  11.089
62665W        W26873  13.190  32.958  10.410
62666W        W26874  26.477   9.751  10.641
62667W        W26875  23.240  15.680   9.979
62668W        W26876  29.027  33.927  14.872
62669W        W26877   7.876  18.577   2.715
62670W        W26878  43.006  18.191  12.832
62671W        W26879  28.477  27.610   4.320
62672W        W26880  23.007  13.819  13.826
62673W        W26881  26.119  40.044   0.800
62674W        W26882   4.370  17.119   1.786
62675W        W26883   7.669  37.366   3.230
62676W        W26884  43.896  14.627   3.241
62677W        W26885   9.244  34.044  10.628
62678W        W26886  20.577   1.371  13.044
62679W        W26887   7.319  41.971   2.285
62680W        W26888  44.900  27.665  13.533
62681W        W26889  27.159  11.719   1.714
62682W        W26890  37.071  27.596   3.768
62683W        W26891  29.100  32.021  11.501
62684W        W26892  21.110  42.793  14.311
62685W        W26893  37.473  16.572   1.850
62686W        W26894  14.231   7.876   4.598
62687W        W26895  11.210  17.064  12.878
62688W        W26896  33.959   5.425   4.144
62689W        W26897  23.729  15.144  14.452
62690W        W26898   1.881  40.986   1.738
62691W        W26899  25.023  36.405  14.352
62692W        W26900  16.768  42.798  12.342
62693W        W26901  13.689  35.927   3.796
62694W        W26902  44.898  17.674  12.408
62695W        W26903  29.989  13.324   2.324
62696W        W26904  39.465  13.276  10.611
62697W        W26905  23.043  41.880   4.709
62698W        W26906  30.040   9.169   3.811
62699W        W26907  28.456  28.678   0.779
62700W        W26908  41.419  20.071  11.912
62701W        W26909   5.753   3.315   0.817
62702W        W26910   0.297  39.839   2.326
62703W        W26911  12.117  18.739   2.855
62704W        W26912   1.439  19.592  12.061
62705W        W26913  40.479  27.586  14.402
62706W        W26914  16.154  39.034  10.084
62707W        W26915  38.895  41.411  14.953
62708W        W26916  17.656  30.549  14.761
62709W        W26917  24.687  34.984  10.887
62710W        W26918  28.076  33.516   3.680
62711W        W26919  38.931   8.184   3.700
62712W        W26920  14.248  42.798   3.179
62713W        W26921  23.042  32.917  11.591
62714W        W26922  17.783   6.859  10.634
62715W        W26923  22.191  36.843   4.355
62716W        W26924  41.835  18.070  14.421
62717W        W26925  33.417  33.389   2.690
62718W        W26926  33.483  12.159   4.181
62719W        W26927  43.798  35.098   5.218
62720W        W26928  19.599  42.476   3.704
62721W        W26929  40.446  24.630   1.253
62722W        W26930  35.945  18.746  14.464
62723W        W26931  35.040  22.218   0.807
62724W        W26932  17.281  36.354   0.326
62725W        W26933   7.766  30.483   0.779
62726W        W26934  40.821   0.987  14.392
62727W        W26935  33.600  41.963   4.643
62728W        W26936  25.055   9.363  11.487
62729W        W26937  31.590  43.273   4.660
62730W        W26938   3.786  38.952   4.806
62731W        W26939   6.777   6.695  10.486
62732W        W26940  41.318  11.230  11.944
62733W        W26941  26.086  26.584   0.851
62734W        W26942   5.360   2.418   2.249
62735W        W26943   2.254  23.585   0.917
62736W        W26944  41.532  39.937  10.620
62737W        W26945  15.653  20.730  13.449
62738W        W26946  30.583   2.867  11.082
62739W        W26947  38.825  16.193   3.646
62740W        W26948  15.750  15.660   1.902
62741W        W26949   4.380  23.117   3.318
62742W        W26950  18.692  26.174  13.312
62743W        W26951  29.598  32.039   1.750
62744W        W26952  21.112  16.302   5.319
62745W        W26953  10.327  15.157  11.919
62746W        W26954  33.031  32.505   2.311
62747W        W26955  43.947  15.678   4.666
62748W        W26956  21.057  29.626   1.718
62749W        W26957  11.849  24.103   0.744
62750W        W26958   9.180  37.551  13.346
62751W        W26959  42.400   7.237  11.576
62752W        W26960  30.097  40.546  14.897
62753W        W26961  20.527  18.059  11.016
62754W        W26962   6.398  11.694  13.322
62755W        W26963   2.234   7.691  10.982
62756W        W26964  11.775  32.505  12.493
62757W        W26965  34.888  17.775  13.033
62758W        W26966  37.060  35.934  11.011
62759W        W26967  39.899  28.582  12.982
62760W        W26968  23.165  39.465  10.922
62761W        W26969  32.578  20.092  12.340
62762W        W26970  35.491  18.583   2.201
62763W        W26971  14.261  40.897  14.314
62764W        W26972  19.691   1.898  12.001
62765W        W26973  25.528  11.795  12.538
62766W        W26974  10.646   8.667   0.965
62767W        W26975   1.784  35.484   0.834
62768W        W26976  41.302   0.306   4.144
62769W        W26977  30.968  37.562   3.164
62770W        W26978   1.269  40.920   0.753
62771W        W26979  32.109   0.322  10.015
62772W        W26980  18.192  33.077   2.729
62773W        W26981  13.607  43.311  13.945
62774W        W26982   2.877  25.562  14.484
62775W        W26983  31.053  16.577  13.851
62776W        W26984  29.100   7.856  12.079
62777W        W26985  26.603   5.930  13.904
62778W        W26986   6.314  37.477  12.438
62779W        W26987  24.154  10.708  12.909
62780W        W26988   8.321   1.856   1.745
62781W        W26989  39.340  16.228  10.925
62782W        W26990  32.018  40.878   0.747
62783W        W26991   2.394  14.674  14.320
62784W        W26992   6.839  31.581   0.927
62785W        W26993   3.888  20.197   1.731
62786W        W26994  27.947   3.219   5.133
62787W        W26995  31.496  15.609  13.502
62788W        W26996  38.515  27.545  13.028
62789W        W26997  44.430  23.597  12.846
62790W        W26998  26.460  11.189  12.856
62791W        W26999   3.881  10.742  13.397
62792W        W27000   5.435  31.911  11.000
62793W        W27001  44.862  22.688  14.798
62794W        W27002  37.550  12.636   2.895
62795W        W27003  21.555  15.611  14.937
62796W        W27004  17.217   9.668  13.427
62797W        W27005  25.169  15.812  13.966
62798W        W27006  12.125  24.159   2.679
62799W        W27007  34.398  22.715  13.471
62800W        W27008  11.670  35.025  13.976
62801W        W27009  15.590  35.462  14.875
62802W        W27010  39.971   6.727  13.841
62803W        W27011   4.404  18.265   1.755
62804W        W27012  37.349  38.048  13.959
62805W        W27013  26.999  24.976   2.699
62806W        W27014  26.202  31.558   0.252
62807W        W27015  15.109   4.410  13.311
62808W        W27016   5.814  13.708  14.403
62809W        W27017  25.167   8.890   2.821
62810W        W27018  25.963  29.094   0.361
62811W        W27019   1.746  44.799  11.871
62812W        W27020   4.355  42.942  13.861
62813W        W27021  30.415  23.636   4.803
62814W        W27022  34.512  11.128   4.725
62815W        W27023  31.500   7.798  12.911
62816W        W27024  33.060  29.576  11.945
62817W        W27025   2.381  31.051  12.500
62818W        W27026  18.735  31.568   0.844
62819W        W27027  43.950   2.415   3.800
62820W        W27028  28.081  28.996  14.911
62821W        W27029  31.632  26.150   1.428
62822W        W27030  16.803  33.078  13.917
62823W        W27031  13.739  12.675   4.195
62824W        W27032  43.017  14.217   1.326
62825W        W27033  31.553   9.717  12.974
62826W        W27034  35.539  37.494   2.409
62827W        W27035   1.421   2.814  12.474
62828W        W27036  20.534  26.683  10.156
62829W        W27037  10.732  44.468   2.893
62830W        W27038  23.598   9.736  12.561
62831W        W27039  11.127   2.842  11.096
62832W        W27040   0.359  39.008  12.442
62833W        W27041  10.243   2.856  11.967
62834W        W27042  22.238  23.674  10.418
62835W        W27043  23.091  42.446   2.412
62836W        W27044  21.606   0.921   3.642
62837W        W27045  20.269  41.394  12.916
62838W        W27046   7.797   1.399  12.948
62839W        W27047  37.543  44.473  12.525
62840W        W27048  39.422  20.056  13.019
62841W        W27049  36.034  19.651   3.640
62842W        W27050  38.396  26.562   0.337
62843W        W27051  43.796  36.892   0.307
62844W        W27052  10.200  15.675  14.019
62845W        W27053  17.297  37.513   0.873
62846W        W27054  42.893   2.352  10.446
62847W        W27055  29.146   3.709  13.016
62848W        W27056   4.324   5.414  12.975
62849W        W27057  21.022  25.498   0.895
62850W        W27058  44.485  30.415  10.932
62851W        W27059  13.841  23.551  10.962
62852W        W27060   0.446  36.531   4.269
62853W        W27061  28.454  42.814  10.572
62854W        W27062  33.624  37.914   4.180
62855W        W27063  23.591  19.231  10.097
62856W        W27064  21.560   3.293   2.302
62857W        W27065  13.306   0.299   0.329
62858W        W27066  32.110  13.156  11.068
62859W        W27067  34.392   5.791  10.946
62860W        W27068   5.760   9.794   0.424
62861W        W27069  10.654  20.192   3.212
62862W        W27070  17.095  38.434  13.413
62863W        W27071  39.018  37.944   0.267
62864W        W27072   5.912  41.850  11.419
62865W        W27073  15.279   4.872   0.482
62866W        W27074   6.278  24.990   0.902
62867W        W27075  44.812   8.788  12.866
62868W        W27076   1.915  27.505  11.945
62869W        W27077  28.627  40.357   1.397
62870W        W27078   0.749   4.449  12.377
62871W        W27079  28.482  36.509   2.184
62872W        W27080  31.612  38.013  13.517
62873W        W27081  15.649  13.755   2.394
62874W        W27082  10.879  43.907  14.454
62875W        W27083  35.942   2.942   1.433
62876W        W27084  38.941  24.170   3.359
62877W        W27085   5.707   1.863  14.784
62878W        W27086  34.909  41.859   0.836
62879W        W27087  14.269  26.120  14.865
62880W        W27088  35.461  17.171  12.498
62881W        W27089  28.964  43.461   1.425
62882W        W27090  15.186  13.693   1.317
62883W        W27091  16.082  11.805   2.374
62884W        W27092  38.409  30.137  14.843
62885W        W27093  37.951   4.237  12.577
62886W        W27094  42.889  30.086  11.943
62887W        W27095  22.717  43.941   1.920
62888W        W27096  10.353  14.340   0.778
62889W        W27097   2.828  19.269  10.571
62890W        W27098  37.528  39.846   2.730
62891W        W27099  17.594  26.064  14.844
62892W        W27100  21.125  20.741  10.472
62893W        W27101  35.596   5.420  10.960
62894W        W27102   1.408  27.614  11.121
62895W        W27103  34.373  27.461  11.434
62896W        W27104   9.865   6.817   1.309
62897W        W27105  25.587  16.156  10.472
62898W        W27106  32.078  12.658   0.288
62899W        W27107  42.280  12.328  10.418
62900W        W27108  20.612  30.617  11.971
62901W        W27109  32.507  28.638   4.234
62902W        W27110  43.944   7.173   1.921
62903W        W27111  20.256   2.235   0.375
62904W        W27112  38.894  41.030  10.902
62905W        W27113  13.262  21.032  12.470
62906W        W27114   6.866  16.086  13.865
62907W        W27115  24.164  39.971  12.995
62908W        W27116  11.372  28.502  11.434
62909W        W27117   6.914  40.532  12.355
62910W        W27118  34.069  38.448  13.320
62911W        W27119  41.434  37.420   3.854
62912W        W27120  38.391   8.260  12.950
62913W        W27121  10.266  35.035  10.041
62914W        W27122  34.371   4.879   2.185
62915W        W27123  14.188  21.662   4.142
62916W        W27124  44.318   3.315   2.829
62917W        W27125  10.758   4.444  11.592
62918W        W27126  24.211   5.309   1.922
62919W        W27127  30.931  13.333   4.746
62920W        W27128  32.054   1.383   1.286
62921W        W27129  31.114  18.191   2.791
62922W        W27130  24.573  17.747   2.803
62923W        W27131  34.587  30.589   4.660
62924W        W27132  36.374   0.774   3.278
62925W        W27133  17.181   1.814   4.749
62926W        W27134  10.331  19.573   1.382
62927W        W27135  16.744  12.777   2.807
62928W        W27136  42.976  18.152   3.167
62929W        W27137  41.918   3.323  11.000
62930W        W27138  39.897   0.953  10.541
62931W        W27139  23.016   2.391  11.466
62932W        W27140  36.448  30.914   1.430
62933W        W27141   0.900  15.588  13.469
62934W        W27142  40.361   2.826   3.151
62935W        W27143  14.820  35.866  13.923
62936W        W27144  44.475  29.136  14.342
62937W        W27145   8.235  16.240   1.807
62938W        W27146  30.590  13.807  10.625
62939W        W27147  23.714   1.808   2.352
62940W        W27148  31.576  25.659  11.903
62941W        W27149   8.787  24.653  12.377
62942W        W27150  19.604  15.684   0.287
62943W        W27151  31.909  35.400  13.936
62944W        W27152  41.386  27.598   4.123
62945W        W27153  14.823  37.055  12.526
62946W        W27154   7.826  37.847  12.421
62947W        W27155  41.325  33.483  11.061
62948W        W27156  18.233  34.084  10.574
62949W        W27157  37.456   2.419   2.864
62950W        W27158  10.367  39.326  12.483
62951W        W27159  16.727   7.859   1.861
62952W        W27160  18.171  21.583  14.787
62953W        W27161  13.165  14.289   2.785
62954W        W27162  40.534  24.550   2.362
62955W        W27163  30.157  31.959   1.269
62956W        W27164   0.817  20.712   1.934
62957W        W27165   3.929  39.877   0.922
62958W        W27166  33.013   8.272  11.563
62959W        W27167  25.104  15.320  12.994
62960W        W27168  11.310  18.135   3.775
62961W        W27169   4.316  11.338   2.703
62962W        W27170  13.769  35.536   1.785
62963W        W27171   1.413  31.512  12.530
62964W        W27172  19.581  12.275   3.741
62965W        W27173   8.195  36.097   4.249
62966W        W27174  28.638  34.906  14.903
62967W        W27175   4.756  41.871   4.130
62968W        W27176  40.897  22.542   4.162
62969W        W27177   5.791  28.952   2.724
62970W        W27178  18.558  31.621  13.830
62971W        W27179   8.401  35.558   3.670
62972W        W27180  14.816  39.553   2.685
62973W        W27181  42.812  20.258   3.285
62974W        W27182  16.083  12.819  11.924
62975W        W27183   2.786  28.482   2.290
62976W        W27184  33.508  21.540   3.667
62977W        W27185   0.950   6.777   3.181
62978W        W27186  19.721  43.983  14.472
62979W        W27187  16.724   7.307   4.736
62980W        W27188  19.248  44.312  13.919
62981W        W27189  17.644  35.875  11.886
62982W        W27190  42.002  35.412  13.451
62983W        W27191  44.404  15.713   3.215
62984W        W27192  21.739  13.819  12.346
62985W        W27193  32.973   2.965   4.750
62986W        W27194  37.895   2.311   1.249
62987W        W27195  15.703   3.843  14.014
62988W        W27196  13.203  39.949   3.681
62989W        W27197  14.806  17.149  13.907
62990W        W27198  12.302  11.864  12.393
62991W        W27199   7.221   6.212  14.845
62992W        W27200   3.286  39.823   2.299
62993W        W27201  31.103  35.074  13.477
62994W        W27202   7.822  15.626   0.363
62995W        W27203  25.982  35.909   0.797
62996W        W27204   3.817  19.096   4.302
62997W        W27205   1.281  33.405  13.346
62998W        W27206  38.822  41.308  11.965
62999W        W27207   9.343  28.637  13.322
63000W        W27208  25.099   9.805   2.366
63001W        W27209  13.775  26.117   4.198
63002W        W27210  29.643  17.746  12.994
63003W        W27211  16.114   7.810  12.382
63004W        W27212  41.354   9.707   2.761
63005W        W27213   4.874  13.177  12.017
63006W        W27214  24.685  41.501  12.579
63007W        W27215   4.391  27.669  11.977
63008W        W27216   0.258  28.569  10.571
63009W        W27217  31.968  14.689  13.968
63010W        W27218  19.202  16.178   4.259
63011W        W27219  43.975  31.402   3.244
63012W        W27220  37.918   0.276  14.879
63013W        W27221  42.447  39.501  11.386
63014W        W27222  17.735  17.293  12.393
63015W        W27223   1.909  36.028   0.313
63016W        W27224  28.559  25.983  13.340
63017W        W27225  16.742  37.973  12.438
63018W        W27226  28.659   8.346  14.471
63019W        W27227  44.285  26.098   3.340
63020W        W27228  32.608  15.751  11.555
63021W        W27229  28.522   2.314   0.295
63022W        W27230   8.702  23.997   2.281
63023W        W27231  16.572  10.862   4.286
63024W        W27232  14.272  36.376   2.872
63025W        W27233  12.250   9.384   1.289
63026W        W27234  12.201  22.686  10.457
63027W        W27235  11.128  22.114   4.628
63028W        W27236   8.700   7.689   5.146
63029W        W27237   6.710  18.552  12.957
63030W        W27238  42.361  41.349   0.960
63031W        W27239  43.489  38.057  14.454
63032W        W27240  13.636  34.086   4.205
63033W        W27241  22.188  39.019   1.844
63034W        W27242  44.887   3.912   4.149
63035W        W27243   8.854  43.392  10.504
63036W        W27244  41.351  10.209   4.733
63037W        W27245  10.877  18.553   0.907
63038W        W27246  32.986  24.539  10.617
63039W        W27247   3.949  14.623  10.921
63040W        W27248   8.318  28.082  14.292
63041W        W27249  10.642  13.173  12.824
63042W        W27250  18.698  17.210  14.442
63043W        W27251   8.758  32.500  11.542
63044W        W27252  37.999   2.467   3.194
63045W        W27253  43.341   8.875   1.753
63046W        W27254  26.633   8.864  14.399
63047W        W27255   8.670  10.342   1.845
63048W        W27256   3.437  40.403  12.045
63049W        W27257  26.966  43.355  10.945
63050W        W27258  36.492   5.252   3.658
63051W        W27259   8.848  13.267   2.367
63052W        W27260  28.183   8.719   0.324
63053W        W27261   5.431  27.990  10.160
63054W        W27262  38.427  38.560   1.827
63055W        W27263  33.462   0.907   1.915
63056W        W27264  25.080   2.947   1.886
63057W        W27265   9.228  43.795  14.347
63058W        W27266  32.621  41.011   3.335
63059W        W27267  29.558  25.548  14.860
63060W        W27268  24.541  31.411  10.556
63061W        W27269  15.729   3.339   1.324
63062W        W27270  26.653   9.177   4.811
63063W        W27271  38.348  25.511   4.290
63064W        W27272  30.426  43.890   3.162
63065W        W27273  31.132  16.256  12.380
63066W        W27274  25.487  32.081  12.917
63067W        W27275   3.924   9.723  11.945
63068W        W27276   3.260  23.105  11.918
63069W        W27277  18.059  22.527  12.345
63070W        W27278  10.812   3.824   4.717
63071W        W27279  23.070  44.473  13.853
63072W        W27280  28.035  36.057   2.403
63073W        W27281  25.616   0.363   2.789
63074W        W27282  21.657  31.447  10.608
63075W        W27283  21.053   8.673   1.366
63076W        W27284  23.017   7.236   2.736
63077W        W27285  19.759  22.191  13.316
63078W        W27286  38.884  19.183  13.045
63079W        W27287  10.164   4.702   1.312
63080W        W27288  32.516  23.650  13.357
63081W        W27289  34.944  23.613  14.782
63082W        W27290  25.068  14.136  11.468
63083W        W27291  35.931  33.492  13.873
63084W        W27292  44.361  33.928  12.089
63085W        W27293  43.451  30.944  14.859
63086W        W27294  10.318  43.350   3.321
63087W        W27295  17.693  20.216  13.956
63088W        W27296  39.447  36.454   0.370
63089W        W27297   6.798  38.071   3.729
63090W        W27298  16.789   8.750  10.421
63091W        W27299  31.944  19.762  11.926
63092W        W27300  25.562  36.962  12.981
63093W        W27301  19.255   4.866  10.536
63094W        W27302  15.128  35.915   0.762
63095W        W27303  27.673  36.577   0.923
63096W        W27304  17.747   9.868   4.722
63097W        W27305  21.150  23.569   1.288
63098W        W27306  31.494  42.859  14.904
63099W        W27307  43.948  26.621  11.992
63100W        W27308  29.058  20.648   4.607
63101W        W27309  13.667  16.136   0.733
63102W        W27310  32.040  34.028  11.513
63103W        W27311   3.850   2.383  13.440
63104W        W27312   3.401  19.624   2.272
63105W        W27313   9.813  14.683   0.321
63106W        W27314  31.073   0.428   0.340
63107W        W27315   8.710   2.264   4.324
63108W        W27316  21.125  14.787   5.200
63109W        W27317   1.905  27.152  10.444
63110W        W27318  43.408  14.616   2.377
63111W        W27319  30.530   4.243   2.667
63112W        W27320   5.825   9.276  14.983
63113W        W27321  22.150  39.869   1.896
63114W        W27322  45.000   0.810   9.663
63115W        W27323  35.049  32.635  11.374
63116W        W27324  42.342  26.584   0.393
63117W        W27325  14.125  44.268  11.530
63118W        W27326  29.151  16.592   1.835
63119W        W27327  39.357  44.889  10.460
63120W        W27328   6.729  18.727  13.534
63121W        W27329  26.561  42.444   1.796
63122W        W27330  28.106   9.195  12.372
63123W        W27331  14.142  15.215   3.871
63124W        W27332  37.875  20.104  14.348
63125W        W27333  12.696  34.006   1.281
63126W        W27334   9.257  12.190  10.047
63127W        W27335  35.947  22.092  14.018
63128W        W27336  34.493  20.269   2.699
63129W        W27337  18.546  40.947   9.971
63130W        W27338  24.678   5.811   3.306
63131W        W27339  40.908  24.582   4.676
63132W        W27340  19.058   1.464   4.649
63133W        W27341  34.534  18.563  10.887
63134W        W27342  31.050  19.220   3.328
63135W        W27343  14.111  41.846  10.542
63136W        W27344   8.234  44.870  10.525
63137W        W27345  37.087   0.457   2.331
63138W        W27346  37.038  36.465   1.888
63139W        W27347  24.079  36.490  10.593
63140W        W27348  16.676  14.707  11.038
63141W        W27349  24.717  17.100  11.992
63142W        W27350  28.443  20.216  13.505
63143W        W27351   8.711  19.634  12.930
63144W        W27352   0.382  28.526   4.324
63145W        W27353  37.540   7.852   2.778
63146W        W27354  37.401  11.645  13.404
63147W        W27355  24.542  16.727   2.711
63148W        W27356  22.609  22.232  10.622
63149W        W27357  35.532  12.201  11.951
63150W        W27358   6.855  17.219   2.737
63151W        W27359   1.412  41.973   2.270
63152W        W27360   4.433  23.498  11.098
63153W        W27361  20.190  20.666  14.334
63154W        W27362  10.231  25.490   2.834
63155W        W27363  43.860   4.405  11.387
63156W        W27364  11.832  37.403   1.896
63157W        W27365  36.924  21.194   0.481
63158W        W27366  39.867  11.247  13.506
63159W        W27367  28.095  17.692  14.808
63160W        W27368  23.990  27.619   1.253
63161W        W27369  13.249   9.877   1.803
63162W        W27370  32.920   5.199   0.248
63163W        W27371   6.238  36.909   0.872
63164W        W27372  28.625  38.042   3.299
63165W        W27373  23.096   2.746   0.937
63166W        W27374  37.010  16.796   1.934
63167W        W27375  10.878  40.034   1.915
63168W        W27376  32.590  37.450  13.351
63169W        W27377   4.929  40.407  12.862
63170W        W27378  18.156  27.954  14.359
63171W        W27379   6.866  22.155   2.864
63172W        W27380   7.674  30.145   2.274
63173W        W27381  23.724  15.111  11.472
63174W        W27382  23.055  37.551   3.709
63175W        W27383  21.714  29.520   2.861
63176W        W27384   9.304  20.714  13.799
63177W        W27385  20.580   6.907   1.393
63178W        W27386  38.465   4.230  11.053
63179W        W27387  30.159  39.525  14.919
63180W        W27388   3.400  30.635   4.723
63181W        W27389   8.899  23.727  11.554
63182W        W27390  16.310  33.594   2.216
63183W        W27391   6.794  14.138   1.362
63184W        W27392  33.088   6.184  10.642
63185W        W27393  15.195  36.439  10.600
63186W        W27394  32.011  22.174   4.211
63187W        W27395  38.904  30.025  10.528
63188W        W27396  26.578  22.166  11.472
63189W        W27397  12.306  16.577   4.724
63190W        W27398  30.971  18.730   0.316
63191W        W27399  43.432  31.110  11.375
63192W        W27400  25.620  17.119  12.411
63193W        W27401  41.805  15.774  13.363
63194W        W27402   9.707  35.101  10.915
63195W        W27403  10.790  23.013  12.504
63196W        W27404  23.591   7.817  14.444
63197W        W27405  12.830  20.700  12.856
63198W        W27406   9.855   0.309   1.738
63199W        W27407  42.864  28.577   1.347
63200W        W27408   0.391  40.876   1.213
63201W        W27409   7.195  42.778   3.752
63202W        W27410  43.507  29.977   3.754
63203W        W27411   8.162  35.511   3.306
63204W        W27412  11.848  36.453   0.247
63205W        W27413  28.013   5.220   3.658
63206W        W27414  14.630  26.656  12.872
63207W        W27415   2.763  38.945   2.365
63208W        W27416   5.247  29.134   2.214
63209W        W27417  22.043  35.897   4.201
63210W        W27418  20.697  42.019   4.244
63211W        W27419  41.862  42.503   3.250
63212W        W27420  24.532  40.927  14.457
63213W        W27421   5.803  36.904  13.845
63214W        W27422  26.465  30.441  14.297
63215W        W27423  26.997  33.587  13.844
63216W        W27424   1.752  34.053   3.285
63217W        W27425  18.052  33.085   0.950
63218W        W27426  12.682  35.057   1.755
63219W        W27427  36.584  31.569  12.384
63220W        W27428  34.090   8.381   1.790
63221W        W27429   5.207  18.160   1.759
63222W        W27430  40.905  15.779  12.982
63223W        W27431  33.925  35.442   1.779
63224W        W27432  30.592  25.181   4.815
63225W        W27433  28.666  40.033  12.580
63226W        W27434  34.985  18.263   1.351
63227W        W27435   2.776  10.289  11.032
63228W        W27436  43.454  33.953  11.924
63229W        W27437  20.608   4.391  10.623
63230W        W27438  30.100   8.754  12.053
63231W        W27439  23.050  37.471  13.409
63232W        W27440  33.566  35.993  10.550
63233W        W27441  19.252  36.043   2.401
63234W        W27442   4.322  25.154  12.941
63235W        W27443   8.404  29.137  11.932
63236W        W27444   9.783   6.417   4.619
63237W        W27445  34.118   8.821   1.358
63238W        W27446  13.814  31.961  12.400
63239W        W27447  39.425  20.173  13.803
63240W        W27448  32.953  28.038  12.380
63241W        W27449  27.023   6.273  11.883
63242W        W27450  13.650   5.787  13.962
63243W        W27451  24.595   6.677   4.335
63244W        W27452   2.755  28.113   1.315
63245W        W27453  27.671  23.581  11.122
63246W        W27454  22.095  18.227   2.411
63247W        W27455   1.833  35.516  12.088
63248W        W27456  26.080  26.529  10.568
63249W        W27457   2.416  23.124   4.256
63250W        W27458  11.266  39.013   4.688
63251W        W27459  39.962   6.359  10.915
63252W        W27460   2.402   2.303  14.423
63253W        W27461   6.848  26.053  10.408
63254W        W27462   3.293  40.509   0.827
63255W        W27463  19.198  12.214   0.818
63256W        W27464  30.452  12.772  12.428
63257W        W27465  15.794  34.012  14.463
63258W        W27466  30.654   9.170  14.818
63259W        W27467  12.754  21.207   4.330
63260W        W27468  30.942  10.807  11.052
63261W        W27469   7.815   9.746   1.407
63262W        W27470  40.989  21.137   0.340
63263W        W27471  35.577   1.766   2.893
63264W        W27472   6.374  17.673   1.791
63265W        W27473  28.595  36.541   3.856
63266W        W27474  27.018  28.158  14.011
63267W        W27475   4.914   3.869   2.890
63268W        W27476  12.840  15.274  14.971
63269W        W27477  27.184  39.912  14.914
63270W        W27478  28.958  37.549  14.422
63271W        W27479  17.598  11.633   2.738
63272W        W27480  22.015   5.227  12.466
63273W        W27481   9.214  33.112  10.486
63274W        W27482  36.500  23.717  13.461
63275W        W27483  13.325  27.481  12.008
63276W        W27484  19.766  39.409  11.880
63277W        W27485  36.898  25.173   2.203
63278W        W27486   3.824  40.927   4.763
63279W        W27487  19.041  34.114   3.314
63280W        W27488  35.077  42.413  14.780
63281W        W27489  25.042   1.387  13.064
63282W        W27490  38.458  37.405  13.941
63283W        W27491  34.097  20.540   1.810
63284W        W27492   0.334  41.476  14.309
63285W        W27493  15.321  32.046   2.316
63286W        W27494  23.019  16.196  14.406
63287W        W27495   1.915   7.912   1.929
63288W        W27496  36.027  25.663   3.230
63289W        W27497   8.194  24.581   2.786
63290W        W27498  24.604  44.874  10.413
63291W        W27499  23.680  44.371  11.436
63292W        W27500   9.181  23.573  14.440
63293W        W27501  42.838  10.792   3.295
63294W        W27502  44.003   4.260  12.465
63295W        W27503  39.494  33.094  13.507
63296W        W27504  29.649  37.372  14.294
63297W        W27505  14.694  24.115   2.350
63298W        W27506  40.532  15.709  11.426
63299W        W27507  38.966  40.832  14.841
63300W        W27508  39.830   7.188  11.413
63301W        W27509   2.909  24.604   1.726
63302W        W27510  20.571  18.572   1.314
63303W        W27511   7.903  37.414  11.444
63304W        W27512  31.539  26.462   3.812
63305W        W27513  32.440   0.438   1.425
63306W        W27514  36.424  28.679   0.459
63307W        W27515  26.631  32.404  12.943
63308W        W27516  37.923  34.897  10.466
63309W        W27517   6.750  14.617   2.310
63310W        W27518  13.311  20.090  13.385
63311W        W27519  30.621  26.514   4.612
63312W        W27520  30.578  31.038   1.308
63313W        W27521  34.474  19.096   4.807
63314W        W27522  28.936  18.071  12.870
63315W        W27523   8.816   8.382   1.751
63316W        W27524  41.353  25.629  12.517
63317W        W27525  13.179  44.317  11.030
63318W        W27526  19.237  27.025  13.401
63319W        W27527  31.446  42.510   3.656
63320W        W27528   7.880  12.191  13.524
63321W        W27529  39.863  42.946  11.936
63322W        W27530  32.948  16.776   3.373
63323W        W27531  28.526  23.517  11.030
63324W        W27532  43.351  10.325  10.126
63325W        W27533  17.747  34.009  11.489
63326W        W27534  23.591  37.431   3.671
63327W        W27535  40.369  27.037  11.467
63328W        W27536  12.720  39.500  10.565
63329W        W27537  27.942  10.314   4.354
63330W        W27538   9.195  39.544   2.398
63331W        W27539  43.922  19.098   3.744
63332W        W27540  26.201   2.947  14.374
63333W        W27541  43.783   7.721  12.561
63334W        W27542  27.554  32.969  11.113
63335W        W27543  14.317  34.554  11.908
63336W        W27544  25.129   7.341  11.581
63337W        W27545  23.056  31.899  11.374
63338W        W27546  42.521   4.840  10.585
63339W        W27547  13.772  32.448   3.205
63340W        W27548   1.816  32.989  13.982
63341W        W27549  41.410   2.387   0.804
63342W        W27550  43.340  44.857   1.752
63343W        W27551   0.854  26.614   1.755
63344W        W27552  40.844  19.100  13.026
63345W        W27553  19.540   5.843   0.281
63346W        W27554  20.065  16.299   2.335
63347W        W27555  22.547  13.668  13.826
63348W        W27556  17.191  16.226  14.406
63349W        W27557  28.058  14.626   9.578
63350W        W27558  24.991  24.036  12.536
63351W        W27559  17.243  13.151   1.391
63352W        W27560  32.104   5.908   3.165
63353W        W27561  40.913  22.123   1.813
63354W        W27562  20.111  41.401   5.148
63355W        W27563  13.700  41.510  11.124
63356W        W27564  22.705  32.141  14.879
63357W        W27565  13.821  39.896   4.691
63358W        W27566   9.333  30.502   2.202
63359W        W27567  10.848  23.008  11.436
63360W        W27568  17.176  31.982  12.835
63361W        W27569  10.749  41.824  14.488
63362W        W27570  39.322  11.731  12.892
63363W        W27571   9.194  17.299   3.254
63364W        W27572   6.734  36.348   4.219
63365W        W27573  43.312  28.108   4.276
63366W        W27574  20.151   7.178  10.940
63367W        W27575   4.403   8.326   1.215
63368W        W27576  13.653   5.712  12.053
63369W        W27577   2.443  14.833  11.386
63370W        W27578  22.074  41.798  13.808
63371W        W27579  42.874  24.038  13.391
63372W        W27580  10.192  14.269  10.554
63373W        W27581  42.519  38.515   3.651
63374W        W27582  36.933  12.224  13.932
63375W        W27583   3.743  29.958   0.287
63376W        W27584  21.020  15.731   4.308
63377W        W27585   8.727  31.060   0.743
63378W        W27586  19.554   6.344  12.070
63379W        W27587  20.597  14.646   2.411
63380W        W27588   9.876  32.614   1.849
63381W        W27589  32.595  31.634  14.447
63382W        W27590  13.833  14.614   4.240
63383W        W27591   1.481   4.375  10.407
63384W        W27592  29.984  27.089   0.306
63385W        W27593  28.997  29.664  12.930
63386W        W27594  31.464  19.206   1.768
63387W        W27595   6.768  12.123  13.839
63388W        W27596  35.396  14.664   4.837
63389W        W27597   9.812  35.942  10.487
63390W        W27598  29.918  13.807   5.763
63391W        W27599  27.524  42.002  10.454
63392W        W27600  18.290  22.569  11.446
63393W        W27601  18.272   0.300   0.964
63394W        W27602  20.576  24.042  11.921
63395W        W27603  41.829   9.207   3.355
63396W        W27604  21.738  15.313  11.991
63397W        W27605   4.789  11.248  12.393
63398W        W27606  37.849  37.413   1.777
63399W        W27607   2.427  25.632   2.722
63400W        W27608  24.507  11.288  11.537
63401W        W27609  27.618  37.502   4.178
63402W        W27610   8.836  15.606  14.816
63403W        W27611  22.014  35.545   2.323
63404W        W27612  27.473  39.032   1.765
63405W        W27613   3.898  19.753   9.983
63406W        W27614   9.197   6.746  10.990
63407W        W27615  16.614   0.882  14.876
63408W        W27616   5.910  40.427  13.918
63409W        W27617  18.059  39.834  13.409
63410W        W27618  29.134  24.155   3.376
63411W        W27619  10.836  14.826  10.022
63412W        W27620  39.466  24.064   2.799
63413W        W27621  37.557  28.599  12.094
63414W        W27622  33.455  12.238  13.445
63415W        W27623  29.617  44.998   4.607
63416W        W27624  32.142  16.804  10.933
63417W        W27625  17.662  18.584  13.471
63418W        W27626   6.255  20.600  12.090
63419W        W27627  41.407  23.571   4.645
63420W        W27628   1.893  11.633   3.732
63421W        W27629   7.259  43.382   1.730
63422W        W27630  41.999  20.543  10.467
63423W        W27631   0.876  21.126  10.609
63424W        W27632   8.747   0.908   5.258
63425W        W27633  26.080  34.101   3.149
63426W        W27634  35.560  28.940   3.312
63427W        W27635  13.663   6.347   2.686
63428W        W27636   5.860  42.882   3.733
63429W        W27637  40.898   7.307   4.641
63430W        W27638   5.200  13.233  12.552
63431W        W27639   6.919  14.162   2.285
63432W        W27640  25.556  10.816  14.432
63433W        W27641  43.969  29.971   3.298
63434W        W27642   7.288  41.456  11.062
63435W        W27643  11.305  24.691   0.967
63436W        W27644  36.556  14.186   4.607
63437W        W27645  36.064  36.440  14.348
63438W        W27646  27.167  44.975  12.943
63439W        W27647  20.146  24.069  10.626
63440W        W27648   7.357  35.362  10.917
63441W        W27649  44.892  18.661   2.668
63442W        W27650  10.664  19.141   1.281
63443W        W27651   6.261  27.142   4.309
63444W        W27652  16.192  13.736   2.313
63445W        W27653   0.881  24.627   0.248
63446W        W27654  39.996   6.237   0.848
63447W        W27655   3.243  32.112  11.584
63448W        W27656  27.649   0.745   2.372
63449W        W27657  20.554  10.322   2.289
63450W        W27658  38.907   3.270   1.213
63451W        W27659  10.722  15.282   0.945
63452W        W27660   1.323   3.797  14.406
63453W        W27661   3.908  29.572   4.222
63454W        W27662  25.667  43.959   0.909
63455W        W27663  30.424   5.427   2.839
63456W        W27664  27.090   4.211  14.426
63457W        W27665  19.284  18.066   5.099
63458W        W27666  43.315   5.364  12.504
63459W        W27667   9.223  31.518   1.885
63460W        W27668  40.992   2.356   2.861
63461W        W27669   4.217  16.170  10.953
63462W        W27670  25.679  25.475   2.265
63463W        W27671  32.970  10.811   0.477
63464W        W27672  28.093  30.482  11.438
63465W        W27673   6.690   5.295   2.896
63466W        W27674  33.585  13.161   2.878
63467W        W27675  36.520   8.848   2.890
63468W        W27676  20.129  40.806   3.670
63469W        W27677  42.444  15.814  14.961
63470W        W27678  16.121  18.051   5.087
63471W        W27679  29.428  20.187  11.500
63472W        W27680  12.762  11.634   2.304
63473W        W27681   4.207  43.952  12.482
63474W        W27682  17.209  15.251  12.451
63475W        W27683  42.837  31.617  13.823
63476W        W27684  43.910  14.713   2.811
63477W        W27685  33.493  13.275  13.362
63478W        W27686  31.437  27.594   2.336
63479W        W27687  39.848   3.830  11.433
63480W        W27688   4.857  30.653  14.409
63481W        W27689   9.848  10.192  13.475
63482W        W27690  13.174  19.610   3.787
63483W        W27691  16.613  24.699   1.279
63484W        W27692  25.595  18.619   2.714
63485W        W27693  31.489  25.177   0.963
63486W        W27694   5.345   6.355  14.499
63487W        W27695  26.642  17.559   2.790
63488W        W27696  40.518  39.054  14.469
63489W        W27697  33.126  18.564  11.025
63490W        W27698  43.874  23.634  12.358
63491W        W27699  23.239  40.447   2.873
63492W        W27700  35.094  13.200  12.005
63493W        W27701  19.166   4.354  14.448
63494W        W27702  24.624   4.789  10.444
63495W        W27703  44.382  19.167  14.968
63496W        W27704  31.560  41.946  14.029
63497W        W27705  42.349  39.063   1.847
63498W        W27706   5.348  19.545   0.395
63499W        W27707  20.268  19.688   3.747
63500W        W27708  16.168  20.101   0.326
63501W        W27709   9.832  37.979  10.993
63502W        W27710  40.517   7.669   0.916
63503W        W27711  20.762  38.851   1.334
63504W        W27712   5.383   6.199   0.439
63505W        W27713  16.621  23.004  11.562
63506W        W27714  12.624  26.651   3.684
63507W        W27715   2.777  11.324  12.041
63508W        W27716   6.706   2.339  13.035
63509W        W27717  17.636  26.516  13.544
63510W        W27718  23.631  36.865   3.709
63511W        W27719  33.036  24.568  10.919
63512W        W27720  42.485  38.494   1.803
63513W        W27721  32.135   4.943  13.030
63514W        W27722  23.142  14.776   3.721
63515W        W27723  22.101  16.241  14.340
63516W        W27724  27.685  23.558  10.478
63517W        W27725  17.290  30.649  12.882
63518W        W27726  15.606  27.643   4.269
63519W        W27727  32.471  24.039  13.030
63520W        W27728  13.122   9.704  12.548
63521W        W27729  24.023  16.781   4.797
63522W        W27730  28.547  29.582  11.108
63523W        W27731  36.455  18.093   3.784
63524W        W27732  24.506  30.632  12.551
63525W        W27733   6.228  23.620  12.019
63526W        W27734  43.920   0.946   0.962
63527W        W27735  27.574  33.578   0.770
63528W        W27736  19.716  35.562  13.967
63529W        W27737   8.744  15.710   0.289
63530W        W27738  29.101  22.153  12.029
63531W        W27739   9.380  26.153  14.798
63532W        W27740   2.449  38.447   2.824
63533W        W27741  18.679  16.650  11.581
63534W        W27742  40.930  26.488  14.383
63535W        W27743  29.082  11.698  11.040
63536W        W27744  18.294  11.783  11.594
63537W        W27745   2.389  23.717   3.334
63538W        W27746   8.399  41.857  14.343
63539W        W27747  34.085  14.155  10.995
63540W        W27748  36.548   3.221   3.232
63541W        W27749  27.454   2.332   1.388
63542W        W27750  29.950  25.027  13.515
63543W        W27751  25.062  18.674  10.435
63544W        W27752  24.577  26.121   0.323
63545W        W27753   0.804  44.911  14.942
63546W        W27754  42.286  26.477  14.417
63547W        W27755  23.031  28.111  12.069
63548W        W27756  20.541  36.559   4.748
63549W        W27757   4.850  14.692  13.008
63550W        W27758   3.717  15.315   2.870
63551W        W27759  27.098  25.979   1.426
63552W        W27760  22.598  25.995   1.424
63553W        W27761  42.882   1.768  12.051
63554W        W27762  31.918   7.864  12.091
63555W        W27763  12.270   6.346  13.321
63556W        W27764  26.550  19.749   3.856
63557W        W27765  28.939  31.418   3.734
63558W        W27766  39.527   3.788   2.828
63559W        W27767   0.765  22.163   3.789
63560W        W27768  40.028  27.542  14.891
63561W        W27769  35.021  13.821   4.297
63562W        W27770   8.794  31.453   3.358
63563W        W27771  13.343  29.658   3.715
63564W        W27772  15.256  12.324   3.871
63565W        W27773  27.684  12.322  14.966
63566W        W27774   0.294   2.227   2.228
63567W        W27775  34.960  27.961   5.106
63568W        W27776  16.273  26.024  10.957
63569W        W27777  31.433  40.041   2.883
63570W        W27778  38.385  21.261  11.417
63571W        W27779  12.331  24.155  13.950
63572W        W27780  22.692  35.969   0.465
63573W        W27781  13.609  12.651   3.831
63574W        W27782  35.469  40.414  13.919
63575W        W27783  14.271  20.246   0.420
63576W        W27784  10.170  35.873   3.262
63577W        W27785  42.826  23.143   0.827
63578W        W27786  43.373   2.816   3.633
63579W        W27787   1.448  35.388  14.488
63580W        W27788  15.161  38.003  12.874
63581W        W27789  11.633  24.088   2.385
63582W        W27790   8.688  16.203   3.845
63583W        W27791  18.713  19.181  10.916
63584W        W27792  37.970  24.983   0.823
63585W        W27793   6.218   5.201   4.284
63586W        W27794  14.163  19.578   1.316
63587W        W27795   4.771  35.052   3.634
63588W        W27796  11.320  11.270  11.924
63589W        W27797   7.331  38.435   3.863
63590W        W27798  19.722  27.100  11.543
63591W        W27799  26.465   4.434  11.062
63592W        W27800  22.183  17.783   3.793
63593W        W27801   3.380   0.928   2.665
63594W        W27802  34.397  18.748  14.839
63595W        W27803  14.709  42.308   1.792
63596W        W27804  35.085  23.703   3.167
63597W        W27805  36.510  36.581  12.856
63598W        W27806   3.903  33.481   1.327
63599W        W27807  15.195  22.597   0.282
63600W        W27808  32.617  37.414  14.924
63601W        W27809   5.876  19.561  13.064
63602W        W27810  14.796  10.143   3.317
63603W        W27811  28.522  20.556   1.835
63604W        W27812  36.032  40.539   2.204
63605W        W27813  13.630  28.680   0.880
63606W        W27814  17.222   3.253  13.943
63607W        W27815  34.499   1.384   1.273
63608W        W27816  19.066  27.568  11.391
63609W        W27817  16.098  43.297   1.279
63610W        W27818  24.572  12.629  11.858
63611W        W27819   3.317  37.428  13.828
63612W        W27820  34.017  35.046   3.217
63613W        W27821  34.401   9.810   4.792
63614W        W27822  18.728   9.826  12.075
63615W        W27823  28.980  20.710  11.076
63616W        W27824  42.993   5.393  12.575
63617W        W27825   5.319  35.894  13.056
63618W        W27826  11.303   3.782   4.763
63619W        W27827  20.625  20.767   0.923
63620W        W27828  12.254  11.267   0.250
63621W        W27829  20.610  11.836  13.816
63622W        W27830   6.200  42.921  13.848
63623W        W27831   4.881  23.205  12.421
63624W        W27832   9.253  14.282   2.299
63625W        W27833  43.344   4.368   1.251
63626W        W27834  33.958  30.607   1.399
63627W        W27835  13.253  35.011   1.348
63628W        W27836  32.030  17.585  10.626
63629W        W27837  19.084  23.036   4.644
63630W        W27838   2.273  17.568   2.844
63631W        W27839  26.141  26.962   1.811
63632W        W27840  39.021  24.710   4.753
63633W        W27841  11.287  14.096  14.396
63634W        W27842  33.423   3.835   2.228
63635W        W27843  38.985  36.996   3.339
63636W        W27844  28.632  26.512  11.930
63637W        W27845  31.056  14.829  13.542
63638W        W27846   3.741   9.702   4.773
63639W        W27847   8.675  34.529   3.703
63640W        W27848  30.916  35.966  10.449
63641W        W27849  37.891  22.673  14.475
63642W        W27850  21.707  42.502   4.328
63643W        W27851  22.707   9.221   4.139
63644W        W27852  33.079  31.612  12.529
63645W        W27853  40.990  40.371   4.236
63646W        W27854  31.994  23.137   2.226
63647W        W27855  26.018  39.996   2.704
63648W        W27856   5.785  36.454  12.915
63649W        W27857   8.865  23.573  14.361
63650W        W27858  33.035  20.596   0.729
63651W        W27859   4.319  38.884   3.174
63652W        W27860   1.396  41.854   2.705
63653W        W27861   8.773  33.423   4.675
63654W        W27862  36.001  13.297   0.320
63655W        W27863   5.897  29.936   1.912
63656W        W27864  13.617  26.999  13.908
63657W        W27865   9.361  24.066   0.866
63658W        W27866  40.472  21.571   4.631
63659W        W27867  35.489  38.328   0.420
63660W        W27868  34.880  33.590  10.554
63661W        W27869  28.975  42.824   0.476
63662W        W27870  31.076  17.152   5.587
63663W        W27871  24.601  41.311   1.823
63664W        W27872  11.760  39.424  12.404
63665W        W27873  44.491  18.079  13.064
63666W        W27874  39.047  40.998   3.754
63667W        W27875  12.816   8.212  10.617
63668W        W27876  40.353  28.186   0.890
63669W        W27877  33.530  31.526   4.613
63670W        W27878  36.544  15.731   3.342
63671W        W27879   3.460  34.556   3.310
63672W        W27880  42.437  27.451   1.858
63673W        W27881  21.656   9.844  14.853
63674W        W27882  22.216   6.332  11.015
63675W        W27883  44.997  30.486  14.944
63676W        W27884  20.562  27.655  11.421
63677W        W27885  38.387   6.839  10.928
63678W        W27886  22.698  41.881  14.970
63679W        W27887  12.813  39.025   1.818
63680W        W27888   8.701   3.780  14.304
63681W        W27889   4.321  44.454  12.072
63682W        W27890   2.847  31.022   0.861
63683W        W27891  10.661  29.140  12.539
63684W        W27892  40.416  38.478   4.182
63685W        W27893  29.594   7.859  12.578
63686W        W27894   9.689  19.150  12.485
63687W        W27895  16.216  19.055  13.053
63688W        W27896   9.752  35.897  11.602
63689W        W27897  21.623   2.465   3.331
63690W        W27898  12.674   9.251  10.569
63691W        W27899  31.432  12.626   1.811
63692W        W27900  23.987  17.113   0.251
63693W        W27901  36.922   3.845   3.815
63694W        W27902  15.594  39.984  11.891
63695W        W27903  39.992  27.000  11.983
63696W        W27904   1.413  36.512  13.823
63697W        W27905  22.067  29.945   3.640
63698W        W27906  37.858  12.849   4.310
63699W        W27907  20.666  24.697   0.444
63700W        W27908  27.069  23.175  14.401
63701W        W27909   0.461  27.528   9.501
63702W        W27910  13.320  21.524  10.427
63703W        W27911  14.225  37.032  10.448
63704W        W27912  15.770  30.126   1.444
63705W        W27913  27.473  44.756  11.489
63706W        W27914  38.438  36.382   0.879
63707W        W27915  34.054  15.299   2.355
63708W        W27916  27.522  12.327  13.030
63709W        W27917  18.062  20.215   1.809
63710W        W27918   3.777  11.665  13.517
63711W        W27919  34.879  22.589  12.070
63712W        W27920  24.682  42.327   4.264
63713W        W27921   0.316   9.684  13.345
63714W        W27922  25.080  35.866   1.780
63715W        W27923   3.754  12.302  13.858
63716W        W27924   6.864  30.557  13.342
63717W        W27925  38.545  24.205  13.021
63718W        W27926  11.733  16.793   2.184
63719W        W27927  12.712  26.610   1.708
63720W        W27928  38.998  12.652  11.969
63721W        W27929  39.865   3.754  13.453
63722W        W27930  16.092  14.738   1.823
63723W        W27931  30.633  33.487  11.964
63724W        W27932  10.273  44.882  12.898
63725W        W27933  40.431   2.734  14.879
63726W        W27934  41.484  13.118   2.676
63727W        W27935  43.383  10.795   3.319
63728W        W27936  21.205  22.070  14.826
63729W        W27937   6.698  13.328   1.919
63730W        W27938  39.030  32.438   3.842
63731W        W27939  44.353  34.409  10.567
63732W        W27940  18.553  19.629   5.285
63733W        W27941  39.352  41.812   3.260
63734W        W27942  24.075  31.434  14.834
63735W        W27943  38.929   1.461   3.372
63736W        W27944  34.578  41.537   0.257
63737W        W27945  42.006  23.625   4.769
63738W        W27946  33.027  38.564   1.829
63739W        W27947  14.595  39.328  14.432
63740W        W27948   4.786  27.545   4.706
63741W        W27949   6.916  33.406  13.383
63742W        W27950  35.437   6.892   2.678
63743W        W27951  28.593  40.336  11.995
63744W        W27952  38.373  17.613  11.041
63745W        W27953  22.244  26.105   1.380
63746W        W27954  11.197  17.222  14.990
63747W        W27955   4.873  32.137   3.320
63748W        W27956  20.052  10.634   1.803
63749W        W27957  40.439   9.360   4.804
63750W        W27958  28.511  16.143   5.090
63751W        W27959  15.616  17.557   0.806
63752W        W27960  33.963  36.071  14.414
63753W        W27961  26.656   8.355  11.574
63754W        W27962  11.653  35.963   3.731
63755W        W27963  44.456  19.667   0.728
63756W        W27964   6.189  40.320  12.874
63757W        W27965  25.660  44.453   2.266
63758W        W27966   5.348  41.929   0.809
63759W        W27967  22.651  15.211  14.797
63760W        W27968  24.525  21.591   4.682
63761W        W27969   3.219  19.540  11.099
63762W        W27970  19.180  33.996   2.789
63763W        W27971  29.092  34.118   1.845
63764W        W27972  25.152  34.967   2.366
63765W        W27973  38.484  20.679  12.437
63766W        W27974  28.034  28.593  13.870
63767W        W27975  11.843  18.200  10.502
63768W        W27976   0.414  16.630   1.312
63769W        W27977  34.046   5.292   3.165
63770W        W27978  16.284  16.270  12.363
63771W        W27979  11.771  17.567   4.624
63772W        W27980  40.304  41.864  11.562
63773W        W27981   7.823  15.300   4.695
63774W        W27982  13.218  20.668   1.381
63775W        W27983   0.843  18.104  14.936
63776W        W27984  12.205  17.127  12.364
63777W        W27985  27.521  13.795   1.918
63778W        W27986  24.574  29.991  13.026
63779W        W27987   0.249   9.791  10.406
63780W        W27988  25.681  26.590   1.842
63781W        W27989  18.569  21.604  10.922
63782W        W27990  13.618  41.946   3.217
63783W        W27991   8.239  11.772   2.834
63784W        W27992   8.778  44.312  14.465
63785W        W27993  34.033   6.291   4.314
63786W        W27994   1.274  41.500  13.809
63787W        W27995  13.295  12.816   4.214
63788W        W27996  41.321  31.121  14.998
63789W        W27997   7.299  32.399  12.471
63790W        W27998  34.510  13.270  13.403
63791W        W27999  29.606   2.259   0.418
63792W        W28000   6.759  37.889   3.163
63793W        W28001  23.675  34.881  12.580
63794W        W28002  12.164  41.032  14.303
63795W        W28003  29.635  25.140   0.734
63796W        W28004   6.793  29.033   2.785
63797W        W28005   0.977  31.967  13.990
63798W        W28006   7.858  18.201   3.633
63799W        W28007  28.031  21.127  10.501
63800W        W28008  29.164  33.429  11.901
63801W        W28009  30.150  37.558   3.193
63802W        W28010  19.093  13.235   1.773
63803W        W28011  31.989   6.772   2.852
63804W        W28012  40.909  16.276  12.402
63805W        W28013  23.171  38.555   2.769
63806W        W28014   7.306   5.844   2.810
63807W        W28015  34.413  28.671   1.248
63808W        W28016   2.825  44.862  14.770
63809W        W28017   6.368  42.993  11.564
63810W        W28018  12.656  13.642   5.116
63811W        W28019  29.594  22.037  12.058
63812W        W28020  11.165  32.396  10.442
63813W        W28021  26.631  28.060   2.183
63814W        W28022   1.329  38.366  14.897
63815W        W28023  21.136  22.506   0.346
63816W        W28024  29.570   7.372  11.465
63817W        W28025  15.790  33.017  12.347
63818W        W28026   1.748  16.206  13.376
63819W        W28027  10.274   2.296  14.842
63820W        W28028  40.925  18.730   3.856
63821W        W28029  14.158  23.062  10.953
63822W        W28030  24.605  17.652  11.401
63823W        W28031  10.305   3.452  14.310
63824W        W28032  34.456  42.901  11.859
63825W        W28033  20.523  39.491   9.525
63826W        W28034  39.859  44.472  14.007
63827W        W28035  34.586  27.153  11.447
63828W        W28036  18.720  30.156   2.738
63829W        W28037   8.344   3.389  11.592
63830W        W28038   6.423   2.354  13.541
63831W        W28039  16.804  36.422  14.023
63832W        W28040  12.671  21.079  12.412
63833W        W28041  44.835  32.473  12.521
63834W        W28042   5.698   0.941   0.875
63835W        W28043   3.266  33.469  14.923
63836W        W28044   5.224  43.292  11.945
63837W        W28045  37.570  36.973   2.798
63838W        W28046  13.127  40.920  11.018
63839W        W28047  36.045  11.187   1.237
63840W        W28048  32.898  14.643  13.915
63841W        W28049  31.523  24.153   2.297
63842W        W28050  36.084  22.726  14.009
63843W        W28051  10.272  36.511  10.963
63844W        W28052  21.142  17.287  14.790
63845W        W28053  40.936  24.641  14.354
63846W        W28054  27.954  44.451   4.273
63847W        W28055  37.838  31.916  12.401
63848W        W28056  44.403  27.161   3.633
63849W        W28057  19.572   5.801  14.969
63850W        W28058  11.343  26.192  13.541
63851W        W28059   9.387  16.738  13.059
63852W        W28060  14.710  43.369  10.410
63853W        W28061   0.745  23.085  14.339
63854W        W28062   8.837   6.284  14.459
63855W        W28063  41.857  21.631   2.824
63856W        W28064  44.373  16.773   4.751
63857W        W28065  44.276  11.338  10.051
63858W        W28066  23.668  43.947  13.475
63859W        W28067  40.021  16.769  12.516
63860W        W28068  33.998  35.398   4.673
63861W        W28069  40.900  44.298   1.222
63862W        W28070   7.316   0.938  13.984
63863W        W28071  10.840  33.079  10.447
63864W        W28072  21.033  14.759   9.585
63865W        W28073  31.992   5.864   1.326
63866W        W28074   7.813  42.434  11.951
63867W        W28075  31.578   3.440  11.874
63868W        W28076  37.861  15.808   0.396
63869W        W28077   5.358   0.947   4.771
63870W        W28078  34.553  11.735  14.994
63871W        W28079  31.557  17.584   1.729
63872W        W28080   2.250  23.072  10.469
63873W        W28081  13.344  43.380  14.483
63874W        W28082  38.942  38.917   4.161
63875W        W28083  20.698  14.625  11.958
63876W        W28084  40.973   9.298   4.610
63877W        W28085  20.161  26.115   0.902
63878W        W28086  25.691  30.415   3.150
63879W        W28087   1.475  25.990  13.865
63880W        W28088  20.565  28.533  10.628
63881W        W28089  43.320  31.066   1.329
63882W        W28090   6.903  42.339  13.861
63883W        W28091   3.939   8.204   4.295
63884W        W28092  30.438  36.047  11.940
63885W        W28093  11.277  19.278  11.398
63886W        W28094  31.042   4.808  12.480
63887W        W28095  39.927   9.783   0.470
63888W        W28096   1.832  18.111   3.330
63889W        W28097  35.392  34.506  12.377
63890W        W28098  35.865  34.917   1.262
63891W        W28099  17.623  38.421  10.544
63892W        W28100  35.951  34.415   4.692
63893W        W28101  34.509  21.685   3.777
63894W        W28102  17.285  26.143  10.481
63895W        W28103  34.373  11.747  13.845
63896W        W28104   5.229  17.787   4.144
63897W        W28105   8.190  15.701  10.480
63898W        W28106   4.812  27.464  13.426
63899W        W28107   9.245  23.179   4.305
63900W        W28108  36.080  31.548  12.902
63901W        W28109  15.184  11.769  11.116
63902W        W28110  36.958  21.514  10.619
63903W        W28111   3.920  18.199   4.182
63904W        W28112  12.709   7.836  12.925
63905W        W28113  40.464   0.393   2.338
63906W        W28114  16.598  40.449  14.817
63907W        W28115   3.460  14.800   4.280
63908W        W28116  29.454   6.396  10.124
63909W        W28117  17.173  39.819   1.403
63910W        W28118   7.856   2.395   1.349
63911W        W28119  38.369  34.451  12.842
63912W        W28120  27.664   0.411  13.316
63913W        W28121   7.726   1.778  10.060
63914W        W28122  41.416  10.793  11.975
63915W        W28123   0.944  40.452   2.222
63916W        W28124  43.391  34.551   5.209
63917W        W28125  40.822  31.612   3.334
63918W        W28126   3.330  40.974  14.939
63919W        W28127  34.486  37.836  11.967
63920W        W28128   1.390  11.676  14.887
63921W        W28129  38.068  22.067  11.565
63922W        W28130  21.623  15.711  10.949
63923W        W28131  32.608   9.334   3.279
63924W        W28132  40.522  29.626   2.900
63925W        W28133  26.028  30.561  14.902
63926W        W28134  34.554  37.986  11.048
63927W        W28135  37.544  39.897  13.954
63928W        W28136   2.727  18.727   3.785
63929W        W28137   6.364  29.168  11.862
63930W        W28138  26.977   8.343  14.510
63931W        W28139   7.327  20.236   3.719
63932W        W28140  40.009   5.323  13.380
63933W        W28141  13.298   0.421  10.519
63934W        W28142   8.378  43.321  11.950
63935W        W28143  28.661  43.401  12.947
63936W        W28144   2.338  44.754   4.759
63937W        W28145  18.730  44.420   2.877
63938W        W28146  39.882  44.361  11.394
63939W        W28147  36.010   7.236   1.344
63940W        W28148   6.273  11.734   2.818
63941W        W28149  35.567  26.110  13.377
63942W        W28150  18.587  11.827   2.410
63943W        W28151   9.274  44.901  14.014
63944W        W28152  13.209   0.779  11.046
63945W        W28153  22.039   8.372   4.604
63946W        W28154   1.472   2.810   1.733
63947W        W28155  38.840  37.539  14.830
63948W        W28156  35.042  42.367  12.986
63949W        W28157  39.929  29.167  11.882
63950W        W28158  10.674  11.261   1.364
63951W        W28159   2.467  12.202   3.803
63952W        W28160  25.547   6.732  11.090
63953W        W28161  44.311  20.646  10.068
63954W        W28162  28.019  13.282   4.222
63955W        W28163   2.353  39.889   2.884
63956W        W28164  36.477   5.291  13.802
63957W        W28165  20.068   8.263  12.460
63958W        W28166  21.725   7.310  11.028
63959W        W28167  39.500  35.526   0.392
63960W        W28168  40.818  18.254  11.904
63961W        W28169  40.024  15.313  10.895
63962W        W28170  20.162   9.218  10.421
63963W        W28171  32.995  14.120  14.811
63964W        W28172  28.675  34.948   0.734
63965W        W28173  18.136  38.529  14.851
63966W        W28174  40.358  24.052   5.203
63967W        W28175   4.414  32.451  14.371
63968W        W28176  24.498  21.187   4.752
63969W        W28177   4.861  26.537   0.767
63970W        W28178  28.063  13.622   1.400
63971W        W28179   4.254  19.125  11.402
63972W        W28180   5.797  15.241  11.380
63973W        W28181  32.483  19.571  11.859
63974W        W28182   0.878  44.850  10.469
63975W        W28183  33.447   5.837  10.032
63976W        W28184  24.107  15.628   2.871
63977W        W28185  30.541  43.490  13.313
63978W        W28186  16.742   4.209  13.825
63979W        W28187  29.123  37.016   2.753
63980W        W28188  15.275   1.925  12.574
63981W        W28189   9.813  11.250   4.278
63982W        W28190  33.130  43.935  11.123
63983W        W28191  34.457  32.547  12.048
63984W        W28192  11.841  35.934   3.289
63985W        W28193  42.862   4.398   3.167
63986W        W28194  18.120  19.594  12.409
63987W        W28195   0.479  27.593  10.952
63988W        W28196  26.116  35.852   1.394
63989W        W28197  38.866  21.220  15.000
63990W        W28198  34.451  38.489   1.276
63991W        W28199  43.777  30.657   2.392
63992W        W28200  37.565  18.706   0.438
63993W        W28201  34.370  17.688   2.313
63994W        W28202  31.045   8.887   1.377
63995W        W28203  37.041  36.009   1.350
63996W        W28204  12.739  28.113  10.465
63997W        W28205   7.893   0.770   1.741
63998W        W28206  35.904   1.741  14.348
63999W        W28207  23.725   2.913   3.680
64000W        W28208  24.504  20.206  11.563
64001W        W28209   9.241  10.726   3.808
64002W        W28210  15.125  36.936   4.194
64003W        W28211   6.363  28.642  12.437
64004W        W28212   0.815  38.963   3.194
64005W        W28213  35.938  20.247  13.943
64006W        W28214  22.076   2.442   2.720
64007W        W28215  35.872   6.872  14.474
64008W        W28216  29.550  10.356   3.186
64009W        W28217  32.595   7.890   0.243
64010W        W28218  20.678  34.967  12.064
64011W        W28219   8.722   7.684  14.893
64012W        W28220  34.555  20.677   3.660
64013W        W28221  38.975  25.541  11.081
64014W        W28222  36.502  39.974   3.217
64015W        W28223  24.230  10.307  14.849
64016W        W28224   9.273  40.908   1.790
64017W        W28225  31.154  15.776  14.834
64018W        W28226   7.725  34.543   1.245
64019W        W28227  15.205  37.007   4.746
64020W        W28228  17.631  21.066   1.790
64021W        W28229  36.963  43.960   4.305
64022W        W28230  13.791  33.597  14.888
64023W        W28231  29.658  19.262  14.815
64024W        W28232  28.072  38.354   1.790
64025W        W28233   7.209  21.031   2.705
64026W        W28234  44.899  25.178  11.028
64027W        W28235   7.372  38.568  14.884
64028W        W28236   2.775  40.361   1.762
64029W        W28237  26.551  19.160   0.274
64030W        W28238   3.336  25.555   1.825
64031W        W28239  31.911  43.789   0.271
64032W        W28240  20.083  40.430   4.307
64033W        W28241  26.569  28.185   3.314
64034W        W28242  44.462  42.402  13.966
64035W        W28243  29.440   0.342   1.872
64036W        W28244  15.244  24.135   1.929
64037W        W28245  30.139  44.502  13.944
64038W        W28246  37.979   7.321  10.574
64039W        W28247  11.654  43.020  13.033
64040W        W28248  16.295  14.240  12.095
64041W        W28249   3.873  39.405   2.335
64042W        W28250  18.197   3.255  14.008
64043W        W28251   2.891   0.914   4.267
64044W        W28252  21.727   7.682  10.461
64045W        W28253  41.935   9.173  11.029
64046W        W28254  34.026  19.079  14.275
64047W        W28255  38.855  40.879  11.582
64048W        W28256   7.694  25.516  11.469
64049W        W28257  40.367  39.336   0.949
64050W        W28258  35.551  20.637  13.794
64051W        W28259  42.321  21.694   1.756
64052W        W28260  16.174  17.565   2.354
64053W        W28261   6.296  38.063  11.107
64054W        W28262  37.974  28.058   0.745
64055W        W28263  31.540  28.669   0.399
64056W        W28264  23.995  32.125  12.539
64057W        W28265  10.349   9.887   3.643
64058W        W28266  24.675  43.417  12.566
64059W        W28267  28.621   0.356   2.710
64060W        W28268  25.518  17.755   3.837
64061W        W28269  14.110  43.780  14.436
64062W        W28270  38.909  17.784  14.417
64063W        W28271   1.286   6.764   3.295
64064W        W28272  21.258  21.538   0.767
64065W        W28273  44.426  38.846   2.290
64066W        W28274  32.500   3.404  12.883
64067W        W28275  25.039  35.981   2.334
64068W        W28276  14.337  25.148   1.850
64069W        W28277  41.798  25.192   1.896
64070W        W28278  34.878  43.465  12.873
64071W        W28279  37.958  10.676   1.279
64072W        W28280  44.945   4.728   3.751
64073W        W28281  31.568  40.800   3.829
64074W        W28282   1.336  40.489  13.433
64075W        W28283  39.006  25.516   0.842
64076W        W28284   5.321  41.880  10.901
64077W        W28285  43.497  28.142   4.620
64078W        W28286  31.944  11.849  10.928
64079W        W28287   0.865  39.484   2.880
64080W        W28288   8.792  26.146  13.348
64081W        W28289  38.896  13.638  11.406
64082W        W28290  11.345   1.393   2.274
64083W        W28291  32.498  39.329   1.800
64084W        W28292  30.987  12.624   5.189
64085W        W28293  10.286   8.679   0.449
64086W        W28294   9.658  36.556   2.188
64087W        W28295  40.809  17.702   3.318
64088W        W28296   3.249  18.719  12.023
64089W        W28297  36.378   9.780   3.195
64090W        W28298   6.691  29.489   4.786
64091W        W28299  30.610  30.124   0.884
64092W        W28300  23.993  10.637   3.773
64093W        W28301  37.568  24.692   0.816
64094W        W28302  15.185  37.437  13.025
64095W        W28303  37.019  17.083   2.689
64096W        W28304  27.062  21.140  14.424
64097W        W28305  29.933  39.420  10.411
64098W        W28306  35.562   9.876   2.878
64099W        W28307  43.901  27.542   4.156
64100W        W28308  35.540  29.141  11.383
64101W        W28309  19.589  36.927   2.804
64102W        W28310  36.425  20.198  13.351
64103W        W28311   0.982  18.752   3.741
64104W        W28312  30.162  10.239  11.457
64105W        W28313  27.018  38.402   1.333
64106W        W28314   4.307  11.310  14.983
64107W        W28315   6.891  30.014  11.944
64108W        W28316   9.719  20.157  14.492
64109W        W28317  44.302  17.639  11.042
64110W        W28318  43.289  41.313   1.364
64111W        W28319  44.769  34.887   2.740
64112W        W28320   8.867  22.245  10.900
64113W        W28321  44.410   4.405  13.503
64114W        W28322  12.235   7.410   0.339
64115W        W28323   2.340  23.561   2.714
64116W        W28324  43.388  24.204  13.500
64117W        W28325  21.225   4.431   1.734
64118W        W28326  36.488  19.775  14.824
64119W        W28327  44.850  12.187   4.309
64120W        W28328  23.561  26.556   0.810
64121W        W28329  18.220  14.733   3.333
64122W        W28330  10.688  23.491  14.313
64123W        W28331  33.574  21.026   4.780
64124W        W28332   4.417   2.450  11.060
64125W        W28333  40.370   8.189  13.993
64126W        W28334  43.311  24.211   0.902
64127W        W28335  27.688   0.899  11.029
64128W        W28336  29.032  26.695   1.328
64129W        W28337   0.799  20.082  10.529
64130W        W28338  16.139  31.570   4.300
64131W        W28339  36.085  41.971  11.965
64132W        W28340   3.248  28.981  11.518
64133W        W28341   5.220  29.002  13.490
64134W        W28342  12.340  12.310  14.408
64135W        W28343   7.723  36.536   0.257
64136W        W28344   9.227   7.802   3.265
64137W        W28345  10.222  16.077  11.093
64138W        W28346  32.542  24.035  10.511
64139W        W28347  35.077  27.649  10.552
64140W        W28348   1.255  26.562  14.772
64141W        W28349  31.528  14.731  10.904
64142W        W28350  26.130  24.086   0.327
64143W        W28351  14.216  20.653  12.419
64144W        W28352  37.898  14.642  14.849
64145W        W28353  14.225  16.214   3.196
64146W        W28354  13.734  19.127  10.429
64147W        W28355  43.299  27.502  10.517
64148W        W28356  39.912  40.851   1.325
64149W        W28357  44.881  16.614   4.622
64150W        W28358  30.492  31.900  12.958
64151W        W28359   0.392   0.487   0.756
64152W        W28360  40.316  20.631  12.094
64153W        W28361  16.593  34.559  13.515
64154W        W28362  20.032  22.110  12.989
64155W        W28363  27.496  40.371   4.624
64156W        W28364  26.958  33.007  13.400
64157W        W28365  43.974  14.727  13.366
64158W        W28366  16.279   6.196   2.232
64159W        W28367   9.316  17.593  11.577
64160W        W28368   3.233   2.385  13.424
64161W        W28369  25.149  40.936   2.780
64162W        W28370  17.290  32.496  13.828
64163W        W28371  21.028  20.684   3.347
64164W        W28372  22.534  32.487  10.408
64165W        W28373  22.241  25.557   2.856
64166W        W28374  23.544  33.479   0.376
64167W        W28375   2.348  37.939  13.850
64168W        W28376  14.323  25.561   2.902
64169W        W28377   0.801  15.258  14.394
64170W        W28378  28.625  29.436   2.314
64171W        W28379  27.555  41.919   3.352
64172W        W28380  16.618  34.437  14.913
64173W        W28381  38.362   0.450  11.912
64174W        W28382  22.621  25.500   4.624
64175W        W28383  31.041  44.782   3.383
64176W        W28384  39.835  28.965   0.415
64177W        W28385  31.947  30.999  12.424
64178W        W28386  41.435  19.112  12.404
64179W        W28387   9.200  12.310   5.736
64180W        W28388   0.287  31.079  13.898
64181W        W28389  16.811  21.647  10.534
64182W        W28390  19.194   6.424   2.775
64183W        W28391  18.599  32.043  11.454
64184W        W28392  22.709  44.824  11.067
64185W        W28393  19.247  43.319   2.237
64186W        W28394   6.768  11.651  14.869
64187W        W28395   2.270  41.427  11.939
64188W        W28396  12.703  36.854   1.883
64189W        W28397  11.319  42.995  11.997
64190W        W28398  20.524  26.648   1.341
64191W        W28399  28.093  28.140   4.635
64192W        W28400  31.556  39.849   1.360
64193W        W28401  14.780  31.073   2.787
64194W        W28402  22.232   2.459   2.317
64195W        W28403  43.490   8.370  14.827
64196W        W28404   8.172  39.926  13.477
64197W        W28405  35.872  32.115   4.138
64198W        W28406  23.517  35.924  12.510
64199W        W28407   5.713  40.962  10.942
64200W        W28408  19.653  12.626   3.839
64201W        W28409  38.396   6.217  10.512
64202W        W28410  16.752  18.715   3.863
64203W        W28411   7.325  23.624  10.576
64204W        W28412  22.656  33.903  10.943
64205W        W28413  18.295  44.499  14.432
64206W        W28414  18.097  31.089   1.929
64207W        W28415  24.110   8.232   2.761
64208W        W28416  13.790   6.688   0.282
64209W        W28417  27.957   0.475   1.760
64210W        W28418  18.732  24.190   0.393
64211W        W28419  33.094  32.508  13.531
64212W        W28420   4.835  14.215   2.243
64213W        W28421   9.722  25.206   1.274
64214W        W28422  14.307  35.564   3.635
64215W        W28423  31.582   6.348   2.700
64216W        W28424  15.113  22.072   2.210
64217W        W28425  28.590  40.325   2.394
64218W        W28426  43.311  14.713   4.643
64219W        W28427  26.098   7.262  12.460
64220W        W28428  14.600  44.929  14.356
64221W        W28429  17.665  13.264   4.668
64222W        W28430  42.389  23.058   3.370
64223W        W28431  35.470  11.154  14.976
64224W        W28432   5.426   9.811   2.179
64225W        W28433   1.756   8.692   0.961
64226W        W28434   1.764  42.783  14.476
64227W        W28435  37.913  44.818  12.867
64228W        W28436  31.095   5.340   4.706
64229W        W28437  13.270  17.082  13.464
64230W        W28438  11.748  18.062   3.865
64231W        W28439  20.545  19.046   0.382
64232W        W28440   7.755  20.530   1.928
64233W        W28441  23.033  25.986   3.868
64234W        W28442  42.385  29.946   9.499
64235W        W28443  32.002  16.089  11.065
64236W        W28444  31.542  36.398   1.779
64237W        W28445  32.941  22.240  14.287
64238W        W28446  11.718   0.779  11.579
64239W        W28447   0.807  41.817   4.638
64240W        W28448  25.499  32.029   2.190
64241W        W28449  39.052  31.579  12.475
64242W        W28450  42.870  28.019  10.513
64243W        W28451  16.269  36.357   1.289
64244W        W28452   6.819  17.699  12.095
64245W        W28453  29.617  20.262  12.564
64246W        W28454  41.345  14.770   0.427
64247W        W28455  14.711  11.624  14.924
64248W        W28456  12.309  32.917  12.010
64249W        W28457  44.938  27.677  14.902
64250W        W28458  15.729  11.662  13.517
64251W        W28459  21.600  10.746   2.685
64252W        W28460  25.706  19.252  13.456
64253W        W28461  40.823   5.854  11.031
64254W        W28462  11.651  44.871   1.410
64255W        W28463  21.561  10.317  13.022
64256W        W28464  30.498  44.984   0.730
64257W        W28465   0.319  41.901   0.327
64258W        W28466  25.589  18.679  11.443
64259W        W28467  19.229   2.307  10.939
64260W        W28468  33.024  11.663  14.377
64261W        W28469  34.908   2.884  14.371
64262W        W28470  16.264  16.713   3.726
64263W        W28471  20.139  18.556  11.611
64264W        W28472  12.616  28.104   4.705
64265W        W28473  41.524  27.564  12.903
64266W        W28474  24.175  29.933  13.523
64267W        W28475  22.179   4.933   4.222
64268W        W28476  11.337  22.673   3.298
64269W        W28477   4.764  33.382   1.298
64270W        W28478  37.964   4.774  13.510
64271W        W28479  31.498   0.256  13.400
64272W        W28480  23.150   6.198   1.801
64273W        W28481  33.394   2.874  13.041
64274W        W28482  17.696  19.597  12.869
64275W        W28483  40.837  17.669   1.308
64276W        W28484  20.538  23.009   1.869
64277W        W28485  20.140  24.225  12.963
64278W        W28486   3.420  41.292  13.339
64279W        W28487  30.629  11.801  14.972
64280W        W28488  34.396  41.537   2.861
64281W        W28489  20.091  41.352  13.493
64282W        W28490  40.017  18.230  10.891
64283W        W28491   0.419  20.033  13.995
64284W        W28492  10.667  28.594   4.655
64285W        W28493  13.300   9.698  10.442
64286W        W28494  11.677   7.341  10.045
64287W        W28495   8.372  32.543  11.514
64288W        W28496   8.360  44.859  11.944
64289W        W28497  36.898   0.455  10.542
64290W        W28498   0.474  39.012   4.327
64291W        W28499  22.064  37.410   3.770
64292W        W28500   2.958  27.157  14.410
64293W        W28501   1.465  21.538  10.937
64294W        W28502  21.214  32.571  14.343
64295W        W28503  22.122   8.702   5.760
64296W        W28504  25.194  43.858   3.161
64297W        W28505  42.373  16.628   3.661
64298W        W28506  20.120   5.224  11.914
64299W        W28507  10.765  36.566  11.123
64300W        W28508  17.101   6.187  13.053
64301W        W28509  27.083  31.043   2.769
64302W        W28510  20.651  11.231   0.465
64303W        W28511  35.453  26.463   0.271
64304W        W28512  18.186   8.884   2.379
64305W        W28513   2.387  35.524  13.511
64306W        W28514  22.090   2.438   0.927
64307W        W28515  29.091  13.215   1.903
64308W        W28516  32.500  16.733  13.017
64309W        W28517  16.130  33.088  12.392
64310W        W28518  32.108   3.790  11.051
64311W        W28519   8.838   6.401  14.791
64312W        W28520   2.749  39.986  14.787
64313W        W28521  25.095  15.641  11.394
64314W        W28522  12.229  27.153   0.807
64315W        W28523  16.293  42.412   4.781
64316W        W28524  21.659  10.266   0.812
64317W        W28525  39.971   5.422  11.997
64318W        W28526  32.460  23.136  11.533
64319W        W28527   6.310  27.493   4.325
64320W        W28528  38.406  41.364   1.897
64321W        W28529  22.505  20.176   1.397
64322W        W28530  26.204  21.160   4.800
64323W        W28531  23.590  24.578   0.946
64324W        W28532  23.095  31.465  13.366
64325W        W28533  38.393  30.560  11.612
64326W        W28534   7.252  37.394   2.771
64327W        W28535  24.181  11.301  13.931
64328W        W28536   8.893  30.004   1.348
64329W        W28537  10.674  22.646  14.455
64330W        W28538  13.163  12.142   3.215
64331W        W28539  28.549   6.700   2.410
64332W        W28540  12.228  26.550   4.327
64333W        W28541   5.315  32.918  11.938
64334W        W28542  22.094  34.863  12.382
64335W        W28543  40.825  16.584   4.606
64336W        W28544  13.312  28.021   3.861
64337W        W28545  28.575  16.786  14.787
64338W        W28546  11.136  35.065  14.358
64339W        W28547  41.346  34.939  11.946
64340W        W28548  19.128  26.489  11.556
64341W        W28549   9.845  37.503   4.834
64342W        W28550  21.077  18.098   1.320
64343W        W28551  10.817  39.817  12.878
64344W        W28552  12.722   8.792   1.787
64345W        W28553  24.016  11.690  11.026
64346W        W28554  31.911  29.560  12.970
64347W        W28555  14.314   1.288   4.275
64348W        W28556  27.581  37.569   4.778
64349W        W28557  29.079  37.476   3.747
64350W        W28558  30.474   4.882  12.944
64351W        W28559  22.081  20.676   2.257
64352W        W28560   3.878   9.227  11.019
64353W        W28561  14.688  24.135   4.311
64354W        W28562  42.839  40.830  12.969
64355W        W28563  29.653  37.954  13.982
64356W        W28564  16.249  38.819  12.549
64357W        W28565  19.601  28.667  12.558
64358W        W28566   7.766  16.106  11.596
64359W        W28567   8.718  38.500   1.908
64360W        W28568  32.503   7.671  13.013
64361W        W28569  18.669  19.104   0.880
64362W        W28570  20.647   0.318  13.345
64363W        W28571  22.663   1.329  14.300
64364W        W28572  41.995  19.643   3.268
64365W        W28573  26.992   2.292  14.434
64366W        W28574  22.249  34.878  11.022
64367W        W28575  32.437  43.435   4.332
64368W        W28576  26.575  38.923   1.227
64369W        W28577  16.167  42.496  14.477
64370W        W28578   8.894  14.590   0.307
64371W        W28579   1.257  15.625  10.976
64372W        W28580  44.972   7.310  13.037
64373W        W28581  30.083  13.224  10.100
64374W        W28582  15.117   2.726  10.625
64375W        W28583  35.458  35.109   0.787
64376W        W28584  24.664  40.368   3.727
64377W        W28585   9.173   5.813  14.447
64378W        W28586  24.689  19.251  14.926
64379W        W28587  28.661  11.633   4.157
64380W        W28588  20.222  25.009   3.778
64381W        W28589  33.910   8.361  13.801
64382W        W28590  20.225   9.881  11.530
64383W        W28591  20.138  39.497  12.007
64384W        W28592  42.868   8.381   4.328
64385W        W28593   3.944  26.972   3.289
64386W        W28594  18.127  24.625   0.796
64387W        W28595  11.660  30.621   1.865
64388W        W28596  41.414  42.968  12.562
64389W        W28597  43.823  18.145   0.457
64390W        W28598  44.264  41.832   1.275
64391W        W28599  33.453   1.280  14.995
64392W        W28600  10.777   9.881  14.773
64393W        W28601  27.172   7.191   3.226
64394W        W28602  17.123  36.886  14.337
64395W        W28603  35.037  33.960   0.364
64396W        W28604  13.300  23.512  14.315
64397W        W28605  21.112  42.396  11.855
64398W        W28606   0.923   5.810   2.376
64399W        W28607  38.536  43.446   1.269
64400W        W28608  28.081  29.465   5.193
64401W        W28609  33.589  38.521  14.818
64402W        W28610   4.870   1.941  13.856
64403W        W28611   8.715  33.995   3.170
64404W        W28612  15.820  20.591   2.378
64405W        W28613  10.685  39.476   2.203
64406W        W28614  27.000  31.934  13.940
64407W        W28615   6.325  28.025  12.075
64408W        W28616  43.784  36.096   3.344
64409W        W28617  28.566  31.416   2.847
64410W        W28618   6.688  13.307   0.811
64411W        W28619   3.899  37.922   4.679
64412W        W28620   6.386  31.465  11.023
64413W        W28621  17.208  12.830   2.793
64414W        W28622   2.850  13.342   2.261
64415W        W28623  26.036  26.158   4.838
64416W        W28624  44.983   3.384   1.446
64417W        W28625  28.086  39.809  10.921
64418W        W28626  44.504  15.162  11.562
64419W        W28627  44.336  25.018   2.850
64420W        W28628  12.745   7.239  11.461
64421W        W28629  42.427  43.838  13.366
64422W        W28630  42.003  40.803  11.031
64423W        W28631  20.189  32.886   2.832
64424W        W28632  22.164   3.325   3.363
64425W        W28633  31.646  35.931  13.365
64426W        W28634  10.140  12.817   0.263
64427W        W28635  11.143  23.042   1.911
64428W        W28636  25.569  43.969  10.501
64429W        W28637  14.801  31.550   4.810
64430W        W28638  21.625  33.963   4.657
64431W        W28639  29.516  29.623  13.052
64432W        W28640  21.144  20.636  12.376
64433W        W28641  36.559  17.302   0.855
64434W        W28642   7.199  29.958  11.021
64435W        W28643  33.085  42.003   3.825
64436W        W28644  22.186  19.203  11.519
64437W        W28645  21.543   9.290   3.719
64438W        W28646  19.595  32.090   0.353
64439W        W28647  15.806  33.540  14.843
64440W        W28648   0.928  38.337  11.882
64441W        W28649  17.275  40.906  12.047
64442W        W28650  26.523  25.619   4.664
64443W        W28651   6.382  18.616   0.283
64444W        W28652  12.227  19.131  12.847
64445W        W28653   6.847   2.761  11.521
64446W        W28654  16.583  25.976   0.408
64447W        W28655  40.466  20.052   0.892
64448W        W28656   8.209  37.969   1.287
64449W        W28657  21.606  22.520  14.401
64450W        W28658   0.430  33.894  14.906
64451W        W28659  18.214  36.906   0.955
64452W        W28660  19.128  18.578  13.473
64453W        W28661   1.378   6.309  11.061
64454W        W28662  40.354  36.406   0.376
64455W        W28663  23.212  26.479  13.836
64456W        W28664  19.756  38.425  12.856
64457W        W28665   5.311  15.732  12.008
64458W        W28666  42.029  25.467   0.771
64459W        W28667   8.273  33.908  13.023
64460W        W28668  15.097  31.081   2.381
64461W        W28669   8.693  27.010  14.021
64462W        W28670  23.698  26.986   4.704
64463W        W28671  38.536   2.380   2.347
64464W        W28672   6.246  33.005   1.882
64465W        W28673  12.748  28.564   0.366
64466W        W28674   3.455  18.551   5.213
64467W        W28675  26.565  41.846  14.882
64468W        W28676  39.528  33.579  14.812
64469W        W28677   2.792  41.421  14.030
64470W        W28678  29.492  25.198  12.092
64471W        W28679  32.479  25.049   5.273
64472W        W28680  25.575  12.229   0.840
64473W        W28681  29.634  24.566   0.750
64474W        W28682  13.732   4.301   3.719
64475W        W28683  26.135  42.487   3.827
64476W        W28684   6.239  28.016   3.826
64477W        W28685  22.649   4.231  14.009
64478W        W28686  26.003  13.344  14.827
64479W        W28687  10.350  10.273  11.035
64480W        W28688  14.816  25.501  14.956
64481W        W28689  38.494  29.437  10.959
64482W        W28690  37.375  26.154   4.175
64483W        W28691  25.074  41.990  11.920
64484W        W28692  17.658   1.787  12.559
64485W        W28693  10.668   0.749  12.418
64486W        W28694   3.279  23.059   4.799
64487W        W28695  28.578  41.461   1.858
64488W        W28696   3.734   7.228   3.366
64489W        W28697  28.466  40.027  13.317
64490W        W28698  12.208  29.030   2.826
64491W        W28699   5.704  34.530   4.283
64492W        W28700  22.504   8.794   9.923
64493W        W28701  14.804  22.608  12.049
64494W        W28702  16.607   1.888   4.220
64495W        W28703   2.419  42.872   1.885
64496W        W28704  20.162   3.716  12.417
64497W        W28705  40.400  30.118  10.956
64498W        W28706  20.149  27.526  14.489
64499W        W28707  13.343  16.156   4.811
64500W        W28708  11.786  21.725   1.229
64501W        W28709  26.039  13.251   3.360
64502W        W28710  11.681   8.229  11.475
64503W        W28711  27.556  32.104   0.727
64504W        W28712  31.088  37.570   5.198
64505W        W28713  23.533  23.611  11.021
64506W        W28714  33.456  31.508   3.712
64507W        W28715  21.546   0.808  12.910
64508W        W28716   8.800  40.031  14.772
64509W        W28717   4.283  40.479  14.971
64510W        W28718  14.706  37.383   1.351
64511W        W28719  35.874  20.595   3.824
64512W        W28720  28.623  31.962   3.750
64513W        W28721  23.721  28.156   3.190
64514W        W28722  24.038  31.639   0.777
64515W        W28723  19.739   6.825   3.261
64516W        W28724  36.921  23.599  10.526
64517W        W28725  27.564  36.367  10.595
64518W        W28726   6.871  44.491  12.555
64519W        W28727  24.591  26.001  12.552
64520W        W28728  44.825  21.065  12.857
64521W        W28729  43.456  42.428  11.956
64522W        W28730  35.502  14.674  13.962
64523W        W28731  25.167  34.054  12.492
64524W        W28732  40.438  36.850   3.352
64525W        W28733   9.265  28.454  12.344
64526W        W28734   7.322  41.515  11.470
64527W        W28735  18.582   1.247  12.566
64528W        W28736  21.248  22.047   0.954
64529W        W28737  17.067  44.805   3.288
64530W        W28738  32.453  25.168  14.826
64531W        W28739  29.995  16.180   3.270
64532W        W28740   1.308  38.479   3.230
64533W        W28741  13.286  20.057  11.509
64534W        W28742  13.202  17.115   0.838
64535W        W28743  28.970   0.352  14.330
64536W        W28744  12.631  44.477  11.372
64537W        W28745  41.977  43.361   3.283
64538W        W28746  30.099   0.390  10.618
64539W        W28747  12.215  36.036  11.080
64540W        W28748  16.141  15.799  12.568
64541W        W28749  41.908  29.009  10.593
64542W        W28750  30.524  20.739  12.879
64543W        W28751  29.105  10.836   4.345
64544W        W28752  27.955  15.775   1.846
64545W        W28753   2.470  27.527   2.342
64546W        W28754  23.562   6.364  11.940
64547W        W28755  44.477  27.985   2.800
64548W        W28756  25.587  10.740  12.564
64549W        W28757  21.219  33.577   0.727
64550W        W28758  22.567  12.830  13.942
64551W        W28759   7.298  20.755   1.449
64552W        W28760   3.839  31.576  14.360
64553W        W28761  23.214   2.320  11.973
64554W        W28762  12.629  11.210   2.781
64555W        W28763  35.085  27.174  13.480
64556W        W28764  13.145  23.068  13.821
64557W        W28765  37.394  37.924   2.881
64558W        W28766  31.528  17.789   4.332
64559W        W28767   5.723   6.199  13.833
64560W        W28768  14.785  23.658  14.812
64561W        W28769  17.159   3.771  12.460
64562W        W28770  42.970  28.970   5.300
64563W        W28771  44.828  16.175   1.818
64564W        W28772   1.301  16.237   0.966
64565W        W28773   3.351  16.704  14.764
64566W        W28774   7.314  12.710   4.751
64567W        W28775  24.176  26.680  11.999
64568W        W28776  32.127   2.837   0.395
64569W        W28777  15.670  12.754  10.030
64570W        W28778   6.396  30.634   4.676
64571W        W28779  23.217   2.892   2.352
64572W        W28780  37.830  32.561  10.471
64573W        W28781  25.065  24.566  13.820
64574W        W28782  36.937   6.844   2.677
64575W        W28783  19.045  15.109   3.252
64576W        W28784  22.134  35.993   3.865
64577W        W28785  44.328  21.704   2.789
64578W        W28786  36.432  11.638   4.641
64579W        W28787  31.079  43.825  10.560
64580W        W28788  21.536  42.957  14.933
64581W        W28789  34.057  29.567   3.260
64582W        W28790  12.330  34.018  13.035
64583W        W28791  12.132  21.572  11.886
64584W        W28792   5.308  17.107  14.879
64585W        W28793  43.975  21.546  11.055
64586W        W28794   0.942  19.550   1.234
64587W        W28795  22.213  32.893   4.653
64588W        W28796  28.972  43.411  12.393
64589W        W28797  18.578   0.275   1.871
64590W        W28798  16.147  29.004   2.891
64591W        W28799  44.494  23.684   1.869
64592W        W28800   6.375  28.968  14.319
64593W        W28801  36.961  25.050  11.879
64594W        W28802  31.057  44.807  10.982
64595W        W28803  27.008   0.800  13.458
64596W        W28804  10.332   0.786  14.277
64597W        W28805  10.271  27.486  10.003
64598W        W28806   6.724  38.543   3.253
64599W        W28807  33.904  30.994   4.320
64600W        W28808   4.779  30.942   0.912
64601W        W28809  31.102  13.233   1.829
64602W        W28810  29.453   1.404   2.834
64603W        W28811  32.393  25.642  13.527
64604W        W28812  27.664  41.398   0.742
64605W        W28813   5.875  42.303  12.034
64606W        W28814  44.782  37.062   4.652
64607W        W28815  11.332  28.636  13.486
64608W        W28816  27.025  39.540   0.315
64609W        W28817  37.833  28.663   3.247
64610W        W28818  26.002   5.762   4.664
64611W        W28819  42.820  28.663   4.617
64612W        W28820  43.949  14.629  13.843
64613W        W28821  40.930   8.895   3.819
64614W        W28822  24.572  42.986  10.592
64615W        W28823  31.409  13.351   4.239
64616W        W28824  25.200  44.859  14.002
64617W        W28825  18.762   2.835  10.415
64618W        W28826  18.771  36.349  14.878
64619W        W28827  18.742   6.704  11.529
64620W        W28828  14.677  20.058   4.154
64621W        W28829  35.407  32.493  12.533
64622W        W28830  15.302   3.307  14.503
64623W        W28831  32.111   4.937  13.334
64624W        W28832  27.475  29.553  12.346
64625W        W28833  33.993  31.412   1.342
64626W        W28834  28.166  31.006   4.820
64627W        W28835  25.482   5.313   0.289
64628W        W28836   2.873  29.012  11.017
64629W        W28837  28.945  38.050   0.382
64630W        W28838  41.381  31.483  14.857
64631W        W28839   5.737  34.044   1.415
64632W        W28840   5.293  36.888   3.289
64633W        W28841  37.977  18.604   2.760
64634W        W28842  15.778  18.265   0.777
64635W        W28843  22.642  34.612   4.694
64636W        W28844   3.860  10.187   0.255
64637W        W28845  26.141   5.300  11.104
64638W        W28846  43.490   8.823   4.723
64639W        W28847  29.578  43.400  10.973
64640W        W28848  19.568  12.628   4.161
64641W        W28849  32.904   5.438   4.224
64642W        W28850   9.197  26.493  10.591
64643W        W28851  24.505   7.201   0.259
64644W        W28852  18.220  18.585  10.114
64645W        W28853  15.268  20.718   0.423
64646W        W28854  34.013  34.425   2.736
64647W        W28855  34.521  24.721   4.242
64648W        W28856  33.999  40.828   1.717
64649W        W28857  34.060  14.109   2.405
64650W        W28858  15.200  42.434  13.941
64651W        W28859  10.671  18.277   1.352
64652W        W28860  38.427   1.470   0.849
64653W        W28861  34.991  26.975  10.635
64654W        W28862  15.628   0.985  12.363
64655W        W28863  26.124  22.585   0.844
64656W        W28864  19.573  10.875  11.421
64657W        W28865  11.783   9.727  13.954
64658W        W28866   6.341  26.542   2.302
64659W        W28867  12.276  38.926  14.031
64660W        W28868   2.307   5.926   1.227
64661W        W28869  10.849   9.387   2.861
64662W        W28870  24.491  29.450  10.527
64663W        W28871  34.571  24.102   0.378
64664W        W28872  29.515  25.164   3.180
64665W        W28873  24.571  16.776  12.386
64666W        W28874  20.114  14.256  10.406
64667W        W28875  31.993  25.583  10.901
64668W        W28876   3.372  43.335   2.239
64669W        W28877  22.998  20.104  11.475
64670W        W28878  43.512   0.931   1.790
64671W        W28879   6.344   3.853  11.522
64672W        W28880   1.854  20.164   4.176
64673W        W28881  35.010  40.852   2.833
64674W        W28882  24.717  36.564   0.890
64675W        W28883  25.617   2.296  10.413
64676W        W28884  28.016   8.367  12.828
64677W        W28885  18.067  21.184   2.330
64678W        W28886  26.610  24.028  10.911
64679W        W28887   4.290   5.789   2.324
64680W        W28888   8.843  23.116   1.904
64681W        W28889  37.516   4.407   5.577
64682W        W28890  10.236  30.433  11.502
64683W        W28891  19.187  30.927   3.764
64684W        W28892  24.031  36.842   4.265
64685W        W28893   8.217  12.266   1.363
64686W        W28894  16.732  19.205  11.560
64687W        W28895  43.808   0.816  14.488
64688W        W28896   9.177  25.177   2.360
64689W        W28897  29.511  26.142   0.951
64690W        W28898  42.400  27.516  13.901
64691W        W28899  14.673   2.332  13.318
64692W        W28900  22.072   4.774  11.549
64693W        W28901  11.717  38.490  11.100
64694W        W28902  39.535   7.782   2.880
64695W        W28903  38.387  20.662  13.875
64696W        W28904  17.731  40.361   0.844
64697W        W28905  30.162  29.071   2.829
64698W        W28906  35.100  16.145   3.792
64699W        W28907   9.655  37.832  10.490
64700W        W28908  28.624  22.747  11.453
64701W        W28909  16.683  23.673  14.772
64702W        W28910  35.066  24.631   3.763
64703W        W28911  18.714  32.517  10.977
64704W        W28912  22.567  27.497   4.660
64705W        W28913   9.724  11.331  12.386
64706W        W28914  32.625   9.789  13.464
64707W        W28915  12.323  11.863   2.725
64708W        W28916  28.118  26.064   2.351
64709W        W28917  31.073  33.007   3.268
64710W        W28918  36.519  12.313   3.217
64711W        W28919   1.952  40.467  12.481
64712W        W28920  43.965  22.506  12.571
64713W        W28921  11.194  34.887   1.281
64714W        W28922  24.981  11.240  10.418
64715W        W28923  37.579  28.081  12.839
64716W        W28924   9.204  41.004  12.489
64717W        W28925  18.198  43.298  13.963
64718W        W28926  12.853  33.044  13.994
64719W        W28927  26.017   6.385   1.705
64720W        W28928   2.914  23.042   3.772
64721W        W28929  44.759  32.436   1.297
64722W        W28930  14.649   6.757   2.857
64723W        W28931   8.871  32.477  10.458
64724W        W28932  39.424  38.899  13.956
64725W        W28933   8.185  34.583   0.776
64726W        W28934   2.308  33.523  10.473
64727W        W28935  44.452  39.401   3.853
64728W        W28936  25.650  41.414   2.251
64729W        W28937   9.781  10.771  10.110
64730W        W28938   5.734  30.513  14.359
64731W        W28939  22.542  19.113   2.264
64732W        W28940   7.904  36.380   1.299
64733W        W28941   2.931  14.681   4.613
64734W        W28942   3.296  41.429   9.970
64735W        W28943  28.064  34.594   0.294
64736W        W28944   4.220   3.881   1.302
64737W        W28945  38.014  13.110  12.040
64738W        W28946  11.144  32.636   3.713
64739W        W28947  26.033  12.756   0.263
64740W        W28948  22.187   5.805   0.835
64741W        W28949  14.596  40.431   4.339
64742W        W28950  44.438  24.699   3.652
64743W        W28951  22.520  22.248  14.430
64744W        W28952  34.587  21.538  12.547
64745W        W28953  29.134  37.480   0.937
64746W        W28954  29.470  23.080  10.453
64747W        W28955   4.255  31.090   0.353
64748W        W28956  40.009   1.360   3.241
64749W        W28957  27.128  18.221   0.751
64750W        W28958   3.267  32.988  14.771
64751W        W28959  17.137   4.718  10.443
64752W        W28960  34.995  35.056   5.306
64753W        W28961  41.457  27.619  12.568
64754W        W28962   7.837  33.026   0.765
64755W        W28963  28.037  24.986  10.533
64756W        W28964  23.171   4.430   0.922
64757W        W28965  21.254  20.734  14.011
64758W        W28966  38.398  32.983   0.256
64759W        W28967   2.269   7.266  12.022
64760W        W28968   9.742  26.127  11.927
64761W        W28969   7.673  35.100   4.799
64762W        W28970  23.517  34.397   3.679
64763W        W28971  29.100   5.868   3.840
64764W        W28972   3.401  28.121  13.445
64765W        W28973  20.561  22.249  13.064
64766W        W28974   6.198  21.598  14.435
64767W        W28975   8.390  37.537   3.171
64768W        W28976  39.506  13.707  14.905
64769W        W28977   8.163  34.530   4.156
64770W        W28978   4.402  34.038  13.870
64771W        W28979   7.818  10.708  11.418
64772W        W28980  21.018   2.332  12.990
64773W        W28981  19.756  22.570   4.238
64774W        W28982   9.218  18.628   4.647
64775W        W28983   9.792  12.289  13.410
64776W        W28984  19.164  33.550   3.336
64777W        W28985   1.911  34.982  12.897
64778W        W28986   0.298   9.369   4.255
64779W        W28987   3.882  27.024   2.769
64780W        W28988  31.006  41.828   0.477
64781W        W28989  30.981  31.440   1.838
64782W        W28990  31.017  41.431  10.639
64783W        W28991  13.833  27.658  14.032
64784W        W28992  13.298  27.674  13.967
64785W        W28993  11.816  23.124   2.889
64786W        W28994  30.930   2.277  12.918
64787W        W28995   3.427  31.514   4.718
64788W        W28996  30.914  40.474  10.970
64789W        W28997   7.843  16.079   3.788
64790W        W28998   6.306  14.760   4.236
64791W        W28999  25.981  35.086  14.022
64792W        W29000  17.254  27.079  14.446
64793W        W29001   8.285  30.916  13.878
64794W        W29002   2.382  26.199  13.325
64795W        W29003  41.319   4.434  12.955
64796W        W29004  12.817  38.362  13.441
64797W        W29005  30.645  10.207   2.859
64798W        W29006   0.442  11.816   4.182
64799W        W29007  34.904   8.823  14.319
64800W        W29008  37.564  25.130   2.783
64801W        W29009  43.416   9.291  14.297
64802W        W29010  42.846  23.621   1.319
64803W        W29011  30.439   8.695   4.656
64804W        W29012  34.414  12.725  12.473
64805W        W29013  27.082  25.509   4.619
64806W        W29014  40.393  25.515  12.531
64807W        W29015  30.126  20.093   0.387
64808W        W29016  18.602  39.477  14.843
64809W        W29017  41.327  26.101  12.412
64810W        W29018   2.923   3.363  14.846
64811W        W29019  16.732   0.893   1.233
64812W        W29020  18.073  12.783   1.222
64813W        W29021  33.567  17.143  14.389
64814W        W29022  41.923   3.952   1.698
64815W        W29023  24.095  24.135  14.495
64816W        W29024  36.418  32.121   0.926
64817W        W29025  10.246  37.365  14.836
64818W        W29026  13.647  12.185   2.782
64819W        W29027   7.264  28.519  13.924
64820W        W29028  20.217  24.680   1.411
64821W        W29029  35.420  41.440  12.092
64822W        W29030   5.391  13.203   4.116
64823W        W29031   3.427  24.610   2.890
64824W        W29032  44.309  30.586  11.416
64825W        W29033  32.991  17.801  12.039
64826W        W29034  10.639   4.282  14.778
64827W        W29035  36.021  12.777  12.530
64828W        W29036  37.038  18.090  12.930
64829W        W29037  42.512   8.698  10.975
64830W        W29038  14.731  20.168   4.827
64831W        W29039  20.759  29.551  10.954
64832W        W29040   9.699  44.970  13.416
64833W        W29041  30.057  22.098  11.538
64834W        W29042  29.604  36.406  13.014
64835W        W29043   4.790  22.687   5.128
64836W        W29044  41.350  32.627  11.591
64837W        W29045  43.502  14.644   2.755
64838W        W29046  24.570  21.031   0.347
64839W        W29047  12.790  32.918  14.331
64840W        W29048  43.385   6.746  13.795
64841W        W29049  37.868   0.831   1.763
64842W        W29050  15.114  23.062   1.761
64843W        W29051  37.004   2.452   0.822
64844W        W29052  15.256   6.252  11.885
64845W        W29053  20.729  18.650   5.670
64846W        W29054  11.832  28.000  13.339
64847W        W29055  37.073  31.102  12.371
64848W        W29056  42.849  31.955  14.010
64849W        W29057  32.996  17.219  11.074
64850W        W29058  37.374  23.689  10.063
64851W        W29059   7.874   7.345  12.096
64852W        W29060  14.303   3.907  12.347
64853W        W29061   8.780  38.870   3.665
64854W        W29062   8.201  31.437   3.365
64855W        W29063   1.430  29.588   4.832
64856W        W29064  31.975  35.092   3.148
64857W        W29065  27.147   1.365  14.424
64858W        W29066  24.091  35.530  13.848
64859W        W29067  20.541  39.023   2.755
64860W        W29068  11.682  33.109   1.835
64861W        W29069  18.114  33.083  12.042
64862W        W29070  10.212  25.671   3.710
64863W        W29071  37.510  25.522  10.438
64864W        W29072  41.424  25.997  14.353
64865W        W29073  27.561  32.434  11.402
64866W        W29074  25.550   5.397  14.969
64867W        W29075  27.187   6.738  12.550
64868W        W29076  10.284  20.071   2.273
64869W        W29077  36.484  36.933  13.383
64870W        W29078  41.837  25.068  10.492
64871W        W29079   2.352   3.923   4.636
64872W        W29080  30.999  32.624  12.401
64873W        W29081  35.893  14.758   0.765
64874W        W29082  37.450  32.447   1.243
64875W        W29083  12.701   3.401   0.452
64876W        W29084  10.674  34.515   4.836
64877W        W29085  40.381   3.314  14.458
64878W        W29086  42.505  20.623  14.484
64879W        W29087  15.809  20.110  10.624
64880W        W29088  23.081  14.782   0.447
64881W        W29089  44.934  41.941  13.997
64882W        W29090   4.436  26.110  10.583
64883W        W29091   4.248  30.528  13.315
64884W        W29092  31.411  18.277  14.964
64885W        W29093   8.723   6.375  13.403
64886W        W29094  35.049  19.624   3.666
64887W        W29095  44.993  15.591   2.730
64888W        W29096   0.290  31.443  13.993
64889W        W29097  15.306  11.725   2.688
64890W        W29098  28.676  33.471  12.863
64891W        W29099  25.654  21.163  13.944
64892W        W29100  30.638  17.659  14.293
64893W        W29101  42.457  38.876   3.660
64894W        W29102  12.303  12.700  11.411
64895W        W29103  43.998  33.912   3.867
64896W        W29104  19.077  12.759  12.557
64897W        W29105  20.139  18.118   3.742
64898W        W29106   0.292  24.075  14.890
64899W        W29107  33.597  23.647  13.034
64900W        W29108  26.543  40.046  14.026
64901W        W29109  21.162  33.057  14.449
64902W        W29110  10.747  44.769  11.607
64903W        W29111  29.038  32.589  10.438
64904W        W29112  44.479  31.126   3.671
64905W        W29113  24.598  33.484  10.564
64906W        W29114  43.394  25.985  10.526
64907W        W29115   5.810  20.676   4.686
64908W        W29116   9.777  18.251  11.940
64909W        W29117  44.915  44.444   9.991
64910W        W29118  41.967   2.853  14.359
64911W        W29119  15.163  13.680   4.735
64912W        W29120  39.556  26.462   2.184
64913W        W29121  18.635  19.224   3.176
64914W        W29122  24.506   9.211   0.937
64915W        W29123  33.060  31.472  12.071
64916W        W29124  11.258  13.208  12.351
64917W        W29125  28.651  11.701   1.273
64918W        W29126  29.539  23.625  11.121
64919W        W29127  42.426  27.552  13.039
64920W        W29128  36.470  15.782   2.697
64921W        W29129  25.690  44.272  14.934
64922W        W29130  10.646   8.374   2.878
64923W        W29131  13.347   1.386   4.289
64924W        W29132  40.509  30.468  12.441
64925W        W29133  44.876   3.901  13.443
64926W        W29134  20.747  39.390   2.332
64927W        W29135  34.866  39.336  10.978
64928W        W29136  25.023  30.040   1.898
64929W        W29137  16.290  28.589  13.349
64930W        W29138  31.574  10.680  14.377
64931W        W29139  22.679  26.038   3.663
64932W        W29140  32.563  25.529  11.591
64933W        W29141   4.353  37.500   4.333
64934W        W29142  40.019  41.349   0.888
64935W        W29143   6.396  33.921   1.356
64936W        W29144  40.807  16.305   0.819
64937W        W29145  27.952  17.589   1.833
64938W        W29146   6.893  25.021  11.957
64939W        W29147   7.281  15.731  13.900
64940W        W29148   9.882  20.713  14.957
64941W        W29149  29.928   9.157  12.434
64942W        W29150  23.147  29.512   2.900
64943W        W29151  28.123  18.168  13.907
64944W        W29152  21.542   0.947  14.499
64945W        W29153  12.152  39.853   0.961
64946W        W29154  23.169   9.372  14.419
64947W        W29155  40.465  42.973  10.020
64948W        W29156  36.416  11.360  14.890
64949W        W29157  38.511  30.139   4.158
64950W        W29158  16.285  17.580   3.707
64951W        W29159  31.121  15.672   2.351
64952W        W29160   0.439  22.233   0.757
64953W        W29161  42.032  34.949   0.376
64954W        W29162  42.888  40.438  14.851
64955W        W29163  34.003   2.346   4.658
64956W        W29164  32.128  14.641  14.945
64957W        W29165  18.717  22.129   0.815
64958W        W29166  28.049   6.822  13.454
64959W        W29167  37.357  21.104   3.212
64960W        W29168  40.457  28.553   2.674
64961W        W29169  44.815  26.105  13.794
64962W        W29170  34.541  37.545  14.275
64963W        W29171  24.594  15.171   4.763
64964W        W29172   7.696  32.002   5.151
64965W        W29173  35.393  37.906  14.842
64966W        W29174   7.846  17.686   1.853
64967W        W29175  11.687  19.563  13.408
64968W        W29176  42.931  25.087  10.643
64969W        W29177   5.933  37.523  10.948
64970W        W29178  17.667  24.182   1.246
64971W        W29179  43.490  31.617  12.902
64972W        W29180  37.009   6.261  13.923
64973W        W29181  25.003  27.454   0.920
64974W        W29182  42.445  33.095  11.906
64975W        W29183  33.550   5.855  14.986
64976W        W29184  11.718  43.294   1.216
64977W        W29185  44.348   2.230  12.018
64978W        W29186   0.407  17.680   3.844
64979W        W29187   3.945  40.897   4.197
64980W        W29188  40.514  34.907  11.412
64981W        W29189  32.612  25.188  11.499
64982W        W29190   2.932  43.916   3.228
64983W        W29191  36.530  23.022   3.197
64984W        W29192  20.187  10.338   0.747
64985W        W29193  43.946  36.497  11.606
64986W        W29194  36.462   9.349  11.454
64987W        W29195  32.634  41.396   1.708
64988W        W29196  39.990  25.696  12.845
64989W        W29197  27.618   9.240   2.767
64990W        W29198  23.187   8.731  12.353
64991W        W29199  13.610  10.219  11.124
64992W        W29200   1.743  33.570  11.856
64993W        W29201  25.702  14.798  14.978
64994W        W29202   7.352  24.537   1.720
64995W        W29203  32.098  37.515  13.871
64996W        W29204  17.257  15.755  11.859
64997W        W29205   8.221  27.463   2.888
64998W        W29206  39.832  24.179   2.864
64999W        W29207  44.939  16.576  14.820
65000W        W29208   8.160  27.670  13.932
65001W        W29209  17.215   1.809   0.458
65002W        W29210  44.773  33.492   2.366
65003W        W29211   6.356  17.763   3.387
65004W        W29212  40.330  11.308  10.949
65005W        W29213  12.761  12.312  12.470
65006W        W29214  43.446  31.061  13.443
65007W        W29215  11.133  21.537  13.494
65008W        W29216  20.270  23.575  10.988
65009W        W29217   0.305  11.224  13.020
65010W        W29218   5.217  37.852  12.072
65011W        W29219  13.265  41.437   5.167
65012W        W29220  26.003  12.694  11.520
65013W        W29221   6.192  34.015   0.730
65014W        W29222  24.099  32.027   1.709
65015W        W29223  13.190  18.059   2.865
65016W        W29224  36.553  14.632  13.046
65017W        W29225  36.944  27.150  12.497
65018W        W29226  30.553  30.995   2.853
65019W        W29227  35.428   0.919  12.382
65020W        W29228  28.036   7.299  10.951
65021W        W29229  33.388  29.116   3.852
65022W        W29230   6.867   5.370   3.160
65023W        W29231  28.160  18.740   2.746
65024W        W29232  11.650   4.916  13.337
65025W        W29233  16.681  22.621  13.313
65026W        W29234   4.901   0.349  13.960
65027W        W29235  37.017  32.987   4.708
65028W        W29236  26.085  17.199   1.339
65029W        W29237  39.430  41.354   1.847
65030W        W29238  12.674  13.162  12.371
65031W        W29239  44.816  13.824  14.368
65032W        W29240  11.168  27.650  10.431
65033W        W29241  38.983   3.375   2.188
65034W        W29242  12.670  39.817   3.166
65035W        W29243  31.911  18.672   3.266
65036W        W29244  41.361  28.102  13.944
65037W        W29245  43.994  17.629   3.228
65038W        W29246   0.800  14.189   2.337
65039W        W29247  17.559  44.799  13.442
65040W        W29248   7.257   3.396  11.424
65041W        W29249  25.099  32.588   3.206
65042W        W29250  16.089  35.380  14.893
65043W        W29251  21.621  20.049   0.964
65044W        W29252  38.832  33.082   2.244
65045W        W29253  26.581  38.401  12.559
65046W        W29254  33.938  12.739   0.349
65047W        W29255  14.312  14.266   1.854
65048W        W29256  26.067  32.513   4.119
65049W        W29257   1.904  25.620   3.682
65050W        W29258  42.936  34.984  11.879
65051W        W29259  43.851  40.935   1.264
65052W        W29260   3.364  26.645   1.283
65053W        W29261  20.535  23.083  13.519
65054W        W29262  24.043  41.446   1.898
65055W        W29263  26.697  18.740   4.712
65056W        W29264  18.136  25.125   0.831
65057W        W29265  21.127  26.603   2.195
65058W        W29266  32.136  40.054  10.405
65059W        W29267  12.831  37.921  13.964
65060W        W29268  42.515  17.108  14.288
65061W        W29269  24.097  44.433  11.001
65062W        W29270  29.012  21.599   0.964
65063W        W29271  28.551  23.522  14.356
65064W        W29272   9.830  32.124  14.315
65065W        W29273  35.996   6.710  12.032
65066W        W29274  37.521   9.191  14.340
65067W        W29275  37.564   6.856   2.379
65068W        W29276   7.266  43.914   0.435
65069W        W29277  34.987  27.179   0.471
65070W        W29278  35.397   6.757   0.780
65071W        W29279  22.547   8.373   1.442
65072W        W29280  28.564  31.624   4.722
65073W        W29281  27.473  40.806   3.801
65074W        W29282  43.918   3.389   4.754
65075W        W29283   6.878  32.541  10.906
65076W        W29284  42.845  22.532  10.586
65077W        W29285   2.934  24.092  12.094
65078W        W29286   3.303  11.373  14.360
65079W        W29287  14.750  41.836   1.232
65080W        W29288  39.420  40.361  13.433
65081W        W29289  11.264  42.512  11.912
65082W        W29290   7.753  38.470  13.903
65083W        W29291  28.597  16.197   0.782
65084W        W29292  38.514  33.536  12.466
65085W        W29293  37.071  11.166   0.427
65086W        W29294  42.405   2.422   0.426
65087W        W29295  12.286  42.030  14.855
65088W        W29296  44.442   3.260   3.733
65089W        W29297  29.171  20.251   3.177
65090W        W29298  36.371  41.516   4.770
65091W        W29299  12.694  20.725  12.564
65092W        W29300  36.503  31.971  13.815
65093W        W29301   7.666  28.447   3.237
65094W        W29302  29.106  25.492  11.469
65095W        W29303  11.301  10.763   1.371
65096W        W29304  29.116  21.106  14.279
65097W        W29305  37.455  30.481  13.049
65098W        W29306  15.179  18.636   3.817
65099W        W29307  37.849  38.899   3.868
65100W        W29308  36.529  15.107  10.993
65101W        W29309  28.611  20.604  12.400
65102W        W29310  20.590   5.891   2.363
65103W        W29311  23.024  38.537  11.072
65104W        W29312   7.718  35.600  10.443
65105W        W29313  37.970  34.118   2.296
65106W        W29314  18.131  36.851   3.274
65107W        W29315  25.531   2.875   3.380
65108W        W29316  28.651   8.838  11.108
65109W        W29317  20.187  41.352  12.093
65110W        W29318   3.754  14.241  13.328
65111W        W29319  10.167  24.507  11.938
65112W        W29320  20.670  43.305  12.998
65113W        W29321  26.689  30.109   3.690
65114W        W29322  20.597  20.724  13.388
65115W        W29323  18.282   6.230   1.400
65116W        W29324  27.084  36.989  12.542
65117W        W29325   4.710  37.042  11.928
65118W        W29326   6.688  38.342  11.039
65119W        W29327  39.856  10.704  13.914
65120W        W29328   4.740  18.548  11.379
65121W        W29329   0.914   1.330   1.248
65122W        W29330  12.231  22.597  13.792
65123W        W29331   2.352  44.927  13.028
65124W        W29332  30.539   7.671  14.796
65125W        W29333  27.118   1.885   3.752
65126W        W29334  24.977  43.420  11.532
65127W        W29335  15.139  31.470  10.999
65128W        W29336  17.619  36.932  12.067
65129W        W29337  34.441  19.053   0.824
65130W        W29338  20.580  19.070  13.859
65131W        W29339  13.111  33.046   0.747
65132W        W29340   0.429  29.148  14.349
65133W        W29341  16.640  36.367  10.479
65134W        W29342   2.745  34.517   2.777
65135W        W29343  13.724  11.742  14.791
65136W        W29344  29.079  21.079   1.914
65137W        W29345  36.001  27.591  10.502
65138W        W29346  39.833  21.234  13.811
65139W        W29347  30.909   1.368   4.836
65140W        W29348  33.567  23.685  11.465
65141W        W29349  29.019  43.488  14.495
65142W        W29350   4.771  12.245  11.394
65143W        W29351   9.720  14.767   2.367
65144W        W29352  33.500  37.053  12.521
65145W        W29353  41.384  26.989  11.906
65146W        W29354  37.962  13.277  14.020
65147W        W29355  11.187  30.136   1.695
65148W        W29356   4.306  27.452  11.000
65149W        W29357   1.458   4.349  11.511
65150W        W29358   5.284  11.275  11.026
65151W        W29359   5.336  25.526   0.354
65152W        W29360  29.945  18.199   1.396
65153W        W29361  17.734  13.661  14.392
65154W        W29362  26.048  42.799   3.202
65155W        W29363  36.009  21.170   2.849
65156W        W29364  22.184  25.645  11.539
65157W        W29365  15.652   6.777  13.384
65158W        W29366  43.000  38.863   3.807
65159W        W29367   9.347  30.594  12.367
65160W        W29368   9.880  18.092   2.789
65161W        W29369   2.862  41.795   2.805
65162W        W29370  33.980  28.476   0.950
65163W        W29371  40.915  11.812   1.933
65164W        W29372  19.105  16.697  11.891
65165W        W29373   4.749  29.038   0.916
65166W        W29374  40.802  20.604   3.638
65167W        W29375   3.460  27.472   4.275
65168W        W29376  44.875  22.128  14.358
65169W        W29377  13.301  13.209   2.219
65170W        W29378   2.866  40.529  12.416
65171W        W29379  29.543   2.363  14.777
65172W        W29380  10.258   8.709  10.406
65173W        W29381  12.777  11.182   0.743
65174W        W29382   1.785   1.330   0.262
65175W        W29383  29.141  30.433  13.544
65176W        W29384  33.576  16.683   2.368
65177W        W29385  16.267   9.703  11.873
65178W        W29386  26.529  33.911   3.835
65179W        W29387   5.249  34.372   0.251
65180W        W29388  41.358   6.824  12.428
65181W        W29389  22.139  41.861   3.674
65182W        W29390  10.357  11.261  11.395
65183W        W29391  34.586  29.514   0.913
65184W        W29392   0.467  26.661   0.915
65185W        W29393  10.812  14.205   1.415
65186W        W29394  39.995  24.596   1.338
65187W        W29395  17.188  43.856  12.382
65188W        W29396  42.355  36.405   3.819
65189W        W29397  32.578   8.815   2.376
65190W        W29398  20.220  10.301  10.446
65191W        W29399  15.236  37.040   0.749
65192W        W29400  11.834   2.808  12.365
65193W        W29401  40.325  41.861   5.271
65194W        W29402  26.960   5.204   2.861
65195W        W29403  16.187  23.598   1.913
65196W        W29404   1.891  15.742  13.310
65197W        W29405  24.977  44.457  13.535
65198W        W29406  29.939   7.268   3.701
65199W        W29407  23.208  18.547  10.489
65200W        W29408  10.171  14.619   4.786
65201W        W29409  31.415   3.908  13.466
65202W        W29410   6.750  17.725   0.296
65203W        W29411  21.676  28.465  13.402
65204W        W29412  30.041  37.972   0.879
65205W        W29413   1.457  42.979   1.699
65206W        W29414  14.603  23.592   0.933
65207W        W29415   7.666  15.821  13.935
65208W        W29416  23.639  39.508   3.856
65209W        W29417   6.830  22.025   3.341
65210W        W29418  34.383  16.739   2.195
65211W        W29419   1.931  27.523   3.354
65212W        W29420  41.904  44.830   1.790
65213W        W29421  16.196  17.307  11.514
65214W        W29422  43.464  32.557   1.241
65215W        W29423  11.656   5.402  12.063
65216W        W29424  24.622  37.438   3.215
65217W        W29425  17.184   2.266   2.247
65218W        W29426   8.342  37.086   1.238
65219W        W29427  15.810  35.059  14.852
65220W        W29428  19.668   1.480   4.259
65221W        W29429  17.780  35.922   1.720
65222W        W29430  26.475  39.983   3.763
65223W        W29431  44.359  36.458   0.243
65224W        W29432  22.730  32.939  13.904
65225W        W29433  25.176   0.768  13.990
65226W        W29434   5.770   8.346  14.981
65227W        W29435  44.367  43.808   2.283
65228W        W29436   4.938   2.283   2.852
65229W        W29437  34.898  39.879   2.687
65230W        W29438   2.897  17.561   0.922
65231W        W29439  13.709  32.065   0.264
65232W        W29440  35.535   4.785   1.730
65233W        W29441  16.597  39.029   3.717
65234W        W29442  11.218  17.184  12.004
65235W        W29443  19.561  24.533  10.419
65236W        W29444   9.677   6.899  12.038
65237W        W29445   1.768   9.818   2.194
65238W        W29446  29.608  20.225  14.925
65239W        W29447   3.299   3.805  14.307
65240W        W29448  32.140  32.422   1.813
65241W        W29449   3.337  43.375  11.977
65242W        W29450   5.780  24.601  11.585
65243W        W29451  14.247   9.793  14.840
65244W        W29452  13.725   9.756   4.648
65245W        W29453  40.982  10.711   1.310
65246W        W29454   7.203   9.263  10.561
65247W        W29455  30.632  31.608   1.448
65248W        W29456   8.254  26.636  13.848
65249W        W29457  27.660   8.386  13.508
65250W        W29458   4.237  13.142  11.423
65251W        W29459   7.702  11.850  14.993
65252W        W29460  24.210   8.261  11.375
65253W        W29461  21.226  14.705  12.835
65254W        W29462   4.910  29.542   0.289
65255W        W29463  28.655  40.458   0.738
65256W        W29464  11.310  40.826  13.540
65257W        W29465  20.059  43.422  12.866
65258W        W29466  23.172  22.544  13.431
65259W        W29467  40.401   9.245   2.386
65260W        W29468  21.031   2.877  12.091
65261W        W29469  40.983   1.751   1.926
65262W        W29470   6.271  32.092   1.370
65263W        W29471  40.525  37.858   1.929
65264W        W29472   6.785  41.927   4.132
65265W        W29473  37.033  37.887   4.345
65266W        W29474  22.214  33.995  11.083
65267W        W29475  44.772  17.723  14.892
65268W        W29476  10.759  18.724   1.301
65269W        W29477  38.359   1.787   3.290
65270W        W29478  26.661  19.627   4.800
65271W        W29479  22.581  37.466  13.825
65272W        W29480  25.573  13.622  12.032
65273W        W29481  21.731  15.657  10.441
65274W        W29482  32.103  37.428  10.590
65275W        W29483   5.916  14.818   3.153
65276W        W29484  11.203  36.923   1.752
65277W        W29485  29.923  37.519  11.491
65278W        W29486  25.674  12.138   1.857
65279W        W29487  13.641   7.171   3.317
65280W        W29488  25.707  36.992   2.704
65281W        W29489  28.002  18.230   1.441
65282W        W29490  18.782  14.701   2.876
65283W        W29491  26.531   0.364   3.197
65284W        W29492   9.344  36.045   4.837
65285W        W29493  43.478  33.558  13.013
65286W        W29494   2.459  35.877  12.086
65287W        W29495   2.845  10.323   4.126
65288W        W29496   2.263  15.311  10.935
65289W        W29497  36.374   3.411  12.851
65290W        W29498  38.334   0.920   4.617
65291W        W29499  28.151  43.365  11.531
65292W        W29500   0.954  34.942  13.487
65293W        W29501  26.473  43.953   0.351
65294W        W29502  34.471  11.689  14.395
65295W        W29503  12.276  21.165  10.081
65296W        W29504  27.090  22.175   3.223
65297W        W29505  20.100  37.854   9.486
65298W        W29506  44.882  31.981  14.370
65299W        W29507  33.978  17.133   4.830
65300W        W29508   9.274  33.959   1.864
65301W        W29509  17.251  15.303   4.123
65302W        W29510   0.910  25.097   3.841
65303W        W29511  35.074  19.692  12.411
65304W        W29512  12.796  42.499  12.899
65305W        W29513  36.426  32.503   1.331
65306W        W29514  43.338  43.294  14.903
65307W        W29515  32.512  16.097  13.997
65308W        W29516  43.914   5.308   3.773
65309W        W29517  32.008  17.711  14.936
65310W        W29518   7.899  14.675  13.940
65311W        W29519   5.717  22.165  12.527
65312W        W29520  10.302  17.628  14.311
65313W        W29521  33.933   7.207  13.335
65314W        W29522   3.917   9.866   2.688
65315W        W29523  16.211   3.830  10.540
65316W        W29524  20.151   2.408  11.550
65317W        W29525  19.780  34.922  11.025
65318W        W29526  34.390  29.638  10.560
65319W        W29527  24.678  27.077   0.473
65320W        W29528  31.000  25.099   2.334
65321W        W29529  19.559  36.034  11.540
65322W        W29530  25.484  19.043   0.859
65323W        W29531  44.445  44.342  13.805
65324W        W29532  29.491  33.101   0.932
65325W        W29533   2.852  28.039  14.819
65326W        W29534   9.683  30.093   2.885
65327W        W29535   0.949  37.988  12.995
65328W        W29536   6.239  21.607  14.913
65329W        W29537  20.217  36.555   0.822
65330W        W29538  22.005   6.410   2.320
65331W        W29539   7.775  26.136   2.277
65332W        W29540  38.034  24.984  13.899
65333W        W29541  18.110  26.502   2.729
65334W        W29542  39.900  19.667  12.942
65335W        W29543  21.549  19.053  11.059
65336W        W29544  10.200  40.850  14.833
65337W        W29545  40.480   0.948   2.360
65338W        W29546  33.959  13.609  10.549
65339W        W29547   9.705   5.887  13.976
65340W        W29548  26.517  11.186  14.831
65341W        W29549  12.853   4.356   2.748
65342W        W29550  31.406  22.048   0.419
65343W        W29551  24.507  10.356   2.699
65344W        W29552  17.275   9.647   2.699
65345W        W29553  44.934  12.829   2.732
65346W        W29554  27.035   1.420   1.231
65347W        W29555  30.589  18.067   0.865
65348W        W29556  37.871  24.659   2.723
65349W        W29557  30.153  40.879  13.475
65350W        W29558  30.156  38.355  11.900
65351W        W29559  12.202   6.714  12.477
65352W        W29560  24.590  18.564  14.857
65353W        W29561  18.132  21.199  13.927
65354W        W29562  12.336  33.565   0.442
65355W        W29563   9.851  18.654  11.556
65356W        W29564   8.790  33.067  13.364
65357W        W29565  24.231  32.942  13.399
65358W        W29566   3.724   0.375   2.235
65359W        W29567  17.262   2.918  10.986
65360W        W29568  37.560  39.811   4.270
65361W        W29569  26.044  28.106  14.465
65362W        W29570  18.564  11.137   1.700
65363W        W29571  39.379  14.671   4.758
65364W        W29572   6.749  19.674   1.748
65365W        W29573  36.448  43.333  10.406
65366W        W29574  23.670  34.382  11.965
65367W        W29575  15.782   4.423   2.322
65368W        W29576   1.383   8.218  12.477
65369W        W29577   0.958  42.890   5.212
65370W        W29578   1.963  29.437   0.779
65371W        W29579   1.760  40.860   2.841
65372W        W29580  14.126  36.090   2.764
65373W        W29581  40.384  17.765   3.382
65374W        W29582  10.687  36.913  14.335
65375W        W29583  22.100  32.508   4.833
65376W        W29584  39.966   8.323  11.043
65377W        W29585  37.423  23.995   0.800
65378W        W29586  23.618  38.994  11.861
65379W        W29587  34.001  20.230   2.668
65380W        W29588  12.294  43.764   1.403
65381W        W29589   7.293  38.975  12.576
65382W        W29590  43.476   9.792  12.869
65383W        W29591  11.301   8.842  14.451
65384W        W29592  10.654  17.583  14.342
65385W        W29593  24.621  19.249  14.379
65386W        W29594  12.178   3.389   1.878
65387W        W29595  21.205   0.779   5.306
65388W        W29596  37.384  12.170  11.483
65389W        W29597   5.278   1.369   3.270
65390W        W29598  19.227   2.370  13.925
65391W        W29599  35.588  13.704  10.494
65392W        W29600   3.228   6.695  13.936
65393W        W29601  40.543  32.005   3.280
65394W        W29602  22.514  44.956  10.416
65395W        W29603  22.738  14.714   0.923
65396W        W29604  20.531  37.882   1.818
65397W        W29605   8.344  24.680  11.982
65398W        W29606  21.205   7.723  11.940
65399W        W29607  15.146   4.384   3.346
65400W        W29608  44.320  27.131   4.344
65401W        W29609  14.300  19.138   1.766
65402W        W29610  23.238  24.192   0.332
65403W        W29611  23.516  35.423   3.204
65404W        W29612  18.286  14.812   1.761
65405W        W29613   3.334   4.306   3.669
65406W        W29614  41.002  22.739   1.832
65407W        W29615   1.423  13.151  12.827
65408W        W29616  10.682  18.672   4.335
65409W        W29617  30.640  17.694   5.268
65410W        W29618  23.145   6.802  14.928
65411W        W29619  33.987   1.886   2.804
65412W        W29620  23.561  25.663   0.755
65413W        W29621  16.743  42.314   4.761
65414W        W29622   8.840  13.645  12.049
65415W        W29623   8.846  42.283  14.869
65416W        W29624  37.384  33.383   3.256
65417W        W29625  24.709  37.373  14.494
65418W        W29626   9.243  35.030  14.362
65419W        W29627   8.376  20.153  11.529
65420W        W29628  10.359  39.557  13.039
65421W        W29629  43.874   3.391  10.918
65422W        W29630   7.269  12.304   4.738
65423W        W29631   4.390  17.303  12.420
65424W        W29632  32.446  31.476   0.835
65425W        W29633  36.031  16.161  12.938
65426W        W29634  35.914  24.020  10.408
65427W        W29635  33.429   3.822   9.957
65428W        W29636  41.314  33.501   4.231
65429W        W29637  27.133   5.322   1.865
65430W        W29638  37.418  36.056   3.191
65431W        W29639   1.802  20.229  10.559
65432W        W29640  20.078  33.943  12.554
65433W        W29641  18.759  40.305  10.893
65434W        W29642  40.390  24.683  12.370
65435W        W29643  12.134  20.682  13.469
65436W        W29644  10.160   6.906  12.421
65437W        W29645  16.201  24.513  14.854
65438W        W29646  24.665   2.910  11.535
65439W        W29647  41.361  41.039   0.263
65440W        W29648   5.276  25.024  13.513
65441W        W29649  28.648   8.806   2.705
65442W        W29650  26.627  37.905  14.015
65443W        W29651  18.675   0.327  13.892
65444W        W29652  39.924  29.013  11.498
65445W        W29653  32.490  28.120  14.901
65446W        W29654  21.671  22.694   4.827
65447W        W29655  33.907  27.589  11.030
65448W        W29656  36.870  37.853  12.435
65449W        W29657  22.548  34.538   4.236
65450W        W29658  25.003  43.911   4.187
65451W        W29659  27.611  42.387   0.803
65452W        W29660   1.837   1.408  11.977
65453W        W29661   8.842  34.398   1.922
65454W        W29662  23.677  42.439  13.804
65455W        W29663  20.251   3.803   0.903
65456W        W29664  28.951  22.184  11.493
65457W        W29665  40.340  34.458  10.023
65458W        W29666  23.052  42.417   3.849
65459W        W29667   5.855  31.088  11.487
65460W        W29668  26.563  16.806  10.896
65461W        W29669  13.838   3.932  11.530
65462W        W29670  19.212   2.792   1.234
65463W        W29671  42.417  44.331   4.201
65464W        W29672  21.143  40.492   1.354
65465W        W29673  10.344  42.010   4.306
65466W        W29674  39.314  20.629  10.594
65467W        W29675  24.130  38.040  13.909
65468W        W29676  11.158  10.854   3.367
65469W        W29677  24.036  25.101  14.992
65470W        W29678   9.351  16.283  10.510
65471W        W29679  44.498  40.441  12.528
65472W        W29680  32.583   7.333  12.569
65473W        W29681  10.304  40.460  10.975
65474W        W29682  27.674  24.097  14.876
65475W        W29683  10.762  33.380  13.055
65476W        W29684  31.055   3.405   5.129
65477W        W29685   2.947  23.190  13.327
65478W        W29686  14.272   4.357  10.616
65479W        W29687   2.856  27.598   4.139
65480W        W29688  40.929   3.876  12.958
65481W        W29689  10.796   0.844  11.573
65482W        W29690  15.101   6.686  13.964
65483W        W29691   0.347  29.515  12.978
65484W        W29692  39.820   7.292   1.762
65485W        W29693  36.939  27.088  12.056
65486W        W29694  39.461  35.574  10.482
65487W        W29695  23.676  14.303  13.486
65488W        W29696   0.810  28.550   1.380
65489W        W29697  43.964  21.669  10.424
65490W        W29698  28.036   4.704   1.759
65491W        W29699  40.976  41.957  12.829
65492W        W29700  30.656  44.857  11.922
65493W        W29701  27.003  25.495   0.315
65494W        W29702  30.081  19.226  12.058
65495W        W29703  36.074   4.877  12.494
65496W        W29704   7.793   6.796   3.209
65497W        W29705  31.460  38.899   4.124
65498W        W29706   2.909  29.011  14.977
65499W        W29707  18.191  16.154  11.124
65500W        W29708  42.282  38.071   3.317
65501W        W29709  39.046  34.005   2.833
65502W        W29710  23.147  10.283  11.894
65503W        W29711  36.995  15.808   1.802
65504W        W29712  32.521  42.785  13.409
65505W        W29713   7.795   6.184   5.242
65506W        W29714  16.729  17.615  14.390
65507W        W29715  27.054  39.015   4.649
65508W        W29716  13.829  25.515   4.689
65509W        W29717  39.818  19.698   5.176
65510W        W29718  24.504  15.202  14.420
65511W        W29719   6.890  44.343   2.382
65512W        W29720  24.560  22.629  12.426
65513W        W29721  25.981  26.051   4.194
65514W        W29722   3.376  14.192  14.776
65515W        W29723   5.368  21.080   4.745
65516W        W29724  25.565  29.166   0.856
65517W        W29725   3.221  25.053  14.405
65518W        W29726  20.058  38.066   2.387
65519W        W29727  17.231  39.461   1.733
65520W        W29728  42.843  35.536  11.508
65521W        W29729  25.672  17.724   3.269
65522W        W29730  32.412  39.829   0.744
65523W        W29731  15.234  24.194   3.635
65524W        W29732  28.521  17.178   2.898
65525W        W29733   9.383  11.328   2.752
65526W        W29734   7.674  36.046  12.015
65527W        W29735  17.612   5.715   1.930
65528W        W29736  31.463  31.946   3.302
65529W        W29737  39.533   0.769   3.785
65530W        W29738  21.132  31.093   2.828
65531W        W29739  11.204   0.880   0.871
65532W        W29740   5.309   9.340   1.834
65533W        W29741  19.539   5.730  11.924
65534W        W29742  25.021   7.827   1.216
65535W        W29743   2.865  22.520   4.125
65536W        W29744  42.938  40.346   3.666
65537W        W29745   9.241  41.917   3.166
65538W        W29746  22.208  19.164   3.753
65539W        W29747  17.573  12.651  12.415
65540W        W29748  42.452   5.363   4.624
65541W        W29749  28.181  18.567  11.986
65542W        W29750   7.336   8.273  11.488
65543W        W29751  43.810  33.998   4.337
65544W        W29752  23.163  31.452   3.793
65545W        W29753  32.575  41.940   4.699
65546W        W29754  15.700   4.345  14.797
65547W        W29755  33.910   5.357   2.366
65548W        W29756  14.139  34.887   4.718
65549W        W29757  41.383  27.132   3.726
65550W        W29758  38.822   7.716  10.979
65551W        W29759  19.668  33.049   4.248
65552W        W29760  35.534  16.295  12.892
65553W        W29761  36.063  31.407   4.797
65554W        W29762  11.695  36.933   0.874
65555W        W29763  15.678  28.053   1.244
65556W        W29764  11.700  14.162   0.446
65557W        W29765   4.722  26.193  11.940
65558W        W29766  12.779   6.708  12.533
65559W        W29767   1.313  12.244   0.451
65560W        W29768   8.309  25.122   1.823
65561W        W29769   2.396  29.445   3.358
65562W        W29770  10.360  27.685  11.061
65563W        W29771  34.378  12.757  14.506
65564W        W29772  21.678  19.106  14.488
65565W        W29773   5.251  29.574   1.444
65566W        W29774  18.630  27.506  11.090
65567W        W29775  39.881   7.352   2.405
65568W        W29776   4.867  42.474   1.324
65569W        W29777  19.234  41.924  13.800
65570W        W29778  23.240  40.906   2.739
65571W        W29779  26.983  22.692   3.854
65572W        W29780  11.716  29.626  13.340
65573W        W29781  34.557  20.711  11.064
65574W        W29782  15.821  11.640  12.465
65575W        W29783  27.590  44.874   4.224
65576W        W29784   8.764  32.396  12.556
65577W        W29785  31.062  11.867   0.422
65578W        W29786  26.616  36.958   3.372
65579W        W29787  28.461  40.943   0.462
65580W        W29788  19.103  28.565   1.363
65581W        W29789   8.213  29.638  11.414
65582W        W29790  11.832  24.587   0.387
65583W        W29791  11.146  33.918  14.307
65584W        W29792  42.017  37.521  13.983
65585W        W29793  39.908  18.618  14.447
65586W        W29794  38.857   8.814  11.477
65587W        W29795   4.713  21.120  12.385
65588W        W29796  17.602  31.903   2.334
65589W        W29797  35.490  40.036  12.459
65590W        W29798  22.231  13.778   1.241
65591W        W29799  13.845  22.531   0.315
65592W        W29800  34.456   3.951  14.351
65593W        W29801  19.140  10.773   0.890
65594W        W29802  33.124   7.822  14.015
65595W        W29803   6.713   0.336   3.306
65596W        W29804  33.620  36.358  14.349
65597W        W29805  35.995  24.098  13.506
65598W        W29806  37.375  26.003  11.913
65599W        W29807   7.667  17.691  14.955
65600W        W29808  11.790  22.101  10.579
65601W        W29809  38.327  17.298   5.176
65602W        W29810  32.970  33.091  13.395
65603W        W29811   6.781  30.431  12.892
65604W        W29812  18.281   1.898  13.417
65605W        W29813   9.850  38.406   0.346
65606W        W29814  39.371   2.344  14.857
65607W        W29815  28.476  43.873   1.861
65608W        W29816  14.290  29.438   3.689
65609W        W29817   5.264  15.717   4.768
65610W        W29818  16.093  32.521  12.571
65611W        W29819  34.121  11.268   4.696
65612W        W29820   7.875   3.762  13.039
65613W        W29821   4.369   4.882  10.478
65614W        W29822   2.339  24.703  11.954
65615W        W29823  34.979  27.974   4.195
65616W        W29824  40.907   4.756  11.112
65617W        W29825  25.653  39.479  13.474
65618W        W29826   2.356   9.668  10.460
65619W        W29827  40.953  14.334  14.445
65620W        W29828  44.335  10.206  10.947
65621W        W29829   0.820  39.465  11.497
65622W        W29830   4.286  40.921   1.381
65623W        W29831  40.875   7.746  12.953
65624W        W29832  33.904  19.762  12.339
65625W        W29833   9.729   1.335   4.741
65626W        W29834   4.254   7.795  13.387
65627W        W29835  14.826  29.105  13.846
65628W        W29836  10.254  37.404   5.192
65629W        W29837  42.382  43.012   2.332
65630W        W29838  20.670  16.806  10.431
65631W        W29839  10.209  30.603   4.653
65632W        W29840   7.250  27.568   0.466
65633W        W29841   5.912  11.715   3.806
65634W        W29842  14.277  14.651   4.803
65635W        W29843  31.088  42.970   2.803
65636W        W29844  28.538  34.536   1.382
65637W        W29845  19.759   1.373   2.857
65638W        W29846  35.907  17.075   0.731
65639W        W29847   1.764  43.284   3.311
65640W        W29848  32.602  14.619   3.261
65641W        W29849  15.170  40.478  13.387
65642W        W29850  32.528   9.831   0.845
65643W        W29851   3.764  32.977   0.251
65644W        W29852  39.446  39.541  12.033
65645W        W29853  35.517   9.394   3.866
65646W        W29854   8.860  27.515  13.853
65647W        W29855  27.009   9.859  13.495
65648W        W29856   6.855  10.218   3.333
65649W        W29857  22.704   7.218   4.646
65650W        W29858  27.561  29.930   3.698
65651W        W29859  30.913  16.768  14.939
65652W        W29860  13.846   0.470   2.251
65653W        W29861  27.506  34.576  14.976
65654W        W29862  30.612  20.650   4.224
65655W        W29863  28.467   8.871  10.488
65656W        W29864  13.607  25.147  14.763
65657W        W29865  42.934  42.955  14.981
65658W        W29866  38.492  38.521  14.297
65659W        W29867  16.650  12.204   4.607
65660W        W29868   3.270  23.214   3.377
65661W        W29869  21.570  25.016  14.513
65662W        W29870   9.663  25.062   3.330
65663W        W29871  24.027  29.121  14.360
65664W        W29872  16.115  13.697  12.012
65665W        W29873  12.175  38.070   2.825
65666W        W29874  23.581   3.903   0.738
65667W        W29875  36.533  22.576  11.591
65668W        W29876  10.258  43.477  14.946
65669W        W29877   1.949  35.059  13.812
65670W        W29878   3.457  28.574   0.856
65671W        W29879  15.675  39.008   4.249
65672W        W29880  14.276  20.227  12.552
65673W        W29881  18.169  34.048   3.673
65674W        W29882  12.254  39.539  13.848
65675W        W29883   3.797   2.430  14.766
65676W        W29884  20.665   2.230   0.862
65677W        W29885  40.925  27.554   4.613
65678W        W29886  19.620   3.280   3.865
65679W        W29887  24.146  20.581   1.843
65680W        W29888  18.188   8.699  14.933
65681W        W29889  26.551  12.778   1.705
65682W        W29890  41.024  12.197   2.697
65683W        W29891  43.827  42.924  10.072
65684W        W29892  23.605   0.788  11.857
65685W        W29893  29.541  40.517  14.463
65686W        W29894  42.394  42.014  10.591
65687W        W29895   0.813   8.218  12.824
65688W        W29896  28.980  38.349   2.364
65689W        W29897  18.279  32.075   3.646
65690W        W29898  15.736  37.556  12.541
65691W        W29899  35.532   6.736  12.878
65692W        W29900  27.615   9.744  11.436
65693W        W29901  30.101  27.575   3.788
65694W        W29902   8.813  21.733  14.783
65695W        W29903  10.365  32.462   1.367
65696W        W29904  13.167  42.921   2.405
65697W        W29905  23.168  27.175  12.577
65698W        W29906  27.985  29.649   1.804
65699W        W29907  30.147  12.343  14.810
65700W        W29908   4.700  19.666   1.434
65701W        W29909  21.636  20.573  14.497
65702W        W29910   9.768   4.718  12.955
65703W        W29911   4.818  30.629   4.630
65704W        W29912   4.449  28.526  12.463
65705W        W29913  23.118   7.793  11.388
65706W        W29914  24.530  31.596   3.682
65707W        W29915  35.104  29.436  14.770
65708W        W29916  10.684   5.391  10.546
65709W        W29917  34.066  43.471  12.909
65710W        W29918  39.433  32.490  14.439
65711W        W29919  14.331   7.220   2.685
65712W        W29920   0.747  28.073  13.486
65713W        W29921   0.258  12.824   1.309
65714W        W29922   3.245  38.860   0.765
65715W        W29923  44.976  20.755  10.443
65716W        W29924   1.415  42.823   4.793
65717W        W29925   7.696  13.653   4.246
65718W        W29926  23.560  23.984  13.481
65719W        W29927  31.589  36.590   2.410
65720W        W29928  41.942   0.942   3.665
65721W        W29929  11.229   1.808  14.411
65722W        W29930  42.027  18.731   3.167
65723W        W29931  29.438  26.580  10.918
65724W        W29932  36.530   3.807   3.204
65725W        W29933  10.862  28.121   1.879
65726W        W29934   1.284   9.224  13.536
65727W        W29935  22.719   0.371  11.926
65728W        W29936  32.943  17.713   0.309
65729W        W29937  26.534  32.400  11.988
65730W        W29938  43.403  30.590  11.110
65731W        W29939   4.262  25.468   1.402
65732W        W29940  11.307  17.781   2.273
65733W        W29941   1.238  17.191   1.399
65734W        W29942   0.482  11.295   3.798
65735W        W29943  29.023  40.915  13.951
65736W        W29944  37.941  23.693  10.540
65737W        W29945  24.077  37.578  13.509
65738W        W29946  37.348  35.987   4.793
65739W        W29947  22.150  24.680  10.447
65740W        W29948  19.252  34.909  13.017
65741W        W29949  15.628  28.100  11.022
65742W        W29950   4.380  28.034  13.365
65743W        W29951   0.875   0.821   9.538
65744W        W29952  20.153   4.792   5.802
65745W        W29953  15.682  33.075  13.812
65746W        W29954  40.917  33.086   0.347
65747W        W29955   7.333  28.130  12.946
65748W        W29956  38.530  20.089   4.215
65749W        W29957  40.036  27.585  11.994
65750W        W29958  39.318  17.686   1.382
65751W        W29959   4.782   6.687   3.842
65752W        W29960   1.249  26.511  13.802
65753W        W29961  15.823  21.107   2.771
65754W        W29962  11.685  32.606  11.084
65755W        W29963  28.966  36.539   4.702
65756W        W29964  29.929   8.780   2.198
65757W        W29965  25.196  12.268   1.215
65758W        W29966  38.350  17.790   4.327
65759W        W29967   4.388   8.789   0.389
65760W        W29968  15.235  27.485   4.599
65761W        W29969  36.480  16.245   1.344
65762W        W29970  35.917  17.121  14.836
65763W        W29971  11.346  25.686  10.493
65764W        W29972   5.690  43.441   1.277
65765W        W29973  18.248  25.075  11.453
65766W        W29974  42.861  14.094   2.284
65767W        W29975  16.783  32.029   1.910
65768W        W29976  26.054  27.088  14.319
65769W        W29977  28.029  31.126  14.836
65770W        W29978  19.207  38.032  13.985
65771W        W29979  29.021  19.144  11.576
65772W        W29980  27.563  30.641  14.873
65773W        W29981  18.716  15.163  13.335
65774W        W29982  24.209  41.377  14.304
65775W        W29983  26.508  36.910  14.479
65776W        W29984  24.116  27.105  13.910
65777W        W29985   6.765  23.209   0.875
65778W        W29986  30.520  13.714   2.857
65779W        W29987  32.020  39.003   3.161
65780W        W29988  37.931  16.245  11.406
65781W        W29989  22.175  37.008  10.901
65782W        W29990   5.847  32.621   4.664
65783W        W29991  38.385  23.676   1.284
65784W        W29992  43.808  42.845  11.081
65785W        W29993  26.474  20.264  13.837
65786W        W29994   0.953   1.826   0.945
65787W        W29995   6.912  25.207   2.179
65788W        W29996  42.875  40.547  12.071
65789W        W29997   3.746  16.799   3.704
65790W        W29998   9.840  33.495   3.800
65791W        W29999  15.733   3.329   3.154
65792W        W30000  14.765  30.923  11.611
65793W        W30001   9.782  10.722  10.499
65794W        W30002   6.732  25.173  10.641
65795W        W30003  37.434  31.449   3.224
65796W        W30004  39.947  14.802  12.953
65797W        W30005   1.370  20.547   0.909
65798W        W30006  34.477  12.242  13.512
65799W        W30007  31.639  17.271  13.332
65800W        W30008  32.468  39.483  12.069
65801W        W30009  22.517  31.149  11.389
65802W        W30010  23.062   4.400   3.351
65803W        W30011  43.941  25.193  12.957
65804W        W30012  16.156  11.196  13.395
65805W        W30013   2.758  22.710  10.493
65806W        W30014   2.868   9.182  10.944
65807W        W30015   2.911  39.837   1.722
65808W        W30016  43.006  30.141   0.946
65809W        W30017  35.569  41.315   3.360
65810W        W30018   4.269  13.194  12.507
65811W        W30019   1.463  28.112   4.728
65812W        W30020   9.367  42.430  11.527
65813W        W30021  19.606   0.388  11.384
65814W        W30022  36.847  14.813   3.821
65815W        W30023   9.267  24.479   4.749
65816W        W30024   3.290  24.668   3.650
65817W        W30025  23.175  32.516  11.083
65818W        W30026   2.922  44.986  13.470
65819W        W30027  15.302   1.385  12.041
65820W        W30028   9.294  31.117  14.422
65821W        W30029   5.863   5.840   3.717
65822W        W30030  15.294   3.826  11.887
65823W        W30031  33.009  38.965  12.509
65824W        W30032  29.632  16.180   3.258
65825W        W30033  24.071  38.849  13.016
65826W        W30034  17.791  14.229  13.014
65827W        W30035  42.028   0.978  13.432
65828W        W30036  18.571  13.604   0.885
65829W        W30037  37.410   5.269   2.664
65830W        W30038  25.675   0.893  14.986
65831W        W30039  10.327  25.533   2.199
65832W        W30040   8.250  38.020   2.404
65833W        W30041  26.097  18.182  13.827
65834W        W30042   2.255   7.763   4.145
65835W        W30043  29.968  27.619   2.883
65836W        W30044  17.733  19.619  14.816
65837W        W30045  28.929  27.015  11.587
65838W        W30046  22.029  26.951  12.466
65839W        W30047  39.876  13.139  13.528
65840W        W30048  27.574  14.710   5.280
65841W        W30049  25.649  39.935   2.274
65842W        W30050   3.396   9.244   1.847
65843W        W30051   5.692  15.240  14.867
65844W        W30052  41.501  40.436   4.604
65845W        W30053   6.823  20.158  13.944
65846W        W30054  35.427  12.265   1.239
65847W        W30055  20.127  33.991   0.383
65848W        W30056  44.911   9.708  12.096
65849W        W30057   3.257  17.165   5.288
65850W        W30058  22.044   2.228  12.995
65851W        W30059  24.693   6.747   1.700
65852W        W30060  39.954  36.866  14.953
65853W        W30061  22.219  10.253  14.311
65854W        W30062  41.925  34.099   4.298
65855W        W30063  25.116  38.973   0.794
65856W        W30064  19.192   0.464   0.912
65857W        W30065  43.339  29.150  12.441
65858W        W30066  11.639  15.083   3.248
65859W        W30067  17.186  26.046  11.524
65860W        W30068  30.614  38.931  10.456
65861W        W30069  37.373  31.574  14.331
65862W        W30070  44.268  27.580   0.918
65863W        W30071  21.707  24.220  12.070
65864W        W30072  10.679   9.382  12.402
65865W        W30073  44.276  42.863  14.419
65866W        W30074  39.381  14.758  11.126
65867W        W30075   3.843  32.943   1.388
65868W        W30076  43.866  12.337  11.904
65869W        W30077  21.531  29.073  13.313
65870W        W30078  33.918  35.015  11.055
65871W        W30079  13.131  19.563  13.964
65872W        W30080  22.660  41.485   1.443
65873W        W30081  37.544  28.937   0.462
65874W        W30082  43.502   4.211   3.803
65875W        W30083   9.784  43.430  11.119
65876W        W30084  24.140  19.181  14.496
65877W        W30085  29.064   5.416   0.771
65878W        W30086  11.817   6.426   1.316
65879W        W30087  44.342  37.419   3.251
65880W        W30088  34.869  44.478   1.915
65881W        W30089   5.878  11.363   1.290
65882W        W30090  10.701   3.289   2.754
65883W        W30091  24.090  33.509  13.968
65884W        W30092  33.041  28.479  10.910
65885W        W30093   1.446  16.727   2.200
65886W        W30094  19.621   9.751  12.484
65887W        W30095  13.719  23.988  12.998
65888W        W30096   6.301   8.306   3.197
65889W        W30097  33.602  22.091  12.025
65890W        W30098  40.054  22.137  12.970
65891W        W30099   6.740  27.947   3.644
65892W        W30100  33.470   1.341   4.753
65893W        W30101  11.769  36.908  11.064
65894W        W30102   0.425  17.753  14.283
65895W        W30103  35.052  28.528   4.303
65896W        W30104  36.503  39.013   3.709
65897W        W30105  26.511  23.043  13.488
65898W        W30106  18.118  40.815  14.360
65899W        W30107  25.555   3.815  13.472
65900W        W30108  10.337   0.483  13.332
65901W        W30109  39.896   8.855   1.439
65902W        W30110  35.979   8.221   4.612
65903W        W30111  43.291  12.649   0.910
65904W        W30112  12.165  24.217  11.876
65905W        W30113  36.875  12.288   2.205
65906W        W30114  14.202  44.830  11.860
65907W        W30115  32.413  11.836   0.334
65908W        W30116  34.521  32.601   0.337
65909W        W30117  29.519  36.050   2.719
65910W        W30118  18.172  29.481  13.333
65911W        W30119   0.838  14.783   2.354
65912W        W30120   2.403  16.239  13.518
65913W        W30121  26.054   9.199  13.031
65914W        W30122  13.111  12.789  12.392
65915W        W30123   4.827  37.416  14.508
65916W        W30124  27.680  18.558   2.759
65917W        W30125  35.042   9.327  11.094
65918W        W30126  37.486  42.842   2.277
65919W        W30127  15.615  37.874   3.851
65920W        W30128  28.495  39.344  13.002
65921W        W30129  22.603  27.536  11.939
65922W        W30130  24.539  10.680  12.405
65923W        W30131   7.668  17.779   3.256
65924W        W30132  14.674  30.995   0.865
65925W        W30133   0.868   1.389   0.342
65926W        W30134  30.445  41.043   3.843
65927W        W30135   3.313  11.147  11.396
65928W        W30136   8.268  25.708  13.342
65929W        W30137  18.071   4.898   0.260
65930W        W30138  42.421  21.077   4.201
65931W        W30139  31.917   6.288   2.298
65932W        W30140  27.510  43.348  13.414
65933W        W30141  27.103  42.991   4.654
65934W        W30142  31.574  28.930   2.318
65935W        W30143  30.930  38.350  10.888
65936W        W30144   1.893  18.730   0.280
65937W        W30145   5.757   6.806   0.822
65938W        W30146  31.082  15.628  14.289
65939W        W30147  11.806   9.356  11.581
65940W        W30148  38.856  19.192   3.385
65941W        W30149   2.822  22.732   1.711
65942W        W30150  17.678  38.452   4.768
65943W        W30151  16.158  37.443  14.936
65944W        W30152  10.689  36.848  13.017
65945W        W30153  16.811  14.801  14.385
65946W        W30154  43.347   5.371   1.810
65947W        W30155  43.462  39.845  11.446
65948W        W30156   2.794  38.856   3.166
65949W        W30157  27.068  15.789   1.924
65950W        W30158   0.940  36.969   0.391
65951W        W30159   0.278  34.101  10.507
65952W        W30160  44.843  31.005   4.129
65953W        W30161  38.507  41.469  12.057
65954W        W30162  17.108  12.672   2.408
65955W        W30163  39.344  19.254  14.349
65956W        W30164  17.690  40.053   3.801
65957W        W30165   4.885  42.793   4.695
65958W        W30166  12.232  17.244  11.485
65959W        W30167  27.002  27.118  13.800
65960W        W30168  35.957  25.028   1.402
65961W        W30169  24.661  44.975  12.534
65962W        W30170  23.602  12.344  12.899
65963W        W30171  31.439  15.808  10.890
65964W        W30172  17.133  10.750  10.439
65965W        W30173  29.110  16.161   0.410
65966W        W30174  13.261  20.241   0.355
65967W        W30175   6.224  23.151   1.316
65968W        W30176  42.800  43.825  11.921
65969W        W30177  29.550   9.310   1.897
65970W        W30178  38.417  41.538   0.920
65971W        W30179  42.936  33.498   2.803
65972W        W30180  20.245  30.124  11.114
65973W        W30181   6.720  19.249   1.221
65974W        W30182  18.676  28.081  13.363
65975W        W30183  15.166  44.494   3.653
65976W        W30184  14.707  27.971  13.975
65977W        W30185  27.495   7.705   4.835
65978W        W30186  23.034  25.543   2.220
65979W        W30187   4.291  39.945  14.916
65980W        W30188   4.334  27.647  14.963
65981W        W30189  33.448  24.696  12.537
65982W        W30190  39.950   5.381   4.689
65983W        W30191  19.594   3.430   2.663
65984W        W30192  30.609  13.322  10.516
65985W        W30193  17.090  21.148  10.139
65986W        W30194  19.099   2.386  12.514
65987W        W30195  43.399   0.403  14.305
65988W        W30196  12.694  29.966   4.775
65989W        W30197  21.529  33.401  11.532
65990W        W30198  33.924  41.297  11.110
65991W        W30199  11.755  35.358   0.819
65992W        W30200  43.471   8.817  10.978
65993W        W30201  44.431  25.962   4.277
65994W        W30202   7.814  10.851  10.449
65995W        W30203  15.626   7.270  11.080
65996W        W30204  12.794  41.309  11.948
65997W        W30205   4.409   6.230  10.556
65998W        W30206  40.937  40.988  12.088
65999W        W30207   8.250  42.477  14.852
66000W        W30208  21.730  22.175  10.540
66001W        W30209  31.490  13.118  11.519
66002W        W30210  44.883   7.804   0.284
66003W        W30211  22.588   5.889  14.772
66004W        W30212  21.062  22.602  13.852
66005W        W30213  31.053  36.513   4.116
66006W        W30214  40.484  14.314  10.107
66007W        W30215   7.708  36.514   3.764
66008W        W30216  40.942  12.838  14.419
66009W        W30217  43.322  44.323   0.400
66010W        W30218  37.458  18.262   0.371
66011W        W30219   6.387  24.055  13.799
66012W        W30220  43.771  27.576  14.844
66013W        W30221   7.224  37.401  11.897
66014W        W30222  17.115  40.340   1.294
66015W        W30223  21.687   5.221  12.495
66016W        W30224  36.960   9.353  12.861
66017W        W30225  44.489   5.868  10.924
66018W        W30226  22.576  31.416   0.950
66019W        W30227  32.517  14.180  10.129
66020W        W30228   1.481  34.479   3.690
66021W        W30229  20.174  15.696  11.447
66022W        W30230  23.522  32.457   1.273
66023W        W30231   0.934   3.437   0.471
66024W        W30232   0.766  19.771  13.421
66025W        W30233  30.445  37.561   3.227
66026W        W30234   3.449   7.886  11.526
66027W        W30235  35.080  41.383  11.432
66028W        W30236  23.112  18.575  10.998
66029W        W30237   1.969  19.666  11.438
66030W        W30238  28.630   2.873  14.781
66031W        W30239  43.282   4.841  11.505
66032W        W30240   8.806   3.790  12.394
66033W        W30241  21.103   5.208  12.903
66034W        W30242  27.451  41.472  11.388
66035W        W30243  38.363  44.439   4.630
66036W        W30244  27.091  34.413   0.731
66037W        W30245  26.666   2.886   3.656
66038W        W30246  44.275   4.781  12.367
66039W        W30247  40.305  33.604  11.859
66040W        W30248   2.284  10.281  14.970
66041W        W30249  16.316   7.277   4.355
66042W        W30250  26.198  16.668   3.271
66043W        W30251  29.557  43.767  11.495
66044W        W30252  41.510  15.160  13.499
66045W        W30253   4.284  37.552  13.880
66046W        W30254  27.180  15.710  10.479
66047W        W30255  39.555  40.935  14.946
66048W        W30256  18.223  41.406  10.583
66049W        W30257  41.991   6.388   3.774
66050W        W30258  21.598  43.907   3.387
66051W        W30259  24.991  24.486  11.477
66052W        W30260  17.114   9.333  14.929
66053W        W30261  24.138  37.430   3.377
66054W        W30262  38.047   0.256   4.164
66055W        W30263   1.736   4.827  11.975
66056W        W30264  16.233  43.950  13.813
66057W        W30265  44.458  14.129   4.215
66058W        W30266  44.825  43.482   2.732
66059W        W30267  16.572  44.410  11.597
66060W        W30268  15.110  44.283   1.903
66061W        W30269   7.856   0.259  11.442
66062W        W30270  11.170  22.579   4.246
66063W        W30271  29.049   0.838   0.246
66064W        W30272  28.090  13.792  13.331
66065W        W30273  28.998  34.999   0.310
66066W        W30274  12.288  24.132   3.268
66067W        W30275  29.006  35.895  13.017
66068W        W30276  35.363  14.648  12.868
66069W        W30277  32.449  31.433  14.806
66070W        W30278  25.661  26.138   0.863
66071W        W30279  11.773  16.235  11.415
66072W        W30280  37.563   3.459  13.838
66073W        W30281  35.997  39.349   0.905
66074W        W30282  37.945  27.691   0.807
66075W        W30283  28.958  22.543  10.536
66076W        W30284  13.680   3.856  11.050
66077W        W30285   4.918   3.287  12.546
66078W        W30286  40.391  14.215  11.410
66079W        W30287   0.907  44.501   2.245
66080W        W30288   7.323  43.284  13.050
66081W        W30289  43.384  22.154  12.412
66082W        W30290  38.329  43.467  13.049
66083W        W30291  29.963  18.110  11.118
66084W        W30292  35.876   5.889   2.324
66085W        W30293  10.365  36.934   1.769
66086W        W30294  38.524  18.655  10.520
66087W        W30295   1.779  15.149  10.433
66088W        W30296  33.124  29.477   1.427
66089W        W30297  31.979   1.260   2.202
66090W        W30298   2.361  31.941   5.114
66091W        W30299  35.427  43.899  14.461
66092W        W30300   7.799  27.647  12.502
66093W        W30301   7.196  40.515   2.182
66094W        W30302  30.647  26.099  12.978
66095W        W30303  32.996  27.016  12.494
66096W        W30304  10.803  35.476  13.399
66097W        W30305  20.190   7.855   5.190
66098W        W30306   3.397  37.840   2.708
66099W        W30307   4.297   2.408   3.844
66100W        W30308   9.885  40.483   2.712
66101W        W30309  18.276  20.152  10.977
66102W        W30310  36.385  30.039   2.803
66103W        W30311  44.274  31.934   0.444
66104W        W30312   7.229  44.927  13.802
66105W        W30313  26.134   2.293  13.827
66106W        W30314   9.248   1.387   3.222
66107W        W30315   3.908  43.333  11.430
66108W        W30316  18.711  41.935  13.059
66109W        W30317  38.830  30.106  13.372
66110W        W30318  37.976  41.890   0.411
66111W        W30319  22.181  20.171  13.902
66112W        W30320  38.377   9.390   1.335
66113W        W30321  37.472  35.506  14.764
66114W        W30322  36.042  28.034  10.617
66115W        W30323   2.747   4.881   3.258
66116W        W30324  29.435  16.783   0.755
66117W        W30325  18.704  28.076  11.391
66118W        W30326  29.019  19.138   4.653
66119W        W30327   8.241  38.851   0.375
66120W        W30328   1.282  24.214  13.829
66121W        W30329  28.630  11.702  14.319
66122W        W30330  20.672   2.822   4.731
66123W        W30331   5.258   2.322   3.847
66124W        W30332  28.988  21.729   2.872
66125W        W30333  44.829  29.036  13.816
66126W        W30334  12.143  43.790   4.222
66127W        W30335  12.195  15.620  12.346
66128W        W30336  26.082  36.979   4.155
66129W        W30337  13.279  13.809  13.470
66130W        W30338  34.527  27.665   3.755
66131W        W30339  31.135  41.890  10.542
66132W        W30340   9.861  15.243   4.242
66133W        W30341  16.590  33.106   4.169
66134W        W30342  38.978  27.002  11.372
66135W        W30343  16.581  36.083   3.716
66136W        W30344  18.694   5.860  14.953
66137W        W30345   5.921   0.322  11.948
66138W        W30346   0.749   4.439   4.183
66139W        W30347  16.239  17.641   0.806
66140W        W30348  43.920  20.175   1.856
66141W        W30349  16.210  20.163  11.059
66142W        W30350  34.982  36.965  12.023
66143W        W30351  41.852  25.653   3.285
66144W        W30352  17.598  14.784  11.597
66145W        W30353  26.984  32.922  12.030
66146W        W30354  17.576  22.716   1.351
66147W        W30355   4.415  38.930  13.545
66148W        W30356  43.939   5.354   2.402
66149W        W30357  42.861  44.433  11.946
66150W        W30358  16.637  25.004   0.449
66151W        W30359  19.071  33.421  13.935
66152W        W30360  36.906  34.370  11.110
66153W        W30361   4.788  38.373   2.841
66154W        W30362  15.230  41.980   0.399
66155W        W30363  18.600  43.388  10.569
66156W        W30364  33.050  18.186  10.601
66157W        W30365  39.509   7.739   0.376
66158W        W30366  26.204  19.271  12.868
66159W        W30367   1.805  36.540   3.778
66160W        W30368   0.743  27.603   5.219
66161W        W30369   6.679  35.567  11.865
66162W        W30370  36.356   5.888   0.291
66163W        W30371  32.554  15.786  13.454
66164W        W30372  29.629   6.810   1.262
66165W        W30373  32.577   5.900   3.825
66166W        W30374  20.121  41.499   2.307
66167W        W30375  30.561  16.726   1.880
66168W        W30376  24.625  38.999  11.112
66169W        W30377  15.657  16.209   3.670
66170W        W30378  11.698   7.359  12.996
66171W        W30379  27.029  26.130  12.424
66172W        W30380  14.605   4.869  12.479
66173W        W30381  14.781  33.449   5.308
66174W        W30382  26.067  28.026   3.275
66175W        W30383   1.742   6.190   1.811
66176W        W30384  22.560  11.849   3.648
66177W        W30385   9.781  17.121  12.472
66178W        W30386   9.363  27.620   2.741
66179W        W30387  31.494  11.180  10.571
66180W        W30388  13.327  23.225  12.356
66181W        W30389  24.615  28.664  13.952
66182W        W30390  14.804  20.535  11.064
66183W        W30391  15.727  29.001  14.004
66184W        W30392   9.196  34.527   3.209
66185W        W30393  21.583   6.202   3.197
66186W        W30394  21.590  20.225   5.727
66187W        W30395   9.327   2.392  10.433
66188W        W30396  33.491  15.713   4.226
66189W        W30397  21.580  32.991   4.260
66190W        W30398  15.706  10.329  12.910
66191W        W30399  35.360  26.690  12.909
66192W        W30400  33.509  24.479   2.722
66193W        W30401   1.433  41.947  14.493
66194W        W30402  31.593  16.730  11.012
66195W        W30403  42.445  23.113   0.372
66196W        W30404  30.457  21.092   4.316
66197W        W30405  43.942  18.658  11.960
66198W        W30406  17.207  28.531  10.948
66199W        W30407  17.759  26.205   0.947
66200W        W30408  30.070  24.535  12.565
66201W        W30409   9.774   7.196   3.196
66202W        W30410  19.653  24.682   4.817
66203W        W30411   0.375   7.412   4.122
66204W        W30412   0.762   1.368   4.252
66205W        W30413  44.477  13.787  10.437
66206W        W30414   1.472  38.931  13.995
66207W        W30415   5.725   8.680  11.873
66208W        W30416  18.211   7.410   4.295
66209W        W30417  41.415  15.099   3.363
66210W        W30418  27.052  24.508   1.350
66211W        W30419   3.267   5.822  14.329
66212W        W30420  21.596  27.983   2.768
66213W        W30421   3.875   8.849  11.508
66214W        W30422  38.340  18.099  12.891
66215W        W30423  37.570   4.826  11.557
66216W        W30424  22.216  43.287   1.857
66217W        W30425  40.355  30.104  12.069
66218W        W30426   3.303   5.781   4.205
66219W        W30427   0.340  32.551   2.302
66220W        W30428  19.593   9.709   4.332
66221W        W30429  25.556  11.768  14.371
66222W        W30430  37.458   0.914  14.508
66223W        W30431  31.994  11.160   2.858
66224W        W30432  39.411   7.182   4.164
66225W        W30433  24.056  43.297  10.436
66226W        W30434  20.241  18.175   2.236
66227W        W30435  13.617  29.454  14.955
66228W        W30436  42.476  22.703   3.860
66229W        W30437  36.502  44.941  14.393
66230W        W30438   8.263  14.222  13.403
66231W        W30439  24.987  27.655   3.810
66232W        W30440  25.629  30.508  14.331
66233W        W30441  26.139  18.570   0.372
66234W        W30442  29.515  16.692   0.470
66235W        W30443  20.076  37.994  11.434
66236W        W30444   8.367   7.700   3.240
66237W        W30445  44.409  42.327  10.508
66238W        W30446  43.863  34.984  10.475
66239W        W30447  24.051   2.736  14.826
66240W        W30448  44.402  25.506  10.456
66241W        W30449  24.173  22.151  10.525
66242W        W30450  38.033  31.624  10.410
66243W        W30451  12.666  33.618  13.320
66244W        W30452  39.908  35.945   0.833
66245W        W30453  43.884  22.595   2.323
66246W        W30454   5.933  29.114  14.803
66247W        W30455  10.353   0.967   0.891
66248W        W30456  29.937  26.571  14.779
66249W        W30457  38.511  26.011   4.155
66250W        W30458   8.693  33.091  14.510
66251W        W30459  35.585  13.609   0.399
66252W        W30460  27.961  17.225  11.376
66253W        W30461  26.630  14.151  10.116
66254W        W30462  25.032  26.985   3.346
66255W        W30463  30.581  39.554   1.700
66256W        W30464   2.380  40.895   1.441
66257W        W30465  31.044   6.271   2.286
66258W        W30466   7.784  39.931   3.230
66259W        W30467  34.517  16.175   3.223
66260W        W30468  30.578   2.375  11.479
66261W        W30469  40.912  23.077  12.538
66262W        W30470  35.888  35.911  14.867
66263W        W30471  36.426  10.730  12.882
66264W        W30472  13.656  13.250   1.849
66265W        W30473   1.971  34.499   2.774
66266W        W30474  23.604  42.359   4.729
66267W        W30475  39.516  15.178  12.070
66268W        W30476  23.107  13.178  10.921
66269W        W30477   8.699  31.627  13.366
66270W        W30478  30.437  15.168  11.375
66271W        W30479   6.300   1.970  14.873
66272W        W30480  41.527  38.945  12.049
66273W        W30481  23.493  29.571   3.853
66274W        W30482  32.005  40.503   1.842
66275W        W30483  14.296  33.508   2.857
66276W        W30484   6.379  27.531   2.813
66277W        W30485  16.566  43.920   0.837
66278W        W30486  18.264  33.035  12.988
66279W        W30487  12.800  41.427   0.900
66280W        W30488  44.500  21.714   0.739
66281W        W30489  43.868  37.855   1.836
66282W        W30490   7.176  26.125   0.357
66283W        W30491  33.416  41.422  14.432
66284W        W30492  14.639  22.134   0.312
66285W        W30493   4.736  11.778  14.277
66286W        W30494  22.723   6.252   5.279
66287W        W30495  24.533  30.446  11.525
66288W        W30496   8.282  43.990  12.401
66289W        W30497   3.222  38.514   2.744
66290W        W30498   8.200  36.945   3.729
66291W        W30499  11.815   2.385   4.172
66292W        W30500   3.388  16.266   2.358
66293W        W30501  14.751  31.413   1.318
66294W        W30502  19.693  22.017  12.999
66295W        W30503  28.589  12.718  13.920
66296W        W30504  10.165  18.186   2.683
66297W        W30505   3.810  37.431  13.863
66298W        W30506  31.000  16.217  13.407
66299W        W30507  27.675  17.784   3.336
66300W        W30508  22.555  40.510  13.978
66301W        W30509  14.257  30.573  13.473
66302W        W30510  17.644  15.657   1.763
66303W        W30511   5.861  44.852  10.407
66304W        W30512  28.168  20.625   1.433
66305W        W30513  26.010  10.770   4.712
66306W        W30514  18.776  28.535  11.867
66307W        W30515  36.502  36.925  11.064
66308W        W30516  42.326  17.154  14.019
66309W        W30517  27.063   8.812   0.318
66310W        W30518  23.552  42.358  12.910
66311W        W30519  13.635  18.724   1.341
66312W        W30520  27.108  11.170  14.911
66313W        W30521  11.341  23.546  13.817
66314W        W30522  18.770   7.757  10.026
66315W        W30523   0.391  30.060   3.684
66316W        W30524  28.037  15.694  12.961
66317W        W30525  16.283  30.914   3.171
66318W        W30526   6.835  43.879  10.921
66319W        W30527  18.668   7.321  11.945
66320W        W30528  22.636  27.470   4.258
66321W        W30529  37.943   6.235  10.434
66322W        W30530  36.013  42.454  12.021
66323W        W30531  16.302  20.637   1.303
66324W        W30532  34.377  19.536   4.686
66325W        W30533  40.923   2.779   4.164
66326W        W30534   9.872  21.740   1.899
66327W        W30535  41.852  15.326   4.203
66328W        W30536  44.987  36.073  12.389
66329W        W30537  14.141  10.774   3.226
66330W        W30538  29.464  18.104   4.313
66331W        W30539  44.885  38.885   3.375
66332W        W30540  12.325  35.058  13.934
66333W        W30541   6.792  33.942   1.364
66334W        W30542  28.024   6.284  11.510
66335W        W30543  25.154   6.417   1.301
66336W        W30544  12.760  36.422   4.836
66337W        W30545  10.681  24.061   4.302
66338W        W30546  35.046   0.365   4.821
66339W        W30547  34.485  39.007  14.835
66340W        W30548  22.744  12.753  12.455
66341W        W30549  19.745   8.727   4.137
66342W        W30550  24.017  12.805  11.861
66343W        W30551  41.963   3.933  10.146
66344W        W30552  34.925  32.408   2.876
66345W        W30553  24.152  24.624  12.466
66346W        W30554  34.866  28.590  11.017
66347W        W30555  15.620   5.802  13.330
66348W        W30556  33.485  40.470   3.374
66349W        W30557  24.154  36.564   1.218
66350W        W30558   6.284  21.720  11.454
66351W        W30559  33.975  41.424  14.870
66352W        W30560   1.378  38.387   4.214
66353W        W30561  11.329   6.201  12.460
66354W        W30562  44.008  38.526   3.368
66355W        W30563  20.182  23.036  12.427
66356W        W30564  39.975  41.322   1.252
66357W        W30565  36.478  25.046  11.923
66358W        W30566  18.747  26.161  10.957
66359W        W30567  26.090  13.805   1.444
66360W        W30568  22.710   5.315   2.196
66361W        W30569   9.861  25.156  11.554
66362W        W30570  29.078  36.851  14.901
66363W        W30571   6.895   0.283   0.482
66364W        W30572  36.905  26.565  13.857
66365W        W30573  41.421  16.203   4.753
66366W        W30574  13.800  29.585   4.231
66367W        W30575   7.186  28.550  13.420
66368W        W30576   8.791  32.412   4.244
66369W        W30577   7.739  44.412  12.017
66370W        W30578  26.145  36.545  11.549
66371W        W30579  37.052  19.225  10.914
66372W        W30580  44.432  16.599   1.821
66373W        W30581   6.262  36.396  11.052
66374W        W30582  28.088  15.244   0.899
66375W        W30583  40.390  23.167   0.454
66376W        W30584  10.367  23.045   3.745
66377W        W30585  30.946  32.435  12.050
66378W        W30586   9.314   5.421   0.370
66379W        W30587  16.666  41.503  14.419
66380W        W30588  39.859   8.241  14.937
66381W        W30589  33.907   5.783   2.716
66382W        W30590  12.230   3.437  10.564
66383W        W30591  14.176  29.942  13.952
66384W        W30592   0.833  36.397  11.403
66385W        W30593   1.453   0.400  14.476
66386W        W30594  24.636  28.477  10.463
66387W        W30595  19.104  11.816  10.479
66388W        W30596  43.894  32.013   1.761
66389W        W30597  40.904   2.893   0.930
66390W        W30598  26.952   5.379  14.443
66391W        W30599  35.931  33.912  13.990
66392W        W30600  44.822  10.820   2.310
66393W        W30601  11.256  29.444   1.739
66394W        W30602   1.771  17.699  14.448
66395W        W30603  41.840   4.365   1.706
66396W        W30604  19.650  37.411   5.777
66397W        W30605   2.844  23.585   1.399
66398W        W30606  32.546   0.795   0.904
66399W        W30607  33.049  37.410   0.336
66400W        W30608  25.131  41.952  14.390
66401W        W30609  11.640  34.418   1.927
66402W        W30610  27.606   2.783   3.170
66403W        W30611  36.893  31.580   3.288
66404W        W30612   5.343  12.663  13.040
66405W        W30613   5.744  17.177  10.424
66406W        W30614   9.342  17.783  10.942
66407W        W30615  19.134  15.626   3.217
66408W        W30616  42.950  24.586   4.279
66409W        W30617  21.166  19.613  14.275
66410W        W30618  42.816  17.775   3.334
66411W        W30619   8.394   6.772  13.982
66412W        W30620  34.476  31.604  10.605
66413W        W30621  22.570  21.033   3.301
66414W        W30622  38.011  32.574   4.692
66415W        W30623  27.618  43.988  12.914
66416W        W30624   1.913   6.799  12.834
66417W        W30625  17.708   3.944  12.554
66418W        W30626  34.420  14.123   3.232
66419W        W30627  40.020  39.042  13.343
66420W        W30628   9.363  39.055  11.881
66421W        W30629  24.611  18.764   3.632
66422W        W30630  30.434  26.150   4.292
66423W        W30631  44.306  16.586  13.350
66424W        W30632   1.374   7.357   4.332
66425W        W30633  24.638  20.646  13.382
66426W        W30634   3.330  14.175  13.971
66427W        W30635  14.617  30.537  14.489
66428W        W30636  41.027  27.522  11.504
66429W        W30637   4.753  15.794   4.828
66430W        W30638  44.859  35.858  14.460
66431W        W30639  38.067  23.733  10.969
66432W        W30640  44.959  19.246  13.955
66433W        W30641  36.068  34.091   3.163
66434W        W30642  13.275  38.903  14.375
66435W        W30643  15.195  34.902   3.231
66436W        W30644   8.740  26.092  12.881
66437W        W30645  26.668  21.531   0.813
66438W        W30646  14.237  23.514   1.735
66439W        W30647  15.142  16.109   1.447
66440W        W30648  16.806  26.473  10.952
66441W        W30649  21.071  10.336  14.295
66442W        W30650   6.888  10.238  14.387
66443W        W30651  40.967  11.133   2.679
66444W        W30652  30.095  13.778  11.019
66445W        W30653  25.522  27.034   1.832
66446W        W30654  35.367   7.911  14.474
66447W        W30655   1.329   3.854  13.805
66448W        W30656  39.508  36.915  13.833
66449W        W30657   6.853   4.208   1.735
66450W        W30658   0.777  14.337  11.497
66451W        W30659  37.912  11.736  12.833
66452W        W30660  34.523  28.665   0.464
66453W        W30661  15.186  24.177  14.865
66454W        W30662  21.666  37.355   2.363
66455W        W30663  38.864   9.643  13.348
66456W        W30664  32.091  16.107   2.776
66457W        W30665  33.058  43.788   0.824
66458W        W30666   9.328  18.596  11.591
66459W        W30667  23.695   6.288   2.766
66460W        W30668  13.266  33.044   3.719
66461W        W30669  22.672   7.319   2.668
66462W        W30670  18.638  30.587  13.061
66463W        W30671  35.918  14.724   4.159
66464W        W30672  32.475  17.100  10.602
66465W        W30673  17.769   6.285  12.044
66466W        W30674   2.844  15.148   0.771
66467W        W30675  15.170  43.318   0.797
66468W        W30676  14.608  28.673   1.416
66469W        W30677  16.800  12.723  12.433
66470W        W30678  36.841  42.282   1.262
66471W        W30679   1.329  42.456   4.716
66472W        W30680  40.315  35.412   2.270
66473W        W30681  28.124  14.304   3.834
66474W        W30682   2.861  31.590  14.460
66475W        W30683   1.326  11.679   4.191
66476W        W30684  40.326  23.985   1.694
66477W        W30685   9.387  19.733   3.684
66478W        W30686   8.792  34.112  13.869
66479W        W30687   3.855  31.982  14.362
66480W        W30688  34.480   3.790  13.532
66481W        W30689  27.153   9.772   0.467
66482W        W30690  19.272  34.469  12.933
66483W        W30691  36.993   4.873   9.967
66484W        W30692  12.759  23.672  10.938
66485W        W30693  11.334  44.487   4.782
66486W        W30694  13.777  19.192  14.970
66487W        W30695  41.787  18.153  14.848
66488W        W30696  34.955  39.897  12.833
66489W        W30697  42.907  26.701   1.266
66490W        W30698  36.489  32.129  10.906
66491W        W30699  10.654  15.205   1.853
66492W        W30700  44.978  30.052   0.808
66493W        W30701  25.522  35.596   2.880
66494W        W30702  34.064  22.725  14.429
66495W        W30703  43.459  41.025  11.537
66496W        W30704  21.549  24.530  13.003
66497W        W30705  28.030  33.878  12.354
66498W        W30706  17.218  19.598   9.956
66499W        W30707  39.387   7.701   0.787
66500W        W30708  20.189  27.648   3.202
66501W        W30709  25.472  26.169   1.307
66502W        W30710  27.471  22.505  12.859
66503W        W30711   1.796  39.853   0.270
66504W        W30712  34.411   0.925   2.210
66505W        W30713   7.814   9.313  12.016
66506W        W30714  36.952  44.871  10.616
66507W        W30715  13.644  15.149   1.351
66508W        W30716  18.052   7.824   3.732
66509W        W30717   5.282   7.720  13.814
66510W        W30718  32.452   7.391  11.509
66511W        W30719  41.919  24.544  10.997
66512W        W30720  39.419  35.871   2.371
66513W        W30721  44.486  22.045  13.420
66514W        W30722  14.775  38.055  13.866
66515W        W30723  37.527  30.099  12.961
66516W        W30724  38.485  11.624   4.699
66517W        W30725   5.338  21.601   4.687
66518W        W30726   2.226  41.798   1.315
66519W        W30727  37.574  14.628  13.499
66520W        W30728  24.125  12.315   4.159
66521W        W30729  36.934  13.695   1.740
66522W        W30730   7.294  39.910  12.014
66523W        W30731  10.271  34.601  13.317
66524W        W30732  35.923   5.308   2.243
66525W        W30733  23.559   9.643  13.394
66526W        W30734  36.845  18.285   1.699
66527W        W30735   9.207   2.346   3.703
66528W        W30736   9.724  36.526   3.704
66529W        W30737  43.020  29.039   0.946
66530W        W30738  38.835  16.108  10.956
66531W        W30739   8.271  27.481   3.713
66532W        W30740  21.061  10.744   4.677
66533W        W30741  34.900   3.916   2.695
66534W        W30742  32.085  17.302  12.388
66535W        W30743  43.386  31.591  13.540
66536W        W30744  27.947  35.432  11.068
66537W        W30745  32.553  24.103  13.346
66538W        W30746   3.725  24.120   0.350
66539W        W30747   3.323   2.948  14.803
66540W        W30748  34.076   9.373  10.460
66541W        W30749  22.164  26.030   4.646
66542W        W30750  30.472  43.451  13.844
66543W        W30751  43.808  10.356   0.320
66544W        W30752  17.114  39.479  10.449
66545W        W30753   7.667  12.766  13.521
66546W        W30754  44.488   3.710   1.794
66547W        W30755  32.528   0.265   0.876
66548W        W30756  34.535  10.274  14.944
66549W        W30757  20.663  19.205   3.164
66550W        W30758  42.813  44.929  10.572
66551W        W30759  27.126  26.529   1.783
66552W        W30760  11.637   1.475   4.694
66553W        W30761  24.189  12.644   9.970
66554W        W30762  20.659  42.500   2.864
66555W        W30763  13.789  37.580  10.044
66556W        W30764   0.918  29.067   3.297
66557W        W30765  33.116  26.181  13.049
66558W        W30766   0.867  44.315   3.325
66559W        W30767  31.434   2.292  13.851
66560W        W30768  21.689  25.637  13.350
66561W        W30769  21.524   7.824  10.923
66562W        W30770  31.033  22.629  14.338
66563W        W30771  16.135  32.569   4.833
66564W        W30772  23.505  22.683  12.477
66565W        W30773   6.794  23.129  11.504
66566W        W30774  42.878  19.119  14.797
66567W        W30775  28.061   9.255   3.648
66568W        W30776  27.585  11.133   3.348
66569W        W30777  25.671  20.270   2.665
66570W        W30778   3.943   2.841   1.315
66571W        W30779  40.902  37.480  14.385
66572W        W30780  42.863  28.149   3.366
66573W        W30781   9.760  18.267   1.850
66574W        W30782   3.850  34.457  10.572
66575W        W30783  40.521   5.238  11.893
66576W        W30784  22.596  34.117  12.900
66577W        W30785  30.931  23.997  12.485
66578W        W30786  27.467  37.906  13.957
66579W        W30787  44.943   4.898   2.295
66580W        W30788  44.966  26.057   3.830
66581W        W30789   2.891  31.964  10.963
66582W        W30790   1.440  25.629   3.356
66583W        W30791  31.932  44.843  10.963
66584W        W30792  16.659  33.042   3.348
66585W        W30793  23.652  37.360  10.020
66586W        W30794  22.581   1.765   3.656
66587W        W30795  37.485  16.706  11.128
66588W        W30796  20.578  11.715  12.951
66589W        W30797  12.678  13.782  14.362
66590W        W30798  34.434   5.773  10.556
66591W        W30799  35.003   8.702  10.101
66592W        W30800  41.357   6.771  10.606
66593W        W30801  38.958  41.504   4.737
66594W        W30802  38.841  25.076  12.901
66595W        W30803  36.986   3.840  12.857
66596W        W30804  37.987  39.052  14.388
66597W        W30805  31.530  20.526  14.969
66598W        W30806  17.212  31.412  10.925
66599W        W30807  14.616  32.398   1.249
66600W        W30808  32.992  42.514   0.835
66601W        W30809   7.205  28.107  10.611
66602W        W30810  43.018  17.106  13.044
66603W        W30811  37.028  20.747   0.739
66604W        W30812  37.902  34.060   3.704
66605W        W30813  16.163  23.223  12.548
66606W        W30814  11.661  20.556  10.512
66607W        W30815  17.255  43.930  13.028
66608W        W30816  17.764  23.597  12.355
66609W        W30817  39.009  36.923  14.878
66610W        W30818  22.657  22.250   1.212
66611W        W30819  32.024  12.254   4.252
66612W        W30820  40.041  42.026   1.417
66613W        W30821  22.210  18.718  13.340
66614W        W30822  35.947  29.496  11.445
66615W        W30823  43.277  18.702   9.489
66616W        W30824  37.904  27.616  10.512
66617W        W30825  39.968  31.044   0.286
66618W        W30826  38.348  22.547   2.178
66619W        W30827  19.155  27.963   3.704
66620W        W30828  24.599   5.775   3.735
66621W        W30829   1.895  16.631  14.423
66622W        W30830  36.951  22.104  11.399
66623W        W30831   2.383  15.659   3.731
66624W        W30832  28.517  24.531   4.208
66625W        W30833   3.229  28.627   3.228
66626W        W30834  39.436  32.914   3.709
66627W        W30835  15.786  20.237  11.124
66628W        W30836   0.475  36.866   2.894
66629W        W30837  21.054  43.351  14.319
66630W        W30838  13.111  18.280  11.396
66631W        W30839   3.317  19.551  11.608
66632W        W30840  31.617  13.816  13.909
66633W        W30841  26.197  15.119   2.184
66634W        W30842  10.829  35.565   2.323
66635W        W30843  43.778  31.481   4.256
66636W        W30844  18.602  28.120  12.824
66637W        W30845   7.373   7.719  10.490
66638W        W30846  42.803  10.274   1.400
66639W        W30847  24.596  10.826   1.841
66640W        W30848  41.499  43.479   3.651
66641W        W30849  33.124  38.340  11.611
66642W        W30850  29.115  36.354  12.421
66643W        W30851  32.628  22.514  11.100
66644W        W30852  35.573  35.965  12.514
66645W        W30853  37.928  17.101  14.846
66646W        W30854  27.117  36.413   2.716
66647W        W30855  40.053  27.464   3.827
66648W        W30856  31.034  37.567   2.826
66649W        W30857  31.923   1.926  11.546
66650W        W30858  34.878  30.072   2.297
66651W        W30859  12.341  17.716  14.988
66652W        W30860  12.193  23.701   2.893
66653W        W30861   1.312   8.699   3.735
66654W        W30862  37.352  26.162  10.938
66655W        W30863  20.638  30.531  11.385
66656W        W30864  40.463  21.697  11.975
66657W        W30865   3.739   8.887   0.347
66658W        W30866  27.157   1.863   1.293
66659W        W30867  16.222  18.639  12.080
66660W        W30868  33.079  13.212  10.420
66661W        W30869   0.281  37.068  11.460
66662W        W30870  23.685  33.890   0.388
66663W        W30871  26.981   5.368  12.954
66664W        W30872  38.059  44.797  13.911
66665W        W30873  30.998  22.997  10.553
66666W        W30874  18.168  29.118   0.856
66667W        W30875  24.503  29.615  11.528
66668W        W30876   6.826  30.102   0.805
66669W        W30877  14.251   7.416  11.909
66670W        W30878  42.979  13.684   2.197
66671W        W30879  27.967  35.947   1.378
66672W        W30880  24.154  12.838  12.489
66673W        W30881  11.307   8.273  12.899
66674W        W30882  17.726  29.932   3.765
66675W        W30883  38.989  23.030  11.859
66676W        W30884  35.090  40.938   4.672
66677W        W30885   8.672  27.120   4.656
66678W        W30886  40.918   9.739   0.784
66679W        W30887   9.665  31.641   1.313
66680W        W30888  29.168  15.740   2.753
66681W        W30889   3.408  13.248   0.407
66682W        W30890  40.836  10.756  12.555
66683W        W30891  12.184   9.721   1.417
66684W        W30892  35.447  31.957   3.782
66685W        W30893  29.518   1.883  10.025
66686W        W30894  16.186  42.386   0.477
66687W        W30895  19.069  13.726   3.840
66688W        W30896  26.531  23.015  14.820
66689W        W30897  38.924  44.772  12.064
66690W        W30898   9.353  40.028  11.501
66691W        W30899  30.139  21.558  12.419
66692W        W30900   9.764  12.162   0.916
66693W        W30901  20.063  39.507   2.413
66694W        W30902  11.627  42.897   4.807
66695W        W30903  21.665  34.007   4.352
66696W        W30904  32.613  21.261  11.962
66697W        W30905  41.966   4.719  11.513
66698W        W30906   1.795  25.994   0.272
66699W        W30907  17.121  42.902   1.360
66700W        W30908   8.883  14.691   3.387
66701W        W30909  40.370  18.602  12.547
66702W        W30910  26.601  44.266   0.783
66703W        W30911  19.564  13.144  10.613
66704W        W30912  11.339  10.748  13.534
66705W        W30913   3.306  11.789   4.796
66706W        W30914  11.327  43.951  11.530
66707W        W30915  36.494  12.123   2.816
66708W        W30916   5.723  22.231  10.406
66709W        W30917  39.829  24.724   2.847
66710W        W30918   0.298  17.784   2.867
66711W        W30919   5.765   1.391  13.311
66712W        W30920  33.454   6.387  13.000
66713W        W30921   9.199   8.249   3.666
66714W        W30922  22.071  32.967  11.372
66715W        W30923  35.924  38.417  12.832
66716W        W30924   5.203   9.310   4.687
66717W        W30925  16.605  41.447  12.977
66718W        W30926  23.208  28.655  13.515
66719W        W30927  13.327  30.934  13.937
66720W        W30928  33.987  40.806   0.254
66721W        W30929   5.327  13.793   2.846
66722W        W30930  30.145  25.080  10.428
66723W        W30931  37.954  40.542   4.163
66724W        W30932  21.558   4.333  14.341
66725W        W30933   8.174  42.522   1.327
66726W        W30934  20.573  38.843  13.815
66727W        W30935  22.688   6.321  14.991
66728W        W30936  24.507   6.379  12.352
66729W        W30937  20.156  37.874  11.046
66730W        W30938  28.574   5.296   0.367
66731W        W30939   3.818  36.369   3.238
66732W        W30940  19.698  32.512  11.060
66733W        W30941  10.730  40.422  13.947
66734W        W30942  38.386  41.024  14.406
66735W        W30943  21.614   2.369  12.910
66736W        W30944  36.561  13.654   4.324
66737W        W30945  13.331  37.576  10.588
66738W        W30946  40.343  22.607   3.750
66739W        W30947   0.388   0.391  11.855
66740W        W30948   0.397  28.011   2.212
66741W        W30949   3.433  20.267  11.397
66742W        W30950   3.840  30.089   4.274
66743W        W30951  40.936  29.080  13.006
66744W        W30952  26.112  31.988   1.885
66745W        W30953  23.695  23.655  12.523
66746W        W30954  40.798  33.524   3.353
66747W        W30955   3.860  25.620  10.552
66748W        W30956  14.626  31.459  13.929
66749W        W30957  44.478  26.157   0.909
66750W        W30958  13.741  31.908  10.504
66751W        W30959  26.086   7.291   0.269
66752W        W30960  20.745  31.544  12.037
66753W        W30961  33.935  17.205  10.092
66754W        W30962   1.753  21.135  12.861
66755W        W30963  31.480  14.655   3.377
66756W        W30964  18.103  29.984   4.272
66757W        W30965  42.325  31.442   2.718
66758W        W30966  26.629  34.406   4.664
66759W        W30967  30.580  17.679  10.405
66760W        W30968  41.446   5.767   0.787
66761W        W30969  24.024  41.907   1.910
66762W        W30970   3.404  30.043  14.456
66763W        W30971  39.446   4.269   0.882
66764W        W30972  38.440  24.120  10.639
66765W        W30973   3.388  38.344  12.958
66766W        W30974  36.012  32.620   0.893
66767W        W30975  28.937  41.852   1.778
66768W        W30976   1.452  32.398   4.297
66769W        W30977   7.186  23.662  14.391
66770W        W30978  19.661   4.434   3.181
66771W        W30979  15.204  33.025   4.768
66772W        W30980  24.638  24.106   1.751
66773W        W30981  19.185   9.331   0.848
66774W        W30982  18.183  11.667  14.418
66775W        W30983  26.080  40.544  11.012
66776W        W30984  28.106   8.306   2.289
66777W        W30985  25.210  33.034  10.968
66778W        W30986  10.196  22.163   1.831
66779W        W30987  18.657  13.705   2.672
66780W        W30988  32.561  28.676   0.277
66781W        W30989  20.166  38.000   3.231
66782W        W30990   5.848  31.647  13.029
66783W        W30991  38.503  33.098  12.069
66784W        W30992  33.068  15.182   1.340
66785W        W30993   3.441   9.312   0.339
66786W        W30994  36.908   2.966   0.340
66787W        W30995  22.619  30.483   2.276
66788W        W30996   9.655   6.299   1.743
66789W        W30997   3.430   5.215  10.462
66790W        W30998  31.622  35.482  12.526
66791W        W30999   0.798  38.930  14.786
66792W        W31000  30.056  34.049  12.424
66793W        W31001  10.688  15.718   3.783
66794W        W31002   9.324  37.460   0.912
66795W        W31003  20.762   7.202  13.014
66796W        W31004  17.734  19.201   2.359
66797W        W31005   1.270  18.559  12.446
66798W        W31006  41.996  14.175  14.336
66799W        W31007  30.148   3.227  10.956
66800W        W31008  43.462  25.683   3.685
66801W        W31009  11.844  28.098   0.452
66802W        W31010  19.097  15.128   4.150
66803W        W31011   9.379  32.904  10.962
66804W        W31012   9.733  30.152  13.933
66805W        W31013   1.751  18.788   1.701
66806W        W31014  12.184   2.247  11.101
66807W        W31015  21.678  40.990  13.447
66808W        W31016  14.664   2.784  13.315
66809W        W31017   2.808  24.497  13.315
66810W        W31018  30.578  35.511   2.672
66811W        W31019  27.563   2.312  13.864
66812W        W31020  29.490   6.769  14.955
66813W        W31021  37.408  22.509  14.963
66814W        W31022  40.985  17.282  12.400
66815W        W31023  18.135  44.968   2.203
66816W        W31024  42.356   3.869   0.870
66817W        W31025  44.262  23.024   0.379
66818W        W31026  34.440   1.809  12.976
66819W        W31027  25.468   1.769   3.384
66820W        W31028  43.803  35.919   0.924
66821W        W31029  34.888  20.086   4.252
66822W        W31030   0.823  31.038  11.971
66823W        W31031   7.249  21.516   0.843
66824W        W31032  28.592  25.591   2.232
66825W        W31033  36.558  39.390   4.162
66826W        W31034   9.666  23.115  12.416
66827W        W31035   1.749  26.476  10.147
66828W        W31036  26.120   5.892   0.808
66829W        W31037  40.386   3.309  10.161
66830W        W31038  32.937   3.850  11.431
66831W        W31039   5.217  41.468   1.409
66832W        W31040  39.391  10.746   1.753
66833W        W31041   3.334  34.986   3.707
66834W        W31042  42.406  36.066  13.007
66835W        W31043   6.325  16.771   0.272
66836W        W31044  40.944   4.301   2.811
66837W        W31045   2.333   4.847   0.481
66838W        W31046  27.571  30.558  11.592
66839W        W31047  44.782  31.951  12.521
66840W        W31048  32.980  30.924  12.406
66841W        W31049  13.629  35.955   1.911
66842W        W31050  25.062  17.667   0.435
66843W        W31051  20.552  43.996   3.182
66844W        W31052  14.716   8.673   1.243
66845W        W31053  35.360   4.819  14.940
66846W        W31054  41.936  28.606   4.700
66847W        W31055  39.012   6.299  11.112
66848W        W31056   2.310  27.971  12.096
66849W        W31057  33.474  22.205   4.158
66850W        W31058  36.362  16.180  12.473
66851W        W31059  22.175   5.307  11.001
66852W        W31060  20.045  35.972  14.987
66853W        W31061  16.158   4.823  13.339
66854W        W31062   0.878  31.511   1.278
66855W        W31063  23.137  12.666  12.565
66856W        W31064  29.144  39.324  14.960
66857W        W31065  32.037  13.661   4.749
66858W        W31066   8.308  44.894   1.768
66859W        W31067  35.418  13.236  12.883
66860W        W31068   9.334   1.342  12.898
66861W        W31069  18.636  41.333  10.017
66862W        W31070  26.608  34.942  13.975
66863W        W31071  25.493  26.682   3.685
66864W        W31072  15.593  19.232   1.902
66865W        W31073  24.053  16.575  10.452
66866W        W31074  40.393  42.848   3.315
66867W        W31075  29.623  21.233  12.069
66868W        W31076  40.945  43.802   1.868
66869W        W31077  12.315  41.376  12.064
66870W        W31078  12.815  25.508   0.254
66871W        W31079   1.466  32.947   2.842
66872W        W31080   0.299  11.653   4.723
66873W        W31081  26.508  25.615   1.825
66874W        W31082  24.994  44.386   4.333
66875W        W31083  17.726  12.253   3.694
66876W        W31084   6.908   5.778  13.862
66877W        W31085  39.539  41.332   3.192
66878W        W31086  17.295  30.115   3.182
66879W        W31087  10.205  32.013  11.428
66880W        W31088   6.911  17.100  14.800
66881W        W31089  29.452  13.655   4.703
66882W        W31090  23.993  38.369   0.294
66883W        W31091  25.209  34.400   1.217
66884W        W31092  20.259  42.503   4.180
66885W        W31093  30.570  32.036  10.409
66886W        W31094  26.596  40.880  14.976
66887W        W31095  34.896  18.721  14.330
66888W        W31096  33.491   7.415  13.949
66889W        W31097  13.715   0.982   4.605
66890W        W31098  34.044  35.591  11.506
66891W        W31099  27.450  22.590  14.950
66892W        W31100  19.212  30.114  11.895
66893W        W31101  28.002  32.563   3.766
66894W        W31102  32.403  32.886  11.373
66895W        W31103   9.845  29.519  14.319
66896W        W31104  43.334  37.842  11.038
66897W        W31105  13.301  12.258  12.028
66898W        W31106  22.733  19.582   0.287
66899W        W31107  16.691  22.559   4.751
66900W        W31108  31.598  17.722   5.278
66901W        W31109  39.463  41.984  13.855
66902W        W31110  15.321  26.697  11.407
66903W        W31111  31.069  27.196  10.488
66904W        W31112  38.028  41.343   3.167
66905W        W31113  28.498  24.213   3.678
66906W        W31114  36.580  24.533  12.352
66907W        W31115   3.951  41.020   3.313
66908W        W31116   2.884  38.407  10.974
66909W        W31117  29.604  23.554   0.328
66910W        W31118  13.601  13.626   2.817
66911W        W31119  18.643  29.478   1.285
66912W        W31120  29.053  38.446  14.999
66913W        W31121   2.367  43.474   2.248
66914W        W31122   8.356  22.180   4.278
66915W        W31123   0.397   5.280  10.037
66916W        W31124  18.780  22.638   3.643
66917W        W31125  22.641  42.936  13.934
66918W        W31126   6.335  16.676  14.895
66919W        W31127  37.446  38.492   4.817
66920W        W31128  16.643  35.532  10.106
66921W        W31129  44.459  39.432  13.403
66922W        W31130  11.132  42.917   3.341
66923W        W31131   8.364  13.704   4.699
66924W        W31132  31.600  23.646  14.507
66925W        W31133  42.996  15.809  10.929
66926W        W31134  12.822  40.978  13.337
66927W        W31135   8.873   3.365  12.907
66928W        W31136  39.993   7.387   0.906
66929W        W31137   4.446  33.961  10.459
66930W        W31138  38.963   6.790   2.258
66931W        W31139  29.541  14.638  12.059
66932W        W31140   6.848  11.334  13.412
66933W        W31141  13.722  20.194  10.557
66934W        W31142  17.082   2.961  14.348
66935W        W31143  24.563  17.260  11.122
66936W        W31144  17.758   4.929   2.867
66937W        W31145  16.706  40.937   0.264
66938W        W31146  10.363   9.677  13.521
66939W        W31147  29.482   1.926   1.407
66940W        W31148   1.305   8.770   4.734
66941W        W31149  42.872   8.683  14.783
66942W        W31150  14.632  15.782  13.964
66943W        W31151  10.692  30.952  10.539
66944W        W31152   0.301  36.848   3.196
66945W        W31153  40.529  31.075  14.993
66946W        W31154  10.308  23.153   3.261
66947W        W31155  39.920   7.843   0.379
66948W        W31156  20.124   7.849   5.798
66949W        W31157  30.500  32.035   1.762
66950W        W31158   6.724   5.846   1.310
66951W        W31159   0.494  33.569  14.862
66952W        W31160  24.559   1.305  10.992
66953W        W31161  13.268   6.758   1.915
66954W        W31162  14.708  22.660  13.054
66955W        W31163  13.288  44.915   3.728
66956W        W31164  32.005  16.307   4.143
66957W        W31165  32.419  38.939   2.389
66958W        W31166  14.215  36.972   3.742
66959W        W31167  14.682  27.128  13.010
66960W        W31168  36.393  42.880  14.937
66961W        W31169  32.918   2.766   0.453
66962W        W31170  33.549  32.412  11.494
66963W        W31171  16.640  28.108   3.689
66964W        W31172  17.185  43.321  10.423
66965W        W31173  42.776  35.883  14.291
66966W        W31174  21.257  40.025   3.743
66967W        W31175  13.741  44.832  11.124
66968W        W31176  17.692   5.717   0.967
66969W        W31177  12.716  18.088  12.484
66970W        W31178  25.566  34.481  11.858
66971W        W31179  34.886  26.045   2.398
66972W        W31180  35.428  26.968  12.474
66973W        W31181  11.710  18.100  12.950
66974W        W31182   7.352   4.300   2.269
66975W        W31183  29.433  34.112  10.492
66976W        W31184  35.573  24.629   1.711
66977W        W31185   1.874  25.094  12.001
66978W        W31186  15.623  39.992   0.380
66979W        W31187  34.463  28.609   3.159
66980W        W31188  28.077   9.673   1.360
66981W        W31189  42.315  32.897   4.161
66982W        W31190  24.209  32.974   0.261
66983W        W31191   3.752   8.738  13.326
66984W        W31192  35.103  19.140   3.305
66985W        W31193  21.622  35.927   3.777
66986W        W31194  10.259  29.613  10.990
66987W        W31195  32.975   1.352  11.063
66988W        W31196  10.766  12.721  11.987
66989W        W31197  22.690  34.954  14.398
66990W        W31198  26.156   7.186   2.412
66991W        W31199   2.367  42.430  12.366
66992W        W31200  24.531   2.822   3.349
66993W        W31201   2.900  25.130   3.791
66994W        W31202   7.235   2.773  12.487
66995W        W31203  17.581  20.138   0.738
66996W        W31204  27.196  11.679  13.902
66997W        W31205   4.354  29.978   3.237
66998W        W31206  38.986  42.903   1.270
66999W        W31207  39.813  38.907  12.927
67000W        W31208  18.210  24.211  11.439
67001W        W31209   9.749   5.248   4.695
67002W        W31210  11.687  44.437  14.414
67003W        W31211  41.394  24.216   2.196
67004W        W31212  21.514  36.988  14.375
67005W        W31213   5.875  23.644  11.432
67006W        W31214  19.065  16.790   2.665
67007W        W31215   7.705  21.709  12.945
67008W        W31216   8.859  21.545   4.282
67009W        W31217  19.115  13.654   2.738
67010W        W31218  17.222  14.810  11.551
67011W        W31219  43.915  41.496  12.961
67012W        W31220  39.318  39.460   1.312
67013W        W31221  26.951  32.479   4.707
67014W        W31222  36.878  11.346  13.927
67015W        W31223  28.540  24.710   3.264
67016W        W31224  21.041  28.014   1.222
67017W        W31225  38.500  18.713   4.721
67018W        W31226   9.768  30.605  13.393
67019W        W31227  16.299   0.354   3.715
67020W        W31228  41.502  24.976  11.951
67021W        W31229  17.786  31.429  13.452
67022W        W31230  30.132  19.605   3.653
67023W        W31231  17.134  44.352   4.654
67024W        W31232  29.110  37.863   2.335
67025W        W31233   1.825   6.307  12.523
67026W        W31234  42.981  26.137   2.183
67027W        W31235   2.333   8.386  13.869
67028W        W31236  25.985   6.764   2.380
67029W        W31237  20.072  39.338  11.506
67030W        W31238  35.038  19.612  11.127
67031W        W31239  16.616  20.758   1.239
67032W        W31240  35.595  19.623  11.056
67033W        W31241   2.371   4.308   4.197
67034W        W31242   0.863   5.731   3.239
67035W        W31243  19.043  34.540   3.275
67036W        W31244   8.402  26.995   1.821
67037W        W31245  34.879  17.273  14.967
67038W        W31246  34.866  22.525   3.630
67039W        W31247  41.888  24.722  12.426
67040W        W31248   0.779  39.045   9.968
67041W        W31249   5.869  16.267  10.450
67042W        W31250  36.386   7.828  13.508
67043W        W31251   6.857  25.983   3.744
67044W        W31252  22.156  14.316   3.195
67045W        W31253   4.882  30.945   2.895
67046W        W31254   3.948   8.855   1.225
67047W        W31255  16.756  38.525   0.289
67048W        W31256  35.088  19.077  10.921
67049W        W31257  35.534  10.756   1.229
67050W        W31258  10.658  32.063   2.881
67051W        W31259  40.836   5.193   9.516
67052W        W31260  31.992  13.775   2.327
67053W        W31261  38.072  44.301  11.995
67054W        W31262  32.941  41.993   1.251
67055W        W31263   0.792  31.049   1.819
67056W        W31264   0.429  36.530   1.817
67057W        W31265  11.777  14.193  14.985
67058W        W31266   2.816  25.687   3.300
67059W        W31267  36.021  42.388  12.536
67060W        W31268  25.094   1.342   3.703
67061W        W31269  38.848  20.147   1.917
67062W        W31270   5.920  21.572  13.911
67063W        W31271  39.853   2.770  14.836
67064W        W31272   2.932  12.153   2.189
67065W        W31273  13.779  37.500   1.369
67066W        W31274   6.234   4.928   4.348
67067W        W31275   5.863  14.788  13.529
67068W        W31276  15.122  40.382   0.370
67069W        W31277  44.829  40.889   1.347
67070W        W31278  37.017  44.758  13.950
67071W        W31279  22.092  34.495  10.625
67072W        W31280   2.462   9.756  13.499
67073W        W31281  29.594   0.381   2.809
67074W        W31282  17.133  26.095  14.304
67075W        W31283  16.644  26.591  14.771
67076W        W31284  37.520  38.521   2.224
67077W        W31285   0.306  19.613  11.110
67078W        W31286  18.177  13.827   1.363
67079W        W31287  24.155   0.750   3.197
67080W        W31288  17.100  43.278   0.897
67081W        W31289  13.152  34.543  14.423
67082W        W31290  40.904  32.132   1.302
67083W        W31291  13.618  23.028   4.173
67084W        W31292  19.178  20.668   4.611
67085W        W31293  12.710  39.347  13.865
67086W        W31294  39.415  41.308  12.522
67087W        W31295  12.635  14.619  12.089
67088W        W31296  33.623   6.851  13.797
67089W        W31297  34.957  40.320   2.759
67090W        W31298  31.900  16.803   2.855
67091W        W31299  17.685   8.865  14.997
67092W        W31300  16.701  23.720   0.873
67093W        W31301  43.790  37.073   1.757
67094W        W31302  17.723  25.603   2.701
67095W        W31303  43.809  34.961  10.996
67096W        W31304  28.487   3.320   4.261
67097W        W31305  12.258   5.314   0.268
67098W        W31306  30.141  24.610   0.442
67099W        W31307  16.689  13.802  11.066
67100W        W31308  44.484  12.219   1.222
67101W        W31309   6.760   9.153   1.799
67102W        W31310  28.099  42.316  12.486
67103W        W31311   5.872  10.150  12.435
67104W        W31312  31.418  42.422  14.914
67105W        W31313  29.078  25.968  13.807
67106W        W31314   5.259   2.735   0.405
67107W        W31315  38.856  34.015   9.920
67108W        W31316  32.608  18.567   1.869
67109W        W31317  25.055  31.470   1.335
67110W        W31318  38.338  34.612  11.495
67111W        W31319   2.810   4.298  12.026
67112W        W31320  36.930  32.525  13.364
67113W        W31321  14.105  40.414   1.845
67114W        W31322  32.063  22.727   1.774
67115W        W31323  43.939  16.637   0.748
67116W        W31324  10.367  38.946   4.808
67117W        W31325  27.022  20.237   3.362
67118W        W31326  18.582   2.314  11.530
67119W        W31327  37.975  30.598   0.955
67120W        W31328   2.909   1.362   4.268
67121W        W31329  27.059   0.884   0.963
67122W        W31330   0.302   2.265   0.774
67123W        W31331  30.030  20.546   2.885
67124W        W31332   9.868  21.755   3.692
67125W        W31333  21.595  29.973   4.802
67126W        W31334   8.864  35.946   3.320
67127W        W31335   5.770  10.866  10.491
67128W        W31336  13.708  32.558  11.600
67129W        W31337  40.360  24.514   4.230
67130W        W31338   0.891  26.585   2.261
67131W        W31339  44.757   1.289   9.583
67132W        W31340  20.743  10.210  13.825
67133W        W31341  41.838  38.354   0.269
67134W        W31342  39.001  21.099  13.006
67135W        W31343  12.821  34.533  14.851
67136W        W31344  19.172   8.396   3.328
67137W        W31345   2.948  17.088   4.641
67138W        W31346  28.120  42.958   1.432
67139W        W31347  35.935   7.197   0.906
67140W        W31348  25.603  29.040   0.306
67141W        W31349   6.415  15.709   1.422
67142W        W31350  38.339   1.266   1.422
67143W        W31351  14.155  25.619  14.274
67144W        W31352  28.089  34.028  11.428
67145W        W31353  35.466  39.383   2.681
67146W        W31354  11.650  32.475  13.389
67147W        W31355   3.718  25.023  11.569
67148W        W31356  38.949  15.230  12.458
67149W        W31357  18.122  16.593   5.601
67150W        W31358  19.746   0.319  13.895
67151W        W31359  15.213  36.564   1.224
67152W        W31360  18.277   4.214  14.510
67153W        W31361  37.570  40.359   0.418
67154W        W31362  43.368  40.449  10.148
67155W        W31363  25.479  10.779  13.474
67156W        W31364  31.539  35.418  14.476
67157W        W31365  11.322  23.233   4.265
67158W        W31366   5.437  41.865   2.837
67159W        W31367  20.143  32.051   1.755
67160W        W31368  43.958  44.823  11.991
67161W        W31369  35.971  10.322  14.424
67162W        W31370  25.596  13.790   3.210
67163W        W31371   7.277  31.041  11.922
67164W        W31372  26.124  32.586   2.390
67165W        W31373  25.082  17.253  14.898
67166W        W31374  31.997  16.699   0.933
67167W        W31375  38.905  25.660   1.914
67168W        W31376  30.961   4.424   0.467
67169W        W31377  23.124   3.872  14.911
67170W        W31378   5.240  10.682  12.513
67171W        W31379  22.550  18.590   2.225
67172W        W31380  39.347  26.088   0.455
67173W        W31381  24.678  40.387   0.416
67174W        W31382  12.637  32.072  11.532
67175W        W31383  32.925  41.921  11.934
67176W        W31384  18.680  39.065  12.861
67177W        W31385   4.296  13.251   1.761
67178W        W31386  20.687  42.782  13.384
67179W        W31387  26.471   4.794   5.195
67180W        W31388  19.190   8.782  11.611
67181W        W31389  44.495  29.101   5.202
67182W        W31390  11.311  12.271  10.029
67183W        W31391  16.224  11.842  14.909
67184W        W31392   9.759  14.334  10.984
67185W        W31393  14.738  29.583  13.939
67186W        W31394   8.342  11.716  13.798
67187W        W31395  28.044  34.568  11.533
67188W        W31396  32.566   9.776  13.839
67189W        W31397  42.857   8.383  10.492
67190W        W31398  11.640   2.926   1.407
67191W        W31399  35.373  27.184   1.265
67192W        W31400  36.035  12.185  14.307
67193W        W31401  42.777  40.938   1.372
67194W        W31402   3.445   5.241  14.801
67195W        W31403   1.393  38.542  13.812
67196W        W31404  33.067  17.244  14.944
67197W        W31405  40.983  40.901   1.756
67198W        W31406  34.591  37.464  13.488
67199W        W31407  29.060   3.923   3.193
67200W        W31408  24.587  19.594  13.539
67201W        W31409  39.966  31.116   4.625
67202W        W31410  25.587   3.451   4.641
67203W        W31411  23.095  39.889   1.696
67204W        W31412  21.569  30.567   4.609
67205W        W31413  23.996  26.134   2.851
67206W        W31414  29.654   4.449   0.472
67207W        W31415   2.951  27.687   2.239
67208W        W31416  37.026  35.924   1.810
67209W        W31417  24.677  23.102  12.432
67210W        W31418  24.108  34.992   4.335
67211W        W31419   9.683  39.001  12.862
67212W        W31420  26.123  18.177  14.820
67213W        W31421   5.225  27.944  13.386
67214W        W31422  42.796   4.285   4.120
67215W        W31423  30.634  34.881   0.945
67216W        W31424   9.785  11.250   2.273
67217W        W31425  10.679   9.870  13.893
67218W        W31426  28.645   2.319   2.751
67219W        W31427  26.573  19.548  10.536
67220W        W31428  28.626  15.815  13.984
67221W        W31429  16.144  22.068  10.553
67222W        W31430   4.221   3.418  13.043
67223W        W31431  28.048  35.874   3.177
67224W        W31432  28.027  21.147   1.914
67225W        W31433   3.246   7.766   2.406
67226W        W31434  28.627   3.435   0.932
67227W        W31435  31.008  35.986   3.383
67228W        W31436   6.864  12.250   3.840
67229W        W31437   2.316  14.312  13.943
67230W        W31438  39.366  20.043   1.431
67231W        W31439  33.047  10.357   3.172
67232W        W31440  34.378   7.340  11.580
67233W        W31441   6.264  38.955   2.714
67234W        W31442  14.255  25.989  10.564
67235W        W31443  18.166  20.551  13.413
67236W        W31444  11.309  14.647   0.382
67237W        W31445  21.089  37.025   4.790
67238W        W31446  39.357  36.025   1.921
67239W        W31447  23.605  23.092   2.872
67240W        W31448  31.114   2.344   1.857
67241W        W31449   6.361   4.906   3.174
67242W        W31450  20.674  27.564  12.905
67243W        W31451  21.133  23.042   4.717
67244W        W31452  44.883  31.597   4.279
67245W        W31453  43.335  13.607   0.819
67246W        W31454  23.027  20.545   3.240
67247W        W31455  18.094  36.007   4.348
67248W        W31456  42.925   9.680  14.351
67249W        W31457  11.841  25.009  11.929
67250W        W31458  17.566  11.836   0.792
67251W        W31459  27.191  13.795  10.973
67252W        W31460  41.868  37.914   3.869
67253W        W31461  38.884  28.455  10.437
67254W        W31462   8.189  31.611  13.825
67255W        W31463   1.873  34.973   1.429
67256W        W31464  26.688  34.598  12.469
67257W        W31465  12.676  13.221  14.308
67258W        W31466  42.011  24.626   0.318
67259W        W31467  29.633  17.094   4.699
67260W        W31468  11.703  14.773  12.542
67261W        W31469  42.014   2.818   0.368
67262W        W31470  31.032  40.452  14.927
67263W        W31471  28.098  15.325   4.720
67264W        W31472   4.930  25.664   3.243
67265W        W31473  27.591  23.528  12.559
67266W        W31474   6.241  39.811  14.782
67267W        W31475  29.960  23.545   2.268
67268W        W31476  34.600  11.807  10.419
67269W        W31477  32.404  29.663  12.482
67270W        W31478   3.857  20.726   0.251
67271W        W31479  39.870  26.693  12.003
67272W        W31480  25.529  37.581  11.872
67273W        W31481  19.154  33.026  14.930
67274W        W31482  40.510   5.343  14.421
67275W        W31483  40.447  20.038  12.347
67276W        W31484  20.712  29.131  13.019
67277W        W31485  20.740   0.843   2.896
67278W        W31486  35.904  43.350  11.045
67279W        W31487  33.499   1.248  11.878
67280W        W31488  16.771  14.263  12.462
67281W        W31489  15.822  44.931  14.923
67282W        W31490  40.384   1.737  12.566
67283W        W31491  43.978   8.197  10.955
67284W        W31492  31.145   5.207  12.914
67285W        W31493  12.714  33.399   0.391
67286W        W31494  29.499  26.016   0.245
67287W        W31495   1.797  34.451  14.447
67288W        W31496   3.373   2.808  13.988
67289W        W31497  12.833   8.871  13.894
67290W        W31498  27.061  25.158   0.481
67291W        W31499  41.955  31.503   1.211
67292W        W31500   6.259  15.268   2.408
67293W        W31501  30.162  25.705  14.025
67294W        W31502  33.916  42.413   1.735
67295W        W31503  17.789   5.839  11.044
67296W        W31504   5.328  18.244  11.115
67297W        W31505  18.070  20.149  14.412
67298W        W31506  34.005  28.628   2.867
67299W        W31507  29.427  33.059  14.008
67300W        W31508  34.406   5.848  14.884
67301W        W31509  40.306  19.664  10.486
67302W        W31510  37.847  26.529   2.248
67303W        W31511  21.598  44.802  11.463
67304W        W31512   1.462  27.996  10.934
67305W        W31513  20.173  26.064   2.798
67306W        W31514  15.765  34.545   3.153
67307W        W31515   5.323  14.674   4.760
67308W        W31516  36.968  14.192   1.796
67309W        W31517  12.312  10.291  13.880
67310W        W31518  19.084  27.526  13.473
67311W        W31519  39.319  20.078   2.732
67312W        W31520   6.922  33.898  13.805
67313W        W31521   2.829  39.813  12.513
67314W        W31522   5.402  33.931   3.644
67315W        W31523  34.431  38.832  10.519
67316W        W31524  16.646   4.379   2.694
67317W        W31525  25.191  24.593  13.484
67318W        W31526  29.558  19.593   0.728
67319W        W31527  40.459  19.063   0.826
67320W        W31528  18.266  26.085   2.353
67321W        W31529   0.830  21.534   4.167
67322W        W31530  38.841   5.428   0.864
67323W        W31531   1.785  39.362  11.974
67324W        W31532  11.204  15.653   2.242
67325W        W31533  32.102  19.040   3.231
67326W        W31534   6.260  41.916   2.676
67327W        W31535  20.181  39.861   0.266
67328W        W31536  12.222  26.956   2.874
67329W        W31537  31.518  31.118  13.836
67330W        W31538  13.207  38.861  14.994
67331W        W31539  25.058  38.392   1.903
67332W        W31540   1.366   7.891   3.168
67333W        W31541   5.927   7.399  11.556
67334W        W31542  36.524  25.045  13.909
67335W        W31543  33.465  30.056   3.222
67336W        W31544  32.627  39.034  12.573
67337W        W31545  26.496   5.323  11.053
67338W        W31546  41.323  44.418  12.402
67339W        W31547   1.956  36.435   2.795
67340W        W31548  28.147  17.701   2.853
67341W        W31549  19.613  19.040  13.859
67342W        W31550  14.144  13.205   3.807
67343W        W31551  10.363  21.236  11.114
67344W        W31552   4.305  19.680  12.529
67345W        W31553  13.168   5.422  11.095
67346W        W31554  28.097  14.150   0.453
67347W        W31555   9.385   5.719  12.842
67348W        W31556   0.402  16.148  12.003
67349W        W31557  42.866  16.223  13.954
67350W        W31558  23.631  32.127  11.481
67351W        W31559  15.330  37.058  11.536
67352W        W31560  17.712  34.937   2.776
67353W        W31561   4.438  27.550  11.584
67354W        W31562  27.074  28.507   1.214
67355W        W31563  42.776   7.184  12.996
67356W        W31564   9.815  19.125  14.016
67357W        W31565  23.030  15.696   3.771
67358W        W31566  12.847  11.712  10.922
67359W        W31567  18.683  21.074   0.331
67360W        W31568  40.308  15.671  10.631
67361W        W31569  22.119  38.979  11.471
67362W        W31570  40.032  39.832  13.539
67363W        W31571  11.762   2.427  14.929
67364W        W31572   9.346  27.101   3.777
67365W        W31573   2.366  28.126  12.428
67366W        W31574  15.639  13.237  10.533
67367W        W31575  10.827  15.689   4.352
67368W        W31576   3.755  32.946   3.295
67369W        W31577  26.639  37.550  14.890
67370W        W31578  38.012  21.258  13.852
67371W        W31579   4.747  26.083   0.889
67372W        W31580  22.643  17.116   1.763
67373W        W31581  21.063  25.555  10.923
67374W        W31582   7.745  44.995  10.504
67375W        W31583  20.096   9.151  12.917
67376W        W31584  23.581  16.681  14.916
67377W        W31585  34.021  43.968   4.228
67378W        W31586   0.343   8.879   1.716
67379W        W31587  38.445   0.936   3.369
67380W        W31588  13.290  14.667  12.867
67381W        W31589  10.835  40.015  12.485
67382W        W31590   8.788  43.019  11.920
67383W        W31591   0.783  39.838  13.999
67384W        W31592   5.207  11.708   2.876
67385W        W31593  40.019   6.212  13.517
67386W        W31594  24.108  10.744  11.900
67387W        W31595   2.956  40.835   0.342
67388W        W31596  14.711  33.439   1.866
67389W        W31597  37.410  30.582  12.417
67390W        W31598  32.929   2.396   4.244
67391W        W31599  31.639  21.089   4.321
67392W        W31600  27.615  38.375   0.358
67393W        W31601  31.085  19.682  11.883
67394W        W31602  14.328   0.890   1.908
67395W        W31603  26.192  15.669  13.908
67396W        W31604  14.299  22.220  12.939
67397W        W31605  12.698  15.241   3.763
67398W        W31606  15.701  34.475   0.459
67399W        W31607   9.273  16.757  13.900
67400W        W31608  28.484   2.452   1.243
67401W        W31609  16.151  35.451   0.790
67402W        W31610  19.072  44.345  13.378
67403W        W31611  18.559  35.102   0.825
67404W        W31612  31.493  24.715   0.437
67405W        W31613  34.564  44.782   3.165
67406W        W31614   8.243   9.780   3.343
67407W        W31615  15.318  20.229   3.750
67408W        W31616   3.284  38.495  13.851
67409W        W31617  18.149  13.312  10.442
67410W        W31618  10.319  26.025  11.876
67411W        W31619  44.940  25.652   3.650
67412W        W31620  16.111  44.311  12.902
67413W        W31621  16.172  43.772   2.231
67414W        W31622   9.250  33.482   0.955
67415W        W31623  21.628  24.049  11.589
67416W        W31624  31.939  32.420  12.052
67417W        W31625  38.548   4.741   4.208
67418W        W31626  24.190  17.125  10.019
67419W        W31627  26.509   2.861  10.615
67420W        W31628  30.150  37.503   0.322
67421W        W31629  32.135   7.769  13.333
67422W        W31630  44.291  15.265  14.488
67423W        W31631  10.850   1.831   3.822
67424W        W31632  24.210   8.771   2.863
67425W        W31633  17.112  42.887  12.573
67426W        W31634  41.326  35.389  10.569
67427W        W31635  42.456  14.254   3.172
67428W        W31636  13.737  13.199   4.621
67429W        W31637  22.243  23.215   0.885
67430W        W31638  34.074  17.149   3.806
67431W        W31639   0.814  11.199   4.735
67432W        W31640  42.461  38.539   0.322
67433W        W31641   7.312  35.867  12.429
67434W        W31642  21.563  18.770  10.980
67435W        W31643  30.964   1.769   4.673
67436W        W31644  28.127  24.203  12.065
67437W        W31645   0.373  38.439  14.288
67438W        W31646   6.688  40.952  12.451
67439W        W31647   6.348  44.930  12.358
67440W        W31648  34.531   8.843  11.038
67441W        W31649  26.143  19.770   4.820
67442W        W31650  30.442  25.202   3.340
67443W        W31651  11.811  37.062  12.507
67444W        W31652   3.874  30.582  13.952
67445W        W31653  38.994  44.466  14.348
67446W        W31654  26.137  33.404   0.312
67447W        W31655  34.608  16.715  13.969
67448W        W31656   7.378  44.930  11.949
67449W        W31657  29.938  21.041   1.262
67450W        W31658  35.577   6.348   3.364
67451W        W31659  44.810  28.634  12.017
67452W        W31660  29.928  26.202  11.389
67453W        W31661   5.268  27.973  13.829
67454W        W31662  26.193  12.847  12.542
67455W        W31663  27.504   7.383  12.538
67456W        W31664   5.818  25.181   4.337
67457W        W31665  38.326  41.837   0.399
67458W        W31666  31.535  19.071  12.457
67459W        W31667   2.456  39.822  13.451
67460W        W31668  31.063  32.464   3.258
67461W        W31669  44.758  14.252  11.598
67462W        W31670  16.144  13.665  11.576
67463W        W31671  32.575   5.298   3.173
67464W        W31672   8.760  18.181  10.570
67465W        W31673  14.228  19.566   0.828
67466W        W31674  10.143  44.958   3.323
67467W        W31675  20.633   8.729   2.270
67468W        W31676  17.300  34.907   2.680
67469W        W31677   5.748   7.218   2.738
67470W        W31678   7.819  10.189   2.394
67471W        W31679  42.399  27.448   0.258
67472W        W31680  26.621  44.260  13.009
67473W        W31681  22.088  17.228  11.975
67474W        W31682  33.482  37.084  13.537
67475W        W31683  14.328  44.770   4.695
67476W        W31684  33.061  15.704   3.322
67477W        W31685  11.202  23.008   2.384
67478W        W31686  38.828  25.674  13.413
67479W        W31687  13.173  12.742   4.818
67480W        W31688  25.077  37.498   1.244
67481W        W31689   6.888  34.441   0.765
67482W        W31690  15.325   5.893  12.004
67483W        W31691  43.491  30.053  14.314
67484W        W31692  14.098   3.895   3.366
67485W        W31693  39.889  36.015   2.282
67486W        W31694  20.175  29.606  12.380
67487W        W31695  36.387  29.155  12.342
67488W        W31696   6.905   7.226  12.523
67489W        W31697  21.725  13.604  10.623
67490W        W31698  34.513  34.610   0.916
67491W        W31699  26.703   0.974   1.736
67492W        W31700  24.559   6.695   0.352
67493W        W31701   5.360  23.049  11.861
67494W        W31702   3.846  16.278   0.836
67495W        W31703  43.443  37.857   4.725
67496W        W31704   7.281  20.708  11.547
67497W        W31705   9.149  18.670   3.198
67498W        W31706   8.390  12.799   1.263
67499W        W31707  23.706  28.613   0.439
67500W        W31708   4.718   3.803   2.351
67501W        W31709  31.924  35.411   0.876
67502W        W31710  17.777  40.972   0.808
67503W        W31711   2.312  20.212   3.183
67504W        W31712  30.005  37.845   3.259
67505W        W31713  44.284  38.340  11.418
67506W        W31714  35.939  44.452   1.855
67507W        W31715  43.783   2.902  14.387
67508W        W31716  21.662   1.427   1.929
67509W        W31717   0.753  31.446   3.312
67510W        W31718   1.262  15.084  13.490
67511W        W31719  18.089  38.562   1.228
67512W        W31720  36.075   8.286   0.297
67513W        W31721  22.173   6.315   4.234
67514W        W31722  10.680  18.753  12.912
67515W        W31723   4.826  44.407   0.748
67516W        W31724  42.526  33.401  12.034
67517W        W31725   7.838  15.257  14.870
67518W        W31726  20.597  30.552   2.775
67519W        W31727  39.534   6.382   5.108
67520W        W31728  19.286  25.105   2.858
67521W        W31729  23.144   1.273  12.479
67522W        W31730  22.234  11.239  12.566
67523W        W31731  18.162  26.654   1.212
67524W        W31732  36.404  29.165  11.409
67525W        W31733   5.894  41.012   1.406
67526W        W31734  39.947  15.087  12.947
67527W        W31735  29.121  26.040   3.332
67528W        W31736  12.827  33.380   4.156
67529W        W31737   1.461  38.887   4.239
67530W        W31738  24.686   6.416   2.332
67531W        W31739  41.317   3.347  14.365
67532W        W31740  20.766  30.985  11.900
67533W        W31741  40.357  38.490  12.907
67534W        W31742  15.306  15.221   0.269
67535W        W31743  31.954  29.662   2.759
67536W        W31744  29.020  34.419  14.835
67537W        W31745  23.080  23.216  10.529
67538W        W31746  13.274  38.911  12.083
67539W        W31747  37.942  44.771  14.905
67540W        W31748  21.736  37.569   4.763
67541W        W31749  11.759  23.634   3.208
67542W        W31750  33.485  16.622   3.197
67543W        W31751  34.393  10.260  13.321
67544W        W31752  18.275  35.010   3.671
67545W        W31753  38.442  11.646  12.030
67546W        W31754  26.504  32.554  11.394
67547W        W31755   8.664  19.240  14.325
67548W        W31756  24.492  23.186   1.218
67549W        W31757  37.579   9.349  12.540
67550W        W31758  14.176   3.795   0.893
67551W        W31759  33.422   1.482  13.471
67552W        W31760  39.950   4.445   2.365
67553W        W31761  25.504  44.417  14.300
67554W        W31762  20.543  39.442   0.303
67555W        W31763  10.670  31.614  10.577
67556W        W31764  12.283  13.844   5.649
67557W        W31765  30.020  26.556  12.925
67558W        W31766  32.417   9.338  10.439
67559W        W31767  18.645   9.233   0.439
67560W        W31768  30.098  30.004   3.381
67561W        W31769  18.754   0.773   4.678
67562W        W31770  35.084   0.379   2.825
67563W        W31771  42.016  32.918  10.972
67564W        W31772  40.410  13.175  11.460
67565W        W31773   1.443  28.580   1.863
67566W        W31774   0.951  35.436   1.893
67567W        W31775  23.101  25.503  11.532
67568W        W31776  21.660  12.680  13.869
67569W        W31777   3.861   4.738  11.539
67570W        W31778   1.958  24.140   1.879
67571W        W31779  20.524  31.023   4.207
67572W        W31780   5.274  28.617   1.882
67573W        W31781   9.326  30.446  12.880
67574W        W31782  27.159  43.392   2.267
67575W        W31783   1.790  41.422   4.245
67576W        W31784  20.251  27.486  11.537
67577W        W31785  28.185   9.709  10.124
67578W        W31786  44.761  15.700   4.158
67579W        W31787  23.985  28.118  14.780
67580W        W31788  38.374  29.485  13.000
67581W        W31789  27.137   5.755  10.472
67582W        W31790  22.578  22.229  13.347
67583W        W31791  28.960  43.455  13.318
67584W        W31792   7.907  38.924  11.127
67585W        W31793  25.985   5.691  13.946
67586W        W31794  34.518  32.974   2.416
67587W        W31795  44.331  13.240  11.440
67588W        W31796  38.364  17.139   4.823
67589W        W31797  11.226  40.906   4.201
67590W        W31798   7.280  44.426  13.839
67591W        W31799  44.262  24.567   1.322
67592W        W31800  14.625  18.157  14.438
67593W        W31801   7.721  17.606   2.242
67594W        W31802   0.921  27.448  13.791
67595W        W31803  32.439  22.205  12.878
67596W        W31804  11.251  24.070  12.870
67597W        W31805  12.611   0.895   0.448
67598W        W31806  26.096  40.324   4.351
67599W        W31807  28.153  35.442  12.849
67600W        W31808  37.466  41.887   3.754
67601W        W31809   0.912  28.029   2.361
67602W        W31810  21.180  30.444   4.773
67603W        W31811  42.966  10.208  12.069
67604W        W31812  19.569  29.955  13.008
67605W        W31813  34.474  44.273  10.453
67606W        W31814  37.517  32.484   0.800
67607W        W31815  38.848  40.339  12.865
67608W        W31816  36.876  33.485  13.400
67609W        W31817  21.179   1.479  13.514
67610W        W31818   1.463  43.996   1.310
67611W        W31819  10.825   9.745  14.397
67612W        W31820  30.062  26.051   4.770
67613W        W31821  36.996  41.892   3.222
67614W        W31822  20.149  11.865  11.439
67615W        W31823  28.630  22.042  11.414
67616W        W31824  31.504  25.106   3.298
67617W        W31825   3.891  15.675   0.336
67618W        W31826  33.611  14.813   4.632
67619W        W31827  20.596  38.558   3.671
67620W        W31828  22.247  31.958   3.732
67621W        W31829   9.851  26.014   3.371
67622W        W31830  29.484  40.868  12.849
67623W        W31831  31.640  12.230  12.834
67624W        W31832  22.212  38.475  14.789
67625W        W31833  39.860  21.521   5.699
67626W        W31834  36.090  15.797   2.796
67627W        W31835  12.280  20.078  12.394
67628W        W31836  30.548   1.766  14.356
67629W        W31837  33.605  27.517   2.289
67630W        W31838  36.981  10.167   1.738
67631W        W31839   4.235  31.092  14.441
67632W        W31840  11.733  32.433   4.328
67633W        W31841   7.705   0.916   3.802
67634W        W31842   2.775  41.867  10.405
67635W        W31843  29.484  20.729   1.315
67636W        W31844   9.883  38.488   4.618
67637W        W31845  33.110  25.053  13.994
67638W        W31846  27.017  43.916  12.922
67639W        W31847  29.667  28.451  13.389
67640W        W31848   9.252   4.770   0.399
67641W        W31849   5.760   5.248  13.855
67642W        W31850  11.205  13.623   3.195
67643W        W31851  31.558  37.086   0.458
67644W        W31852   5.330  34.866  14.833
67645W        W31853   8.395   9.702   2.695
67646W        W31854  22.744  12.662   2.830
67647W        W31855  28.628  43.854  12.857
67648W        W31856  11.808  20.743   4.245
67649W        W31857  42.298  11.633  11.507
67650W        W31858   5.707  17.631  14.451
67651W        W31859  44.863  16.598  11.964
67652W        W31860   2.823  40.054  11.878
67653W        W31861   4.899  40.331   4.598
67654W        W31862   5.688   7.825  14.361
67655W        W31863  41.503  13.230   1.417
67656W        W31864   1.266  40.461   1.901
67657W        W31865  30.958  16.621   2.205
67658W        W31866  37.381  20.569   3.211
67659W        W31867  35.419   8.804  13.542
67660W        W31868   7.210  10.655  11.474
67661W        W31869   4.301   5.745  13.378
67662W        W31870  30.550   5.912   3.332
67663W        W31871   6.708  18.113  11.612
67664W        W31872  21.064  36.417  12.361
67665W        W31873  41.794  26.586   3.683
67666W        W31874  43.270  16.614   3.149
67667W        W31875  15.235  35.574   2.740
67668W        W31876  28.038  41.932   0.396
67669W        W31877  29.521  26.666   0.967
67670W        W31878   7.267  11.206   2.790
67671W        W31879  24.502   1.811   4.250
67672W        W31880  25.712  35.504  11.459
67673W        W31881  23.017  22.605   1.314
67674W        W31882  41.507  20.603   4.158
67675W        W31883  34.089  19.191   4.681
67676W        W31884  13.791  31.642  12.483
67677W        W31885   3.436  44.823   1.842
67678W        W31886  18.172   0.793  13.399
67679W        W31887  25.637  35.076  14.907
67680W        W31888   6.833   1.959   4.810
67681W        W31889   7.838   5.322  12.014
67682W        W31890  37.037  36.079   4.341
67683W        W31891   0.814  44.320  14.782
67684W        W31892  15.686  32.621   2.744
67685W        W31893  18.611  20.701   3.184
67686W        W31894   6.205   5.299   1.809
67687W        W31895  36.437   0.852   2.305
67688W        W31896  22.172  44.365  12.424
67689W        W31897  39.450   1.363  12.965
67690W        W31898   5.299  12.822  14.961
67691W        W31899  31.448  19.625  14.003
67692W        W31900  14.734   2.851  14.288
67693W        W31901  39.985  23.074   1.748
67694W        W31902   3.807   1.282  13.795
67695W        W31903   8.682  41.808  10.573
67696W        W31904   0.808  18.744  10.961
67697W        W31905  13.307  14.655  10.921
67698W        W31906  12.786  29.439  11.929
67699W        W31907   4.300  32.889   1.897
67700W        W31908  37.360  17.752  13.031
67701W        W31909  40.428  36.374   2.302
67702W        W31910   4.391  28.611  14.854
67703W        W31911   7.399  13.795  12.078
67704W        W31912  41.964  29.942  11.426
67705W        W31913  43.947   5.732  11.884
67706W        W31914  23.596  35.398   0.473
67707W        W31915   0.897  44.854   4.814
67708W        W31916   4.326  34.610   1.823
67709W        W31917  18.628   2.247  13.544
67710W        W31918  44.820   2.814  13.867
67711W        W31919  35.040  22.587  12.578
67712W        W31920  35.999   4.271   0.836
67713W        W31921  13.668   0.430  14.006
67714W        W31922  38.976   0.470   2.323
67715W        W31923  17.207  24.150  12.044
67716W        W31924  18.737   4.783   0.928
67717W        W31925  23.194  37.484  14.790
67718W        W31926  20.523  37.888  11.588
67719W        W31927  13.679  43.983   4.775
67720W        W31928  15.586  20.168  12.453
67721W        W31929  19.128  18.155  11.995
67722W        W31930  43.017  35.907  11.465
67723W        W31931  31.126  31.555   1.215
67724W        W31932  19.278   7.898  14.460
67725W        W31933  42.306  31.133   0.928
67726W        W31934  33.984  21.597   2.843
67727W        W31935  24.035   3.804   1.720
67728W        W31936  27.994  36.576   0.859
67729W        W31937   2.447   0.474  11.903
67730W        W31938  24.613  12.819   4.771
67731W        W31939  44.913  33.426   0.281
67732W        W31940  35.063  18.670  13.063
67733W        W31941  38.468   4.243  14.471
67734W        W31942   0.884   6.321   1.304
67735W        W31943  28.564  15.676   9.517
67736W        W31944  35.377  30.427   3.199
67737W        W31945  22.078  11.319  11.495
67738W        W31946  43.831   7.393  14.852
67739W        W31947  28.144   8.871  12.554
67740W        W31948  34.962  41.505  13.890
67741W        W31949  34.101  29.580  13.946
67742W        W31950  12.212  24.496   0.859
67743W        W31951  30.424  24.078   2.755
67744W        W31952  38.875  31.145   3.164
67745W        W31953  22.210   6.421   2.730
67746W        W31954  38.518  44.801  13.808
67747W        W31955  18.606  24.100  10.905
67748W        W31956   8.818  39.499   4.262
67749W        W31957  16.253  18.657   0.868
67750W        W31958   6.240  32.530   4.271
67751W        W31959  28.674  34.897  10.131
67752W        W31960  20.733  14.155  12.856
67753W        W31961   1.462  37.981  12.060
67754W        W31962  21.708   5.848  14.904
67755W        W31963   4.209  30.476   1.787
67756W        W31964  42.909   5.281   3.748
67757W        W31965   9.310  36.488  14.346
67758W        W31966  34.378  40.946   1.421
67759W        W31967   2.471  17.283  14.443
67760W        W31968  13.263  40.995   0.323
67761W        W31969  22.632  23.075  14.310
67762W        W31970   6.783  38.886   3.674
67763W        W31971   8.754  37.557   1.361
67764W        W31972   8.880  26.537  14.770
67765W        W31973  39.823  43.421   0.378
67766W        W31974   3.850  22.036   3.792
67767W        W31975  21.528  40.541  14.000
67768W        W31976   6.739   8.712  11.550
67769W        W31977  30.060  39.360  13.435
67770W        W31978  18.700   4.383  12.413
67771W        W31979  22.082  35.383   1.850
67772W        W31980  18.579  18.119  14.491
67773W        W31981   1.855  10.145   3.297
67774W        W31982  13.633  27.458  13.431
67775W        W31983  26.622  26.529   0.272
67776W        W31984  29.120  26.167   0.846
67777W        W31985  28.673   3.726  13.452
67778W        W31986  19.270   2.921  13.331
67779W        W31987  38.473  26.490  10.494
67780W        W31988  19.721  27.150   3.781
67781W        W31989  13.307  18.635   3.292
67782W        W31990  17.776  36.570  13.949
67783W        W31991   3.353  26.191   2.670
67784W        W31992  15.264   9.277   0.812
67785W        W31993  28.556  29.995   2.856
67786W        W31994  13.727  33.950   1.726
67787W        W31995  33.596  31.550  13.527
67788W        W31996  12.167  32.509  14.510
67789W        W31997   5.695   5.264  14.345
67790W        W31998   4.254  25.142  13.345
67791W        W31999  35.954  19.534  13.012
67792W        W32000  43.976   4.756   3.340
67793W        W32001  12.188  27.990   2.373
67794W        W32002  38.970  28.653  12.973
67795W        W32003  30.927  18.281   1.296
67796W        W32004  22.605  40.978  13.360
67797W        W32005  37.895  37.979  14.949
67798W        W32006  44.336  35.109   2.754
67799W        W32007  30.465  23.076   4.160
67800W        W32008  13.739  41.829  12.085
67801W        W32009  36.919  19.754   2.268
67802W        W32010  25.100  10.737  14.427
67803W        W32011  11.686  39.558  11.884
67804W        W32012  19.111  40.502   2.330
67805W        W32013  41.401  32.940   2.852
67806W        W32014  33.070  25.003  13.402
67807W        W32015   5.278  16.183  10.535
67808W        W32016   4.380  36.509  13.435
67809W        W32017  20.172  14.239   2.366
67810W        W32018  20.544  21.231   4.670
67811W        W32019  25.146   9.786   2.849
67812W        W32020   7.209  27.607  14.509
67813W        W32021  37.389  42.370  10.958
67814W        W32022   4.813  40.837  13.521
67815W        W32023   8.234  18.187  11.978
67816W        W32024  25.141   0.389   1.339
67817W        W32025   6.371  16.148   2.361
67818W        W32026  33.116  14.311  14.030
67819W        W32027  38.023   3.836   1.885
67820W        W32028  26.112  32.566   0.433
67821W        W32029  44.812  32.408  10.576
67822W        W32030  15.673  19.568  10.075
67823W        W32031  22.147   4.726   4.681
67824W        W32032  18.656  33.422   2.828
67825W        W32033   8.776   3.242   3.341
67826W        W32034   9.279  24.563   2.343
67827W        W32035  31.516  13.710   4.624
67828W        W32036  23.496  42.972  13.061
67829W        W32037  39.974  31.034  12.037
67830W        W32038  38.020   3.367   0.456
67831W        W32039  34.112  36.919  10.926
67832W        W32040  25.127  42.840   4.138
67833W        W32041  34.439  30.135   4.824
67834W        W32042  30.461   7.330  11.504
67835W        W32043  37.043  24.220   0.798
67836W        W32044  22.112  38.467   3.787
67837W        W32045  27.532  17.148   2.343
67838W        W32046   4.420   8.677  13.914
67839W        W32047  24.548  12.621  10.991
67840W        W32048  16.276   6.710   4.168
67841W        W32049  23.490  39.507  14.905
67842W        W32050  41.961  35.091  11.958
67843W        W32051  26.674  10.801  13.514
67844W        W32052  44.832   5.431  14.813
67845W        W32053  39.820  36.962  12.985
67846W        W32054   8.706  42.851  13.927
67847W        W32055  22.028   7.225   3.639
67848W        W32056  25.180  35.053   2.831
67849W        W32057  44.367  10.814   2.737
67850W        W32058  35.902  34.063   1.799
67851W        W32059  11.256  24.580   1.428
67852W        W32060  32.965  38.369  10.615
67853W        W32061  30.604  27.512  10.892
67854W        W32062  27.674  24.020   0.387
67855W        W32063  31.538  24.213   1.307
67856W        W32064   4.441  14.622  12.964
67857W        W32065  19.775  38.470   3.195
67858W        W32066  12.672  12.307  14.933
67859W        W32067  19.623   5.818   1.370
67860W        W32068  32.509   4.824   0.325
67861W        W32069   4.215  11.699  14.505
67862W        W32070  16.780  19.170  13.825
67863W        W32071   6.328  20.037  14.292
67864W        W32072  31.467  34.885   4.833
67865W        W32073  30.145  15.194   0.837
67866W        W32074  27.061  37.867   2.868
67867W        W32075  21.164   3.351   2.192
67868W        W32076  35.876  19.763   1.256
67869W        W32077  12.781  16.778  12.928
67870W        W32078   8.226  29.508   4.647
67871W        W32079  31.944  14.256   5.257
67872W        W32080  32.608  41.387   1.386
67873W        W32081  37.078  12.346  14.835
67874W        W32082  14.157  36.079   4.657
67875W        W32083  31.977  42.490   2.784
67876W        W32084  18.230  36.566   5.679
67877W        W32085  41.949  16.617  10.515
67878W        W32086  30.017  20.111  14.336
67879W        W32087  17.064  36.531   4.646
67880W        W32088  40.798  24.985  14.974
67881W        W32089  20.747  34.954  13.893
67882W        W32090  28.641  32.444   4.351
67883W        W32091  20.218   4.424   3.233
67884W        W32092  35.925   6.886   0.432
67885W        W32093  33.590  42.440  10.913
67886W        W32094   2.252  27.029   0.401
67887W        W32095  19.166  31.511  10.582
67888W        W32096  23.530  27.186  10.588
67889W        W32097  26.569  14.276   1.404
67890W        W32098  26.175  14.782   2.880
67891W        W32099  21.257  44.926   1.271
67892W        W32100   6.789  26.171  14.954
67893W        W32101  24.994  42.344   1.797
67894W        W32102  16.272  34.868  13.483
67895W        W32103  35.032   2.857   4.683
67896W        W32104  20.633  40.378   4.655
67897W        W32105  21.717   5.786   1.876
67898W        W32106  44.273  28.643  10.555
67899W        W32107  28.137  15.610   0.435
67900W        W32108   1.822  12.691  12.424
67901W        W32109  38.062  13.817  11.948
67902W        W32110  15.789   5.274   1.751
67903W        W32111  39.019  17.595  10.986
67904W        W32112  21.143  31.584  12.345
67905W        W32113   4.318   3.446   0.255
67906W        W32114  39.044  15.805   4.721
67907W        W32115  27.107  13.177  14.466
67908W        W32116  18.092  18.652   3.364
67909W        W32117  26.130  41.932  14.298
67910W        W32118   4.797   5.391  11.372
67911W        W32119  35.416  21.219   3.793
67912W        W32120   6.317   9.330   4.152
67913W        W32121   9.364   0.923  14.914
67914W        W32122   7.406  11.250   1.258
67915W        W32123  17.736  15.622   0.739
67916W        W32124   5.774   2.757   4.659
67917W        W32125  25.031  38.872  14.953
67918W        W32126  24.604  22.170  12.096
67919W        W32127  43.898  40.826   3.232
67920W        W32128   6.303   1.763   0.743
67921W        W32129  11.714  11.309  14.419
67922W        W32130   7.775  36.561   4.325
67923W        W32131  12.206   6.754   3.340
67924W        W32132  30.642   2.391  14.310
67925W        W32133  16.670  28.666   0.818
67926W        W32134  13.125   8.359   2.328
67927W        W32135  43.394  39.536  10.573
67928W        W32136  16.311  39.879   2.748
67929W        W32137  17.296  14.763  13.351
67930W        W32138  13.254  42.372   3.843
67931W        W32139  10.225  15.231  13.498
67932W        W32140  44.394   6.237  11.501
67933W        W32141  33.948   7.781  14.453
67934W        W32142  43.769   1.454   1.815
67935W        W32143   3.803  25.586   3.346
67936W        W32144  43.479   8.658   2.334
67937W        W32145  19.664  28.182   0.314
67938W        W32146   1.794  43.359  11.896
67939W        W32147  22.210  34.588   3.278
67940W        W32148  12.686  41.996   3.769
67941W        W32149  31.462  36.353   2.858
67942W        W32150  38.533  33.587  11.458
67943W        W32151  26.954   3.276   2.736
67944W        W32152   1.888  23.065   2.297
67945W        W32153  39.054  20.740  13.533
67946W        W32154  18.784  13.322   2.346
67947W        W32155   5.385  24.107  14.900
67948W        W32156  44.387   4.780   2.180
67949W        W32157   5.261  15.628  10.441
67950W        W32158  26.519  32.498  10.576
67951W        W32159  19.177  35.443  10.959
67952W        W32160  17.752   7.411  13.043
67953W        W32161  11.794  21.565   4.768
67954W        W32162  16.161   8.892   4.718
67955W        W32163  24.014   6.222   1.352
67956W        W32164  24.028  16.311  11.982
67957W        W32165  26.634  12.724  12.498
67958W        W32166  16.079  37.014  12.491
67959W        W32167  15.671  21.570  13.374
67960W        W32168  31.038  30.092  13.038
67961W        W32169  36.500  37.352   4.135
67962W        W32170   7.876  37.335   3.637
67963W        W32171  16.634   4.768  10.604
67964W        W32172   8.387  21.603  11.382
67965W        W32173   0.445  15.801  12.405
67966W        W32174  17.767  37.449   0.447
67967W        W32175   4.795  27.123   3.665
67968W        W32176  26.179  41.494   3.265
67969W        W32177   3.922  28.080  12.026
67970W        W32178  21.058  25.003  10.423
67971W        W32179   3.742  20.658   4.335
67972W        W32180  37.034  28.125  11.559
67973W        W32181  12.176  24.533   3.843
67974W        W32182  17.133   0.963  14.771
67975W        W32183  26.609  37.063  10.600
67976W        W32184  21.602  34.990   0.843
67977W        W32185  38.547   9.875  10.611
67978W        W32186  19.101  41.477   2.709
67979W        W32187  14.128   7.773   2.412
67980W        W32188   7.276  12.631   0.318
67981W        W32189  35.394  20.690   2.229
67982W        W32190  11.741  14.105   1.229
67983W        W32191  28.476   3.800   0.942
67984W        W32192  39.015  30.125  12.926
67985W        W32193  21.162  38.924  10.952
67986W        W32194  15.732  17.182   2.291
67987W        W32195  26.173  33.452  14.351
67988W        W32196  17.106   7.894  13.321
67989W        W32197   9.686  28.075  11.904
67990W        W32198  16.659   2.412   4.316
67991W        W32199  14.653  29.960   4.740
67992W        W32200  28.554  29.971  11.112
67993W        W32201   7.323   5.918   4.238
67994W        W32202  33.961  10.377   3.182
67995W        W32203   1.402   3.234   2.885
67996W        W32204  38.826  20.251  11.030
67997W        W32205  24.520  16.754   1.298
67998W        W32206  34.557  17.199   0.407
67999W        W32207  30.158   2.892  13.379
68000W        W32208  11.848  22.552  11.567
68001W        W32209  11.360  38.849  12.499
68002W        W32210   2.729  25.155  12.529
68003W        W32211  20.110  13.116  11.877
68004W        W32212  32.105  21.235  12.893
68005W        W32213   7.857  39.045   3.319
68006W        W32214  23.185  29.466   0.944
68007W        W32215  32.447   7.857   4.620
68008W        W32216  37.882  18.642   1.344
68009W        W32217   8.167  22.053   3.699
68010W        W32218   5.395  31.114   4.700
68011W        W32219  37.487  44.774  12.912
68012W        W32220   1.363  16.688  13.003
68013W        W32221  31.504  13.765   1.710
68014W        W32222  41.323  27.986  14.408
68015W        W32223  14.125  24.552  13.309
68016W        W32224   3.380   7.307  10.474
68017W        W32225  22.107   1.794   2.270
68018W        W32226  40.360   5.751  14.811
68019W        W32227  20.713   7.822  12.986
68020W        W32228  23.622   8.840  11.918
68021W        W32229  26.164  34.542  14.934
68022W        W32230  19.758   8.731   1.782
68023W        W32231  44.357  32.431   4.151
68024W        W32232  25.194  16.140   4.193
68025W        W32233  16.110  28.643  12.004
68026W        W32234  41.482  17.270   0.414
68027W        W32235   3.931  38.933  10.556
68028W        W32236   3.241  26.048  14.394
68029W        W32237  39.391   4.924   0.305
68030W        W32238  26.028  15.745   0.906
68031W        W32239  26.073  22.672  11.391
68032W        W32240  28.166  28.063   3.651
68033W        W32241  37.341  13.115   1.911
68034W        W32242  33.531   9.179   2.392
68035W        W32243  35.856  17.748  11.933
68036W        W32244  25.561  15.663  11.881
68037W        W32245  10.310  31.589  11.413
68038W        W32246   1.794  26.032   4.598
68039W        W32247  14.796  25.592  14.408
68040W        W32248  20.696  18.601  13.038
68041W        W32249  17.289  29.501   3.240
68042W        W32250  40.529  31.031  13.048
68043W        W32251  39.977  17.082   1.265
68044W        W32252  10.656  18.268   1.832
68045W        W32253  38.328   4.341   4.308
68046W        W32254  27.536  13.120  14.851
68047W        W32255   2.423  25.500  10.975
68048W        W32256  28.617   1.951   2.762
68049W        W32257  43.008  44.476  11.398
68050W        W32258   3.263   8.233   3.844
68051W        W32259  21.234   7.260   5.754
68052W        W32260  28.974  21.071   0.392
68053W        W32261  35.105  33.946  12.040
68054W        W32262  39.341  26.036  11.997
68055W        W32263  11.733  10.726  14.887
68056W        W32264  36.445  41.447   0.353
68057W        W32265  33.510   8.699   3.866
68058W        W32266  28.042  28.984  10.450
68059W        W32267   2.883   5.379   2.709
68060W        W32268  18.202  38.992  13.473
68061W        W32269   0.831  31.964   1.249
68062W        W32270  22.103  41.878   4.706
68063W        W32271  15.752  31.114  12.030
68064W        W32272  29.114   4.289  14.298
68065W        W32273  43.995   6.339   2.725
68066W        W32274   9.234  44.841   2.866
68067W        W32275   0.948  36.432   5.269
68068W        W32276  19.658  40.506   4.650
68069W        W32277  21.230  38.976  10.016
68070W        W32278  38.498  29.606  11.593
68071W        W32279  33.400  20.581  10.553
68072W        W32280   1.297  33.466   1.223
68073W        W32281  19.068  41.999   1.449
68074W        W32282  41.889  18.165  12.946
68075W        W32283  23.534   8.767   0.791
68076W        W32284  28.647   9.877  12.985
68077W        W32285  35.007  25.095  14.934
68078W        W32286  24.702  34.105   4.617
68079W        W32287   4.450   8.683   2.840
68080W        W32288   9.190   0.846   4.639
68081W        W32289   2.432   9.173  12.458
68082W        W32290  14.269  15.640  14.775
68083W        W32291  42.002   4.871   4.146
68084W        W32292  32.400  40.328   2.899
68085W        W32293   1.965  37.847  11.993
68086W        W32294  31.418   1.476   3.808
68087W        W32295   0.333   1.393   5.269
68088W        W32296  39.935  44.398  11.069
68089W        W32297  33.490  39.504   0.826
68090W        W32298  19.161   2.460   3.715
68091W        W32299  20.116  10.871   4.829
68092W        W32300  28.569  29.006   2.727
68093W        W32301  25.650   2.266  11.535
68094W        W32302  21.577   0.448   1.813
68095W        W32303  31.974  10.362  14.760
68096W        W32304   8.235  44.916   1.284
68097W        W32305  16.174   1.425  14.442
68098W        W32306  29.511   6.679  11.051
68099W        W32307  41.899  42.457   1.400
68100W        W32308  32.118  43.342   4.719
68101W        W32309  37.911  22.734   4.206
68102W        W32310  10.695   2.301  14.372
68103W        W32311  16.751  40.375  12.975
68104W        W32312  28.974   3.302  14.350
68105W        W32313   0.833  41.856   2.715
68106W        W32314  20.109   5.352   2.190
68107W        W32315  18.116  23.144  14.398
68108W        W32316  43.801  34.064   2.730
68109W        W32317  21.716  27.005   4.783
68110W        W32318  10.301  31.457  14.366
68111W        W32319   8.165  19.041  11.122
68112W        W32320   6.761   1.438   4.186
68113W        W32321  44.350  27.450  13.519
68114W        W32322  43.793  28.536   2.386
68115W        W32323  25.580   6.380   4.626
68116W        W32324  42.422  18.670  14.801
68117W        W32325  35.860  11.814  12.995
68118W        W32326  22.730   8.832  13.795
68119W        W32327  24.637  28.146   3.341
68120W        W32328  39.943  42.287  10.420
68121W        W32329  25.605  23.734   2.318
68122W        W32330  35.399  26.680  11.508
68123W        W32331  39.436   2.420  11.456
68124W        W32332  39.330  41.957   2.795
68125W        W32333   9.770  19.730   4.794
68126W        W32334  17.675  20.610   2.209
68127W        W32335  30.098  37.917  10.546
68128W        W32336  37.016  23.993   2.712
68129W        W32337  28.080  34.062  12.015
68130W        W32338  30.063   7.360   0.909
68131W        W32339  31.462   8.797   1.718
68132W        W32340  41.910  19.674  13.901
68133W        W32341  19.170  38.414  11.938
68134W        W32342  41.035  37.839  12.085
68135W        W32343  24.019  42.000   4.152
68136W        W32344  11.805  14.262  12.542
68137W        W32345  38.332  15.765   1.304
68138W        W32346  13.830  42.909  13.798
68139W        W32347  33.023  44.763  12.077
68140W        W32348  20.562  41.352  12.380
68141W        W32349  18.190  21.607   3.631
68142W        W32350  10.733  20.658  11.516
68143W        W32351  33.986   0.250   4.831
68144W        W32352  24.092   4.746  14.913
68145W        W32353  28.149  19.284  13.326
68146W        W32354  43.787  22.228  13.878
68147W        W32355  35.068  30.550  10.629
68148W        W32356  15.139  37.389  11.380
68149W        W32357  31.113  10.822  10.536
68150W        W32358   8.778  25.042   1.719
68151W        W32359  42.881  22.697   4.658
68152W        W32360   4.833  16.614  11.976
68153W        W32361   0.869   0.298  12.011
68154W        W32362   6.799  32.636   0.733
68155W        W32363  38.415  44.958  13.412
68156W        W32364  25.554  40.045  10.963
68157W        W32365   4.777  42.347  14.933
68158W        W32366   6.371  15.587   4.637
68159W        W32367  39.414  22.200  10.912
68160W        W32368  15.116  39.331  12.517
68161W        W32369  31.409   3.852  12.431
68162W        W32370  34.045  23.154  14.920
68163W        W32371   5.364   5.746   1.760
68164W        W32372   1.428   0.852   0.763
68165W        W32373  34.512  20.551  12.051
68166W        W32374  29.453  20.606   0.342
68167W        W32375  22.089  23.231   1.375
68168W        W32376  32.614   8.770   0.742
68169W        W32377  33.451  11.280   3.755
68170W        W32378  31.600  23.499  14.968
68171W        W32379  39.387   2.956  11.422
68172W        W32380  34.588   4.888  11.504
68173W        W32381  19.105  22.653   3.847
68174W        W32382   8.799   0.897  14.014
68175W        W32383  17.218  10.356   0.264
68176W        W32384  41.876  43.405   4.279
68177W        W32385  29.988   9.789   2.358
68178W        W32386  24.628  27.487   2.363
68179W        W32387  17.089  17.073   1.399
68180W        W32388  14.325   2.268   3.736
68181W        W32389   1.924  41.328  12.461
68182W        W32390  26.064  37.360  11.050
68183W        W32391  30.117   5.339  10.520
68184W        W32392  21.038   8.187   0.379
68185W        W32393  14.301  37.984  13.945
68186W        W32394  14.094  25.611   0.320
68187W        W32395  10.860  33.434   4.145
68188W        W32396  23.729  20.671   4.158
68189W        W32397  27.179  25.541  12.065
68190W        W32398  34.602  30.969  14.760
68191W        W32399  20.691  12.260   0.375
68192W        W32400  39.344   2.238   3.742
68193W        W32401  35.074   3.904  11.064
68194W        W32402  29.621  14.628  14.398
68195W        W32403  34.480   8.749   1.218
68196W        W32404  10.699  37.897   2.398
68197W        W32405   5.843  13.205   1.802
68198W        W32406  20.557  38.416  11.503
68199W        W32407  22.107  44.955  13.894
68200W        W32408  32.555   4.291  14.011
68201W        W32409  16.647  40.392  13.972
68202W        W32410  27.107  37.853  11.444
68203W        W32411   2.849   8.328   2.756
68204W        W32412  38.346  10.338   2.231
68205W        W32413  37.036  33.955  13.475
68206W        W32414  26.572   9.878   4.772
68207W        W32415  25.470  41.406  10.926
68208W        W32416  28.028   7.890   2.855
68209W        W32417  15.611   2.367  13.866
68210W        W32418  10.690   3.258  11.461
68211W        W32419  13.294  38.448  12.017
68212W        W32420  28.638  42.919  14.459
68213W        W32421  13.114  37.867   1.911
68214W        W32422  23.075  23.054  12.050
68215W        W32423  38.072  16.266   4.119
68216W        W32424  44.976   0.318   5.603
68217W        W32425  16.100  44.378   2.710
68218W        W32426  42.894  28.156   0.782
68219W        W32427  17.771  23.564  13.894
68220W        W32428  31.036   5.755  14.921
68221W        W32429   0.795  22.725  10.406
68222W        W32430  10.157   0.278   1.267
68223W        W32431  16.758   1.918  10.926
68224W        W32432  30.578  43.977   2.732
68225W        W32433   3.948  36.452   5.253
68226W        W32434  27.149  34.515   0.250
68227W        W32435   4.899  30.131  11.937
68228W        W32436  33.919  17.064   4.339
68229W        W32437  20.714  42.317  10.610
68230W        W32438  24.634  42.412  11.068
68231W        W32439  27.056  11.228   3.855
68232W        W32440  19.646  41.456   2.701
68233W        W32441  24.698  16.249   3.773
68234W        W32442  39.963  35.917  12.524
68235W        W32443   0.471  19.074  10.914
68236W        W32444   2.243  24.582   0.447
68237W        W32445  13.129  37.848  10.555
68238W        W32446  39.948  34.544  13.515
68239W        W32447   0.794  13.202  14.423
68240W        W32448  21.246   8.880   4.752
68241W        W32449  37.831  10.204   3.170
68242W        W32450  18.789  15.736   3.750
68243W        W32451  35.383  18.555   4.173
68244W        W32452  31.502   0.870   3.376
68245W        W32453   3.435  15.313   4.837
68246W        W32454  17.721  33.527  10.576
68247W        W32455  41.307  41.022   2.665
68248W        W32456  24.593  28.503  14.439
68249W        W32457  22.715  28.953  10.972
68250W        W32458  12.707  40.445   3.234
68251W        W32459  32.940   1.378   1.823
68252W        W32460   3.374  23.059  12.865
68253W        W32461  42.501  21.161   2.213
68254W        W32462   6.376   6.299   0.280
68255W        W32463   5.309  30.559  13.877
68256W        W32464  10.763  16.793  11.970
68257W        W32465  25.055  23.493  12.005
68258W        W32466  27.510  43.405   0.869
68259W        W32467  39.513  15.153   2.707
68260W        W32468   9.779   0.973   2.793
68261W        W32469  42.974  18.111   9.500
68262W        W32470  44.879   4.237   2.185
68263W        W32471  15.720  36.500  11.611
68264W        W32472  43.936  34.548   0.280
68265W        W32473  31.498  44.339   2.865
68266W        W32474  13.763   2.454  11.540
68267W        W32475   4.851   4.823  14.358
68268W        W32476   7.900   9.707  12.406
68269W        W32477   5.722  18.064   3.166
68270W        W32478  15.325  21.082  11.587
68271W        W32479  25.503   6.736  12.578
68272W        W32480  35.452  37.485  14.990
68273W        W32481   8.683   6.849  13.309
68274W        W32482  13.744  10.225   2.883
68275W        W32483  15.227  27.523   2.687
68276W        W32484  39.478  24.070   2.210
68277W        W32485  35.059   2.809   2.225
68278W        W32486   5.259  10.152  13.062
68279W        W32487  29.427  10.163  13.312
68280W        W32488  41.795  41.825   3.852
68281W        W32489  12.212  12.660   3.790
68282W        W32490  36.981  15.633   2.240
68283W        W32491  32.508  16.720  14.011
68284W        W32492   7.413  28.179   4.183
68285W        W32493   3.945  40.482   2.410
68286W        W32494  43.289  25.070   2.311
68287W        W32495  43.800  36.050  14.916
68288W        W32496  23.097  44.411   3.284
68289W        W32497  13.765  33.051   1.425
68290W        W32498  27.125   9.859  10.980
68291W        W32499   5.217  14.122   5.086
68292W        W32500   5.242  18.639   4.650
68293W        W32501   0.464  27.520  14.026
68294W        W32502  29.942  12.180   2.314
68295W        W32503  24.488  30.128  11.075
68296W        W32504   1.300  35.975  11.893
68297W        W32505  35.529  26.192   3.805
68298W        W32506  34.568   2.471   3.785
68299W        W32507  33.904  26.068   0.369
68300W        W32508  41.471  39.869   3.806
68301W        W32509  27.179  43.276   2.828
68302W        W32510  32.052  20.037   4.216
68303W        W32511  29.123  36.863  13.399
68304W        W32512  20.257  38.536  11.581
68305W        W32513   5.705  34.111  10.433
68306W        W32514  35.964  29.920  14.965
68307W        W32515  38.900  11.275  10.560
68308W        W32516  11.736   9.276  14.913
68309W        W32517  41.942  14.626   2.317
68310W        W32518  16.172  17.292   9.995
68311W        W32519   2.391  30.057   2.740
68312W        W32520  13.233  22.103   0.249
68313W        W32521  19.242  36.452   0.298
68314W        W32522  33.509  31.571  12.048
68315W        W32523  11.788  39.969   3.763
68316W        W32524   9.811   4.892   4.216
68317W        W32525   2.388  27.618   3.354
68318W        W32526  29.005  23.532  13.952
68319W        W32527  21.072   1.353   0.908
68320W        W32528  22.036  30.546   0.396
68321W        W32529   8.225  34.562  12.535
68322W        W32530  40.949   7.828  13.524
68323W        W32531  39.815  30.473   1.270
68324W        W32532   4.920  20.735  12.018
68325W        W32533   7.211  14.607   1.797
68326W        W32534  17.614  25.056  11.400
68327W        W32535  10.869   7.836   0.795
68328W        W32536   3.296  20.176   0.958
68329W        W32537  34.489   8.178   0.808
68330W        W32538  29.125  31.947   4.159
68331W        W32539  24.105  37.469   4.344
68332W        W32540  35.086  28.938  12.045
68333W        W32541  42.415  27.188   1.837
68334W        W32542  26.610  17.248  14.878
68335W        W32543   7.867  31.979  10.023
68336W        W32544  23.213  16.688   1.289
68337W        W32545  15.329  38.543   1.862
68338W        W32546  12.174  44.394  14.963
68339W        W32547  18.159  13.690  10.937
68340W        W32548  22.729  28.088   5.101
68341W        W32549  16.812  24.103   2.239
68342W        W32550   3.260  12.783  13.433
68343W        W32551  37.338  22.138   0.340
68344W        W32552  39.536  13.183   0.918
68345W        W32553   2.438  23.489  12.008
68346W        W32554  34.394   4.406  12.339
68347W        W32555  21.247  31.931   4.748
68348W        W32556  14.695  39.850   4.740
68349W        W32557  11.313  37.087  10.951
68350W        W32558  15.173  11.296  12.374
68351W        W32559  27.000  40.893   2.185
68352W        W32560  11.358  23.548  14.487
68353W        W32561  36.014  17.743  14.279
68354W        W32562   2.830   3.311   0.371
68355W        W32563  14.096  27.467  12.999
68356W        W32564  28.506  36.578   1.424
68357W        W32565  22.012  43.828  12.096
68358W        W32566  13.768  12.272  12.873
68359W        W32567  42.817  11.655   3.734
68360W        W32568  28.949  19.096  13.853
68361W        W32569  21.690  26.677   1.880
68362W        W32570   6.243  39.915  12.533
68363W        W32571  36.447  36.977   1.851
68364W        W32572  11.666  42.911  13.527
68365W        W32573  39.965  23.518   0.452
68366W        W32574   1.271  38.553   2.798
68367W        W32575  31.054   0.322   2.685
68368W        W32576  29.101  10.657   0.746
68369W        W32577  25.012  34.588  11.501
68370W        W32578  20.568  20.644   4.752
68371W        W32579  38.821  37.572  11.536
68372W        W32580  28.481  38.043  11.391
68373W        W32581   9.190  11.180   0.388
68374W        W32582  12.264  34.039   4.319
68375W        W32583  18.718   3.336   2.206
68376W        W32584  25.963   7.703  10.437
68377W        W32585  34.373  32.142  10.942
68378W        W32586  26.613  13.698  11.867
68379W        W32587   0.893  35.005   3.825
68380W        W32588  39.955  28.607  13.803
68381W        W32589   0.808  28.984  14.822
68382W        W32590  33.547   9.178  11.093
68383W        W32591  37.960  29.598  11.475
68384W        W32592  38.526   4.745   1.261
68385W        W32593  13.711  34.590  12.048
68386W        W32594  36.846  30.065  11.455
68387W        W32595  43.980  35.857  12.489
68388W        W32596  23.617  25.515  12.004
68389W        W32597  42.305  39.421  12.551
68390W        W32598  31.564  20.091  11.561
68391W        W32599  19.681  37.859   2.296
68392W        W32600   6.420  16.314  10.977
68393W        W32601  26.647   0.949   0.732
68394W        W32602  15.307   2.361   0.362
68395W        W32603  12.317  44.762  13.405
68396W        W32604  43.788  23.678  11.483
68397W        W32605  44.998  26.986   1.254
68398W        W32606  41.806   9.322  12.929
68399W        W32607  20.570  39.046  11.988
68400W        W32608  13.830  19.137  11.099
68401W        W32609  13.691  10.757  13.960
68402W        W32610   5.207  37.887  14.312
68403W        W32611  41.039  37.910   2.354
68404W        W32612  26.682  17.241   2.812
68405W        W32613  43.441  26.198  13.498
68406W        W32614  17.703   1.305   0.861
68407W        W32615  43.280  44.921   0.380
68408W        W32616  36.577   4.397  14.360
68409W        W32617  22.726  28.473  14.335
68410W        W32618  34.599   8.657   3.175
68411W        W32619  25.701  16.758   3.175
68412W        W32620  36.012   3.721  14.425
68413W        W32621   5.305  22.684   2.786
68414W        W32622  30.093  18.268   3.240
68415W        W32623   5.823  23.161  13.522
68416W        W32624  16.627   7.415   2.871
68417W        W32625  25.552  19.769  11.394
68418W        W32626  34.969  33.597  10.061
68419W        W32627  38.897  27.133  12.374
68420W        W32628  13.178  10.634   4.313
68421W        W32629  41.437  25.527   4.136
68422W        W32630   1.735  34.057  14.339
68423W        W32631   9.714   6.893   4.787
68424W        W32632  17.696  39.439   3.642
68425W        W32633  12.645  17.643  12.907
68426W        W32634  14.669  40.936  12.922
68427W        W32635  21.529  22.557  12.492
68428W        W32636  20.109  43.330   2.719
68429W        W32637  10.722   2.294   0.944
68430W        W32638  37.345  11.630   4.145
68431W        W32639   1.330   7.770   0.358
68432W        W32640  39.810  30.115  11.087
68433W        W32641  40.862  24.594  12.014
68434W        W32642  26.130  43.857   1.885
68435W        W32643  33.618  15.606   2.325
68436W        W32644  39.385  20.231  13.480
68437W        W32645  42.318  18.626   3.151
68438W        W32646   4.376   2.371  13.045
68439W        W32647  18.235   3.823   0.901
68440W        W32648  22.694  25.518  14.437
68441W        W32649  29.008   2.958  13.064
68442W        W32650   0.303  20.177  11.467
68443W        W32651   2.305  40.514   3.313
68444W        W32652  17.072  14.330  14.855
68445W        W32653  34.407  30.597   2.764
68446W        W32654  12.671  41.510   0.405
68447W        W32655  14.689  38.326  12.066
68448W        W32656  25.643  19.197  14.501
68449W        W32657  25.069   1.892   1.229
68450W        W32658   6.796   6.848   4.674
68451W        W32659  40.356  21.745  12.575
68452W        W32660  14.140   5.204  14.368
68453W        W32661   0.467  18.115  12.524
68454W        W32662  39.031   2.957  11.879
68455W        W32663  38.455  34.072  14.461
68456W        W32664  30.077   3.737   3.858
68457W        W32665  44.837  27.159  10.490
68458W        W32666  29.025   5.203  12.543
68459W        W32667  22.705  33.943   1.896
68460W        W32668   4.245   9.341   1.390
68461W        W32669   8.821  29.444  11.466
68462W        W32670   2.436   9.816   1.296
68463W        W32671  14.680   3.838   3.677
68464W        W32672  31.970  17.165   1.835
68465W        W32673  35.888  39.940   0.480
68466W        W32674   6.246  36.961  11.909
68467W        W32675  23.104  21.588  14.975
68468W        W32676   0.901   5.437  10.625
68469W        W32677  28.954  42.463   2.382
68470W        W32678  34.394   5.195  10.491
68471W        W32679  31.133  13.207  10.012
68472W        W32680   8.823   8.302   2.875
68473W        W32681   2.427   6.395  12.512
68474W        W32682  22.644  21.590   0.891
68475W        W32683  32.471   7.704   2.886
68476W        W32684  22.070  25.553   3.646
68477W        W32685  29.595  29.924   1.364
68478W        W32686  35.943   4.818  11.987
68479W        W32687  31.123  12.668   1.750
68480W        W32688   3.353  32.106   0.259
68481W        W32689  10.867  39.397  12.824
68482W        W32690   0.776   0.408  12.871
68483W        W32691  33.113   6.190   4.643
68484W        W32692  17.594  14.338   4.178
68485W        W32693  34.962  41.416   1.840
68486W        W32694  42.321  35.387   2.229
68487W        W32695  25.521  37.913   0.727
68488W        W32696  14.319  21.554   0.832
68489W        W32697  16.248   1.397   2.312
68490W        W32698   8.830   2.845   2.216
68491W        W32699   6.779  29.062  12.009
68492W        W32700  32.401  13.689   0.858
68493W        W32701  41.300  31.029  11.377
68494W        W32702  25.604  11.825  11.986
68495W        W32703  23.729  43.458  14.422
68496W        W32704  36.981  25.633   2.888
68497W        W32705  25.044  30.046  14.874
68498W        W32706  44.883  32.546   3.270
68499W        W32707   3.818  31.489  11.593
68500W        W32708  19.698   4.398  11.067
68501W        W32709  17.747  42.331  11.408
68502W        W32710  20.533  25.489  12.928
68503W        W32711   4.718  40.321  14.396
68504W        W32712   6.399   9.224   1.355
68505W        W32713   1.757   0.819   4.193
68506W        W32714  37.355  40.014   4.641
68507W        W32715  31.993  11.643  14.811
68508W        W32716  29.173   1.957   3.828
68509W        W32717  10.152  22.191  12.543
68510W        W32718  12.195  12.257  10.562
68511W        W32719  30.570  28.958  11.950
68512W        W32720  44.344   3.895   0.358
68513W        W32721  36.026  26.113  10.533
68514W        W32722  13.296  14.809   4.302
68515W        W32723  32.502   1.870   0.919
68516W        W32724  26.094  25.558   0.780
68517W        W32725   0.768  42.904   1.797
68518W        W32726  36.583   3.910  14.967
68519W        W32727  44.932   6.767  11.412
68520W        W32728  15.161  18.262  14.907
68521W        W32729   1.265  27.686   3.741
68522W        W32730  10.660  27.457  13.800
68523W        W32731  15.263  20.576  12.856
68524W        W32732  24.160  13.610  13.973
68525W        W32733  30.458  36.438   0.258
68526W        W32734  42.968   8.840  12.062
68527W        W32735   6.759  22.134  11.481
68528W        W32736  18.772  22.673   3.303
68529W        W32737  10.687  17.627   3.756
68530W        W32738   7.381  12.649  11.512
68531W        W32739  19.639  25.984   0.311
68532W        W32740  13.182  21.567  14.870
68533W        W32741  42.027  11.346   0.797
68534W        W32742  22.228  21.611   1.858
68535W        W32743  34.000  18.269  10.457
68536W        W32744   7.743  10.320   5.224
68537W        W32745  11.770  21.138   4.200
68538W        W32746  42.420  36.949  14.344
68539W        W32747  40.799  13.729  14.341
68540W        W32748  39.824  20.189   9.573
68541W        W32749  13.731   4.416   4.133
68542W        W32750  32.559  42.522   0.729
68543W        W32751  19.232  44.500  10.447
68544W        W32752   2.742   3.917  10.569
68545W        W32753  27.022  18.718   1.396
68546W        W32754  35.014   6.783   4.679
68547W        W32755  37.875   7.846   0.967
68548W        W32756   6.376   4.221  10.622
68549W        W32757  21.641  28.509   1.234
68550W        W32758  44.309  44.826   1.737
68551W        W32759   3.803  35.371  12.454
68552W        W32760   0.914  34.090   3.303
68553W        W32761  19.660  10.640   3.177
68554W        W32762  17.272  12.147   3.650
68555W        W32763   9.194  29.018   2.269
68556W        W32764  28.127  26.512  11.600
68557W        W32765  28.676  11.298   0.878
68558W        W32766   9.337  20.272  14.992
68559W        W32767  36.544  24.632   1.734
68560W        W32768  42.822   6.367  12.344
68561W        W32769  34.505  17.604  10.432
68562W        W32770  15.086   8.358   0.316
68563W        W32771  34.991  25.980  11.570
68564W        W32772  13.230  20.108   0.963
68565W        W32773  18.569  20.762   1.313
68566W        W32774  21.244   3.853   2.210
68567W        W32775  30.620  22.141   2.704
68568W        W32776   2.403  39.824   2.413
68569W        W32777  14.241   7.877  12.348
68570W        W32778   5.402  33.025   2.684
68571W        W32779  42.486  22.168   4.187
68572W        W32780  20.185  10.652  12.873
68573W        W32781  21.668  10.825  11.998
68574W        W32782  40.922   7.372   4.117
68575W        W32783  11.678  42.511  10.580
68576W        W32784  29.112  40.464   4.305
68577W        W32785   7.415  37.364  14.024
68578W        W32786  14.619   5.730  12.843
68579W        W32787   5.374  37.892  10.999
68580W        W32788  18.056  43.988   3.211
68581W        W32789  40.973   7.901  13.948
68582W        W32790  17.099  22.712   4.732
68583W        W32791  24.563  35.489   3.684
68584W        W32792  15.702  22.727  13.821
68585W        W32793   8.376  16.729   2.365
68586W        W32794  37.494  24.527   1.361
68587W        W32795  28.625  27.540   3.795
68588W        W32796  35.370   1.867  14.020
68589W        W32797  16.762  29.604   3.266
68590W        W32798  42.331  39.843  13.476
68591W        W32799  20.685  20.608   3.839
68592W        W32800  15.252   8.710   0.481
68593W        W32801  17.270   1.277  12.002
68594W        W32802  29.464  43.342   0.905
68595W        W32803  30.063   6.852   2.684
68596W        W32804   0.345  12.221   2.358
68597W        W32805   0.414  32.952  14.793
68598W        W32806  41.445  17.561   2.285
68599W        W32807  13.696  12.173   2.292
68600W        W32808  30.422   5.876  13.481
68601W        W32809  13.145  24.006  14.850
68602W        W32810  18.571   3.742  12.380
68603W        W32811  31.423  28.050   0.280
68604W        W32812  14.325   7.676  14.348
68605W        W32813  14.329  31.581  12.905
68606W        W32814  42.336  10.827   0.792
68607W        W32815  30.578   3.294  12.370
68608W        W32816   2.273  37.069  13.310
68609W        W32817  22.170  34.478  13.905
68610W        W32818   7.340   9.234  14.870
68611W        W32819  44.984   9.264   4.663
68612W        W32820  34.970   5.803  14.414
68613W        W32821  30.071  31.941   0.385
68614W        W32822   1.969  17.670  13.833
68615W        W32823  12.202  26.684   3.331
68616W        W32824  36.997  44.351   2.219
68617W        W32825  17.744  13.779   3.648
68618W        W32826   4.229   6.732  14.906
68619W        W32827  42.335   9.796  13.487
68620W        W32828  34.002  28.489  12.980
68621W        W32829  38.996   4.759   1.318
68622W        W32830  36.842  10.656   2.746
68623W        W32831   4.893  25.103  10.110
68624W        W32832  11.771   9.230  13.411
68625W        W32833  15.729  27.607  10.893
68626W        W32834   6.221  34.563   4.672
68627W        W32835  18.599  41.999  10.458
68628W        W32836  10.806  11.263   1.875
68629W        W32837  20.610  42.421  12.484
68630W        W32838  13.781   0.878   1.212
68631W        W32839   4.938  32.410   0.793
68632W        W32840  35.443  15.207  11.527
68633W        W32841  19.703  20.227   2.897
68634W        W32842   0.398  41.514  14.900
68635W        W32843   7.729  22.662   2.225
68636W        W32844  29.445  22.511   4.701
68637W        W32845  26.040  35.985  10.992
68638W        W32846  10.330  37.483  13.497
68639W        W32847  41.952  20.057  12.453
68640W        W32848  38.496  11.645  10.538
68641W        W32849  41.385  17.753  12.429
68642W        W32850  19.616  44.332  12.424
68643W        W32851   5.336  10.666   2.866
68644W        W32852  28.954   7.734  12.520
68645W        W32853  25.560  18.583  14.398
68646W        W32854  43.373  18.258   4.220
68647W        W32855  44.997  41.016   1.766
68648W        W32856  29.025  13.243  11.962
68649W        W32857  30.543  33.941   1.830
68650W        W32858  38.457  22.735   4.628
68651W        W32859  16.166  29.577  14.906
68652W        W32860  14.688  22.671   3.285
68653W        W32861  23.544   5.325   2.196
68654W        W32862  33.924   2.765  11.489
68655W        W32863  25.134  31.054  10.423
68656W        W32864  44.314  29.563  11.004
68657W        W32865  22.106  22.201  13.391
68658W        W32866  23.014  22.019  13.024
68659W        W32867  37.864  40.460   0.312
68660W        W32868  42.011  21.632  14.887
68661W        W32869  20.233  21.619   1.354
68662W        W32870  13.805  35.440   4.741
68663W        W32871  15.123  40.843  13.850
68664W        W32872  13.333  38.363   4.143
68665W        W32873   6.345  25.964  12.015
68666W        W32874  19.542   2.903  11.952
68667W        W32875  35.597   3.731   4.200
68668W        W32876   9.201  17.780  12.095
68669W        W32877   2.744   4.821  14.419
68670W        W32878  17.185  41.429  10.115
68671W        W32879  44.345  15.315  12.485
68672W        W32880  26.698  32.938  10.513
68673W        W32881   6.342  35.051   1.885
68674W        W32882   6.847  15.592   2.362
68675W        W32883  21.091  15.142  14.476
68676W        W32884  12.201   9.656   2.751
68677W        W32885   5.767  40.324  14.365
68678W        W32886  30.507  19.169   2.330
68679W        W32887  34.405  35.371   4.708
68680W        W32888  44.379  16.648  10.476
68681W        W32889  18.712   5.868  12.087
68682W        W32890  12.786  12.815  12.034
68683W        W32891  24.228  16.198  12.564
68684W        W32892  28.031  42.321   1.235
68685W        W32893  25.143  38.068   0.352
68686W        W32894   4.384  18.750  14.779
68687W        W32895   2.738  16.231  11.082
68688W        W32896  33.055  15.225  10.473
68689W        W32897  10.184   4.404  12.501
68690W        W32898   6.271  26.529   3.662
68691W        W32899  42.357   6.778  12.882
68692W        W32900  15.598  23.059  13.911
68693W        W32901  21.754  15.702   0.741
68694W        W32902  22.088   9.868   1.277
68695W        W32903  22.243  38.484  10.595
68696W        W32904  43.970  21.693  14.004
68697W        W32905  27.668  32.139   2.737
68698W        W32906  32.598  40.478  10.590
68699W        W32907   9.208  37.837   2.390
68700W        W32908  15.624  35.559  14.464
68701W        W32909   2.404   4.252  12.021
68702W        W32910   4.868   5.242   3.247
68703W        W32911  21.174  16.613   2.826
68704W        W32912  35.865  33.055  14.461
68705W        W32913  40.310  26.650   5.227
68706W        W32914  20.560  36.065   3.161
68707W        W32915  15.180  39.980  12.909
68708W        W32916   3.934  39.055  13.314
68709W        W32917  31.019   9.802  14.861
68710W        W32918  12.328  30.484   4.253
68711W        W32919  23.122  18.251  12.003
68712W        W32920   4.845  17.235  14.378
68713W        W32921  35.060  16.296  13.529
68714W        W32922  24.566  11.656  11.586
68715W        W32923   8.889  23.194   2.715
68716W        W32924  42.974  12.626  11.020
68717W        W32925  23.718  13.783   3.293
68718W        W32926  37.929   1.782  12.417
68719W        W32927  16.687  14.596   1.736
68720W        W32928  30.939  11.320  12.472
68721W        W32929  16.708  17.147  11.950
68722W        W32930  13.259  39.474  13.793
68723W        W32931  16.757  30.146   3.249
68724W        W32932  13.222   2.293   3.355
68725W        W32933  40.997  38.457  11.946
68726W        W32934  29.014  24.524   0.775
68727W        W32935  31.616  41.017  11.078
68728W        W32936   6.375  20.242   3.212
68729W        W32937  14.234   0.328   3.330
68730W        W32938  18.144  21.065   1.868
68731W        W32939  11.817  14.312  13.520
68732W        W32940  43.766  26.542   4.157
68733W        W32941  30.069  43.505  11.069
68734W        W32942  10.382  18.054  12.500
68735W        W32943  37.359  38.921   2.304
68736W        W32944  11.189  24.487  11.983
68737W        W32945  23.724  31.537   4.279
68738W        W32946  35.977  22.647   4.719
68739W        W32947   7.405  32.471  10.570
68740W        W32948  43.979  14.780   4.788
68741W        W32949  39.988  21.728  13.050
68742W        W32950  41.301  32.589  11.976
68743W        W32951  40.989   8.710  11.090
68744W        W32952  16.773  32.966   0.365
68745W        W32953   9.709  16.162  11.912
68746W        W32954  37.354  38.442   0.870
68747W        W32955  10.243  33.448   2.839
68748W        W32956  26.108   2.411  12.093
68749W        W32957   2.724  13.343   4.816
68750W        W32958  33.593   6.355   2.853
68751W        W32959   8.362  32.023   1.823
68752W        W32960  11.301  38.547  11.920
68753W        W32961  15.282   7.230  13.418
68754W        W32962  12.174  43.424  13.900
68755W        W32963  29.037  38.491   3.234
68756W        W32964  14.787   8.180   3.178
68757W        W32965  25.211  43.989   3.781
68758W        W32966  34.517  17.303  13.960
68759W        W32967  17.567   7.341  14.974
68760W        W32968  41.024   9.879  12.485
68761W        W32969  38.837  24.678  12.934
68762W        W32970  14.110  10.290   3.289
68763W        W32971  36.033  32.471   4.669
68764W        W32972   3.274   5.730  12.845
68765W        W32973  22.057  24.015  14.846
68766W        W32974  22.248  13.261  13.825
68767W        W32975  18.567  34.395   3.303
68768W        W32976   9.783  32.019   4.163
68769W        W32977   8.395   5.377   1.374
68770W        W32978   0.481  18.685   1.283
68771W        W32979   2.905  26.099  13.494
68772W        W32980  32.412  14.319  14.870
68773W        W32981  34.396  26.982  13.446
68774W        W32982  19.140  12.844  14.990
68775W        W32983   3.802   3.338   0.260
68776W        W32984  43.406  42.942  14.399
68777W        W32985  41.813   1.381   3.802
68778W        W32986  16.080  18.577   2.329
68779W        W32987   8.235  24.119  12.400
68780W        W32988   9.173  14.698   4.656
68781W        W32989  34.552   0.900   4.640
68782W        W32990  26.665  32.506  13.495
68783W        W32991  36.091   0.482   2.713
68784W        W32992  41.799  27.599   4.270
68785W        W32993   1.966  36.944  12.349
68786W        W32994  17.172   1.459   0.358
68787W        W32995  21.077  18.780  10.994
68788W        W32996  44.339  17.187  13.064
68789W        W32997  30.571  25.118  11.046
68790W        W32998   7.877  38.884  10.072
68791W        W32999  28.672  33.481   0.472
68792W        W33000   4.852  28.058   5.088
68793W        W33001  31.409  31.991  13.389
68794W        W33002  41.807  12.231  10.416
68795W        W33003  32.423  17.182   3.212
68796W        W33004  32.989  39.560  11.905
68797W        W33005  14.778  10.138   4.253
68798W        W33006  41.535  44.785  14.345
68799W        W33007  14.834  43.926   0.779
68800W        W33008  17.658  44.310  14.925
68801W        W33009   1.899  29.495  10.126
68802W        W33010  41.959  31.473  13.409
68803W        W33011  34.589  22.531  10.428
68804W        W33012  12.223  42.398  14.763
68805W        W33013  12.209  31.554  10.925
68806W        W33014   5.427   6.360  12.567
68807W        W33015  36.588  16.144  12.988
68808W        W33016  16.704  14.187   2.844
68809W        W33017  22.075  11.228   3.313
68810W        W33018  40.468   6.807  12.378
68811W        W33019  18.105  34.946  11.439
68812W        W33020  31.063  22.574  11.907
68813W        W33021  44.358   9.713  10.900
68814W        W33022  16.710  34.896  12.540
68815W        W33023  11.822  32.512  11.455
68816W        W33024  39.392  30.145   1.244
68817W        W33025  27.469  15.643  12.506
68818W        W33026  42.859  32.619  12.903
68819W        W33027  30.026   5.369   1.394
68820W        W33028  41.390  25.025   0.933
68821W        W33029  43.943   4.801  11.937
68822W        W33030  39.914  17.579   0.352
68823W        W33031  18.157  35.412   0.784
68824W        W33032  39.058   0.843  14.345
68825W        W33033  27.537  25.587  12.440
68826W        W33034  23.689  43.010  14.992
68827W        W33035  15.112  16.710   0.794
68828W        W33036  19.667  16.590   3.812
68829W        W33037  36.576  41.467   3.266
68830W        W33038  41.536   1.240   2.688
68831W        W33039  24.103  32.085   2.283
68832W        W33040  11.644   6.815  13.381
68833W        W33041  25.017  39.442   0.308
68834W        W33042   8.681  32.079  14.946
68835W        W33043   7.734  21.064  11.444
68836W        W33044  16.792  30.046   0.815
68837W        W33045  40.311  32.958   1.324
68838W        W33046  29.077  25.148  13.965
68839W        W33047  23.064  31.977  11.881
68840W        W33048  26.667  23.067   4.320
68841W        W33049   1.822  13.305  14.326
68842W        W33050   2.915  32.634   4.602
68843W        W33051   0.430  27.471   5.288
68844W        W33052  33.592  39.988   1.698
68845W        W33053  21.754   9.222   3.163
68846W        W33054   4.856  39.372  13.028
68847W        W33055  40.884   8.302   1.241
68848W        W33056  14.179  24.653   3.838
68849W        W33057  36.488  34.078   0.427
68850W        W33058   3.924  30.485   2.844
68851W        W33059  13.345  26.103  11.102
68852W        W33060  29.030  37.902  13.428
68853W        W33061  18.592  17.641   1.395
68854W        W33062  17.660  25.614   0.805
68855W        W33063  36.928   8.316   0.284
68856W        W33064  23.538  22.150   0.802
68857W        W33065   1.237  18.700  14.773
68858W        W33066  19.621  20.163  13.374
68859W        W33067  21.627  28.048   2.395
68860W        W33068  13.318  24.999   2.712
68861W        W33069  19.079  41.320  14.278
68862W        W33070   6.249  34.532   3.727
68863W        W33071  25.138  22.238   4.163
68864W        W33072  37.464  31.412   1.411
68865W        W33073   3.454  17.768  12.047
68866W        W33074  24.042  30.610   2.353
68867W        W33075   7.685   8.862   4.133
68868W        W33076  32.604   6.852  13.424
68869W        W33077  15.178   2.939   3.836
68870W        W33078  23.137  16.300   2.347
68871W        W33079  40.980  38.566  13.542
68872W        W33080  40.480  21.079   4.277
68873W        W33081  30.102  41.485   1.762
68874W        W33082  24.176  25.090   1.421
68875W        W33083  29.093  22.641   1.864
68876W        W33084  24.484  42.495  14.511
68877W        W33085  39.355  38.441   4.698
68878W        W33086   1.475  10.643  12.536
68879W        W33087   6.409   2.865   0.414
68880W        W33088  13.753  40.950  14.429
68881W        W33089  21.184  27.074  11.891
68882W        W33090   4.393  43.886  14.883
68883W        W33091  32.051  40.478  11.063
68884W        W33092   2.743   2.781  12.933
68885W        W33093  21.572  39.542  13.825
68886W        W33094   6.895  18.709   3.867
68887W        W33095  34.486   1.275  12.380
68888W        W33096  39.006  39.961   9.952
68889W        W33097  16.313   6.810  12.940
68890W        W33098  27.592   1.775   1.806
68891W        W33099  30.976  38.509  13.910
68892W        W33100  32.997  17.560  12.558
68893W        W33101  24.036  30.483  10.612
68894W        W33102  27.180  39.830   4.122
68895W        W33103   5.266   9.821  11.047
68896W        W33104  40.323  23.055  11.064
68897W        W33105  27.065  26.952  13.376
68898W        W33106  17.719   3.763   0.282
68899W        W33107  17.116  16.092  14.830
68900W        W33108  26.607   3.217  12.346
68901W        W33109   2.309   2.764  14.499
68902W        W33110   9.656  28.098   1.400
68903W        W33111   0.817  36.000  10.952
68904W        W33112  10.877  36.843   0.752
68905W        W33113  15.316   9.732  12.489
68906W        W33114  44.499  31.116  13.365
68907W        W33115  19.188  33.417   1.847
68908W        W33116  44.784  40.033   1.345
68909W        W33117  12.619   1.307  14.918
68910W        W33118   2.775   7.283   3.630
68911W        W33119  32.418  27.180   3.638
68912W        W33120  15.646  17.272  12.072
68913W        W33121   8.193  42.845   4.208
68914W        W33122  30.087  23.091   4.768
68915W        W33123  27.547   6.420  10.600
68916W        W33124  14.723  27.029  13.872
68917W        W33125   6.820  22.668  10.921
68918W        W33126  21.139  15.654   3.244
68919W        W33127  15.146   0.988  13.893
68920W        W33128  28.179  25.127   2.299
68921W        W33129  23.661  28.671   4.265
68922W        W33130   6.341  13.131   2.741
68923W        W33131  26.477   8.226  10.966
68924W        W33132  18.623  21.194   2.384
68925W        W33133  20.535   2.339  10.595
68926W        W33134  41.404  33.558  11.447
68927W        W33135  30.088  42.949  12.417
68928W        W33136  21.051  24.583  11.110
68929W        W33137  29.093  14.809   3.292
68930W        W33138  13.196  31.942  13.909
68931W        W33139  40.849  21.151   4.598
68932W        W33140  27.454  30.462  13.955
68933W        W33141  40.312   9.688  11.860
68934W        W33142   6.224   9.698  12.466
68935W        W33143  40.897  33.409   1.797
68936W        W33144  44.757  39.979   4.344
68937W        W33145  20.704  30.914  13.925
68938W        W33146  13.829  20.724  13.940
68939W        W33147  18.651  44.009  14.497
68940W        W33148  15.251   3.765   1.867
68941W        W33149  32.560   8.268   0.428
68942W        W33150  27.644  23.166   0.373
68943W        W33151  27.531  41.392   4.613
68944W        W33152   1.944  44.281   1.376
68945W        W33153  27.068  25.174   4.337
68946W        W33154  36.450  22.586   1.719
68947W        W33155  34.480  37.432   1.412
68948W        W33156   9.215  20.734  12.508
68949W        W33157   4.912  15.674   2.860
68950W        W33158  16.265  40.388  12.954
68951W        W33159  24.177  13.823   4.151
68952W        W33160   2.446  22.644   2.840
68953W        W33161  36.580  12.633   2.300
68954W        W33162  39.327   7.290  12.085
68955W        W33163   0.349  12.237  14.362
68956W        W33164  22.017  27.043  12.874
68957W        W33165  30.071  36.045  13.390
68958W        W33166  18.146  34.561   4.221
68959W        W33167  17.075  27.524  11.092
68960W        W33168  24.183  35.937  12.411
68961W        W33169   4.794   2.758   4.147
68962W        W33170  38.905  39.352  14.814
68963W        W33171  23.008  19.734  12.058
68964W        W33172  42.900  28.077   2.706
68965W        W33173  36.350  15.171   1.886
68966W        W33174  41.996  35.880   4.821
68967W        W33175  22.628  34.008  10.538
68968W        W33176   9.356   8.335   0.305
68969W        W33177   8.200  15.153   1.871
68970W        W33178  41.469  32.100  12.498
68971W        W33179  32.083  10.756   3.199
68972W        W33180  43.903  28.953  12.995
68973W        W33181  11.196   2.427   1.365
68974W        W33182  21.521  16.207  14.365
68975W        W33183  17.556  31.416   2.757
68976W        W33184  34.552  12.814   4.612
68977W        W33185   1.477  30.028   4.755
68978W        W33186   8.300  41.953   4.327
68979W        W33187  15.144  19.217   0.349
68980W        W33188  30.599  35.371   2.204
68981W        W33189  34.082  39.935  10.617
68982W        W33190  33.900  13.262  12.534
68983W        W33191  10.171  34.451   1.932
68984W        W33192  15.144   3.272  11.995
68985W        W33193   7.199  13.274   2.243
68986W        W33194  17.233  21.519   1.835
68987W        W33195  21.260  22.220   2.191
68988W        W33196  26.071  16.145  12.969
68989W        W33197   1.834  43.323  12.430
68990W        W33198   3.783  17.158  14.509
68991W        W33199  40.995   9.222   3.304
68992W        W33200  21.742  15.175  14.947
68993W        W33201  40.853  19.541  14.510
68994W        W33202  30.044  18.062  14.435
68995W        W33203   3.916  42.295  11.552
68996W        W33204  44.779  26.960  13.041
68997W        W33205  40.981  21.123  12.405
68998W        W33206  39.484  29.554   4.294
68999W        W33207  29.520  31.967   3.219
69000W        W33208  11.287  24.052  14.932
69001W        W33209  18.571  17.721  11.922
69002W        W33210   1.468   5.372  11.082
69003W        W33211  43.874  43.472   0.357
69004W        W33212  43.889   9.672   1.300
69005W        W33213  24.667   2.305  13.001
69006W        W33214  18.099   8.401  12.952
69007W        W33215   3.328  43.827  12.479
69008W        W33216  44.372  10.282   4.688
69009W        W33217  12.239  23.228   4.270
69010W        W33218   2.448   2.361   1.825
69011W        W33219  20.043  10.646  14.911
69012W        W33220  41.438  25.013   2.857
69013W        W33221  40.040  11.656   2.668
69014W        W33222   3.394  12.287   4.348
69015W        W33223  19.686  35.431  13.314
69016W        W33224  43.460  13.244  14.415
69017W        W33225  34.589   4.834  13.426
69018W        W33226   4.700  36.941   4.132
69019W        W33227   3.276  16.676  14.451
69020W        W33228  16.785  39.852   3.382
69021W        W33229  35.569  20.712  10.949
69022W        W33230   6.405   4.773  12.094
69023W        W33231  12.848  19.559  13.871
69024W        W33232  21.684  19.701  12.416
69025W        W33233   6.183  33.009   0.272
69026W        W33234  24.508  26.622  10.633
69027W        W33235   1.804   4.882  14.352
69028W        W33236  27.056  25.085   0.734
69029W        W33237  32.038  24.528  12.428
69030W        W33238  15.703  24.017   4.192
69031W        W33239  11.339   1.456  12.390
69032W        W33240  42.970  16.103  10.984
69033W        W33241  24.050  40.874   3.682
69034W        W33242  17.701   9.707  12.895
69035W        W33243  38.499  29.446   3.193
69036W        W33244   4.831  20.247   2.378
69037W        W33245   4.235  16.243   4.600
69038W        W33246  14.218  41.434  11.945
69039W        W33247  34.480  40.362  13.052
69040W        W33248  30.454  14.807   4.195
69041W        W33249   7.780  20.528   2.207
69042W        W33250   3.809   6.779   2.269
69043W        W33251   6.211  19.594  12.955
69044W        W33252  12.657   8.678  11.412
69045W        W33253  35.953  28.498   3.222
69046W        W33254  27.085   1.815   0.306
69047W        W33255  18.549  15.105   4.624
69048W        W33256  17.244   4.909   2.834
69049W        W33257  35.964   3.791  13.361
69050W        W33258  21.528  41.854   4.792
69051W        W33259  12.849   7.746   2.831
69052W        W33260  15.774  37.946   9.451
69053W        W33261   4.308  34.027   2.202
69054W        W33262   8.810  20.189  10.497
69055W        W33263   2.784  40.942  12.930
69056W        W33264   1.762   1.778  12.562
69057W        W33265   7.759  35.096   3.377
69058W        W33266  42.437  31.999   1.837
69059W        W33267   5.900  20.687  13.510
69060W        W33268  31.075  20.239  11.097
69061W        W33269  10.713  15.710   1.730
69062W        W33270  10.246  39.492  14.295
69063W        W33271  33.602  38.925   5.197
69064W        W33272  37.929  27.085  14.879
69065W        W33273  40.355  27.197  13.507
69066W        W33274  16.653   7.187   0.453
69067W        W33275   4.889  22.037  12.959
69068W        W33276  21.679  32.544   2.887
69069W        W33277  22.627   8.854   1.933
69070W        W33278  28.502  29.585  14.305
69071W        W33279  20.577  40.458   0.842
69072W        W33280   0.939   4.888  10.459
69073W        W33281  13.658  44.898  11.979
69074W        W33282  26.151  29.945   2.336
69075W        W33283   0.964  20.063   1.900
69076W        W33284  38.349  21.721  14.299
69077W        W33285  43.977  44.425  12.471
69078W        W33286  38.827  19.276  11.374
69079W        W33287  42.355  36.930  13.838
69080W        W33288   2.388  22.746  11.487
69081W        W33289  39.355   5.792  13.919
69082W        W33290  44.337  18.712   1.243
69083W        W33291  43.309  30.004  13.874
69084W        W33292   1.743  18.207   4.732
69085W        W33293  27.583  36.075   4.144
69086W        W33294  38.981  23.578   4.344
69087W        W33295  26.671   7.728  11.964
69088W        W33296  40.507  40.878  11.473
69089W        W33297  20.212  43.357  13.824
69090W        W33298  32.119   5.206  11.000
69091W        W33299  21.691  41.439   2.204
69092W        W33300  39.502  33.920  13.987
69093W        W33301  26.994  16.790   4.773
69094W        W33302  24.621  16.753   4.136
69095W        W33303  27.635  33.477   1.840
69096W        W33304   6.278  11.161  12.396
69097W        W33305  40.473  43.924  12.372
69098W        W33306   2.392  34.417   9.980
69099W        W33307  21.120  17.761  11.595
69100W        W33308  37.065  23.729  14.012
69101W        W33309  25.966  35.494  12.094
69102W        W33310  38.368  20.753  11.057
69103W        W33311  33.518  33.083  11.547
69104W        W33312  43.463  38.433  10.540
69105W        W33313   2.472   7.715   2.198
69106W        W33314  24.534  37.942  12.519
69107W        W33315  38.839  14.277  13.875
69108W        W33316   4.258  21.043  11.074
69109W        W33317   7.890   8.223  11.964
69110W        W33318  35.869  12.812  14.015
69111W        W33319  23.672   9.775  10.517
69112W        W33320  40.836  20.746   2.414
69113W        W33321  20.224  26.512  11.106
69114W        W33322  39.451  36.930  11.037
69115W        W33323   4.793   2.946   0.321
69116W        W33324  39.553  26.070  11.483
69117W        W33325  16.110  23.177   4.337
69118W        W33326  34.397  12.228   1.420
69119W        W33327  31.000   3.713  14.915
69120W        W33328  30.637  16.156   5.126
69121W        W33329  27.463  12.354   2.706
69122W        W33330  40.336  29.576  14.311
69123W        W33331  36.031   6.897   4.197
69124W        W33332  23.075  34.434  13.350
69125W        W33333  33.505  15.740   3.254
69126W        W33334   9.851   8.390  13.818
69127W        W33335  13.199  33.033  13.877
69128W        W33336  13.605  44.357   4.268
69129W        W33337   1.254  35.412  13.915
69130W        W33338   6.765  25.686   0.936
69131W        W33339  23.207  30.910  14.887
69132W        W33340  42.019   4.283  10.939
69133W        W33341   7.368  39.360  13.947
69134W        W33342  32.612  28.460  13.020
69135W        W33343  20.726  32.964  13.997
69136W        W33344  42.829  44.288   5.207
69137W        W33345   4.253   5.347   3.299
69138W        W33346   2.752  16.164   3.370
69139W        W33347  20.768   5.903   0.793
69140W        W33348   9.690   7.798   4.198
69141W        W33349  35.032  44.479   4.347
69142W        W33350  22.148  33.611  12.402
69143W        W33351  41.004  33.383  14.385
69144W        W33352  40.535   6.391   0.807
69145W        W33353  29.081  29.154   3.848
69146W        W33354  25.614  23.663   4.837
69147W        W33355  21.671  20.646  13.003
69148W        W33356  10.833  20.229   1.696
69149W        W33357  15.114  33.012   1.262
69150W        W33358   1.319  28.438  13.820
69151W        W33359  10.874   0.263   2.849
69152W        W33360  19.729   6.827  13.357
69153W        W33361  23.993  38.333  13.000
69154W        W33362  41.306   0.348  12.893
69155W        W33363  16.767  34.537  14.328
69156W        W33364  27.062   4.753   1.819
69157W        W33365   4.796  11.222  12.024
69158W        W33366  18.085  31.047   4.613
69159W        W33367  25.148  22.122  11.016
69160W        W33368  13.677   2.762  13.014
69161W        W33369   4.794  43.329   1.324
69162W        W33370  20.698  23.638   1.840
69163W        W33371  32.397   1.250  10.894
69164W        W33372  13.267  23.216   2.224
69165W        W33373   6.835  35.871  10.597
69166W        W33374  17.683  40.051  12.551
69167W        W33375   2.408   4.792   4.234
69168W        W33376  17.676   2.466   1.322
69169W        W33377  29.567  34.972  12.441
69170W        W33378   7.753  38.868   3.772
69171W        W33379  40.382  33.450  11.519
69172W        W33380  32.091  32.614  14.282
69173W        W33381  27.026  15.120   1.700
69174W        W33382  14.657  26.621  10.593
69175W        W33383  17.094  40.980   2.728
69176W        W33384   2.930  43.012  13.941
69177W        W33385  40.947  27.530   0.332
69178W        W33386  10.805  38.906   2.401
69179W        W33387  23.090  11.671  12.030
69180W        W33388  44.826  40.364   3.371
69181W        W33389   9.650  23.493   0.309
69182W        W33390  15.769   0.493  14.301
69183W        W33391   6.757  24.012   1.268
69184W        W33392  18.132  31.133   4.291
69185W        W33393  27.636  24.577   2.310
69186W        W33394  44.312  28.173   3.766
69187W        W33395  12.738  25.648   3.277
69188W        W33396  37.515   3.932  12.051
69189W        W33397  13.320  42.870   2.844
69190W        W33398  42.317  42.943  10.530
69191W        W33399  19.719  26.055  14.930
69192W        W33400  37.923  14.226   3.222
69193W        W33401  39.932  39.949  13.805
69194W        W33402  29.092  12.779   0.330
69195W        W33403  29.469   1.409  12.839
69196W        W33404  25.535  21.670  10.449
69197W        W33405  21.680  31.896  13.315
69198W        W33406  44.366  16.285   3.786
69199W        W33407  37.020   7.910  13.437
69200W        W33408  43.414  33.996  14.393
69201W        W33409   4.427  26.519   2.373
69202W        W33410  43.272  16.809  11.082
69203W        W33411  34.989  29.105  14.285
69204W        W33412  11.653  12.656  12.521
69205W        W33413  26.001  31.025   2.414
69206W        W33414  11.765   1.367   2.224
69207W        W33415  38.010  19.187  13.535
69208W        W33416  44.800  39.320  12.570
69209W        W33417  38.861  38.071   3.175
69210W        W33418  15.702  38.558   2.842
69211W        W33419  29.079   7.735   1.799
69212W        W33420   0.966  43.460   1.309
69213W        W33421  44.431  31.009   4.263
69214W        W33422  33.567  44.893   3.153
69215W        W33423  20.160  24.698  12.095
69216W        W33424  27.143   7.206   1.704
69217W        W33425   9.771  37.914  13.537
69218W        W33426   6.422   3.326  10.085
69219W        W33427  26.114  25.059  10.482
69220W        W33428  27.107  14.200  14.941
69221W        W33429  26.086  30.008   3.267
69222W        W33430   9.835  33.476   4.633
69223W        W33431  44.925  32.034   4.197
69224W        W33432  26.624   1.476   1.749
69225W        W33433  43.810  12.237   4.225
69226W        W33434   4.844  41.468   5.275
69227W        W33435  37.527  33.431  11.424
69228W        W33436  38.918  17.689   2.896
69229W        W33437   5.281  38.941   4.806
69230W        W33438  35.101   2.242   1.313
69231W        W33439  26.530  16.271   4.762
69232W        W33440  30.980  10.792  14.903
69233W        W33441   4.236  21.736  10.462
69234W        W33442  23.517  32.503   4.283
69235W        W33443  14.225  23.727  12.906
69236W        W33444  22.179  11.739   1.440
69237W        W33445  26.184  37.855  14.978
69238W        W33446  40.834  31.561  12.412
69239W        W33447  41.952  42.855  11.893
69240W        W33448  38.335  11.135  12.880
69241W        W33449  31.123  13.208   0.776
69242W        W33450  10.355  22.710  12.835
69243W        W33451   2.817  23.511  13.548
69244W        W33452  11.211   1.387   0.332
69245W        W33453  40.404  21.096  12.536
69246W        W33454  15.285   2.428   2.197
69247W        W33455  15.612  15.314   0.309
69248W        W33456  29.954  25.067   2.191
69249W        W33457  34.020  15.213  12.531
69250W        W33458  21.033   9.662   0.743
69251W        W33459  28.599  23.161  14.953
69252W        W33460  22.250   3.418  11.609
69253W        W33461  16.212  28.010  14.026
69254W        W33462  22.642  22.596  10.147
69255W        W33463  27.131  21.512  11.098
69256W        W33464  37.448  37.951   4.688
69257W        W33465  42.484  24.983   2.776
69258W        W33466  20.173  36.001   4.743
69259W        W33467  15.287   1.448   2.303
69260W        W33468  16.787  22.560  11.380
69261W        W33469  33.549  44.829   4.345
69262W        W33470   0.947  11.167  12.093
69263W        W33471   2.769  10.647   3.644
69264W        W33472  32.900  33.610   2.357
69265W        W33473  37.485  36.562   3.675
69266W        W33474  41.800  24.671  12.974
69267W        W33475  29.989  34.974   4.756
69268W        W33476  22.557   9.738  12.091
69269W        W33477  29.038  29.954  14.812
69270W        W33478  13.843   6.270  11.969
69271W        W33479  13.695  25.579   2.751
69272W        W33480  15.644   3.798  11.523
69273W        W33481  23.664  34.471  11.480
69274W        W33482  21.651  26.204  13.971
69275W        W33483  13.259  23.152  11.098
69276W        W33484  35.929  37.457  14.806
69277W        W33485   2.253   3.940  14.882
69278W        W33486  41.817  24.583   2.250
69279W        W33487  44.471  13.642  11.527
69280W        W33488  41.933  26.508  10.966
69281W        W33489   5.713  26.656  11.103
69282W        W33490  28.585  24.205  13.341
69283W        W33491  19.533  10.258  12.035
69284W        W33492  36.894   3.222  10.964
69285W        W33493  42.475  29.660  13.871
69286W        W33494  20.678  38.001   0.762
69287W        W33495  20.160  12.637  10.041
69288W        W33496  34.066   6.887   3.239
69289W        W33497  23.497  12.181  14.494
69290W        W33498  32.575  15.764  14.423
69291W        W33499   9.776  27.088   3.647
69292W        W33500  17.555  25.023   0.292
69293W        W33501  30.438  36.437  14.804
69294W        W33502  39.029  29.607   1.448
69295W        W33503  15.752  21.554  10.004
69296W        W33504  28.470  14.639   4.169
69297W        W33505  34.876  25.660   0.856
69298W        W33506  35.444   7.349  12.079
69299W        W33507   3.862  43.974   3.642
69300W        W33508  38.468   3.818   5.254
69301W        W33509  37.387  34.896   2.235
69302W        W33510  36.925  44.309  12.378
69303W        W33511   3.321  39.395   3.730
69304W        W33512   5.933   5.752   0.956
69305W        W33513  42.411  12.675  13.873
69306W        W33514   0.975   3.781  11.442
69307W        W33515  11.687  33.059  12.371
69308W        W33516  20.584   8.312   5.318
69309W        W33517  34.884  23.211  12.834
69310W        W33518  40.541   5.840  12.977
69311W        W33519   4.282  13.781  11.521
69312W        W33520  16.124  44.952   3.291
69313W        W33521  24.487  34.894  12.554
69314W        W33522  36.545  27.190   4.625
69315W        W33523  41.338  18.189  13.064
69316W        W33524   1.436   1.391  10.040
69317W        W33525  42.349   7.834   3.836
69318W        W33526  15.119   1.420  12.956
69319W        W33527  43.902  30.428  11.956
69320W        W33528  44.769  26.093   1.702
69321W        W33529  32.094  39.034   2.351
69322W        W33530  28.166  39.920   4.181
69323W        W33531  32.011  35.920   2.221
69324W        W33532  36.053  10.751  13.545
69325W        W33533  34.063  35.446   3.241
69326W        W33534  43.505   9.813  12.051
69327W        W33535  14.223  23.733   3.803
69328W        W33536  42.307  38.999  12.399
69329W        W33537  35.082  11.259   3.791
69330W        W33538  12.246  20.248  14.449
69331W        W33539   5.403  39.930   0.789
69332W        W33540  13.107  43.872   0.758
69333W        W33541  17.701  10.213   3.325
69334W        W33542  16.236  32.411   0.839
69335W        W33543  31.062  10.761  11.605
69336W        W33544   9.201   8.184   2.340
69337W        W33545  11.655  17.781   1.346
69338W        W33546  31.645  31.017   0.387
69339W        W33547  21.637  42.334  14.974
69340W        W33548  28.084   8.260  11.512
69341W        W33549  22.229  19.183  13.502
69342W        W33550   4.270   4.800  12.426
69343W        W33551   6.780  27.067   4.639
69344W        W33552  16.772  44.435   1.242
69345W        W33553  30.126   1.431  10.977
69346W        W33554  11.138  26.570   0.930
69347W        W33555  10.146  11.682  14.964
69348W        W33556  35.445  37.371  13.793
69349W        W33557   2.247  16.315  11.597
69350W        W33558  17.274  29.987  11.915
69351W        W33559   6.274   6.837   4.725
69352W        W33560  32.478  39.861  11.474
69353W        W33561   8.293  29.556  12.347
69354W        W33562  29.008  33.440   1.428
69355W        W33563  33.568   9.879  13.540
69356W        W33564  22.063  36.571  12.848
69357W        W33565  30.963   9.312  10.467
69358W        W33566  18.778  11.176   4.278
69359W        W33567  31.572  20.612   1.812
69360W        W33568  22.603  44.998  14.350
69361W        W33569   4.307   5.227  11.996
69362W        W33570   0.489  12.830  10.590
69363W        W33571   8.230   9.166   4.610
69364W        W33572  41.936  42.822   2.845
69365W        W33573  12.716   6.858  10.641
69366W        W33574  39.047  33.026   0.940
69367W        W33575  41.363   2.303  10.904
69368W        W33576  10.340  11.237  12.554
69369W        W33577  22.610  29.089   1.416
69370W        W33578  37.365  33.917  14.323
69371W        W33579  12.801  43.942   2.316
69372W        W33580   1.340  28.152   0.869
69373W        W33581  32.474  40.336  13.948
69374W        W33582  33.038   7.193   1.859
69375W        W33583  10.700   1.783  11.457
69376W        W33584   5.295  31.918  13.030
69377W        W33585  18.085  35.987  12.396
69378W        W33586  29.081  26.507  10.039
69379W        W33587  37.909  13.824  13.831
69380W        W33588  30.577  40.354   1.908
69381W        W33589  23.221  19.648   1.229
69382W        W33590  12.174   7.374   1.259
69383W        W33591  21.523   4.849   3.682
69384W        W33592  34.410  23.069  12.069
69385W        W33593  18.233   1.342   0.352
69386W        W33594   4.344  12.259   1.710
69387W        W33595  43.920  17.125   4.607
69388W        W33596  21.220  36.062  11.519
69389W        W33597  19.702  10.178   3.286
69390W        W33598  11.158  44.339  10.988
69391W        W33599  28.458  38.850   4.193
69392W        W33600  30.436  24.145   0.361
69393W        W33601  44.966  28.498  12.558
69394W        W33602  10.670  28.471   4.119
69395W        W33603   9.284   6.706   1.392
69396W        W33604   9.836  40.018   0.870
69397W        W33605  31.947  10.756   4.272
69398W        W33606   9.838  38.490   0.881
69399W        W33607  24.064  16.570  12.472
69400W        W33608  31.528  35.384   3.712
69401W        W33609  41.405  20.074   4.721
69402W        W33610  38.033   7.856   0.391
69403W        W33611  23.636  38.056  12.472
69404W        W33612  41.022  44.856  12.570
69405W        W33613  41.038  36.420  11.911
69406W        W33614  14.791  25.217   2.262
69407W        W33615  19.057   6.426  13.910
69408W        W33616  18.694  40.471   5.687
69409W        W33617  44.888  25.665  13.057
69410W        W33618   5.934  18.114  10.528
69411W        W33619  32.926  18.179   1.271
69412W        W33620  10.383  38.456   4.652
69413W        W33621  26.010  18.090   0.434
69414W        W33622  29.483  42.479   0.965
69415W        W33623  36.847  24.581  14.948
69416W        W33624  30.631  39.416   4.177
69417W        W33625  25.020   4.414   0.891
69418W        W33626  32.100  39.415   1.931
69419W        W33627  19.674  24.618  14.284
69420W        W33628  16.790  39.329   0.312
69421W        W33629  10.381   5.427  11.483
69422W        W33630  29.455  13.179  12.026
69423W        W33631  15.265  20.254  11.507
69424W        W33632  12.777  37.864   1.314
69425W        W33633  24.521  17.735  13.538
69426W        W33634  13.189  14.108  11.596
69427W        W33635  22.532  29.988   0.342
69428W        W33636  39.521  37.914   1.216
69429W        W33637   5.883  32.509  11.087
69430W        W33638  22.702  19.183  13.347
69431W        W33639  34.570   3.253  12.026
69432W        W33640   6.288  13.784   3.794
69433W        W33641  16.236  24.562   0.937
69434W        W33642   2.804  33.576   4.768
69435W        W33643  20.227   4.248   9.944
69436W        W33644  32.454  40.489   1.281
69437W        W33645  28.454  35.396   4.837
69438W        W33646  23.525  25.083   3.705
69439W        W33647  39.450  39.910   3.293
69440W        W33648  12.655   3.912  13.048
69441W        W33649  18.607  31.960   0.835
69442W        W33650  27.171   0.862  12.938
69443W        W33651   8.174  38.000  11.916
69444W        W33652  41.535  12.815   3.867
69445W        W33653  20.181   6.858  12.950
69446W        W33654  10.824  28.159  10.410
69447W        W33655  12.634  21.245   0.855
69448W        W33656  41.909  16.184   1.828
69449W        W33657  27.057   5.714  10.981
69450W        W33658  10.713   2.361   3.227
69451W        W33659   7.314  21.749  11.383
69452W        W33660  38.529  43.791  12.414
69453W        W33661  17.157   0.968   0.257
69454W        W33662  11.290  33.548  12.523
69455W        W33663  37.051   5.801   2.235
69456W        W33664  21.600  36.514   4.236
69457W        W33665  15.763   5.892  10.934
69458W        W33666  38.527  23.190   1.914
69459W        W33667  18.613   8.893  11.060
69460W        W33668  18.205   7.290  13.500
69461W        W33669  42.811   3.897   1.391
69462W        W33670  31.435  28.672  14.914
69463W        W33671  34.003  13.667  10.969
69464W        W33672  20.204  35.983   0.896
69465W        W33673  17.692   4.839  11.524
69466W        W33674   7.416  42.522  14.299
69467W        W33675  41.348  17.245  11.918
69468W        W33676  10.640  28.050   4.162
69469W        W33677  31.470  20.130   4.728
69470W        W33678  26.602  44.872  11.596
69471W        W33679  10.215  16.184  11.996
69472W        W33680  30.056  33.931   4.161
69473W        W33681  44.795  23.562  12.947
69474W        W33682  16.264   9.738   0.952
69475W        W33683  21.643   0.869   1.398
69476W        W33684   1.403  30.139   1.244
69477W        W33685   5.250  33.489  10.107
69478W        W33686  33.110  13.704   0.469
69479W        W33687  39.815  42.858   2.788
69480W        W33688  37.453  19.094   2.196
69481W        W33689  23.148  18.782   1.343
69482W        W33690   9.673  38.351   1.448
69483W        W33691  41.423  28.488  11.985
69484W        W33692  41.488  18.203   2.861
69485W        W33693   5.804  41.975   0.816
69486W        W33694   0.948   8.190  11.392
69487W        W33695   0.308   5.780   4.234
69488W        W33696  32.128  35.417  14.413
69489W        W33697  39.493  42.003   4.734
69490W        W33698  44.867  34.506   4.224
69491W        W33699  19.216   0.368   1.414
69492W        W33700  36.875  33.379   0.305
69493W        W33701  40.953  42.286   2.309
69494W        W33702  40.476  22.235  13.452
69495W        W33703  38.851  34.389   0.841
69496W        W33704  14.609  22.734  10.005
69497W        W33705  16.225   8.700  13.329
69498W        W33706  14.642  28.467  14.004
69499W        W33707  22.127  41.855  11.915
69500W        W33708  19.203  17.278  11.871
69501W        W33709  23.226  29.010   0.782
69502W        W33710  10.160   8.210   2.303
69503W        W33711  41.916   1.308   0.444
69504W        W33712  29.972   4.342  11.050
69505W        W33713  39.335  16.205   4.707
69506W        W33714   1.405  10.164  11.538
69507W        W33715  28.591  17.582  10.438
69508W        W33716  17.203   2.358   2.768
69509W        W33717  35.072  41.339  10.065
69510W        W33718   6.783  21.707  14.477
69511W        W33719  25.573  25.097  12.013
69512W        W33720  20.723  12.804  12.446
69513W        W33721   5.933  44.789  11.469
69514W        W33722  10.318  37.438   4.190
69515W        W33723  17.113  17.107  14.790
69516W        W33724  14.120  19.613   2.762
69517W        W33725  42.349  42.486   4.192
69518W        W33726   2.378  38.497  14.861
69519W        W33727  15.729   9.204  14.818
69520W        W33728  41.354  41.504   0.330
69521W        W33729  40.348  22.138  10.554
69522W        W33730   3.395  41.531   4.331
69523W        W33731  15.681  33.940   4.327
69524W        W33732  25.708  32.052  11.898
69525W        W33733  18.236  36.959  14.278
69526W        W33734  34.023  43.879   1.733
69527W        W33735   4.411   7.721   3.256
69528W        W33736  22.631  31.954   4.243
69529W        W33737   8.263   3.258  11.998
69530W        W33738  22.146  12.847   3.191
69531W        W33739  32.951  11.731   3.820
69532W        W33740  31.907  12.794  13.502
69533W        W33741  29.002  34.518   4.232
69534W        W33742  11.680  15.768   2.341
69535W        W33743  36.068  35.602   2.328
69536W        W33744  31.030   9.792   0.431
69537W        W33745   3.222  24.013  13.493
69538W        W33746  21.733  13.664   2.186
69539W        W33747  38.948  17.163  13.913
69540W        W33748  42.921   1.895  11.441
69541W        W33749  23.625  23.686  12.090
69542W        W33750   3.409   0.381  11.573
69543W        W33751  42.024  15.147   4.646
69544W        W33752  22.585  42.345   2.756
69545W        W33753   1.294   4.297  10.909
69546W        W33754  40.474  44.367   3.364
69547W        W33755  11.283  40.014   1.232
69548W        W33756  30.656  14.789   2.343
69549W        W33757  31.511  31.611  10.466
69550W        W33758   9.224  14.621   0.328
69551W        W33759  22.061  14.237   4.258
69552W        W33760  44.336  33.124   2.787
69553W        W33761  19.575  15.638   1.906
69554W        W33762  23.140  17.290   5.733
69555W        W33763  35.970  36.589   2.398
69556W        W33764  15.599  42.926   1.929
69557W        W33765   5.869  22.604   2.326
69558W        W33766  11.858   5.722   4.297
69559W        W33767  18.660  16.581   5.216
69560W        W33768  31.419   8.201  10.613
69561W        W33769  27.496  10.320  14.886
69562W        W33770   7.331  40.477   4.204
69563W        W33771  26.149   9.658   0.248
69564W        W33772  26.545  16.588   4.161
69565W        W33773   9.743  16.217   3.844
69566W        W33774   4.427  20.753   4.192
69567W        W33775   3.268  25.470  13.519
69568W        W33776  40.022   4.405   4.822
69569W        W33777   6.306  34.485  14.374
69570W        W33778  36.976  35.871  12.890
69571W        W33779  33.469  34.420  12.938
69572W        W33780  16.120  44.981   4.799
69573W        W33781  43.784  38.372   1.837
69574W        W33782  30.975  36.943   4.251
69575W        W33783  27.541  27.017   2.716
69576W        W33784  20.674  10.296  14.938
69577W        W33785  40.857  11.825   1.427
69578W        W33786  12.135  38.456  13.489
69579W        W33787  36.549  15.722  11.078
69580W        W33788  39.319  21.048  13.919
69581W        W33789  28.469  12.144  11.448
69582W        W33790   3.382  30.508  11.009
69583W        W33791  25.010  42.361   0.966
69584W        W33792  10.766  42.931   3.221
69585W        W33793  35.397  32.433   4.699
69586W        W33794  26.204  27.504  13.332
69587W        W33795   8.345  41.331   4.171
69588W        W33796  28.929   5.291   3.176
69589W        W33797  14.128  10.181   2.215
69590W        W33798  34.106  38.915   0.799
69591W        W33799  26.652  42.469   0.265
69592W        W33800  35.928  44.006  14.275
69593W        W33801  10.197  37.055  13.400
69594W        W33802  15.721   4.409  13.985
69595W        W33803  36.031   6.909   1.359
69596W        W33804   4.372  38.526   1.298
69597W        W33805  15.822  24.130  14.772
69598W        W33806  26.591  37.021   3.642
69599W        W33807  44.300  30.135   0.788
69600W        W33808   3.778  41.805   0.749
69601W        W33809   6.868  16.187  10.975
69602W        W33810   5.689  23.659   1.784
69603W        W33811   5.721  21.669   4.295
69604W        W33812  34.566   3.244   4.318
69605W        W33813   5.355  16.089   2.354
69606W        W33814   4.355  33.113  11.448
69607W        W33815  10.208  28.455   3.288
69608W        W33816  42.351  24.668   3.235
69609W        W33817   6.697   1.931   4.286
69610W        W33818  19.272   2.281  14.992
69611W        W33819  10.352   6.212  13.461
69612W        W33820   4.218  20.679   1.279
69613W        W33821  19.140  30.958  14.434
69614W        W33822  28.513  25.160  10.993
69615W        W33823  41.403  43.295   4.724
69616W        W33824  32.031  35.983  11.522
69617W        W33825  29.517  38.410   4.251
69618W        W33826  20.188  12.183   1.828
69619W        W33827  29.542  28.017   1.930
69620W        W33828  12.796   4.916  13.532
69621W        W33829  33.877  25.107   0.961
69622W        W33830  14.600   4.298  14.323
69623W        W33831   7.367  30.456   2.316
69624W        W33832  10.322  13.776  12.527
69625W        W33833  35.968   9.817  11.537
69626W        W33834  13.845  17.076  14.494
69627W        W33835   0.347  35.973   0.954
69628W        W33836  11.176  10.661  13.043
69629W        W33837  34.537  41.002  12.058
69630W        W33838  23.121   9.312  14.910
69631W        W33839  25.090  18.557   2.371
69632W        W33840  14.122  43.438   2.744
69633W        W33841  20.133  16.705   4.331
69634W        W33842  35.046  33.999   0.798
69635W        W33843  33.954  13.618  12.998
69636W        W33844  30.943  25.217  13.320
69637W        W33845  27.137  32.055   0.775
69638W        W33846  26.161   1.839  13.859
69639W        W33847  26.101  30.121   4.764
69640W        W33848   9.336  19.669  13.419
69641W        W33849  29.052  26.009  14.288
69642W        W33850  22.132  23.000  12.356
69643W        W33851   6.902  32.060  13.476
69644W        W33852  35.035  43.921  12.918
69645W        W33853   4.404   4.911   4.787
69646W        W33854  26.579   4.819   2.230
69647W        W33855   9.658   8.237  13.011
69648W        W33856  22.729  23.494   0.898
69649W        W33857  44.902  15.322  14.349
69650W        W33858   6.883  24.511  10.414
69651W        W33859  24.649  34.039   1.342
69652W        W33860  28.445  35.600  11.008
69653W        W33861  42.359  38.975   1.391
69654W        W33862  33.898  28.112  13.801
69655W        W33863   2.842  30.461  12.943
69656W        W33864   3.318  23.584   1.241
69657W        W33865  25.201  16.141   4.809
69658W        W33866  22.609  10.750  11.866
69659W        W33867  31.013  37.392   1.304
69660W        W33868  42.398  16.185   4.304
69661W        W33869  40.035  43.923  11.016
69662W        W33870  30.050   9.282   4.800
69663W        W33871  31.154  13.608  13.972
69664W        W33872  40.964  30.016  12.004
69665W        W33873   1.819  19.204   4.275
69666W        W33874   6.304  19.590   1.869
69667W        W33875  37.424  10.162   3.329
69668W        W33876  23.095  41.997  11.897
69669W        W33877  15.627  30.527  12.975
69670W        W33878   8.331  44.768  13.878
69671W        W33879  24.636  22.060  14.464
69672W        W33880  35.893  32.417  13.014
69673W        W33881  25.671  17.576   1.256
69674W        W33882  35.393  37.456  10.446
69675W        W33883  28.666   2.252  14.894
69676W        W33884  37.044   1.396  14.789
69677W        W33885  28.601   8.784   3.269
69678W        W33886  10.702  20.674   0.898
69679W        W33887   6.711  21.516  11.392
69680W        W33888  25.573  31.989  13.380
69681W        W33889  38.477  31.990   2.698
69682W        W33890   1.832  35.572   0.348
69683W        W33891   0.804  38.851   0.732
69684W        W33892  35.495  22.018   3.768
69685W        W33893  18.666  29.499  11.887
69686W        W33894  16.299  31.609  14.808
69687W        W33895  19.090   3.814  14.346
69688W        W33896  38.373   9.184  13.855
69689W        W33897  14.251   6.806  11.936
69690W        W33898   0.904  10.376  14.762
69691W        W33899  28.438  23.239  11.532
69692W        W33900   1.441  35.385   3.791
69693W        W33901  30.117  43.477   4.749
69694W        W33902  11.277  29.481  13.415
69695W        W33903  34.009   3.328  11.008
69696W        W33904   1.829   3.361  11.506
69697W        W33905   0.862   2.447   3.185
69698W        W33906  26.975  35.930  14.314
69699W        W33907  30.464  17.171  12.520
69700W        W33908  14.710  32.535  14.933
69701W        W33909  25.202   1.898   4.622
69702W        W33910  37.856   2.791   3.293
69703W        W33911   3.872  17.753  10.590
69704W        W33912  15.604  18.673  10.897
69705W        W33913  37.401  12.201   3.821
69706W        W33914  20.240  29.556   3.870
69707W        W33915   2.340  43.000  13.856
69708W        W33916  35.907  44.890   3.198
69709W        W33917  29.611  13.739   1.830
69710W        W33918  44.493  10.759   3.651
69711W        W33919  37.572  19.259  11.607
69712W        W33920  43.874  30.157   4.152
69713W        W33921  40.920  38.986   3.253
69714W        W33922  14.150  16.659   2.284
69715W        W33923  32.596  11.825  12.936
69716W        W33924  18.612  33.517   0.822
69717W        W33925  37.860  41.358  13.518
69718W        W33926  12.150  15.765   3.702
69719W        W33927  28.657  15.189  10.119
69720W        W33928  25.575   2.435  14.020
69721W        W33929  16.809  27.115   0.266
69722W        W33930  28.518   2.883  11.400
69723W        W33931  36.490  29.572   4.269
69724W        W33932  25.497   1.272  12.527
69725W        W33933  35.508   1.743  13.480
69726W        W33934  11.742  36.449  14.945
69727W        W33935   3.831  15.206   0.447
69728W        W33936  26.552  28.643  11.089
69729W        W33937  36.887  42.822   3.186
69730W        W33938  41.792  36.880   1.935
69731W        W33939  21.577  44.899  14.489
69732W        W33940   4.872   6.226   2.314
69733W        W33941  24.696  27.609  11.953
69734W        W33942  27.069  32.969  12.502
69735W        W33943  13.186  11.651  12.538
69736W        W33944  11.325  14.293   5.162
69737W        W33945  25.053  42.814  12.568
69738W        W33946  13.216  39.402  11.534
69739W        W33947  24.030  12.324  11.114
69740W        W33948   3.312  44.007   2.690
69741W        W33949  25.018   8.287  14.445
69742W        W33950   8.899   4.308  13.008
69743W        W33951  13.822   8.773  11.905
69744W        W33952  36.406  35.550  10.411
69745W        W33953   0.966  30.571   2.856
69746W        W33954  30.637  36.466   3.284
69747W        W33955  44.970   1.332  11.931
69748W        W33956  31.898  28.574  10.598
69749W        W33957  14.164  22.515   3.736
69750W        W33958  11.841  13.773   3.266
69751W        W33959  14.704  43.374   4.767
69752W        W33960   5.206  13.316   2.749
69753W        W33961  42.980  25.094   3.736
69754W        W33962  38.520  31.495  12.980
69755W        W33963  27.591  39.547   2.335
69756W        W33964  29.625  12.296  11.494
69757W        W33965  32.540  10.323   2.712
69758W        W33966  31.933   0.412   2.829
69759W        W33967  20.690  40.805   0.872
69760W        W33968   9.657  14.815   1.320
69761W        W33969   6.241  30.160  13.526
69762W        W33970  43.382  32.924   0.451
69763W        W33971  20.160  18.263  11.109
69764W        W33972  23.223   7.837   0.859
69765W        W33973   7.252  40.873   3.797
69766W        W33974  41.387  26.460   0.311
69767W        W33975  25.634  32.521  11.094
69768W        W33976  12.152   7.750  13.335
69769W        W33977  11.685  39.037  13.890
69770W        W33978  12.614  28.069  14.768
69771W        W33979  15.185   7.675  12.964
69772W        W33980  38.002  27.574  12.418
69773W        W33981   6.210  31.642   2.882
69774W        W33982  17.203  14.142   1.328
69775W        W33983   5.392   4.937  14.898
69776W        W33984  28.474   2.380  13.051
69777W        W33985  35.915  44.469   0.288
69778W        W33986  12.197  44.333  10.607
69779W        W33987   7.264  12.653  13.001
69780W        W33988  21.613  26.144  12.368
69781W        W33989  16.113  11.715  13.343
69782W        W33990  32.965  29.922  12.021
69783W        W33991   3.219  32.947   9.968
69784W        W33992  39.824  25.482  12.387
69785W        W33993  30.577  44.413   1.322
69786W        W33994  32.957  24.981  10.412
69787W        W33995  13.686   1.853   0.799
69788W        W33996  31.139  21.045  13.455
69789W        W33997  16.168  42.515  11.014
69790W        W33998  31.426  21.714   4.798
69791W        W33999  40.538  44.335   0.882
69792W        W34000   4.883  27.578   3.160
69793W        W34001  27.621  14.745   3.361
69794W        W34002  22.685  11.623   4.686
69795W        W34003  29.092   8.814   1.449
69796W        W34004   8.335   9.353   4.183
69797W        W34005  31.575  11.325  12.353
69798W        W34006  28.939  14.275  12.970
69799W        W34007  18.641  11.353  13.051
69800W        W34008  38.344  10.185  14.941
69801W        W34009  14.792  27.581  11.124
69802W        W34010   1.383   3.395   3.209
69803W        W34011  34.589   0.778  13.358
69804W        W34012   9.668   3.459   4.702
69805W        W34013  37.448  12.176   0.909
69806W        W34014   1.436   3.835   3.191
69807W        W34015   8.323  35.033   1.766
69808W        W34016   4.243  33.052   2.292
69809W        W34017  23.998  11.675   1.211
69810W        W34018  15.783  16.790  10.418
69811W        W34019  33.544  24.521  10.614
69812W        W34020   0.970  40.467  13.410
69813W        W34021   4.243  33.010   1.341
69814W        W34022   4.725  35.944   2.323
69815W        W34023  21.057   3.443   0.862
69816W        W34024  42.006  26.681   0.464
69817W        W34025  31.401  40.844   0.460
69818W        W34026   3.928   6.280  11.570
69819W        W34027  37.923  19.106   4.120
69820W        W34028  31.557  23.024   0.275
69821W        W34029   2.235  16.781   3.322
69822W        W34030  21.107   0.940  13.042
69823W        W34031  24.216  41.023  10.617
69824W        W34032  35.091   8.324  14.473
69825W        W34033  23.563  38.863  13.063
69826W        W34034  37.383  37.468  12.974
69827W        W34035  33.423  43.374  14.828
69828W        W34036  40.430  17.686  11.393
69829W        W34037  38.072  28.619   0.956
69830W        W34038  28.435  39.551   1.436
69831W        W34039  30.919  42.782  11.612
69832W        W34040  14.601   7.888  14.988
69833W        W34041  29.973   3.401  11.886
69834W        W34042  22.575  20.083  10.952
69835W        W34043  44.763  24.120   1.418
69836W        W34044   4.853  40.004   0.884
69837W        W34045  33.998  17.299  10.986
69838W        W34046  31.547  20.113  10.434
69839W        W34047  13.136  26.205   1.383
69840W        W34048  22.112  23.148  13.812
69841W        W34049  41.498  42.346  14.477
69842W        W34050  37.555   1.960  11.904
69843W        W34051  23.646  36.528   0.929
69844W        W34052  36.555  43.788  11.450
69845W        W34053  36.592   1.896   2.393
69846W        W34054  27.587   4.296  12.974
69847W        W34055  28.960   4.878   4.818
69848W        W34056  20.162   7.724   2.799
69849W        W34057   2.913  25.474  12.519
69850W        W34058  25.647  43.941  14.348
69851W        W34059   1.845   0.803  12.866
69852W        W34060  19.679  17.602   3.287
69853W        W34061  30.012  30.914   0.250
69854W        W34062  44.375  42.933   0.270
69855W        W34063  42.913   1.352   3.790
69856W        W34064  16.197   7.678   2.318
69857W        W34065  24.048  23.166  13.880
69858W        W34066   6.863  43.779  10.641
69859W        W34067  31.107  38.364  12.971
69860W        W34068  31.944   4.815   1.243
69861W        W34069  20.148   2.851   2.746
69862W        W34070  32.103  21.261  14.416
69863W        W34071  39.482   3.457   2.866
69864W        W34072   7.897  33.937  12.974
69865W        W34073  26.154  23.499   0.278
69866W        W34074  18.594  42.885   2.295
69867W        W34075   4.926  27.486   2.224
69868W        W34076  18.282  36.041   3.157
69869W        W34077  42.350  22.673   2.378
69870W        W34078   2.396  18.274   1.326
69871W        W34079  19.168   4.390  13.812
69872W        W34080  32.469  44.819  14.389
69873W        W34081  31.018  21.254  14.904
69874W        W34082  32.530  21.162   9.963
69875W        W34083  43.892  14.681  11.539
69876W        W34084  35.543   9.338   1.395
69877W        W34085  41.930   4.807  13.464
69878W        W34086  43.479   0.439  13.894
69879W        W34087  42.495  28.681   3.179
69880W        W34088  37.846   5.325   9.677
69881W        W34089  25.624  34.925  14.411
69882W        W34090  29.139   3.803  13.311
69883W        W34091  11.311  29.037   2.246
69884W        W34092  28.627  30.030  11.543
69885W        W34093   5.813  38.390  11.993
69886W        W34094   0.976  22.128  13.945
69887W        W34095  25.185  20.098  12.946
69888W        W34096   1.767  13.715   2.766
69889W        W34097   0.899  32.423   2.202
69890W        W34098  26.697   1.861  14.946
69891W        W34099  13.617   4.774  14.819
69892W        W34100  22.587  18.204  10.520
69893W        W34101  41.808  26.081   2.246
69894W        W34102   9.664  30.592  10.538
69895W        W34103  11.281  22.043  14.955
69896W        W34104  38.052  34.917  12.878
69897W        W34105   0.383  26.125   3.722
69898W        W34106  32.408  22.597   4.269
69899W        W34107  36.051  15.204   4.712
69900W        W34108  34.614  18.133   3.339
69901W        W34109  32.015   0.475   3.368
69902W        W34110  19.221   9.311   4.691
69903W        W34111   7.255   3.452   2.668
69904W        W34112  38.986   0.360  10.486
69905W        W34113   7.304  30.450  10.421
69906W        W34114   6.835   0.754   0.385
69907W        W34115  27.153  21.219   4.244
69908W        W34116  19.236  44.465  12.936
69909W        W34117  31.902  13.166  14.971
69910W        W34118   3.451  44.865  14.351
69911W        W34119   9.383  34.500   1.816
69912W        W34120  10.179  15.323  14.890
69913W        W34121  34.018   0.255   3.206
69914W        W34122  28.499   6.318   1.231
69915W        W34123  21.662  17.201  14.326
69916W        W34124   2.319   3.744  10.549
69917W        W34125  14.621  10.802   1.871
69918W        W34126   6.344  37.425  14.969
69919W        W34127  25.607  33.484  10.969
69920W        W34128  17.668  41.509   1.816
69921W        W34129  16.579   9.681  14.340
69922W        W34130  24.053  16.227   4.681
69923W        W34131   5.337   7.246  12.371
69924W        W34132  17.631  37.480   4.778
69925W        W34133  38.854  26.037  12.899
69926W        W34134   0.924  14.281  14.358
69927W        W34135  19.570   3.847  11.611
69928W        W34136  28.102  33.882   2.414
69929W        W34137  37.081  19.135   0.932
69930W        W34138  19.258  37.835  14.349
69931W        W34139  16.233   0.867   1.710
69932W        W34140  22.205   5.921  11.894
69933W        W34141  16.799  41.537  13.441
69934W        W34142  41.925  20.072   1.340
69935W        W34143  41.342  12.339   4.633
69936W        W34144  40.318  26.139   3.362
69937W        W34145  30.945  38.981   3.867
69938W        W34146  13.756  10.821   0.479
69939W        W34147  38.425  42.955  12.941
69940W        W34148  18.055  35.011   3.314
69941W        W34149  26.536  44.776  14.930
69942W        W34150   5.438  15.583  14.433
69943W        W34151   6.353   7.417  10.608
69944W        W34152  33.442  18.077  11.107
69945W        W34153   5.254  17.179   4.643
69946W        W34154  38.552  13.726  12.882
69947W        W34155  11.302   6.678  11.567
69948W        W34156   8.781  33.008   0.425
69949W        W34157   6.303   0.288   1.713
69950W        W34158  44.405  43.484   0.916
69951W        W34159   0.897  39.055   0.260
69952W        W34160  13.754  15.730  10.541
69953W        W34161  14.625  36.566  11.079
69954W        W34162   9.732  25.636  12.405
69955W        W34163  42.935  25.156   0.788
69956W        W34164  44.452  24.544  11.479
69957W        W34165  10.264  39.874   2.314
69958W        W34166  32.974  25.490   0.727
69959W        W34167  43.949  30.480   0.818
69960W        W34168  25.967   8.668   2.676
69961W        W34169   8.709  22.589   3.254
69962W        W34170  34.601  42.382   0.251
69963W        W34171  20.067  15.589   3.686
69964W        W34172   7.730  26.576   3.669
69965W        W34173  41.981   3.818   1.222
69966W        W34174  15.692   6.734   3.714
69967W        W34175  39.325   8.867  11.587
69968W        W34176  26.587  33.454   4.298
69969W        W34177  19.739  12.272  11.921
69970W        W34178  35.485  26.617  14.400
69971W        W34179  23.096   1.457  11.572
69972W        W34180  23.734  25.540  14.290
69973W        W34181  32.458  27.128   3.324
69974W        W34182  43.870  24.602   4.790
69975W        W34183  21.638   1.847   1.439
69976W        W34184  42.434  35.444  11.458
69977W        W34185  25.489  44.356   1.719
69978W        W34186   6.313   8.688  11.386
69979W        W34187  35.366  14.604  12.096
69980W        W34188  29.472  22.699   4.177
69981W        W34189  16.157  43.304   2.665
69982W        W34190  43.879  37.008  14.434
69983W        W34191  17.802  22.067   1.419
69984W        W34192  34.483  30.158  14.830
69985W        W34193  14.219  27.631  12.511
69986W        W34194  16.119  37.075   4.224
69987W        W34195   6.751  33.038   4.721
69988W        W34196  27.590  10.801   0.922
69989W        W34197   3.842  44.989  13.958
69990W        W34198  11.690  16.604  13.339
69991W        W34199  38.354  12.705  12.078
69992W        W34200  33.613  44.305  14.808
69993W        W34201  30.592  17.124   0.930
69994W        W34202  23.694  15.631  11.045
69995W        W34203  12.335  14.322  12.992
69996W        W34204   8.232  34.932   2.756
69997W        W34205  28.030   6.871  10.004
69998W        W34206  21.666   4.909  14.495
69999W        W34207  12.307  43.840   2.344
70000W        W34208  19.552   1.338  11.476
70001W        W34209  16.213   8.366   3.178
70002W        W34210  26.047   5.436  13.017
70003W        W34211  15.211  10.320  10.567
70004W        W34212   5.693  19.202  14.301
70005W        W34213  13.300   0.918   2.862
70006W        W34214   5.707  37.339  14.822
70007W        W34215  16.629  10.864  10.412
70008W        W34216  33.095  17.221   0.275
70009W        W34217  20.525   8.865   2.761
70010W        W34218  41.021  16.120  13.798
70011W        W34219  17.232  44.999   2.730
70012W        W34220   8.404  30.021   4.199
70013W        W34221   4.299  22.709  12.445
70014W        W34222  20.723  11.838   4.188
70015W        W34223   3.395  16.619   2.282
70016W        W34224  40.532  19.133   2.394
70017W        W34225  30.962  24.225   0.461
70018W        W34226  43.843   6.805  14.954
70019W        W34227  34.447  15.282  13.458
70020W        W34228   5.895  32.635  11.434
70021W        W34229   3.330  17.756  10.626
70022W        W34230  25.163  13.821   3.359
70023W        W34231  15.679  39.361   1.451
70024W        W34232   9.736  14.254   5.146
70025W        W34233   2.913  17.200   3.179
70026W        W34234   6.312  34.443   9.973
70027W        W34235  38.392  35.552  12.504
70028W        W34236  44.853   8.781   3.644
70029W        W34237  31.118   3.858   3.278
70030W        W34238   1.395  17.754  13.508
70031W        W34239  42.917  25.527  12.880
70032W        W34240  10.353  43.776  13.052
70033W        W34241  36.437  25.982   3.331
70034W        W34242  40.980  17.580  14.011
70035W        W34243  43.778  41.866   2.225
70036W        W34244  39.987  22.626  11.375
70037W        W34245   5.863   8.217  11.394
70038W        W34246  30.987  19.182  11.468
70039W        W34247  11.362  26.987  14.317
70040W        W34248  15.203   8.380   0.918
70041W        W34249  19.741  18.688  11.384
70042W        W34250   1.461   8.692  14.012
70043W        W34251   3.339  29.009  12.940
70044W        W34252  15.216  26.121  10.515
70045W        W34253   3.269  18.760  12.880
70046W        W34254  27.657  13.832   4.791
70047W        W34255  25.011  27.059  11.460
70048W        W34256  20.612   7.408  13.903
70049W        W34257  19.098  39.409   4.692
70050W        W34258  36.392   4.811   3.270
70051W        W34259  37.020  41.043  13.982
70052W        W34260  42.408  15.320   4.116
70053W        W34261  26.036   5.411   3.721
70054W        W34262  16.758   7.197   3.270
70055W        W34263  38.858  17.681   3.827
70056W        W34264   9.217  43.849   0.894
70057W        W34265  41.908  20.160   0.811
70058W        W34266  29.475  16.199  14.285
70059W        W34267  13.799  38.981  13.449
70060W        W34268   7.227   2.727  12.933
70061W        W34269   8.773  33.626   0.243
70062W        W34270  10.870   3.715   2.781
70063W        W34271  20.752  22.737   4.134
70064W        W34272  43.899   8.357   2.680
70065W        W34273  20.535  17.697   1.337
70066W        W34274  20.197  10.296   0.295
70067W        W34275  12.760  31.643  13.803
70068W        W34276  36.885  43.457   0.372
70069W        W34277  10.262  17.632  13.909
70070W        W34278  18.090   0.775   2.899
70071W        W34279  16.631  22.218  11.978
70072W        W34280   1.341  41.482   2.696
70073W        W34281  13.217  10.215   1.311
70074W        W34282  13.164   1.785   1.268
70075W        W34283  22.508  37.555   4.233
70076W        W34284  32.090  18.208  11.606
70077W        W34285   1.924  32.008   2.196
70078W        W34286   4.738   4.259  13.424
70079W        W34287  20.099  15.235   4.700
70080W        W34288  10.846  19.178  13.881
70081W        W34289  31.075  26.594   2.204
70082W        W34290  25.084   6.898   3.200
70083W        W34291  24.026   8.373  11.066
70084W        W34292  14.107  15.237  11.512
70085W        W34293  38.373  10.877  11.981
70086W        W34294  25.088  34.983   1.891
70087W        W34295   2.412  28.436  11.033
70088W        W34296  41.858   8.319   0.246
70089W        W34297  24.196  24.577   2.756
70090W        W34298  30.998  32.486  13.873
70091W        W34299   6.854   7.188  14.890
70092W        W34300  10.144   6.194   2.871
70093W        W34301  40.348   6.795  14.919
70094W        W34302   5.359   6.806   0.922
70095W        W34303  19.774   7.715  13.806
70096W        W34304  17.646  27.165  13.999
70097W        W34305  38.900  14.166   3.161
70098W        W34306  38.921  23.646   9.957
70099W        W34307   8.226  41.336   1.918
70100W        W34308  32.133  19.579  14.321
70101W        W34309  36.949   7.686  13.919
70102W        W34310  20.573  27.621  13.406
70103W        W34311   5.254  17.291   1.436
70104W        W34312  21.521  26.642   0.896
70105W        W34313   5.290  24.091   0.920
70106W        W34314  23.131  39.354  11.548
70107W        W34315  18.741  42.492   4.736
70108W        W34316  19.658  25.199  12.064
70109W        W34317  30.646  25.043   0.413
70110W        W34318  28.613  29.136  13.012
70111W        W34319  23.215  41.908  14.784
70112W        W34320  24.489  20.532   0.951
70113W        W34321  28.950  34.998   4.324
70114W        W34322   5.841   8.845   2.209
70115W        W34323  24.713  33.003  11.430
70116W        W34324  25.615  28.674   1.860
70117W        W34325  17.232  25.549  10.612
70118W        W34326  30.481  17.084   3.305
70119W        W34327  14.752  25.016  14.874
70120W        W34328  24.628  26.995  10.546
70121W        W34329  29.018  39.036  10.095
70122W        W34330  31.063  25.589  10.627
70123W        W34331  32.449  16.728   0.433
70124W        W34332  15.730  15.174   1.292
70125W        W34333  43.491  34.913  14.367
70126W        W34334  30.060  35.456   3.753
70127W        W34335   4.255  15.152   4.281
70128W        W34336  15.729  31.499   3.700
70129W        W34337  18.757  12.814  14.960
70130W        W34338  10.641  32.546   2.775
70131W        W34339   1.947  19.179  10.493
70132W        W34340   2.344  10.277   5.114
70133W        W34341   7.260  29.128  13.541
70134W        W34342  42.005  13.175  14.319
70135W        W34343   7.747  20.038  12.405
70136W        W34344  34.879   3.386  14.856
70137W        W34345  40.999  44.898   4.746
70138W        W34346  18.078  35.511  13.949
70139W        W34347  36.935  20.103  14.423
70140W        W34348  34.376   8.200  11.878
70141W        W34349  35.882   0.921  13.950
70142W        W34350  43.953  15.686  11.392
70143W        W34351  24.193  41.342  11.926
70144W        W34352  19.709  18.590   2.323
70145W        W34353  19.247  37.523   3.174
70146W        W34354  39.978   4.393  11.082
70147W        W34355  10.836  37.880  14.782
70148W        W34356  24.983   7.874   0.901
70149W        W34357   1.796  18.212  12.436
70150W        W34358   7.808   6.793  14.803
70151W        W34359  25.972  18.050   1.355
70152W        W34360  37.516   4.259  10.525
70153W        W34361  19.743  34.863   0.793
70154W        W34362  10.295  22.070   0.360
70155W        W34363  26.501   3.861   3.830
70156W        W34364   4.943  41.468  11.955
70157W        W34365   2.370  22.212  10.020
70158W        W34366  15.190  10.178   1.246
70159W        W34367  37.846  30.614   2.253
70160W        W34368  12.801  12.830   2.686
70161W        W34369   2.786  40.900   3.352
70162W        W34370  41.387  35.500   0.947
70163W        W34371  29.598  33.457  10.916
70164W        W34372  31.007  30.934   3.339
70165W        W34373  24.148  37.565   2.815
70166W        W34374  17.790  42.881  14.954
70167W        W34375  35.899  31.559  10.497
70168W        W34376  39.481  33.001   4.221
70169W        W34377  37.955  43.427   1.853
70170W        W34378   7.870  17.236  13.912
70171W        W34379   1.779  36.455   0.795
70172W        W34380  29.576   4.728  14.843
70173W        W34381  11.806  27.595  12.933
70174W        W34382  25.612  19.684   1.739
70175W        W34383   4.343  23.047   1.243
70176W        W34384  36.900   8.828  12.542
70177W        W34385  33.965  28.138  11.611
70178W        W34386  20.246   0.442  11.418
70179W        W34387  35.086  24.612  11.028
70180W        W34388   3.752  34.388   5.192
70181W        W34389  32.056  38.364   1.386
70182W        W34390   6.186  35.548   1.377
70183W        W34391   8.171  33.107   4.781
70184W        W34392  11.293  15.086  13.513
70185W        W34393   6.784  19.225   2.846
70186W        W34394  11.366   5.736  11.015
70187W        W34395  32.093  35.518  10.510
70188W        W34396   4.218  30.578  14.427
70189W        W34397  17.081  24.119   1.851
70190W        W34398   5.899  10.678   3.327
70191W        W34399  42.326  34.913   4.709
70192W        W34400  38.021  36.475   4.731
70193W        W34401  15.318  23.613  14.902
70194W        W34402  14.778  28.544  14.984
70195W        W34403  43.515  20.113  11.083
70196W        W34404   4.352  34.551  13.308
70197W        W34405  38.899  41.974   4.664
70198W        W34406  36.943  44.432   4.218
70199W        W34407  34.083  22.119   1.424
70200W        W34408  20.214   5.436  11.496
70201W        W34409  38.346  37.579  12.856
70202W        W34410  43.970  25.215   4.209
70203W        W34411   1.388  23.123  13.891
70204W        W34412  26.560   6.254   2.371
70205W        W34413  30.128   6.335  14.278
70206W        W34414   5.739  16.160  10.970
70207W        W34415  37.353   3.315   2.349
70208W        W34416  21.681  25.127   4.213
70209W        W34417   3.849  13.735   4.158
70210W        W34418  19.286   8.283  12.481
70211W        W34419  20.039  17.636  11.383
70212W        W34420   0.379   4.223  10.026
70213W        W34421   5.833  20.600  12.862
70214W        W34422   1.349  20.235   2.184
70215W        W34423  29.016   4.894  11.045
70216W        W34424  23.068  27.031   0.276
70217W        W34425  42.997  24.522  12.453
70218W        W34426  32.417  41.428   3.217
70219W        W34427  12.338  20.592  12.424
70220W        W34428  23.142   4.705   3.264
70221W        W34429   1.419   8.828  11.119
70222W        W34430  28.035  11.202  11.456
70223W        W34431   3.367  16.668  13.952
70224W        W34432  33.893  12.313   4.708
70225W        W34433  36.588  25.011  10.892
70226W        W34434   9.785  25.676   1.877
70227W        W34435  31.479  34.562  11.021
70228W        W34436   4.728  23.639  14.020
70229W        W34437  43.486  30.464  11.457
70230W        W34438   0.834  35.368  10.523
70231W        W34439  27.143   9.179  14.791
70232W        W34440   5.240   4.364   2.805
70233W        W34441  24.679  17.284   1.919
70234W        W34442   5.375   4.843   3.661
70235W        W34443  36.577  35.373  13.377
70236W        W34444  39.929  33.008   0.846
70237W        W34445   7.731  30.049  10.643
70238W        W34446  19.105   1.750   4.677
70239W        W34447  15.271   3.330   4.170
70240W        W34448  40.000  19.696  14.814
70241W        W34449   1.884  39.416   4.142
70242W        W34450  16.298  41.470  12.357
70243W        W34451  20.535  44.004  11.875
70244W        W34452  43.846  20.740  14.788
70245W        W34453  40.852  12.810   0.950
70246W        W34454  25.062  44.469  12.064
70247W        W34455  30.590   5.208  14.997
70248W        W34456  30.936  40.832  13.330
70249W        W34457   2.324  16.722   0.872
70250W        W34458  42.028   4.809  10.982
70251W        W34459  35.050  40.839  11.406
70252W        W34460  10.339   4.214   0.392
70253W        W34461  10.752  27.081  10.482
70254W        W34462  43.499   8.749  13.966
70255W        W34463  23.570  13.632  10.474
70256W        W34464  18.706  15.592  13.903
70257W        W34465  18.237  24.053   0.262
70258W        W34466  19.121  14.828  11.431
70259W        W34467  41.922  28.494  10.469
70260W        W34468  34.879  23.716  13.464
70261W        W34469  33.100  18.217   4.259
70262W        W34470  20.242  34.466  11.900
70263W        W34471   2.421  36.898  12.033
70264W        W34472  39.909  20.144   0.462
70265W        W34473  35.395  40.988   2.791
70266W        W34474  14.149  42.806  13.449
70267W        W34475  36.985   6.791  14.977
70268W        W34476   8.352  10.315  12.927
70269W        W34477  22.651  10.830  10.615
70270W        W34478   0.868  27.590   1.794
70271W        W34479  17.733  25.657   0.420
70272W        W34480   7.872  10.651   0.871
70273W        W34481   6.363  27.678   4.737
70274W        W34482  40.440   6.229   5.153
70275W        W34483  31.932   2.289  11.855
70276W        W34484  37.377  37.405  11.382
70277W        W34485  28.499  24.020  12.561
70278W        W34486  43.506   7.322   0.859
70279W        W34487  28.596  19.643   2.324
70280W        W34488   6.694   7.786  12.836
70281W        W34489  18.687  33.452   4.250
70282W        W34490  16.188  38.420   0.778
70283W        W34491  17.746  41.816   4.142
70284W        W34492  14.614  27.968   3.804
70285W        W34493  31.989  42.316   3.377
70286W        W34494  44.834  13.187   0.938
70287W        W34495  32.012  24.207   0.274
70288W        W34496  40.513  25.109   4.696
70289W        W34497   6.354  28.992   4.622
70290W        W34498  43.837  17.283  12.533
70291W        W34499  34.390  18.128   2.857
70292W        W34500  41.793   2.246  13.823
70293W        W34501  43.879  28.635  13.016
70294W        W34502  26.191  28.559   0.433
70295W        W34503  31.076  36.575   4.739
70296W        W34504  34.028   3.400   3.202
70297W        W34505  25.522  32.423  11.476
70298W        W34506  17.191  35.857  10.479
70299W        W34507  44.882  23.603   4.718
70300W        W34508  20.524  30.577  13.538
70301W        W34509  34.540   7.294   2.186
70302W        W34510   7.890  42.031  12.883
70303W        W34511  30.493  16.805   4.173
70304W        W34512  25.144  24.146   0.318
70305W        W34513   2.255  24.044   2.340
70306W        W34514  38.923  31.984  14.339
70307W        W34515  37.487   6.386   3.168
70308W        W34516   8.789  38.074   1.840
70309W        W34517  40.378  40.961  10.596
70310W        W34518  19.769   1.390  12.486
70311W        W34519  34.978  26.991   4.769
70312W        W34520  41.401  25.599  14.374
70313W        W34521  26.506  15.238  14.968
70314W        W34522  18.083   8.816  14.018
70315W        W34523  10.275  11.797  13.362
70316W        W34524   4.723  14.209   3.196
70317W        W34525   1.761  32.454   1.827
70318W        W34526  36.414  17.581  12.840
70319W        W34527  35.436  13.636   3.331
70320W        W34528   7.670  41.984  12.416
70321W        W34529  35.559  12.834   2.312
70322W        W34530  42.466  12.274   2.852
70323W        W34531  32.896   0.407  12.569
70324W        W34532  38.908  35.991   3.345
70325W        W34533  24.621  36.444   2.292
70326W        W34534  15.135  13.707  13.990
70327W        W34535  38.980  31.010  12.033
70328W        W34536  17.163  20.568   4.731
70329W        W34537  19.124  40.863   1.428
70330W        W34538  24.151  28.594   4.777
70331W        W34539  32.135  41.446  14.961
70332W        W34540  13.719  24.589   2.685
70333W        W34541  14.318  36.527   3.816
70334W        W34542  44.971  14.134   1.875
70335W        W34543  24.225  21.100  10.497
70336W        W34544   8.891   1.339   4.790
70337W        W34545  27.616  27.104  12.026
70338W        W34546  20.164  30.040   1.371
70339W        W34547  32.929  22.695   2.351
70340W        W34548  17.746   9.679  10.472
70341W        W34549  33.500  26.661  14.011
70342W        W34550  22.145  40.015   2.292
70343W        W34551  42.851   2.720  12.066
70344W        W34552  13.346  23.183  11.902
70345W        W34553  41.828   0.850   4.271
70346W        W34554  35.379   5.216  14.022
70347W        W34555  39.419  12.761  11.060
70348W        W34556  14.617   5.236  10.534
70349W        W34557  26.562   4.216  14.802
70350W        W34558  40.003   4.316   1.349
70351W        W34559  40.868   1.889  11.488
70352W        W34560  17.753  19.765  14.442
70353W        W34561  18.718  11.195  12.533
70354W        W34562  18.142  25.473   1.302
70355W        W34563  20.176  22.035   0.892
70356W        W34564  28.590   0.380   1.374
70357W        W34565  20.596  23.550  13.871
70358W        W34566  15.146   9.751   4.278
70359W        W34567   2.818  29.943   2.732
70360W        W34568  13.709  13.642  12.842
70361W        W34569  40.880  26.959  12.014
70362W        W34570   6.916  30.963  12.836
70363W        W34571   2.237  10.857   1.746
70364W        W34572  31.984  36.995  13.032
70365W        W34573  35.902   7.704   0.366
70366W        W34574  43.320  33.131   2.223
70367W        W34575  32.915  18.616   0.444
70368W        W34576  42.408  10.817   1.296
70369W        W34577   9.657  34.442   2.385
70370W        W34578   1.282   2.357   1.747
70371W        W34579  28.036  34.438   4.278
70372W        W34580  42.891   8.289   1.256
70373W        W34581  25.709  40.847  13.012
70374W        W34582  26.600  27.615  12.420
70375W        W34583   4.447  39.018  10.156
70376W        W34584  21.730  34.524   0.851
70377W        W34585   8.259  22.615   1.427
70378W        W34586  41.031   3.828   2.758
70379W        W34587  38.043   0.781   1.258
70380W        W34588  22.245  25.484  13.314
70381W        W34589  34.869   4.923   0.386
70382W        W34590  23.091   1.745  12.556
70383W        W34591  16.317   7.820   4.244
70384W        W34592  19.760  33.494  14.447
70385W        W34593   5.714  39.983   1.732
70386W        W34594  14.213  43.369  13.421
70387W        W34595  20.191  11.213   2.676
70388W        W34596  34.945   1.250  14.958
70389W        W34597  13.268  43.861   1.845
70390W        W34598  43.485  36.488   1.248
70391W        W34599  29.010   6.234   0.467
70392W        W34600  25.973   6.205   4.741
70393W        W34601  18.626   3.271  13.007
70394W        W34602  29.003  17.796  12.906
70395W        W34603  19.653  37.406  12.527
70396W        W34604  11.846  11.754  11.535
70397W        W34605  22.673  37.529   2.274
70398W        W34606  13.152   7.363  10.942
70399W        W34607  34.446  16.258   2.329
70400W        W34608  22.243  14.118   4.682
70401W        W34609  38.448  41.960  12.366
70402W        W34610  26.702  21.640  12.020
70403W        W34611  13.628  41.970  11.431
70404W        W34612   2.239  20.155  13.985
70405W        W34613  28.105  18.110  13.412
70406W        W34614  33.965  32.401  14.354
70407W        W34615  10.652  10.381  14.810
70408W        W34616  23.077  35.569  13.960
70409W        W34617  38.910  20.595   2.750
70410W        W34618  25.589  43.771  14.830
70411W        W34619  23.689   3.410   5.282
70412W        W34620  33.406  39.953  13.954
70413W        W34621  22.644  44.938   1.815
70414W        W34622  15.684  21.662   2.850
70415W        W34623  38.409  21.029   4.818
70416W        W34624  14.770   9.294   1.421
70417W        W34625  12.655  28.029   2.411
70418W        W34626  26.073   4.749  14.784
70419W        W34627   8.277  40.881  11.403
70420W        W34628   1.775   6.859  14.322
70421W        W34629  34.969  27.960  11.445
70422W        W34630  27.113  44.358   4.224
70423W        W34631   6.203  13.314   0.925
70424W        W34632  23.224  12.640  10.483
70425W        W34633   2.384  42.395   0.813
70426W        W34634   6.187  16.598   2.260
70427W        W34635  33.396  43.018  14.302
70428W        W34636  25.118  42.457  14.899
70429W        W34637  39.065  22.069  13.021
70430W        W34638   5.816  21.046  13.434
70431W        W34639  18.607   4.829   2.667
70432W        W34640  13.173  33.564   1.853
70433W        W34641  26.119  17.158  11.900
70434W        W34642  31.066   5.741  13.939
70435W        W34643  27.636  18.593  14.299
70436W        W34644   0.862  26.988  10.106
70437W        W34645  25.558  23.493   1.700
70438W        W34646   1.434  27.178   1.723
70439W        W34647  16.312   1.921  14.906
70440W        W34648  42.933  35.863  10.046
70441W        W34649  16.204  21.622   0.385
70442W        W34650   0.426  22.693   4.637
70443W        W34651  15.822  39.395  12.942
70444W        W34652   3.274   4.232   0.372
70445W        W34653  12.324  17.244   3.652
70446W        W34654  26.695  27.965  11.495
70447W        W34655  24.660  33.505   3.741
70448W        W34656  44.384  28.035  12.023
70449W        W34657  31.453  11.243  13.870
70450W        W34658  44.478  16.582  10.912
70451W        W34659  34.921  12.231   4.321
70452W        W34660   6.394   8.351  14.355
70453W        W34661  18.621  24.114  13.054
70454W        W34662  31.951  27.550  11.884
70455W        W34663  24.092  38.364   4.829
70456W        W34664  34.924  30.020   1.328
70457W        W34665  25.138  17.759  13.320
70458W        W34666   2.899  22.616   0.884
70459W        W34667  36.050  35.524  13.350
70460W        W34668  34.039  22.072   0.938
70461W        W34669  28.530  25.556   0.753
70462W        W34670  28.065  24.022   3.861
70463W        W34671  23.197  19.256   4.162
70464W        W34672  13.800  37.460   3.354
70465W        W34673  21.216  40.847  14.881
70466W        W34674  37.905  24.183   3.838
70467W        W34675  44.488  27.173   1.379
70468W        W34676  42.792  12.360  10.515
70469W        W34677   7.255  30.424  14.469
70470W        W34678  38.370  40.025   1.228
70471W        W34679   3.767   7.766  13.381
70472W        W34680  18.239  17.070   2.663
70473W        W34681  31.986   0.792  11.022
70474W        W34682  19.727  22.197  14.307
70475W        W34683  33.562   6.352  10.575
70476W        W34684  10.188  44.881   1.846
70477W        W34685  31.514  44.453  13.308
70478W        W34686  43.833  18.059   2.768
70479W        W34687  29.984  29.463  11.920
70480W        W34688  35.363  36.473   2.886
70481W        W34689  38.829  28.039   1.269
70482W        W34690  29.569  35.066  13.823
70483W        W34691  40.388  30.957   1.432
70484W        W34692  30.942  36.464   1.931
70485W        W34693  40.810  18.674   2.262
70486W        W34694  40.005   2.741   1.233
70487W        W34695   9.664  11.191  11.888
70488W        W34696  15.214  17.711  14.814
70489W        W34697  12.841  24.202  13.063
70490W        W34698  15.238   3.234   0.353
70491W        W34699  28.120  10.879  14.796
70492W        W34700  28.455  35.579  11.599
70493W        W34701   1.478  12.787   3.745
70494W        W34702   2.281  25.624  12.054
70495W        W34703  23.135  17.077   3.375
70496W        W34704  16.732   2.280   3.822
70497W        W34705  14.195   2.923  11.533
70498W        W34706  21.741  28.493  13.847
70499W        W34707  40.432  14.668   0.320
70500W        W34708  34.597   9.766  14.313
70501W        W34709  10.695  40.461   1.226
70502W        W34710  38.364  42.865   0.294
70503W        W34711  15.238   4.341   4.131
70504W        W34712  36.871  21.737   1.423
70505W        W34713   7.301  10.669   1.405
70506W        W34714   2.453   0.463   1.699
70507W        W34715  22.597  20.107  12.518
70508W        W34716  37.476  15.691   3.733
70509W        W34717   4.818  26.585  11.019
70510W        W34718   5.867   8.711  14.407
70511W        W34719  31.134  16.185  14.955
70512W        W34720  40.532  23.561  14.006
70513W        W34721  38.034  23.993   2.268
70514W        W34722  35.894  27.074  11.127
70515W        W34723  15.282  26.046   3.372
70516W        W34724  35.883  26.494   2.339
70517W        W34725   6.350  11.161   2.399
70518W        W34726   9.868  13.129  11.901
70519W        W34727  21.685  16.614  14.469
70520W        W34728  40.400  28.167  10.586
70521W        W34729  12.338  36.392  13.410
70522W        W34730   3.318  27.566  11.057
70523W        W34731   5.249  39.879  14.854
70524W        W34732  13.350  23.236   1.354
70525W        W34733   4.785  22.702  13.847
70526W        W34734   3.423  38.448   0.342
70527W        W34735  15.793   3.389   3.757
70528W        W34736  33.469  22.011   0.806
70529W        W34737   4.715  42.287  13.873
70530W        W34738  43.785  44.909  13.493
70531W        W34739   0.288  28.118  13.441
70532W        W34740  16.120  41.962  10.438
70533W        W34741   2.348  39.363   1.706
70534W        W34742  41.496  21.704  12.394
70535W        W34743  28.676  27.038  11.412
70536W        W34744  22.085  20.265  11.948
70537W        W34745   8.857  44.333   1.220
70538W        W34746  21.113  10.251   5.092
70539W        W34747  43.772  22.084   2.232
70540W        W34748  21.537  12.841   4.216
70541W        W34749  17.558  36.405  10.993
70542W        W34750  30.416  26.954   3.277
70543W        W34751  33.065  23.719  12.435
70544W        W34752   0.291  21.530  13.478
70545W        W34753   2.395  44.302  10.983
70546W        W34754   4.806   7.847  11.874
70547W        W34755  31.625  18.556  13.043
70548W        W34756  32.965  28.451  13.958
70549W        W34757  11.300  39.396   2.896
70550W        W34758  35.521  31.420   3.701
70551W        W34759  34.405  24.590  12.937
70552W        W34760  14.792   3.375   0.742
70553W        W34761  29.975   9.368  12.065
70554W        W34762  33.996   7.294   0.967
70555W        W34763  15.612  27.059  13.921
70556W        W34764  30.655   5.437  14.469
70557W        W34765  17.661  25.702  12.516
70558W        W34766   7.761  42.415   3.829
70559W        W34767  20.202  13.734  10.962
70560W        W34768   9.205  42.793   5.109
70561W        W34769   7.833   4.232   0.447
70562W        W34770  36.387  30.956  13.405
70563W        W34771  36.463   8.767  12.092
70564W        W34772   4.430  30.589   3.327
70565W        W34773  17.791  12.332  11.010
70566W        W34774  31.600  36.573  11.510
70567W        W34775   8.329  42.978  12.461
70568W        W34776  32.991  41.982  10.532
70569W        W34777   7.270  10.312  10.971
70570W        W34778  42.908  24.102   4.139
70571W        W34779   9.778  24.177  13.837
70572W        W34780   2.779   4.717  11.091
70573W        W34781  13.608  10.145  14.912
70574W        W34782  42.426  18.242   1.810
70575W        W34783   3.295  14.206   1.881
70576W        W34784  20.527  36.479   1.427
70577W        W34785  26.105  30.040   1.313
70578W        W34786  22.699  16.151   1.799
70579W        W34787  13.327  25.114   3.864
70580W        W34788  10.762  20.268  13.523
70581W        W34789  14.645  11.637  14.427
70582W        W34790  29.507  21.141   3.773
70583W        W34791   8.744  17.619  13.906
70584W        W34792  27.647  14.308  12.524
70585W        W34793  11.291  10.860   4.606
70586W        W34794  31.600  14.658  14.018
70587W        W34795  32.537  44.865   0.842
70588W        W34796  34.881  24.551   4.173
70589W        W34797   4.796  40.316  13.863
70590W        W34798  30.452  40.481  12.879
70591W        W34799   1.275  33.508   3.323
70592W        W34800  22.573  36.905   4.803
70593W        W34801   5.430  26.663   0.963
70594W        W34802  15.630   3.450  12.054
70595W        W34803  40.858  23.108   2.768
70596W        W34804  11.133   3.253   0.322
70597W        W34805   0.277  33.528  13.003
70598W        W34806  17.801  42.487  13.330
70599W        W34807  12.285  15.693   0.325
70600W        W34808  41.994  15.744   4.734
70601W        W34809  34.536  26.022   0.929
70602W        W34810   6.842  21.024  11.447
70603W        W34811  17.091   4.819   3.633
70604W        W34812  22.747  36.049  14.303
70605W        W34813  42.974  33.045  10.004
70606W        W34814  21.078  42.877  11.858
70607W        W34815   5.876  31.466  11.488
70608W        W34816  10.368   0.786   4.300
70609W        W34817   8.855  33.496  14.333
70610W        W34818  35.973  32.417  14.432
70611W        W34819  29.656  38.946  11.951
70612W        W34820  23.722  22.186   3.802
70613W        W34821  21.058  12.767   0.764
70614W        W34822   4.712  24.017   0.884
70615W        W34823   9.884  30.484  13.022
70616W        W34824  38.337  42.522   4.147
70617W        W34825  13.692   3.283  10.532
70618W        W34826  11.783  37.396  14.470
70619W        W34827   1.737   6.315   0.337
70620W        W34828  41.347   4.923  11.116
70621W        W34829   9.692  40.416  14.351
70622W        W34830  15.150  25.538  11.495
70623W        W34831  11.785  30.580  11.028
70624W        W34832  20.267  26.000  12.882
70625W        W34833  17.645  31.565  14.352
70626W        W34834  29.438  15.179  12.924
70627W        W34835  16.623   1.324  12.457
70628W        W34836  25.518  36.005  10.100
70629W        W34837  17.167  15.687   2.226
70630W        W34838  21.757  18.707  11.395
70631W        W34839   9.293   6.360  11.404
70632W        W34840  25.587  12.850   2.730
70633W        W34841   6.889   1.338   3.166
70634W        W34842  35.998  43.369   2.831
70635W        W34843  44.343  26.544  14.286
70636W        W34844  43.302  10.769   1.911
70637W        W34845  30.055   1.258   3.294
70638W        W34846  12.639  15.694   3.356
70639W        W34847  14.127  26.644   0.841
70640W        W34848   1.833  30.088   1.796
70641W        W34849  11.854  12.293  10.093
70642W        W34850  29.104  20.616   4.183
70643W        W34851  39.817  25.033   0.340
70644W        W34852   8.756  19.187  12.067
70645W        W34853  14.152   6.332  13.385
70646W        W34854  12.223  32.446   0.899
70647W        W34855   6.918  25.675   4.742
70648W        W34856  37.931   7.908   2.843
70649W        W34857  24.719  20.080  13.799
70650W        W34858  38.391  31.022   2.747
70651W        W34859  12.245  34.553  13.903
70652W        W34860  37.962  33.530  11.116
70653W        W34861  35.890  43.881  12.458
70654W        W34862  42.956  22.055   4.181
70655W        W34863  15.602  35.860   4.810
70656W        W34864  26.067  30.016   0.799
70657W        W34865  40.025  20.095   5.151
70658W        W34866  37.059  42.428  12.873
70659W        W34867   4.210  42.822   0.912
70660W        W34868  10.641  12.259  14.382
70661W        W34869  23.191   5.828  13.874
70662W        W34870  26.110   1.894  13.512
70663W        W34871  24.601  31.153  14.279
70664W        W34872   9.298   2.750   4.734
70665W        W34873  11.842  21.019  11.059
70666W        W34874   9.667  25.697   4.143
70667W        W34875   3.337  24.191   1.315
70668W        W34876  36.044  22.563   0.444
70669W        W34877  32.470   9.809   2.283
70670W        W34878  30.427  38.072  13.887
70671W        W34879  21.691  19.552   2.747
70672W        W34880  42.830  23.095   1.400
70673W        W34881   8.839  22.502  14.935
70674W        W34882  21.750  16.300  14.926
70675W        W34883  42.456  16.718  12.073
70676W        W34884  38.463  19.092  12.042
70677W        W34885   0.781  26.566   0.829
70678W        W34886  38.426  17.617   2.288
70679W        W34887  23.135   5.321   1.414
70680W        W34888   4.793  12.753  11.543
70681W        W34889  29.140  13.841  14.766
70682W        W34890  10.638  16.248   9.980
70683W        W34891  13.291  15.663   2.897
70684W        W34892  29.562   7.274  11.110
70685W        W34893  10.716  29.524   1.705
70686W        W34894   1.455  13.142  11.469
70687W        W34895  15.812  22.074   4.757
70688W        W34896  20.741  25.045  11.000
70689W        W34897  11.142  28.649   2.840
70690W        W34898  31.006  32.041   2.886
70691W        W34899  17.159  17.175  11.896
70692W        W34900  24.636  21.183   3.630
70693W        W34901  21.601  16.589  12.400
70694W        W34902  29.496  11.257   1.224
70695W        W34903   3.908  20.731   1.381
70696W        W34904  31.104  27.063   1.411
70697W        W34905  28.500  11.671  10.473
70698W        W34906   5.754  21.581   1.426
70699W        W34907  20.617  27.136  13.894
70700W        W34908   7.218  25.980   2.883
70701W        W34909  27.161  22.643  11.035
70702W        W34910  11.312  16.151  13.427
70703W        W34911  34.601   3.756  13.850
70704W        W34912  12.746  11.303  11.108
70705W        W34913  42.513  26.700  11.385
70706W        W34914  40.432  39.443   1.838
70707W        W34915   2.946  39.951   0.280
70708W        W34916  19.255  15.727  12.514
70709W        W34917  44.882  20.733  12.529
70710W        W34918  17.273   6.244   1.380
70711W        W34919  29.964  36.894   0.330
70712W        W34920  23.019  29.134  14.329
70713W        W34921  29.074  44.289  10.507
70714W        W34922   9.878   9.244   1.348
70715W        W34923  13.717  11.663  11.946
70716W        W34924  14.712  32.534   1.695
70717W        W34925  27.972  14.241   1.817
70718W        W34926  25.655  13.326  12.849
70719W        W34927  10.224  23.069  11.128
70720W        W34928  36.980  19.719   0.299
70721W        W34929   8.822   4.858   1.900
70722W        W34930   0.297  10.643   1.811
70723W        W34931  41.816  41.510   0.452
70724W        W34932  44.866  20.695  13.548
70725W        W34933  44.790  42.325  13.820
70726W        W34934   8.839   6.285   4.635
70727W        W34935  24.066  25.582  14.868
70728W        W34936   5.425  35.367   4.700
70729W        W34937  38.896  10.201  13.391
70730W        W34938   8.375  43.986  13.931
70731W        W34939  42.961  37.548  12.569
70732W        W34940   1.974  43.964  12.864
70733W        W34941  19.158  34.509  11.877
70734W        W34942   1.420  44.909   3.196
70735W        W34943  43.295  42.298  11.387
70736W        W34944   9.283  40.378  11.427
70737W        W34945  42.784  28.019   4.763
70738W        W34946  14.693  29.137  13.052
70739W        W34947  23.618   4.905  10.414
70740W        W34948  28.147  23.534   9.967
70741W        W34949   3.298  39.386   4.760
70742W        W34950  17.122  28.030  14.419
70743W        W34951  41.943  36.360  10.624
70744W        W34952  14.298  25.195  11.465
70745W        W34953  12.205  15.629  12.954
70746W        W34954   7.898  23.041   4.678
70747W        W34955  34.057  39.453   1.441
70748W        W34956  36.508  44.392   3.177
70749W        W34957  43.280  38.441   4.835
70750W        W34958  40.868  38.911  10.477
70751W        W34959   0.763  23.673  14.919
70752W        W34960  10.744  23.178   3.329
70753W        W34961  43.929  37.499   2.774
70754W        W34962  32.605  33.488  12.498
70755W        W34963   3.875  37.501   0.940
70756W        W34964  32.413  13.618  11.410
70757W        W34965  42.912  39.822   4.779
70758W        W34966  40.499   3.794   2.777
70759W        W34967   5.429  10.642   3.833
70760W        W34968  21.644  41.929  11.952
70761W        W34969  19.107  19.625   3.688
70762W        W34970  37.053  35.427   1.922
70763W        W34971  12.658  22.704   0.892
70764W        W34972  13.805   2.926  11.585
70765W        W34973  10.166   5.756  11.020
70766W        W34974  39.487  10.665  14.350
70767W        W34975   4.235  16.647  13.059
70768W        W34976  37.068  20.698  12.937
70769W        W34977  31.591   3.844  10.638
70770W        W34978  34.437  35.430   2.880
70771W        W34979   9.736  36.877  12.491
70772W        W34980  31.599  30.977   1.428
70773W        W34981   5.247  35.560   4.322
70774W        W34982  12.835  36.365   4.206
70775W        W34983  44.401  22.212   3.688
70776W        W34984  42.875  20.254   1.722
70777W        W34985   8.895  38.021  12.001
70778W        W34986  11.841  17.196  12.367
70779W        W34987   2.380  31.539   5.161
70780W        W34988  14.209   8.843   0.752
70781W        W34989   7.839   7.180  10.152
70782W        W34990  26.032  24.997   2.385
70783W        W34991   4.220   4.799   3.788
70784W        W34992  33.489  44.505   3.810
70785W        W34993  14.288  23.566  13.429
70786W        W34994   7.416   9.272   3.841
70787W        W34995   5.286   6.807  12.418
70788W        W34996  20.198  40.021   4.649
70789W        W34997  26.623  24.700   4.222
70790W        W34998  44.970   0.274   1.360
70791W        W34999   1.867  25.160   3.810
70792W        W35000   7.908   8.794   3.245
70793W        W35001  40.022  38.975  14.807
70794W        W35002  29.455   5.780   4.737
70795W        W35003  20.550  26.151   3.749
70796W        W35004  44.906  15.118   0.302
70797W        W35005   6.730  36.854  12.885
70798W        W35006   4.772  24.711  12.403
70799W        W35007  38.504  43.964  12.894
70800W        W35008  26.512  41.301  14.974
70801W        W35009  43.399  30.439   4.210
70802W        W35010  10.637  22.235   2.782
70803W        W35011  32.505  37.580  12.090
70804W        W35012  31.933  19.062  13.348
70805W        W35013   2.927  22.222   2.263
70806W        W35014   2.364   3.461  10.029
70807W        W35015  34.998  42.286  10.989
70808W        W35016  23.058   4.777  10.528
70809W        W35017  26.483  39.502   3.166
70810W        W35018  28.543  32.126   1.819
70811W        W35019  23.731  26.071  10.552
70812W        W35020  42.356  30.430   1.302
70813W        W35021   7.220   8.896   2.324
70814W        W35022  24.013   8.859   9.996
70815W        W35023   3.264   2.775   1.698
70816W        W35024  38.456  10.855  11.417
70817W        W35025  10.769  36.904   3.760
70818W        W35026  31.958   7.342   0.815
70819W        W35027  17.157  16.760   1.806
70820W        W35028  18.719  17.100  10.594
70821W        W35029  39.493   9.268   1.425
70822W        W35030  30.490   9.684   0.739
70823W        W35031   0.285  34.530  11.950
70824W        W35032  42.000  10.658   4.604
70825W        W35033  24.195  24.546   0.376
70826W        W35034   7.351  38.354   3.318
70827W        W35035  15.255  32.473   3.805
70828W        W35036   3.335  42.782   1.214
70829W        W35037  34.877  29.942   4.260
70830W        W35038   4.319  16.275   2.690
70831W        W35039  18.079  41.989  11.600
70832W        W35040  40.883   3.300   1.847
70833W        W35041   3.897   9.330   3.868
70834W        W35042  27.015  31.443   3.203
70835W        W35043  35.876   5.742   1.901
70836W        W35044  43.343   6.776  10.513
70837W        W35045   5.811  19.076   0.888
70838W        W35046  41.443   6.242  13.375
70839W        W35047   6.841   6.321   3.643
70840W        W35048  37.504  21.020   5.126
70841W        W35049  22.185  13.715   0.870
70842W        W35050   1.917   5.922   0.458
70843W        W35051   6.317  34.571   4.314
70844W        W35052  22.022  23.624  14.298
70845W        W35053  34.536  10.875  14.354
70846W        W35054   5.374  42.459  13.380
70847W        W35055   8.326  32.018   0.751
70848W        W35056  26.111  22.046   1.442
70849W        W35057   8.852  30.101  14.286
70850W        W35058  16.593  16.172  14.972
70851W        W35059  23.628  41.016   1.930
70852W        W35060  18.146   8.288   2.392
70853W        W35061  23.098  41.806  13.544
70854W        W35062  25.134  33.598  13.033
70855W        W35063  29.098  12.780  10.618
70856W        W35064  15.327  29.046  14.881
70857W        W35065  34.407  28.488  13.372
70858W        W35066  34.060  22.036  14.886
70859W        W35067   4.301  13.769   4.237
70860W        W35068  30.162  44.774   3.177
70861W        W35069  21.712  40.401   2.869
70862W        W35070  27.463  21.516   3.744
70863W        W35071  38.028  38.473  10.948
70864W        W35072  17.787   9.325   1.344
70865W        W35073  24.080  43.303   4.122
70866W        W35074  21.080  26.560  10.889
70867W        W35075  43.810  25.686  10.922
70868W        W35076  11.807  16.640   0.858
70869W        W35077  16.615   2.242  10.950
70870W        W35078   2.908  11.164  11.105
70871W        W35079  23.178  31.988   1.865
70872W        W35080  26.513  31.114  12.428
70873W        W35081  32.559  40.863  11.380
70874W        W35082  34.542  18.162  13.856
70875W        W35083   2.946  40.848  12.562
70876W        W35084  13.661  24.721   4.284
70877W        W35085  29.078   0.417   0.435
70878W        W35086  43.919   1.373   5.317
70879W        W35087  24.708  38.505  12.828
70880W        W35088  33.445  14.247  12.943
70881W        W35089  41.314  22.208   3.668
70882W        W35090  10.638  21.582  11.485
70883W        W35091  17.777  31.012  10.430
70884W        W35092  23.535  18.735   3.165
70885W        W35093   6.326   1.315  14.773
70886W        W35094  22.640  16.711   5.295
70887W        W35095  32.099  11.279   1.387
70888W        W35096  32.425  29.538   3.363
70889W        W35097  13.748  19.604   3.339
70890W        W35098   2.351   1.388  14.499
70891W        W35099  15.640   8.247   1.712
70892W        W35100  11.818  36.908   1.922
70893W        W35101  30.927  36.388  12.346
70894W        W35102  14.193  39.469   1.325
70895W        W35103  24.166  37.555   0.477
70896W        W35104  35.584  35.459  10.613
70897W        W35105   7.797  35.548   1.884
70898W        W35106  15.678  15.754  12.349
70899W        W35107  38.423  12.171   4.347
70900W        W35108  12.306  10.195  11.605
70901W        W35109  41.966  44.408  11.056
70902W        W35110  22.031  40.961  14.920
70903W        W35111   0.852  24.112  14.790
70904W        W35112  20.219  28.107  12.901
70905W        W35113  38.414   6.248   3.195
70906W        W35114  34.938  24.161   4.807
70907W        W35115  42.869  33.602  14.407
70908W        W35116  21.113  10.743   2.287
70909W        W35117  32.900  18.236  11.012
70910W        W35118  18.559   3.822  10.583
70911W        W35119  11.659  44.953  13.054
70912W        W35120   8.811   9.662   1.718
70913W        W35121  11.810  26.034  13.032
70914W        W35122  32.423  16.776  12.007
70915W        W35123  33.434   0.443  13.032
70916W        W35124  25.620  15.588   2.275
70917W        W35125  14.596  34.932  12.452
70918W        W35126  39.508   5.780   9.498
70919W        W35127  41.532   9.661  10.900
70920W        W35128  39.455  26.674  12.465
70921W        W35129   0.413  44.336   4.615
70922W        W35130  41.908  30.935   0.773
70923W        W35131  10.352  26.969  11.407
70924W        W35132   8.356   2.868  10.961
70925W        W35133  16.643  43.968  10.608
70926W        W35134  22.216  17.593   1.326
70927W        W35135  19.706  13.182   0.872
70928W        W35136  27.132  39.340  12.468
70929W        W35137  42.358  17.674  11.437
70930W        W35138  24.630  42.909  11.068
70931W        W35139  19.094   3.832   0.900
70932W        W35140   1.777  38.863  10.933
70933W        W35141  19.726  44.985  14.336
70934W        W35142  24.503   7.186  11.444
70935W        W35143  41.961  37.437  13.064
70936W        W35144  39.438  17.183   3.201
70937W        W35145  22.204  37.357  14.407
70938W        W35146  25.489  14.163  13.410
70939W        W35147  20.645  11.188   3.258
70940W        W35148  25.575  42.020   3.762
70941W        W35149   0.345   4.431   2.814
70942W        W35150  44.329  36.998   3.363
70943W        W35151   0.438  28.460  10.983
70944W        W35152  12.194  15.299  12.540
70945W        W35153  43.970  40.943  14.348
70946W        W35154  12.119  23.206  11.922
70947W        W35155  41.809  30.495   3.721
70948W        W35156  22.620   7.229   0.473
70949W        W35157   1.463   5.286   2.272
70950W        W35158  35.373  40.540   1.900
70951W        W35159  27.512  18.060   1.713
70952W        W35160  15.623   7.842  10.555
70953W        W35161  23.725  12.260  13.803
70954W        W35162  35.058  39.560  11.405
70955W        W35163  15.214   9.867   0.288
70956W        W35164  22.094   6.306   0.738
70957W        W35165  39.062  37.994   2.828
70958W        W35166  25.995  36.936  11.032
70959W        W35167  14.799  43.878   2.325
70960W        W35168  30.028   5.244  11.470
70961W        W35169   1.423  12.843   4.820
70962W        W35170  27.469  15.259   4.709
70963W        W35171  15.291   5.929   2.272
70964W        W35172  12.667   8.842   0.414
70965W        W35173  43.815   7.825  14.422
70966W        W35174  24.186  28.467  11.510
70967W        W35175   0.346  40.398   0.271
70968W        W35176   9.685   5.820  11.508
70969W        W35177  19.539  16.800  13.916
70970W        W35178  12.344  14.300   4.803
70971W        W35179  13.656  35.873  10.568
70972W        W35180   8.214  26.146  12.870
70973W        W35181  15.736  23.542   4.754
70974W        W35182   8.318  11.841   1.281
70975W        W35183  15.603  22.081   3.181
70976W        W35184  36.889  33.988  10.495
70977W        W35185  25.468   4.878   4.267
70978W        W35186   7.317  38.947   3.171
70979W        W35187  28.534  23.708  10.404
70980W        W35188  11.652   8.392  10.421
70981W        W35189  18.265  38.570  14.341
70982W        W35190   9.819  38.397   2.362
70983W        W35191  35.017  44.326  11.932
70984W        W35192   9.172  40.454   4.342
70985W        W35193  38.349   5.325   0.937
70986W        W35194  32.080  43.511  14.961
70987W        W35195  24.159  39.492   1.780
70988W        W35196  30.966   9.344  11.974
70989W        W35197  43.984  44.808   2.836
70990W        W35198  39.453   8.268   3.713
70991W        W35199  41.337  28.550   2.811
70992W        W35200  35.554   5.276   0.819
70993W        W35201   2.374  14.237   1.719
70994W        W35202   0.391  29.659  14.799
70995W        W35203   7.178  28.522  11.606
70996W        W35204   3.456  39.065  11.915
70997W        W35205  14.107  32.036  14.421
70998W        W35206   9.850  22.605  13.307
70999W        W35207  38.845  24.135   4.281
71000W        W35208  15.731  23.113  10.966
71001W        W35209  22.579  34.453   9.968
71002W        W35210  16.208  19.755   3.799
71003W        W35211  21.063   3.743  11.447
71004W        W35212  41.973   8.702  11.448
71005W        W35213  36.049  37.545  11.879
71006W        W35214  39.545   1.948  11.551
71007W        W35215  27.607  12.666   4.740
71008W        W35216   1.902   5.745   1.303
71009W        W35217  16.656   4.252   2.382
71010W        W35218   6.301   0.409  14.002
71011W        W35219  28.666  20.673  13.458
71012W        W35220  42.330  22.216   2.699
71013W        W35221  20.177  26.150  14.951
71014W        W35222   3.842  30.465   4.743
71015W        W35223  33.599  20.695  13.002
71016W        W35224  34.110   5.397   1.766
71017W        W35225  31.631  34.043   3.818
71018W        W35226  12.729  11.765   3.387
71019W        W35227  12.243  10.851  12.898
71020W        W35228  29.998  39.904  12.831
71021W        W35229   4.417   8.331  12.853
71022W        W35230   5.404  24.643   1.291
71023W        W35231  21.100   8.236  13.964
71024W        W35232  11.141  31.625   4.252
71025W        W35233  19.056   9.264   3.157
71026W        W35234  26.208  43.827  14.915
71027W        W35235   4.413  37.034  11.464
71028W        W35236  33.975  33.897  14.947
71029W        W35237  36.877  36.090  11.501
71030W        W35238  37.948  32.137  10.443
71031W        W35239  25.022  44.753   1.404
71032W        W35240  14.781  32.007  10.614
71033W        W35241  26.993  12.184   0.245
71034W        W35242  21.134  36.006   3.386
71035W        W35243   9.740  41.501  13.486
71036W        W35244  31.066  25.691   2.305
71037W        W35245  23.207   2.252  14.509
71038W        W35246   2.256  23.998  12.984
71039W        W35247  12.221  16.091   3.180
71040W        W35248  31.620  32.933   3.748
71041W        W35249  37.552  31.997   2.210
71042W        W35250  22.615  21.717  13.993
71043W        W35251  32.066  33.102  10.936
71044W        W35252  16.590  43.924  11.107
71045W        W35253  11.727  31.102   4.651
71046W        W35254  17.629  44.889   2.418
71047W        W35255  11.853  31.577   2.275
71048W        W35256  11.814  23.674  13.995
71049W        W35257  33.014  25.486   1.908
71050W        W35258  16.266  19.040   2.191
71051W        W35259  24.115  34.933   1.836
71052W        W35260  34.027  14.253   1.356
71053W        W35261  35.395  35.466  14.326
71054W        W35262  10.811  43.979  10.420
71055W        W35263  44.997   1.429   2.391
71056W        W35264   6.394   3.347  11.495
71057W        W35265  17.251  34.904  14.968
71058W        W35266  21.695  33.976  10.596
71059W        W35267  15.732  14.809   2.709
71060W        W35268  27.990  40.461  11.030
71061W        W35269   7.231  39.913   1.815
71062W        W35270  14.746  25.680   1.806
71063W        W35271   9.385  28.096  13.427
71064W        W35272  16.593   9.705  11.462
71065W        W35273   6.832  31.012  12.341
71066W        W35274  14.822  12.208  13.399
71067W        W35275  11.850  24.007  12.505
71068W        W35276  15.208  31.566   1.399
71069W        W35277  38.840  32.606  13.341
71070W        W35278  40.529  39.323   1.287
71071W        W35279  26.699  31.995   4.838
71072W        W35280  31.579  11.270  10.938
71073W        W35281  39.546  16.683   4.228
71074W        W35282  38.489  22.647  14.772
71075W        W35283  44.477  40.388   2.379
71076W        W35284  41.318  20.178  13.882
71077W        W35285  38.932  25.529   2.796
71078W        W35286  26.117  16.567   4.313
71079W        W35287  36.916  29.003  12.351
71080W        W35288   2.910   7.239  14.942
71081W        W35289  25.123  17.628   1.295
71082W        W35290  19.775  36.378   9.940
71083W        W35291   0.290   2.255   1.794
71084W        W35292  42.297  19.698   3.672
71085W        W35293  19.164  34.029  13.434
71086W        W35294  44.366  10.697  10.635
71087W        W35295  12.124  22.136   2.215
71088W        W35296  28.976   1.238   0.946
71089W        W35297  28.990  36.484   1.926
71090W        W35298  15.197   4.803   1.863
71091W        W35299  31.546   6.904  13.997
71092W        W35300  42.463  39.963  12.050
71093W        W35301  15.726  18.280  13.424
71094W        W35302  24.609  44.834   1.935
71095W        W35303  24.530  40.021  13.815
71096W        W35304  27.031   2.286   2.339
71097W        W35305   8.393  20.049   3.664
71098W        W35306   7.189  17.699  12.860
71099W        W35307  13.348  26.559   0.789
71100W        W35308  14.193  32.009   0.782
71101W        W35309   5.193   6.815   2.725
71102W        W35310  25.054   4.806  12.449
71103W        W35311  33.616   0.985   1.236
71104W        W35312  22.714   4.301  13.492
71105W        W35313  12.204  26.135  11.601
71106W        W35314  39.019   2.953  12.537
71107W        W35315  23.084  23.618   0.963
71108W        W35316  38.897   0.828   3.262
71109W        W35317  12.359  42.917   4.835
71110W        W35318  24.171  11.218  14.487
71111W        W35319   7.389   5.707   1.424
71112W        W35320  29.117  10.734   0.447
71113W        W35321  33.102  10.316  12.050
71114W        W35322   8.694  33.938  12.991
71115W        W35323  29.514  38.483   3.165
71116W        W35324   3.370  29.975   0.775
71117W        W35325   2.468  10.852   1.395
71118W        W35326  15.627   1.892   2.832
71119W        W35327  32.078  26.128  14.436
71120W        W35328  30.142   6.793   3.341
71121W        W35329  11.780  37.403  13.838
71122W        W35330  17.634  18.665   1.730
71123W        W35331  28.175  37.928  13.062
71124W        W35332  41.425   8.327  13.910
71125W        W35333  26.075  40.007   1.715
71126W        W35334  21.546  34.509  14.376
71127W        W35335  18.291   9.394   9.449
71128W        W35336   8.295  27.526  10.546
71129W        W35337  23.091   7.750   3.687
71130W        W35338  15.762  32.623   4.311
71131W        W35339  41.843  21.720  12.917
71132W        W35340  26.509   9.190  11.921
71133W        W35341  27.474  35.371   1.289
71134W        W35342  15.614   4.409   1.305
71135W        W35343   2.804  39.374   0.797
71136W        W35344  36.426   2.267  11.029
71137W        W35345   1.477  38.543   5.225
71138W        W35346  42.515   4.944   1.336
71139W        W35347  11.266  40.516  10.489
71140W        W35348  37.898  29.511  14.861
71141W        W35349   0.932  11.176  13.013
71142W        W35350  43.443  18.162   1.341
71143W        W35351  38.913   3.933   1.366
71144W        W35352  24.182  28.037   2.297
71145W        W35353  38.939  41.469   1.331
71146W        W35354  15.729   2.340  12.869
71147W        W35355  17.587  12.693   3.866
71148W        W35356  17.761   6.419   2.847
71149W        W35357  14.675  11.151   1.694
71150W        W35358  15.138  27.591   2.331
71151W        W35359  37.539  42.925   0.753
71152W        W35360  25.973  33.535  11.114
71153W        W35361  14.135  44.002  13.515
71154W        W35362  17.137  20.733  11.436
71155W        W35363  30.574  31.025  14.874
71156W        W35364  44.791  44.429   2.400
71157W        W35365  38.908  25.153   4.666
71158W        W35366  38.360   9.810   1.721
71159W        W35367  25.507  21.205   0.287
71160W        W35368   5.421   3.250  13.383
71161W        W35369   5.739  15.774  14.289
71162W        W35370  11.683   5.197   0.879
71163W        W35371  17.076  12.274  10.454
71164W        W35372  31.565  31.014   2.702
71165W        W35373  13.607  25.692  14.004
71166W        W35374  24.623  10.229  14.918
71167W        W35375  14.097  39.488   4.299
71168W        W35376  31.030   9.881  12.876
71169W        W35377  13.827  31.995   2.334
71170W        W35378  32.562  12.624  14.472
71171W        W35379   2.292  12.794  13.376
71172W        W35380  12.274  44.760   3.274
71173W        W35381  44.799  10.160  13.900
71174W        W35382   1.968  37.581  11.940
71175W        W35383  10.324   3.356   2.218
71176W        W35384  37.951   4.845  14.816
71177W        W35385  14.292  14.662  13.502
71178W        W35386  13.621  31.614   2.892
71179W        W35387  26.038  38.460  11.985
71180W        W35388  33.474  18.190  14.302
71181W        W35389  42.406  25.060   0.364
71182W        W35390  36.008   3.248   0.476
71183W        W35391   7.412  15.115   0.867
71184W        W35392  37.531  35.557   2.703
71185W        W35393  10.730  25.162   4.172
71186W        W35394  30.645  34.426  13.427
71187W        W35395  26.144  15.710   2.303
71188W        W35396  38.004  41.468  12.368
71189W        W35397   2.948  29.520  10.533
71190W        W35398   3.264  28.483  13.310
71191W        W35399   3.743  27.484   0.932
71192W        W35400  16.277  37.876  12.395
71193W        W35401  32.551  39.362  10.916
71194W        W35402  44.788  11.810  12.995
71195W        W35403  40.516  17.219  14.321
71196W        W35404  42.833  28.635   0.301
71197W        W35405  26.171  23.523  11.050
71198W        W35406  22.070   3.791   0.746
71199W        W35407  31.054  37.356  14.304
71200W        W35408  13.293   9.263  11.994
71201W        W35409  42.355  26.571  12.580
71202W        W35410   5.756   0.923  14.852
71203W        W35411   4.929  24.675   4.310
71204W        W35412  31.032  40.497   5.218
71205W        W35413  25.483  44.768   2.783
71206W        W35414  34.969  11.719  11.957
71207W        W35415  14.815  23.176   0.298
71208W        W35416  39.833  20.263  13.020
71209W        W35417  30.042   0.918  14.279
71210W        W35418  12.162  43.456  12.994
71211W        W35419  44.418  35.514   3.824
71212W        W35420   6.711  42.960  12.826
71213W        W35421  19.065  30.053   2.811
71214W        W35422  11.139  16.813  13.861
71215W        W35423  25.178  35.089  10.959
71216W        W35424   2.432  30.090   1.706
71217W        W35425  16.081  15.810   0.310
71218W        W35426  19.655  24.229   3.296
71219W        W35427  31.087  34.909  13.935
71220W        W35428  24.079   0.801   5.159
71221W        W35429  14.601  14.287  14.920
71222W        W35430  22.665  39.506   4.633
71223W        W35431  24.110  12.729   1.239
71224W        W35432   0.265  37.928   3.226
71225W        W35433  37.911  16.089   2.716
71226W        W35434  20.132  14.632  10.056
71227W        W35435  36.572   0.272  12.826
71228W        W35436  40.023  28.560   0.926
71229W        W35437  28.650  26.193   3.181
71230W        W35438   5.795  24.581   2.703
71231W        W35439  16.566  21.230  10.557
71232W        W35440  40.931  20.249   2.739
71233W        W35441   0.330  24.219  13.007
71234W        W35442  10.182  22.104   4.615
71235W        W35443  14.650  34.459  13.039
71236W        W35444  27.641  14.233  14.029
71237W        W35445   8.749  26.013   0.256
71238W        W35446   8.675   1.255  11.068
71239W        W35447  30.071  41.391  13.309
71240W        W35448  18.157  35.970  13.865
71241W        W35449   6.704  12.729   0.299
71242W        W35450  19.259  30.577   0.841
71243W        W35451  26.140  10.676   3.149
71244W        W35452   4.868  41.926  10.439
71245W        W35453  19.707  22.023  11.475
71246W        W35454  32.059  33.623  12.386
71247W        W35455  24.604  17.244  13.917
71248W        W35456   5.735   7.763   2.714
71249W        W35457  40.985  34.455   1.211
71250W        W35458   1.775  37.864  12.373
71251W        W35459  37.484   4.857   3.234
71252W        W35460  35.533  35.532   3.708
71253W        W35461   8.219  32.514   4.638
71254W        W35462  43.340  11.245  10.524
71255W        W35463  21.079  29.629   0.953
71256W        W35464   7.181  34.594  11.859
71257W        W35465  30.635  16.269   2.888
71258W        W35466  14.146   9.781   3.665
71259W        W35467  26.088   8.718  14.941
71260W        W35468  29.949  24.647  13.012
71261W        W35469   7.697   6.802   0.769
71262W        W35470  26.166  25.098  13.937
71263W        W35471  31.056  32.608   0.352
71264W        W35472  43.767  33.411  10.994
71265W        W35473  37.890  29.631  10.629
71266W        W35474  30.149  16.254  14.935
71267W        W35475  35.526  39.357   4.796
71268W        W35476  27.007  35.472  11.589
71269W        W35477  12.652  15.095   0.848
71270W        W35478  13.192  32.975   2.322
71271W        W35479  41.970   7.867  12.062
71272W        W35480   3.329  40.035   2.737
71273W        W35481  34.002  25.114   3.333
71274W        W35482  17.143  11.769   3.273
71275W        W35483  43.489   4.943   4.608
71276W        W35484  14.185  34.414   1.789
71277W        W35485  23.683   0.916  14.028
71278W        W35486  21.661  24.555   1.754
71279W        W35487   6.251  40.366  10.553
71280W        W35488   7.868   0.346   2.343
71281W        W35489  18.712  38.970  14.287
71282W        W35490  10.673  16.116  10.556
71283W        W35491  38.961   0.748   5.317
71284W        W35492  43.441  26.087   4.758
71285W        W35493  29.165  31.151   1.268
71286W        W35494  39.820  32.502   2.858
71287W        W35495   7.356  35.585  14.314
71288W        W35496  36.395  25.215   3.819
71289W        W35497  38.075  38.442  12.840
71290W        W35498  40.882  21.251   1.713
71291W        W35499  31.031   1.752   2.704
71292W        W35500  30.436  32.549   3.649
71293W        W35501  40.502   1.291   3.287
71294W        W35502   4.890  41.483   4.602
71295W        W35503  32.635  12.226  13.999
71296W        W35504  33.430  34.965  12.562
71297W        W35505  30.643  30.529  10.538
71298W        W35506   4.855   4.262  13.890
71299W        W35507   4.818   6.757   2.808
71300W        W35508  22.567  23.552   1.785
71301W        W35509  13.757  34.945  12.912
71302W        W35510   3.828  42.433   1.268
71303W        W35511  43.817   9.830  13.521
71304W        W35512  32.038   1.274   0.951
71305W        W35513  12.710  21.606   2.854
71306W        W35514  29.125   6.903   1.729
71307W        W35515  21.630  42.293  11.902
71308W        W35516   9.798  22.100   4.290
71309W        W35517  35.957  23.535   0.464
71310W        W35518  23.547  18.665   5.118
71311W        W35519  34.577   5.905  11.900
71312W        W35520  32.020  24.504  11.410
71313W        W35521  33.400   0.408   4.338
71314W        W35522  13.733  40.011   0.476
71315W        W35523  18.095  35.964  12.967
71316W        W35524  21.632  39.418   4.126
71317W        W35525   9.273   1.916  13.040
71318W        W35526  33.465  17.092   4.272
71319W        W35527   6.899  20.049   1.219
71320W        W35528  35.885  10.255  11.033
71321W        W35529  28.072  15.664   2.282
71322W        W35530  32.549   5.925  11.371
71323W        W35531  11.286   8.691   3.190
71324W        W35532  14.744  13.821  13.382
71325W        W35533  26.657  29.932  12.577
71326W        W35534  40.346  42.947   1.904
71327W        W35535  36.878  19.101   1.744
71328W        W35536  14.182   5.813   3.211
71329W        W35537   5.306  22.655  12.022
71330W        W35538   1.795  13.302  11.960
71331W        W35539  34.119  11.246  12.959
71332W        W35540  29.578   7.818   3.726
71333W        W35541   7.338  28.145   2.701
71334W        W35542  17.216   5.225   1.771
71335W        W35543  18.703   0.437  12.885
71336W        W35544  39.904  39.420  13.478
71337W        W35545  37.871   3.930   3.862
71338W        W35546   6.284  25.029   9.965
71339W        W35547  14.331  33.394   1.919
71340W        W35548  30.656   4.258   4.235
71341W        W35549  16.593  35.440   9.676
71342W        W35550  32.084  12.332  11.478
71343W        W35551  39.877  20.573  14.813
71344W        W35552  17.701  22.601  12.470
71345W        W35553  23.106  16.132   3.778
71346W        W35554  33.016  28.988   1.887
71347W        W35555   9.320  34.537  13.441
71348W        W35556  30.037  10.163  14.022
71349W        W35557  30.640  38.981   1.907
71350W        W35558   6.682   5.402  11.457
71351W        W35559  16.142  21.240  14.284
71352W        W35560  12.754   7.345  13.441
71353W        W35561  37.853  40.958   0.801
71354W        W35562  32.484  44.823  11.382
71355W        W35563   3.254   1.330   4.738
71356W        W35564  18.170  34.095  14.831
71357W        W35565  10.662  28.158   0.742
71358W        W35566  36.928  34.915   3.864
71359W        W35567   8.373  30.618   0.833
71360W        W35568  38.523  43.000   4.758
71361W        W35569  39.471  27.166  11.017
71362W        W35570  31.109  27.123   3.201
71363W        W35571  29.535  21.728  11.563
71364W        W35572  41.828  44.892   0.285
71365W        W35573  18.691  25.200  11.064
71366W        W35574  37.941  37.486   4.354
71367W        W35575   6.895  15.765  11.965
71368W        W35576  35.541  21.157   4.654
71369W        W35577  33.068  33.030  14.866
71370W        W35578  26.557   1.759  14.379
71371W        W35579  32.076   8.832   0.376
71372W        W35580  28.139  24.973  10.112
71373W        W35581  42.491  23.593  14.300
71374W        W35582  29.430  12.832  12.507
71375W        W35583   7.244   7.857  11.124
71376W        W35584  17.601  24.059   3.155
71377W        W35585   1.832  11.300   1.401
71378W        W35586  10.764  34.979   3.747
71379W        W35587  16.116   5.229  11.950
71380W        W35588  36.406  27.942   1.430
71381W        W35589   5.880  38.994   1.369
71382W        W35590   8.846  27.030  11.468
71383W        W35591   0.774  16.674   4.330
71384W        W35592  34.934  43.292  14.511
71385W        W35593   9.340  32.097  10.934
71386W        W35594  20.066  36.072  12.969
71387W        W35595  12.283  24.055   1.218
71388W        W35596   3.372  14.688   1.309
71389W        W35597  39.915  38.352   1.743
71390W        W35598   8.243  38.471   4.647
71391W        W35599   8.165  28.157  11.922
71392W        W35600  28.454  28.053   3.786
71393W        W35601  34.577  38.913   1.923
71394W        W35602  14.783  33.035  14.462
71395W        W35603   7.828  32.990   4.698
71396W        W35604  35.067   6.338   3.700
71397W        W35605  17.680  41.477   4.225
71398W        W35606  32.491  13.148  11.115
71399W        W35607  35.983   3.385   2.687
71400W        W35608  37.010  11.842   2.730
71401W        W35609   4.440  44.505  10.452
71402W        W35610  20.737  34.418  10.502
71403W        W35611   7.177  33.055   2.357
71404W        W35612  44.442  23.082   1.284
71405W        W35613  24.713   7.324   3.806
71406W        W35614  34.869   8.394   2.855
71407W        W35615  44.824   9.171   1.431
71408W        W35616  31.595   0.416   1.844
71409W        W35617  16.097   1.438   3.306
71410W        W35618  23.200  28.157  14.994
71411W        W35619  19.597  42.479   3.346
71412W        W35620  38.558  37.945   3.377
71413W        W35621  29.995  37.002   2.298
71414W        W35622   3.436  14.154  12.422
71415W        W35623   6.786  28.544   3.721
71416W        W35624  40.411   0.390   1.390
71417W        W35625  36.947  17.087  13.019
71418W        W35626   3.404  31.921  10.625
71419W        W35627  20.584   4.723  13.370
71420W        W35628   8.772  34.469   0.869
71421W        W35629  37.861  31.908   0.467
71422W        W35630  23.169  16.110   1.818
71423W        W35631  42.286  17.665   1.451
71424W        W35632  42.307  26.592   4.147
71425W        W35633  24.692  22.079   4.757
71426W        W35634  39.437  15.811  10.935
71427W        W35635  13.785  20.053   4.802
71428W        W35636  22.036  22.026   3.641
71429W        W35637  16.742  26.634  12.029
71430W        W35638   5.868  31.616  10.511
71431W        W35639  32.928  32.479  13.914
71432W        W35640  12.716  41.353   2.322
71433W        W35641  25.091   0.972   3.229
71434W        W35642  30.636   4.255  12.846
71435W        W35643  38.449  25.165   3.258
71436W        W35644   9.866  12.627  10.940
71437W        W35645  11.831   3.916  13.474
71438W        W35646  18.628  26.122  11.570
71439W        W35647  29.617  17.293  13.363
71440W        W35648   5.237  12.154   2.384
71441W        W35649   3.286  38.999   4.685
71442W        W35650  17.715  38.006  11.461
71443W        W35651   6.252  18.556  14.848
71444W        W35652  30.626  14.705   0.856
71445W        W35653   3.272   8.253  11.090
71446W        W35654  21.639   1.903   0.905
71447W        W35655  33.104  18.656  11.564
71448W        W35656  35.034  10.158  13.321
71449W        W35657  40.476   3.353   2.353
71450W        W35658   5.249  35.408  12.560
71451W        W35659  18.249   0.363   1.434
71452W        W35660  23.047   2.843   3.151
71453W        W35661  13.701   0.895  12.854
71454W        W35662  15.202  25.969   1.302
71455W        W35663  24.075   7.856  11.390
71456W        W35664  13.734  29.012   3.802
71457W        W35665  25.150  35.086  12.360
71458W        W35666  28.499  41.361   0.851
71459W        W35667  21.646  22.247  12.911
71460W        W35668  44.448  38.003  14.424
71461W        W35669  36.936  14.672  11.459
71462W        W35670  13.262  37.000  14.022
71463W        W35671   2.939  14.689   1.251
71464W        W35672   8.341  15.641   5.094
71465W        W35673  27.146   8.784   1.717
71466W        W35674  27.182   8.380   3.802
71467W        W35675  10.720  19.780   4.731
71468W        W35676  43.329  24.993  10.119
71469W        W35677   4.417   9.181   2.389
71470W        W35678  42.859  21.729  11.988
71471W        W35679   3.877  36.415   1.412
71472W        W35680  17.136  24.521  14.928
71473W        W35681  40.919   9.274   3.754
71474W        W35682  22.512   3.781   2.369
71475W        W35683  23.000  17.154  14.423
71476W        W35684  19.763  32.002   2.242
71477W        W35685  12.697  30.954   1.800
71478W        W35686  42.410   6.317  14.018
71479W        W35687  18.241  43.421   4.603
71480W        W35688  16.725  24.698   3.791
71481W        W35689  18.552  30.591  11.940
71482W        W35690   3.819  32.904  13.396
71483W        W35691  17.101  30.587  11.020
71484W        W35692  22.200  40.506  14.307
71485W        W35693  24.219  17.241  12.406
71486W        W35694   5.807  39.940  10.979
71487W        W35695  37.937  24.541  11.978
71488W        W35696  27.945   1.446  12.351
71489W        W35697  23.141  21.028   0.827
71490W        W35698  12.789  43.342   4.326
71491W        W35699  33.099  17.730  14.024
71492W        W35700  32.117  37.579   0.830
71493W        W35701   9.163  39.487   3.774
71494W        W35702   1.402  19.715  14.442
71495W        W35703  17.701  27.609  13.854
71496W        W35704  40.399  35.906  11.578
71497W        W35705  34.890  19.253  10.636
71498W        W35706  24.015  17.229  14.869
71499W        W35707  41.461  33.545  14.007
71500W        W35708   5.727  18.786   0.733
71501W        W35709  38.519   7.191   0.742
71502W        W35710  12.630  16.619  14.438
71503W        W35711  32.502  29.985   0.840
71504W        W35712  43.870  41.976   2.890
71505W        W35713   6.920  29.474  14.878
71506W        W35714  42.919   2.949   1.288
71507W        W35715   1.282   2.887  14.333
71508W        W35716  26.098  14.172  14.947
71509W        W35717  34.608   2.811   4.603
71510W        W35718  41.893  11.316   2.382
71511W        W35719   9.334   7.238   2.408
71512W        W35720  11.730  19.171  12.088
71513W        W35721   6.236  18.680  11.068
71514W        W35722  26.985   3.417   4.316
71515W        W35723  11.859  27.971   4.269
71516W        W35724  33.005  25.199  14.465
71517W        W35725   5.930   3.429   4.320
71518W        W35726  41.442  43.343  11.446
71519W        W35727  23.119  34.392   1.438
71520W        W35728  42.442   4.720  12.890
71521W        W35729   0.960   6.343  10.893
71522W        W35730   7.775  35.891   5.087
71523W        W35731   7.179  31.964  12.485
71524W        W35732  44.381  20.765   3.808
71525W        W35733  20.725  38.878   0.254
71526W        W35734  32.465  33.523  10.429
71527W        W35735  13.202  25.696  13.797
71528W        W35736   1.907  23.181  10.612
71529W        W35737  33.417  36.474  14.782
71530W        W35738  32.510   8.716  12.520
71531W        W35739  23.581  40.507   2.782
71532W        W35740   9.858  29.513  11.392
71533W        W35741  27.476  10.190  11.434
71534W        W35742  36.429  14.711  11.917
71535W        W35743   5.735   4.877   2.890
71536W        W35744  10.285   5.696  13.888
71537W        W35745  22.553   5.390   2.755
71538W        W35746   1.925  31.491  14.004
71539W        W35747  28.989  32.138  13.862
71540W        W35748  28.458  30.068  12.385
71541W        W35749  32.059  27.054   4.354
71542W        W35750  18.296   1.921   1.769
71543W        W35751  21.220   2.872   0.895
71544W        W35752  12.848  23.992   3.176
71545W        W35753   2.303  11.848   0.847
71546W        W35754   4.760  44.458   3.319
71547W        W35755  24.121   2.268  10.926
71548W        W35756  39.341   2.398   2.710
71549W        W35757  18.291   2.468  11.094
71550W        W35758  24.478   0.296  14.813
71551W        W35759  17.788  11.732   4.664
71552W        W35760  34.426   1.321   1.841
71553W        W35761  20.725  12.852  14.397
71554W        W35762  20.031  22.548  11.013
71555W        W35763  10.777  10.225  13.854
71556W        W35764  13.649   9.667   0.829
71557W        W35765   9.800  18.622   4.682
71558W        W35766   4.761  43.360  13.912
71559W        W35767  26.558  19.603  12.360
71560W        W35768  44.397   8.741   3.249
71561W        W35769   1.303  17.298   0.931
71562W        W35770  27.011  23.718   0.729
71563W        W35771  31.136   4.403  13.507
71564W        W35772  25.182  21.600  12.563
71565W        W35773   7.676  13.140   2.886
71566W        W35774  30.127   0.969   2.803
71567W        W35775   6.782  43.898  11.881
71568W        W35776  22.123  39.496  13.892
71569W        W35777  27.671  19.061   4.350
71570W        W35778   4.792  39.432  13.951
71571W        W35779  37.084  40.355  14.959
71572W        W35780  39.890  43.403   1.751
71573W        W35781   2.336  37.573  13.042
71574W        W35782  44.390  37.956  10.497
71575W        W35783  44.336  37.990  13.959
71576W        W35784   2.766   8.836   0.881
71577W        W35785  40.044   1.471   2.284
71578W        W35786  16.207  36.499  11.054
71579W        W35787  40.337  33.030   2.356
71580W        W35788  31.907   2.394   0.885
71581W        W35789  32.930  36.932   3.679
71582W        W35790  12.665   0.858   3.670
71583W        W35791  26.197  12.812   2.796
71584W        W35792  33.922  43.284   2.245
71585W        W35793   8.840  30.457   3.205
71586W        W35794  30.011  15.651  14.800
71587W        W35795  35.955  38.893   4.141
71588W        W35796  35.908  35.923  12.886
71589W        W35797  31.520  10.764  10.551
71590W        W35798  34.390  41.991  12.011
71591W        W35799  31.577  12.678  12.874
71592W        W35800  40.535   1.912  14.454
71593W        W35801  35.009  20.038   0.851
71594W        W35802   6.841  10.649   1.878
71595W        W35803  12.771   7.826   4.173
71596W        W35804  29.667  25.522   1.797
71597W        W35805  35.041  19.759  14.871
71598W        W35806  22.545   7.863   5.219
71599W        W35807  19.648  16.318   0.291
71600W        W35808  43.312   7.373   3.784
71601W        W35809  42.813  11.285   2.209
71602W        W35810  18.153  32.408   0.810
71603W        W35811  41.997   7.270   0.843
71604W        W35812  13.763   9.168   2.737
71605W        W35813  18.791  39.437  14.463
71606W        W35814   9.731  25.212  14.417
71607W        W35815   8.213  43.765   3.741
71608W        W35816   0.837   3.894   2.748
71609W        W35817   9.734  15.643  12.999
71610W        W35818  40.477  23.019   4.733
71611W        W35819  18.547  12.727   1.760
71612W        W35820  14.785  17.203   0.731
71613W        W35821  16.276  15.201   0.826
71614W        W35822  21.141  14.211  10.077
71615W        W35823  40.322  29.591  14.766
71616W        W35824  38.916  30.651  12.354
71617W        W35825   1.382  35.566  10.067
71618W        W35826  24.711  35.983   1.739
71619W        W35827  11.298  21.257   3.341
71620W        W35828  33.437  13.234   4.209
71621W        W35829  41.886   3.315  12.953
71622W        W35830   2.731  17.748   4.780
71623W        W35831   2.834  20.186   0.730
71624W        W35832  41.448   9.733  11.418
71625W        W35833   9.809  25.590  10.413
71626W        W35834  24.503  35.373   1.769
71627W        W35835  38.063  21.262   4.598
71628W        W35836  11.671  16.570   3.651
71629W        W35837  44.435  39.390  11.128
71630W        W35838  21.174   8.839   4.187
71631W        W35839  19.656   7.226   3.829
71632W        W35840  19.269  44.366   3.296
71633W        W35841   0.935  43.970  13.852
71634W        W35842  26.483   4.443   0.444
71635W        W35843  40.020  29.978   0.817
71636W        W35844   3.321  37.379  12.403
71637W        W35845  19.671   5.367   2.243
71638W        W35846   7.838  15.626  12.517
71639W        W35847  17.588   8.875  13.517
71640W        W35848  29.553  40.012   1.352
71641W        W35849   5.751  20.260   4.660
71642W        W35850   9.366  41.439  14.324
71643W        W35851  27.157   1.420   4.732
71644W        W35852   1.386  42.877   2.387
71645W        W35853   0.929  19.241  12.054
71646W        W35854   3.294  17.642   3.146
71647W        W35855  35.366   1.406  11.492
71648W        W35856  12.754  24.724   3.736
71649W        W35857  17.694  44.438   0.965
71650W        W35858  38.939  33.486  12.852
71651W        W35859  19.154   5.348  13.817
71652W        W35860  36.009  38.057  13.540
71653W        W35861  30.052  14.755   3.232
71654W        W35862  12.319  24.097   0.926
71655W        W35863  16.124  25.163   4.703
71656W        W35864   5.412  19.582  11.490
71657W        W35865  17.241   8.164   1.786
71658W        W35866  30.114  25.507  10.617
71659W        W35867  42.895   6.786  12.932
71660W        W35868   2.845  25.194  13.891
71661W        W35869  20.692  42.288   3.225
71662W        W35870  21.037  15.610  14.344
71663W        W35871  43.452  32.955   4.284
71664W        W35872  21.615  27.112  14.770
71665W        W35873  19.685  17.691   3.822
71666W        W35874  39.525  17.662  14.821
71667W        W35875  31.017  40.306  13.884
71668W        W35876   3.458  30.551   0.290
71669W        W35877  44.345  25.603   4.799
71670W        W35878  32.514   1.737   0.476
71671W        W35879  10.205   7.356   1.253
71672W        W35880  34.476  11.721  12.939
71673W        W35881   1.860  33.571  14.450
71674W        W35882  13.346   6.779   3.778
71675W        W35883  30.993  29.593  13.963
71676W        W35884  14.706  36.591  13.832
71677W        W35885   0.329  25.701  14.476
71678W        W35886  21.685   2.780   0.855
71679W        W35887  39.426  40.010  12.399
71680W        W35888  35.408  28.184   4.334
71681W        W35889  39.034  42.429  14.988
71682W        W35890  44.352   2.322  12.343
71683W        W35891  10.246  38.339  14.334
71684W        W35892   9.822  30.463  10.932
71685W        W35893   9.677  22.228  12.473
71686W        W35894  18.677  37.351   2.219
71687W        W35895  31.996  18.257  12.018
71688W        W35896  35.402  15.222  13.915
71689W        W35897  13.619  17.199  14.868
71690W        W35898  18.186  40.890   3.780
71691W        W35899  36.956   7.357  14.429
71692W        W35900  35.944  14.223  11.401
71693W        W35901   2.740   3.893  12.520
71694W        W35902  25.068  39.556  11.513
71695W        W35903   6.691  38.518   4.627
71696W        W35904   6.326  20.118  12.892
71697W        W35905  16.662  12.770   3.835
71698W        W35906   0.950  31.152   3.200
71699W        W35907  25.183  11.677  14.443
71700W        W35908  20.031  30.095   4.308
71701W        W35909  25.551  24.488  13.010
71702W        W35910  34.966  14.687   0.318
71703W        W35911   8.230  30.498  12.073
71704W        W35912  21.217  14.691   0.740
71705W        W35913   3.331  10.639   2.887
71706W        W35914  36.383   9.389  12.047
71707W        W35915  33.461  36.957   0.921
71708W        W35916  21.051  21.022  11.520
71709W        W35917   5.864  34.866   4.341
71710W        W35918  17.625  27.149   2.249
71711W        W35919  42.307  28.015  11.028
71712W        W35920  31.935  11.163   0.399
71713W        W35921  21.727  26.560  10.476
71714W        W35922  10.687   6.721   0.370
71715W        W35923  19.586   9.743   0.302
71716W        W35924  28.075  22.514   1.782
71717W        W35925  43.461   9.170  11.988
71718W        W35926  38.957  29.503   3.208
71719W        W35927  35.522  20.170  13.944
71720W        W35928   1.776  16.714   3.770
71721W        W35929  42.324  16.798   0.920
71722W        W35930   4.869  44.903   3.229
71723W        W35931  41.848  39.430   3.841
71724W        W35932  23.531  43.346   4.140
71725W        W35933  23.570   0.364  10.592
71726W        W35934  40.911   4.939  11.901
71727W        W35935  29.427   7.198  14.395
71728W        W35936  43.820  18.216  13.449
71729W        W35937   4.738   2.741   1.723
71730W        W35938   5.731  28.061   4.719
71731W        W35939  34.930  37.997   3.198
71732W        W35940  12.612   8.179  13.422
71733W        W35941  22.628  28.627   0.918
71734W        W35942  41.530  12.299   4.156
71735W        W35943   0.321   0.489  11.501
71736W        W35944  30.162  36.068  14.502
71737W        W35945  31.105  38.456   2.308
71738W        W35946  34.438  15.579   4.245
71739W        W35947   5.279   7.821   1.806
71740W        W35948   4.910  12.349  11.968
71741W        W35949  32.093  19.160   0.476
71742W        W35950  11.178  30.427  14.476
71743W        W35951  27.487   9.763   3.181
71744W        W35952  10.272  30.635   4.297
71745W        W35953  32.598  13.838  12.505
71746W        W35954  36.871  23.073  11.458
71747W        W35955  30.584  34.554   3.192
71748W        W35956  43.333   7.774   3.714
71749W        W35957   8.657  19.593  10.541
71750W        W35958  15.233  16.200   4.223
71751W        W35959  36.489  16.657  12.526
71752W        W35960   8.732   6.330   1.248
71753W        W35961  34.107  18.675  14.935
71754W        W35962  26.051  26.108   2.709
71755W        W35963  39.467  13.606  10.484
71756W        W35964  29.469  30.492  14.993
71757W        W35965  33.904  19.581   0.895
71758W        W35966   6.704  14.785  11.592
71759W        W35967  30.968  14.695  12.843
71760W        W35968  14.656   4.387  10.405
71761W        W35969   6.827  24.226   3.708
71762W        W35970  16.715  24.553  11.006
71763W        W35971  24.982  28.114   3.282
71764W        W35972  29.432  22.044   1.696
71765W        W35973   2.420  18.226  14.784
71766W        W35974  14.811   2.746  10.620
71767W        W35975  29.976  26.481  14.025
71768W        W35976  13.228  15.641   3.784
71769W        W35977  23.523  34.379   3.284
71770W        W35978  28.088  31.602  12.030
71771W        W35979  19.689  36.399   4.609
71772W        W35980  19.690   7.241   0.925
71773W        W35981   7.327   4.804  10.055
71774W        W35982  26.463   0.918   5.322
71775W        W35983   6.888  21.141   3.385
71776W        W35984  34.876  24.557  11.387
71777W        W35985  43.983  19.162   2.877
71778W        W35986   4.936  39.529   4.302
71779W        W35987   5.747  25.201   1.213
71780W        W35988  21.159   2.942   4.603
71781W        W35989  33.475  20.045  12.975
71782W        W35990  20.693  39.532   2.662
71783W        W35991   5.760  36.847  12.941
71784W        W35992  25.140  15.593   1.226
71785W        W35993   7.746  14.129   4.835
71786W        W35994  35.402   5.361   3.656
71787W        W35995  37.054  35.010  13.486
71788W        W35996  25.585  38.052   4.278
71789W        W35997  34.480   2.777   2.888
71790W        W35998   6.906  34.400  13.519
71791W        W35999  44.871  29.477  14.446
71792W        W36000   3.321  19.137  12.093
71793W        W36001   3.455  14.110  12.964
71794W        W36002  16.302  32.025  10.130
71795W        W36003  40.321  37.070  12.044
71796W        W36004   8.276   9.882  11.029
71797W        W36005  14.710  16.682  13.440
71798W        W36006  25.677  19.128   4.622
71799W        W36007  19.656  18.282  12.884
71800W        W36008   5.212   4.755   1.934
71801W        W36009  40.434  41.486  12.576
71802W        W36010  38.917  34.053  13.948
71803W        W36011  42.444  22.044  14.023
71804W        W36012  28.510  10.308  14.481
71805W        W36013   4.303  12.748   1.816
71806W        W36014   4.367   7.259  12.085
71807W        W36015  31.045  41.364   4.792
71808W        W36016  16.225  40.425  10.973
71809W        W36017  30.414  37.864  13.498
71810W        W36018  10.771  41.797  11.900
71811W        W36019  25.193  33.034  13.044
71812W        W36020  33.505  34.525  14.975
71813W        W36021  25.503  38.391  13.006
71814W        W36022   4.817  36.008   4.334
71815W        W36023  36.460  30.937  10.621
71816W        W36024   7.368  17.091  10.540
71817W        W36025  20.757  22.640  12.923
71818W        W36026  15.660  20.268   1.807
71819W        W36027  31.987  29.469  12.021
71820W        W36028   0.272   3.858   5.199
71821W        W36029   1.352  22.676  11.402
71822W        W36030  42.440   9.763   1.319
71823W        W36031   9.669  11.299   9.941
71824W        W36032   0.410  43.337  12.838
71825W        W36033  29.530  38.386   4.835
71826W        W36034  17.184   9.255  14.337
71827W        W36035  15.671  43.873   0.328
71828W        W36036  15.125  39.038   1.396
71829W        W36037  18.244  34.432  14.769
71830W        W36038  30.615  40.496   2.892
71831W        W36039  38.333  44.340   1.782
71832W        W36040  23.554  24.995   1.386
71833W        W36041  25.119  33.565  11.562
71834W        W36042  11.694  15.318  12.563
71835W        W36043  35.095  20.098  10.543
71836W        W36044  33.426  22.229   1.819
71837W        W36045  14.704  13.220   2.717
71838W        W36046  11.839  11.239   0.246
71839W        W36047   4.277  38.480   2.243
71840W        W36048  14.158  13.343  13.345
71841W        W36049  43.862  16.652  14.779
71842W        W36050  37.985  28.525  14.809
71843W        W36051  17.632  20.747  12.963
71844W        W36052  15.326  29.494   0.251
71845W        W36053   9.374  30.510  14.882
71846W        W36054  34.972  42.389  13.509
71847W        W36055  40.450   9.341   0.359
71848W        W36056  36.924  26.641   2.728
71849W        W36057  28.543  14.303   0.479
71850W        W36058  13.689  29.934  10.967
71851W        W36059  41.947   8.179   3.374
71852W        W36060  27.102  44.412   0.933
71853W        W36061  38.341   5.316   9.472
71854W        W36062  40.830  23.622   3.227
71855W        W36063   5.356   4.852   4.230
71856W        W36064  43.954  16.122  12.355
71857W        W36065  11.149  16.090  10.429
71858W        W36066  39.033  39.831  13.526
71859W        W36067  41.965  26.008  11.048
71860W        W36068  19.562  10.681  14.349
71861W        W36069  40.959  36.047   1.279
71862W        W36070   8.286   9.157  10.928
71863W        W36071  41.926  10.159   2.213
71864W        W36072  12.716   0.362   4.791
71865W        W36073  38.355  36.965   1.783
71866W        W36074  40.917  10.760  10.572
71867W        W36075  22.122   5.868  10.609
71868W        W36076  29.466  14.807   1.702
71869W        W36077  26.164  39.041  14.306
71870W        W36078  37.974  28.022  11.114
71871W        W36079  26.503  43.884  11.516
71872W        W36080  35.398  23.613  13.991
71873W        W36081  15.803  42.803  10.938
71874W        W36082  20.610   3.305   2.220
71875W        W36083  38.907  14.655  11.100
71876W        W36084  15.640  37.461  13.942
71877W        W36085   1.445  44.918  11.430
71878W        W36086   7.324  29.501   0.929
71879W        W36087  25.071  11.186   1.420
71880W        W36088  38.455  16.721   3.355
71881W        W36089  41.929   4.777   1.284
71882W        W36090   8.386  39.828  10.415
71883W        W36091  15.269  34.581  10.975
71884W        W36092  15.237   9.278   3.195
71885W        W36093   9.313  33.425   1.284
71886W        W36094   4.711  20.101  14.412
71887W        W36095  18.755  37.419  11.910
71888W        W36096  34.962  36.485   1.746
71889W        W36097  42.344   6.215  10.502
71890W        W36098  31.129  35.079   2.347
71891W        W36099  44.303  17.686  12.557
71892W        W36100  16.710  10.649   1.866
71893W        W36101   3.890  37.464   0.272
71894W        W36102  19.730   8.377  11.888
71895W        W36103  33.484  36.094  13.370
71896W        W36104  42.302  39.986  14.978
71897W        W36105  35.408  38.326   2.349
71898W        W36106  11.680  33.947   3.676
71899W        W36107  11.731  23.505   1.334
71900W        W36108  13.153  30.157  11.493
71901W        W36109  31.452   6.320  13.360
71902W        W36110  39.413   9.181  13.451
71903W        W36111  43.444  31.420   1.885
71904W        W36112  16.109  21.630  13.446
71905W        W36113  15.320  23.602   0.786
71906W        W36114  37.429  14.202  14.027
71907W        W36115  33.969  32.970  12.938
71908W        W36116  41.330  34.615   1.259
71909W        W36117  30.115  10.638   0.948
71910W        W36118  43.358  32.418   1.848
71911W        W36119   6.747   0.974  13.923
71912W        W36120  34.102   9.240   1.840
71913W        W36121  42.314  24.605  10.598
71914W        W36122   4.306   9.697   1.295
71915W        W36123  12.636   5.240   3.253
71916W        W36124  40.845  31.939  12.041
71917W        W36125   4.925  28.045   2.276
71918W        W36126  17.751  13.624   3.303
71919W        W36127  44.970  13.842   3.669
71920W        W36128  27.159   7.249   3.869
71921W        W36129  24.563  39.011  11.610
71922W        W36130  13.658  40.910   2.740
71923W        W36131   2.772  36.533   1.811
71924W        W36132  28.935  32.448   3.689
71925W        W36133  19.643  20.695   1.227
71926W        W36134   7.171  16.149   1.287
71927W        W36135  40.477   4.212   2.761
71928W        W36136  27.541  34.565  12.577
71929W        W36137  22.574  26.203  14.321
71930W        W36138   4.732  20.215  11.861
71931W        W36139  43.968  27.078  12.928
71932W        W36140  16.251  34.086  12.453
71933W        W36141  23.504   6.193  13.444
71934W        W36142  34.028  44.881   0.829
71935W        W36143   5.395  40.432  12.066
71936W        W36144  25.963   6.851   4.191
71937W        W36145  22.646  25.076  12.072
71938W        W36146  12.355   2.849   1.847
71939W        W36147  27.491  32.497   3.268
71940W        W36148  39.986  32.946  14.901
71941W        W36149  12.199  41.873   1.720
71942W        W36150   3.214  32.003  10.959
71943W        W36151  25.085  28.077  12.955
71944W        W36152   6.399  28.668  11.053
71945W        W36153  24.047  34.371  13.794
71946W        W36154  16.237  29.981  11.062
71947W        W36155   1.463  29.135   4.248
71948W        W36156  11.767  29.623   4.204
71949W        W36157   5.322   8.340   2.201
71950W        W36158  41.010  43.341  13.887
71951W        W36159  27.526  37.932   4.213
71952W        W36160  19.571  14.670  11.572
71953W        W36161  25.689   4.769  10.916
71954W        W36162  30.446  24.481   2.222
71955W        W36163  20.253  26.984  14.497
71956W        W36164   4.870   0.283   4.179
71957W        W36165  27.675   2.736  14.427
71958W        W36166  40.034  28.586   2.400
71959W        W36167  36.400  14.716   2.687
71960W        W36168   2.848  19.623  12.358
71961W        W36169  17.558  19.774  13.495
71962W        W36170  26.957  42.355   3.686
71963W        W36171  25.657  35.892  10.520
71964W        W36172  43.398   7.186  13.369
71965W        W36173  24.076  31.573   0.383
71966W        W36174  21.578  18.724  13.020
71967W        W36175  29.938  28.561   4.689
71968W        W36176  26.648   9.229   0.798
71969W        W36177   7.770  19.258  13.308
71970W        W36178  34.952  28.548  10.635
71971W        W36179  28.547  36.864  14.460
71972W        W36180   6.414  16.724   1.729
71973W        W36181  14.758   8.882   2.373
71974W        W36182  27.155  43.507   1.791
71975W        W36183  39.003  14.157  11.407
71976W        W36184  39.897  39.844  14.789
71977W        W36185  37.380  10.852   2.240
71978W        W36186  19.642   5.732  13.055
71979W        W36187   8.337  16.135   3.781
71980W        W36188   7.885   2.892  11.382
71981W        W36189   8.302   5.253   3.656
71982W        W36190  35.085  10.654   3.641
71983W        W36191  21.614   0.849  13.798
71984W        W36192  44.848   6.902  11.880
71985W        W36193  35.442  41.441  14.441
71986W        W36194  41.447  13.228  13.991
71987W        W36195  30.940  31.618  10.935
71988W        W36196   2.407  32.630   1.425
71989W        W36197  30.602  44.449  13.915
71990W        W36198  33.997  28.016  10.549
71991W        W36199   0.399  33.988   3.206
71992W        W36200   9.301  26.162   4.143
71993W        W36201  11.811  39.479   0.835
71994W        W36202  32.125   0.912  11.571
71995W        W36203  18.579  18.094  13.921
71996W        W36204   6.223   1.374   2.719
71997W        W36205  21.654  21.131   1.316
71998W        W36206  26.139  20.739  12.525
71999W        W36207   5.914  26.980   1.271
72000W        W36208  25.637  30.978  14.997
72001W        W36209  21.732  22.744  13.902
72002W        W36210  33.513  21.665  12.911
72003W        W36211  27.673   2.886  11.916
72004W        W36212  43.286  39.465  13.876
72005W        W36213   3.947  21.511  10.440
72006W        W36214  18.684  34.494  10.987
72007W        W36215  12.344  35.866  11.992
72008W        W36216  18.692   0.282   1.423
72009W        W36217  28.572  36.585   3.317
72010W        W36218  27.094  34.601   2.895
72011W        W36219  27.649  15.734   0.243
72012W        W36220  10.354  32.604   1.852
72013W        W36221  24.100  39.020  13.998
72014W        W36222  42.883  37.863  12.359
72015W        W36223  30.018  19.226  12.883
72016W        W36224   8.845  27.465   0.913
72017W        W36225  28.061  25.502  12.448
72018W        W36226   3.280   3.439  13.467
72019W        W36227   2.889  30.100  14.504
72020W        W36228  33.907   5.719   0.403
72021W        W36229  34.405  15.113  12.484
72022W        W36230  39.808  17.064   0.816
72023W        W36231  10.865   1.264  13.794
72024W        W36232  27.197   5.906   3.658
72025W        W36233  33.884  37.835   3.666
72026W        W36234  19.128  27.170  12.081
72027W        W36235  20.181  22.143   2.872
72028W        W36236  26.576  20.175   2.708
72029W        W36237  33.513  41.471   3.864
72030W        W36238  43.333  28.106  12.988
72031W        W36239  43.940  26.110   1.847
72032W        W36240   2.417  13.279   1.770
72033W        W36241   3.346   7.716   4.625
72034W        W36242  14.657  44.408  12.066
72035W        W36243  21.228  11.182   4.323
72036W        W36244   8.700   2.736   1.268
72037W        W36245  43.329   7.339   2.761
72038W        W36246  43.373  27.146   2.849
72039W        W36247  43.495  16.614   2.249
72040W        W36248   3.730  10.354  11.380
72041W        W36249  31.907   1.765   0.902
72042W        W36250  14.605  17.268  12.881
72043W        W36251  44.864  18.263   5.298
72044W        W36252  12.348  26.642   2.258
72045W        W36253  12.308  14.134   2.865
72046W        W36254  17.707   1.317   4.182
72047W        W36255  18.290  32.586  11.980
72048W        W36256  25.493  21.245   1.727
72049W        W36257  14.106  26.073   1.409
72050W        W36258  31.135  16.733   1.921
72051W        W36259  42.964  40.037  13.975
72052W        W36260  21.074  44.951   1.842
72053W        W36261  16.087  35.433   3.248
72054W        W36262  37.478  14.104  11.124
72055W        W36263  28.179  10.344   2.782
72056W        W36264  11.735  38.060   2.182
72057W        W36265  14.142  43.824  10.612
72058W        W36266  23.726  37.905  12.854
72059W        W36267   5.874  23.534   0.815
72060W        W36268  31.604  10.374   3.688
72061W        W36269  22.096  31.111   2.346
72062W        W36270  28.069   1.265  14.912
72063W        W36271  30.570  17.104  11.446
72064W        W36272   6.735  10.712  12.988
72065W        W36273  38.877  16.673  12.434
72066W        W36274   8.192   0.878  14.391
72067W        W36275  36.865   5.822  14.019
72068W        W36276  39.028  44.382   2.215
72069W        W36277  15.763  22.687   3.806
72070W        W36278  18.056  43.969   2.882
72071W        W36279  23.212  37.892  11.086
72072W        W36280  20.721  20.617   2.811
72073W        W36281  16.220   2.761  10.425
72074W        W36282  13.663  21.515  13.327
72075W        W36283   3.718  15.783  12.870
72076W        W36284  28.580  13.801  14.302
72077W        W36285  24.630  21.125  12.350
72078W        W36286  42.321   2.254  11.929
72079W        W36287  23.108   6.216  13.802
72080W        W36288  23.001  11.694   3.836
72081W        W36289   2.963  17.099  11.462
72082W        W36290  11.770  19.140   2.814
72083W        W36291   0.884  44.804   4.169
72084W        W36292  29.457  34.010  12.541
72085W        W36293  18.243  30.004   2.237
72086W        W36294  29.586  37.054   4.331
72087W        W36295   8.275  14.260   4.696
72088W        W36296  40.440  39.470   4.811
72089W        W36297  36.066  29.649   3.178
72090W        W36298  33.514  13.601  13.508
72091W        W36299   4.305  23.158   1.775
72092W        W36300  14.666  39.992   2.737
72093W        W36301  32.582  16.223  13.492
72094W        W36302  22.545  22.595   0.438
72095W        W36303   9.836  22.509  10.892
72096W        W36304  37.015  26.184   1.383
72097W        W36305  14.760  26.183   2.890
72098W        W36306  41.924  44.331   0.751
72099W        W36307   9.349  24.706   0.277
72100W        W36308  20.129  26.534  12.494
72101W        W36309  33.503   9.874  12.506
72102W        W36310  25.507  12.267  10.526
72103W        W36311  41.309  44.460  11.486
72104W        W36312   3.447  26.116   4.166
72105W        W36313   5.302  11.266  12.976
72106W        W36314  31.627  15.303  14.384
72107W        W36315   1.841  41.486   4.833
72108W        W36316  26.983  28.471   4.123
72109W        W36317  16.268  24.579  13.800
72110W        W36318  42.477  20.526   1.825
72111W        W36319  19.715   0.878   4.803
72112W        W36320  29.553  38.452   2.844
72113W        W36321  36.371  20.050  13.858
72114W        W36322  17.797   0.348  13.037
72115W        W36323  36.437  40.928  13.877
72116W        W36324  32.940  39.362  11.077
72117W        W36325  10.318  14.703  10.408
72118W        W36326  40.930  22.074  11.015
72119W        W36327  21.155  41.939   0.961
72120W        W36328  28.437  19.720  12.965
72121W        W36329  37.036   9.155   2.231
72122W        W36330  12.159   7.352  13.892
72123W        W36331  11.211  36.863  12.083
72124W        W36332  10.279  38.920   4.320
72125W        W36333  40.897  32.035   4.815
72126W        W36334  26.466  40.874  12.976
72127W        W36335  31.969  40.483   1.324
72128W        W36336  30.054  21.165   3.161
72129W        W36337   7.205  18.242   1.434
72130W        W36338  36.977  33.047  12.398
72131W        W36339  19.697   0.803   0.820
72132W        W36340  22.531   6.289  11.924
72133W        W36341   6.297   7.800   3.786
72134W        W36342  24.613   2.959   3.708
72135W        W36343  21.541  33.399   0.382
72136W        W36344  43.925  12.325  13.818
72137W        W36345   8.249  13.223  11.583
72138W        W36346  21.203  13.156   1.861
72139W        W36347  22.529  37.842  10.456
72140W        W36348  31.637  18.571   5.094
72141W        W36349   6.890  18.746   2.232
72142W        W36350  25.165  42.380   2.188
72143W        W36351  35.960  31.926  13.053
72144W        W36352  16.236  26.207   2.782
72145W        W36353  37.943  11.628   2.820
72146W        W36354  30.103  34.078  14.427
72147W        W36355  41.409  39.890  11.948
72148W        W36356  25.714  34.031   1.900
72149W        W36357  27.626  41.886   2.888
72150W        W36358  39.507  30.487  11.537
72151W        W36359  35.546  44.817   3.772
72152W        W36360   2.239   1.972  10.961
72153W        W36361  17.128  29.537  12.516
72154W        W36362  29.627  38.359  12.870
72155W        W36363   3.435  31.962  14.970
72156W        W36364   1.277   4.821  13.901
72157W        W36365  43.011   3.928   4.115
72158W        W36366  22.183  21.138   3.682
72159W        W36367  10.268  36.886  10.970
72160W        W36368  22.010  22.723  10.518
72161W        W36369  43.967  28.680   4.155
72162W        W36370  39.064  21.130  13.403
72163W        W36371  17.230  13.808  12.562
72164W        W36372  22.655  20.151  11.545
72165W        W36373   3.777   1.471  13.340
72166W        W36374  27.025  34.942   0.874
72167W        W36375  13.807  28.488   2.788
72168W        W36376  31.504  38.824  14.276
72169W        W36377  10.243  32.114   1.887
72170W        W36378  43.290  24.714   2.735
72171W        W36379  44.485   7.853  11.601
72172W        W36380  42.775  22.534  11.567
72173W        W36381  36.347  32.455  12.560
72174W        W36382  39.903  24.215  13.345
72175W        W36383   7.317  22.634  12.352
72176W        W36384   5.788  16.256   4.217
72177W        W36385  20.591  18.172   4.604
72178W        W36386   8.827   4.345  11.893
72179W        W36387  30.557  38.557   2.222
72180W        W36388   3.286  41.812  13.428
72181W        W36389  26.483  30.541  13.470
72182W        W36390  21.165  19.233   1.922
72183W        W36391   9.651  18.727  11.900
72184W        W36392  39.542  11.206  12.941
72185W        W36393  15.301  22.058  12.432
72186W        W36394  20.560   2.797   2.224
72187W        W36395  19.601  36.993   3.381
72188W        W36396  25.963  10.349  10.902
72189W        W36397  12.275  12.141  11.865
72190W        W36398  30.962  33.055   3.816
72191W        W36399  13.844  10.728  12.082
72192W        W36400  17.196  10.725  14.012
72193W        W36401  29.026  12.228   3.345
72194W        W36402  17.266   2.940   1.346
72195W        W36403  28.569  34.390  12.539
72196W        W36404  10.750  29.636  13.310
72197W        W36405  17.240  32.019   3.173
72198W        W36406  42.485  37.024   3.196
72199W        W36407  12.847  37.399   1.701
72200W        W36408  20.175   3.761  13.545
72201W        W36409  41.891   9.371  13.834
72202W        W36410   2.417  15.145   3.843
72203W        W36411  16.626   6.774   0.768
72204W        W36412  15.205  37.548   3.343
72205W        W36413   3.895  40.811   1.803
72206W        W36414   8.176  37.582  10.505
72207W        W36415  24.531  28.484   3.351
72208W        W36416   2.293  26.012   1.749
72209W        W36417  41.944  36.549   1.402
72210W        W36418   2.944  28.490   4.158
72211W        W36419  16.647  26.657  14.423
72212W        W36420   9.334  20.121  12.569
72213W        W36421   6.807  38.061   4.253
72214W        W36422  25.199  30.550  14.891
72215W        W36423  20.729  44.866  14.477
72216W        W36424   4.318  39.846  14.427
72217W        W36425  20.591   5.857  12.012
72218W        W36426  22.250  25.213  12.440
72219W        W36427  40.806  35.873   1.787
72220W        W36428  13.320  16.193  10.422
72221W        W36429  39.015  39.531  11.944
72222W        W36430  17.268   5.860  11.532
72223W        W36431  10.285  25.103   3.772
72224W        W36432   5.294  13.666  10.990
72225W        W36433  44.476  30.540  13.986
72226W        W36434  43.394  38.896   4.639
72227W        W36435  39.960  40.969   1.870
72228W        W36436  32.133   0.364  14.804
72229W        W36437   7.712  44.835  10.962
72230W        W36438  21.594  22.113   1.923
72231W        W36439  31.058   9.853   2.898
72232W        W36440  41.390  12.735   4.135
72233W        W36441  39.846   7.861   2.242
72234W        W36442  18.611  41.875   1.709
72235W        W36443  12.333  11.850  14.427
72236W        W36444  26.538   1.435   4.319
72237W        W36445  38.503  30.060   0.949
72238W        W36446  15.217   0.761   2.685
72239W        W36447  29.474   1.882   2.893
72240W        W36448   1.242  12.261   3.251
72241W        W36449  22.665  44.484  13.422
72242W        W36450  20.120   4.776   0.938
72243W        W36451  39.810  16.229   9.518
72244W        W36452  33.089   9.277  11.948
72245W        W36453  13.166  33.966  11.567
72246W        W36454  38.455  28.974  12.088
72247W        W36455  43.451  42.792  11.907
72248W        W36456   6.307  12.121  13.896
72249W        W36457   4.354  33.084   3.197
72250W        W36458   5.791  17.632   0.337
72251W        W36459  41.525  39.929   0.319
72252W        W36460  32.514  23.501   2.350
72253W        W36461  16.638  44.397  12.361
72254W        W36462  11.720  24.530   2.376
72255W        W36463   2.953  18.615   1.705
72256W        W36464   9.383  22.684  12.462
72257W        W36465  14.812  44.755   2.365
72258W        W36466   2.236  31.990  13.891
72259W        W36467  16.677  36.571  12.395
72260W        W36468  26.114  12.771  12.955
72261W        W36469  14.274  22.526   1.399
72262W        W36470  33.507   8.662   4.818
72263W        W36471  16.582  11.201  12.986
72264W        W36472   9.660  38.529   3.670
72265W        W36473  20.601  24.132   2.264
72266W        W36474  27.520  15.312   3.203
72267W        W36475  44.425  28.578   4.272
72268W        W36476  13.750  17.262   0.371
72269W        W36477  38.433  25.585   4.704
72270W        W36478  29.657   4.254  14.407
72271W        W36479  28.574  24.679  12.473
72272W        W36480  26.608  44.463  13.450
72273W        W36481   0.477   0.791  14.022
72274W        W36482  30.093   1.367  13.005
72275W        W36483   8.713  43.343   0.374
72276W        W36484   4.935  26.666  10.433
72277W        W36485  20.271  14.820   9.440
72278W        W36486   1.958  22.047  14.330
72279W        W36487  18.756  40.316   2.310
72280W        W36488  35.092  10.836   2.184
72281W        W36489  44.347  26.163   2.777
72282W        W36490   9.712  26.524  11.422
72283W        W36491   0.269  27.608  14.336
72284W        W36492  14.123   4.217  12.080
72285W        W36493  11.633  38.961   4.636
72286W        W36494   1.391  33.888  14.021
72287W        W36495  36.426  32.005   0.424
72288W        W36496  17.155  16.312   0.798
72289W        W36497   1.808  28.024  14.916
72290W        W36498  20.231   4.206  13.330
72291W        W36499   3.839  40.540  13.962
72292W        W36500  19.692   1.405   0.455
72293W        W36501  26.073  37.992  11.430
72294W        W36502   4.415  11.757   0.789
72295W        W36503  31.596   4.392   4.702
72296W        W36504  27.563  11.645   2.679
72297W        W36505  17.107  19.229  13.870
72298W        W36506  26.086   5.914  14.792
72299W        W36507  37.435   7.689  12.035
72300W        W36508   2.359   9.819  12.507
72301W        W36509  11.250  17.271   1.304
72302W        W36510  32.602  17.254   1.698
72303W        W36511  38.870  22.203   1.286
72304W        W36512  39.923  20.052  10.515
72305W        W36513   5.722   1.322  12.445
72306W        W36514   1.790  27.090   3.195
72307W        W36515  35.414  23.553   1.915
72308W        W36516  34.030  21.085  14.916
72309W        W36517   2.939  27.601  10.945
72310W        W36518  20.227  30.079  14.477
72311W        W36519  19.727  30.007   3.189
72312W        W36520   7.870  40.834   4.713
72313W        W36521  27.576  41.474   2.824
72314W        W36522  17.275  26.680   1.354
72315W        W36523  40.354  30.443  14.384
72316W        W36524  18.556  19.227  12.354
72317W        W36525  24.664  37.356  10.012
72318W        W36526  10.138   1.350   2.410
72319W        W36527  10.695  19.257   1.851
72320W        W36528  32.142  18.613   3.631
72321W        W36529   8.830   8.387   0.354
72322W        W36530   9.649  34.470  13.440
72323W        W36531  41.956  38.570   4.634
72324W        W36532  15.709  38.412  12.351
72325W        W36533  22.684   2.869  12.478
72326W        W36534  32.533  16.642  10.000
72327W        W36535  41.457  33.568   0.403
72328W        W36536   1.380  41.926   0.760
72329W        W36537  25.673  29.112  14.001
72330W        W36538  31.442   2.790  11.876
72331W        W36539  15.580   2.321   1.344
72332W        W36540   5.254  40.418   0.286
72333W        W36541   4.226  24.203   3.333
72334W        W36542  38.327  17.293  10.951
72335W        W36543  29.472  26.553  10.529
72336W        W36544  25.638  18.563   4.706
72337W        W36545  41.418  12.799  14.879
72338W        W36546  33.594   9.292   4.796
72339W        W36547  39.343  24.626   0.243
72340W        W36548  14.318  15.728  13.890
72341W        W36549  18.620  29.155  11.038
72342W        W36550  16.724  11.369   1.235
72343W        W36551  12.658  16.117   2.750
72344W        W36552  32.412  38.520  14.818
72345W        W36553  41.800  38.895   4.204
72346W        W36554  24.628  24.018   0.855
72347W        W36555  14.307  27.976  10.468
72348W        W36556   5.330  32.502  13.353
72349W        W36557  38.903  27.644   0.366
72350W        W36558   4.377  16.632   0.358
72351W        W36559  15.121  31.526  13.859
72352W        W36560  39.932  27.127   4.760
72353W        W36561  38.917  32.488   3.346
72354W        W36562   3.954   5.699   2.301
72355W        W36563  29.920  38.363   4.695
72356W        W36564  20.742  22.601  13.425
72357W        W36565  14.231  30.645  13.818
72358W        W36566  44.351  15.767   2.844
72359W        W36567   7.847  26.984   1.704
72360W        W36568  11.365  10.682   2.727
72361W        W36569  25.155  20.143   2.306
72362W        W36570   8.886  44.851  10.600
72363W        W36571  12.148  41.315  14.893
72364W        W36572   1.924  42.324  14.940
72365W        W36573  26.127   8.815  11.006
72366W        W36574   8.881  35.074   3.678
72367W        W36575  33.467  11.817  14.891
72368W        W36576   5.349  16.761   3.291
72369W        W36577  25.159  28.129  11.503
72370W        W36578  34.611  30.634  12.031
72371W        W36579  14.268  20.175   3.290
72372W        W36580  32.073  21.695  11.104
72373W        W36581   7.339   6.330   1.394
72374W        W36582  18.293  21.579   2.238
72375W        W36583  14.229  31.495  12.477
72376W        W36584  30.564  37.995   4.832
72377W        W36585  16.093  40.483   0.285
72378W        W36586  20.524  37.015   4.655
72379W        W36587  44.860  26.153  10.554
72380W        W36588  23.215  19.250  12.368
72381W        W36589  27.465   2.451   1.750
72382W        W36590  41.478  19.274   0.447
72383W        W36591  20.050  37.488   9.543
72384W        W36592  37.399  41.475  14.030
72385W        W36593   3.236  43.807  13.426
72386W        W36594  26.093  36.452  13.360
72387W        W36595  10.798  38.526   4.212
72388W        W36596  27.174  39.814  10.900
72389W        W36597  29.136   0.261   4.226
72390W        W36598  17.193  26.053  11.910
72391W        W36599  28.643   3.221  12.504
72392W        W36600   6.410  28.563  13.515
72393W        W36601  44.859  37.981  11.876
72394W        W36602  37.364  11.778  14.881
72395W        W36603   9.289  44.815  14.940
72396W        W36604  31.527   1.268  10.999
72397W        W36605  13.198  25.490   4.790
72398W        W36606   3.237  42.914   0.784
72399W        W36607   5.779  23.734   1.398
72400W        W36608  12.243  35.958  13.990
72401W        W36609  42.992  42.787  12.852
72402W        W36610  41.524  10.771   1.391
72403W        W36611  37.338   5.392   3.708
72404W        W36612  39.063  24.673  13.405
72405W        W36613  15.313  36.090   4.667
72406W        W36614  15.645  28.592   0.897
72407W        W36615  38.026   6.409   4.698
72408W        W36616  33.625   8.689  14.436
72409W        W36617  26.606  22.620  14.349
72410W        W36618  44.463   7.768  14.786
72411W        W36619   2.251  38.952   4.833
72412W        W36620  19.754   3.950  11.890
72413W        W36621   9.214   4.271   2.408
72414W        W36622  14.806  19.128   0.265
72415W        W36623   1.753  21.160   4.287
72416W        W36624   5.702  10.695  11.401
72417W        W36625  22.688   3.443   2.783
72418W        W36626  29.105  28.988   2.305
72419W        W36627  40.365  17.606  12.926
72420W        W36628  36.355  25.104   4.161
72421W        W36629   2.949  28.045  14.394
72422W        W36630  34.961  23.091   1.241
72423W        W36631  43.875   4.308  11.067
72424W        W36632  44.271  44.341   3.289
72425W        W36633   9.277  28.944  13.930
72426W        W36634  20.608   6.699   3.202
72427W        W36635  16.597   3.455   4.160
72428W        W36636  36.451  15.090   2.866
72429W        W36637  31.102   5.709   2.329
72430W        W36638  38.401  41.299  12.878
72431W        W36639  43.771  32.064  11.399
72432W        W36640  14.159   4.278   0.761
72433W        W36641   9.194   3.327  11.422
72434W        W36642  17.715  19.128  11.080
72435W        W36643  10.205   9.885  12.973
72436W        W36644  39.833  34.546  11.079
72437W        W36645   9.216  38.001  12.524
72438W        W36646  30.468   0.798   5.090
72439W        W36647   5.848  14.631  14.356
72440W        W36648  11.164  12.614  12.860
72441W        W36649  37.907  29.977   1.444
72442W        W36650  30.581  11.836  11.544
72443W        W36651  35.081  19.100  12.062
72444W        W36652  14.107  19.569  12.030
72445W        W36653  43.996  26.997   4.152
72446W        W36654  21.141  35.441  10.899
72447W        W36655  35.579  28.053  14.865
72448W        W36656  34.455   5.921   2.192
72449W        W36657   3.745  34.114   4.650
72450W        W36658   2.848  40.345  14.887
72451W        W36659   3.921  26.698  10.931
72452W        W36660  35.001  35.044  11.975
72453W        W36661  15.814  16.597  14.961
72454W        W36662  29.424  26.595  14.455
72455W        W36663   9.282  15.676  11.534
72456W        W36664   0.357  16.199   4.152
72457W        W36665   3.373   6.422  13.048
72458W        W36666  13.316   5.361   0.258
72459W        W36667   4.332  18.087  13.359
72460W        W36668  15.585  41.020   3.278
72461W        W36669  34.371   1.466  11.944
72462W        W36670  40.003   1.340  10.896
72463W        W36671   0.433  38.903  11.040
72464W        W36672   8.879  24.085  10.420
72465W        W36673  27.112   1.345   0.920
72466W        W36674  11.708  17.281   3.312
72467W        W36675  32.105   1.388   2.683
72468W        W36676   6.778  28.679   0.424
72469W        W36677  40.373  44.987  11.900
72470W        W36678  19.067  36.037   3.846
72471W        W36679   7.714  43.976   0.773
72472W        W36680  13.135  42.339  12.500
72473W        W36681  11.319  29.982   3.634
72474W        W36682  36.094  25.995  12.367
72475W        W36683  37.007  40.449   4.632
72476W        W36684  36.917  36.566   2.742
72477W        W36685  33.901  41.843   0.933
72478W        W36686  34.978  23.991  12.903
72479W        W36687   7.820  41.844   1.926
72480W        W36688   6.340   6.274  11.017
72481W        W36689  34.918  39.435  13.048
72482W        W36690   6.802  15.242   0.443
72483W        W36691  29.095   6.187   4.729
72484W        W36692  40.348   5.430  10.148
72485W        W36693   1.292   2.462   3.723
72486W        W36694  30.537  14.289   5.158
72487W        W36695   9.294  10.340   4.309
72488W        W36696  35.989  19.251   4.258
72489W        W36697  16.798  21.530   3.644
72490W        W36698   3.318  41.512   2.687
72491W        W36699   1.918  39.834   4.161
72492W        W36700  37.989  17.230   4.674
72493W        W36701  20.212  33.523  14.393
72494W        W36702  23.682  14.112  12.548
72495W        W36703  35.027  19.623  13.399
72496W        W36704  44.406   9.790  11.588
72497W        W36705   3.954  24.045  11.599
72498W        W36706  36.900   0.963   0.763
72499W        W36707  38.507  38.399  10.439
72500W        W36708  20.629   2.311   2.756
72501W        W36709  11.344   5.818   0.859
72502W        W36710  12.855  42.283   2.779
72503W        W36711  39.349  41.871   1.927
72504W        W36712  40.026  19.222   0.906
72505W        W36713   2.942   0.326   2.213
72506W        W36714  26.678  39.508  14.471
72507W        W36715  33.406  12.280   1.785
72508W        W36716  42.873  11.815   2.809
72509W        W36717  25.199  42.315  13.454
72510W        W36718  41.997   8.800   5.210
72511W        W36719  38.465  23.656  12.992
72512W        W36720  37.350  30.586  10.518
72513W        W36721   6.864   3.814   1.241
72514W        W36722  19.093  44.975   3.728
72515W        W36723  20.567  44.982  10.912
72516W        W36724   8.205  15.756  11.437
72517W        W36725  43.947  26.027   0.298
72518W        W36726  38.992  16.153   4.239
72519W        W36727   4.918   0.743  12.894
72520W        W36728  14.156  28.064   5.317
72521W        W36729  28.616   7.331  11.451
72522W        W36730  10.765   8.384   2.268
72523W        W36731  33.478  10.200  14.765
72524W        W36732  23.169  11.775   1.779
72525W        W36733  35.047   5.920   0.309
72526W        W36734   0.957   9.166   4.685
72527W        W36735  10.843  21.558   4.707
72528W        W36736  21.701  14.703  11.901
72529W        W36737  18.124   3.392   0.316
72530W        W36738  11.165  38.966  11.870
72531W        W36739  26.024  42.389   2.214
72532W        W36740  34.014  38.394   2.349
72533W        W36741  32.038  39.499   1.342
72534W        W36742  20.741  23.224   4.826
72535W        W36743  23.063  39.421  14.382
72536W        W36744  39.058   0.869   0.298
72537W        W36745  44.807  21.560  10.569
72538W        W36746  15.264  42.832   3.867
72539W        W36747  15.666  22.706  12.538
72540W        W36748  22.204  33.401  10.530
72541W        W36749  41.470  28.097   2.179
72542W        W36750  23.540   0.842   4.613
72543W        W36751   4.933  28.031   0.941
72544W        W36752  26.195  40.323  13.895
72545W        W36753   0.394   4.288   9.512
72546W        W36754   4.706   1.756   1.272
72547W        W36755  36.569  38.857  10.420
72548W        W36756  28.054  41.991   3.316
72549W        W36757  37.500  34.971   3.733
72550W        W36758   2.398  30.464  12.904
72551W        W36759  22.998  14.290   3.386
72552W        W36760  26.095   4.364  14.364
72553W        W36761  22.105  37.932  11.501
72554W        W36762  25.608   6.219   4.343
72555W        W36763  10.656   0.350   0.810
72556W        W36764  17.641  27.591  14.880
72557W        W36765  34.552  24.196  12.424
72558W        W36766  29.922  43.787  14.443
72559W        W36767   5.230  17.065   3.673
72560W        W36768  14.213  36.540  12.564
72561W        W36769  24.550  30.037  11.861
72562W        W36770   9.251  31.152  10.596
72563W        W36771  42.838   8.210  12.525
72564W        W36772  12.651   0.795   3.383
72565W        W36773  35.419  29.957   4.808
72566W        W36774  28.486  18.759  10.420
72567W        W36775  34.569  19.088  10.943
72568W        W36776  24.996  25.217   1.328
72569W        W36777  42.300  28.039  12.965
72570W        W36778  29.579  12.336  12.930
72571W        W36779  12.154  34.392   1.870
72572W        W36780  43.839  44.986  11.017
72573W        W36781   3.425  43.008  13.927
72574W        W36782  35.404  19.665  10.611
72575W        W36783  29.459  35.406   2.696
72576W        W36784  14.692  33.897   1.306
72577W        W36785  41.304   0.931   0.791
72578W        W36786   2.231   0.277  14.329
72579W        W36787  16.287  21.689   4.831
72580W        W36788  28.000  13.608  10.587
72581W        W36789  18.608  25.590   0.352
72582W        W36790  14.723  36.968  14.305
72583W        W36791  36.530  13.244   0.878
72584W        W36792   2.471   5.363   4.695
72585W        W36793  38.527  36.078  11.543
72586W        W36794  17.148  33.925   1.238
72587W        W36795  44.263  42.414  11.991
72588W        W36796   3.247  23.711   0.272
72589W        W36797  41.857  21.660   1.378
72590W        W36798  29.091  37.374  12.916
72591W        W36799  10.227   7.808  14.511
72592W        W36800  21.132   1.941  12.425
72593W        W36801   8.174  22.067  10.588
72594W        W36802  18.577  39.039  12.003
72595W        W36803  36.009  38.531   4.767
72596W        W36804   9.213  39.936  13.864
72597W        W36805  40.998  38.544   4.153
72598W        W36806  30.651  36.008   1.909
72599W        W36807  17.116  29.660   0.298
72600W        W36808   2.751  31.924  10.510
72601W        W36809  26.631   1.786   3.358
72602W        W36810  43.400  25.641   0.335
72603W        W36811   6.228  10.350   1.701
72604W        W36812  26.685  40.540   3.742
72605W        W36813  14.293   8.809  13.018
72606W        W36814  29.102  14.610   4.641
72607W        W36815  37.393   5.718  10.147
72608W        W36816  29.628  27.117   3.669
72609W        W36817  11.841  10.754   3.841
72610W        W36818   3.740  41.317  13.935
72611W        W36819   2.788  33.421  14.318
72612W        W36820   7.887  31.513   3.182
72613W        W36821  31.079   3.226  13.855
72614W        W36822  16.693  23.163  13.914
72615W        W36823  12.698  32.593  11.124
72616W        W36824  15.288  15.239   2.768
72617W        W36825  27.953   7.712   2.309
72618W        W36826  10.202   5.371   4.252
72619W        W36827  38.533  22.129   1.787
72620W        W36828  21.676   4.804   2.335
72621W        W36829  14.726  36.980   0.821
72622W        W36830  31.571  21.623   4.285
72623W        W36831   0.747  44.353  10.897
72624W        W36832   7.249  16.686  13.316
72625W        W36833   7.313  44.451   1.710
72626W        W36834  25.612  25.585  11.006
72627W        W36835  18.254  39.978   4.688
72628W        W36836  24.641  17.072   4.766
72629W        W36837  38.460  14.682  12.852
72630W        W36838   0.413  23.222   2.212
72631W        W36839  26.019  44.465  14.982
72632W        W36840  15.242  10.263   3.313
72633W        W36841  24.118   4.887  11.464
72634W        W36842  31.013  15.174  12.350
72635W        W36843  27.160  41.809   1.265
72636W        W36844  16.740   0.397  11.518
72637W        W36845  11.681  31.444  10.146
72638W        W36846  43.446  19.656   4.237
72639W        W36847  36.417  17.688  14.899
72640W        W36848  19.546   5.933   2.419
72641W        W36849  19.217   1.383  10.527
72642W        W36850   9.189  39.931  12.964
72643W        W36851  36.358  12.279  13.930
72644W        W36852  39.360  10.864  13.912
72645W        W36853  15.221  32.406   4.658
72646W        W36854   9.780  27.670   0.939
72647W        W36855   0.878  41.005  13.984
72648W        W36856  23.602  20.264   3.795
72649W        W36857  40.503  44.365  14.337
72650W        W36858  18.051   3.385   1.444
72651W        W36859  20.034  31.523   4.759
72652W        W36860  14.687   4.796  14.300
72653W        W36861  32.527  22.144  13.475
72654W        W36862  37.414  29.025  11.394
72655W        W36863   8.351  13.830   3.286
72656W        W36864  39.537  40.411   3.381
72657W        W36865  14.212  29.952   3.384
72658W        W36866   0.449  30.441  14.480
72659W        W36867  35.878  11.153  11.029
72660W        W36868   8.885  34.931   3.380
72661W        W36869   6.836  44.921  12.898
72662W        W36870  31.563   9.151   1.737
72663W        W36871  32.906   7.883   3.813
72664W        W36872  33.470   2.888  10.514
72665W        W36873  27.449  32.036  12.432
72666W        W36874   1.781   9.713  11.425
72667W        W36875  17.239  22.048   1.349
72668W        W36876  31.051   2.246  14.408
72669W        W36877  39.841  32.141  11.862
72670W        W36878  21.105  24.070  13.323
72671W        W36879  21.529  12.638  10.461
72672W        W36880   4.912  42.946  14.019
72673W        W36881   1.282  21.037   5.238
72674W        W36882  18.637   6.759  12.416
72675W        W36883  44.891  20.201  11.430
72676W        W36884  29.528   5.394   3.666
72677W        W36885  31.928  41.788  12.510
72678W        W36886   6.332  21.146   2.215
72679W        W36887  28.589   4.261   1.890
72680W        W36888  44.341  39.988  10.101
72681W        W36889   6.774  43.992  12.382
72682W        W36890  14.685  43.369   3.259
72683W        W36891   4.403  22.190  11.521
72684W        W36892  35.067  33.589  14.998
72685W        W36893  16.195  37.862   1.361
72686W        W36894  35.035   7.798   3.795
72687W        W36895   5.708   5.898  13.882
72688W        W36896   8.893  40.365  14.008
72689W        W36897  39.531  26.014  12.932
72690W        W36898  29.480  33.099   1.855
72691W        W36899   5.212  35.950   0.367
72692W        W36900  15.289  23.123  12.413
72693W        W36901  29.426  39.381   0.353
72694W        W36902  35.373  19.752  13.522
72695W        W36903   2.237   3.813   3.864
72696W        W36904  44.406  17.265   0.823
72697W        W36905   3.846  30.443  12.354
72698W        W36906  43.002  40.308   4.681
72699W        W36907  30.508  22.643  11.426
72700W        W36908   8.869  32.953   0.893
72701W        W36909  16.295   3.926  14.420
72702W        W36910  31.548  17.246  10.105
72703W        W36911  18.253  34.886  14.406
72704W        W36912   3.953  38.552  11.404
72705W        W36913   0.816  41.369  14.772
72706W        W36914   3.235  35.550  13.436
72707W        W36915  37.435   6.782  13.542
72708W        W36916  36.972  36.356   0.961
72709W        W36917  11.865  19.745  10.410
72710W        W36918  16.203  37.871   2.400
72711W        W36919   8.331  32.127  11.464
72712W        W36920  23.068  20.568   4.235
72713W        W36921   7.716  25.966   0.882
72714W        W36922  18.639   5.823  12.416
72715W        W36923   4.328  32.404  11.021
72716W        W36924  14.329  10.297   0.732
72717W        W36925  10.791  40.519  12.955
72718W        W36926  37.577   2.470   1.229
72719W        W36927  12.721  10.261   2.731
72720W        W36928  21.688  14.338  13.542
72721W        W36929  19.116   9.877   0.380
72722W        W36930  14.794  28.085   3.269
72723W        W36931  15.595  35.079   3.856
72724W        W36932  29.625  43.345   3.675
72725W        W36933  23.215  24.648   3.323
72726W        W36934  25.535  22.681   1.776
72727W        W36935  24.583  29.551   0.242
72728W        W36936  14.206  37.060  11.531
72729W        W36937  38.882  42.342   2.266
72730W        W36938  32.400  16.259   3.760
72731W        W36939   2.860  18.251  12.838
72732W        W36940  40.540  41.002   2.848
72733W        W36941  31.608  22.245  13.539
72734W        W36942  37.345  12.778  10.417
72735W        W36943  41.483  19.131   3.200
72736W        W36944  26.545  32.984  14.329
72737W        W36945  27.141  37.459   4.220
72738W        W36946  32.995  13.666  14.763
72739W        W36947   2.801  34.989   5.773
72740W        W36948  36.880  30.160  13.868
72741W        W36949  10.202  36.534   5.106
72742W        W36950   1.897  32.038  11.063
72743W        W36951  24.073  15.611   0.474
72744W        W36952  16.636  18.608  13.971
72745W        W36953  12.809   4.834  11.984
72746W        W36954   5.305  18.755   0.815
72747W        W36955  37.007   5.889  11.013
72748W        W36956   6.890  44.003  12.851
72749W        W36957  15.279  43.397   4.265
72750W        W36958  26.041  41.351  12.960
72751W        W36959  20.594  43.857   4.277
72752W        W36960  41.512  13.615  11.899
72753W        W36961  24.513  30.553  10.498
72754W        W36962  29.636  32.932   3.237
72755W        W36963  19.142  38.448   1.290
72756W        W36964  34.990  43.882   0.812
72757W        W36965  13.185  22.088  13.449
72758W        W36966  23.670  32.580   4.788
72759W        W36967   3.436  42.445  10.439
72760W        W36968   7.904  23.223  13.424
72761W        W36969  23.123  23.648  10.639
72762W        W36970  20.142  22.588  10.486
72763W        W36971  23.545  33.536  13.905
72764W        W36972  44.882  32.981  11.429
72765W        W36973  40.988  10.185  14.954
72766W        W36974   7.364  37.086   4.727
72767W        W36975  24.012   0.961  12.426
72768W        W36976  21.028   7.387  11.891
72769W        W36977  18.722  42.794   0.400
72770W        W36978  23.144  12.144  11.880
72771W        W36979  14.626   3.397   4.688
72772W        W36980   3.316  30.473   1.757
72773W        W36981  11.325  40.987   2.193
72774W        W36982  25.610  28.578  11.414
72775W        W36983   5.735  14.336   3.836
72776W        W36984  44.492   7.842   4.145
72777W        W36985  20.535  28.564   3.360
72778W        W36986  11.190  18.625   3.208
72779W        W36987  20.678   5.292  12.387
72780W        W36988   4.759   5.736  11.577
72781W        W36989  11.747  11.184  11.029
72782W        W36990  39.456   8.358   4.721
72783W        W36991   5.320  36.445  13.853
72784W        W36992  18.201  36.438   2.238
72785W        W36993   1.357  17.728  11.482
72786W        W36994  17.132   3.793   2.345
72787W        W36995  15.130  44.962   2.680
72788W        W36996  12.146  39.983   2.227
72789W        W36997  20.533  11.726  13.464
72790W        W36998  40.502  27.597  12.030
72791W        W36999  27.090  28.047  10.072
72792W        W37000  27.008   6.825  10.967
72793W        W37001  19.658   1.841  13.468
72794W        W37002   7.177   1.332   3.665
72795W        W37003  28.661  34.566   2.386
72796W        W37004   6.709  40.521  13.954
72797W        W37005   0.333  28.500  13.044
72798W        W37006  24.018  20.755   0.293
72799W        W37007   2.328   9.835  11.863
72800W        W37008  31.958  37.466   2.358
72801W        W37009  29.635  39.924  12.528
72802W        W37010  40.928   8.700   0.359
72803W        W37011  12.190  14.339  11.120
72804W        W37012  23.054  19.093   3.669
72805W        W37013  22.565  12.700   1.735
72806W        W37014  17.751   3.444  14.490
72807W        W37015   2.406  25.665   4.116
72808W        W37016  13.623  30.558  11.977
72809W        W37017  39.415  40.993  12.051
72810W        W37018  10.716  19.714   1.445
72811W        W37019  32.966  27.477   2.801
72812W        W37020  33.978  33.505  11.043
72813W        W37021  44.919   7.859   4.616
72814W        W37022  18.066   1.409  13.437
72815W        W37023  25.077  26.161  13.307
72816W        W37024  24.031   2.954   3.280
72817W        W37025  30.430  16.087   3.326
72818W        W37026   5.283  36.017  12.049
72819W        W37027   4.779  14.709  11.929
72820W        W37028  30.033   7.734  14.355
72821W        W37029  34.066  12.297  10.467
72822W        W37030  33.436  25.057   2.702
72823W        W37031  30.118   8.264   3.658
72824W        W37032  27.120  35.411   4.645
72825W        W37033  29.566   9.172  10.531
72826W        W37034   0.924  16.772   0.361
72827W        W37035   4.832  42.294   0.846
72828W        W37036  19.219  30.474   4.119
72829W        W37037  38.014  31.977   4.794
72830W        W37038  42.330  29.495  11.943
72831W        W37039  33.081  35.552   0.869
72832W        W37040  32.070  12.166  14.510
72833W        W37041  37.413  10.290  12.517
72834W        W37042  36.422   1.815   3.791
72835W        W37043   1.929  20.068   4.680
72836W        W37044  11.326  28.138   2.320
72837W        W37045  24.675  27.089   2.253
72838W        W37046  14.313  13.717   1.873
72839W        W37047  17.089  44.337   0.474
72840W        W37048  43.504  38.833   2.722
72841W        W37049  29.437  24.190  13.987
72842W        W37050  21.106  33.475   2.222
72843W        W37051  22.048   4.703   1.732
72844W        W37052  22.540   3.746  14.989
72845W        W37053  17.198  13.131   3.374
72846W        W37054  29.435  39.898   3.643
72847W        W37055  26.510  26.556  13.008
72848W        W37056   3.355  37.551  14.432
72849W        W37057  19.536  21.136   4.636
72850W        W37058  44.009  28.660  11.473
72851W        W37059   7.367   2.839  13.418
72852W        W37060   2.751  33.064  11.565
72853W        W37061  19.691  22.556   3.840
72854W        W37062  30.943  13.650  11.943
72855W        W37063  25.113  12.702  12.088
72856W        W37064  41.376  42.339  10.982
72857W        W37065  24.072  37.336  14.007
72858W        W37066   5.893  38.008  14.509
72859W        W37067  34.491   7.286  12.827
72860W        W37068   6.363  14.266  10.952
72861W        W37069  20.546  35.045   1.309
72862W        W37070  30.523  19.537  11.965
72863W        W37071  20.029  41.862  10.463
72864W        W37072   7.343  10.773   4.823
72865W        W37073  31.099  19.696  10.155
72866W        W37074  43.368  18.132   1.724
72867W        W37075  39.815  33.586   2.792
72868W        W37076  37.850   6.844   3.145
72869W        W37077  20.614  14.190   5.222
72870W        W37078  30.080  12.815   4.677
72871W        W37079   8.180   9.215  13.527
72872W        W37080  34.898  33.051   0.813
72873W        W37081  14.216  11.339   1.735
72874W        W37082  22.515  32.075  10.093
72875W        W37083  35.869  33.507  13.477
72876W        W37084   9.846  23.042   4.150
72877W        W37085  27.508   3.738   2.343
72878W        W37086  43.510   0.812  10.993
72879W        W37087  21.158  20.571   2.698
72880W        W37088  31.044  29.522  11.060
72881W        W37089  33.875  24.653   2.356
72882W        W37090  38.835  10.633  11.983
72883W        W37091  18.650  41.034  11.113
72884W        W37092  18.171  34.395   1.907
72885W        W37093  21.542   0.823  14.809
72886W        W37094  29.137  27.012   1.830
72887W        W37095  30.603  25.495   1.217
72888W        W37096  20.119  34.008   4.671
72889W        W37097  44.946  26.116   2.331
72890W        W37098  29.575   4.710   2.378
72891W        W37099  12.181  35.887   1.903
72892W        W37100  33.123   3.243  13.530
72893W        W37101  41.877  19.247  12.462
72894W        W37102  23.705   3.909   1.843
72895W        W37103  33.618  36.906  11.100
72896W        W37104  12.163  21.247   0.273
72897W        W37105  21.516  31.472   2.358
72898W        W37106  11.771  32.965  13.902
72899W        W37107   3.235   0.751  14.771
72900W        W37108  34.566   0.377   1.831
72901W        W37109  14.241   2.326   4.694
72902W        W37110  12.703   3.806   0.459
72903W        W37111  34.008  40.812   4.759
72904W        W37112  42.962  33.026  10.978
72905W        W37113  17.078  27.541   4.618
72906W        W37114  18.102   7.811   1.446
72907W        W37115  10.379  44.856   0.914
72908W        W37116  34.605  24.036  11.079
72909W        W37117  38.489   3.326   1.276
72910W        W37118  15.812  40.948  13.421
72911W        W37119  23.538   7.406   3.701
72912W        W37120  38.840  20.030  13.019
72913W        W37121  12.272  28.602  14.019
72914W        W37122   7.353  41.003  12.831
72915W        W37123  22.539   8.211  11.996
72916W        W37124  38.973  37.451   3.738
72917W        W37125  11.821  41.465   9.994
72918W        W37126   7.873  41.981   1.315
72919W        W37127   0.388  26.615  11.912
72920W        W37128  33.580   3.926  11.893
72921W        W37129   6.297  27.023  10.608
72922W        W37130  38.528  26.560  10.127
72923W        W37131   4.329  34.532  11.395
72924W        W37132  40.034  39.924   0.865
72925W        W37133  20.668  32.026   2.900
72926W        W37134  16.292   8.259   0.945
72927W        W37135   8.720  13.236   1.422
72928W        W37136  24.630   3.841  13.044
72929W        W37137  23.166  44.846   1.317
72930W        W37138  13.272  25.667   4.210
72931W        W37139  17.281  41.445   4.247
72932W        W37140  12.712  19.669   1.774
72933W        W37141  20.067  14.750  13.435
72934W        W37142  43.001  17.205   1.777
72935W        W37143  28.449  39.533  10.455
72936W        W37144  37.885  28.455  10.421
72937W        W37145  42.830  17.102   2.859
72938W        W37146  29.165  15.285   2.796
72939W        W37147   0.742  37.020  13.416
72940W        W37148  30.017  24.531   4.757
72941W        W37149  40.877  42.830   1.281
72942W        W37150   7.221  13.710   3.738
72943W        W37151  19.546  18.714  12.576
72944W        W37152   6.737  41.942  12.499
72945W        W37153  15.158  11.710   1.712
72946W        W37154  18.255  28.185  11.901
72947W        W37155  34.939   2.764   4.335
72948W        W37156   0.854  30.941  13.402
72949W        W37157  39.948  12.812  12.089
72950W        W37158   9.227  32.397  14.366
72951W        W37159  21.204   8.655  11.430
72952W        W37160  41.885   6.693  13.439
72953W        W37161  16.783  14.163  11.129
72954W        W37162  22.508  15.119  11.581
72955W        W37163  14.706  39.064   0.815
72956W        W37164   2.782  39.444  12.007
72957W        W37165  13.260   6.878  13.849
72958W        W37166  25.122  24.520   4.817
72959W        W37167  32.068  22.544  11.888
72960W        W37168  33.055   5.394  13.432
72961W        W37169  21.178   6.372  13.898
72962W        W37170   2.425  43.297   0.753
72963W        W37171  19.039   3.731  12.354
72964W        W37172  27.602   0.979  12.505
72965W        W37173  42.468  44.960  14.356
72966W        W37174  27.088  27.635   2.667
72967W        W37175  41.971  14.757   3.214
72968W        W37176  39.815   5.803  11.487
72969W        W37177  32.631  29.150  13.441
72970W        W37178   0.984  27.080   2.878
72971W        W37179  31.497  40.902   0.788
72972W        W37180  44.437  12.265   2.889
72973W        W37181   8.186  43.843  14.816
72974W        W37182  21.599  18.561  14.985
72975W        W37183   5.871  13.641  10.982
72976W        W37184   6.187  27.546  12.513
72977W        W37185  35.908  21.168  13.812
72978W        W37186  29.938  30.431  12.854
72979W        W37187  42.820  14.714  10.461
72980W        W37188  32.006  15.808  13.447
72981W        W37189   2.900   6.389  11.930
72982W        W37190  33.917  21.674  12.867
72983W        W37191  35.957  16.187   3.160
72984W        W37192  21.101  42.868  14.770
72985W        W37193   2.783  17.152  12.956
72986W        W37194  35.910  25.656  14.851
72987W        W37195  23.577   4.296  11.096
72988W        W37196  16.637  30.916   0.434
72989W        W37197  26.503  38.409   4.317
72990W        W37198   6.901  30.627   0.925
72991W        W37199  19.103  16.310  10.893
72992W        W37200  10.820  29.072  13.476
72993W        W37201   8.249  14.150   0.966
72994W        W37202  13.152   5.758  10.436
72995W        W37203  28.957  27.632  14.304
72996W        W37204  28.979   6.735  12.923
72997W        W37205  19.188  26.513  12.500
72998W        W37206  15.617   1.355  13.498
72999W        W37207  31.526   9.194  12.462
73000W        W37208  23.538  35.997   3.771
73001W        W37209  44.785  44.375   4.297
73002W        W37210   9.346   7.902   3.645
73003W        W37211  39.820  38.568  14.324
73004W        W37212  29.108  15.189  14.477
73005W        W37213  18.205  38.463   0.389
73006W        W37214   7.804  17.218   4.821
73007W        W37215  27.653   0.933   1.400
73008W        W37216  33.510  28.042  11.545
73009W        W37217   8.850  40.827  14.445
73010W        W37218  24.564  37.474  12.360
73011W        W37219  37.970  16.609   4.267
73012W        W37220  37.838  42.775   4.292
73013W        W37221  38.999   7.404  11.593
73014W        W37222  42.318  19.750  11.872
73015W        W37223  26.185  34.400  12.092
73016W        W37224  35.109  37.395  14.018
73017W        W37225  22.684  10.761  12.365
73018W        W37226  33.971  39.459   4.164
73019W        W37227  35.915   5.323  14.876
73020W        W37228   8.187  12.685   3.263
73021W        W37229  18.568   7.399  10.977
73022W        W37230  37.874   6.351  13.981
73023W        W37231  27.115  19.176  14.792
73024W        W37232  35.528  11.271   1.935
73025W        W37233   6.726  19.130   0.340
73026W        W37234  25.559  25.635   1.726
73027W        W37235  23.129  31.001   2.760
73028W        W37236  40.999  28.120  11.585
73029W        W37237  22.719  18.621   3.816
73030W        W37238  34.921  23.138   0.404
73031W        W37239  37.533  17.094   3.766
73032W        W37240  23.049  42.789  10.520
73033W        W37241   7.301  36.991  13.418
73034W        W37242  22.648  35.549  14.275
73035W        W37243  25.113  39.368  12.061
73036W        W37244  13.160  30.082   2.415
73037W        W37245  19.071  24.053   4.121
73038W        W37246  32.967  14.319  11.553
73039W        W37247  38.024  20.190  13.501
73040W        W37248  33.008  42.316  11.086
73041W        W37249   1.945  31.544   9.972
73042W        W37250  18.609  14.777   1.740
73043W        W37251  11.783  15.818  13.973
73044W        W37252  28.968  29.919  11.877
73045W        W37253  13.811   0.856  13.524
73046W        W37254  32.036  15.618  13.907
73047W        W37255   2.757  25.556  14.959
73048W        W37256  30.462   9.176   3.756
73049W        W37257  16.775  34.115  10.507
73050W        W37258  36.459  28.079  13.314
73051W        W37259   6.332  39.431  14.296
73052W        W37260  34.042   3.729  12.451
73053W        W37261  33.600  14.250  14.285
73054W        W37262  43.461  20.543   4.738
73055W        W37263  12.330  43.414   4.731
73056W        W37264  34.437  29.003  12.867
73057W        W37265  13.150  17.234  12.540
73058W        W37266  20.101  17.608  14.014
73059W        W37267  33.538   3.762  12.978
73060W        W37268   2.789  34.087  12.882
73061W        W37269  27.034   0.802   3.779
73062W        W37270  23.690  11.798  11.446
73063W        W37271   4.734  26.663  13.349
73064W        W37272  22.021  36.423   0.892
73065W        W37273  15.706   8.214   4.185
73066W        W37274   5.778  35.035   2.369
73067W        W37275  23.143  33.545  12.001
73068W        W37276  11.208  25.132   2.766
73069W        W37277  10.685  10.860   2.794
73070W        W37278   8.214   0.882   1.875
73071W        W37279  29.120  31.536   3.351
73072W        W37280   0.365  29.513   0.308
73073W        W37281  23.617   3.453  14.989
73074W        W37282  20.080  38.962  11.519
73075W        W37283  23.077  39.826  14.772
73076W        W37284   9.817   0.876  13.928
73077W        W37285  21.165  28.960  14.947
73078W        W37286   9.240  16.264  13.337
73079W        W37287  17.124  43.408  13.476
73080W        W37288   7.193  39.418  11.052
73081W        W37289  34.566  33.538   0.273
73082W        W37290  39.838  28.067   3.262
73083W        W37291  23.147   7.739   9.670
73084W        W37292  39.486  37.434   1.867
73085W        W37293  33.997  31.524   2.224
73086W        W37294  44.327  43.309   3.691
73087W        W37295  31.012   4.449   2.245
73088W        W37296  35.055  17.275   1.436
73089W        W37297   5.934  29.433  14.918
73090W        W37298  17.761  15.719  12.018
73091W        W37299  36.050  42.990   1.415
73092W        W37300  14.828   5.304   3.747
73093W        W37301  10.312  26.546  12.567
73094W        W37302  43.508  17.755  14.440
73095W        W37303   4.335   2.281   4.786
73096W        W37304   2.841   5.852   3.837
73097W        W37305  29.152  23.080  14.479
73098W        W37306  17.738  42.517  13.928
73099W        W37307  41.920  24.040  10.568
73100W        W37308  21.186  33.108   4.332
73101W        W37309  43.484  33.505  13.940
73102W        W37310  22.217  29.975  14.955
73103W        W37311  24.207  32.980  13.041
73104W        W37312  12.681  41.866  13.995
73105W        W37313  39.026  27.169   2.773
73106W        W37314  29.625   6.411  13.507
73107W        W37315   6.737  35.072  13.944
73108W        W37316  40.504  32.468   0.441
73109W        W37317  18.282  27.448  11.936
73110W        W37318   3.416   1.790   4.645
73111W        W37319  15.156  20.067  10.512
73112W        W37320  34.376  31.471   4.210
73113W        W37321   9.197  26.587  13.028
73114W        W37322  26.475   7.899  10.451
73115W        W37323  14.817  16.116   0.278
73116W        W37324  34.375   6.235  13.939
73117W        W37325   4.394  25.527   4.298
73118W        W37326  35.097  37.060  14.477
73119W        W37327  41.995  13.691   1.432
73120W        W37328   7.823   6.345   2.768
73121W        W37329  44.976  25.504  13.403
73122W        W37330  38.906  16.654  12.084
73123W        W37331   1.764   2.890  14.384
73124W        W37332   7.677  14.158  14.487
73125W        W37333  43.888  18.174  12.028
73126W        W37334  20.583  15.584  13.994
73127W        W37335  20.051  37.419   4.351
73128W        W37336  34.418  36.880   2.789
73129W        W37337  22.094  12.747  10.428
73130W        W37338  16.727  13.700   0.819
73131W        W37339  26.566  31.404   0.471
73132W        W37340  16.725  33.017  10.639
73133W        W37341  24.041  22.239   2.179
73134W        W37342  34.898  15.196   4.793
73135W        W37343   5.424  35.387  13.860
73136W        W37344  33.554  25.709  11.388
73137W        W37345  11.237  39.462   0.427
73138W        W37346   0.416  32.046   1.387
73139W        W37347   4.405  23.227   4.667
73140W        W37348  41.814  17.561  11.480
73141W        W37349  15.132  37.848  11.451
73142W        W37350  17.663  31.987  13.351
73143W        W37351  30.546  42.934   4.166
73144W        W37352  34.569  17.671   0.896
73145W        W37353   2.439  36.901   3.285
73146W        W37354   0.953  12.117  14.402
73147W        W37355  23.557  30.000   3.778
73148W        W37356   6.734  21.170  12.546
73149W        W37357  42.775  12.177   3.812
73150W        W37358  28.443  11.151   3.793
73151W        W37359  17.555   7.373   3.779
73152W        W37360  34.513  24.618   1.332
73153W        W37361  19.232   7.269  13.494
73154W        W37362  10.647  21.710   4.215
73155W        W37363  14.253  25.655   1.244
73156W        W37364   1.476  35.914   2.328
73157W        W37365  41.987   1.315  10.935
73158W        W37366  32.974  18.105   0.959
73159W        W37367   4.268   9.249   2.844
73160W        W37368  44.810  33.443   4.121
73161W        W37369  28.655  11.178  12.427
73162W        W37370   3.735   5.718  10.455
73163W        W37371  20.127  32.554   2.286
73164W        W37372   0.831  22.198   0.726
73165W        W37373   6.259  27.603   2.225
73166W        W37374  22.506  42.030   2.759
73167W        W37375   9.840   3.222   2.778
73168W        W37376  28.005  21.732  11.863
73169W        W37377   1.767  20.033   3.709
73170W        W37378  27.197   4.887  13.998
73171W        W37379  42.424  41.895  14.282
73172W        W37380   7.873  33.932   0.839
73173W        W37381  12.172  39.527  13.009
73174W        W37382  41.479  30.153  14.952
73175W        W37383   0.263  10.284   4.674
73176W        W37384  42.825  15.158  10.543
73177W        W37385  44.307  34.518  12.901
73178W        W37386  24.014  27.108   4.283
73179W        W37387  28.152   9.716   3.355
73180W        W37388   6.371   3.907  14.779
73181W        W37389   3.869  31.102  13.534
73182W        W37390  38.521  31.923  11.894
73183W        W37391  11.842  25.629  12.870
73184W        W37392  33.614  38.834  13.957
73185W        W37393  31.496  43.466  11.555
73186W        W37394  41.988  31.105  10.986
73187W        W37395   0.795  16.290  12.414
73188W        W37396  33.395  13.747   1.380
73189W        W37397  37.003  24.517  11.085
73190W        W37398  35.441  13.690  12.454
73191W        W37399  19.586  35.556  10.592
73192W        W37400  41.786  37.415  11.108
73193W        W37401  18.278   4.370   1.252
73194W        W37402  14.640   9.278  11.389
73195W        W37403   7.752  20.747  14.277
73196W        W37404  39.943   4.702  14.430
73197W        W37405  15.130  40.342  12.375
73198W        W37406  41.352  29.575  12.832
73199W        W37407   5.336  12.688  13.327
73200W        W37408  42.495  13.749   2.803
73201W        W37409  24.491  21.538  11.924
73202W        W37410  31.897  23.173  14.856
73203W        W37411  40.351   7.209  12.909
73204W        W37412  24.090   1.449  11.955
73205W        W37413  13.672  44.494   1.292
73206W        W37414  12.673  34.863  14.326
73207W        W37415   7.384  44.412  10.498
73208W        W37416  28.975  11.671   4.774
73209W        W37417  17.653  35.854   3.208
73210W        W37418  25.697  28.566  14.007
73211W        W37419  32.025   3.306  13.903
73212W        W37420  38.338  26.563   2.189
73213W        W37421   8.246   6.842  12.991
73214W        W37422  34.430  42.365   4.115
73215W        W37423  39.473   0.938  11.579
73216W        W37424  35.011  42.798   4.815
73217W        W37425  18.209  13.752   2.189
73218W        W37426  36.008  40.907   0.303
73219W        W37427  15.228   2.414   4.703
73220W        W37428  42.399  34.387   2.413
73221W        W37429  27.532  39.499  13.886
73222W        W37430   9.161  20.745  12.071
73223W        W37431  14.785  41.844  12.843
73224W        W37432  28.496  16.279  11.381
73225W        W37433   2.375  38.970  11.423
73226W        W37434   6.420  23.008  11.516
73227W        W37435  36.525  13.617  13.829
73228W        W37436  43.371  31.903   4.618
73229W        W37437   9.395  31.633   1.343
73230W        W37438  22.196  42.391  10.444
73231W        W37439  41.887  20.612  10.959
73232W        W37440  44.431  38.910   4.327
73233W        W37441  41.474   3.365   0.315
73234W        W37442  43.439  11.321   0.462
73235W        W37443  14.769  23.186  12.469
73236W        W37444  33.939  39.907  13.905
73237W        W37445  33.893  43.960  14.959
73238W        W37446  20.183   1.283   0.327
73239W        W37447  24.667  19.619  14.839
73240W        W37448  16.073  30.647   2.238
73241W        W37449  36.394  36.585   2.823
73242W        W37450  17.559  20.159   4.700
73243W        W37451  12.696  33.890  14.764
73244W        W37452  44.267  13.787   5.261
73245W        W37453  41.512  28.019  12.970
73246W        W37454  23.015  22.578   3.855
73247W        W37455   2.415  13.717   4.746
73248W        W37456  35.528  44.849   0.787
73249W        W37457  23.224  20.211  13.880
73250W        W37458  30.123  25.645  11.416
73251W        W37459  11.286  41.295  14.500
73252W        W37460  32.523  14.622  14.785
73253W        W37461  29.483  24.484   2.668
73254W        W37462  29.143  44.813  14.338
73255W        W37463  19.195   8.756   3.183
73256W        W37464  22.572  14.630   2.799
73257W        W37465  30.998   9.334  12.878
73258W        W37466  21.166  39.815   3.363
73259W        W37467   5.397  13.811  12.873
73260W        W37468  32.966  32.131   0.777
73261W        W37469   9.808  37.919   4.354
73262W        W37470   3.806  22.612  12.945
73263W        W37471  31.542   3.919   1.887
73264W        W37472  25.536   1.324  11.988
73265W        W37473  31.622  44.294   3.234
73266W        W37474  13.653  19.064  11.905
73267W        W37475  42.332  22.600   2.836
73268W        W37476  43.967  37.043   4.318
73269W        W37477   0.852   4.809   0.857
73270W        W37478  10.744  37.552  11.471
73271W        W37479  17.632   7.856   2.305
73272W        W37480   0.430  35.029   1.436
73273W        W37481   8.183   4.910   1.808
73274W        W37482  16.259  21.026   2.886
73275W        W37483  12.343  20.646   4.308
73276W        W37484  32.502  10.384   2.186
73277W        W37485  29.006  13.149  14.358
73278W        W37486  42.310  38.566  11.412
73279W        W37487   5.291  21.075   3.199
73280W        W37488  44.921   9.330  13.333
73281W        W37489  14.246  32.067  11.888
73282W        W37490  10.844  27.625   4.656
73283W        W37491  24.523  39.516  13.020
73284W        W37492   9.383  35.036  13.540
73285W        W37493  39.362   2.781   2.767
73286W        W37494  10.190  21.623  12.345
73287W        W37495  33.041   8.300  12.538
73288W        W37496  18.573  34.944   4.713
73289W        W37497  40.976  39.813  13.965
73290W        W37498  29.108  18.282   2.379
73291W        W37499  38.844  21.550  12.528
73292W        W37500  11.790  36.539   2.717
73293W        W37501  22.009  35.053  14.306
73294W        W37502  20.057  22.541  14.358
73295W        W37503   1.383  35.867   0.936
73296W        W37504   8.783  25.660   0.427
73297W        W37505  10.272  40.951   2.401
73298W        W37506  12.246  43.785  12.896
73299W        W37507  42.989  27.043  13.826
73300W        W37508  11.134   3.878  10.978
73301W        W37509  15.744  25.708  12.878
73302W        W37510  44.905  13.785   3.307
73303W        W37511  23.572   9.292   4.350
73304W        W37512  44.503  37.035  14.392
73305W        W37513  25.002  31.539   3.224
73306W        W37514  41.997  34.421   1.352
73307W        W37515   4.817  30.947   3.301
73308W        W37516  10.806  16.573   2.318
73309W        W37517   0.265  23.595  13.443
73310W        W37518   0.881  27.500   4.606
73311W        W37519   8.402  17.637   0.346
73312W        W37520  11.345  27.579  14.972
73313W        W37521  30.497   9.293   2.291
73314W        W37522  28.123  10.270   3.350
73315W        W37523  38.541  16.175   5.193
73316W        W37524  41.403  22.534   1.867
73317W        W37525  21.686   5.377  10.610
73318W        W37526  18.667  43.490   2.703
73319W        W37527  22.720  25.094  14.959
73320W        W37528  33.913  14.307   0.791
73321W        W37529  32.607  20.152  14.470
73322W        W37530  10.214  16.598  12.823
73323W        W37531  18.226  17.725   0.880
73324W        W37532  29.104   8.191   3.854
73325W        W37533   7.286  34.985   4.160
73326W        W37534  15.675  19.669   2.724
73327W        W37535  44.842  21.520  12.408
73328W        W37536   3.218  38.926  13.308
73329W        W37537  36.992  40.853   2.662
73330W        W37538   3.431  40.814   3.378
73331W        W37539  26.076  21.262   2.881
73332W        W37540  38.511  31.906   1.862
73333W        W37541  39.995  23.704  11.401
73334W        W37542  23.151  40.962  12.867
73335W        W37543  39.023  32.574   1.703
73336W        W37544   4.348  19.659   3.858
73337W        W37545   6.306  16.768  13.477
73338W        W37546  44.776   3.939  12.530
73339W        W37547  38.985  33.443   9.954
73340W        W37548  30.562   3.459  12.080
73341W        W37549  10.729  39.473   4.800
73342W        W37550  14.692  31.584   2.351
73343W        W37551   6.910   5.780   2.733
73344W        W37552  14.825  38.388  13.993
73345W        W37553  23.131  16.113   4.831
73346W        W37554  39.922  23.584   1.402
73347W        W37555  21.635  26.045   2.890
73348W        W37556  16.706  40.953  13.477
73349W        W37557  16.140  23.196   0.840
73350W        W37558  41.500   4.809  12.393
73351W        W37559  29.617  35.358  14.311
73352W        W37560  38.515  21.248   1.767
73353W        W37561   7.810  20.170  11.531
73354W        W37562  36.476  43.371   1.259
73355W        W37563  21.077  42.785   4.686
73356W        W37564  32.010  27.627  10.998
73357W        W37565  16.596  13.328  13.343
73358W        W37566  11.356  41.018   1.723
73359W        W37567  39.547  41.844  13.008
73360W        W37568  27.988  37.934  13.335
73361W        W37569  35.879  11.340  11.452
73362W        W37570  24.113  42.339  12.891
73363W        W37571   6.719  24.089  11.879
73364W        W37572  42.471  27.636  14.331
73365W        W37573  13.186  32.134  12.871
73366W        W37574  21.212  23.163  11.088
73367W        W37575  40.865  21.622   0.901
73368W        W37576  32.494  11.332  14.914
73369W        W37577  12.134  27.489   2.869
73370W        W37578  12.612  24.090  11.444
73371W        W37579  27.042  15.585   2.805
73372W        W37580  43.828  15.719   0.298
73373W        W37581  16.723  10.871   3.349
73374W        W37582   9.325  24.559  11.881
73375W        W37583  38.995  26.134  14.931
73376W        W37584  31.404   7.853  11.445
73377W        W37585   7.359  16.222  13.313
73378W        W37586  21.166  18.294   4.149
73379W        W37587  31.533   7.775  13.505
73380W        W37588  19.552   1.798  12.853
73381W        W37589  40.048   8.242  14.024
73382W        W37590  26.550  14.144   0.727
73383W        W37591  17.114  12.278  13.840
73384W        W37592  21.095  38.000   0.794
73385W        W37593  11.804   4.790   5.107
73386W        W37594  33.033  40.024  13.440
73387W        W37595   6.416  33.999   1.835
73388W        W37596  17.171  32.021   4.772
73389W        W37597  14.780  33.402  11.446
73390W        W37598  33.476  13.321   0.277
73391W        W37599  20.538   0.908   4.618
73392W        W37600  20.029   7.680   3.224
73393W        W37601  25.176  10.648  13.411
73394W        W37602   0.473  44.966   2.295
73395W        W37603   3.362   4.383   4.641
73396W        W37604  16.268   3.241  10.602
73397W        W37605   0.349  43.924  10.412
73398W        W37606  42.511  32.489   3.157
73399W        W37607  41.035  29.477  11.580
73400W        W37608  11.735  19.597  11.939
73401W        W37609   8.207  30.457   2.815
73402W        W37610  30.611  20.756   4.751
73403W        W37611  17.224   2.345  11.066
73404W        W37612  43.963  38.847   0.251
73405W        W37613   4.767   1.951  11.396
73406W        W37614   8.160  40.906   1.773
73407W        W37615  14.098  32.025  13.950
73408W        W37616  39.910  15.223   5.221
73409W        W37617  31.465   5.282  10.481
73410W        W37618  21.644  17.171   4.317
73411W        W37619  17.111  14.235   0.243
73412W        W37620   5.295  31.980  14.854
73413W        W37621   3.758  31.525  12.005
73414W        W37622  38.333  18.253   3.181
73415W        W37623  33.414  33.402  12.080
73416W        W37624  42.435  23.548   3.694
73417W        W37625   9.814   9.670   1.283
73418W        W37626  15.150   5.319   3.176
73419W        W37627   1.793  18.754  13.885
73420W        W37628  18.680  20.171   3.320
73421W        W37629  38.537  40.310   4.657
73422W        W37630  21.669  34.570   3.740
73423W        W37631  44.843  31.448  14.349
73424W        W37632   1.301  28.653  10.626
73425W        W37633  10.335  36.038   1.317
73426W        W37634  25.990   6.754  14.798
73427W        W37635   9.876  27.543   0.359
73428W        W37636  11.355   0.764   4.832
73429W        W37637   1.395  30.082  13.934
73430W        W37638  11.755   7.683   0.893
73431W        W37639  41.495   9.654   1.896
73432W        W37640  13.144  31.544   4.786
73433W        W37641  19.746   3.851   4.693
73434W        W37642  31.138  22.103  10.934
73435W        W37643  33.904  23.584   0.810
73436W        W37644  25.526  26.657   1.392
73437W        W37645  11.738  30.028   1.843
73438W        W37646  17.194  26.169  12.522
73439W        W37647  23.501  35.006  11.869
73440W        W37648  20.660  33.512   4.686
73441W        W37649  21.559  33.395  13.007
73442W        W37650  36.490  40.824   4.153
73443W        W37651  14.698   2.322   3.745
73444W        W37652  22.213  15.648   1.297
73445W        W37653  39.542  24.113  12.356
73446W        W37654  41.410   3.757   3.342
73447W        W37655  21.107   7.875   0.859
73448W        W37656  17.232  35.594   0.450
73449W        W37657  37.557  16.166   0.454
73450W        W37658  35.371  31.935   1.394
73451W        W37659  14.324  23.151   3.250
73452W        W37660  40.047  38.334   4.685
73453W        W37661  34.441  26.700   3.811
73454W        W37662   6.388  29.470  12.499
73455W        W37663  37.919  17.683  10.479
73456W        W37664   8.333  33.902   4.332
73457W        W37665  42.388   3.286  10.458
73458W        W37666  44.399  40.843  10.903
73459W        W37667  12.330  19.272   0.845
73460W        W37668   1.289  39.348   2.361
73461W        W37669  36.994   2.437   1.395
73462W        W37670  37.414  43.848  13.495
73463W        W37671  26.568  35.493   0.870
73464W        W37672  36.412  31.105   4.299
73465W        W37673  39.944  38.325  10.512
73466W        W37674  17.180   8.682   5.092
73467W        W37675  38.409  32.499  14.826
73468W        W37676  43.980  19.676  12.570
73469W        W37677   6.888  39.375  12.561
73470W        W37678  20.097   0.424  10.444
73471W        W37679   4.424  41.974   2.391
73472W        W37680  11.752  19.701  10.941
73473W        W37681  13.283  43.512   3.725
73474W        W37682  23.531  37.407   1.884
73475W        W37683   3.729   4.400   2.733
73476W        W37684   2.731   0.349   3.708
73477W        W37685  40.913  25.014   4.307
73478W        W37686  41.369  14.797   4.788
73479W        W37687  35.892   8.889  14.307
73480W        W37688  41.925  21.150  11.100
73481W        W37689  30.990  44.758  13.961
73482W        W37690  36.366   6.875  11.115
73483W        W37691  31.491  17.113  14.766
73484W        W37692  25.060  34.476   2.236
73485W        W37693  10.211  41.362  10.637
73486W        W37694   5.831  32.933  13.844
73487W        W37695  36.590  25.498  13.531
73488W        W37696   8.793  29.998   0.755
73489W        W37697  13.162   8.268  14.915
73490W        W37698  10.343   4.343   1.878
73491W        W37699  29.607   8.681  14.440
73492W        W37700  14.195  14.834   1.774
73493W        W37701  34.911  19.621   1.716
73494W        W37702   4.786  27.458   0.309
73495W        W37703  34.945  28.031   0.921
73496W        W37704   8.757   0.827  11.867
73497W        W37705  12.244   2.307  11.934
73498W        W37706  21.725  33.968  14.797
73499W        W37707  44.301  30.061   1.317
73500W        W37708   3.281  27.488   2.857
73501W        W37709  24.013  40.877  14.891
73502W        W37710  14.187  22.089   0.839
73503W        W37711  24.724  41.936  11.096
73504W        W37712  32.637  34.506   4.131
73505W        W37713   8.894  29.014  12.549
73506W        W37714  27.536   0.426  12.359
73507W        W37715  11.798   3.336   2.408
73508W        W37716  43.295   4.796  10.412
73509W        W37717  40.405  38.346  14.296
73510W        W37718   4.353  26.007  11.987
73511W        W37719  29.487  27.161  11.042
73512W        W37720  14.775   2.411   1.219
73513W        W37721  33.450  27.453   3.291
73514W        W37722  44.865   4.797   3.180
73515W        W37723  21.694  42.962   1.809
73516W        W37724  19.223   0.853  10.925
73517W        W37725   2.422  38.568  14.479
73518W        W37726  29.988  36.441   2.771
73519W        W37727  41.825  29.116  13.003
73520W        W37728  39.464  23.715   2.348
73521W        W37729   0.857  29.919  11.873
73522W        W37730  14.233  24.983   1.450
73523W        W37731  24.113  18.722   2.306
73524W        W37732  14.675  35.857   3.236
73525W        W37733  28.485  35.975   4.648
73526W        W37734  29.045   8.836   2.861
73527W        W37735  28.499   4.399   0.942
73528W        W37736  42.468   4.428   2.878
73529W        W37737  40.339  24.973  14.320
73530W        W37738  44.820  24.527  14.987
73531W        W37739  35.442  40.407   3.298
73532W        W37740   8.317  22.502  11.396
73533W        W37741   4.308  43.504  14.970
73534W        W37742  18.134   4.879   3.734
73535W        W37743  28.089  15.673  10.620
73536W        W37744   5.839  14.236   0.361
73537W        W37745  25.010  44.408   1.310
73538W        W37746  10.238  25.679  13.920
73539W        W37747   0.791  33.078  13.806
73540W        W37748   7.270  17.307   4.699
73541W        W37749   4.206  10.648  12.077
73542W        W37750  33.945  20.170   1.270
73543W        W37751   9.849  18.230  11.011
73544W        W37752   8.194  27.692  12.386
73545W        W37753  44.493  30.946  13.853
73546W        W37754   1.829   9.777  14.895
73547W        W37755  42.840   6.221  11.410
73548W        W37756  40.818   5.404   3.211
73549W        W37757  29.935  33.616   3.171
73550W        W37758  10.360  25.189  12.898
73551W        W37759  20.229  15.099   3.384
73552W        W37760  44.879  14.806  11.965
73553W        W37761  36.943  26.183   4.696
73554W        W37762   5.331  26.189   4.130
73555W        W37763  16.206  31.983  14.914
73556W        W37764   0.363  37.061   4.161
73557W        W37765  30.039  23.193  14.449
73558W        W37766   4.822  22.051  13.946
73559W        W37767   6.677  28.675   2.195
73560W        W37768  32.998  43.777   2.326
73561W        W37769   9.677  40.802   2.797
73562W        W37770  17.129  40.439  12.464
73563W        W37771  38.484   3.943   1.445
73564W        W37772  21.700  20.038  13.395
73565W        W37773  17.736   7.675   1.394
73566W        W37774  16.286  12.719  12.441
73567W        W37775  35.568   6.802   4.781
73568W        W37776  34.035  39.510  14.818
73569W        W37777   4.396  34.426  12.076
73570W        W37778  34.408   4.908   2.902
73571W        W37779  41.836  16.692   3.200
73572W        W37780  11.866  42.320  11.544
73573W        W37781   0.367  17.674   1.399
73574W        W37782  25.540  14.777  11.871
73575W        W37783  39.460  25.667   1.436
73576W        W37784  34.980  33.943   3.365
73577W        W37785  16.117  10.348   4.257
73578W        W37786  40.035  18.721  14.788
73579W        W37787  14.258  16.202   4.157
73580W        W37788  26.609  33.477   2.892
73581W        W37789   3.745  14.751  14.927
73582W        W37790  22.570  29.534   4.353
73583W        W37791  13.223  11.852  11.609
73584W        W37792  14.595  19.051  12.912
73585W        W37793  27.503   5.282   4.120
73586W        W37794  31.546  22.543  10.919
73587W        W37795  12.358  40.340   3.730
73588W        W37796   6.915  24.717  14.285
73589W        W37797  14.766   5.930   0.316
73590W        W37798   6.853  24.049   0.296
73591W        W37799  30.598   3.374  13.346
73592W        W37800  31.941  24.176  14.807
73593W        W37801  10.319  27.157  12.561
73594W        W37802  28.576  19.190   4.638
73595W        W37803  14.781  40.870  14.445
73596W        W37804  17.780  21.207   1.442
73597W        W37805   7.834  21.665  10.503
73598W        W37806   9.779  27.503  13.867
73599W        W37807  40.882  44.972   4.247
73600W        W37808  43.450  41.518   5.262
73601W        W37809  39.482  37.969  11.915
73602W        W37810   5.316  25.185   4.635
73603W        W37811  34.501   6.808   4.113
73604W        W37812  14.128  38.074  13.326
73605W        W37813   1.306   3.447   1.850
73606W        W37814  41.787  20.694  13.830
73607W        W37815  25.989  18.271   4.123
73608W        W37816   9.866  21.581  12.978
73609W        W37817  12.785  31.952  13.423
73610W        W37818  42.329   3.832   2.279
73611W        W37819  39.482  14.700   2.668
73612W        W37820   8.389   3.939  11.976
73613W        W37821  24.981  31.082  10.888
73614W        W37822  18.154  31.027  12.877
73615W        W37823  11.662   7.800   2.369
73616W        W37824  41.461  42.914   1.312
73617W        W37825  20.207   0.258  13.415
73618W        W37826  21.575   6.261   2.665
73619W        W37827  24.230  10.377   3.836
73620W        W37828   2.922  38.058  14.960
73621W        W37829  24.637  36.470  13.415
73622W        W37830  43.891  38.365  13.390
73623W        W37831  42.870  43.015   3.321
73624W        W37832  42.423  29.632   0.344
73625W        W37833  31.427  26.643  14.910
73626W        W37834  31.031  12.211   1.264
73627W        W37835   5.777  12.665   0.882
73628W        W37836  16.689  30.138  11.127
73629W        W37837   3.753  27.170   2.212
73630W        W37838  16.633  15.819   4.173
73631W        W37839  29.030  14.240  14.485
73632W        W37840   5.313  21.739   4.207
73633W        W37841   5.396  28.943  10.414
73634W        W37842  16.621  15.284  13.384
73635W        W37843   4.929  28.523   3.772
73636W        W37844  35.056  22.623  11.444
73637W        W37845  23.203  36.986  10.994
73638W        W37846  36.368  44.349   2.182
73639W        W37847   4.220  39.981   4.222
73640W        W37848   3.857  24.138  11.045
73641W        W37849  23.062  17.728  11.498
73642W        W37850  15.724  33.955  10.515
73643W        W37851  27.168   6.878   0.742
73644W        W37852  26.568  32.103  11.894
73645W        W37853  15.699   3.807  13.538
73646W        W37854  18.232  26.562   3.733
73647W        W37855  12.137  28.435   1.862
73648W        W37856  10.753  18.724   3.215
73649W        W37857  28.647  22.234  11.969
73650W        W37858  40.539  25.652   1.451
73651W        W37859  16.764  25.200   1.374
73652W        W37860  16.168  27.102  11.967
73653W        W37861  18.598  10.633  14.984
73654W        W37862  38.037  42.500  14.977
73655W        W37863  42.821  10.715   1.372
73656W        W37864  39.507  19.268  13.999
73657W        W37865  33.914   0.481   1.772
73658W        W37866  41.951  19.584   2.669
73659W        W37867   8.394  20.246  14.911
73660W        W37868   0.930  34.061  12.849
73661W        W37869   6.841  20.238  12.943
73662W        W37870   3.262  34.881  13.509
73663W        W37871  28.079  12.679   3.269
73664W        W37872  20.188  28.170   2.285
73665W        W37873   8.349  32.013   3.683
73666W        W37874   1.956  43.341  11.522
73667W        W37875   9.192  21.724  13.003
73668W        W37876  40.443  43.918  10.413
73669W        W37877  20.128   6.712   3.293
73670W        W37878  39.894   4.792   0.895
73671W        W37879  20.241  26.696  12.840
73672W        W37880  24.541  33.960  14.301
73673W        W37881  24.574   6.896  11.107
73674W        W37882   1.935  43.966   0.405
73675W        W37883  28.495  41.939  14.813
73676W        W37884  37.845  43.870   2.373
73677W        W37885   0.957   8.187   4.335
73678W        W37886  24.175  35.017  14.384
73679W        W37887  43.408  41.864  12.836
73680W        W37888  17.112  32.027   1.754
73681W        W37889   8.165  25.035  13.397
73682W        W37890  27.612   6.811  14.785
73683W        W37891  19.731  18.649   1.820
73684W        W37892  14.098  40.878   3.727
73685W        W37893   3.454  39.522  13.386
73686W        W37894   1.734   1.892   3.651
73687W        W37895   9.282  27.597  10.465
73688W        W37896  28.940  44.844   4.607
73689W        W37897  12.239  11.742   0.830
73690W        W37898  32.588   3.726   1.346
73691W        W37899  32.575  30.023  11.987
73692W        W37900  27.078  10.341  13.963
73693W        W37901  29.141   8.251  11.104
73694W        W37902   7.675  10.789   2.679
73695W        W37903  37.050  30.480   1.828
73696W        W37904  10.633  23.203  10.532
73697W        W37905  43.461  27.690  12.935
73698W        W37906   6.898  16.776   3.213
73699W        W37907  40.372  18.725  12.033
73700W        W37908  40.456   0.408  13.410
73701W        W37909  13.730   9.377  13.490
73702W        W37910   3.822  14.216   4.725
73703W        W37911  13.772  29.122   3.152
73704W        W37912  36.413  28.674  13.954
73705W        W37913  39.437  30.100  11.955
73706W        W37914   0.354  43.963  12.078
73707W        W37915   1.480  19.090   1.399
73708W        W37916   8.674  36.062   2.391
73709W        W37917  35.581  14.105   2.344
73710W        W37918  24.518  20.175   1.358
73711W        W37919  21.250  26.158  10.909
73712W        W37920   2.407  11.361  13.963
73713W        W37921  15.321   1.850   1.271
73714W        W37922   6.872  24.512  11.113
73715W        W37923  32.105  10.293   0.452
73716W        W37924  27.968  11.215  13.360
73717W        W37925   3.808  23.120   2.411
73718W        W37926  26.101  11.628  13.988
73719W        W37927  14.649  13.323   3.857
73720W        W37928  39.972  11.306   4.613
73721W        W37929  10.634  40.934   2.280
73722W        W37930   8.272  39.982  11.991
73723W        W37931  15.627  33.470   4.608
73724W        W37932   4.264  15.241  12.866
73725W        W37933  23.586  31.005  13.796
73726W        W37934  35.508  39.963  10.513
73727W        W37935   4.745   7.684  12.355
73728W        W37936  26.552  27.617   0.823
73729W        W37937  10.259   1.920  14.961
73730W        W37938   4.303  35.962  13.970
73731W        W37939  38.520  32.961  14.896
73732W        W37940  32.951  10.279   0.962
73733W        W37941  30.445  18.784   1.764
73734W        W37942  16.742   3.332  14.837
73735W        W37943   7.398  35.513  12.011
73736W        W37944  16.603   5.867   2.252
73737W        W37945   9.306  31.462   0.847
73738W        W37946  38.998  27.564  13.909
73739W        W37947  32.429  37.529  11.519
73740W        W37948  11.813  29.947   2.776
73741W        W37949   9.879   4.853  11.430
73742W        W37950   6.304   7.266   1.897
73743W        W37951   0.388  33.055  10.121
73744W        W37952  40.880  32.089   2.667
73745W        W37953  15.287  33.396  12.893
73746W        W37954  18.136  37.490   1.270
73747W        W37955  26.689  42.308   1.342
73748W        W37956   0.966  19.057  11.464
73749W        W37957  18.188  27.099  12.381
73750W        W37958  22.165  18.178  12.566
73751W        W37959  12.171   5.244  10.999
73752W        W37960   0.250  37.440  13.373
73753W        W37961  23.544  13.163  11.876
73754W        W37962  14.124   5.391   0.457
73755W        W37963  28.665  11.836   3.382
73756W        W37964   6.291  39.430  12.936
73757W        W37965  14.628  42.434  12.089
73758W        W37966  34.912  22.020   2.831
73759W        W37967  24.649   9.750  12.987
73760W        W37968  20.239   3.853   2.685
73761W        W37969  20.258  34.539   5.233
73762W        W37970  22.558  38.328  12.934
73763W        W37971   5.699  42.896  11.472
73764W        W37972   1.270  16.102   1.257
73765W        W37973  19.627  23.731   2.365
73766W        W37974  17.225  39.377  14.407
73767W        W37975  13.659   5.782   1.367
73768W        W37976  14.224   9.153   1.824
73769W        W37977  44.908  40.306   2.736
73770W        W37978  28.642  36.358   2.785
73771W        W37979  21.669   4.240   4.127
73772W        W37980  43.303   8.372  10.456
73773W        W37981  13.649   8.405   4.605
73774W        W37982  13.146  16.778  11.033
73775W        W37983  36.394  16.745  11.574
73776W        W37984  15.809  17.569   3.251
73777W        W37985  16.172  31.939   0.269
73778W        W37986  25.498   5.377   3.149
73779W        W37987   1.893  18.599  14.883
73780W        W37988  18.565  16.697  14.337
73781W        W37989  15.605  28.964   1.379
73782W        W37990   7.815  24.202  10.541
73783W        W37991  33.930  18.642  11.461
73784W        W37992   1.384  29.461   3.642
73785W        W37993  15.688  12.143  13.053
73786W        W37994  29.602   7.339   0.759
73787W        W37995  32.107  43.339   4.164
73788W        W37996  13.236  37.916   3.852
73789W        W37997   7.335  12.664  13.374
73790W        W37998  31.557  18.719   2.900
73791W        W37999  16.576  40.390   1.881
73792W        W38000   6.709  15.611   1.716
73793W        W38001  18.231  22.183  14.908
73794W        W38002  25.503  14.193  12.519
73795W        W38003  18.715  21.628  14.880
73796W        W38004  29.953   7.891   0.378
73797W        W38005  23.522  23.159   3.306
73798W        W38006  43.017   6.696  12.551
73799W        W38007   2.284  14.760  12.404
73800W        W38008  10.163  31.043   2.861
73801W        W38009  20.090  22.024  10.415
73802W        W38010  20.750  39.954   4.679
73803W        W38011  37.878  41.867   1.883
73804W        W38012   1.973  23.735   4.298
73805W        W38013  34.035  22.129  11.934
73806W        W38014   7.407  44.913   2.210
73807W        W38015  44.264   1.267   1.284
73808W        W38016  25.655   0.977   2.692
73809W        W38017  11.191  18.549   1.442
73810W        W38018  36.457  28.941  14.900
73811W        W38019  28.058  24.598  11.031
73812W        W38020  41.890   4.273  13.513
73813W        W38021  28.053  24.230  10.954
73814W        W38022  17.562  38.420  14.507
73815W        W38023  27.054  41.828  11.551
73816W        W38024   9.809  39.961   1.429
73817W        W38025  38.832   6.855  10.896
73818W        W38026   6.876  10.799  10.621
73819W        W38027   3.769  43.984   3.186
73820W        W38028  12.778  25.651  10.547
73821W        W38029  29.628  13.145  14.350
73822W        W38030  37.866  15.198   1.891
73823W        W38031   5.900  34.972  12.056
73824W        W38032  20.238  25.079  13.978
73825W        W38033  22.083   6.417   9.542
73826W        W38034  33.921  35.955   1.910
73827W        W38035  30.981  19.088  11.083
73828W        W38036  36.064  34.017   4.305
73829W        W38037  12.170  13.821   3.782
73830W        W38038  15.722  23.549   0.778
73831W        W38039  37.014  25.619   3.359
73832W        W38040   6.714  22.119  12.395
73833W        W38041  10.634  37.575   4.176
73834W        W38042  39.018  42.303   2.791
73835W        W38043  13.834  23.037  11.515
73836W        W38044  29.591  25.149  12.570
73837W        W38045  13.686  26.618  10.955
73838W        W38046   1.418   2.874  12.091
73839W        W38047   9.384   4.261   1.370
73840W        W38048  34.116  11.235   3.317
73841W        W38049  21.613  33.458  14.507
73842W        W38050  43.878   2.856   0.409
73843W        W38051   4.298  29.530   1.342
73844W        W38052  38.050  10.810   0.812
73845W        W38053  30.942  31.148  14.468
73846W        W38054  17.759   5.928  14.490
73847W        W38055   1.900  42.017   3.292
73848W        W38056  14.124  23.136   0.469
73849W        W38057  39.458  11.713   4.683
73850W        W38058   8.721  13.837   1.295
73851W        W38059  38.327  37.442  10.144
73852W        W38060  31.590   4.700   4.344
73853W        W38061  22.676  33.936   3.754
73854W        W38062  19.080  24.653   3.664
73855W        W38063  18.691  14.746  12.438
73856W        W38064  36.943  20.552  12.034
73857W        W38065  10.784  29.010   4.144
73858W        W38066  15.303   8.363   3.291
73859W        W38067  21.044  32.929   0.824
73860W        W38068  13.784   5.767   1.841
73861W        W38069  10.197  10.176  11.908
73862W        W38070  28.076  11.201   1.421
73863W        W38071  38.349  36.550  12.931
73864W        W38072  16.573  20.194  14.511
73865W        W38073   0.857  41.833  13.811
73866W        W38074  29.025   1.847   4.256
73867W        W38075  41.306  35.531   4.677
73868W        W38076  30.028  29.585  12.966
73869W        W38077  33.938  10.263   2.874
73870W        W38078  19.555  19.225   1.831
73871W        W38079  44.809  33.117  10.523
73872W        W38080  40.528  36.347  14.361
73873W        W38081  23.593  34.497   0.780
73874W        W38082  36.076  15.322  10.539
73875W        W38083  24.693  22.584   2.763
73876W        W38084  22.198  39.065   2.306
73877W        W38085   7.241   6.710   3.803
73878W        W38086  37.083  21.572   1.919
73879W        W38087  38.502  26.609  11.022
73880W        W38088  19.609  10.709  13.914
73881W        W38089  36.044  14.731   3.235
73882W        W38090  12.261  22.732   3.754
73883W        W38091  30.095  27.670   1.332
73884W        W38092  37.375   7.846   0.471
73885W        W38093  26.510   5.706  11.879
73886W        W38094  34.585   6.845   2.419
73887W        W38095  31.014   9.186   1.884
73888W        W38096  43.334  16.743   4.351
73889W        W38097  30.041  31.512  11.417
73890W        W38098  44.278  37.998  14.810
73891W        W38099   4.914  27.592   1.291
73892W        W38100   0.370  23.049  13.331
73893W        W38101  11.152  41.487   1.312
73894W        W38102  37.551  12.679   0.931
73895W        W38103   6.252  31.095   0.464
73896W        W38104  28.591  20.247   2.820
73897W        W38105  31.590  24.497   4.143
73898W        W38106  18.231   3.727   1.425
73899W        W38107  12.801  36.843  13.919
73900W        W38108  40.966  22.119   3.723
73901W        W38109  13.772   0.308  12.080
73902W        W38110  37.069  40.325  14.314
73903W        W38111  38.949  38.846  13.903
73904W        W38112  27.478   6.367  12.033
73905W        W38113  19.119  42.777  11.105
73906W        W38114  16.618  42.810  14.429
73907W        W38115   0.252  34.554  11.094
73908W        W38116  43.867  40.012  14.892
73909W        W38117  14.306  18.095   0.257
73910W        W38118  25.105  32.525  13.472
73911W        W38119  31.520  31.115   4.831
73912W        W38120  10.837  24.184   3.150
73913W        W38121  21.202  16.600  12.044
73914W        W38122   3.874  43.969   4.313
73915W        W38123   6.870  40.039  12.016
73916W        W38124  17.608  38.449  13.410
73917W        W38125  36.867  13.243   3.720
73918W        W38126   1.860  34.888   2.352
73919W        W38127   8.195   5.210  13.829
73920W        W38128  10.639  34.864   3.259
73921W        W38129   4.287  25.478   3.741
73922W        W38130  29.429  26.667  13.999
73923W        W38131  12.258  35.869   2.204
73924W        W38132  35.499  33.013   4.210
73925W        W38133  27.184  37.869   3.152
73926W        W38134  19.059  13.346  10.546
73927W        W38135  38.866   5.402  10.440
73928W        W38136   3.361  25.109   3.272
73929W        W38137  15.297   2.365  11.925
73930W        W38138  37.862   2.283   4.130
73931W        W38139  22.065  15.217   4.196
73932W        W38140   2.722   6.263   1.932
73933W        W38141  28.980  27.624  11.427
73934W        W38142   4.920  37.964   0.921
73935W        W38143  25.096  32.026   2.314
73936W        W38144  36.995   4.863   2.718
73937W        W38145  21.047  15.299   4.642
73938W        W38146  16.208  37.517  12.026
73939W        W38147  16.792  12.190   2.386
73940W        W38148  36.844  12.626  11.446
73941W        W38149  43.918   5.765  10.459
73942W        W38150  17.166  42.921   3.664
73943W        W38151  13.666  40.943   1.755
73944W        W38152  25.611   8.242  12.486
73945W        W38153  37.904  23.026  14.869
73946W        W38154  10.816  27.052   3.869
73947W        W38155  25.669  31.097   4.816
73948W        W38156  44.402  28.050  10.527
73949W        W38157  32.098  40.409   0.817
73950W        W38158  12.615  43.299   0.376
73951W        W38159  12.619  41.291  12.361
73952W        W38160   8.211  42.408   2.178
73953W        W38161  17.798  26.560   2.850
73954W        W38162  30.125  11.669   1.258
73955W        W38163  30.452  38.833   2.697
73956W        W38164  22.228  39.486  12.017
73957W        W38165  10.800  43.862  11.375
73958W        W38166  20.133  42.870   2.873
73959W        W38167  12.126  38.892   3.696
73960W        W38168   9.753  28.488   2.857
73961W        W38169  33.114  14.327   1.727
73962W        W38170  31.976  44.970   1.819
73963W        W38171  25.667  38.404   4.772
73964W        W38172   9.810  17.256  14.929
73965W        W38173  43.303  13.106  11.466
73966W        W38174  29.993  39.030   3.170
73967W        W38175   8.317  18.147   2.729
73968W        W38176  30.113  30.530   1.786
73969W        W38177  34.410  14.746  14.985
73970W        W38178   4.741  18.786   4.598
73971W        W38179  16.300  38.496  14.961
73972W        W38180   2.748  29.560   0.430
73973W        W38181  25.564  16.679   4.656
73974W        W38182  42.976  44.404   1.899
73975W        W38183  13.197   6.771   2.282
73976W        W38184  35.053   0.843  13.365
73977W        W38185  32.096  30.024  14.339
73978W        W38186  22.165  11.639  12.395
73979W        W38187  11.295  31.488  14.983
73980W        W38188   1.816  16.225  14.458
73981W        W38189  24.198  23.582  14.356
73982W        W38190  42.793  29.589   0.469
73983W        W38191  32.551  21.546  11.510
73984W        W38192  12.286  29.520  13.037
73985W        W38193  13.841  23.612  11.524
73986W        W38194  29.529  13.641  12.832
73987W        W38195   2.279   4.879  12.053
73988W        W38196  26.122  33.895  11.585
73989W        W38197  10.726  26.066   2.752
73990W        W38198  36.401  39.433  10.992
73991W        W38199   9.860   3.710   1.714
73992W        W38200  24.015  33.040  14.950
73993W        W38201  30.051   2.821   0.466
73994W        W38202  10.878  32.404   1.442
73995W        W38203  25.469   3.217  14.982
73996W        W38204  36.421  42.967  14.394
73997W        W38205  25.629  31.918  14.815
73998W        W38206   0.431  37.472   3.642
73999W        W38207  37.362  27.066   2.752
74000W        W38208  41.876  44.770  13.546
74001W        W38209   5.248   5.922   4.323
74002W        W38210   8.361  35.601   0.841
74003W        W38211  41.519  36.375   4.266
74004W        W38212  20.582   2.457  11.429
74005W        W38213  13.766  26.952   0.350
74006W        W38214  39.544  19.213   1.721
74007W        W38215  30.484  33.585  12.417
74008W        W38216  39.952  16.794   3.736
74009W        W38217   9.660  40.357   1.214
74010W        W38218  11.240  12.335   0.455
74011W        W38219  29.036  40.450   3.652
74012W        W38220  37.392  40.047  10.436
74013W        W38221  25.214  13.262   0.434
74014W        W38222  22.652  29.612  10.535
74015W        W38223  28.552  32.029   3.216
74016W        W38224  44.469  23.083   3.210
74017W        W38225   6.282  15.679   3.741
74018W        W38226  18.573  38.464   0.354
74019W        W38227  14.808  12.670  13.868
74020W        W38228  14.121   8.285  13.803
74021W        W38229  28.960  17.641  11.001
74022W        W38230  16.211  33.617   4.186
74023W        W38231  25.645  28.174   1.334
74024W        W38232  23.139  25.118   3.157
74025W        W38233   2.788  43.394   1.350
74026W        W38234  36.059  25.098  10.405
74027W        W38235   3.888   8.264  12.930
74028W        W38236  40.969  44.927   0.788
74029W        W38237  22.548   6.750   1.378
74030W        W38238  13.632  44.316   1.800
74031W        W38239   4.377  26.571   0.434
74032W        W38240  39.821  11.283   2.842
74033W        W38241  37.905  40.433   3.848
74034W        W38242   1.291   0.302   4.662
74035W        W38243   9.685   0.265  10.487
74036W        W38244  38.873   8.214   2.903
74037W        W38245  41.013  13.178   2.280
74038W        W38246  11.854  14.756  14.773
74039W        W38247  22.726  35.079   0.470
74040W        W38248   6.868  29.653   3.194
74041W        W38249  18.057   7.273  11.440
74042W        W38250  18.217   2.862   2.266
74043W        W38251   3.942  28.597   3.212
74044W        W38252  12.791  44.461   3.650
74045W        W38253  39.539  31.581   2.672
74046W        W38254  21.239  28.618   0.325
74047W        W38255  32.498   1.836   2.665
74048W        W38256  31.094  26.003   1.749
74049W        W38257  16.239   0.323   1.817
74050W        W38258  43.300  32.007   0.444
74051W        W38259  21.162   2.944   0.478
74052W        W38260  39.424  42.359  14.776
74053W        W38261   6.891  15.276   2.767
74054W        W38262  10.365   6.360   1.819
74055W        W38263  42.385  40.996   3.650
74056W        W38264  28.637   2.906   2.877
74057W        W38265   1.812  25.153  13.932
74058W        W38266  31.904   3.423  10.011
74059W        W38267  15.087  23.133  11.857
74060W        W38268  27.518   7.824  13.445
74061W        W38269  40.961  39.931   4.749
74062W        W38270  17.568  10.186  11.539
74063W        W38271  24.610   4.363  12.063
74064W        W38272  11.841  26.506   0.937
74065W        W38273  23.133  24.988   2.353
74066W        W38274  11.349  30.644   3.246
74067W        W38275  19.150  18.788   4.240
74068W        W38276  18.119  32.929  14.895
74069W        W38277  23.209  31.608  13.020
74070W        W38278  37.443  27.160  10.593
74071W        W38279   7.404  33.078   3.759
74072W        W38280  39.011  44.786  10.118
74073W        W38281  18.602   5.420   0.866
74074W        W38282  21.226  30.068  13.050
74075W        W38283   4.222  29.940  13.852
74076W        W38284  21.046  36.461  14.294
74077W        W38285   1.858  17.726  12.013
74078W        W38286  40.491  44.963   2.180
74079W        W38287   6.718  42.944   5.204
74080W        W38288  25.016  36.846  14.351
74081W        W38289   8.326   2.894  14.387
74082W        W38290   9.721  39.358   0.784
74083W        W38291  33.045  12.276   3.228
74084W        W38292  23.502   9.377   4.619
74085W        W38293  43.426  33.505   4.607
74086W        W38294  22.252  14.749   2.859
74087W        W38295   2.775  44.495   0.953
74088W        W38296  39.823  31.934   1.929
74089W        W38297  23.113   9.182  10.890
74090W        W38298  35.990  44.379  14.794
74091W        W38299  29.986   8.379   1.237
74092W        W38300  42.468  16.591  10.603
74093W        W38301  36.392  28.604   4.343
74094W        W38302  30.982  20.572  12.981
74095W        W38303  44.924  14.139   3.328
74096W        W38304   2.930   5.331   0.787
74097W        W38305   0.811  22.520  14.803
74098W        W38306   5.306  18.059   2.238
74099W        W38307  20.610   0.459   3.348
74100W        W38308   3.257  17.611   3.712
74101W        W38309  25.500  18.067   3.307
74102W        W38310  30.549   7.778  13.056
74103W        W38311   7.747  30.574  14.904
74104W        W38312  27.649  11.688  14.976
74105W        W38313   2.906  34.380   3.259
74106W        W38314  10.220  25.513   1.784
74107W        W38315   7.859   4.392  13.867
74108W        W38316  32.543  21.709  14.998
74109W        W38317  39.495  29.440  12.895
74110W        W38318   7.294  20.132   2.901
74111W        W38319  36.009  28.569  13.921
74112W        W38320  40.480  39.371   0.469
74113W        W38321  38.952   6.805   0.916
74114W        W38322   2.863  23.671  12.395
74115W        W38323  37.990  40.970   4.704
74116W        W38324  33.107  24.111   4.183
74117W        W38325  27.581  38.532   3.194
74118W        W38326  19.063  44.952   2.394
74119W        W38327  11.790  10.222  11.924
74120W        W38328  13.632   1.246   0.363
74121W        W38329   6.344  22.062  14.846
74122W        W38330  31.488  15.588  12.528
74123W        W38331  43.478   8.845  11.413
74124W        W38332  12.710   5.742   3.847
74125W        W38333   5.214   2.439   2.870
74126W        W38334   5.428  23.232   4.196
74127W        W38335   5.930  23.169  13.969
74128W        W38336  40.871  25.132  10.937
74129W        W38337  34.068  35.424   0.380
74130W        W38338  28.487  37.402  13.978
74131W        W38339  30.161   8.808  14.833
74132W        W38340   5.298  32.069   1.391
74133W        W38341  26.488  22.245   3.296
74134W        W38342  34.429  21.721  11.969
74135W        W38343  12.745  39.028  14.840
74136W        W38344  14.137  36.521  11.976
74137W        W38345  29.539  37.470   2.289
74138W        W38346  24.975   5.711  13.340
74139W        W38347   0.742  40.967   2.335
74140W        W38348  14.302   0.864   0.476
74141W        W38349   9.394  15.324   1.398
74142W        W38350   8.714  31.962   1.225
74143W        W38351  27.078  10.784   3.822
74144W        W38352  13.114  29.030   2.788
74145W        W38353   8.853  44.331  12.852
74146W        W38354  42.364   4.932   2.869
74147W        W38355  20.097   1.247  12.995
74148W        W38356  28.434   6.888   0.885
74149W        W38357  15.329  16.711   4.128
74150W        W38358   7.711  18.710  13.375
74151W        W38359  33.408   9.304  14.999
74152W        W38360   1.974  24.093   0.279
74153W        W38361  12.782  42.394  11.426
74154W        W38362  21.153  22.151   1.897
74155W        W38363  28.455  16.762  12.011
74156W        W38364  41.867   1.866  14.774
74157W        W38365  11.744  39.891   2.689
74158W        W38366  31.973  37.422  12.537
74159W        W38367  24.689   3.870  13.972
74160W        W38368  27.687  16.609   0.868
74161W        W38369  16.637  23.097   2.203
74162W        W38370  23.555  25.141  13.027
74163W        W38371   8.401  40.959  12.480
74164W        W38372  43.922  29.919  11.432
74165W        W38373  42.488  16.159  13.883
74166W        W38374  43.873  26.573   4.635
74167W        W38375   7.252  10.173   4.333
74168W        W38376   6.281  31.545   1.886
74169W        W38377  11.262  26.094  10.641
74170W        W38378  26.082  28.593   4.337
74171W        W38379   7.692  18.249  12.344
74172W        W38380  28.164   2.879   4.833
74173W        W38381  26.678  42.877  11.606
74174W        W38382  12.761  24.672  11.452
74175W        W38383  21.081  18.229  13.395
74176W        W38384  41.502  34.950   5.179
74177W        W38385  43.380   1.329   1.227
74178W        W38386   4.325   8.259   2.286
74179W        W38387  13.699  29.067  10.561
74180W        W38388   0.862  39.340   3.341
74181W        W38389  13.171   3.853   2.691
74182W        W38390   4.917  16.312   3.182
74183W        W38391   7.281  23.587   2.353
74184W        W38392  16.260  30.964   1.420
74185W        W38393   5.253  41.017  11.060
74186W        W38394  27.955  31.016   1.225
74187W        W38395  18.633  22.549  12.028
74188W        W38396   3.240  18.196   2.379
74189W        W38397  14.168  15.640  10.425
74190W        W38398  12.771  41.896   0.727
74191W        W38399   2.276  38.906  14.016
74192W        W38400  42.351  31.547  12.875
74193W        W38401   7.223  41.813  10.434
74194W        W38402   4.276  39.425  13.855
74195W        W38403  22.691  29.428  14.779
74196W        W38404  20.618  37.573  10.617
74197W        W38405  16.646  43.446   3.811
74198W        W38406  44.830   1.340  10.518
74199W        W38407  19.691  44.359   3.837
74200W        W38408  10.861   8.670  10.471
74201W        W38409  29.064  17.122  11.546
74202W        W38410  20.130  19.547   1.850
74203W        W38411   1.798  36.529  12.396
74204W        W38412  36.429   2.460   4.274
74205W        W38413  44.928  29.095  12.888
74206W        W38414  30.067  29.497  14.835
74207W        W38415  43.776   3.440  14.343
74208W        W38416  26.681  44.300   3.170
74209W        W38417  37.933  27.182  12.863
74210W        W38418  13.179  17.666   4.215
74211W        W38419  20.197   8.373   3.231
74212W        W38420  13.716  22.529  14.003
74213W        W38421   3.931  19.732   0.414
74214W        W38422  41.916  37.548   9.936
74215W        W38423   9.371  38.907   1.331
74216W        W38424   6.262  38.886   0.919
74217W        W38425  25.697  14.214  11.122
74218W        W38426  17.201  25.183   1.815
74219W        W38427  22.525   5.416  14.017
74220W        W38428  31.015  17.578  10.909
74221W        W38429  20.251   3.405  10.891
74222W        W38430  43.400  42.445  14.786
74223W        W38431  25.068  16.268  11.474
74224W        W38432  36.923   7.803   1.259
74225W        W38433  16.177  17.788  10.495
74226W        W38434  21.619  14.767   3.673
74227W        W38435  13.638  14.224  12.829
74228W        W38436  19.164  42.350  14.802
74229W        W38437  15.764  11.847   0.934
74230W        W38438   6.871  19.676  13.434
74231W        W38439   2.967  31.530  14.830
74232W        W38440  35.540  18.579  14.962
74233W        W38441  35.393  22.690  13.811
74234W        W38442  36.033  41.507  13.849
74235W        W38443   5.693   6.294  14.891
74236W        W38444  36.387  40.965  11.935
74237W        W38445  20.126  40.885   1.236
74238W        W38446  33.539  19.182   3.256
74239W        W38447  25.219  16.794  11.094
74240W        W38448  15.120  32.026  10.050
74241W        W38449   1.465  20.598   3.843
74242W        W38450  31.044  44.953   4.155
74243W        W38451  17.758  28.138   0.462
74244W        W38452  35.558  24.560  11.058
74245W        W38453  32.519   0.852  13.489
74246W        W38454  16.636  17.182   1.266
74247W        W38455  20.581  20.544  10.643
74248W        W38456  43.000  30.424  14.456
74249W        W38457  18.731  25.036  11.912
74250W        W38458  38.353  24.636   2.684
74251W        W38459  36.375  40.402  12.376
74252W        W38460  30.477  13.248  13.423
74253W        W38461  31.559  30.134  13.404
74254W        W38462  18.726  22.169  13.371
74255W        W38463  44.898  17.626  12.894
74256W        W38464   9.228  13.845   0.728
74257W        W38465  37.088  11.866   4.745
74258W        W38466  22.519   1.773  11.601
74259W        W38467  20.698  28.991   4.303
74260W        W38468  40.378  41.455  13.062
74261W        W38469   7.188   5.249   3.710
74262W        W38470   7.312  41.863   0.445
74263W        W38471  37.985  17.124  11.581
74264W        W38472  31.095  31.047   1.789
74265W        W38473  41.959  11.795  10.583
74266W        W38474  21.159  37.939  13.832
74267W        W38475  18.730  33.911  12.487
74268W        W38476   7.282  31.003  14.297
74269W        W38477  11.268  14.674  14.280
74270W        W38478  29.649  40.802   2.779
74271W        W38479  18.787   6.788  13.473
74272W        W38480  27.684  26.020   0.278
74273W        W38481  11.675  29.655  10.152
74274W        W38482  37.507  25.187  13.946
74275W        W38483  16.786  26.484  10.639
74276W        W38484  14.592  30.532   3.744
74277W        W38485   4.771  39.553  10.446
74278W        W38486  37.529  16.269   4.646
74279W        W38487  16.174  14.727   1.237
74280W        W38488  29.513  24.015  10.446
74281W        W38489   1.867  10.811  12.533
74282W        W38490   6.810  37.552   0.455
74283W        W38491  14.254  36.856  14.928
74284W        W38492  19.077  39.031  13.808
74285W        W38493   7.725  13.347  13.974
74286W        W38494  40.013  36.518   4.800
74287W        W38495  23.129  18.582   3.341
74288W        W38496  36.507  12.240  12.548
74289W        W38497  26.668   8.367  12.357
74290W        W38498  38.485  10.835   2.888
74291W        W38499  28.028  24.490  10.524
74292W        W38500  42.327  36.454  12.007
74293W        W38501   2.773  34.506   4.605
74294W        W38502  10.684   2.360   3.648
74295W        W38503  24.213  24.481   3.307
74296W        W38504  20.608  31.968  13.882
74297W        W38505  16.076  15.215  12.949
74298W        W38506  15.616  19.588   4.709
74299W        W38507  42.458  15.176  11.610
74300W        W38508   7.904  11.832  13.909
74301W        W38509  30.020   3.405   4.115
74302W        W38510   9.203  22.730  12.016
74303W        W38511  42.327  41.527  10.456
74304W        W38512   0.481  29.500  12.422
74305W        W38513   6.207  11.803   1.284
74306W        W38514  43.955  43.978   1.921
74307W        W38515  20.666  27.588  14.762
74308W        W38516  37.359  23.106   3.313
74309W        W38517   1.798  32.538  12.438
74310W        W38518   0.489  19.564   0.949
74311W        W38519  28.938   7.215   0.285
74312W        W38520   4.282  24.553  11.436
74313W        W38521  31.528  35.900   3.797
74314W        W38522  21.201  23.665   2.211
74315W        W38523  39.957   2.363  14.508
74316W        W38524  29.931  37.539   3.756
74317W        W38525  15.129  27.093   0.869
74318W        W38526   3.925  38.531   1.858
74319W        W38527  43.929  24.141   3.210
74320W        W38528  36.448   5.739   1.284
74321W        W38529  19.665  13.684  10.971
74322W        W38530  33.997  10.153   3.759
74323W        W38531   4.314   6.265  14.317
74324W        W38532  14.783   4.364  11.976
74325W        W38533  23.624  27.045  14.941
74326W        W38534  32.636  37.891   1.851
74327W        W38535  20.207  23.985   3.720
74328W        W38536   4.375   5.721  11.897
74329W        W38537  14.637   7.815  10.635
74330W        W38538  12.717   1.954  10.890
74331W        W38539  11.766  14.672  11.097
74332W        W38540  19.043  32.892  11.115
74333W        W38541  12.287  28.515   4.154
74334W        W38542   9.184  37.367   1.430
74335W        W38543  44.269  32.623  12.938
74336W        W38544  38.481  25.527  12.476
74337W        W38545  35.483  12.298  11.432
74338W        W38546  37.985  18.161  11.547
74339W        W38547   4.944   9.370   4.123
74340W        W38548  44.825  23.730  13.313
74341W        W38549   1.942  37.946   3.358
74342W        W38550  10.639  27.057  14.027
74343W        W38551  12.820  18.628   1.706
74344W        W38552  32.449  19.741  12.903
74345W        W38553   3.357  30.449  14.398
74346W        W38554  19.692  40.854   0.460
74347W        W38555  23.643  10.228   4.719
74348W        W38556   9.174  19.609  14.965
74349W        W38557  36.918  12.254   3.689
74350W        W38558  35.047   5.747  11.579
74351W        W38559  22.705  30.150   2.884
74352W        W38560  22.596  30.972  12.844
74353W        W38561  40.020  43.972   3.802
74354W        W38562  31.966  42.014  14.023
74355W        W38563  18.550  30.574  10.894
74356W        W38564  16.107  30.074  12.087
74357W        W38565  32.124  29.060  13.916
74358W        W38566   2.390  41.890   0.252
74359W        W38567  43.407  42.817  14.803
74360W        W38568  24.108  17.137   0.962
74361W        W38569  22.999  21.714  11.447
74362W        W38570  13.142  37.360   2.799
74363W        W38571   4.222  11.294  12.409
74364W        W38572  13.605  30.994  13.036
74365W        W38573  12.237  37.401   0.391
74366W        W38574   3.401  44.759  10.977
74367W        W38575  34.373  30.649   3.845
74368W        W38576  12.308  28.039  13.508
74369W        W38577  10.867   0.265  14.993
74370W        W38578  16.233  23.138  12.925
74371W        W38579  26.578  39.024   5.296
74372W        W38580  43.462  26.954   1.249
74373W        W38581  40.322   6.372   2.815
74374W        W38582  31.409   2.381   4.730
74375W        W38583  21.077  29.108   3.349
74376W        W38584  29.031  28.016   1.384
74377W        W38585  11.298  37.996   1.909
74378W        W38586  21.257  26.486  14.413
74379W        W38587  43.322  24.064   2.700
74380W        W38588   8.274  37.525  14.442
74381W        W38589  19.535  42.011   0.467
74382W        W38590  20.742  42.511   1.365
74383W        W38591  10.635  12.168  14.883
74384W        W38592  37.946  39.057   3.238
74385W        W38593   6.276  42.283  11.083
74386W        W38594   8.234  37.460   2.408
74387W        W38595  31.136   7.231   1.842
74388W        W38596  36.428  22.092   3.258
74389W        W38597  30.054   0.790  10.492
74390W        W38598   9.170  12.646  13.501
74391W        W38599   8.768   7.906  10.534
74392W        W38600  44.989  44.948  13.442
74393W        W38601  13.262  31.600  14.876
74394W        W38602   4.399  22.102  14.845
74395W        W38603  17.228  35.443  14.374
74396W        W38604  35.986  29.561   1.708
74397W        W38605   8.311  10.295   2.397
74398W        W38606  16.660   0.764   3.668
74399W        W38607   5.849  39.482   4.611
74400W        W38608  40.818   4.748  13.920
74401W        W38609   6.229   3.872  10.978
74402W        W38610  22.594  38.462  11.459
74403W        W38611  39.554  33.038  10.527
74404W        W38612  41.382  15.684  13.385
74405W        W38613   2.422  33.931   3.186
74406W        W38614  27.681  23.231  14.805
74407W        W38615  17.605  13.706  11.409
74408W        W38616  36.054   5.282   4.115
74409W        W38617  25.128  22.209   1.269
74410W        W38618  40.839  40.000   4.295
74411W        W38619  12.338  26.590  14.289
74412W        W38620  26.663   6.811  12.525
74413W        W38621   4.931  38.446   3.284
74414W        W38622  31.545  27.026   1.431
74415W        W38623   9.320  44.268  14.407
74416W        W38624  12.690   9.657  13.863
74417W        W38625  17.712   9.388   4.254
74418W        W38626  20.095  27.489   2.347
74419W        W38627   1.362   9.741   0.893
74420W        W38628   0.966   6.682  12.573
74421W        W38629  40.376   4.263   4.188
74422W        W38630  23.688  21.199   1.249
74423W        W38631  30.126   5.895   0.440
74424W        W38632  42.030  40.966  14.879
74425W        W38633   5.263   6.206  12.828
74426W        W38634  30.908  42.970   0.320
74427W        W38635  43.813   5.902  11.018
74428W        W38636  39.981  43.313   4.748
74429W        W38637  25.576   7.785  14.988
74430W        W38638  30.078  31.587  10.903
74431W        W38639  31.570  32.501   2.759
74432W        W38640  20.056  17.741   1.332
74433W        W38641   1.308  39.879   4.698
74434W        W38642   7.299   3.228   0.343
74435W        W38643  37.463   3.246  12.092
74436W        W38644  21.187   0.981   0.282
74437W        W38645   2.803  22.724   2.723
74438W        W38646  16.796  16.318   2.787
74439W        W38647  12.250  26.132   1.370
74440W        W38648  24.602  37.028   2.759
74441W        W38649  25.977  14.834  13.063
74442W        W38650  28.123  42.415  11.410
74443W        W38651  24.002  35.103  13.387
74444W        W38652  28.179  12.688  10.926
74445W        W38653   8.672  29.609  12.960
74446W        W38654  28.119  10.857  12.872
74447W        W38655  35.519   9.690   1.311
74448W        W38656  40.852  18.585   3.223
74449W        W38657  13.633   1.873  14.904
74450W        W38658  37.850  27.058  12.359
74451W        W38659  20.120  25.666  11.482
74452W        W38660  28.114  21.680  14.433
74453W        W38661   8.184  16.157  14.028
74454W        W38662  33.926  25.177   1.416
74455W        W38663  16.653  14.114   3.724
74456W        W38664  35.421  41.441   1.277
74457W        W38665   3.731  43.374   4.645
74458W        W38666  41.937  34.595  12.913
74459W        W38667  11.694  13.205  11.524
74460W        W38668  32.967  35.556   4.238
74461W        W38669  24.653  39.329   4.766
74462W        W38670  34.586  32.937   1.359
74463W        W38671   3.793  19.039   0.270
74464W        W38672  13.650   6.409   1.800
74465W        W38673  34.948   8.670   0.759
74466W        W38674  13.651  42.979   3.789
74467W        W38675  28.440  30.087   0.298
74468W        W38676  43.859  34.479  11.495
74469W        W38677  44.279  20.274   4.729
74470W        W38678  39.491  10.282  13.501
74471W        W38679  20.699  43.435  13.344
74472W        W38680   7.310   2.907   4.341
74473W        W38681  29.018  28.487  12.945
74474W        W38682  18.170  31.960   0.855
74475W        W38683   3.847   7.385  13.058
74476W        W38684   0.419  38.569   3.644
74477W        W38685  42.431  22.118  10.483
74478W        W38686  38.396  13.798  11.488
74479W        W38687  24.982  27.094  12.433
74480W        W38688   1.880  22.190   1.412
74481W        W38689   1.413   9.384   2.687
74482W        W38690  24.083  23.696   2.339
74483W        W38691  43.842   6.209   4.831
74484W        W38692  43.983  31.041  13.920
74485W        W38693  33.584  37.998  14.881
74486W        W38694   3.302  11.169   0.913
74487W        W38695  28.051  32.123  12.887
74488W        W38696  37.385  14.640  10.631
74489W        W38697  23.536   8.888   2.734
74490W        W38698  34.517  12.847   0.276
74491W        W38699  13.650  42.011   0.430
74492W        W38700  14.240  15.774  11.478
74493W        W38701  15.116  39.911  14.449
74494W        W38702  39.445  35.435  14.474
74495W        W38703  33.502   8.899   3.387
74496W        W38704   4.713   1.357   0.851
74497W        W38705  31.056  18.627   3.285
74498W        W38706  39.902   6.376   3.283
74499W        W38707  11.332  23.601  11.596
74500W        W38708  22.095   0.856   1.322
74501W        W38709   2.900  17.735   0.266
74502W        W38710  14.295  34.440   3.337
74503W        W38711  26.695  43.351  11.884
74504W        W38712  31.129  30.075  14.800
74505W        W38713  37.998  30.536   4.616
74506W        W38714   1.348  35.579  11.407
74507W        W38715  27.515  17.731  12.859
74508W        W38716  42.365  17.715  10.135
74509W        W38717  16.318  24.503   3.780
74510W        W38718  35.039  28.091  10.902
74511W        W38719  16.672  20.259  10.462
74512W        W38720  20.185  14.301   0.336
74513W        W38721  10.838  12.146   0.800
74514W        W38722  10.718  32.509  13.994
74515W        W38723  41.998  18.634  11.463
74516W        W38724   3.323  14.677   3.765
74517W        W38725  10.758  42.331  10.998
74518W        W38726   0.285  12.641   2.765
74519W        W38727  34.917   2.917  13.361
74520W        W38728  19.091  42.381  11.084
74521W        W38729   2.905  39.004  14.939
74522W        W38730  42.898  22.181   2.321
74523W        W38731  22.534   4.371   0.455
74524W        W38732  15.595  10.190   2.739
74525W        W38733  36.408   3.771   2.394
74526W        W38734  25.008   5.278   2.704
74527W        W38735  19.220  24.516  14.451
74528W        W38736  27.455  13.243  11.909
74529W        W38737  29.562  34.583   2.278
74530W        W38738  15.252  13.606  11.087
74531W        W38739  39.448   2.449   0.806
74532W        W38740  34.582  16.593  10.909
74533W        W38741  28.054  25.092  10.971
74534W        W38742  13.279  38.890   1.268
74535W        W38743   6.252   2.236  10.508
74536W        W38744  21.226  17.698  13.350
74537W        W38745  18.731  30.593  12.363
74538W        W38746  35.480  11.798   4.344
74539W        W38747  17.092  24.523   3.682
74540W        W38748  22.577  21.153  14.424
74541W        W38749  38.426   5.278  11.936
74542W        W38750  16.152   0.390  10.997
74543W        W38751   6.796  11.705   0.380
74544W        W38752  13.802  17.759  13.869
74545W        W38753  30.630  44.356  14.992
74546W        W38754  27.004  11.741   4.284
74547W        W38755  11.817  23.210   4.691
74548W        W38756  14.672  36.907   2.182
74549W        W38757  35.039  20.107   2.883
74550W        W38758  40.336  14.823  14.413
74551W        W38759  33.520  23.662   2.341
74552W        W38760  31.904  16.637  12.997
74553W        W38761  22.709   3.923  14.423
74554W        W38762  21.246  33.381  13.842
74555W        W38763   4.440  31.442   0.962
74556W        W38764  10.323  44.757   2.835
74557W        W38765  20.740  30.604  10.574
74558W        W38766  17.683  28.610   4.794
74559W        W38767  25.566   4.857  13.952
74560W        W38768   3.413  16.199  12.080
74561W        W38769  32.500  35.982   0.764
74562W        W38770  29.621  22.107   2.278
74563W        W38771  33.618  16.678   0.323
74564W        W38772  15.258  43.772  10.945
74565W        W38773  35.043  34.476   4.797
74566W        W38774  23.132  38.836  10.481
74567W        W38775   8.394  42.988  11.058
74568W        W38776  42.776  28.636   2.792
74569W        W38777  26.031  38.063  11.102
74570W        W38778  30.951  17.071   9.533
74571W        W38779  30.155  32.396  14.460
74572W        W38780  29.088  39.324  13.354
74573W        W38781  44.414  36.966  12.075
74574W        W38782  29.016  26.687   1.788
74575W        W38783  12.209  30.933   3.309
74576W        W38784  33.066  16.196  10.968
74577W        W38785  22.542   2.255  13.371
74578W        W38786  29.559   5.723  14.954
74579W        W38787  14.182  31.563   0.857
74580W        W38788  42.809  22.633   1.355
74581W        W38789  36.480  17.237  12.851
74582W        W38790  15.579  23.073   2.794
74583W        W38791  31.920   6.808   4.835
74584W        W38792  12.244  29.465  13.905
74585W        W38793  43.904   4.835  12.446
74586W        W38794  26.463   4.279  11.441
74587W        W38795  33.560  41.836   0.909
74588W        W38796  18.734  12.145   1.427
74589W        W38797   8.330   8.784   1.718
74590W        W38798  37.554  14.113  14.937
74591W        W38799  30.433   0.396  11.557
74592W        W38800   0.837  24.041   1.266
74593W        W38801  34.373  12.647   2.211
74594W        W38802  37.379  44.790   3.697
74595W        W38803  35.024   4.312  11.029
74596W        W38804  24.664  28.597  11.552
74597W        W38805  11.318  43.349   1.353
74598W        W38806  37.010   4.805  13.010
74599W        W38807  43.881   1.298   3.279
74600W        W38808  21.156  33.085   1.424
74601W        W38809  12.776  24.977  12.484
74602W        W38810  36.541   5.411  10.966
74603W        W38811  13.838  21.236   4.317
74604W        W38812  29.611  26.186   2.771
74605W        W38813  18.243   0.319   2.733
74606W        W38814  24.628  18.079   4.287
74607W        W38815   8.406  19.164   1.214
74608W        W38816  31.041  18.067  10.524
74609W        W38817  41.537   2.722   0.926
74610W        W38818  43.401  11.182  12.052
74611W        W38819  43.008  22.045  11.998
74612W        W38820   8.841  38.564   9.956
74613W        W38821  23.001  34.536   2.347
74614W        W38822   5.335  38.348   0.835
74615W        W38823  16.084   2.361  12.953
74616W        W38824  13.680   7.761  11.611
74617W        W38825  40.495  42.027  11.053
74618W        W38826  38.959  13.254   2.350
74619W        W38827   9.664   9.858  14.960
74620W        W38828   1.881  10.832   0.446
74621W        W38829  20.236  41.918  14.956
74622W        W38830  32.434   2.365   1.248
74623W        W38831  19.691  13.822  14.944
74624W        W38832  28.474  38.370   3.346
74625W        W38833  33.108  42.989  14.931
74626W        W38834  42.895   2.366  13.805
74627W        W38835  14.173  36.569   0.466
74628W        W38836  37.392  23.086  14.483
74629W        W38837   2.917  30.969  13.321
74630W        W38838   5.879  27.466  10.493
74631W        W38839  39.892  18.184   1.702
74632W        W38840  19.548  39.813   4.683
74633W        W38841  42.390  43.312  11.503
74634W        W38842  41.793  12.757   3.235
74635W        W38843  12.119  16.716   1.345
74636W        W38844   6.678   1.812   1.899
74637W        W38845  28.002  22.201   0.471
74638W        W38846  34.394  18.618   0.308
74639W        W38847   6.829  35.855   2.216
74640W        W38848  43.504   3.220  11.380
74641W        W38849   2.795  37.900   4.245
74642W        W38850  28.523  24.570  14.925
74643W        W38851  12.831   9.858   4.114
74644W        W38852  44.791  14.105   5.145
74645W        W38853   8.365  33.461  14.491
74646W        W38854  17.072  18.262   3.834
74647W        W38855  31.595  33.896   1.890
74648W        W38856   1.887  11.717   1.310
74649W        W38857  28.051  35.518  12.529
74650W        W38858  15.738  25.688   1.848
74651W        W38859   7.888   0.436   4.649
74652W        W38860  31.022  22.622  12.962
74653W        W38861  35.057  25.084   4.184
74654W        W38862  10.861  15.191  10.437
74655W        W38863  14.225  10.257  12.860
74656W        W38864   2.931  28.588   0.444
74657W        W38865  25.561  37.396   4.157
74658W        W38866   0.301  19.679   0.471
74659W        W38867  15.630  26.667  12.393
74660W        W38868  11.639  35.109   1.444
74661W        W38869  20.524   2.340  13.871
74662W        W38870  10.841  41.377  11.120
74663W        W38871   6.419   7.854   3.298
74664W        W38872  27.646  32.050   3.293
74665W        W38873  43.769  23.016  14.835
74666W        W38874   5.793  17.280   2.685
74667W        W38875   5.692  15.796   4.345
74668W        W38876  17.234  26.071   0.358
74669W        W38877  16.793  25.610   3.705
74670W        W38878   8.769  43.373  11.432
74671W        W38879   0.855  32.090  11.540
74672W        W38880  40.451   1.314   0.469
74673W        W38881   8.728  19.283  13.440
74674W        W38882  37.350  28.017   1.761
74675W        W38883  37.358  39.829   0.845
74676W        W38884  39.455  39.354   4.192
74677W        W38885  40.393  23.037  12.416
74678W        W38886   2.851  42.303  11.973
74679W        W38887   8.866  28.108  14.029
74680W        W38888   1.263  17.069  13.863
74681W        W38889  10.746  42.518   1.864
74682W        W38890  19.248  12.245  14.988
74683W        W38891  10.730   8.189  14.832
74684W        W38892  25.041  31.011  14.282
74685W        W38893  35.535  12.636   3.776
74686W        W38894  40.852  42.805  12.083
74687W        W38895  17.600  41.364   2.828
74688W        W38896  33.083  14.136   0.448
74689W        W38897  24.584  44.886   2.339
74690W        W38898   1.401  26.067  12.930
74691W        W38899  30.953   6.892  10.957
74692W        W38900   9.742  43.509  13.904
74693W        W38901  23.584  20.631   0.796
74694W        W38902  18.619  23.228  12.846
74695W        W38903  30.446  32.632  11.469
74696W        W38904  31.078  20.244  14.419
74697W        W38905   3.401  33.122  14.446
74698W        W38906  10.767   4.240   4.132
74699W        W38907   6.195   4.304   4.793
74700W        W38908  25.639   6.214  10.128
74701W        W38909  39.990   3.390   3.714
74702W        W38910   3.439  21.064  11.407
74703W        W38911   4.303  29.501   1.841
74704W        W38912   3.407  28.585   4.776
74705W        W38913  16.696  12.326  12.907
74706W        W38914  31.521  24.991  14.961
74707W        W38915  25.699  28.034   3.701
74708W        W38916   0.752  27.686   3.338
74709W        W38917  44.873  24.180  11.936
74710W        W38918   9.722  24.132   2.346
74711W        W38919  34.957   5.815  12.403
74712W        W38920  36.484  24.144   0.734
74713W        W38921  14.762   9.808   3.631
74714W        W38922  14.812  10.810   2.768
74715W        W38923  34.904  28.465  13.060
74716W        W38924   2.355  18.235   3.348
74717W        W38925   1.795  43.953  13.502
74718W        W38926  11.798  30.577   4.263
74719W        W38927  12.329  40.507  13.487
74720W        W38928  26.580   2.471   2.730
74721W        W38929  15.252  11.223  10.892
74722W        W38930  16.705   4.281  10.904
74723W        W38931  18.676   2.914   3.253
74724W        W38932  38.871  33.029  14.389
74725W        W38933   4.914  38.950  11.451
74726W        W38934  36.851   7.250  10.613
74727W        W38935  14.200   2.352  11.594
74728W        W38936  40.530  40.937  13.857
74729W        W38937  33.039  10.236  14.481
74730W        W38938  35.574  24.102  11.881
74731W        W38939  40.937   9.177   0.265
74732W        W38940  41.517   1.908  10.100
74733W        W38941  36.062  16.688   4.353
74734W        W38942  14.168  40.921  13.869
74735W        W38943  18.697  33.951  14.494
74736W        W38944   9.861  11.740  13.047
74737W        W38945  19.666  23.016  11.612
74738W        W38946  16.635   9.173  10.556
74739W        W38947  36.580   5.797  10.540
74740W        W38948  10.178  27.045   0.371
74741W        W38949   2.767  37.870  12.420
74742W        W38950  43.020  23.625   2.334
74743W        W38951  15.155  11.240   4.690
74744W        W38952  43.409  18.575   3.863
74745W        W38953  40.401  40.379   3.163
74746W        W38954  20.745  41.361  14.787
74747W        W38955  24.974  17.140   3.669
74748W        W38956  13.297  12.665  11.547
74749W        W38957   3.791  32.569   2.325
74750W        W38958   0.456  11.855  11.964
74751W        W38959  10.298  32.060  10.408
74752W        W38960   4.706  11.633  13.834
74753W        W38961   4.901   4.430  13.014
74754W        W38962   7.749  30.060  11.940
74755W        W38963  22.181   6.261   1.291
74756W        W38964   2.363  26.039  10.558
74757W        W38965  33.939  26.478   1.886
74758W        W38966  19.731  39.870  13.903
74759W        W38967   8.298  36.437  14.468
74760W        W38968  19.741   0.374   4.272
74761W        W38969  10.206   2.811  13.469
74762W        W38970  27.013  22.582  11.998
74763W        W38971  17.566   0.359   2.760
74764W        W38972  37.856  29.494  14.481
74765W        W38973   4.862  24.161   3.868
74766W        W38974  34.560   7.287   0.275
74767W        W38975  42.800   0.465   0.830
74768W        W38976  21.661  20.663   2.738
74769W        W38977  30.600  25.996  13.533
74770W        W38978  30.135  40.474  13.395
74771W        W38979  18.055  42.778  12.343
74772W        W38980  32.906   7.415   4.198
74773W        W38981  10.368  37.017  14.406
74774W        W38982   8.781  42.926  10.894
74775W        W38983   2.783  38.075  10.545
74776W        W38984  44.854  21.235   0.795
74777W        W38985  12.125  26.555  11.604
74778W        W38986  26.540  39.375  13.344
74779W        W38987  40.460  12.173  13.024
74780W        W38988   7.408  36.390  11.377
74781W        W38989   9.288   2.782   0.397
74782W        W38990  14.142  18.136  10.908
74783W        W38991  33.543   8.711   4.341
74784W        W38992   5.703  31.948   1.779
74785W        W38993  13.351   2.842  10.892
74786W        W38994  23.058  24.065   4.146
74787W        W38995   1.809  24.222   5.089
74788W        W38996  25.573  33.910  14.822
74789W        W38997  21.656  27.623   1.315
74790W        W38998  12.140  31.466   3.866
74791W        W38999  13.148   4.809  10.578
74792W        W39000  21.582  36.931   4.175
74793W        W39001  28.596  24.215   3.206
74794W        W39002  24.705  24.570  14.363
74795W        W39003  11.246  42.364  12.399
74796W        W39004  17.659  30.022  14.486
74797W        W39005  39.314  15.819   1.924
74798W        W39006  30.035  32.029   5.164
74799W        W39007  35.001  21.148   4.133
74800W        W39008  28.086  32.498   2.787
74801W        W39009   5.807   8.751  11.005
74802W        W39010  36.420   0.952   4.667
74803W        W39011  21.587  12.682  10.890
74804W        W39012  34.984  18.671  12.569
74805W        W39013   8.812  35.486  10.476
74806W        W39014  43.928  34.989   3.181
74807W        W39015   6.363  23.053   2.679
74808W        W39016  40.516  43.929  14.897
74809W        W39017  24.639  37.873  14.473
74810W        W39018   2.324  26.582  12.089
74811W        W39019  26.014  13.705  13.810
74812W        W39020  17.115  41.342  13.476
74813W        W39021  35.440   1.802  12.524
74814W        W39022   6.829  38.873  14.898
74815W        W39023  10.187  40.834  12.378
74816W        W39024   9.832  22.037  11.121
74817W        W39025  13.174  17.778  11.000
74818W        W39026  21.105  14.273  13.020
74819W        W39027  41.490  21.223   3.776
74820W        W39028   6.890   8.394  12.533
74821W        W39029  39.040   5.208   0.263
74822W        W39030  41.536  25.981   0.418
74823W        W39031  39.840  35.443   0.300
74824W        W39032  43.469   3.852  14.931
74825W        W39033  40.885  31.526  13.958
74826W        W39034  12.650  10.652   3.729
74827W        W39035   1.943  28.996  13.318
74828W        W39036  30.479  37.426   2.671
74829W        W39037   9.394   5.880  13.507
74830W        W39038  10.677   4.836   0.353
74831W        W39039  35.094  33.048   2.282
74832W        W39040  23.029   5.762   1.786
74833W        W39041  24.094  41.849  13.993
74834W        W39042  42.358  22.031  13.466
74835W        W39043   0.412  31.121   2.411
74836W        W39044  17.151  35.060  11.587
74837W        W39045  22.184  16.267  13.385
74838W        W39046  43.330  28.456   4.778
74839W        W39047   3.796  39.969  14.796
74840W        W39048   1.953   8.244   4.147
74841W        W39049  20.768  25.616  10.507
74842W        W39050   5.296  42.793   0.279
74843W        W39051   9.166  12.806  11.386
74844W        W39052   3.851  15.244   2.201
74845W        W39053  21.724  21.073   0.816
74846W        W39054  15.791  22.232   2.683
74847W        W39055  11.702  10.345  11.409
74848W        W39056  21.170   1.451  10.934
74849W        W39057  37.836   8.848   0.789
74850W        W39058  11.211  31.151  12.078
74851W        W39059  22.179  28.552  11.061
74852W        W39060   1.247  28.969  13.831
74853W        W39061  40.499  11.659   0.750
74854W        W39062  37.503   0.984   3.681
74855W        W39063   1.262  17.561  10.543
74856W        W39064  30.532  15.818  13.314
74857W        W39065  12.302   0.914  14.450
74858W        W39066  42.466  37.340   1.729
74859W        W39067  38.914  15.312   0.874
74860W        W39068   0.478  21.730   4.678
74861W        W39069  29.013  27.457   1.304
74862W        W39070  39.465   4.445   2.246
74863W        W39071  32.391  44.449  13.853
74864W        W39072  25.524  13.665   1.757
74865W        W39073  18.698  28.465  13.401
74866W        W39074  33.445   8.334   1.307
74867W        W39075  43.431  21.054  10.408
74868W        W39076  22.128  25.120  13.429
74869W        W39077   7.334  29.566  13.863
74870W        W39078  13.214  22.530   4.305
74871W        W39079   1.862  18.569   2.192
74872W        W39080  20.591  39.542   4.350
74873W        W39081  23.489  16.271   4.700
74874W        W39082  38.361  23.599   0.791
74875W        W39083  32.520   6.752  12.395
74876W        W39084  11.694  12.353  12.073
74877W        W39085  31.997   4.717   3.243
74878W        W39086   2.446  32.476  10.058
74879W        W39087  25.609  15.683  14.768
74880W        W39088  20.241  20.157   3.372
74881W        W39089  21.242  26.645  11.905
74882W        W39090  35.425   7.672   3.821
74883W        W39091  40.511  33.548   1.226
74884W        W39092  13.317  12.778  12.855
74885W        W39093  26.056   7.756  12.049
74886W        W39094  32.975  42.381  13.448
74887W        W39095  43.509  34.109  12.393
74888W        W39096  10.817  10.845   0.453
74889W        W39097  34.887  13.783  12.943
74890W        W39098  27.141  14.693   2.356
74891W        W39099  20.128  22.071  11.512
74892W        W39100   4.718  44.358   4.616
74893W        W39101  38.487   4.840  11.501
74894W        W39102  38.066  36.973   1.931
74895W        W39103  32.546  25.978  11.603
74896W        W39104  22.700  11.300  10.561
74897W        W39105  20.580   0.898   3.813
74898W        W39106  17.712  40.910   3.712
74899W        W39107  18.212   9.830  14.351
74900W        W39108  40.952   9.800  10.547
74901W        W39109  13.225  12.727  14.336
74902W        W39110  29.453  42.022  14.782
74903W        W39111   1.428  18.639   4.695
74904W        W39112  14.232  32.913   3.863
74905W        W39113  27.671  29.455  11.038
74906W        W39114  11.254  33.069   2.356
74907W        W39115   1.920  42.407  11.117
74908W        W39116  35.084  28.043  10.115
74909W        W39117  20.761  11.865   0.461
74910W        W39118  19.718   1.743   2.751
74911W        W39119  26.539  27.640  11.575
74912W        W39120  20.745  44.300   2.699
74913W        W39121  31.483  42.379   4.644
74914W        W39122  15.225  29.938   3.320
74915W        W39123  13.783  17.794   4.243
74916W        W39124  27.489   8.845  13.522
74917W        W39125  33.410  19.165  13.399
74918W        W39126  19.090  39.922  13.472
74919W        W39127   7.376  30.076  12.580
74920W        W39128  18.634  38.550   3.801
74921W        W39129  20.119   9.786  11.883
74922W        W39130  14.141   6.710  12.887
74923W        W39131  32.099  41.372   0.378
74924W        W39132   5.356  18.161  14.389
74925W        W39133   0.963  43.836   4.244
74926W        W39134  42.334  31.084   3.718
74927W        W39135  20.172  12.333  12.842
74928W        W39136  16.215  38.442  12.383
74929W        W39137  33.048  18.654  14.294
74930W        W39138  40.327  25.116  10.504
74931W        W39139  20.183   7.299  12.052
74932W        W39140   5.846   5.693   1.719
74933W        W39141  30.943   0.853   2.836
74934W        W39142  23.147  38.936  11.066
74935W        W39143  29.119  42.013  14.013
74936W        W39144  30.484  21.727  14.439
74937W        W39145  41.396  29.429   0.903
74938W        W39146  13.167   2.306  11.078
74939W        W39147  19.677  11.187  14.289
74940W        W39148  30.136  13.190   3.233
74941W        W39149  18.679   2.965   0.298
74942W        W39150   6.813  43.799   3.710
74943W        W39151  25.637  24.675  11.864
74944W        W39152  12.208  13.672   9.964
74945W        W39153  18.217   7.270   2.668
74946W        W39154  23.235  27.021  12.984
74947W        W39155  39.809  17.145  11.875
74948W        W39156  19.067  31.496   3.163
74949W        W39157  26.701  39.035  13.872
74950W        W39158  28.646   9.730   3.301
74951W        W39159  22.155  18.207   5.233
74952W        W39160  25.974  17.573   2.775
74953W        W39161  28.945  17.680  10.495
74954W        W39162   0.818  38.004   5.215
74955W        W39163   6.387  12.694  10.033
74956W        W39164  34.605  28.125  14.871
74957W        W39165  13.251  11.147   4.783
74958W        W39166  16.163  26.643   1.776
74959W        W39167  36.968  17.658  14.923
74960W        W39168   4.443  41.006  13.501
74961W        W39169  36.982  37.953  14.397
74962W        W39170  26.621   8.896  11.535
74963W        W39171  30.488   2.271   2.338
74964W        W39172  22.565  17.199  11.050
74965W        W39173  13.202   9.656   0.318
74966W        W39174  16.634  38.061   0.877
74967W        W39175  18.296  21.721   1.313
74968W        W39176  28.014  25.613  11.024
74969W        W39177  23.017  21.113  11.027
74970W        W39178  42.867  13.167  10.901
74971W        W39179  22.568  37.975  13.794
74972W        W39180  39.930  10.676  14.972
74973W        W39181   5.381  27.555  12.971
74974W        W39182   8.252  24.666  14.497
74975W        W39183   7.741  41.505  10.904
74976W        W39184  25.706  27.132  11.588
74977W        W39185   6.689  41.921  12.902
74978W        W39186  15.645  40.320  14.319
74979W        W39187  42.965  16.254  12.006
74980W        W39188  36.844  36.440  11.019
74981W        W39189   4.794  26.987  12.825
74982W        W39190  22.651  31.429  12.992
74983W        W39191  35.105  43.457   2.289
74984W        W39192   5.892  11.129   4.707
74985W        W39193  42.394  28.551  14.979
74986W        W39194  17.274   2.941   4.277
74987W        W39195  10.827   2.806   4.783
74988W        W39196  38.338  41.935   2.203
74989W        W39197  10.294   0.934   1.394
74990W        W39198   0.889   3.277   4.767
74991W        W39199  15.240   9.360   4.165
74992W        W39200  42.946  44.468   3.321
74993W        W39201  30.137  14.219  11.954
74994W        W39202   9.328   7.687   4.757
74995W        W39203  39.364  13.607   0.426
74996W        W39204  15.174  12.713   1.382
74997W        W39205   5.405  15.678   4.291
74998W        W39206   2.965  43.360  14.285
74999W        W39207  24.722  42.032  12.040
75000W        W39208  24.656  13.790  11.571
75001W        W39209  37.986  14.662   0.913
75002W        W39210  17.747   6.294   3.207
75003W        W39211   9.166   7.837   2.696
75004W        W39212  38.559  41.929   1.920
75005W        W39213  37.526  19.745  11.992
75006W        W39214  24.190  27.044   1.451
75007W        W39215   1.896  26.034   1.443
75008W        W39216  20.112   4.291  14.032
75009W        W39217   3.849  39.480   0.266
75010W        W39218  27.047  24.046  12.095
75011W        W39219  19.576  22.645  11.052
75012W        W39220  31.549  28.942   3.176
75013W        W39221  15.802  24.569   5.129
75014W        W39222  19.690  11.329  11.593
75015W        W39223   2.892  27.109   4.822
75016W        W39224  10.266  26.592   5.158
75017W        W39225  28.050  31.625   4.676
75018W        W39226  12.667  14.100   0.365
75019W        W39227  22.151  19.755   0.951
75020W        W39228  29.616   2.823   3.730
75021W        W39229  32.991  14.331  14.466
75022W        W39230  16.244  40.304  14.316
75023W        W39231  27.006  25.566   1.725
75024W        W39232  12.208  38.998   4.117
75025W        W39233   7.887  36.933  11.497
75026W        W39234  14.259  21.137   4.163
75027W        W39235  40.820   0.395   2.201
75028W        W39236   6.829  15.087   4.277
75029W        W39237  37.449  10.369  12.032
75030W        W39238  26.992  31.585   3.637
75031W        W39239   6.314  14.759  10.618
75032W        W39240  21.752  41.310   0.779
75033W        W39241  27.001  23.725   4.249
75034W        W39242  26.546  17.224   3.795
75035W        W39243  37.563  23.994   4.194
75036W        W39244  35.389  40.449  13.518
75037W        W39245   4.817   4.419   4.287
75038W        W39246   7.287   5.843  13.936
75039W        W39247  20.532   2.307   3.356
75040W        W39248  42.430   2.935   1.283
75041W        W39249  23.024  37.004  12.070
75042W        W39250  29.649  14.095  11.030
75043W        W39251  33.981   5.930  13.935
75044W        W39252  37.986  35.552   1.747
75045W        W39253  38.042   5.806   2.343
75046W        W39254  17.624  38.910   3.773
75047W        W39255  16.193  13.736  11.079
75048W        W39256  20.139  33.009   1.305
75049W        W39257  20.087   4.825  11.587
75050W        W39258  22.621   6.836  10.979
75051W        W39259  17.573  35.441   3.746
75052W        W39260  24.008  16.706   0.807
75053W        W39261  13.603  23.620  14.822
75054W        W39262  30.916  11.244  13.385
75055W        W39263  12.263  24.549  14.999
75056W        W39264   0.395   0.919   9.583
75057W        W39265   1.418  15.769  13.350
75058W        W39266   6.409  39.379   3.195
75059W        W39267  29.478  28.455  11.856
75060W        W39268   1.807   7.184   1.448
75061W        W39269   1.350  20.589  11.537
75062W        W39270  13.286   3.360   2.690
75063W        W39271  24.516  22.062  12.564
75064W        W39272   3.838  25.560   4.746
75065W        W39273  40.975   8.837  12.371
75066W        W39274   9.663   0.760   1.449
75067W        W39275  41.303  40.417  13.867
75068W        W39276   7.687  20.112   4.709
75069W        W39277  23.671  20.217  12.045
75070W        W39278  29.067   9.816  11.528
75071W        W39279  15.195   9.723   2.851
75072W        W39280  25.699  16.107  12.047
75073W        W39281  29.142   2.758   2.337
75074W        W39282  42.383  37.892  14.310
75075W        W39283  32.506  31.574   0.464
75076W        W39284  27.047  35.447   3.367
75077W        W39285  11.293   8.283  12.374
75078W        W39286  40.359  17.736  14.510
75079W        W39287   5.840  24.976  13.997
75080W        W39288  38.852  23.550   3.639
75081W        W39289  14.158   1.734  10.009
75082W        W39290  31.015  19.755  13.021
75083W        W39291   3.837  16.173  14.446
75084W        W39292   9.823  41.828   2.874
75085W        W39293  35.419  23.643   1.215
75086W        W39294  41.915  11.174   3.385
75087W        W39295  11.364  22.996  14.838
75088W        W39296  32.995   5.762  12.351
75089W        W39297   0.466  41.039  12.991
75090W        W39298  20.252  36.476  14.804
75091W        W39299  13.196   4.248  11.108
75092W        W39300  41.399  10.679   2.665
75093W        W39301  40.961  11.348   3.320
75094W        W39302   5.758  41.292  11.423
75095W        W39303  34.406  25.677  11.057
75096W        W39304   5.910  24.028  10.527
75097W        W39305  26.623  17.203  12.546
75098W        W39306  43.820   4.817   4.772
75099W        W39307  29.524  21.666  10.958
75100W        W39308   7.414   2.769  14.422
75101W        W39309  10.266   7.874   4.790
75102W        W39310  44.264  42.429   4.337
75103W        W39311  17.557  25.013  12.372
75104W        W39312   4.323  22.193  12.459
75105W        W39313  25.094  10.855   4.159
75106W        W39314  28.975  28.136  14.333
75107W        W39315  22.009  33.433   3.660
75108W        W39316  26.677  13.669   4.829
75109W        W39317   0.338   2.767  14.298
75110W        W39318  43.977  22.177  12.369
75111W        W39319  11.828  42.409   3.813
75112W        W39320   5.772  39.821  12.928
75113W        W39321  44.962  32.060  10.528
75114W        W39322  27.037  37.033   0.848
75115W        W39323  26.626  22.227   4.637
75116W        W39324  28.571  10.145  12.915
75117W        W39325  35.968  28.936  13.933
75118W        W39326  16.078  41.015  13.455
75119W        W39327  10.259  32.043   4.300
75120W        W39328   6.769  31.002   2.838
75121W        W39329   3.406  19.702   0.763
75122W        W39330  10.855   7.175  14.806
75123W        W39331  17.689   4.228   3.712
75124W        W39332  20.738  34.939  14.351
75125W        W39333  30.637  27.642  12.924
75126W        W39334  30.490  21.574  11.541
75127W        W39335  10.374  44.275  11.427
75128W        W39336  29.633   0.403   4.173
75129W        W39337   9.800  23.140   3.386
75130W        W39338  22.527  12.637  13.036
75131W        W39339   0.852  11.674  10.443
75132W        W39340  12.641  18.728   2.732
75133W        W39341   6.398  22.996  13.371
75134W        W39342  34.965  25.083  12.521
75135W        W39343   0.980   1.412   3.157
75136W        W39344  13.326  10.288   3.328
75137W        W39345  14.636   6.745   1.254
75138W        W39346  28.495   9.740   4.810
75139W        W39347  27.124  29.081   1.846
75140W        W39348  28.477  12.629   1.902
75141W        W39349  35.063   2.846   1.863
75142W        W39350  25.127   3.761   2.815
75143W        W39351   0.799  20.121  13.863
75144W        W39352  11.713  12.289   1.383
75145W        W39353  19.275   4.208   0.747
75146W        W39354  22.727  19.220   0.244
75147W        W39355   9.660  12.817   3.646
75148W        W39356  28.035  40.877  11.023
75149W        W39357  26.594  43.437   2.217
75150W        W39358   6.785  44.301  13.841
75151W        W39359   6.427  16.174  13.881
75152W        W39360   7.342  42.314   0.402
75153W        W39361  22.563   2.884   2.418
75154W        W39362  39.949   9.353  13.958
75155W        W39363  26.960  27.052   4.120
75156W        W39364  17.761   5.729  11.393
75157W        W39365   8.175   4.251  14.932
75158W        W39366  28.128  13.753  13.995
75159W        W39367  10.803  30.500  10.927
75160W        W39368  36.439  40.424   1.317
75161W        W39369  41.439  34.512  11.535
75162W        W39370  42.016  23.670   2.714
75163W        W39371  13.114   8.320  14.453
75164W        W39372  27.586  26.650   1.710
75165W        W39373  10.735  33.013   3.721
75166W        W39374  37.943  23.653   1.791
75167W        W39375   5.747  26.167   3.639
75168W        W39376  14.204  28.517  11.378
75169W        W39377  31.086  35.468   1.435
75170W        W39378  38.972  41.910   1.241
75171W        W39379  25.018   0.771  14.953
75172W        W39380  18.728  18.561   3.772
75173W        W39381  20.627  18.276  14.944
75174W        W39382   3.717   8.901  12.420
75175W        W39383   9.309   7.820   1.322
75176W        W39384  38.374  18.565   0.263
75177W        W39385  42.378  10.253   3.267
75178W        W39386  11.246  18.571  13.516
75179W        W39387  11.133  32.918  10.495
75180W        W39388  10.720  40.956  12.926
75181W        W39389  15.169  40.913   1.235
75182W        W39390  31.541  26.693   1.367
75183W        W39391  43.903   0.397  11.043
75184W        W39392  34.885   1.473   1.721
75185W        W39393  23.198  25.538  13.020
75186W        W39394   7.405  15.139  14.836
75187W        W39395   5.305   2.396  11.893
75188W        W39396  12.695   9.875  11.448
75189W        W39397  32.911  44.342   0.944
75190W        W39398  25.198  18.166   4.293
75191W        W39399  19.617  44.774  10.909
75192W        W39400  44.444  21.657  12.363
75193W        W39401  19.221  26.689  10.558
75194W        W39402  36.012  19.065   1.695
75195W        W39403  32.491  40.537  11.868
75196W        W39404  15.712  10.879  10.549
75197W        W39405  32.567  27.659  12.866
75198W        W39406  34.422  12.804  10.631
75199W        W39407  31.965  19.187   2.855
75200W        W39408   7.902  36.428   3.347
75201W        W39409  21.256   5.879  14.433
75202W        W39410  41.993   9.730  12.940
75203W        W39411  21.576  36.850  11.991
75204W        W39412  44.356  44.937   0.326
75205W        W39413  30.647  38.003  12.847
75206W        W39414   4.448  42.353  14.306
75207W        W39415   9.278  34.071  13.979
75208W        W39416  16.300  20.061   4.665
75209W        W39417  40.994  22.611  14.937
75210W        W39418  14.726  35.863  10.447
75211W        W39419  22.686  33.118   3.738
75212W        W39420  12.719  25.518   1.429
75213W        W39421  37.529   4.369  10.968
75214W        W39422   4.740  22.742   4.743
75215W        W39423  18.653  23.182   4.306
75216W        W39424  37.382  12.288   2.248
75217W        W39425  34.931  12.301  10.499
75218W        W39426  25.595  39.346  10.993
75219W        W39427  28.012  41.399   0.477
75220W        W39428   4.723  26.020   2.261
75221W        W39429  11.320  41.352  12.056
75222W        W39430   7.808  19.620   1.327
75223W        W39431  14.610  22.732   1.929
75224W        W39432  28.630  27.607  14.484
75225W        W39433  31.605  31.936   5.101
75226W        W39434  15.235  30.571   1.445
75227W        W39435  39.548  43.502   4.277
75228W        W39436  44.823  18.079  12.345
75229W        W39437  23.701  25.069  14.371
75230W        W39438  19.279  14.269  12.497
75231W        W39439  25.983  41.798   1.338
75232W        W39440   3.907  33.461  14.450
75233W        W39441  43.406  28.663   3.800
75234W        W39442  21.082  14.289  11.092
75235W        W39443  12.752  34.912  12.909
75236W        W39444  30.635  15.813  11.432
75237W        W39445   5.706  25.691  11.035
75238W        W39446   3.292  31.987   4.187
75239W        W39447   4.769   0.292  10.109
75240W        W39448  25.598  31.050   3.762
75241W        W39449   3.288  22.553   5.299
75242W        W39450  16.758  37.085  13.405
75243W        W39451  36.545  40.039   2.270
75244W        W39452  40.850  22.706   3.762
75245W        W39453  34.456  26.490   3.211
75246W        W39454  22.707   3.924   3.643
75247W        W39455  40.386  25.517  11.577
75248W        W39456  17.278  16.318  13.353
75249W        W39457  44.268  20.050   2.692
75250W        W39458  25.209  15.599   4.768
75251W        W39459  17.613   7.767  13.927
75252W        W39460  38.845  18.611   4.681
75253W        W39461   2.966   2.404  10.552
75254W        W39462  30.604   0.840   1.361
75255W        W39463  25.079  39.543   4.136
75256W        W39464   0.346  23.546  14.781
75257W        W39465   5.909   5.225   0.453
75258W        W39466   3.267  21.168   3.280
75259W        W39467   2.908  28.159   0.476
75260W        W39468  27.042  30.918  12.922
75261W        W39469  12.832  23.624  11.864
75262W        W39470  40.876  13.822  13.529
75263W        W39471   4.290   4.709   4.354
75264W        W39472  19.124  12.175   1.367
75265W        W39473  23.233   0.885  10.011
75266W        W39474  30.474   8.875  14.006
75267W        W39475  13.715  12.644  14.341
75268W        W39476  30.987  29.490  10.632
75269W        W39477  29.509  24.074   1.868
75270W        W39478   9.348  41.343  12.974
75271W        W39479  20.078   9.831   1.379
75272W        W39480  35.986  34.881  12.079
75273W        W39481  32.972  37.344   9.992
75274W        W39482  44.309  29.030   5.675
75275W        W39483  32.979  29.479  13.386
75276W        W39484  35.495   5.266   0.403
75277W        W39485  40.411   1.775  14.770
75278W        W39486  30.968  18.190  13.513
75279W        W39487  29.946  28.569   2.295
75280W        W39488  17.693  18.668   2.356
75281W        W39489  12.357  21.183   4.134
75282W        W39490  28.489  14.800  14.432
75283W        W39491  38.032   2.294   5.239
75284W        W39492  27.496  36.548   3.740
75285W        W39493   1.870   8.328   2.710
75286W        W39494  33.548  16.580   9.938
75287W        W39495  41.887   5.277   2.794
75288W        W39496   4.806  15.704   3.163
75289W        W39497  17.671  28.537  10.595
75290W        W39498  40.943  27.038   4.143
75291W        W39499  18.199  21.240   9.959
75292W        W39500  14.127   0.460   1.764
75293W        W39501  37.555  30.603  10.153
75294W        W39502  11.156   4.428   0.256
75295W        W39503  35.490   6.920   4.132
75296W        W39504  31.977  43.405  11.425
75297W        W39505  12.782  14.705   1.709
75298W        W39506  18.633  32.087   5.246
75299W        W39507   5.715  33.465   4.330
75300W        W39508  44.800  42.521   1.305
75301W        W39509  37.474   2.439  13.009
75302W        W39510  23.665  30.557  10.641
75303W        W39511  30.161   9.152   0.838
75304W        W39512  41.794   0.838   2.679
75305W        W39513  24.102  17.306  10.479
75306W        W39514   6.878   1.360  10.603
75307W        W39515   4.941  27.534   3.636
75308W        W39516  44.803  28.043   2.240
75309W        W39517   2.395  20.561   1.819
75310W        W39518   9.357   6.264   0.379
75311W        W39519   2.355  15.637   2.324
75312W        W39520  14.205  17.191   4.722
75313W        W39521   3.431   6.817   2.313
75314W        W39522  17.592   8.672   0.731
75315W        W39523  28.575  22.747  13.416
75316W        W39524  12.618  40.029  14.942
75317W        W39525  11.146  24.028   1.812
75318W        W39526  13.108  14.133   3.702
75319W        W39527  34.606  27.040  12.921
75320W        W39528   7.360  21.102   0.413
75321W        W39529  17.201  10.837   3.704
75322W        W39530   8.849   7.317  13.829
75323W        W39531  36.352  19.608  12.036
75324W        W39532  10.166  11.218  11.090
75325W        W39533  28.440  25.962   4.816
75326W        W39534  22.582  14.300  14.355
75327W        W39535  25.545   1.903  11.008
75328W        W39536  37.070  15.636  12.540
75329W        W39537  16.225   3.835   0.429
75330W        W39538   3.782  43.317   3.642
75331W        W39539  39.483  29.642  14.355
75332W        W39540  25.685   4.829   0.741
75333W        W39541  42.426  27.089   3.692
75334W        W39542  11.327  21.149  11.016
75335W        W39543  19.058   5.263  14.367
75336W        W39544  34.533  40.967   3.230
75337W        W39545  34.954   1.311   3.649
75338W        W39546  14.174  25.056   3.378
75339W        W39547   2.858   5.278   1.398
75340W        W39548   2.831   7.239   1.312
75341W        W39549  14.749  17.302   3.815
75342W        W39550  40.472   7.775  14.958
75343W        W39551  39.340  43.389   2.788
75344W        W39552  41.854  18.292  12.096
75345W        W39553  38.464  39.526   1.222
75346W        W39554  21.082   6.222  12.925
75347W        W39555  28.120  31.413  12.832
75348W        W39556  32.951  36.047  14.775
75349W        W39557  37.923  16.576  13.973
75350W        W39558  43.505  32.522   4.262
75351W        W39559  29.449  23.514  13.482
75352W        W39560  34.377  10.663   3.739
75353W        W39561   9.740  16.073   3.205
75354W        W39562  16.720  16.652   3.719
75355W        W39563  13.677  10.357   4.680
75356W        W39564  11.827  13.252   1.406
75357W        W39565  43.914  10.265  10.980
75358W        W39566  34.476  15.707   1.724
75359W        W39567  33.047  26.529   4.262
75360W        W39568  24.181  25.487  10.905
75361W        W39569  17.789  24.100   4.173
75362W        W39570   5.265  36.458  12.465
75363W        W39571  40.917  12.267   0.941
75364W        W39572  28.995  35.404   4.745
75365W        W39573  32.002  20.197  11.115
75366W        W39574  25.200  37.836   1.864
75367W        W39575   3.279  26.050  10.616
75368W        W39576  39.041  40.028  10.514
75369W        W39577   5.194  27.501   4.815
75370W        W39578  37.930  10.322   2.297
75371W        W39579  35.037  29.604   2.223
75372W        W39580  31.624   6.798   3.744
75373W        W39581  29.108   5.318  13.847
75374W        W39582  21.695  32.446   0.909
75375W        W39583  25.512  10.709  11.971
75376W        W39584  39.357   3.419   3.180
75377W        W39585  42.018   3.341   4.231
75378W        W39586  30.062  35.450   4.131
75379W        W39587  36.885  27.626   2.726
75380W        W39588  23.514  32.059   4.671
75381W        W39589  18.647   6.749   1.740
75382W        W39590  22.191   4.310  14.398
75383W        W39591   8.803  35.577  14.300
75384W        W39592  29.435  20.745  10.517
75385W        W39593   3.447   1.260   4.190
75386W        W39594  31.627  27.497  12.892
75387W        W39595  43.510  19.128  12.565
75388W        W39596  10.869   8.261   4.797
75389W        W39597  13.747  44.857   1.917
75390W        W39598  41.526  10.632  13.811
75391W        W39599  27.170  18.786   2.768
75392W        W39600  19.667  32.545  12.417
75393W        W39601  19.756  30.516   1.751
75394W        W39602  36.874  30.567  13.994
75395W        W39603  40.416  28.676   3.180
75396W        W39604  40.999  28.521  13.917
75397W        W39605  21.666  28.515  14.776
75398W        W39606  26.087   7.240  13.948
75399W        W39607  26.464  25.616  11.587
75400W        W39608   7.747  34.100   2.208
75401W        W39609   7.870  19.696   2.721
75402W        W39610  13.727  31.432   2.416
75403W        W39611   7.749   6.742   0.371
75404W        W39612  39.450   9.339  14.348
75405W        W39613  14.606  34.514   3.757
75406W        W39614  35.928  27.665   0.810
75407W        W39615  18.625  14.172   0.877
75408W        W39616   9.782  29.583   2.833
75409W        W39617  10.367  31.098  14.772
75410W        W39618   6.722  38.419   4.201
75411W        W39619  36.525  14.619  12.476
75412W        W39620  27.971  44.446   0.275
75413W        W39621  35.872  29.967  11.452
75414W        W39622  30.954  20.255   2.342
75415W        W39623   1.418   8.255  11.921
75416W        W39624  43.006   4.252   2.349
75417W        W39625  39.863   1.868  10.915
75418W        W39626  43.875  21.614   4.222
75419W        W39627  18.260  44.010  13.464
75420W        W39628  26.956   3.451  14.456
75421W        W39629  17.606   8.237  10.004
75422W        W39630  34.602   9.700   0.476
75423W        W39631  41.426  23.076  14.475
75424W        W39632  32.575  26.002   0.726
75425W        W39633  37.521  36.905  12.879
75426W        W39634  29.552   4.824  10.937
75427W        W39635  39.913  35.527  10.622
75428W        W39636  32.572  37.471   2.883
75429W        W39637  22.211   3.924   4.669
75430W        W39638  38.970   6.324   3.637
75431W        W39639   9.842  44.368   1.245
75432W        W39640  33.089  33.096   0.857
75433W        W39641  14.595  29.001   3.349
75434W        W39642  42.882  36.090  13.024
75435W        W39643  29.646  23.582  11.986
75436W        W39644  20.084  17.177  13.835
75437W        W39645  10.818  18.105  11.005
75438W        W39646  36.024  38.541   1.264
75439W        W39647   6.840   3.725   0.892
75440W        W39648  13.640  12.633   0.351
75441W        W39649  39.873  38.379  13.372
75442W        W39650  20.215   2.406   1.293
75443W        W39651  11.235   9.659  11.607
75444W        W39652  18.756  41.868   3.791
75445W        W39653   8.812  35.009  12.894
75446W        W39654  29.638   0.845  12.049
75447W        W39655  22.143  33.409  11.091
75448W        W39656  21.144  32.511  11.097
75449W        W39657  25.098  42.518   0.482
75450W        W39658  13.833   1.355  13.466
75451W        W39659  16.785  18.243   4.657
75452W        W39660  36.052  19.087  12.880
75453W        W39661  12.217  19.050   3.161
75454W        W39662   9.656  15.584   0.287
75455W        W39663  28.643  28.148  13.941
75456W        W39664  38.450  27.510  10.611
75457W        W39665  15.592   1.859   2.335
75458W        W39666  28.528  34.511  12.889
75459W        W39667   5.285  33.965   4.685
75460W        W39668  38.876   4.704  11.866
75461W        W39669  11.798  40.020  14.298
75462W        W39670  32.902  31.437   2.204
75463W        W39671   2.767  10.223  10.446
75464W        W39672  38.915  36.589   4.331
75465W        W39673  41.535   0.269   1.798
75466W        W39674   6.237  34.466   0.365
75467W        W39675   0.250  21.205   1.719
75468W        W39676  15.811  15.604   3.777
75469W        W39677   0.900  16.090  11.088
75470W        W39678   6.410  19.059  13.458
75471W        W39679  24.977  30.619   0.883
75472W        W39680  11.769  31.028   4.300
75473W        W39681  23.492  32.519   0.475
75474W        W39682  24.115  11.774  11.409
75475W        W39683  34.466  34.991  11.425
75476W        W39684   4.214  44.340   0.872
75477W        W39685   5.734  16.745   1.266
75478W        W39686  14.097  11.216  13.346
75479W        W39687   4.410   4.407   2.701
75480W        W39688   2.246  14.593   2.749
75481W        W39689  13.290   7.699   4.161
75482W        W39690  29.012  37.957   3.667
75483W        W39691  28.571  12.254  11.945
75484W        W39692  41.806  10.327   0.455
75485W        W39693  40.933  41.296  13.830
75486W        W39694   0.276   0.905  11.521
75487W        W39695  31.151   2.426   3.346
75488W        W39696   9.248   2.435   0.879
75489W        W39697  35.512   6.189   4.139
75490W        W39698   8.281  37.450   3.669
75491W        W39699  28.679   2.364   2.224
75492W        W39700  21.617  10.310  11.980
75493W        W39701  38.457   4.236   1.443
75494W        W39702  11.792   4.252   1.832
75495W        W39703  35.063   1.794  14.819
75496W        W39704  19.704   4.228  14.944
75497W        W39705  18.119  28.575   4.249
75498W        W39706  11.357   3.413   1.378
75499W        W39707  18.066  16.132  13.994
75500W        W39708  44.291  41.813   3.193
75501W        W39709  26.197  12.628   4.762
75502W        W39710  19.683  43.338   4.759
75503W        W39711  42.395  14.750   4.678
75504W        W39712  42.295   2.832  11.094
75505W        W39713  19.176  26.006   3.326
75506W        W39714  30.005  41.875   4.780
75507W        W39715  37.031  34.536   4.136
75508W        W39716  35.050  10.224   0.853
75509W        W39717  18.571   5.213  11.518
75510W        W39718   6.388  16.298   4.698
75511W        W39719  10.256  40.828   1.249
75512W        W39720  23.054  24.506  12.014
75513W        W39721  11.657  17.220  13.408
75514W        W39722  36.944   0.408  12.018
75515W        W39723   7.904   5.294   4.122
75516W        W39724   1.331  14.221  14.768
75517W        W39725  31.432  35.423  10.925
75518W        W39726   8.403  29.947   2.892
75519W        W39727  40.874  24.035  14.856
75520W        W39728   0.409  26.696   2.741
75521W        W39729  38.416  16.752   4.262
75522W        W39730  25.021   0.400   1.909
75523W        W39731  40.968  41.803  13.485
75524W        W39732  43.980  27.066  12.527
75525W        W39733  18.094  22.634   0.930
75526W        W39734  36.912   0.953  10.602
75527W        W39735  14.203  44.892  10.532
75528W        W39736  27.671  25.674  12.888
75529W        W39737  19.677   4.800   1.355
75530W        W39738  14.285   0.448  10.905
75531W        W39739  24.639  14.256   1.297
75532W        W39740  38.895   8.790  14.989
75533W        W39741  35.595  33.009  11.377
75534W        W39742  26.956  28.555  12.426
75535W        W39743  28.562   0.875  14.287
75536W        W39744  39.557  15.790  14.908
75537W        W39745  37.499  18.270  12.434
75538W        W39746   3.918  11.858   2.236
75539W        W39747  40.817  24.038  11.558
75540W        W39748  23.178  43.970  11.892
75541W        W39749  29.029   5.322  14.835
75542W        W39750  36.561   7.202  12.518
75543W        W39751  12.675  37.035   0.470
75544W        W39752   1.290   8.372   4.756
75545W        W39753  35.046  30.122  11.410
75546W        W39754   4.825  39.427   3.162
75547W        W39755  42.788  13.697  11.079
75548W        W39756  35.962  41.459  14.381
75549W        W39757  31.140  44.445  14.421
75550W        W39758   2.408   1.396  14.960
75551W        W39759  29.018  42.921  14.497
75552W        W39760  22.559  23.592  10.460
75553W        W39761  18.092  32.891  12.555
75554W        W39762  13.607   5.772  12.994
75555W        W39763  22.244  15.730  10.559
75556W        W39764  26.102   0.981   3.172
75557W        W39765   1.778  14.313  10.921
75558W        W39766  19.091   8.272  12.981
75559W        W39767  21.603  11.794  14.967
75560W        W39768  22.522   3.454  10.963
75561W        W39769  26.539  14.268   2.393
75562W        W39770  33.428  21.117  12.019
75563W        W39771  33.417  40.502   4.611
75564W        W39772  34.378  35.974   4.279
75565W        W39773  39.845  17.659   2.796
75566W        W39774  31.054   5.418   3.265
75567W        W39775  34.454  43.895  12.453
75568W        W39776  25.614   6.884   4.331
75569W        W39777  28.956  15.330  13.027
75570W        W39778   0.828  35.512   0.266
75571W        W39779   2.471  31.049   9.959
75572W        W39780  16.783  29.129   1.250
75573W        W39781   8.675  27.991   0.937
75574W        W39782  33.462  26.615  10.141
75575W        W39783  27.574   8.824  10.527
75576W        W39784  13.755  13.238  14.422
75577W        W39785  43.864  34.946  11.943
75578W        W39786  21.627  19.550   0.335
75579W        W39787  40.802  29.921   2.702
75580W        W39788  31.543  30.128  11.125
75581W        W39789  25.509  36.866   4.795
75582W        W39790  22.572  13.153  14.762
75583W        W39791  14.810  28.507   0.794
75584W        W39792  15.293  37.012  14.408
75585W        W39793  13.719  37.017  13.858
75586W        W39794  21.177  19.059  14.783
75587W        W39795   4.217   7.904  12.509
75588W        W39796  17.082   8.679   1.883
75589W        W39797  33.913  16.231   3.343
75590W        W39798  41.817  36.434  12.489
75591W        W39799  26.638  41.943   1.925
75592W        W39800  32.462  10.191   1.932
75593W        W39801  40.312   8.166   4.708
75594W        W39802  44.003  44.840   0.295
75595W        W39803  32.519  26.168  11.984
75596W        W39804  29.545  41.402   0.928
75597W        W39805  22.560  25.007   2.282
75598W        W39806   4.895  30.119  10.628
75599W        W39807  26.057   4.433   0.277
75600W        W39808  24.657   0.301  14.326
75601W        W39809  42.352  11.760  13.844
75602W        W39810  30.001  41.786  12.513
75603W        W39811  23.695  40.382  14.785
75604W        W39812  28.652  37.572   2.218
75605W        W39813  17.641  17.795   1.393
75606W        W39814  43.005   4.763   1.378
75607W        W39815  24.101  22.540   0.733
75608W        W39816  27.174  21.134   3.678
75609W        W39817   8.682  39.966  14.378
75610W        W39818  10.846  40.516   4.700
75611W        W39819  27.490  17.148  14.791
75612W        W39820  39.543  17.298  11.020
75613W        W39821  11.157  27.157   3.297
75614W        W39822   8.335  19.664   1.877
75615W        W39823  22.575  20.639   0.288
75616W        W39824   1.266  14.108  10.602
75617W        W39825   2.754   8.188   0.401
75618W        W39826  30.068  37.071   1.348
75619W        W39827  43.823  43.505  12.065
75620W        W39828   8.665  26.533   3.660
75621W        W39829  10.779  28.182   1.407
75622W        W39830  12.272  33.508   3.221
75623W        W39831  24.137   2.732   0.282
75624W        W39832  38.329  23.682  14.833
75625W        W39833  32.072  33.031   2.825
75626W        W39834  40.025  21.084  14.467
75627W        W39835  38.073  35.856   3.327
75628W        W39836  27.988   5.885  11.457
75629W        W39837   9.888  29.039  10.978
75630W        W39838  20.029  32.400  11.585
75631W        W39839  30.135   4.301   1.375
75632W        W39840  15.236  44.348   0.943
75633W        W39841  11.782  15.258  13.418
75634W        W39842   9.381   2.724  14.382
75635W        W39843  31.006  13.757   0.319
75636W        W39844   1.954   4.379   2.258
75637W        W39845  43.348   8.661   0.827
75638W        W39846  35.855  37.002  13.825
75639W        W39847   7.298  43.955   4.658
75640W        W39848  22.053  15.787   3.722
75641W        W39849  42.430  17.292  12.404
75642W        W39850  13.310  38.397  11.104
75643W        W39851  25.649  28.145  10.032
75644W        W39852  25.112  44.802   0.806
75645W        W39853  26.548  39.917  13.440
75646W        W39854  27.620  39.939   1.428
75647W        W39855  23.195  30.122  10.645
75648W        W39856  31.933  38.519  13.041
75649W        W39857  40.938   2.804  13.004
75650W        W39858   6.697   6.715   2.782
75651W        W39859  27.484  26.188   2.356
75652W        W39860   8.190  12.725   0.383
75653W        W39861  28.031  33.393  13.334
75654W        W39862  18.587  11.828   0.291
75655W        W39863  40.471  17.184  13.983
75656W        W39864  15.222  39.831   1.223
75657W        W39865  44.881  15.105  14.984
75658W        W39866   9.829  15.213   5.081
75659W        W39867  36.504  12.137  13.451
75660W        W39868  17.646  26.694  14.442
75661W        W39869  14.278   7.299   3.691
75662W        W39870  11.655  42.032   0.807
75663W        W39871   1.917  16.222   0.266
75664W        W39872  44.275  28.961   3.693
75665W        W39873  26.973  39.909   1.708
75666W        W39874  20.544  29.469  14.410
75667W        W39875  30.093  40.489  14.292
75668W        W39876  20.156   2.756  13.959
75669W        W39877   5.333  26.093   3.854
75670W        W39878  13.119   5.923   1.718
75671W        W39879  32.576  26.123   1.839
75672W        W39880  41.316  28.073   4.117
75673W        W39881   4.793  24.008  10.968
75674W        W39882  22.732  12.834   3.758
75675W        W39883  15.698  29.486   4.717
75676W        W39884  42.017  19.152  14.315
75677W        W39885  10.233  38.033   0.880
75678W        W39886   8.683  35.495   0.299
75679W        W39887  13.680  23.688   1.317
75680W        W39888  44.965  37.967  12.961
75681W        W39889   0.306   2.318   3.240
75682W        W39890  14.833  44.428   2.248
75683W        W39891  18.730  22.698   4.244
75684W        W39892   1.356  37.556   1.303
75685W        W39893  43.352  32.451   3.718
75686W        W39894  26.460  13.325  13.929
75687W        W39895  15.696  24.695  14.469
75688W        W39896  14.602  11.760  12.090
75689W        W39897  28.600   1.978   4.262
75690W        W39898  27.988  31.598   2.368
75691W        W39899  13.734  24.594   4.805
75692W        W39900  20.632  32.103   1.273
75693W        W39901  33.449  31.120   0.917
75694W        W39902  13.844   5.843   4.620
75695W        W39903  18.263  26.627   1.770
75696W        W39904  14.157  21.722  12.929
75697W        W39905  16.772  44.956   2.205
75698W        W39906  12.226  43.434  11.076
75699W        W39907   4.923  38.044   4.711
75700W        W39908  18.067  24.160  10.485
75701W        W39909  30.996   6.797  14.509
75702W        W39910   3.458  40.445  14.337
75703W        W39911  33.015  22.203  14.941
75704W        W39912   9.280   3.399   2.321
75705W        W39913  18.118  21.546   0.761
75706W        W39914  30.024  41.017  11.396
75707W        W39915  29.127  21.663  11.488
75708W        W39916   7.390   3.387   1.894
75709W        W39917  16.267  16.801   2.296
75710W        W39918   7.721  38.525   2.746
75711W        W39919   2.414  29.470  12.094
75712W        W39920  38.569  13.618  14.799
75713W        W39921  13.188   0.465   4.279
75714W        W39922  16.642   6.907  12.046
75715W        W39923  14.118  23.549   0.732
75716W        W39924  13.810  13.155   0.800
75717W        W39925   7.674  42.909  14.011
75718W        W39926  12.631  34.011  13.894
75719W        W39927  24.481  24.478   4.255
75720W        W39928  33.112  32.515  14.887
75721W        W39929  20.237  30.557  14.491
75722W        W39930  15.283  10.151  10.971
75723W        W39931  38.046   1.887  14.888
75724W        W39932  34.466  31.518  12.021
75725W        W39933  20.636   3.223  12.544
75726W        W39934   7.310   2.903  11.059
75727W        W39935  11.834  25.020   1.340
75728W        W39936  13.822   3.247   1.752
75729W        W39937   6.213  18.676  11.386
75730W        W39938  33.068  44.459   2.363
75731W        W39939  36.901  23.191   3.154
75732W        W39940  21.166   4.759   4.600
75733W        W39941  39.863  25.636  13.344
75734W        W39942  35.418  35.097  11.495
75735W        W39943  23.147  32.447   0.265
75736W        W39944  15.662   9.837   1.272
75737W        W39945  32.581  13.798   5.303
75738W        W39946  27.054  16.715  13.023
75739W        W39947  12.627   6.910   2.371
75740W        W39948  39.409  29.438   3.238
75741W        W39949   7.874  24.089  14.468
75742W        W39950   1.460   0.960   3.177
75743W        W39951  26.685  37.947  12.420
75744W        W39952  42.468  40.815  13.947
75745W        W39953  42.839  17.726  10.568
75746W        W39954  22.572  15.133   1.829
75747W        W39955  26.482  19.110  12.075
75748W        W39956   1.327  40.375  12.391
75749W        W39957  10.809   8.261   1.722
75750W        W39958  22.513  26.508   3.167
75751W        W39959  17.673  13.146   4.174
75752W        W39960  32.950   0.819   3.712
75753W        W39961  14.787  13.835   4.662
75754W        W39962  12.612  29.946  11.126
75755W        W39963  39.964  14.166  13.443
75756W        W39964  15.245  41.857  14.964
75757W        W39965  41.333  17.166   5.312
75758W        W39966   4.367  28.669  10.517
75759W        W39967  17.615  36.989  10.026
75760W        W39968  42.025  18.594  10.031
75761W        W39969  33.130  14.826   1.843
75762W        W39970  32.634  35.566  12.364
75763W        W39971   3.359  17.087   0.795
75764W        W39972   1.333  37.457  13.472
75765W        W39973  25.074  27.063   1.378
75766W        W39974  34.535  23.624   3.667
75767W        W39975  43.476  27.083  11.021
75768W        W39976  27.151  32.126   4.296
75769W        W39977  35.931  18.124   3.277
75770W        W39978   7.347  28.036   1.822
75771W        W39979  31.484  35.985  14.374
75772W        W39980  25.077  30.537   3.634
75773W        W39981  39.033   5.910   4.171
75774W        W39982  23.646  44.361   0.452
75775W        W39983  32.014  11.852  13.998
75776W        W39984  31.529   4.235   2.784
75777W        W39985  24.020   7.267   2.293
75778W        W39986  37.341   2.866  14.776
75779W        W39987  14.296  26.040  14.308
75780W        W39988  30.095  36.868  13.452
75781W        W39989  23.163  44.320  10.520
75782W        W39990  33.918  24.692   0.950
75783W        W39991  17.199  31.995   1.273
75784W        W39992   0.853  17.108   3.351
75785W        W39993  40.311   8.277  12.504
75786W        W39994   2.913  17.264  10.992
75787W        W39995   5.911  17.087   4.328
75788W        W39996  42.505  37.502  13.905
75789W        W39997   6.369  21.157   0.377
75790W        W39998  23.984  33.964   2.211
75791W        W39999   4.241  22.079   1.322
75792W        W40000  14.634  20.588  14.889
75793W        W40001  19.644  17.112  12.929
75794W        W40002  36.876  16.793  10.459
75795W        W40003  19.169  22.114   2.311
75796W        W40004  36.464  37.524  10.432
75797W        W40005   1.361  38.851  12.505
75798W        W40006  43.881  28.624   0.324
75799W        W40007   3.844   4.932   3.382
75800W        W40008  16.104   9.720  12.429
75801W        W40009  30.145  39.318  11.868
75802W        W40010  25.183  21.685   3.214
75803W        W40011  42.917  23.088   2.250
75804W        W40012   7.832  41.525  14.774
75805W        W40013  23.190  12.120   1.886
75806W        W40014  32.003   9.353   3.850
75807W        W40015  33.467   1.931  12.401
75808W        W40016  30.056  27.551   3.191
75809W        W40017   1.799  25.528   4.756
75810W        W40018   8.682  16.703   3.209
75811W        W40019  35.867  41.967  14.947
75812W        W40020  37.353  36.361  10.443
75813W        W40021  22.518   4.265  12.536
75814W        W40022  34.380  38.534  11.902
75815W        W40023  40.507  36.898  13.507
75816W        W40024  18.225  11.320  14.405
75817W        W40025  36.448  20.190  12.480
75818W        W40026  38.831  18.642   2.869
75819W        W40027  30.947  14.258   2.779
75820W        W40028  30.938  20.728  10.942
75821W        W40029  15.269  14.807   0.439
75822W        W40030  19.149   8.867  13.523
75823W        W40031  35.600  11.279  13.312
75824W        W40032   5.928  14.188  14.284
75825W        W40033  14.706  30.638   0.851
75826W        W40034   9.395   8.731   3.660
75827W        W40035  30.543   1.471   0.288
75828W        W40036   2.311  17.711   0.452
75829W        W40037  21.059  27.977  11.086
75830W        W40038  40.801  44.808  10.555
75831W        W40039  16.120   4.739   4.655
75832W        W40040   7.276  14.685  14.962
75833W        W40041   0.364  16.225  13.926
75834W        W40042   8.286  22.098   1.765
75835W        W40043   5.277   2.448  12.856
75836W        W40044  10.379  17.269   0.916
75837W        W40045   5.805  38.484   2.340
75838W        W40046  16.785  13.837  11.975
75839W        W40047  17.724  11.721   1.267
75840W        W40048   4.867  22.661  10.988
75841W        W40049  25.112   5.354   3.736
75842W        W40050  23.023  27.189  13.954
75843W        W40051  15.318  13.169  10.623
75844W        W40052   3.232  26.961   3.728
75845W        W40053  18.215  24.010   4.783
75846W        W40054  44.948  37.895  14.367
75847W        W40055  20.096  39.829  13.483
75848W        W40056   8.701  44.807  14.403
75849W        W40057  11.797   0.927   1.932
75850W        W40058   5.925  38.820  11.436
75851W        W40059  37.894  16.246   2.183
75852W        W40060  36.390  42.371   3.784
75853W        W40061   9.189  10.327  10.900
75854W        W40062  18.115  37.901   3.687
75855W        W40063  44.875  37.904  10.427
75856W        W40064   6.768  43.345  10.900
75857W        W40065  26.076   9.790   4.786
75858W        W40066  17.652  29.099   4.127
75859W        W40067   1.915  36.896   0.482
75860W        W40068  35.965  41.042   3.737
75861W        W40069   3.712  27.019  13.517
75862W        W40070  23.648  10.361   1.874
75863W        W40071   6.839  25.510  12.436
75864W        W40072  32.549  33.952   4.328
75865W        W40073  18.695  27.557   1.747
75866W        W40074  30.134  17.274  10.491
75867W        W40075  42.791  24.648  10.927
75868W        W40076  31.914  15.638   0.954
75869W        W40077  20.121  24.196   5.174
75870W        W40078  16.739  13.263   4.754
75871W        W40079  28.087  18.085   9.956
75872W        W40080  18.290  17.094   0.893
75873W        W40081  40.833   4.777   3.637
75874W        W40082  15.280  39.981   3.260
75875W        W40083  12.242  10.849  14.837
75876W        W40084   4.349  17.587  11.445
75877W        W40085  33.021  24.129   0.364
75878W        W40086  10.701  38.548  11.046
75879W        W40087   5.417   5.359  14.461
75880W        W40088  14.252  20.633   4.339
75881W        W40089  19.670   4.232  10.428
75882W        W40090  29.030   7.761   3.692
75883W        W40091  23.636   3.780   2.301
75884W        W40092  42.446  28.180  13.837
75885W        W40093  44.764  16.107  14.835
75886W        W40094  37.926  11.197   1.840
75887W        W40095  22.050   7.745  14.963
75888W        W40096  22.626  19.776  10.068
75889W        W40097  41.972  39.885   4.767
75890W        W40098  22.700   7.193   0.943
75891W        W40099   0.979  14.197  10.014
75892W        W40100   7.218  27.481  11.516
75893W        W40101   8.678  31.579   2.336
75894W        W40102  15.668   7.722   4.719
75895W        W40103  26.151  27.552  14.902
75896W        W40104  20.654  29.525  13.443
75897W        W40105  39.376   4.441   0.287
75898W        W40106  28.492  43.353  14.459
75899W        W40107  31.007  18.750  13.524
75900W        W40108  36.448   5.259   1.282
75901W        W40109  31.585   5.383   0.247
75902W        W40110   3.799  23.173  10.497
75903W        W40111  13.271  33.932  11.907
75904W        W40112  39.825  17.716  11.066
75905W        W40113  21.068  40.941   0.900
75906W        W40114   1.969   8.290  13.450
75907W        W40115   2.813  41.026   3.713
75908W        W40116   4.205  15.765  12.010
75909W        W40117   2.352   9.753   3.768
75910W        W40118  14.788   0.982  12.998
75911W        W40119  17.086   8.702  11.954
75912W        W40120  17.182   5.771   4.298
75913W        W40121   4.297  22.733  14.407
75914W        W40122  30.126   4.853   1.367
75915W        W40123  12.234  27.653   3.150
75916W        W40124   7.311  14.249  12.406
75917W        W40125  15.817  40.800   2.711
75918W        W40126  36.537  18.615  12.537
75919W        W40127   6.252  11.840  11.578
75920W        W40128  42.403  38.404  12.019
75921W        W40129  34.115  12.809  13.377
75922W        W40130  11.180  14.107  12.006
75923W        W40131  12.659  20.128  13.431
75924W        W40132   6.372  23.060  12.532
75925W        W40133  37.056  15.665   1.363
75926W        W40134   0.313  42.790  13.383
75927W        W40135  35.909   8.851  11.056
75928W        W40136  34.493  20.267  11.945
75929W        W40137  37.956  21.099   0.857
75930W        W40138  23.504   7.237  12.548
75931W        W40139  43.306  33.092   4.597
75932W        W40140  15.226  17.210   3.705
75933W        W40141  16.742  10.161   4.606
75934W        W40142   2.447   5.907  11.378
75935W        W40143  38.469  40.413  12.495
75936W        W40144  16.244   5.694   0.297
75937W        W40145   9.656  32.602   0.880
75938W        W40146   2.743  27.618  12.006
75939W        W40147  44.338  39.978  10.423
75940W        W40148   5.413  36.430   0.483
75941W        W40149  11.738   3.838   4.669
75942W        W40150  10.258  31.575   2.866
75943W        W40151  28.660  13.180   4.113
75944W        W40152  40.378  41.966   1.388
75945W        W40153   2.776  21.654  12.563
75946W        W40154  39.477  38.905  13.311
75947W        W40155  35.949  18.635  12.046
75948W        W40156  22.093   2.817   1.907
75949W        W40157  41.998  11.741   4.630
75950W        W40158  32.103  16.187   3.838
75951W        W40159   7.720  18.096  13.907
75952W        W40160   9.859  44.305   0.349
75953W        W40161   7.344  44.832  12.453
75954W        W40162  11.355  37.511   4.601
75955W        W40163  25.703  12.645  14.885
75956W        W40164  21.548   8.760  14.966
75957W        W40165  25.018  10.830   2.250
75958W        W40166  39.821  29.464  10.914
75959W        W40167   6.835   1.845   2.338
75960W        W40168  37.915  43.272  13.523
75961W        W40169   3.221  21.587   2.179
75962W        W40170  17.206  27.658   2.228
75963W        W40171  35.903  14.304   2.847
75964W        W40172  41.995  37.406   5.223
75965W        W40173   8.380  36.849   0.303
75966W        W40174  27.571  16.102   1.836
75967W        W40175  20.631  27.088   2.874
75968W        W40176  42.938  12.681   2.777
75969W        W40177   4.295  26.192  13.442
75970W        W40178  18.631   8.704  10.563
75971W        W40179  24.058  21.758   3.213
75972W        W40180   6.775   8.771  12.043
75973W        W40181  17.183  16.774   3.335
75974W        W40182  12.357  44.456   9.943
75975W        W40183  32.898  38.832  13.870
75976W        W40184  22.239   5.863  14.861
75977W        W40185  37.407  43.507  11.014
75978W        W40186  11.234  26.166   4.801
75979W        W40187  16.621  27.673   2.318
75980W        W40188  12.658  24.556  13.320
75981W        W40189   6.793  37.470  14.860
75982W        W40190  24.092  20.756  10.913
75983W        W40191  10.382   9.335  11.963
75984W        W40192  11.809  33.933  12.080
75985W        W40193  38.949  41.336  13.002
75986W        W40194  19.659  18.696  14.349
75987W        W40195  13.830   5.699   2.794
75988W        W40196  19.700   1.262  10.964
75989W        W40197  19.164  32.906   3.817
75990W        W40198   5.437  31.951   0.963
75991W        W40199  44.325  28.555   2.351
75992W        W40200  14.608  24.516   3.817
75993W        W40201  18.753  12.803   2.767
75994W        W40202   4.243  42.951   2.392
75995W        W40203  44.797  15.740  10.530
75996W        W40204   3.840  27.448   3.655
75997W        W40205  34.578  36.569  14.931
75998W        W40206   1.267   0.255  10.619
75999W        W40207   9.218  41.021  14.481
76000W        W40208  25.157  40.402   2.366
76001W        W40209  10.318  42.461   2.230
76002W        W40210   0.770  33.098  12.035
76003W        W40211   6.776  27.074  11.944
76004W        W40212  12.156  13.312   9.500
76005W        W40213  26.659  33.438   5.212
76006W        W40214  26.639   4.874  12.557
76007W        W40215  11.189   7.845   3.298
76008W        W40216  42.286   9.353   2.777
76009W        W40217  21.728  35.463  14.781
76010W        W40218  10.668   9.210  11.480
76011W        W40219   4.318   4.743   0.960
76012W        W40220  38.433  31.500  14.307
76013W        W40221  29.506   5.217  11.024
76014W        W40222  20.238   3.238  13.345
76015W        W40223   1.967  32.998   2.860
76016W        W40224  34.997  31.470   2.190
76017W        W40225  23.681  31.141  11.564
76018W        W40226  41.946   7.254  12.951
76019W        W40227   4.223  36.485  11.523
76020W        W40228  40.042  19.548   2.770
76021W        W40229   7.412  15.589   1.932
76022W        W40230   1.849  25.067  10.616
76023W        W40231   3.765   6.876  13.829
76024W        W40232  34.478  29.040   3.865
76025W        W40233   4.881  40.436  11.887
76026W        W40234  31.555  37.906   0.874
76027W        W40235  43.790  18.065   4.802
76028W        W40236  30.097  13.746   9.439
76029W        W40237  32.493  19.154   4.817
76030W        W40238  24.510  33.524   2.297
76031W        W40239  19.068  37.436  12.018
76032W        W40240  26.499  10.653   1.385
76033W        W40241  31.097  10.214   3.860
76034W        W40242  16.304  22.572   3.648
76035W        W40243  29.482  20.173   0.455
76036W        W40244  38.567  12.814   2.886
76037W        W40245   1.341  44.846  12.868
76038W        W40246  17.587  31.965   3.385
76039W        W40247  11.754  11.175   3.223
76040W        W40248  14.820  11.370  12.384
76041W        W40249  11.702  21.095  12.442
76042W        W40250  30.462  18.166  12.086
76043W        W40251  13.744  14.331   4.775
76044W        W40252  37.403  21.603  13.898
76045W        W40253  16.163  32.907   4.319
76046W        W40254  16.683  14.331  11.426
76047W        W40255   1.772  40.915   4.272
76048W        W40256  27.115  32.635   2.756
76049W        W40257  10.731  39.844   1.363
76050W        W40258  21.676   7.279  14.333
76051W        W40259  18.745  12.682   3.860
76052W        W40260  35.401  21.203  11.512
76053W        W40261   7.768  34.474   5.141
76054W        W40262  20.680  18.065  14.323
76055W        W40263  37.410   7.877  14.984
76056W        W40264  40.885   0.382  10.973
76057W        W40265  14.302  18.672  12.998
76058W        W40266  16.107  39.902  13.954
76059W        W40267   9.743  44.922   1.218
76060W        W40268   7.379   3.904  12.406
76061W        W40269  12.824  42.310  14.961
76062W        W40270  15.732  44.856   4.151
76063W        W40271  26.468  44.450  14.823
76064W        W40272   5.372  37.578   3.837
76065W        W40273  13.181  39.917   4.714
76066W        W40274   8.333   6.863   0.759
76067W        W40275  41.301  41.924  13.881
76068W        W40276   9.791  32.951  10.558
76069W        W40277  30.107  21.533  14.478
76070W        W40278   6.396  41.415  13.876
76071W        W40279  29.964  27.092  14.985
76072W        W40280  37.903   2.373   2.384
76073W        W40281  40.328  10.234  14.929
76074W        W40282  43.989  31.096  14.443
76075W        W40283   1.936  33.959   2.270
76076W        W40284  42.481  40.328   0.865
76077W        W40285  13.768  38.848   4.790
76078W        W40286  39.515  36.975   0.465
76079W        W40287  42.391  13.809   0.967
76080W        W40288  37.569  35.048   0.444
76081W        W40289  35.946   8.697  12.538
76082W        W40290  27.572  34.610  11.549
76083W        W40291  21.697  25.132   2.759
76084W        W40292   9.780  30.414  12.400
76085W        W40293  30.638  12.630   3.806
76086W        W40294  13.785  15.126   1.811
76087W        W40295  37.004  36.006   0.243
76088W        W40296   2.752   0.983  11.409
76089W        W40297   2.806  23.575   0.782
76090W        W40298  43.838  13.305   0.817
76091W        W40299  37.545  10.315  14.412
76092W        W40300  17.729  30.637   2.218
76093W        W40301  24.569  20.523   1.760
76094W        W40302   9.214   5.218  14.495
76095W        W40303  26.129   6.292   4.273
76096W        W40304   7.322  10.874  10.550
76097W        W40305  14.239  30.031  12.430
76098W        W40306  24.697  44.261  12.497
76099W        W40307  21.209  39.891   0.325
76100W        W40308   8.836  22.548   2.263
76101W        W40309  26.581  15.627   3.785
76102W        W40310  27.471  40.023  11.399
76103W        W40311  18.203  37.981  14.960
76104W        W40312  37.487  21.224  10.604
76105W        W40313  25.558   2.879  11.928
76106W        W40314  37.077  39.467  13.816
76107W        W40315  37.419   9.828   4.242
76108W        W40316  23.127  40.967  10.932
76109W        W40317  39.029   7.361   9.993
76110W        W40318  23.990  14.746   2.878
76111W        W40319   4.208   4.907   0.362
76112W        W40320  36.473   6.282   1.754
76113W        W40321  18.193  38.936   0.903
76114W        W40322   2.236   3.268  12.004
76115W        W40323   9.797  28.163   2.899
76116W        W40324  23.007  19.261  11.386
76117W        W40325  31.633   8.394   1.263
76118W        W40326  27.143  38.455  12.483
76119W        W40327  28.955  19.571   4.625
76120W        W40328  13.119  21.527  12.979
76121W        W40329  36.357  31.048  11.885
76122W        W40330  42.359  43.847   2.883
76123W        W40331  44.410  25.062  14.370
76124W        W40332  13.335  12.252   3.674
76125W        W40333  27.484  26.462  10.093
76126W        W40334   6.346  19.744   0.291
76127W        W40335  18.069  19.117  12.874
76128W        W40336   3.932   4.257  13.806
76129W        W40337  43.392  34.020  10.558
76130W        W40338  25.163  34.023  13.813
76131W        W40339  31.422  38.347   1.376
76132W        W40340   0.493   7.687   2.736
76133W        W40341   7.269  14.308  11.380
76134W        W40342  39.422  38.010   1.745
76135W        W40343  44.791  35.885   2.187
76136W        W40344   7.787  42.314  14.387
76137W        W40345   6.805  23.177   3.279
76138W        W40346  39.987  21.559   2.351
76139W        W40347   0.351  11.296  14.287
76140W        W40348  17.685  31.138   1.321
76141W        W40349   5.346  15.156  13.465
76142W        W40350   8.244   4.706  10.960
76143W        W40351  42.307   1.857  14.394
76144W        W40352  30.156  28.535   4.271
76145W        W40353  42.837  26.974  13.449
76146W        W40354  28.635   6.310  12.580
76147W        W40355  12.319  39.821   4.811
76148W        W40356  13.827  41.845  11.082
76149W        W40357  41.321  36.957   4.143
76150W        W40358  44.900  36.534  14.870
76151W        W40359  16.180   1.362   4.274
76152W        W40360  36.019   0.422  12.090
76153W        W40361   5.299  23.536   1.715
76154W        W40362  37.929  17.749  11.409
76155W        W40363  10.196  17.293   4.599
76156W        W40364  21.516  18.624   0.314
76157W        W40365  14.728   6.676   0.840
76158W        W40366  38.341  16.791  11.456
76159W        W40367  13.176   7.711  14.300
76160W        W40368  40.966  29.044   1.290
76161W        W40369   1.748  34.442   3.734
76162W        W40370   8.211  36.457  10.978
76163W        W40371  34.877  13.343   2.727
76164W        W40372   7.305  21.263  12.542
76165W        W40373  33.951  39.880   1.390
76166W        W40374  26.135   0.871   0.440
76167W        W40375  20.092  36.860   3.224
76168W        W40376  34.885   3.223   5.176
76169W        W40377   3.940  27.014  11.017
76170W        W40378  23.199   6.213   3.772
76171W        W40379   1.362  13.259  10.622
76172W        W40380   9.882   5.212  13.401
76173W        W40381  38.428  13.766  12.491
76174W        W40382  37.477  26.128   1.803
76175W        W40383   7.360   5.333  14.339
76176W        W40384  42.869  18.134  11.063
76177W        W40385  34.444  22.139   3.744
76178W        W40386   8.786  22.614   1.901
76179W        W40387  32.571  19.103  14.830
76180W        W40388  12.122  33.481  11.568
76181W        W40389  21.095  22.134   3.169
76182W        W40390  13.112  39.491   2.394
76183W        W40391   1.272  40.374  14.026
76184W        W40392  24.585  20.126  13.409
76185W        W40393   8.340  42.826   3.175
76186W        W40394   1.783  13.309   2.234
76187W        W40395   0.939  14.737  12.509
76188W        W40396  13.299  42.408  14.824
76189W        W40397  24.624  14.151  13.323
76190W        W40398   3.260  29.107  11.087
76191W        W40399  19.136  39.331  11.983
76192W        W40400  28.150   4.842  14.357
76193W        W40401   9.352   4.400   2.755
76194W        W40402  23.170  34.395  14.452
76195W        W40403  38.522  35.501  12.979
76196W        W40404   9.647  44.498   0.748
76197W        W40405  19.593  23.149   0.894
76198W        W40406  41.358   4.431  14.995
76199W        W40407   2.748   1.833  11.972
76200W        W40408  28.976  42.941  13.968
76201W        W40409   2.396  17.079   4.115
76202W        W40410   1.363  38.505   2.321
76203W        W40411  36.550  25.679   1.334
76204W        W40412  16.671   9.293  13.473
76205W        W40413  14.705  22.179   3.290
76206W        W40414   3.376  15.097   3.205
76207W        W40415  31.039  31.910  13.983
76208W        W40416  10.717   8.843   4.813
76209W        W40417  13.669  32.636  13.794
76210W        W40418   6.687  42.903   4.745
76211W        W40419   2.415  18.602   5.139
76212W        W40420  23.215  36.042  10.620
76213W        W40421  42.967  26.696   1.868
76214W        W40422  38.990   1.411  13.421
76215W        W40423  21.735  14.123  14.318
76216W        W40424   8.300  26.460   3.349
76217W        W40425  37.899   4.376  11.402
76218W        W40426   3.892   7.738  12.917
76219W        W40427  25.987  24.060  13.321
76220W        W40428   3.436  12.130  12.467
76221W        W40429  29.513  31.022  10.418
76222W        W40430  21.152   4.816   0.816
76223W        W40431  11.694  26.539  14.466
76224W        W40432  40.899  22.209  13.502
76225W        W40433  28.177  19.275   1.219
76226W        W40434  10.815  37.578  14.421
76227W        W40435  20.266   8.776  13.801
76228W        W40436  31.082  33.079  11.893
76229W        W40437  26.098  15.616  13.391
76230W        W40438  24.080  13.718   0.258
76231W        W40439  14.638  27.448   3.730
76232W        W40440  39.466  41.958  14.474
76233W        W40441  40.541  29.486  10.454
76234W        W40442  27.073  41.328   3.341
76235W        W40443  36.878   4.334   1.896
76236W        W40444  35.926   9.692  10.923
76237W        W40445  28.954  14.153   1.398
76238W        W40446  36.511  29.070   4.655
76239W        W40447   7.379  31.001  13.950
76240W        W40448  19.574  16.227  10.494
76241W        W40449   4.311  17.741  12.370
76242W        W40450  22.733   7.369  10.404
76243W        W40451  17.220  15.708  13.465
76244W        W40452   7.753  30.072   0.898
76245W        W40453   6.738  40.461   3.234
76246W        W40454  13.115  41.380  12.059
76247W        W40455  11.164  12.270   3.358
76248W        W40456  41.524  16.098  12.538
76249W        W40457   7.326  28.166  11.568
76250W        W40458   1.352  20.059   1.836
76251W        W40459   6.729  28.652   1.724
76252W        W40460   2.912  32.557   3.838
76253W        W40461  32.631   1.249  10.414
76254W        W40462  23.012  20.756  14.444
76255W        W40463   1.428   0.797   2.191
76256W        W40464   6.717  13.622  11.551
76257W        W40465  34.531  12.167  14.510
76258W        W40466   8.169  20.665  12.550
76259W        W40467  38.516  41.297  13.497
76260W        W40468  25.014  42.856   3.179
76261W        W40469   7.409  24.222  10.643
76262W        W40470   2.956  44.453   2.718
76263W        W40471  41.798   9.258   0.435
76264W        W40472   7.324  34.916  10.944
76265W        W40473  26.525  42.836  12.989
76266W        W40474  36.081  37.561   3.720
76267W        W40475  34.869   7.727  12.086
76268W        W40476  24.721   0.461   3.228
76269W        W40477  33.482  22.674  13.313
76270W        W40478  27.589  21.193   3.737
76271W        W40479  25.979  15.786  11.079
76272W        W40480  16.232  15.248   0.453
76273W        W40481  29.506  24.572  11.611
76274W        W40482  12.639   2.952   4.224
76275W        W40483  32.060  22.076  10.492
76276W        W40484  22.683  13.805   2.343
76277W        W40485  12.695  30.524   4.278
76278W        W40486   2.329   7.804   1.244
76279W        W40487   9.344  17.174  12.874
76280W        W40488   8.306  28.658   4.599
76281W        W40489  33.576  18.255   2.786
76282W        W40490   0.822   9.207   0.778
76283W        W40491  24.028  15.675   1.814
76284W        W40492  43.857   1.302  12.434
76285W        W40493   2.258   8.375  11.001
76286W        W40494  35.985  24.724   4.757
76287W        W40495   1.816   8.690   4.775
76288W        W40496  17.155  17.796  10.426
76289W        W40497   2.269  32.607   9.662
76290W        W40498  24.613  17.718   3.639
76291W        W40499  16.737  33.023  14.987
76292W        W40500   3.734  29.958   1.441
76293W        W40501  16.630  37.872  11.383
76294W        W40502   9.322   1.410   3.862
76295W        W40503  27.986   9.677   3.753
76296W        W40504  39.436  26.093   3.782
76297W        W40505  13.298  10.277  11.477
76298W        W40506  12.353  38.520  11.371
76299W        W40507   3.775   6.698  10.905
76300W        W40508   8.668  14.109   0.265
76301W        W40509  37.417  42.445   4.838
76302W        W40510  15.266  34.373  13.435
76303W        W40511  30.649  36.846   4.353
76304W        W40512  34.371  36.389  10.527
76305W        W40513  35.941   2.313  13.358
76306W        W40514  18.142  40.892   2.887
76307W        W40515   9.354  39.874  11.874
76308W        W40516   0.769  20.707   4.713
76309W        W40517  32.899  15.323   0.748
76310W        W40518  37.077  22.165   1.737
76311W        W40519  19.669  33.516   0.293
76312W        W40520  10.702  42.358  14.329
76313W        W40521   7.905  20.238  12.994
76314W        W40522   0.304   2.429  13.535
76315W        W40523   9.345  16.642  12.414
76316W        W40524   5.374  26.576  14.763
76317W        W40525   7.724  39.431  11.960
76318W        W40526  22.665   1.917  13.952
76319W        W40527   4.212  13.331   2.710
76320W        W40528  42.400  36.472   0.275
76321W        W40529  34.580  38.457   4.778
76322W        W40530  33.609  12.796  11.472
76323W        W40531   0.801  15.189   2.400
76324W        W40532  14.762  13.823  13.872
76325W        W40533  41.865  26.665  13.983
76326W        W40534  33.479  31.084   3.768
76327W        W40535  36.916  17.149   3.692
76328W        W40536   2.258   9.865  10.918
76329W        W40537  37.513   5.723  10.642
76330W        W40538   1.745  20.644  11.539
76331W        W40539  15.130   2.230  14.444
76332W        W40540   1.782  39.539   2.696
76333W        W40541  38.399  32.430   3.838
76334W        W40542   6.741  20.086  10.454
76335W        W40543  11.740  41.830   2.279
76336W        W40544  19.263  22.233   3.171
76337W        W40545   8.233   3.251  13.814
76338W        W40546  32.927   8.881   5.099
76339W        W40547  26.458  33.417   3.201
76340W        W40548  20.128  21.244  12.481
76341W        W40549  25.055  32.405   0.727
76342W        W40550   7.253  27.559   3.291
76343W        W40551  22.543  37.519   3.243
76344W        W40552  32.508  10.711  11.118
76345W        W40553   7.729  23.521   1.261
76346W        W40554  33.490  25.047   3.633
76347W        W40555  37.432  27.044  11.500
76348W        W40556  29.997  37.052  11.426
76349W        W40557  20.085  11.832   4.622
76350W        W40558   9.743  43.971  14.806
76351W        W40559  19.274  10.194  13.842
76352W        W40560  20.167  26.029  10.928
76353W        W40561  23.203   4.849  13.867
76354W        W40562  15.614  41.493  13.539
76355W        W40563  36.528  41.855  14.318
76356W        W40564   3.711  15.694   3.239
76357W        W40565  35.033  38.503   1.882
76358W        W40566  42.338   8.167  12.438
76359W        W40567  29.113   7.381   3.167
76360W        W40568  34.387   2.323   1.883
76361W        W40569  33.381  38.065   3.754
76362W        W40570  28.021   9.890   2.242
76363W        W40571  23.209  15.104  11.856
76364W        W40572   2.926  26.653   3.865
76365W        W40573  13.790  19.722  13.933
76366W        W40574   6.911  19.266  13.420
76367W        W40575   2.871  30.420   1.299
76368W        W40576  34.415   0.301  12.895
76369W        W40577  12.131   6.362  11.922
76370W        W40578   2.269  27.485  11.113
76371W        W40579  44.430  13.751  13.042
76372W        W40580  44.780  29.053  10.590
76373W        W40581  25.555  22.628  11.599
76374W        W40582  33.387  42.506   3.245
76375W        W40583  38.512   1.966  12.918
76376W        W40584  30.531   7.386  11.074
76377W        W40585  15.120  42.373   0.929
76378W        W40586   5.197  16.079   3.859
76379W        W40587  20.208   3.230  14.827
76380W        W40588  29.147  17.083   1.881
76381W        W40589  11.758  43.880  11.002
76382W        W40590  13.344  13.705   3.261
76383W        W40591  30.600  17.068  13.446
76384W        W40592  10.752  13.228   4.129
76385W        W40593   9.323  41.299   4.351
76386W        W40594  28.065  21.173   3.732
76387W        W40595  29.459  37.833   4.138
76388W        W40596  39.440  33.114  11.548
76389W        W40597  12.639   0.450  12.081
76390W        W40598   0.766  33.410   9.590
76391W        W40599  28.929  22.229  12.578
76392W        W40600  15.618  36.846  10.077
76393W        W40601  23.497  24.036   3.166
76394W        W40602  42.901   1.370  14.367
76395W        W40603   3.925  35.870   1.216
76396W        W40604  15.320  29.528  10.948
76397W        W40605  24.002  36.842  10.529
76398W        W40606  19.586   6.203  14.768
76399W        W40607  44.393  23.522  11.391
76400W        W40608  44.398   2.293  12.865
76401W        W40609  40.046   3.385  12.927
76402W        W40610  44.499  38.904  10.905
76403W        W40611  20.208   3.233   4.826
76404W        W40612  29.452  11.825   4.248
76405W        W40613  27.501  43.843  11.973
76406W        W40614  41.407   2.323   4.786
76407W        W40615  26.090  14.686   2.318
76408W        W40616  23.065  33.918  12.978
76409W        W40617  32.983  32.392   4.809
76410W        W40618   8.706  26.000  14.902
76411W        W40619  34.588  22.213   2.681
76412W        W40620  23.164  39.498   1.368
76413W        W40621  21.159  14.135   2.666
76414W        W40622   9.660  16.265   2.357
76415W        W40623  32.922  19.114  10.573
76416W        W40624  41.312  44.830   4.735
76417W        W40625  34.902   0.924  11.934
76418W        W40626   3.939  37.011  12.379
76419W        W40627  15.102  25.681  10.530
76420W        W40628   3.324  25.700   0.901
76421W        W40629  10.297  36.007   0.320
76422W        W40630  24.689  40.443  11.971
76423W        W40631  36.025  15.273  14.302
76424W        W40632  12.219  13.110  12.375
76425W        W40633   8.850   4.357   4.828
76426W        W40634  32.564   1.275   3.746
76427W        W40635  27.167  33.116   0.286
76428W        W40636  26.971  19.726  11.511
76429W        W40637  29.992  44.472  10.454
76430W        W40638  28.182  31.598  13.866
76431W        W40639  34.940  30.460   0.360
76432W        W40640   3.838   2.861  11.991
76433W        W40641  20.245  21.046  10.082
76434W        W40642  18.203  26.583  12.399
76435W        W40643  34.058  34.112  13.426
76436W        W40644  23.657  34.463   2.803
76437W        W40645  20.236   7.762  10.999
76438W        W40646  22.609  24.066   4.819
76439W        W40647  18.173  19.632  11.032
76440W        W40648  44.846  12.775  13.539
76441W        W40649  18.263   6.690  13.793
76442W        W40650  12.834  43.840  13.026
76443W        W40651  10.720   0.279   1.694
76444W        W40652  16.600  42.397   1.795
76445W        W40653  30.102  32.404  13.997
76446W        W40654  11.222   8.248   3.273
76447W        W40655  22.526  39.973  11.567
76448W        W40656  14.114  44.338  12.385
76449W        W40657  13.308  18.191  10.923
76450W        W40658  20.707  22.164   3.316
76451W        W40659  35.052   4.803   4.644
76452W        W40660  37.912  19.638  12.532
76453W        W40661  27.116   2.294   2.793
76454W        W40662   8.677   2.871   2.686
76455W        W40663   0.429  33.018   5.592
76456W        W40664  29.151  16.115  14.477
76457W        W40665  39.906  37.039   3.338
76458W        W40666  29.103  41.992   2.791
76459W        W40667  16.775   2.727  10.897
76460W        W40668  44.360  21.134  10.512
76461W        W40669  14.209   3.379  13.883
76462W        W40670  34.924  34.886   3.717
76463W        W40671  37.981  13.785   3.343
76464W        W40672   3.414  43.501  11.011
76465W        W40673  15.690  22.191  14.410
76466W        W40674  26.668  19.251   2.342
76467W        W40675   0.253  18.604  13.526
76468W        W40676  42.857  29.610  11.574
76469W        W40677  24.500  31.606  14.013
76470W        W40678  22.505  11.238  12.943
76471W        W40679  19.231   5.288   4.280
76472W        W40680  39.391  27.688   4.354
76473W        W40681  41.408  31.978   2.413
76474W        W40682   8.733   8.184   4.815
76475W        W40683  12.171  10.271  12.879
76476W        W40684  31.526  44.291  11.895
76477W        W40685  35.381   3.219   5.268
76478W        W40686  12.618   7.261   3.272
76479W        W40687  21.710   0.483   4.784
76480W        W40688  32.555  10.217  11.931
76481W        W40689   3.889   0.854  11.586
76482W        W40690  37.356  10.712   1.372
76483W        W40691  31.099  11.653  11.573
76484W        W40692  16.177  24.628  10.461
76485W        W40693  34.909  38.377   4.214
76486W        W40694   8.880   5.429  13.946
76487W        W40695  36.055  34.547  11.506
76488W        W40696  44.868  28.144   0.249
76489W        W40697  35.453  18.740   4.725
76490W        W40698   2.464  32.537   0.258
76491W        W40699  24.567  37.429  11.929
76492W        W40700  25.582  11.189   2.180
76493W        W40701  29.137   9.871   2.860
76494W        W40702  32.934   6.831  12.486
76495W        W40703  44.397  22.084   1.326
76496W        W40704  15.302  43.884   3.755
76497W        W40705  33.425  31.412  13.876
76498W        W40706  22.619  18.672  11.450
76499W        W40707  34.404  29.058  14.999
76500W        W40708  10.863  39.943   4.725
76501W        W40709  25.578  37.913  11.969
76502W        W40710  34.511  10.259   3.695
76503W        W40711  39.546  30.031  13.488
76504W        W40712   0.329  42.836  10.514
76505W        W40713  44.909  14.284  11.929
76506W        W40714   3.253  27.990   3.316
76507W        W40715   3.751  35.864   4.122
76508W        W40716  32.573  17.116   4.754
76509W        W40717   4.238  43.772  12.900
76510W        W40718  42.018  31.121  14.894
76511W        W40719  13.845   5.256   0.412
76512W        W40720  39.018  24.156  13.791
76513W        W40721  41.507   4.906   2.221
76514W        W40722  29.502   7.695  14.994
76515W        W40723  27.561  22.617   1.720
76516W        W40724   3.413  35.070   3.167
76517W        W40725   8.170  29.085  14.347
76518W        W40726  27.195   9.869   3.361
76519W        W40727  35.073   2.960  10.938
76520W        W40728  23.679   4.845   2.876
76521W        W40729  25.711  15.666  12.893
76522W        W40730   1.478   8.829  14.782
76523W        W40731   3.220  41.975  11.987
76524W        W40732  30.558   8.219   4.197
76525W        W40733  27.170  28.477   3.727
76526W        W40734  41.026   8.190  14.027
76527W        W40735  15.704  14.805  11.483
76528W        W40736  33.033   5.295  11.007
76529W        W40737  33.514  32.568  10.008
76530W        W40738  12.807  22.510  10.406
76531W        W40739  24.162  15.301  14.423
76532W        W40740  24.658  20.751  12.857
76533W        W40741  25.216  28.609  12.861
76534W        W40742  24.563  36.850  14.454
76535W        W40743  31.532  20.581  10.594
76536W        W40744   0.882   0.965  12.839
76537W        W40745   7.211  44.461   1.271
76538W        W40746  33.977  33.616   0.806
76539W        W40747   1.802  20.561  12.472
76540W        W40748  44.008  33.460  14.412
76541W        W40749  40.518  42.845   4.630
76542W        W40750  27.156  17.616  12.565
76543W        W40751  16.136  23.553   4.626
76544W        W40752  36.083  38.471   2.399
76545W        W40753  21.537   6.864   3.289
76546W        W40754  19.087  33.076   4.120
76547W        W40755  41.924  26.556   0.872
76548W        W40756  32.933  33.022   1.317
76549W        W40757   2.385   1.973   3.638
76550W        W40758  33.588  27.460  14.489
76551W        W40759  44.437  19.701   2.732
76552W        W40760  35.442  15.788   1.857
76553W        W40761  34.523  41.845   1.216
76554W        W40762  33.918  27.072   0.758
76555W        W40763  15.732   3.278  12.493
76556W        W40764  30.934  12.848   2.226
76557W        W40765  35.603   7.225   3.863
76558W        W40766  26.046  31.062   2.667
76559W        W40767  10.777  33.050   3.270
76560W        W40768   0.932   6.736   0.938
76561W        W40769   0.453  39.337   3.699
76562W        W40770  17.615   9.838  13.801
76563W        W40771  34.968  37.477  14.921
76564W        W40772  14.634   5.388  14.430
76565W        W40773   9.194  13.819  13.394
76566W        W40774   5.379  22.007   1.365
76567W        W40775  20.529   9.857   1.920
76568W        W40776  19.221   6.745  12.070
76569W        W40777  13.669  16.210   2.666
76570W        W40778  13.832  36.591   4.815
76571W        W40779  18.640   1.319  14.392
76572W        W40780  36.029  44.965   1.406
76573W        W40781  42.394   5.789   1.840
76574W        W40782  24.133  37.057  14.510
76575W        W40783  22.603  21.206  13.042
76576W        W40784  13.319  30.121   0.833
76577W        W40785  35.968  25.644   1.360
76578W        W40786  12.118  40.988   3.684
76579W        W40787  19.641  17.646  14.336
76580W        W40788  21.147  39.452  14.411
76581W        W40789  38.471   3.254  12.899
76582W        W40790  23.122  42.499  14.823
76583W        W40791   5.740  27.961  12.826
76584W        W40792  33.071   8.795  11.594
76585W        W40793  17.566  44.965  11.384
76586W        W40794  28.544  37.894   4.117
76587W        W40795  20.103  29.512  10.573
76588W        W40796  44.393  21.567   1.728
76589W        W40797  21.634   3.351   4.734
76590W        W40798  28.068   8.389   2.818
76591W        W40799  41.793  27.501   2.769
76592W        W40800  25.589  44.824   4.688
76593W        W40801   1.395   1.977  14.839
76594W        W40802  42.018  28.613  14.479
76595W        W40803  37.844   3.756  11.422
76596W        W40804   1.250   5.885   3.656
76597W        W40805   1.392  29.013  12.573
76598W        W40806  39.904  38.969  10.538
76599W        W40807  33.401   0.298   0.350
76600W        W40808  31.539  30.495  14.005
76601W        W40809  43.943  22.119   1.914
76602W        W40810  37.910   2.367   4.757
76603W        W40811   3.941  11.173   1.243
76604W        W40812  28.672  25.000   0.840
76605W        W40813  21.753   7.880   3.163
76606W        W40814  12.116  29.988  10.979
76607W        W40815  34.425  28.937   2.819
76608W        W40816  17.108  14.195  13.442
76609W        W40817   3.229  15.703   1.378
76610W        W40818  19.724   2.445   4.277
76611W        W40819  14.688  18.560   0.417
76612W        W40820  18.758  39.055   0.904
76613W        W40821  36.843  43.329   1.319
76614W        W40822  23.701  39.396  11.102
76615W        W40823  40.525  32.531  11.599
76616W        W40824   8.351   2.934  14.793
76617W        W40825   6.782  29.061   0.915
76618W        W40826  30.009  13.705  13.502
76619W        W40827  43.769  22.017  11.582
76620W        W40828  24.209  24.492   3.727
76621W        W40829  21.035  14.601  13.364
76622W        W40830  12.311   2.352   0.757
76623W        W40831  20.648   1.741  13.919
76624W        W40832  17.571  20.157  11.000
76625W        W40833  12.286  10.840   4.167
76626W        W40834   6.689   7.295  12.078
76627W        W40835  31.583  19.580  11.115
76628W        W40836  29.084  43.393  13.819
76629W        W40837  33.420   3.924   2.718
76630W        W40838  24.709  20.766  11.454
76631W        W40839   4.928   0.437  12.358
76632W        W40840  41.856   1.863  11.438
76633W        W40841  37.950  34.519   0.384
76634W        W40842   1.470  32.391  14.002
76635W        W40843  21.262  34.490  13.017
76636W        W40844  31.122  44.451  11.948
76637W        W40845   9.831  43.435  11.864
76638W        W40846  22.720  30.609   1.728
76639W        W40847   0.328  38.845   0.385
76640W        W40848  21.234  42.799   4.163
76641W        W40849  28.659  18.709  11.384
76642W        W40850  25.652  42.510  14.795
76643W        W40851   3.951  38.965  11.922
76644W        W40852   6.865  44.972  11.594
76645W        W40853  34.003  30.956  11.989
76646W        W40854  37.926   0.381   1.300
76647W        W40855   2.834   8.249   1.712
76648W        W40856  34.869  17.670  11.605
76649W        W40857  13.329  36.591  13.436
76650W        W40858   3.720  39.512  13.485
76651W        W40859   3.307  17.793   0.814
76652W        W40860  38.358  43.007   1.742
76653W        W40861  26.663  35.019  13.392
76654W        W40862   7.715  32.024  12.036
76655W        W40863  44.269  23.577   4.350
76656W        W40864   9.796  30.066  10.449
76657W        W40865   4.315  26.468  10.496
76658W        W40866   4.383  31.573  12.843
76659W        W40867   4.744   5.702  14.287
76660W        W40868  24.134  26.482   0.783
76661W        W40869  29.153  24.138  10.986
76662W        W40870  15.608  36.062   3.203
76663W        W40871  37.559  25.989   0.870
76664W        W40872  33.384   3.776   4.202
76665W        W40873   9.387  24.178  14.876
76666W        W40874  17.278  17.177   5.189
76667W        W40875   9.848   0.256  14.495
76668W        W40876  23.209  37.014  14.421
76669W        W40877  44.292  12.271   4.262
76670W        W40878  44.791  33.618   0.953
76671W        W40879  41.937  29.108   1.894
76672W        W40880  10.804   6.374   4.627
76673W        W40881  27.042  10.749   0.482
76674W        W40882  21.727  32.931  13.900
76675W        W40883  39.418  26.480  12.868
76676W        W40884   2.824  31.134   1.786
76677W        W40885  32.062  21.609   2.735
76678W        W40886  27.583  44.325   3.188
76679W        W40887  39.030  11.664   2.760
76680W        W40888  20.695  26.157  10.610
76681W        W40889  22.031   2.761  13.508
76682W        W40890  19.605   8.215  10.978
76683W        W40891  14.779  38.071   4.619
76684W        W40892   8.737   7.856   2.286
76685W        W40893   6.847  41.003   2.370
76686W        W40894  21.100   8.233  11.513
76687W        W40895  19.163  10.720  12.393
76688W        W40896  27.034  15.158   2.331
76689W        W40897   9.326  20.132   3.270
76690W        W40898  22.544  41.966  10.939
76691W        W40899  41.425  12.704   3.184
76692W        W40900  36.577  38.999  10.905
76693W        W40901   5.698  30.473   2.879
76694W        W40902  37.409  23.708  14.429
76695W        W40903   0.817  26.545  12.539
76696W        W40904  31.917  21.129   3.871
76697W        W40905  37.921  30.132   2.255
76698W        W40906  34.441  12.832   4.353
76699W        W40907  14.222  13.795  11.905
76700W        W40908   3.423  42.388  11.869
76701W        W40909  12.344  37.462   4.304
76702W        W40910  11.361   4.735  12.511
76703W        W40911  40.383   2.318  11.086
76704W        W40912  35.005  17.651   4.161
76705W        W40913  28.126  20.724   0.276
76706W        W40914  28.180  28.996   0.288
76707W        W40915  26.630  19.053   3.362
76708W        W40916   0.908  44.500  10.069
76709W        W40917  40.823  27.997   1.837
76710W        W40918   5.824  26.497  12.985
76711W        W40919  21.530   3.847   2.681
76712W        W40920  43.811  33.617   3.786
76713W        W40921   9.850   3.239   3.837
76714W        W40922  40.869   1.367  13.834
76715W        W40923   1.413  43.802   2.675
76716W        W40924  31.936   3.787   1.279
76717W        W40925  43.513  17.651  13.908
76718W        W40926  22.168  10.679  14.451
76719W        W40927   3.763  41.384  12.414
76720W        W40928  32.512   0.453  14.857
76721W        W40929  20.042  42.369   3.817
76722W        W40930   7.829  36.525   2.247
76723W        W40931  18.548  12.195  12.920
76724W        W40932  18.687   6.184   0.791
76725W        W40933  22.635  19.081  11.050
76726W        W40934  15.767  22.060  11.583
76727W        W40935  21.750  42.882  13.898
76728W        W40936  10.875  21.057   1.268
76729W        W40937  36.566  17.710  14.439
76730W        W40938  14.805  20.587   0.301
76731W        W40939  23.094  40.034   0.470
76732W        W40940  44.434  11.697  14.504
76733W        W40941  20.595  22.181  13.904
76734W        W40942  41.425   0.279   3.769
76735W        W40943  38.053  36.878   4.638
76736W        W40944  36.525  33.467  13.535
76737W        W40945   6.708  24.552   0.315
76738W        W40946   2.966  41.944  14.386
76739W        W40947  37.492  12.737  14.439
76740W        W40948  27.999  27.520   0.364
76741W        W40949  41.423   7.347  12.341
76742W        W40950  41.903  25.206   3.337
76743W        W40951  23.087  34.395   2.788
76744W        W40952  35.917  28.584   1.238
76745W        W40953  10.749  41.813  14.885
76746W        W40954  37.935   5.290  13.498
76747W        W40955  23.127  12.777  10.962
76748W        W40956  44.314  41.408  12.424
76749W        W40957  40.395  14.102   5.153
76750W        W40958  27.979  26.967   4.740
76751W        W40959  21.718   6.294  12.499
76752W        W40960  34.094  39.003  14.826
76753W        W40961   6.251   8.303  12.958
76754W        W40962  26.689  36.367   3.733
76755W        W40963   9.718   5.906   2.254
76756W        W40964   7.786   1.415  14.770
76757W        W40965  27.007  39.334   1.305
76758W        W40966  40.430  37.368   1.298
76759W        W40967  11.704  27.594   3.692
76760W        W40968  18.077   0.301  12.090
76761W        W40969   2.425  22.586  13.898
76762W        W40970   9.359  15.259  10.579
76763W        W40971  19.083  27.655  10.980
76764W        W40972  42.387   7.889  10.425
76765W        W40973   2.308  17.244  13.922
76766W        W40974  16.132   2.890   0.296
76767W        W40975   5.346  13.726  13.362
76768W        W40976   7.734  44.977   3.385
76769W        W40977  38.986   9.734   4.738
76770W        W40978  23.531  17.697  13.965
76771W        W40979  35.430   7.692  10.428
76772W        W40980  35.428  21.752   0.910
76773W        W40981  38.063  12.774  11.995
76774W        W40982  16.601  13.804  14.940
76775W        W40983  32.603   3.359  14.972
76776W        W40984  31.968  43.877  11.395
76777W        W40985  26.127  20.549   0.823
76778W        W40986  14.609  20.692  12.576
76779W        W40987   3.710  22.690   2.710
76780W        W40988  35.880   8.753   3.290
76781W        W40989  39.976  22.669   1.821
76782W        W40990   7.798  31.441  14.866
76783W        W40991  39.524  26.058   1.316
76784W        W40992  43.863  40.323  13.833
76785W        W40993   6.244   3.945  13.056
76786W        W40994  19.277  25.711   1.700
76787W        W40995  29.080  11.804  13.531
76788W        W40996  39.486   8.294   0.894
76789W        W40997  34.873  23.545   5.168
76790W        W40998  25.706  38.871   4.278
76791W        W40999  13.144   7.404   2.275
76792W        W41000  33.573  26.475   5.197
76793W        W41001  23.613  31.093   0.347
76794W        W41002   5.193  25.040  12.974
76795W        W41003  37.934  26.628   1.932
76796W        W41004  33.053  44.951   4.814
76797W        W41005  27.124   2.393  13.812
76798W        W41006  20.217  15.184   4.330
76799W        W41007  42.469  23.152  10.909
76800W        W41008  41.372  13.809  12.921
76801W        W41009  13.688  33.406   0.815
76802W        W41010  32.571   7.907   1.700
76803W        W41011  38.974  19.682  13.534
76804W        W41012  22.711  42.839  13.385
76805W        W41013  32.140  22.661  11.558
76806W        W41014  30.542  37.920   3.160
76807W        W41015   8.166  22.203  11.599
76808W        W41016  31.018  23.018  12.900
76809W        W41017  29.145  33.927   2.283
76810W        W41018  24.992  44.929  10.588
76811W        W41019  25.126  26.072   1.797
76812W        W41020  38.831   2.862   0.915
76813W        W41021  40.882  10.649   0.412
76814W        W41022  35.497   8.789   4.671
76815W        W41023  19.714  24.028  11.983
76816W        W41024  37.956  33.492   0.773
76817W        W41025  23.093   4.758  12.408
76818W        W41026   3.851  13.715  12.071
76819W        W41027  28.129   7.848  14.893
76820W        W41028  40.420  39.985   1.859
76821W        W41029   2.779  42.283  13.317
76822W        W41030  12.279  43.278   2.393
76823W        W41031  20.150   8.264  13.515
76824W        W41032  37.991   2.859   4.617
76825W        W41033   4.727  14.672   0.896
76826W        W41034  18.752  17.694   3.161
76827W        W41035  42.779  23.218  13.931
76828W        W41036   8.261  37.991  11.413
76829W        W41037   8.322  37.844   1.869
76830W        W41038  12.308  15.779   1.717
76831W        W41039   5.267  15.309  14.775
76832W        W41040  12.286  27.082  14.909
76833W        W41041  24.640  11.829   1.377
76834W        W41042  31.951  36.453  13.891
76835W        W41043   0.422   6.882  11.414
76836W        W41044  15.199  32.998  10.887
76837W        W41045  21.227  38.947   3.739
76838W        W41046  26.051  34.597  14.438
76839W        W41047  13.749   3.893  13.897
76840W        W41048   3.745  21.093  12.448
76841W        W41049  19.655  19.253  10.589
76842W        W41050  38.492  21.578  12.404
76843W        W41051  15.318   1.868  13.433
76844W        W41052   7.686  42.865  14.423
76845W        W41053  33.547  10.728  12.404
76846W        W41054  36.515  35.505   2.767
76847W        W41055  13.230  34.387   1.416
76848W        W41056  15.796  40.532   3.165
76849W        W41057  37.008  23.536   1.732
76850W        W41058  24.529  39.317   1.263
76851W        W41059  28.981  43.780  11.405
76852W        W41060  39.023  34.481   1.262
76853W        W41061  31.453  27.973  10.916
76854W        W41062  39.383  18.727   1.881
76855W        W41063  38.359  27.169  13.047
76856W        W41064  33.944  35.514  11.896
76857W        W41065  34.937  16.763  14.793
76858W        W41066  27.646  41.389  13.920
76859W        W41067  17.718  11.683  12.060
76860W        W41068  24.480  21.191  10.989
76861W        W41069  26.590  33.059  10.002
76862W        W41070  15.627   1.384   1.734
76863W        W41071  30.047  31.035   1.872
76864W        W41072   7.287  41.474   2.730
76865W        W41073  27.956  11.729   4.291
76866W        W41074  40.419  18.637  13.865
76867W        W41075  31.039  18.213   2.225
76868W        W41076  26.677  10.358   2.213
76869W        W41077  33.560  15.718  14.947
76870W        W41078  24.094  19.533   4.666
76871W        W41079  30.062  36.039   1.241
76872W        W41080  20.223   0.338  14.024
76873W        W41081  17.295  41.514   0.316
76874W        W41082  17.189  40.053   9.962
76875W        W41083  34.945  27.120   2.671
76876W        W41084  13.132  28.940   3.215
76877W        W41085   1.250  23.236   3.781
76878W        W41086  16.127  26.074   0.833
76879W        W41087  23.561  37.402   1.222
76880W        W41088  32.533   7.708  11.117
76881W        W41089  42.390  30.479  12.899
76882W        W41090  28.125   4.863  12.539
76883W        W41091   2.859  28.001  11.931
76884W        W41092  15.102  37.997   5.210
76885W        W41093  14.329  36.919  14.280
76886W        W41094  37.915  41.421   1.903
76887W        W41095  20.645  37.867  10.604
76888W        W41096  14.267  18.260   4.282
76889W        W41097  17.177  23.715   3.722
76890W        W41098  26.490   5.197   2.204
76891W        W41099  22.178  19.678   5.134
76892W        W41100  28.971   2.745  11.062
76893W        W41101  38.344  33.011   4.260
76894W        W41102  38.886  37.501  10.996
76895W        W41103  12.835  37.403   4.253
76896W        W41104  15.643  21.078   5.170
76897W        W41105  15.305  21.701  11.483
76898W        W41106   6.250  23.677   0.456
76899W        W41107   1.772  27.147   0.824
76900W        W41108   4.758  17.608  13.321
76901W        W41109   8.222  38.450  14.854
76902W        W41110   7.842  14.197   5.223
76903W        W41111  42.018   3.940   2.739
76904W        W41112  10.371   0.455  12.523
76905W        W41113  26.024  19.639   1.767
76906W        W41114  35.926  43.969   1.815
76907W        W41115  39.533  29.648  14.020
76908W        W41116  10.237  26.473  10.965
76909W        W41117   7.405  29.514  10.911
76910W        W41118  44.961  42.808  12.392
76911W        W41119  44.403  31.565  11.934
76912W        W41120   3.825   9.189  14.876
76913W        W41121  24.680  18.185   4.697
76914W        W41122  12.850  17.769   4.245
76915W        W41123  20.256  38.878   0.876
76916W        W41124  40.862   9.796  13.453
76917W        W41125   0.412  15.211   1.901
76918W        W41126  22.218  23.233  10.533
76919W        W41127  33.924   8.242  11.960
76920W        W41128   9.372  37.882  14.463
76921W        W41129  43.506  39.391  12.068
76922W        W41130  33.533   3.835   4.786
76923W        W41131  35.560   7.722   4.797
76924W        W41132  12.840  29.561  13.441
76925W        W41133   0.261  34.468   0.743
76926W        W41134  16.701  38.362  12.535
76927W        W41135  40.306  32.452  12.477
76928W        W41136  13.159  38.366   4.624
76929W        W41137  10.240   5.741   1.870
76930W        W41138  32.611  15.182  11.432
76931W        W41139  12.813   8.385   4.346
76932W        W41140  41.017  14.672  11.379
76933W        W41141  28.078  10.142   1.332
76934W        W41142  33.532  16.306   5.732
76935W        W41143  11.180  27.952  12.866
76936W        W41144  19.073  38.357   0.253
76937W        W41145  28.024  19.687  11.098
76938W        W41146  22.206  29.125  13.007
76939W        W41147  39.047  35.424  14.849
76940W        W41148  33.965  41.903  14.777
76941W        W41149   6.197   5.787   0.344
76942W        W41150  12.294   8.683   1.432
76943W        W41151  18.606  37.079   0.407
76944W        W41152  10.674   1.868   0.828
76945W        W41153  43.908  34.538   1.914
76946W        W41154   6.352  42.371   2.306
76947W        W41155  36.525  13.625  14.985
76948W        W41156  27.940   9.151   2.314
76949W        W41157  22.652  43.843  11.540
76950W        W41158  21.737  18.073  11.995
76951W        W41159   8.656  18.608  11.970
76952W        W41160  42.289   8.810  14.487
76953W        W41161  39.822   2.746   4.229
76954W        W41162   0.363  39.377  12.392
76955W        W41163  37.519  27.683  13.911
76956W        W41164  25.637  34.430   0.881
76957W        W41165  37.339  13.329   5.250
76958W        W41166  25.501  13.611  14.968
76959W        W41167  28.966  27.147   0.856
76960W        W41168  11.696  21.109  10.108
76961W        W41169  38.326   6.774  14.483
76962W        W41170  36.951  10.167   4.666
76963W        W41171   5.734   1.972  11.536
76964W        W41172  31.451  15.806   2.242
76965W        W41173   1.745  11.829  10.999
76966W        W41174  38.916  32.966  13.472
76967W        W41175   0.832  33.431  10.938
76968W        W41176  42.923   9.259  11.549
76969W        W41177   5.225   3.831  12.903
76970W        W41178  15.090  24.648  11.551
76971W        W41179  12.352  35.049   1.255
76972W        W41180   1.860  23.996  13.484
76973W        W41181  22.076  23.062   3.161
76974W        W41182  12.754  18.158   3.753
76975W        W41183  27.090  21.031   1.417
76976W        W41184  22.513  30.474   3.213
76977W        W41185  14.762  16.237  11.580
76978W        W41186  36.521  25.504  12.874
76979W        W41187  15.174   8.750   4.244
76980W        W41188   4.265  24.205  11.945
76981W        W41189   9.357  18.703   2.894
76982W        W41190  16.780   1.359   3.284
76983W        W41191   3.744  12.723  12.928
76984W        W41192  38.905   7.213   4.331
76985W        W41193   6.290   4.378  13.361
76986W        W41194   2.458  31.431   0.782
76987W        W41195  12.783  39.406  11.099
76988W        W41196  27.592  33.451  13.947
76989W        W41197  23.001  14.296  12.465
76990W        W41198  38.329  31.525   3.664
76991W        W41199  20.106   9.711  10.115
76992W        W41200  15.617  30.650   1.371
76993W        W41201  19.256   0.848   3.703
76994W        W41202   7.847  28.631   2.882
76995W        W41203   6.212   7.186   9.961
76996W        W41204  27.986  39.463   4.696
76997W        W41205  26.698  25.134   4.156
76998W        W41206   0.489   5.319   0.277
76999W        W41207  16.312   3.443  13.004
77000W        W41208  10.169  19.085   0.267
77001W        W41209  17.563  36.869  13.487
77002W        W41210   2.417   2.821  11.472
77003W        W41211  39.015  21.718   0.432
77004W        W41212  17.205  10.171   5.194
77005W        W41213  17.598  28.184   2.411
77006W        W41214   4.866  24.134   2.368
77007W        W41215  34.916   9.678   0.336
77008W        W41216  34.034  14.339  12.535
77009W        W41217  34.562   6.882   1.932
77010W        W41218   9.213  42.375  14.922
77011W        W41219  39.964  36.020  13.394
77012W        W41220  40.933   7.834  12.393
77013W        W41221  26.048  22.727   4.268
77014W        W41222   3.735   0.480   3.636
77015W        W41223  39.508  35.087   4.211
77016W        W41224   7.734  44.322  10.980
77017W        W41225  18.180  12.179   1.359
77018W        W41226  37.572   6.354  14.761
77019W        W41227  34.072  16.226  12.025
77020W        W41228  26.003   3.219  14.865
77021W        W41229  25.617   5.738   2.694
77022W        W41230  27.964  34.999  14.865
77023W        W41231   5.273  19.554  10.996
77024W        W41232  22.723  38.502   2.815
77025W        W41233  25.972  29.494   3.158
77026W        W41234  11.653  34.117   3.174
77027W        W41235   2.823  10.819   4.202
77028W        W41236   2.316  13.682   3.214
77029W        W41237  35.064  28.148  13.453
77030W        W41238  24.494  13.708  10.947
77031W        W41239  13.707  33.464   0.435
77032W        W41240   2.754  16.220   4.759
77033W        W41241  34.557   6.335   3.667
77034W        W41242   0.750  23.585  10.143
77035W        W41243  28.614  26.022   3.669
77036W        W41244  30.057  30.577  14.854
77037W        W41245  41.360  27.599   2.206
77038W        W41246  13.301  33.475  14.351
77039W        W41247   4.205   0.297  14.413
77040W        W41248  43.357  15.589  13.536
77041W        W41249   4.727  33.583   3.798
77042W        W41250  41.424  15.616  14.401
77043W        W41251  14.696  10.772   1.381
77044W        W41252   0.935  43.898  11.509
77045W        W41253  38.972  25.704   4.282
77046W        W41254  15.645   9.256  13.423
77047W        W41255  39.003  31.052   4.149
77048W        W41256  14.143  17.240  12.068
77049W        W41257   3.396  29.956  12.468
77050W        W41258   4.365  23.555  14.967
77051W        W41259   6.676  18.611  14.008
77052W        W41260   6.203  20.756  12.495
77053W        W41261  32.509  13.234   1.434
77054W        W41262  36.417  37.087   3.629
77055W        W41263   1.782   0.958  14.966
77056W        W41264  43.975  15.198  13.022
77057W        W41265  31.153  17.174  13.840
77058W        W41266   3.375  10.638   3.335
77059W        W41267   0.291  18.566   3.384
77060W        W41268   7.881  35.596   0.283
77061W        W41269  37.471  34.089   1.836
77062W        W41270  31.929  24.548   3.712
77063W        W41271   1.935   3.810   3.654
77064W        W41272  20.234  15.592   3.210
77065W        W41273  36.908  14.137  13.453
77066W        W41274   0.801  21.085   1.916
77067W        W41275  28.642  31.623   0.901
77068W        W41276  25.686  11.257  14.512
77069W        W41277   0.363  41.000   3.300
77070W        W41278  10.178  29.127   5.184
77071W        W41279  41.497  41.852   4.656
77072W        W41280  12.611  19.730  12.534
77073W        W41281  30.087  34.490  13.475
77074W        W41282  41.809  42.906  14.910
77075W        W41283   6.731  19.228   3.664
77076W        W41284  35.425  33.893  10.506
77077W        W41285  10.354  15.807  14.283
77078W        W41286  31.964  29.548  12.534
77079W        W41287  37.479   5.274   0.816
77080W        W41288  38.474  13.838   4.122
77081W        W41289  10.835  19.074  14.340
77082W        W41290  31.427  44.430  13.003
77083W        W41291  32.107  32.621  11.515
77084W        W41292  20.661  29.530  11.576
77085W        W41293  30.910   8.260  12.346
77086W        W41294  18.776  12.824   3.277
77087W        W41295   8.875  14.730   3.690
77088W        W41296  32.124  27.180  12.462
77089W        W41297  26.990   8.248   3.239
77090W        W41298  31.001   4.300  14.300
77091W        W41299  36.873  33.010   0.334
77092W        W41300  16.641  20.172  11.072
77093W        W41301   4.218  40.538   0.812
77094W        W41302   1.825  18.734  14.419
77095W        W41303  36.070   2.811  11.598
77096W        W41304  13.684  40.494   1.288
77097W        W41305   0.771   5.227  12.530
77098W        W41306  27.572   6.323   2.232
77099W        W41307  13.601  21.249   2.724
77100W        W41308  31.133  37.998  13.917
77101W        W41309  36.935  15.818  14.949
77102W        W41310  12.222   0.837  11.517
77103W        W41311  44.763  37.944  10.889
77104W        W41312  10.746   0.891  12.853
77105W        W41313  24.053  31.423  13.889
77106W        W41314  44.305  18.105  14.934
77107W        W41315   7.198  25.699  10.510
77108W        W41316  37.500  29.616  12.382
77109W        W41317  26.585  44.409  12.096
77110W        W41318  22.686  18.668   0.434
77111W        W41319  40.853  13.613   3.867
77112W        W41320  37.923  23.585   0.317
77113W        W41321  30.463  31.925  13.888
77114W        W41322  33.104  43.482   0.821
77115W        W41323  14.761  36.900  12.834
77116W        W41324  26.162  36.461   2.815
77117W        W41325  15.599  12.675  11.955
77118W        W41326  41.962  28.629   4.193
77119W        W41327   7.263  30.027   3.295
77120W        W41328   5.761  44.297   0.877
77121W        W41329  23.010  27.533  10.981
77122W        W41330  24.666  24.072  11.097
77123W        W41331  40.843  20.538   0.859
77124W        W41332  20.062   8.715   4.729
77125W        W41333   3.869  24.523   0.785
77126W        W41334  13.173  16.703   0.749
77127W        W41335  17.175  14.130  14.378
77128W        W41336  28.572  17.642   3.824
77129W        W41337  38.014  26.121  13.524
77130W        W41338  24.212   6.387  12.896
77131W        W41339  17.240  27.450   1.699
77132W        W41340  41.374  41.881   2.838
77133W        W41341  36.027  21.174  14.849
77134W        W41342  21.754  33.610   0.877
77135W        W41343  26.001  18.674   1.395
77136W        W41344  21.712  31.120   1.727
77137W        W41345  22.613  42.998   0.952
77138W        W41346  41.395  40.868  11.062
77139W        W41347  42.875   0.455  10.995
77140W        W41348   9.205  40.510   0.848
77141W        W41349   8.668  16.192   0.892
77142W        W41350  10.299  33.390  13.927
77143W        W41351  41.453  11.303   4.711
77144W        W41352  21.144  21.255  13.476
77145W        W41353  11.778  11.669   2.301
77146W        W41354  27.173  31.412  12.376
77147W        W41355  28.641  41.801  13.816
77148W        W41356  18.680   0.279  10.064
77149W        W41357  39.396  43.855   4.692
77150W        W41358  18.092  23.062   4.195
77151W        W41359   8.789  21.597   0.248
77152W        W41360  15.185   7.253  14.009
77153W        W41361  13.825   7.382  10.481
77154W        W41362  16.798  24.996  12.944
77155W        W41363   8.298   9.849  11.453
77156W        W41364   3.425  27.609  14.390
77157W        W41365  25.644  30.446   4.699
77158W        W41366  17.294  19.542  10.527
77159W        W41367   1.919  36.497  13.827
77160W        W41368  30.584   6.204  12.497
77161W        W41369  41.342   3.813   1.787
77162W        W41370   1.458   2.385  14.495
77163W        W41371  10.737   8.193   0.296
77164W        W41372  31.558  11.843   4.123
77165W        W41373  17.182  22.010   3.220
77166W        W41374  21.212  31.646   3.283
77167W        W41375  44.929  22.126   3.742
77168W        W41376   1.372  24.580  10.970
77169W        W41377  17.606  33.422   0.395
77170W        W41378  15.132  16.235  13.961
77171W        W41379   7.345  35.498   1.768
77172W        W41380  35.460  26.618   3.279
77173W        W41381  17.734  37.895  10.634
77174W        W41382  41.961   8.740  10.907
77175W        W41383  17.637  11.371   2.817
77176W        W41384  34.541   2.843  11.478
77177W        W41385  28.479  35.574   1.702
77178W        W41386  38.562  41.310  11.031
77179W        W41387  31.102  38.979  12.013
77180W        W41388  23.152  24.611  12.957
77181W        W41389  28.527   8.899  13.325
77182W        W41390  28.636  39.817  11.567
77183W        W41391  38.045  11.348   4.811
77184W        W41392  36.913  12.331  11.033
77185W        W41393  43.981  35.376   4.191
77186W        W41394   3.787  23.646  12.852
77187W        W41395  16.752  44.001  11.870
77188W        W41396  28.646  34.996   2.197
77189W        W41397  15.731   2.817  10.925
77190W        W41398  29.990  39.047  10.438
77191W        W41399  31.435  42.005  10.532
77192W        W41400  35.000  28.539  13.346
77193W        W41401   8.232  44.286   2.795
77194W        W41402  35.486  26.136   4.303
77195W        W41403  40.481  28.055  11.471
77196W        W41404  11.210  14.274  11.562
77197W        W41405  37.567   5.224  12.059
77198W        W41406  14.701  36.970  10.964
77199W        W41407  25.129  21.123  14.762
77200W        W41408   2.332   6.839  10.579
77201W        W41409  44.413  43.343  13.903
77202W        W41410  16.292  43.829   4.133
77203W        W41411  25.502  29.542   3.740
77204W        W41412   1.315  19.716  11.374
77205W        W41413  30.496   7.333   3.159
77206W        W41414  29.049  18.137   4.786
77207W        W41415  40.806  19.620   4.608
77208W        W41416  39.832   8.199   0.264
77209W        W41417  44.927  24.681  13.422
77210W        W41418  12.183   8.217   0.406
77211W        W41419  31.077  42.881  13.538
77212W        W41420  31.529  10.297   1.791
77213W        W41421  10.201   5.909   3.679
77214W        W41422  19.050  30.079  12.491
77215W        W41423  34.881  40.435   4.331
77216W        W41424  38.005   4.429   2.873
77217W        W41425  43.504  25.618  11.983
77218W        W41426  43.362   6.814  12.005
77219W        W41427   3.789  39.017   1.734
77220W        W41428  33.433  12.611  13.016
77221W        W41429   6.801   1.819  11.411
77222W        W41430   0.757  13.209  14.031
77223W        W41431  41.530  30.490  13.042
77224W        W41432   3.411   1.315   0.475
77225W        W41433  15.133  31.907   3.760
77226W        W41434   2.468  28.641   2.247
77227W        W41435  32.911   5.789  11.018
77228W        W41436  19.747  27.093   2.359
77229W        W41437   9.316  42.934  11.471
77230W        W41438  32.544  37.474  12.454
77231W        W41439  10.272   4.745  12.407
77232W        W41440  36.383  15.192  14.029
77233W        W41441   9.290  14.143  10.105
77234W        W41442  42.890  25.539  12.456
77235W        W41443  10.683   1.483   2.181
77236W        W41444  38.487  37.014  11.861
77237W        W41445  12.832  26.972   3.178
77238W        W41446  29.509  19.599  12.918
77239W        W41447   0.886  35.974  12.573
77240W        W41448  25.081  10.336  14.027
77241W        W41449  40.325  28.492   0.810
77242W        W41450  26.669  41.310  13.473
77243W        W41451   5.281   1.241   2.216
77244W        W41452  26.504  35.970   2.238
77245W        W41453   0.758  36.018   2.415
77246W        W41454  11.149  41.013  12.545
77247W        W41455  10.769  17.669  10.595
77248W        W41456  12.852  41.917   4.269
77249W        W41457  21.554  37.562   0.338
77250W        W41458  24.513  25.109  14.460
77251W        W41459  26.501  25.639  14.340
77252W        W41460   3.743  21.135   0.363
77253W        W41461  31.989  31.941   2.708
77254W        W41462  37.986   5.908  12.978
77255W        W41463  33.120  43.907  11.916
77256W        W41464  40.048   9.344  11.129
77257W        W41465  10.272   5.753   2.694
77258W        W41466  43.802  19.066   1.219
77259W        W41467   4.906   2.958   4.806
77260W        W41468   3.344  10.822  14.431
77261W        W41469  38.899   9.795  14.502
77262W        W41470  16.805  17.188  12.454
77263W        W41471  26.538   2.333  13.544
77264W        W41472  23.222   2.824  11.879
77265W        W41473   3.801  42.393   3.816
77266W        W41474  34.114   1.444  12.864
77267W        W41475  13.824  41.469   0.413
77268W        W41476  41.498  21.592   3.250
77269W        W41477   8.850  32.975   2.704
77270W        W41478   3.281  39.873  11.017
77271W        W41479  15.607  15.185   2.809
77272W        W41480  38.022  21.684   0.966
77273W        W41481  22.035  20.746   4.838
77274W        W41482  14.254   7.267  13.493
77275W        W41483  14.199  19.061   4.658
77276W        W41484  33.076  28.520   0.887
77277W        W41485  25.470  32.929   0.247
77278W        W41486  15.729  43.405   2.350
77279W        W41487  19.191  13.794   0.869
77280W        W41488  34.930  38.562   4.656
77281W        W41489  18.287  41.459   2.756
77282W        W41490  26.093  29.973  11.433
77283W        W41491  23.579  41.846   3.772
77284W        W41492  17.137  34.412  13.317
77285W        W41493  16.591  35.485  12.063
77286W        W41494  18.718  25.135   3.769
77287W        W41495   1.859  28.099  11.074
77288W        W41496  12.805  10.330  11.578
77289W        W41497   6.311   7.394   0.247
77290W        W41498  26.664  42.514  13.840
77291W        W41499  18.631  35.957  12.982
77292W        W41500  26.185  36.042  13.879
77293W        W41501  20.734  32.921   4.326
77294W        W41502  23.990  34.963   1.373
77295W        W41503  15.315  26.123  12.343
77296W        W41504  40.882  18.698  12.406
77297W        W41505   9.712  29.983  14.501
77298W        W41506  19.560  24.164  12.425
77299W        W41507  23.133  30.040   1.265
77300W        W41508   4.727  13.789  12.430
77301W        W41509  39.373  16.213   2.739
77302W        W41510  12.619  33.033   1.798
77303W        W41511  21.618  29.093  11.519
77304W        W41512  25.647  25.605   1.398
77305W        W41513   0.276  44.769   0.935
77306W        W41514  43.295  19.152   4.295
77307W        W41515  40.344  43.493   3.336
77308W        W41516  36.960   4.263  13.474
77309W        W41517  42.485  40.473  12.521
77310W        W41518   5.743  17.085  13.799
77311W        W41519  41.360   6.760  11.953
77312W        W41520  42.899  32.995  14.409
77313W        W41521  17.192  28.960  10.541
77314W        W41522  32.462  13.248   2.331
77315W        W41523  15.612  29.648   0.391
77316W        W41524  26.589  41.525   0.848
77317W        W41525  12.845  37.372  14.834
77318W        W41526  24.215  42.444   2.683
77319W        W41527  41.861  33.551   3.768
77320W        W41528  36.078  31.484  12.080
77321W        W41529  31.507  12.274   0.259
77322W        W41530  10.748  23.621   0.473
77323W        W41531  14.218  39.980  10.484
77324W        W41532  26.514  35.980  11.500
77325W        W41533  44.815   2.809  13.401
77326W        W41534  25.205  10.844  10.437
77327W        W41535  26.082  36.462   1.694
77328W        W41536  10.841  31.975  11.464
77329W        W41537  35.936  26.688  11.987
77330W        W41538  25.467  31.012  11.117
77331W        W41539  22.026   7.704  11.497
77332W        W41540  37.034  22.065   3.303
77333W        W41541  37.898  36.592  14.030
77334W        W41542  42.943  32.509   1.760
77335W        W41543  40.381  15.744   2.239
77336W        W41544  26.681  29.023  12.046
77337W        W41545   6.885  34.069   3.175
77338W        W41546  42.030  31.068   4.696
77339W        W41547  34.481   7.884  11.098
77340W        W41548  42.986  26.599  10.461
77341W        W41549  31.507  27.662   1.775
77342W        W41550   9.338  33.573   3.844
77343W        W41551  34.601  13.238  12.440
77344W        W41552  31.402  41.309   2.875
77345W        W41553  32.894  37.465  11.965
77346W        W41554  38.935  31.422   0.412
77347W        W41555   1.321  23.224  11.883
77348W        W41556  33.067  21.021   1.748
77349W        W41557  37.473  21.529  14.398
77350W        W41558  19.228   8.361  11.107
77351W        W41559  14.309  23.513   1.241
77352W        W41560  23.689   3.454   2.900
77353W        W41561  15.098  27.641  13.315
77354W        W41562  12.120   9.220  13.418
77355W        W41563  23.057  38.047   0.397
77356W        W41564  22.706  14.834   2.282
77357W        W41565  20.111  31.468  13.923
77358W        W41566  11.845  35.030  10.416
77359W        W41567  27.523   1.436  13.951
77360W        W41568  19.155  23.599   1.817
77361W        W41569  11.286  34.417   3.226
77362W        W41570  37.376  14.250   4.348
77363W        W41571  38.863  30.146   2.829
77364W        W41572  43.810  26.553   2.848
77365W        W41573  25.664  11.808   4.726
77366W        W41574   8.327  20.724  14.295
77367W        W41575   6.738  40.486   1.793
77368W        W41576  40.935  14.671  12.499
77369W        W41577   2.879  22.218   2.746
77370W        W41578  28.005   0.411   4.687
77371W        W41579  39.956  20.574   1.439
77372W        W41580  13.733  20.767   2.844
77373W        W41581   3.442  35.926  14.336
77374W        W41582  23.235  30.452   2.312
77375W        W41583  21.184  17.233   1.220
77376W        W41584  15.194   7.802  13.407
77377W        W41585  29.509  32.029  11.035
77378W        W41586  35.458  39.943   4.353
77379W        W41587   2.828  12.250   1.404
77380W        W41588   3.255   4.745   2.227
77381W        W41589  11.314  11.647  12.857
77382W        W41590  36.485  26.493  14.797
77383W        W41591   0.907  13.668   1.242
77384W        W41592  16.207  23.051  13.461
77385W        W41593  16.141  34.495  13.888
77386W        W41594  28.438  17.174  12.506
77387W        W41595  26.527   4.330  12.540
77388W        W41596  18.152  11.769   1.817
77389W        W41597  32.034   1.891   2.407
77390W        W41598  13.834   9.688   4.320
77391W        W41599  40.402  33.510   1.897
77392W        W41600  19.545  36.852   1.860
77393W        W41601   7.699  10.207  10.035
77394W        W41602  22.096   7.252  12.840
77395W        W41603  24.030   6.770  13.802
77396W        W41604  24.685  10.219   4.621
77397W        W41605   7.895   6.684   3.653
77398W        W41606  16.723  39.957  14.281
77399W        W41607   8.894  15.757   4.632
77400W        W41608   5.329  26.591   1.386
77401W        W41609  19.145  38.448   1.760
77402W        W41610   4.896  21.518  13.543
77403W        W41611  23.680  31.437  11.557
77404W        W41612  40.425  15.707   4.647
77405W        W41613  44.333  11.228  11.109
77406W        W41614  19.705  40.549   0.305
77407W        W41615  32.455  10.187  12.474
77408W        W41616  26.133  19.225  11.521
77409W        W41617  34.039  32.588   2.271
77410W        W41618  16.083   3.334   5.130
77411W        W41619  32.049  41.468  14.011
77412W        W41620   1.769  44.808   3.651
77413W        W41621  33.381  30.436   1.268
77414W        W41622  43.970   7.902   4.240
77415W        W41623  20.257  14.220  12.563
77416W        W41624  17.301  13.318  12.398
77417W        W41625  41.984   3.437  14.827
77418W        W41626  40.898  23.633   2.807
77419W        W41627  44.405  37.874   2.844
77420W        W41628  42.297  43.000  10.109
77421W        W41629   9.213  43.984  13.048
77422W        W41630  29.061   3.851  10.934
77423W        W41631  36.373  18.131  13.427
77424W        W41632  14.729  10.760  13.008
77425W        W41633  14.283  10.749   3.800
77426W        W41634  40.994  26.104  11.537
77427W        W41635  44.947   8.258  14.804
77428W        W41636   6.846  30.952   1.224
77429W        W41637  23.155   6.865   2.849
77430W        W41638  13.207  13.219  13.863
77431W        W41639  42.855  38.847  13.037
77432W        W41640  44.292  36.982  14.884
77433W        W41641  14.785   7.783  11.545
77434W        W41642  32.937   8.776   2.886
77435W        W41643  11.186  26.994  11.546
77436W        W41644   2.738  31.928  12.035
77437W        W41645  19.602   1.813  10.072
77438W        W41646  39.510  11.157   1.718
77439W        W41647  36.967  30.058  13.473
77440W        W41648  18.599  19.250   2.734
77441W        W41649  18.710  28.508  14.481
77442W        W41650  34.597  44.869   0.951
77443W        W41651  24.593  28.457   3.732
77444W        W41652  31.608  44.784   2.281
77445W        W41653  37.422  13.140  13.528
77446W        W41654  41.461  12.230  12.070
77447W        W41655  15.136  17.558  10.452
77448W        W41656   5.828  23.106   0.900
77449W        W41657  14.222  32.903  14.861
77450W        W41658   1.442  14.608   2.675
77451W        W41659  32.432  16.756  14.935
77452W        W41660  30.471  44.379   9.940
77453W        W41661   4.384  39.331   3.742
77454W        W41662  43.794  20.100   2.892
77455W        W41663   6.385  41.485  12.494
77456W        W41664  20.202   7.202  11.453
77457W        W41665  37.034  32.451   2.701
77458W        W41666  29.626  40.807  11.913
77459W        W41667  37.504  13.338  14.006
77460W        W41668  37.055   9.803  14.487
77461W        W41669  23.720  32.041  11.071
77462W        W41670  21.248   4.794  11.089
77463W        W41671  35.523  31.133   4.640
77464W        W41672   9.758   4.822   1.817
77465W        W41673  30.971  23.152   2.320
77466W        W41674  42.331   6.317   2.693
77467W        W41675   9.154  28.117   4.210
77468W        W41676  32.506  31.500   1.927
77469W        W41677  28.518  38.874   2.668
77470W        W41678  36.363  17.192  11.936
77471W        W41679  10.647  38.554  13.419
77472W        W41680   3.375  11.697   1.437
77473W        W41681  43.805  17.303   0.888
77474W        W41682   3.325  24.096  10.499
77475W        W41683  18.677  10.829   0.248
77476W        W41684  22.641  36.530  12.570
77477W        W41685  27.465   3.337  14.443
77478W        W41686  43.863  32.405   0.246
77479W        W41687  14.830  32.139   0.929
77480W        W41688   1.314  25.219  14.010
77481W        W41689   8.235  43.813   3.199
77482W        W41690   4.252  10.242  12.505
77483W        W41691  30.919   5.784  10.538
77484W        W41692   7.251   5.431  12.967
77485W        W41693  43.951  23.022   2.683
77486W        W41694  17.774  30.470  12.943
77487W        W41695  17.721   5.831   0.247
77488W        W41696   8.320  31.052  12.579
77489W        W41697  14.597  12.328   4.221
77490W        W41698  36.976  29.984   4.117
77491W        W41699  29.162  13.712  11.524
77492W        W41700  14.713  21.664  13.808
77493W        W41701  15.280  33.948  11.517
77494W        W41702  21.192   5.283  10.993
77495W        W41703  34.985   1.821  10.129
77496W        W41704   6.795  18.209   4.761
77497W        W41705   5.218  28.979  11.587
77498W        W41706   8.786  19.582   2.865
77499W        W41707  25.031  38.852   1.924
77500W        W41708  18.688  25.159  13.829
77501W        W41709   5.872  31.029  12.877
77502W        W41710  23.650  44.843   0.387
77503W        W41711  20.649  43.510  14.364
77504W        W41712   2.463  41.449   3.246
77505W        W41713  10.259  15.237   3.221
77506W        W41714   9.890  18.279   0.401
77507W        W41715  13.212  23.566  14.984
77508W        W41716  33.542  41.967  10.529
77509W        W41717  42.340   8.302   3.797
77510W        W41718  31.001  14.178  12.020
77511W        W41719  31.637  32.891   0.953
77512W        W41720  41.915   2.391  12.834
77513W        W41721  16.318  22.732  12.575
77514W        W41722  42.365  18.754  12.533
77515W        W41723  22.030  39.000   0.850
77516W        W41724   8.219  11.653   4.790
77517W        W41725  19.160  18.675  11.080
77518W        W41726  29.011  18.140  12.448
77519W        W41727  25.617   7.908  13.893
77520W        W41728  14.705  19.721   3.201
77521W        W41729  37.466   5.817  14.980
77522W        W41730  22.513   6.423  12.843
77523W        W41731  11.681  35.882   4.208
77524W        W41732   5.848  23.996  13.854
77525W        W41733  29.074   9.305  11.474
77526W        W41734  18.107  13.770   2.686
77527W        W41735  27.024   3.745  14.316
77528W        W41736   9.369  20.243   4.213
77529W        W41737   7.177  40.940  10.924
77530W        W41738  25.089  31.996   3.648
77531W        W41739  21.529  44.988   3.229
77532W        W41740  26.550  16.178   1.439
77533W        W41741  33.387  18.617   0.437
77534W        W41742  12.259  18.139   2.718
77535W        W41743  18.789  35.017   3.632
77536W        W41744  24.520  34.053  11.012
77537W        W41745   7.318   6.210  11.920
77538W        W41746  22.505  19.086  14.983
77539W        W41747  20.645  34.532  13.004
77540W        W41748  27.161  20.602   4.747
77541W        W41749  12.189  29.437   0.939
77542W        W41750  41.799  14.285   1.897
77543W        W41751  26.132   1.346   2.287
77544W        W41752  12.217  30.909   0.885
77545W        W41753  14.248  16.812   4.734
77546W        W41754  37.087  33.988   1.346
77547W        W41755  34.975  43.919  12.577
77548W        W41756  16.265  11.222   0.470
77549W        W41757  28.674   7.183  13.413
77550W        W41758   3.953  15.185  11.942
77551W        W41759  30.448  25.602   2.328
77552W        W41760  33.930  13.643  14.789
77553W        W41761   3.346   2.327   1.355
77554W        W41762   3.892   0.479  10.600
77555W        W41763  36.489   2.952  13.822
77556W        W41764   4.351  35.087  14.393
77557W        W41765  22.211  26.620   4.778
77558W        W41766  13.831  40.918  12.066
77559W        W41767  44.955   0.927  13.353
77560W        W41768  24.495   0.816   2.295
77561W        W41769  16.122  25.702   2.283
77562W        W41770  13.337   1.747  12.003
77563W        W41771  16.709   4.406   3.173
77564W        W41772  10.774   6.250  11.017
77565W        W41773  38.938   2.904   1.288
77566W        W41774   2.757   4.321  10.906
77567W        W41775   2.316  26.657   0.267
77568W        W41776  16.272  35.057  11.107
77569W        W41777  34.511  21.037  10.461
77570W        W41778  37.518  11.772  10.594
77571W        W41779  28.554  14.761   3.238
77572W        W41780  31.137   4.221   4.258
77573W        W41781  12.319   4.252   4.272
77574W        W41782  23.699  19.676  13.808
77575W        W41783  26.541  24.494  14.510
77576W        W41784   7.873  28.931   1.391
77577W        W41785  19.221  21.070   2.306
77578W        W41786   5.324  39.404   4.129
77579W        W41787  28.670   5.791  12.395
77580W        W41788  10.661   7.386  12.049
77581W        W41789  24.114  42.001  13.476
77582W        W41790  23.598  31.926  14.758
77583W        W41791  13.230  28.540  14.777
77584W        W41792   2.411  39.402   3.719
77585W        W41793  11.693  36.050  13.461
77586W        W41794  29.927   4.846  13.937
77587W        W41795  30.652  43.792   4.797
77588W        W41796  24.145   8.754  11.940
77589W        W41797  30.156  22.169  10.959
77590W        W41798  27.190   6.837   1.404
77591W        W41799   0.913   0.829   2.903
77592W        W41800   7.675  21.170  10.475
77593W        W41801  10.221   2.409  14.302
77594W        W41802  37.020   5.410   0.425
77595W        W41803  15.089  42.382   4.143
77596W        W41804  22.646  17.586   4.204
77597W        W41805  40.532  17.603   9.952
77598W        W41806  19.569  20.682  14.874
77599W        W41807  18.727  37.080  14.354
77600W        W41808  21.247  32.898   1.727
77601W        W41809  25.512  10.784  11.074
77602W        W41810   8.368   5.790  12.398
77603W        W41811  15.818  32.432  12.972
77604W        W41812  28.960  10.848  10.598
77605W        W41813   7.289  28.471  14.330
77606W        W41814  37.006  21.632   4.743
77607W        W41815  10.690  44.284  14.278
77608W        W41816  25.027  38.424  13.802
77609W        W41817  44.843  11.763   3.242
77610W        W41818  16.621   4.377  10.434
77611W        W41819  12.357   8.874   0.929
77612W        W41820   1.449  37.402  10.629
77613W        W41821   4.297  29.921   0.450
77614W        W41822  12.354  10.327   4.830
77615W        W41823  26.701  30.501   2.392
77616W        W41824  19.148  34.047  10.417
77617W        W41825  16.656  40.309   0.430
77618W        W41826   1.901  34.874  13.342
77619W        W41827  19.231  21.168  10.564
77620W        W41828  36.870  12.207   4.652
77621W        W41829  16.187  34.917  11.406
77622W        W41830  27.469  28.634   4.775
77623W        W41831  44.888  44.952  14.361
77624W        W41832  27.554  42.471   1.399
77625W        W41833  26.507   5.241  14.902
77626W        W41834  11.336  21.173   2.749
77627W        W41835  28.968   0.386  12.890
77628W        W41836   6.696  34.040  12.420
77629W        W41837  37.027   0.478   0.278
77630W        W41838  24.566  25.690  14.390
77631W        W41839  20.040  44.405   0.247
77632W        W41840   2.443  29.644   0.914
77633W        W41841  27.959  29.169  13.432
77634W        W41842  34.025   4.879   1.847
77635W        W41843  30.006   4.915   2.676
77636W        W41844  23.122  16.626  10.158
77637W        W41845  22.080  41.519   4.262
77638W        W41846  22.061   0.255   2.686
77639W        W41847   3.294  44.474  13.064
77640W        W41848   8.294  32.062   0.457
77641W        W41849  44.924  21.729   4.829
77642W        W41850  37.041   2.329   2.701
77643W        W41851  21.220  29.481   5.280
77644W        W41852  37.351  17.628  13.394
77645W        W41853  43.809   1.910  11.865
77646W        W41854  28.544  37.563   0.778
77647W        W41855   8.689  40.420  14.976
77648W        W41856  13.306  34.606  12.977
77649W        W41857  27.946  13.314  14.471
77650W        W41858  35.876  43.301  10.503
77651W        W41859  29.056  10.681  11.418
77652W        W41860  35.901  17.103   2.379
77653W        W41861  15.741  14.748   3.183
77654W        W41862  14.773  10.199  11.014
77655W        W41863  11.748   1.334  11.990
77656W        W41864   5.724   6.794  11.385
77657W        W41865  14.143   9.685   0.799
77658W        W41866   3.933  25.141  14.332
77659W        W41867   9.692  11.787   3.693
77660W        W41868  36.491  27.963  12.572
77661W        W41869   4.386  17.209   4.674
77662W        W41870  32.080   9.644   4.166
77663W        W41871  44.267  43.491   3.181
77664W        W41872  30.527  30.008   4.146
77665W        W41873  11.846   9.849   1.857
77666W        W41874  28.553  13.200  10.468
77667W        W41875  25.128  12.151  12.075
77668W        W41876  37.923  12.342  14.824
77669W        W41877  14.300  38.462  12.007
77670W        W41878  11.290   9.819   0.898
77671W        W41879   1.793   4.405   3.288
77672W        W41880   0.890  36.866   1.375
77673W        W41881   5.803   0.798   1.834
77674W        W41882   4.343  13.729  13.393
77675W        W41883   1.762  41.944   4.352
77676W        W41884  17.123  32.061  13.518
77677W        W41885   1.415   2.352  12.824
77678W        W41886   3.239  24.566  12.472
77679W        W41887  19.713  43.290   0.774
77680W        W41888  28.006  11.642  12.826
77681W        W41889   3.950  25.661  10.943
77682W        W41890  38.023  27.519  10.967
77683W        W41891  11.627  13.782   0.440
77684W        W41892   5.895   3.927  10.990
77685W        W41893  31.975  22.137  11.904
77686W        W41894  13.181   8.702  12.560
77687W        W41895   0.335   3.403  14.021
77688W        W41896  17.727  36.513  14.404
77689W        W41897   9.711  32.562  12.013
77690W        W41898   0.436   4.899   3.822
77691W        W41899  28.008   7.289   0.845
77692W        W41900  13.256   3.333  10.097
77693W        W41901  11.645  30.574   2.365
77694W        W41902  44.979  31.913  13.933
77695W        W41903   0.294  39.494  13.049
77696W        W41904  44.471  16.256  13.838
77697W        W41905   5.228  34.419   4.713
77698W        W41906   2.278  44.007  10.998
77699W        W41907  15.705  44.948   1.725
77700W        W41908  24.608  36.494   4.250
77701W        W41909  15.235  39.954  12.005
77702W        W41910  41.820  13.741  13.051
77703W        W41911  39.370  39.829  10.465
77704W        W41912  44.442  34.002   3.722
77705W        W41913  17.559  11.287  12.486
77706W        W41914  37.004  42.777  14.776
77707W        W41915  25.037  14.238   0.395
77708W        W41916  36.859  10.702  10.891
77709W        W41917  18.756  42.518  10.902
77710W        W41918   2.434  30.613  12.405
77711W        W41919  11.238   1.886   4.616
77712W        W41920  29.452  33.978  12.850
77713W        W41921  20.034   2.803  14.784
77714W        W41922  39.370  27.058   0.899
77715W        W41923  38.477  24.602   1.427
77716W        W41924  44.828   0.266  13.893
77717W        W41925   6.876  33.406   1.917
77718W        W41926   3.878  26.068  13.504
77719W        W41927   2.894  14.733  12.020
77720W        W41928  37.017   7.709   0.464
77721W        W41929  13.653  21.069   3.160
77722W        W41930  39.931  10.266  13.928
77723W        W41931  20.172  37.550   3.640
77724W        W41932  24.600   0.347  10.427
77725W        W41933   8.229  21.545  11.092
77726W        W41934  35.582  31.504   0.305
77727W        W41935  10.723  26.580   0.776
77728W        W41936  22.009  41.943  12.516
77729W        W41937   4.222  13.269  11.901
77730W        W41938  12.187  26.474  11.898
77731W        W41939  11.856  20.079  14.848
77732W        W41940  10.681  14.249   5.660
77733W        W41941  15.191  11.221   3.241
77734W        W41942   5.328  19.559   3.266
77735W        W41943  43.324  36.519   0.401
77736W        W41944  11.288   5.694  13.014
77737W        W41945  30.552  21.019  12.545
77738W        W41946  36.904  25.577   3.802
77739W        W41947   9.661  27.606   3.377
77740W        W41948  27.653  27.535  10.472
77741W        W41949  21.049   2.317   0.749
77742W        W41950  25.703  26.533   0.822
77743W        W41951  15.598  27.637  12.359
77744W        W41952  34.396  16.684  13.513
77745W        W41953  15.153  12.746   1.882
77746W        W41954  19.145   3.732  13.996
77747W        W41955  13.736  19.549   3.791
77748W        W41956   2.942   3.765   0.841
77749W        W41957   9.310  37.939   4.662
77750W        W41958  29.167  14.788   3.664
77751W        W41959  33.049   8.750  14.296
77752W        W41960  30.429  40.493  14.766
77753W        W41961  27.060  18.214  13.984
77754W        W41962   1.317  34.009   0.905
77755W        W41963  35.478  31.122  13.860
77756W        W41964  28.566   1.904   5.316
77757W        W41965  16.788  32.493  11.604
77758W        W41966  35.587  22.528  11.561
77759W        W41967  28.448  17.726  13.985
77760W        W41968  44.367   6.279   5.154
77761W        W41969   6.400  32.056   4.653
77762W        W41970  28.962  23.513  13.530
77763W        W41971  26.498  29.081  14.479
77764W        W41972  13.749  23.538  14.328
77765W        W41973  31.496   8.353   2.400
77766W        W41974  36.447  15.224   0.895
77767W        W41975  18.636  23.700  13.809
77768W        W41976  14.641   6.228  14.491
77769W        W41977  23.024  33.927   2.679
77770W        W41978  35.515  37.996  10.409
77771W        W41979  14.315  29.042   2.192
77772W        W41980  28.082  43.827   3.775
77773W        W41981  44.827  11.262  14.434
77774W        W41982   6.183  40.808   0.341
77775W        W41983  43.965   7.240  10.618
77776W        W41984  17.133  19.102   0.811
77777W        W41985  14.751   6.715  14.892
77778W        W41986  16.809   3.861  13.428
77779W        W41987  17.652  13.724  10.979
77780W        W41988  16.225   6.382   1.757
77781W        W41989   0.921  16.805   3.677
77782W        W41990  34.376  42.518  14.821
77783W        W41991   8.246  37.403   4.302
77784W        W41992  18.140  29.157   3.870
77785W        W41993   5.323  12.232  11.028
77786W        W41994  12.812  42.981   2.401
77787W        W41995  19.190  24.663   1.255
77788W        W41996  33.062  24.634  11.412
77789W        W41997  12.204  12.249  13.364
77790W        W41998  28.013  10.695   2.263
77791W        W41999  39.876  13.669   0.444
77792W        W42000   3.438   1.266   3.684
77793W        W42001  19.694   6.370  13.413
77794W        W42002  18.554  31.908  12.361
77795W        W42003   4.732  27.977  11.858
77796W        W42004   6.705  13.832   1.844
77797W        W42005  16.638  24.648  12.410
77798W        W42006   1.420   5.260   2.753
77799W        W42007  27.589  36.974  13.046
77800W        W42008   6.216  17.230  14.408
77801W        W42009  29.090  31.629  14.511
77802W        W42010  13.317   5.210  12.886
77803W        W42011  19.152  26.174   0.848
77804W        W42012  33.507  27.677  10.623
77805W        W42013  36.401   5.914  11.110
77806W        W42014  33.036  42.015   2.264
77807W        W42015  37.550  40.843   4.722
77808W        W42016  23.118  30.543  14.369
77809W        W42017  44.928  32.610   5.253
77810W        W42018  17.074  12.217  11.962
77811W        W42019  37.083  18.788   3.725
77812W        W42020  23.498  29.082   0.885
77813W        W42021  37.926  12.847   0.254
77814W        W42022  37.937   3.317   5.238
77815W        W42023   9.263   7.271  12.394
77816W        W42024  31.062  16.770   4.132
77817W        W42025  35.093  16.235   1.243
77818W        W42026  41.818   4.883   2.279
77819W        W42027  29.008  10.167  11.560
77820W        W42028  18.709  35.389   2.267
77821W        W42029   0.867  37.388  11.475
77822W        W42030  22.677  27.117   2.846
77823W        W42031  37.468   3.840   3.245
77824W        W42032  36.381  28.470  11.064
77825W        W42033   5.768  35.580   0.417
77826W        W42034  42.303  32.072  10.904
77827W        W42035  36.891  42.314  10.552
77828W        W42036   6.725   3.229  12.034
77829W        W42037  39.955   8.366   1.908
77830W        W42038   4.833  22.560   0.739
77831W        W42039  20.086  22.157   3.702
77832W        W42040  10.671  18.278   2.305
77833W        W42041   2.321  16.759   0.356
77834W        W42042   4.369  13.327   3.149
77835W        W42043  27.058  35.002  11.501
77836W        W42044   1.957   4.868  14.871
77837W        W42045  40.337   4.835   2.851
77838W        W42046  42.818  38.917   3.267
77839W        W42047  19.630  32.469  11.399
77840W        W42048  28.540  22.613   4.134
77841W        W42049  32.482   3.334   2.349
77842W        W42050  30.527  44.893   2.888
77843W        W42051  29.155  31.641  12.351
77844W        W42052  25.504  16.654  13.961
77845W        W42053   9.752  18.568   1.710
77846W        W42054  30.138  29.932  14.937
77847W        W42055  27.470  25.194  13.857
77848W        W42056  36.957   0.254   0.813
77849W        W42057   4.773  26.648  14.930
77850W        W42058  26.580   4.945   0.731
77851W        W42059  43.873  12.674   2.309
77852W        W42060  39.841  18.760   1.282
77853W        W42061  26.591  22.745  11.893
77854W        W42062  43.875  34.084   1.756
77855W        W42063  44.983  43.828  14.773
77856W        W42064  22.619   9.269  12.462
77857W        W42065   1.454   5.756   2.379
77858W        W42066  37.397  17.783   1.429
77859W        W42067  28.492  32.964   1.237
77860W        W42068  42.923  31.023   2.240
77861W        W42069  36.374   7.882  11.880
77862W        W42070  28.441  27.115   3.372
77863W        W42071  17.190  44.409   2.663
77864W        W42072   7.330  32.393  11.908
77865W        W42073  20.669  32.011  12.053
77866W        W42074   0.962   7.690  13.353
77867W        W42075  41.923  10.185   1.781
77868W        W42076  33.984  36.398  11.411
77869W        W42077  14.672  12.168  11.121
77870W        W42078  21.635   8.381   2.368
77871W        W42079  19.059  19.745  13.451
77872W        W42080  33.524  14.726  12.067
77873W        W42081  19.757  35.370  14.931
77874W        W42082   3.259  36.907   4.603
77875W        W42083  19.678  34.015  13.314
77876W        W42084  24.157  18.750  12.556
77877W        W42085   8.326   2.408  12.832
77878W        W42086  31.544  12.354   3.294
77879W        W42087  34.892  30.477   4.345
77880W        W42088  26.088  33.072  13.814
77881W        W42089  10.197   7.178  10.990
77882W        W42090  37.476   1.360  13.408
77883W        W42091  38.350  44.396  11.885
77884W        W42092  18.695  42.510  11.533
77885W        W42093   6.351  27.083   3.169
77886W        W42094  23.183  16.124  14.013
77887W        W42095  28.187  20.128  12.985
77888W        W42096  31.959  32.529   3.146
77889W        W42097  24.110  32.432  13.924
77890W        W42098  33.564  20.177   3.192
77891W        W42099  33.045  16.693  12.522
77892W        W42100  15.714   0.878   0.783
77893W        W42101  34.116   3.879  11.108
77894W        W42102  42.987   9.660   4.622
77895W        W42103   8.262  43.908  11.083
77896W        W42104  31.082  40.976  11.039
77897W        W42105  14.127  18.065  13.345
77898W        W42106  18.223  33.961   2.891
77899W        W42107   5.892  14.287   3.147
77900W        W42108   3.837  34.585   4.640
77901W        W42109  40.859  14.682   0.480
77902W        W42110  12.134  12.783  12.901
77903W        W42111  19.167  12.670   2.898
77904W        W42112   2.877  23.007   2.741
77905W        W42113  41.962   4.373   4.662
77906W        W42114  23.534   2.770   0.273
77907W        W42115  30.584  21.614   0.243
77908W        W42116   0.337  36.026   1.380
77909W        W42117   9.850  35.023   1.738
77910W        W42118  26.051  31.035  14.845
77911W        W42119  40.949  28.980   4.788
77912W        W42120  20.699  44.337   1.737
77913W        W42121  19.600  16.215   2.854
77914W        W42122  13.710  31.411   3.692
77915W        W42123   3.292   8.702  13.937
77916W        W42124   8.378  41.022   4.708
77917W        W42125  33.905  36.367  11.081
77918W        W42126  32.045  30.042  13.455
77919W        W42127  19.662  12.676   1.361
77920W        W42128  25.147   9.245   1.853
77921W        W42129  36.090   4.407  12.042
77922W        W42130  42.944  26.075   3.313
77923W        W42131  22.644   1.363  10.521
77924W        W42132  25.123  40.049  12.436
77925W        W42133  15.644  28.929   3.846
77926W        W42134  42.020   7.203  10.100
77927W        W42135   0.437   3.372   1.367
77928W        W42136  21.233  27.675   3.193
77929W        W42137   5.264  16.310  12.911
77930W        W42138  25.995  32.625   4.835
77931W        W42139  23.010  12.135   0.480
77932W        W42140  42.340   7.724  13.859
77933W        W42141   4.813  23.988   0.385
77934W        W42142   4.743  24.537   1.229
77935W        W42143   7.204  34.435   1.449
77936W        W42144  30.656  19.534  10.645
77937W        W42145  14.619  14.213  13.827
77938W        W42146   9.643  20.056   4.789
77939W        W42147  18.702  20.051   0.830
77940W        W42148  23.618  20.254  10.527
77941W        W42149  26.461   5.746   1.886
77942W        W42150   4.932   1.760  13.510
77943W        W42151  24.080  22.138   0.320
77944W        W42152  20.627   2.722   4.173
77945W        W42153  25.134  17.564  11.070
77946W        W42154   3.751  14.214   1.248
77947W        W42155  33.471  22.045   0.386
77948W        W42156  44.276  19.047  11.122
77949W        W42157  14.676  20.714   4.781
77950W        W42158  24.110  32.438  12.899
77951W        W42159  15.729  40.455   4.706
77952W        W42160  28.186   0.804  10.410
77953W        W42161   4.855   6.791  13.318
77954W        W42162  24.605  30.452  12.853
77955W        W42163   6.299  12.322  13.406
77956W        W42164  22.007  18.760  12.022
77957W        W42165   9.855  16.202   4.137
77958W        W42166   2.721  32.407  14.398
77959W        W42167  20.047  14.104   1.879
77960W        W42168  32.062  41.955   3.849
77961W        W42169  15.155  24.187  12.046
77962W        W42170   8.783   2.460  10.438
77963W        W42171  38.545  16.658  11.042
77964W        W42172  25.605  10.320  14.992
77965W        W42173   5.412  42.447   4.133
77966W        W42174  29.470   5.356   1.783
77967W        W42175   0.933  44.869  11.484
77968W        W42176  21.119  29.543  12.499
77969W        W42177  21.180   7.258   0.776
77970W        W42178  11.795  19.085  10.450
77971W        W42179  27.602  36.044  11.882
77972W        W42180  27.179  21.569   2.773
77973W        W42181  22.681   5.861   3.171
77974W        W42182   0.362  40.988   1.759
77975W        W42183  14.290  40.535   4.144
77976W        W42184  35.989  15.694  11.873
77977W        W42185  22.555  41.405   0.757
77978W        W42186  35.065  28.500   1.899
77979W        W42187  26.465   2.454  13.827
77980W        W42188  35.403   5.242  13.343
77981W        W42189  23.568  15.664   3.684
77982W        W42190  20.742  17.575  14.402
77983W        W42191  13.662  41.950   4.663
77984W        W42192  24.083   6.270  10.495
77985W        W42193   9.363  42.453  13.834
77986W        W42194   9.761  11.669   2.319
77987W        W42195  19.182  24.199   2.752
77988W        W42196  36.938  38.036  11.381
77989W        W42197  23.998  15.298  10.923
77990W        W42198  34.583  36.593  13.467
77991W        W42199  42.796  13.182   1.788
77992W        W42200  14.137  22.667  11.001
77993W        W42201  40.502   2.924   2.400
77994W        W42202  19.230  40.348  10.482
77995W        W42203  37.978  14.146   1.749
77996W        W42204   7.751  16.627   4.746
77997W        W42205  23.638  22.593   1.236
77998W        W42206   4.839  40.018   3.345
77999W        W42207  29.051  10.187   3.647
78000W        W42208   6.857  28.932  14.946
78001W        W42209  36.973  37.842  10.613
78002W        W42210  23.618   1.830   1.896
78003W        W42211  29.635   2.378  12.000
78004W        W42212   9.279  42.372  12.005
78005W        W42213  28.097  23.996  14.814
78006W        W42214  22.182  26.637   0.811
78007W        W42215  27.122  30.005   2.376
78008W        W42216   4.748  26.645  11.432
78009W        W42217  19.580  43.486   3.304
78010W        W42218  16.599  41.992  11.082
78011W        W42219  32.476  22.707   1.843
78012W        W42220  33.022  31.430   0.838
78013W        W42221   0.341  32.889  10.994
78014W        W42222  13.214   9.238   3.694
78015W        W42223  32.020   4.916  14.514
78016W        W42224   5.723  10.332  13.424
78017W        W42225  13.780  21.592   1.434
78018W        W42226   5.727   4.924   0.871
78019W        W42227  34.099  22.130  13.929
78020W        W42228  35.030  43.008   5.307
78021W        W42229   0.312  20.122  11.945
78022W        W42230  18.208  44.317   1.345
78023W        W42231  41.822  22.594  10.958
78024W        W42232   6.321  20.266  13.953
78025W        W42233  28.455  25.490  13.535
78026W        W42234  33.417   1.945   1.263
78027W        W42235  44.808  10.809  13.416
78028W        W42236  42.850  38.487  14.993
78029W        W42237  17.590   5.888   4.608
78030W        W42238  10.747  29.455   0.338
78031W        W42239   4.831  31.003  11.918
78032W        W42240  17.079  36.994  10.100
78033W        W42241  35.526  42.387   3.673
78034W        W42242  26.547   3.273   0.397
78035W        W42243  40.305  10.142  10.481
78036W        W42244  17.237   0.389  11.115
78037W        W42245   9.285  43.975  13.508
78038W        W42246  41.475   6.217   4.636
78039W        W42247  19.556   0.831  13.033
78040W        W42248  22.502  27.092   4.344
78041W        W42249   2.765  14.661   3.347
78042W        W42250  32.962  10.638  10.985
78043W        W42251   3.263  35.418  12.442
78044W        W42252  40.895  26.968   0.324
78045W        W42253  35.105   2.780   0.963
78046W        W42254  12.746  23.649  13.504
78047W        W42255  25.146  35.856  13.966
78048W        W42256  13.132  35.032  14.962
78049W        W42257  33.879  14.788   1.230
78050W        W42258  31.424  31.936   0.462
78051W        W42259  32.537   8.267   2.302
78052W        W42260  42.377  14.607  12.987
78053W        W42261  28.122  39.512  12.530
78054W        W42262  19.564  38.068   0.247
78055W        W42263  23.670  30.058  13.984
78056W        W42264  18.571  14.804  11.392
78057W        W42265   5.239  33.112  13.801
78058W        W42266  10.229   8.864   9.921
78059W        W42267  39.336  11.676  12.020
78060W        W42268   7.261   4.875  14.904
78061W        W42269  44.769  39.038   2.382
78062W        W42270  39.512  22.702  11.055
78063W        W42271  23.552   4.785   0.298
78064W        W42272  24.160   1.923  10.054
78065W        W42273  28.526  23.007   3.342
78066W        W42274  40.989  22.182  14.476
78067W        W42275   2.725  19.673   2.294
78068W        W42276   6.395  44.444   1.918
78069W        W42277  36.945  15.752   0.286
78070W        W42278   6.736  13.650   2.755
78071W        W42279  39.347  40.953   0.378
78072W        W42280  16.778  17.619   0.758
78073W        W42281   6.391  19.698   3.820
78074W        W42282   3.271   1.804  14.276
78075W        W42283   4.418  33.439   4.603
78076W        W42284  10.878   0.472   4.668
78077W        W42285  16.152  23.709   0.848
78078W        W42286  19.698  38.053  12.063
78079W        W42287  24.683  20.111   0.257
78080W        W42288  23.623   8.823   4.214
78081W        W42289   2.298  30.137   3.809
78082W        W42290   5.407   7.212  11.051
78083W        W42291  27.477   5.291  12.897
78084W        W42292  40.915  43.945  12.546
78085W        W42293   9.660  17.175   0.387
78086W        W42294  42.283  21.191   1.882
78087W        W42295   5.726   0.324   2.331
78088W        W42296  39.361  27.942   3.352
78089W        W42297  33.415   7.668   2.256
78090W        W42298  43.956   5.273  14.287
78091W        W42299  34.077  15.671  13.877
78092W        W42300  11.851  30.968  12.960
78093W        W42301  37.502  20.110  10.584
78094W        W42302   7.688  31.125   0.276
78095W        W42303  23.094  13.661   3.191
78096W        W42304  10.163  17.283  13.932
78097W        W42305   2.289  30.633  13.336
78098W        W42306  21.261   1.363  11.575
78099W        W42307  15.171  10.640  12.369
78100W        W42308  39.554   9.377   0.399
78101W        W42309   9.161  37.527   2.357
78102W        W42310  33.604  10.752   2.820
78103W        W42311  37.953  20.750   0.287
78104W        W42312  33.412  16.637   4.671
78105W        W42313   6.199  20.768   0.909
78106W        W42314   4.832   0.917  14.955
78107W        W42315  38.969   6.857  14.408
78108W        W42316   1.241  25.607  13.371
78109W        W42317  41.855  43.387  12.045
78110W        W42318  32.106   5.350  14.277
78111W        W42319   8.265   2.385   2.398
78112W        W42320  17.202  35.868   2.250
78113W        W42321  25.498  19.201   3.385
78114W        W42322  30.514  32.414  14.026
78115W        W42323  12.694   9.259   4.340
78116W        W42324   4.871  40.425  13.329
78117W        W42325  11.621  23.728  11.472
78118W        W42326  29.453  42.420  10.991
78119W        W42327  28.507  14.678  13.883
78120W        W42328  26.188   9.274  13.943
78121W        W42329  25.678  15.790   3.355
78122W        W42330   6.899   1.290  14.425
78123W        W42331  38.826  19.711  11.568
78124W        W42332  24.626  42.803  14.816
78125W        W42333   1.899  12.202  10.530
78126W        W42334  40.406  28.452   4.211
78127W        W42335  41.417  21.582   1.411
78128W        W42336  30.018  17.699   1.811
78129W        W42337   7.825  28.016   2.307
78130W        W42338  24.567   7.247  10.997
78131W        W42339  19.680  44.888  11.963
78132W        W42340   6.846  21.680  12.942
78133W        W42341  39.548  40.797   4.829
78134W        W42342  39.940  11.773  14.366
78135W        W42343  44.936  34.017  10.472
78136W        W42344  43.293  11.236   3.851
78137W        W42345   6.681  33.535  14.360
78138W        W42346  37.470  42.298  14.374
78139W        W42347  35.593  29.603  11.576
78140W        W42348  40.462  35.101   0.319
78141W        W42349  22.625  36.077   4.343
78142W        W42350  24.719   2.279  10.435
78143W        W42351   9.376   6.826   1.752
78144W        W42352  32.542  44.917   3.644
78145W        W42353  38.946  11.801   4.244
78146W        W42354  22.153   9.304   3.197
78147W        W42355  29.601  35.552   4.144
78148W        W42356  18.622  13.806  12.918
78149W        W42357  16.710  26.190  14.920
78150W        W42358  15.802   4.447  10.064
78151W        W42359  17.109   1.450   4.156
78152W        W42360  38.454  34.461   1.341
78153W        W42361  27.018  29.561  12.888
78154W        W42362   6.311  38.332   2.738
78155W        W42363  29.962  25.997   1.259
78156W        W42364   8.297  36.842  12.566
78157W        W42365  23.157  28.553  13.976
78158W        W42366  39.973   0.491   3.151
78159W        W42367  26.157  24.207   1.274
78160W        W42368  14.733  31.562   3.823
78161W        W42369  12.334   0.314   2.333
78162W        W42370  36.521  15.781   2.254
78163W        W42371  38.949  18.079   4.295
78164W        W42372  28.553  39.539   0.441
78165W        W42373  41.519  12.645   1.867
78166W        W42374  41.975  17.062   4.274
78167W        W42375  17.166  33.880  11.519
78168W        W42376  42.282  36.065   2.319
78169W        W42377  41.926  30.016  12.518
78170W        W42378  15.713  27.656   1.236
78171W        W42379  25.528  36.959  12.462
78172W        W42380   3.863  39.881  11.041
78173W        W42381  26.643   0.376  14.908
78174W        W42382  35.404  22.592   2.278
78175W        W42383  27.024  16.735  10.958
78176W        W42384  39.481  37.543   1.300
78177W        W42385  30.586   1.457  11.597
78178W        W42386  33.532  37.375   1.403
78179W        W42387  44.290  22.196   2.230
78180W        W42388  26.622   0.300   1.882
78181W        W42389  11.794  20.738  12.881
78182W        W42390   3.923  10.867   2.665
78183W        W42391  30.483  29.573  13.869
78184W        W42392  34.893  29.434   1.393
78185W        W42393  35.906  13.647   3.370
78186W        W42394  10.331  23.020  12.846
78187W        W42395   5.829  41.864   4.140
78188W        W42396   1.955  11.683   2.895
78189W        W42397  32.993  13.319  11.965
78190W        W42398  28.651  31.122   1.360
78191W        W42399  30.132  36.020  13.816
78192W        W42400  19.285  40.512  13.458
78193W        W42401  41.040  44.838  11.126
78194W        W42402  26.952  18.676   0.336
78195W        W42403  41.394  10.273   3.320
78196W        W42404  29.537  14.783  13.899
78197W        W42405   5.312  34.019   0.824
78198W        W42406  38.877  37.930  11.050
78199W        W42407  32.391  32.003   3.212
78200W        W42408  19.252  42.951   1.869
78201W        W42409  18.191  17.793   4.329
78202W        W42410  34.872  25.485  12.359
78203W        W42411  13.649  14.723  12.482
78204W        W42412  17.255  40.441  12.029
78205W        W42413   6.407  41.946  11.531
78206W        W42414  18.606  43.298   1.284
78207W        W42415   6.817  40.522  14.904
78208W        W42416  32.958  44.834   2.791
78209W        W42417  30.450  28.038  11.036
78210W        W42418  19.281   6.400  12.381
78211W        W42419  36.521  29.126   9.925
78212W        W42420  18.178  16.683   4.221
78213W        W42421   5.404  12.330   3.274
78214W        W42422  23.176  27.452  14.440
78215W        W42423  16.651  24.019   0.890
78216W        W42424  16.272  28.955   1.753
78217W        W42425  39.436  11.777   4.309
78218W        W42426  37.389   9.678   0.325
78219W        W42427  19.222  16.602   5.167
78220W        W42428  19.213  22.008   0.307
78221W        W42429   3.900  29.514   2.254
78222W        W42430  28.948   3.326  13.356
78223W        W42431   9.363  19.705  13.828
78224W        W42432  33.904  43.358  14.927
78225W        W42433  12.134   1.466  13.799
78226W        W42434   0.414  37.444  14.406
78227W        W42435  17.233   3.779  10.424
78228W        W42436  40.356  26.106  12.482
78229W        W42437  32.123  41.987  13.440
78230W        W42438  13.226  22.587   3.639
78231W        W42439  29.069   6.816  12.078
78232W        W42440  27.062  43.924   1.428
78233W        W42441  26.480  12.333   1.924
78234W        W42442  31.630  13.841  11.925
78235W        W42443  13.333  42.991  10.517
78236W        W42444  31.935   3.898  12.858
78237W        W42445  41.949  29.005   3.247
78238W        W42446  25.503   4.729   1.886
78239W        W42447  41.406  24.110  10.964
78240W        W42448   7.345  20.681   2.858
78241W        W42449  16.153   8.858   5.222
78242W        W42450  14.117  33.417   4.632
78243W        W42451   4.808  13.679  12.959
78244W        W42452  36.469  18.100   4.709
78245W        W42453  19.234  15.688  13.013
78246W        W42454  42.493  20.271   1.703
78247W        W42455   6.786   0.273   4.620
78248W        W42456  28.106   2.403  11.422
78249W        W42457   4.426  20.066   2.691
78250W        W42458  33.537   2.747   0.276
78251W        W42459   7.390  31.488   4.617
78252W        W42460  23.730  23.603  12.827
78253W        W42461  39.923  22.744  13.314
78254W        W42462  28.627  41.490   2.357
78255W        W42463  26.057  44.475  11.984
78256W        W42464  27.151  43.397  14.902
78257W        W42465  25.025  21.100  11.543
78258W        W42466   7.261  30.963  13.323
78259W        W42467  19.749  25.626   0.913
78260W        W42468  37.425  21.648   0.853
78261W        W42469  31.504  37.494  12.901
78262W        W42470  26.135  44.282   2.289
78263W        W42471  17.789  39.518   5.766
78264W        W42472  18.604  10.668  10.450
78265W        W42473  30.505   6.882   4.625
78266W        W42474   7.773  12.192  12.825
78267W        W42475  41.436  32.549  13.515
78268W        W42476  18.614   5.431   1.921
78269W        W42477  24.201  34.019  12.562
78270W        W42478  28.605  14.729  11.083
78271W        W42479  16.658  19.190  14.394
78272W        W42480  22.690  27.120   1.893
78273W        W42481  36.977   1.961   4.158
78274W        W42482  44.903  13.700  12.439
78275W        W42483  19.608   5.235   4.756
78276W        W42484  25.031  32.891  13.326
78277W        W42485   0.341   5.372   4.117
78278W        W42486  11.656  38.966   0.789
78279W        W42487   2.414  34.897   0.342
78280W        W42488   0.845   0.494   9.989
78281W        W42489  23.150  11.328  12.531
78282W        W42490  43.472  35.364   2.864
78283W        W42491   6.716   4.935   3.204
78284W        W42492  36.067   5.217   1.289
78285W        W42493   9.372  14.102  13.833
78286W        W42494  34.614   1.764   1.724
78287W        W42495  17.709  23.542   3.253
78288W        W42496  35.049  37.836   2.778
78289W        W42497  19.552   8.341   4.647
78290W        W42498  26.080  21.075   0.282
78291W        W42499  30.563  35.960   2.313
78292W        W42500  33.988  42.455  13.341
78293W        W42501   6.255  20.654   4.214
78294W        W42502   9.873  25.603   0.834
78295W        W42503   7.305   4.918  14.438
78296W        W42504  26.590   1.900   3.856
78297W        W42505   9.340  28.171   3.319
78298W        W42506   3.761   5.848   1.419
78299W        W42507   5.914  13.322  12.899
78300W        W42508   9.773  35.880   4.740
78301W        W42509  42.780  41.825   2.198
78302W        W42510  37.085  16.782  13.834
78303W        W42511   7.804  39.812   0.278
78304W        W42512   6.221  29.925  10.502
78305W        W42513  15.234  28.681   1.885
78306W        W42514   9.658  19.250  11.446
78307W        W42515   6.755  35.375   0.739
78308W        W42516  14.722  17.197  10.930
78309W        W42517  34.969  26.480   3.291
78310W        W42518  14.282  43.298   3.237
78311W        W42519  31.606   7.715   3.200
78312W        W42520  17.758   0.354  11.010
78313W        W42521  34.606  34.986   3.353
78314W        W42522  18.736  32.440  11.943
78315W        W42523   9.379  32.098   2.386
78316W        W42524  13.797  20.560   3.777
78317W        W42525  26.050  35.540  14.904
78318W        W42526   5.695  17.677  13.017
78319W        W42527  37.955  23.560   3.177
78320W        W42528  25.679  23.707   0.780
78321W        W42529   9.708  26.672   2.340
78322W        W42530  20.108   6.824   3.695
78323W        W42531   1.899  43.939   2.708
78324W        W42532   2.797   5.815  13.039
78325W        W42533  25.706  33.469   4.274
78326W        W42534  10.232   3.843   2.895
78327W        W42535  35.860  14.217  14.005
78328W        W42536  27.153  36.356   3.668
78329W        W42537  42.330   4.350   4.740
78330W        W42538  22.084  11.302   4.219
78331W        W42539   9.730  24.190  10.545
78332W        W42540   5.761  41.374   0.798
78333W        W42541   8.680  31.012   2.892
78334W        W42542  42.473  25.477   1.711
78335W        W42543   4.831  39.382  11.459
78336W        W42544   5.700  40.505  13.421
78337W        W42545  15.163  28.090  14.416
78338W        W42546  38.495  32.059   0.909
78339W        W42547  38.349  36.440  11.610
78340W        W42548   2.226  27.675   3.638
78341W        W42549  16.134  31.458  11.990
78342W        W42550  24.052  39.889   1.373
78343W        W42551  36.392  38.511  11.437
78344W        W42552  32.091  33.125  10.637
78345W        W42553  35.036  26.598  12.901
78346W        W42554   4.911  13.211  10.431
78347W        W42555  42.995  26.022  14.895
78348W        W42556  10.642   2.430   2.804
78349W        W42557  20.524  37.008  10.130
78350W        W42558  43.344   9.224   2.360
78351W        W42559   5.314  24.228   1.225
78352W        W42560  34.399  32.493  14.812
78353W        W42561  43.816  43.976   2.882
78354W        W42562  30.482  15.199   0.440
78355W        W42563  33.581  43.394   4.646
78356W        W42564  38.492   7.394  13.834
78357W        W42565  12.279   3.738  14.429
78358W        W42566   0.398   3.450   1.747
78359W        W42567  21.027   6.298   1.832
78360W        W42568  42.506  19.225   1.249
78361W        W42569   0.351   5.888  10.637
78362W        W42570  38.438  40.909  13.402
78363W        W42571  12.803  29.439  13.830
78364W        W42572  16.612   8.216  10.574
78365W        W42573  11.856  20.620   1.738
78366W        W42574   3.853  19.189   1.899
78367W        W42575  39.046   0.389  14.282
78368W        W42576  34.003  22.721   1.313
78369W        W42577  35.972  23.718  14.386
78370W        W42578  16.237  40.946  12.069
78371W        W42579  15.663  33.526  14.319
78372W        W42580   6.804  38.844   1.896
78373W        W42581  20.185  37.944   1.438
78374W        W42582  41.963  43.803  12.076
78375W        W42583  28.946  32.595   2.292
78376W        W42584  33.939   4.867  11.594
78377W        W42585  11.693  34.116   0.395
78378W        W42586  44.764  29.016   2.325
78379W        W42587  19.745  26.190   3.192
78380W        W42588  24.723  38.942  12.464
78381W        W42589   8.711  38.948   5.310
78382W        W42590   5.295  36.348   1.880
78383W        W42591  17.208  41.443   2.775
78384W        W42592  29.057  37.968  12.429
78385W        W42593  35.932  44.897  10.912
78386W        W42594   0.406   2.869   3.841
78387W        W42595  24.693  30.533   0.886
78388W        W42596  13.281  35.396   1.754
78389W        W42597  20.225  40.808   4.760
78390W        W42598  38.411  35.549   2.358
78391W        W42599  33.590  20.229   0.847
78392W        W42600  37.543  37.001   1.765
78393W        W42601  28.940   6.715  11.417
78394W        W42602  13.800  25.180   0.397
78395W        W42603  44.361  27.638   2.318
78396W        W42604  14.202  32.515  11.118
78397W        W42605  19.707  26.618  14.445
78398W        W42606  19.086  29.045  13.480
78399W        W42607   4.817  34.038  11.532
78400W        W42608  31.027  30.129  14.474
78401W        W42609  21.042   9.830  10.540
78402W        W42610  23.692  10.356  14.904
78403W        W42611  39.348  40.901   2.682
78404W        W42612  18.066  30.413  14.374
78405W        W42613  44.892  16.659   0.305
78406W        W42614  42.289  32.120  14.465
78407W        W42615  34.413   3.351   0.482
78408W        W42616  12.327   1.801   0.480
78409W        W42617  44.430  24.724   4.790
78410W        W42618  13.176   6.301  13.514
78411W        W42619  23.496  10.193   0.957
78412W        W42620  39.466  21.225   9.987
78413W        W42621  19.101  28.438  11.103
78414W        W42622   6.394  39.897  10.489
78415W        W42623  11.849   0.415   1.423
78416W        W42624  34.493  22.596   1.877
78417W        W42625  10.754  36.551   0.947
78418W        W42626  32.888  38.366  10.935
78419W        W42627   6.403  17.571  10.086
78420W        W42628   0.896  35.907  10.456
78421W        W42629  33.922  18.239  13.982
78422W        W42630  40.880  15.733  11.587
78423W        W42631  42.510  28.128  11.417
78424W        W42632  36.426  19.084   1.331
78425W        W42633   5.811  28.602   4.178
78426W        W42634  22.096  16.218   3.694
78427W        W42635   2.875  11.788  14.963
78428W        W42636  21.584  14.825  12.368
78429W        W42637  42.320  31.547  14.420
78430W        W42638  39.967  44.376  12.874
78431W        W42639  26.560  32.128  14.447
78432W        W42640  36.897  42.378  13.846
78433W        W42641  21.189  28.442  12.562
78434W        W42642   0.753  42.413   0.263
78435W        W42643   7.394  33.958   1.288
78436W        W42644  12.177  14.602   0.287
78437W        W42645  23.104  31.029  11.127
78438W        W42646  12.156  41.868   1.264
78439W        W42647  14.732   0.912   1.840
78440W        W42648   0.426  29.602  13.841
78441W        W42649  34.076   2.920   2.200
78442W        W42650  37.392  30.505   3.351
78443W        W42651  26.055  42.340  12.538
78444W        W42652  36.394  26.643   1.842
78445W        W42653   1.770  11.279  14.482
78446W        W42654  30.644   2.359   1.893
78447W        W42655  40.425  42.508  12.018
78448W        W42656  40.440   7.759   3.843
78449W        W42657  44.262  25.705  11.938
78450W        W42658   7.359  13.831  14.926
78451W        W42659  37.365  10.634  11.070
78452W        W42660  26.474  10.692   0.963
78453W        W42661   8.178   6.781   3.776
78454W        W42662  23.218  10.245  12.512
78455W        W42663  33.610  43.807   1.226
78456W        W42664  18.765   8.295  13.356
78457W        W42665  32.101  20.259   0.943
78458W        W42666   0.868   9.856   4.713
78459W        W42667   7.776  40.008   0.740
78460W        W42668  10.715  26.024   3.350
78461W        W42669  38.505  43.960   4.180
78462W        W42670  19.219  18.601   4.633
78463W        W42671  19.094  27.182  14.489
78464W        W42672  10.635   3.933  11.471
78465W        W42673  43.474  28.023  13.504
78466W        W42674  34.398  27.036   4.704
78467W        W42675  25.057  14.628  14.484
78468W        W42676  17.591  28.638   3.354
78469W        W42677   2.846  20.078  12.091
78470W        W42678   2.472  18.732  13.055
78471W        W42679   5.278  12.696  13.897
78472W        W42680   7.845   1.440  14.437
78473W        W42681  37.568  39.899   3.701
78474W        W42682   8.370   8.262   1.334
78475W        W42683  12.621   4.351  13.428
78476W        W42684  30.048   1.295  11.513
78477W        W42685  20.068  28.530  14.832
78478W        W42686   1.421  32.083  11.436
78479W        W42687   0.492  10.238   3.865
78480W        W42688  44.433  17.598   2.664
78481W        W42689  24.018   7.797  10.935
78482W        W42690  12.640   6.200  11.378
78483W        W42691  34.875   3.779  14.421
78484W        W42692  10.307  12.740  11.481
78485W        W42693  40.543  41.981  14.340
78486W        W42694   7.717  37.965  14.907
78487W        W42695  43.496  38.899   3.866
78488W        W42696   1.808  28.145  13.902
78489W        W42697   3.952  35.371   2.335
78490W        W42698  31.052  36.860   3.268
78491W        W42699  17.796  24.610  10.529
78492W        W42700  30.442   0.394   4.742
78493W        W42701  23.545  23.541  11.564
78494W        W42702  30.589  12.661  13.880
78495W        W42703  11.671   8.246  12.951
78496W        W42704   2.339  23.018   2.707
78497W        W42705   6.759  13.108  10.906
78498W        W42706  22.171  16.748  10.978
78499W        W42707  36.361  36.077   1.375
78500W        W42708  24.147   8.339   2.334
78501W        W42709  20.602   3.280   5.271
78502W        W42710  38.856  37.045  12.340
78503W        W42711  19.741  11.275  13.407
78504W        W42712  22.632  20.099  10.631
78505W        W42713  31.632   0.911   0.300
78506W        W42714  44.996   8.661  10.580
78507W        W42715  41.980  26.499  10.479
78508W        W42716  11.826  20.217   3.149
78509W        W42717  25.680  18.729  12.468
78510W        W42718  26.125  39.037   1.321
78511W        W42719  40.897  31.606  14.764
78512W        W42720  11.761  17.591   4.301
78513W        W42721   3.883   7.245  12.556
78514W        W42722  35.107   9.160  13.334
78515W        W42723  44.840  16.146  14.412
78516W        W42724  17.155  31.527   2.827
78517W        W42725   1.749  28.448   3.223
78518W        W42726   5.414  15.228   2.200
78519W        W42727   5.933  29.060  12.965
78520W        W42728   2.905  35.390   3.637
78521W        W42729  26.645  31.497   1.451
78522W        W42730  32.975  38.433  12.005
78523W        W42731  41.338  30.962  11.859
78524W        W42732  20.538  44.328   4.198
78525W        W42733  40.461  29.044  11.024
78526W        W42734  25.965   8.890  10.509
78527W        W42735  18.095  31.474   3.224
78528W        W42736  16.588   1.757   2.699
78529W        W42737   0.848  19.581   0.387
78530W        W42738  34.479  14.314   2.662
78531W        W42739  30.484  35.867   4.624
78532W        W42740  40.413  43.782  13.307
78533W        W42741  23.158   9.695  11.932
78534W        W42742  38.359  21.613   0.780
78535W        W42743  42.020  19.683  13.418
78536W        W42744  27.615  32.046  11.031
78537W        W42745  44.503  36.440   4.320
78538W        W42746  39.377  44.885  14.303
78539W        W42747   7.785  26.099   1.843
78540W        W42748  17.162  44.320  11.035
78541W        W42749   0.424  23.719   1.921
78542W        W42750  23.691   3.308   3.669
78543W        W42751  41.424  10.227   1.839
78544W        W42752   1.470   9.812  13.851
78545W        W42753   9.282   3.338  13.915
78546W        W42754   9.167  43.769   2.192
78547W        W42755  29.956  17.301   0.743
78548W        W42756  22.678   9.662   3.690
78549W        W42757  19.224  11.764   1.723
78550W        W42758   5.331  42.832  14.851
78551W        W42759  42.282  24.009  11.992
78552W        W42760  41.316   6.702  14.852
78553W        W42761   6.799  14.719   3.711
78554W        W42762   5.429  29.628   0.407
78555W        W42763   2.419  27.655   4.332
78556W        W42764   8.747   2.822  11.027
78557W        W42765  30.434  20.070   2.733
78558W        W42766  38.077  24.597   2.286
78559W        W42767  32.042  14.656  13.036
78560W        W42768  16.737   1.944  12.536
78561W        W42769  24.168  15.649   3.784
78562W        W42770  12.121  33.477   4.811
78563W        W42771  27.601  17.123   3.693
78564W        W42772   2.250  23.240  11.934
78565W        W42773  33.528  27.962   1.221
78566W        W42774  25.644   8.187  14.320
78567W        W42775   3.748  14.600  11.981
78568W        W42776  10.713  33.082   1.802
78569W        W42777  19.610  34.537   3.775
78570W        W42778  37.574  29.091   3.209
78571W        W42779  15.224   9.376  13.039
78572W        W42780  32.498  19.084  10.404
78573W        W42781  30.570  39.917   0.457
78574W        W42782  41.499   6.324  14.876
78575W        W42783  23.136  25.178  12.555
78576W        W42784  42.014  31.103  11.499
78577W        W42785  43.947  16.075   3.631
78578W        W42786  11.351  24.495   2.773
78579W        W42787  12.621  39.436  11.587
78580W        W42788  32.429  20.707   4.189
78581W        W42789  41.294  21.659  12.900
78582W        W42790   9.157  29.471  11.383
78583W        W42791   4.316  39.451   0.255
78584W        W42792   8.789   7.827   4.303
78585W        W42793   6.880  31.029   3.243
78586W        W42794  10.850  41.333   4.773
78587W        W42795  15.691  25.484  11.436
78588W        W42796  43.302  44.754  11.580
78589W        W42797  21.713  11.150  11.906
78590W        W42798  42.348   5.387  13.975
78591W        W42799  26.958  40.416  12.003
78592W        W42800  37.880  26.066  13.929
78593W        W42801  42.437  41.840   2.849
78594W        W42802  13.714   8.239  12.092
78595W        W42803  38.404  13.603  14.460
78596W        W42804   5.335  19.545   0.849
78597W        W42805  39.990  43.784   4.790
78598W        W42806  25.526  30.948   2.736
78599W        W42807  18.778  32.095  14.441
78600W        W42808  41.819   9.849  13.484
78601W        W42809  37.043  28.165   3.814
78602W        W42810  23.129  40.480   0.465
78603W        W42811  27.495  15.822  11.086
78604W        W42812  41.348  27.684  13.530
78605W        W42813   8.771  16.169  13.899
78606W        W42814   1.797  40.849   0.964
78607W        W42815  36.088  11.143   4.170
78608W        W42816  27.531  30.455   2.864
78609W        W42817  30.482  42.782   3.340
78610W        W42818  16.074  32.574  14.303
78611W        W42819  17.238  37.064   0.308
78612W        W42820   4.834   2.756  10.931
78613W        W42821  12.216  15.709   4.213
78614W        W42822  14.671   2.930   1.817
78615W        W42823  39.558  27.482  12.862
78616W        W42824  32.042   4.340  12.898
78617W        W42825  43.373  13.700  13.446
78618W        W42826  18.737  20.125   1.423
78619W        W42827  42.394  20.567  10.463
78620W        W42828  10.144  40.021  11.109
78621W        W42829  16.205  32.520   2.288
78622W        W42830   2.799  19.239   2.277
78623W        W42831  13.621   7.751   1.887
78624W        W42832  21.547  15.278  12.872
78625W        W42833  18.723  20.163  14.879
78626W        W42834  44.263   0.402   0.957
78627W        W42835   0.857  41.291   3.732
78628W        W42836  30.520  10.681   1.706
78629W        W42837  15.621  19.629  10.910
78630W        W42838  43.970  33.603  14.903
78631W        W42839  22.056   0.810   3.262
78632W        W42840  28.144  28.077  14.502
78633W        W42841   9.249  29.098  11.417
78634W        W42842  43.981   4.905   0.472
78635W        W42843  38.491   2.316  12.431
78636W        W42844  43.916  42.445  13.018
78637W        W42845   5.909  22.724  11.437
78638W        W42846  40.915  33.606   2.827
78639W        W42847  16.674  40.455  10.617
78640W        W42848  34.897   3.247  13.001
78641W        W42849   5.855  22.209   1.327
78642W        W42850  33.547  14.669   0.255
78643W        W42851  25.977   1.301   3.174
78644W        W42852   7.271  18.257   2.283
78645W        W42853  34.461   3.305  13.346
78646W        W42854  42.967  33.513   3.319
78647W        W42855  37.458  17.272   2.704
78648W        W42856   5.893   3.889   3.202
78649W        W42857  21.102  37.517   4.260
78650W        W42858  16.662  17.728   4.827
78651W        W42859  19.256  35.573  13.355
78652W        W42860   0.375   7.758  14.410
78653W        W42861  38.437  11.154  10.921
78654W        W42862   1.432  35.862   0.470
78655W        W42863  18.144  38.869   3.855
78656W        W42864  35.580  17.219   2.208
78657W        W42865  22.730  34.098   1.337
78658W        W42866  20.243  14.248  14.765
78659W        W42867   3.782   4.788   2.382
78660W        W42868  23.126   6.380   3.301
78661W        W42869  30.123  43.923   0.779
78662W        W42870  24.052  42.387  11.549
78663W        W42871  19.597  17.203   3.319
78664W        W42872  23.124  24.030  11.471
78665W        W42873  28.023  35.878  12.493
78666W        W42874  13.213  17.257  13.979
78667W        W42875  23.070  23.665   1.221
78668W        W42876  21.084  25.009  14.913
78669W        W42877  22.724  28.126   2.290
78670W        W42878  36.910  33.024  11.091
78671W        W42879  27.604  35.391  11.910
78672W        W42880  32.045  19.779   4.838
78673W        W42881  17.616   0.388   3.801
78674W        W42882  26.154  43.506   3.274
78675W        W42883  42.308  24.099  11.585
78676W        W42884  25.982  23.097   3.268
78677W        W42885  27.013  10.764   2.747
78678W        W42886  15.776   8.826   5.315
78679W        W42887  37.435   7.683   0.827
78680W        W42888  36.984  30.450   2.834
78681W        W42889  19.717   1.962   4.739
78682W        W42890  12.271  33.082   3.714
78683W        W42891  19.733  39.503  10.967
78684W        W42892  42.450  33.499  13.918
78685W        W42893  36.391  31.518   2.357
78686W        W42894  10.384  33.092  10.979
78687W        W42895  30.430   7.386  10.407
78688W        W42896  41.828  42.956   4.224
78689W        W42897   2.901  40.915  11.442
78690W        W42898  40.891   4.912   4.766
78691W        W42899   2.268   1.765   0.399
78692W        W42900  30.636  15.664   1.878
78693W        W42901  22.041  24.606   1.264
78694W        W42902   2.903   4.877   0.256
78695W        W42903  15.629   0.421   1.422
78696W        W42904  14.184   6.790   1.238
78697W        W42905   0.878   5.429  13.850
78698W        W42906  26.466   2.894  12.516
78699W        W42907  39.025  40.819  14.407
78700W        W42908  19.779  27.637  13.421
78701W        W42909  32.632   6.419  12.512
78702W        W42910  12.293  10.153   3.712
78703W        W42911  23.199   8.844   5.158
78704W        W42912  23.698  30.505   2.192
78705W        W42913  28.053  10.646   0.798
78706W        W42914   0.967   0.830   4.132
78707W        W42915  43.295  32.517  13.378
78708W        W42916  38.989  37.928   0.893
78709W        W42917  20.553  14.696   1.820
78710W        W42918  10.702  11.369  11.086
78711W        W42919  20.579   2.303  14.813
78712W        W42920  11.275  10.146   2.320
78713W        W42921  11.143  16.586   4.653
78714W        W42922  33.997  12.182  13.363
78715W        W42923  25.580  23.508  13.473
78716W        W42924  34.035  24.585   3.657
78717W        W42925   7.835   0.799  13.896
78718W        W42926  38.962  14.310  13.349
78719W        W42927  42.332   8.789   3.170
78720W        W42928   2.330   9.707   2.385
78721W        W42929  37.967  23.204   4.167
78722W        W42930  17.702  36.855   9.553
78723W        W42931  17.607  10.207  10.580
78724W        W42932   7.373  20.043  13.890
78725W        W42933  40.413  15.211   3.750
78726W        W42934  23.184  40.003   2.693
78727W        W42935   2.358  24.104  11.472
78728W        W42936  22.247  36.046  13.419
78729W        W42937  42.839   8.702   1.914
78730W        W42938   6.892   3.893  14.993
78731W        W42939  24.004  35.438   0.903
78732W        W42940  35.009   0.947   0.460
78733W        W42941   9.679  10.289   2.663
78734W        W42942  21.713   3.343  12.461
78735W        W42943  23.539  17.242   5.150
78736W        W42944  30.557  39.503  13.483
78737W        W42945  40.372  10.694   4.734
78738W        W42946  16.238  39.045  12.914
78739W        W42947  22.634  12.123   3.648
78740W        W42948  39.933  31.524  13.965
78741W        W42949  30.132  34.421  13.021
78742W        W42950  42.981   1.906  14.486
78743W        W42951  25.513  35.922   3.842
78744W        W42952   1.781   4.842   4.665
78745W        W42953   4.414  40.514   3.641
78746W        W42954  18.755  37.369  11.534
78747W        W42955   9.828  19.716   2.402
78748W        W42956   4.859  31.043   3.860
78749W        W42957   5.840  21.146   0.745
78750W        W42958   7.341  36.426   3.810
78751W        W42959   0.873   7.316  12.340
78752W        W42960  22.645   9.249  13.029
78753W        W42961  41.008  30.086   2.239
78754W        W42962  44.357  24.582  13.535
78755W        W42963  40.823  25.107  14.515
78756W        W42964  15.632  39.994  14.416
78757W        W42965  43.511   1.346   4.165
78758W        W42966  14.146   7.263   4.194
78759W        W42967  42.310  41.989  13.367
78760W        W42968  43.494  41.388  12.562
78761W        W42969  41.812   0.380  11.896
78762W        W42970  28.441  29.428  10.609
78763W        W42971  37.474  24.176   5.181
78764W        W42972  28.496  25.615  10.493
78765W        W42973  15.301  28.442   3.791
78766W        W42974   9.270  16.312  13.948
78767W        W42975  21.748  35.027  14.024
78768W        W42976  28.084  19.177  10.514
78769W        W42977  43.772   6.323  14.925
78770W        W42978  36.582   1.852  13.491
78771W        W42979   0.444  38.834  11.515
78772W        W42980  40.923  20.043   1.250
78773W        W42981  18.204   0.376  13.373
78774W        W42982  37.572  43.800   1.812
78775W        W42983   9.293   8.874  10.894
78776W        W42984   6.886  10.168   1.746
78777W        W42985  34.539   7.735  10.557
78778W        W42986  27.515  44.360  12.881
78779W        W42987   0.306  18.695   1.862
78780W        W42988  16.703   2.373   2.662
78781W        W42989  40.883  35.019  13.010
78782W        W42990  24.550   9.791   1.730
78783W        W42991  12.792  35.580   2.753
78784W        W42992   5.882  34.566   1.265
78785W        W42993  21.624   9.886   4.128
78786W        W42994  12.207  22.215  13.847
78787W        W42995   2.722   2.744   4.273
78788W        W42996   7.269   4.776  14.028
78789W        W42997   6.705   7.316   1.210
78790W        W42998  23.233  30.592  11.942
78791W        W42999  32.423  30.528  14.435
78792W        W43000  27.517  17.699   4.173
78793W        W43001  23.511   9.877   2.663
78794W        W43002  16.779  36.395   4.298
78795W        W43003  29.633  31.149   2.300
78796W        W43004  17.182   4.753  14.815
78797W        W43005  15.180  31.990  13.534
78798W        W43006   4.381   3.820   3.350
78799W        W43007  26.100  16.637  14.368
78800W        W43008   5.317  25.113  14.488
78801W        W43009  34.566  33.080  14.442
78802W        W43010  10.782  39.414   0.851
78803W        W43011  30.495  10.665  12.832
78804W        W43012  38.857  12.344  13.429
78805W        W43013  15.325  44.781   4.263
78806W        W43014  23.636  15.211   2.673
78807W        W43015  33.947  17.104  14.903
78808W        W43016  39.064  11.715   4.610
78809W        W43017  34.103  41.439  13.931
78810W        W43018  40.459   5.343   1.215
78811W        W43019  16.136  10.182   2.740
78812W        W43020  42.900  30.569   1.751
78813W        W43021  18.078  22.639   1.252
78814W        W43022  16.696  10.146   4.156
78815W        W43023  10.777  42.423   2.396
78816W        W43024  13.819  34.964   3.793
78817W        W43025  30.973  28.484  14.446
78818W        W43026  37.554  33.031  14.839
78819W        W43027  18.285  12.811  11.930
78820W        W43028   5.896  35.926   4.626
78821W        W43029  11.810  19.241   1.897
78822W        W43030  26.081   1.285  13.872
78823W        W43031  30.614   2.848  10.644
78824W        W43032  23.638  34.376   1.718
78825W        W43033  23.500  36.551   3.308
78826W        W43034  25.056  40.432  12.988
78827W        W43035  39.958  24.040   3.331
78828W        W43036  34.611  43.837   3.698
78829W        W43037  35.971  38.443   4.141
78830W        W43038  39.850  30.458   0.897
78831W        W43039  35.856   4.393  10.625
78832W        W43040  20.621  40.372  12.012
78833W        W43041  33.011  24.157  14.505
78834W        W43042  40.985  22.998   3.283
78835W        W43043  22.192  20.570  13.802
78836W        W43044  24.505   5.273  10.918
78837W        W43045  21.256   0.928  12.530
78838W        W43046  19.133  31.038  10.467
78839W        W43047   0.411  26.040  11.973
78840W        W43048  31.102  22.019   3.281
78841W        W43049  44.973  38.443  11.867
78842W        W43050  21.203  28.677   0.785
78843W        W43051  23.697  31.040   1.771
78844W        W43052  21.714   1.250  13.987
78845W        W43053  33.534  24.211  14.491
78846W        W43054   1.943  29.535  10.530
78847W        W43055  41.990  11.215   4.722
78848W        W43056  16.287  25.656  14.384
78849W        W43057  14.329  31.136  11.124
78850W        W43058  32.910   7.811   1.753
78851W        W43059  42.823  17.598   5.695
78852W        W43060   9.301  22.193   1.306
78853W        W43061  13.330   8.358   0.929
78854W        W43062   1.937  27.140  13.808
78855W        W43063  41.863  29.433  14.505
78856W        W43064  25.074  15.714  14.285
78857W        W43065  37.497  42.919   0.292
78858W        W43066  11.192   2.930   3.805
78859W        W43067  28.618   8.746   4.170
78860W        W43068  44.479  42.966  10.921
78861W        W43069  24.618  25.148  11.860
78862W        W43070  18.053  44.439   2.364
78863W        W43071  17.602   7.230  11.017
78864W        W43072  18.767  29.156  12.945
78865W        W43073   9.887   0.482  11.063
78866W        W43074  11.336   3.234  12.989
78867W        W43075  26.476  34.961   4.169
78868W        W43076  40.331  34.117  11.010
78869W        W43077  40.397  11.235  14.961
78870W        W43078  29.080  22.573   0.269
78871W        W43079  15.693  31.099  10.412
78872W        W43080  19.208  36.583  12.365
78873W        W43081  19.669  31.910  12.548
78874W        W43082  14.770  12.311  11.376
78875W        W43083  17.658   7.382  11.419
78876W        W43084  14.305  36.064  12.395
78877W        W43085  30.000  31.613  13.322
78878W        W43086  15.581   9.876   5.169
78879W        W43087   7.367   0.938   1.422
78880W        W43088  28.586  18.722   0.964
78881W        W43089  16.260  10.746  13.890
78882W        W43090  15.324  32.010   3.363
78883W        W43091  26.166  20.602   0.335
78884W        W43092  34.913  34.945  12.903
78885W        W43093  42.781  34.022  12.478
78886W        W43094  19.580  14.313   3.792
78887W        W43095  15.158   6.848   4.342
78888W        W43096  43.975  11.294   4.825
78889W        W43097  10.216  43.416   4.130
78890W        W43098   6.893  20.580  11.056
78891W        W43099  19.105  44.872  11.943
78892W        W43100  21.563  15.252   2.724
78893W        W43101   9.866  27.079   0.947
78894W        W43102  34.103   2.374   0.243
78895W        W43103  37.022  25.162  11.587
78896W        W43104  35.868  19.716   2.322
78897W        W43105  20.066   7.247  13.397
78898W        W43106   7.287  21.027  12.996
78899W        W43107   7.710  25.547   1.217
78900W        W43108   2.401  18.102  12.908
78901W        W43109   0.265   4.762   0.295
78902W        W43110  14.203  15.272   0.764
78903W        W43111  32.574   9.787  10.538
78904W        W43112  44.939  26.096  13.428
78905W        W43113  19.254  17.602  12.444
78906W        W43114  16.759  13.201   0.307
78907W        W43115  25.713   3.934  10.496
78908W        W43116  38.468   4.258  10.056
78909W        W43117   0.878   7.303  10.423
78910W        W43118  25.999  20.042   3.847
78911W        W43119  33.039  10.740   1.793
78912W        W43120  34.490  26.036  13.975
78913W        W43121  21.196  29.998   4.314
78914W        W43122  40.348  12.718   4.625
78915W        W43123  23.590  37.951  13.339
78916W        W43124  39.523  21.544   3.288
78917W        W43125   3.877  22.524  11.435
78918W        W43126  10.358   5.924   4.198
78919W        W43127  21.688  10.727  13.973
78920W        W43128   7.255  17.659  10.640
78921W        W43129  32.581  18.665  14.334
78922W        W43130  29.463  11.315   4.646
78923W        W43131  40.978  24.166  14.435
78924W        W43132  23.528  21.098   3.692
78925W        W43133  33.001  25.476   4.348
78926W        W43134  30.544  14.213  10.457
78927W        W43135   3.461  11.130   4.721
78928W        W43136  17.114  33.398   4.693
78929W        W43137  16.305  28.149  10.422
78930W        W43138  23.144   7.286  13.963
78931W        W43139  34.551   7.288   0.727
78932W        W43140  39.020  27.121   3.156
78933W        W43141  21.627  20.108   0.292
78934W        W43142  21.215  27.124  13.055
78935W        W43143  39.973  17.563   3.773
78936W        W43144  40.952  20.154   2.329
78937W        W43145   9.295   8.242   2.901
78938W        W43146  29.176  14.696  11.128
78939W        W43147  29.039  11.172  11.948
78940W        W43148  41.917   9.358   4.675
78941W        W43149  27.673  14.253   4.307
78942W        W43150  28.045  25.147  12.435
78943W        W43151   4.293  28.178   0.277
78944W        W43152   3.461  41.331   3.208
78945W        W43153   6.280  29.059   4.168
78946W        W43154  28.002  26.660   1.699
78947W        W43155  21.144  27.051  12.477
78948W        W43156  31.490  10.646  14.889
78949W        W43157  29.617   8.215   0.310
78950W        W43158   5.894  25.582  12.398
78951W        W43159  29.153  26.135  12.966
78952W        W43160  38.424  28.509   4.701
78953W        W43161  12.664  26.657   0.306
78954W        W43162  11.196  32.913   3.730
78955W        W43163  16.280  43.990  11.934
78956W        W43164   8.278   3.368   0.373
78957W        W43165   0.262   0.805   1.409
78958W        W43166  33.456  31.974  13.867
78959W        W43167  25.130   7.218  13.457
78960W        W43168  44.917  19.045  14.494
78961W        W43169  42.291  26.951  11.409
78962W        W43170   6.340   4.325  11.399
78963W        W43171  31.041  16.584  12.522
78964W        W43172  29.130  21.576  12.409
78965W        W43173   2.782   6.276   4.287
78966W        W43174  33.608  43.777   4.288
78967W        W43175   6.922  15.583  10.494
78968W        W43176  32.573  32.058  12.357
78969W        W43177   0.419  38.009   2.252
78970W        W43178  31.143   3.445  11.890
78971W        W43179  32.129  20.162  13.378
78972W        W43180  44.259  13.635  13.484
78973W        W43181  32.989  12.699  11.484
78974W        W43182  24.117  15.664   1.270
78975W        W43183  15.643  15.722   4.765
78976W        W43184  13.240  19.191  14.955
78977W        W43185   8.357   1.453   2.717
78978W        W43186   2.423  25.157  14.966
78979W        W43187  29.174  24.485   4.205
78980W        W43188  33.986  26.035   4.293
78981W        W43189  27.115  18.228   3.199
78982W        W43190  41.299  14.724   3.700
78983W        W43191  31.586  40.332   2.334
78984W        W43192  19.221  44.457  11.384
78985W        W43193  36.427  24.491  11.576
78986W        W43194   1.284  19.281  14.362
78987W        W43195  28.017   3.331   0.729
78988W        W43196  33.394  17.712   3.865
78989W        W43197  32.470  24.713  14.894
78990W        W43198  27.046  31.996  12.389
78991W        W43199  42.990  36.974  13.476
78992W        W43200  14.815  11.685  13.369
78993W        W43201   8.244  37.945   4.755
78994W        W43202  37.007  41.819  14.995
78995W        W43203  17.287  14.234  13.801
78996W        W43204   2.827  20.215  11.494
78997W        W43205  38.352  16.639  14.833
78998W        W43206  23.160  28.566  10.548
78999W        W43207   1.371   1.859   2.403
79000W        W43208  24.010  42.028   1.451
79001W        W43209   0.433  33.423   5.792
79002W        W43210  22.216  39.317   3.790
79003W        W43211  39.941  19.164  13.873
79004W        W43212  13.269  40.947  14.981
79005W        W43213  38.444  37.085   4.730
79006W        W43214  17.214  42.507  10.020
79007W        W43215  23.092  42.855  13.972
79008W        W43216  24.717  16.647   0.473
79009W        W43217   1.304  19.718   3.721
79010W        W43218  17.287   9.676  14.791
79011W        W43219  18.773  19.646   3.198
79012W        W43220  20.126  36.591   3.146
79013W        W43221  43.810  12.205  12.533
79014W        W43222   2.742  39.935   4.281
79015W        W43223  26.002  13.263   1.414
79016W        W43224  33.435  36.853   4.614
79017W        W43225  29.052  30.659   4.300
79018W        W43226   4.820  11.729   2.879
79019W        W43227  14.233  22.219   4.805
79020W        W43228  19.687  43.459  13.805
79021W        W43229  22.185  43.904   4.782
79022W        W43230  20.753  19.040   4.185
79023W        W43231  28.513   6.365   3.655
79024W        W43232  30.455  33.575   2.247
79025W        W43233   9.702  24.706   2.743
79026W        W43234  24.168  32.925   0.920
79027W        W43235  36.513   3.868  12.049
79028W        W43236  43.401  21.030   1.711
79029W        W43237  22.020  38.050   1.811
79030W        W43238  41.307   2.735   1.731
79031W        W43239  18.282  11.302  10.567
79032W        W43240   6.233  19.736  10.082
79033W        W43241  41.305  27.001   4.607
79034W        W43242   2.332  22.679   1.439
79035W        W43243  19.718  41.839  14.951
79036W        W43244  19.270  19.658   0.749
79037W        W43245  19.587  42.899   5.197
79038W        W43246  32.589  10.653   1.323
79039W        W43247  25.627  18.050   2.271
79040W        W43248  39.348   6.834  14.385
79041W        W43249  24.148  17.699   3.740
79042W        W43250   8.397  37.964   3.242
79043W        W43251  16.081  25.095   4.210
79044W        W43252  12.735  14.613  13.337
79045W        W43253  40.870  13.637  13.878
79046W        W43254  21.735  31.618   0.745
79047W        W43255  33.387  11.833  11.521
79048W        W43256  39.819  16.177   0.441
79049W        W43257  25.083   7.325  14.314
79050W        W43258   6.218  23.186  13.811
79051W        W43259   2.226  24.514  13.337
79052W        W43260  37.367  31.620  10.530
79053W        W43261  40.933   8.199  10.494
79054W        W43262  19.676   5.209  11.448
79055W        W43263   7.810  22.102   0.838
79056W        W43264   2.366  20.632  14.967
79057W        W43265  43.893  36.877   4.661
79058W        W43266   3.954  25.566  11.482
79059W        W43267  29.611  43.454  12.862
79060W        W43268   0.826  29.646  12.918
79061W        W43269   4.367  40.416  13.520
79062W        W43270  31.562  10.768  12.986
79063W        W43271   9.788  42.032   2.353
79064W        W43272  30.531  32.396   4.194
79065W        W43273  37.532   8.742   0.314
79066W        W43274  12.765   5.401   2.273
79067W        W43275  23.099  21.139   2.358
79068W        W43276   3.223  41.831   1.326
79069W        W43277   8.223  38.872  12.407
79070W        W43278  39.041   1.745  12.447
79071W        W43279  14.758  20.159   1.767
79072W        W43280  19.059  17.096  12.514
79073W        W43281  25.483  22.109   4.676
79074W        W43282  34.610  10.294   1.299
79075W        W43283  37.946  16.293   1.804
79076W        W43284   2.377  16.731  12.071
79077W        W43285   4.749  26.585   1.887
79078W        W43286  27.450   4.764   2.192
79079W        W43287  36.969  34.945   1.780
79080W        W43288   7.288  14.792  10.982
79081W        W43289  11.863  37.946   1.871
79082W        W43290  13.699  33.539  12.503
79083W        W43291  42.992  33.594   1.349
79084W        W43292  44.911  42.374  14.959
79085W        W43293   5.689  16.773   2.256
79086W        W43294  40.927  24.695   2.769
79087W        W43295   9.718  39.925  10.906
79088W        W43296  36.489  23.661   0.450
79089W        W43297   2.956  18.665  12.374
79090W        W43298  22.088  13.296   1.736
79091W        W43299  30.939  14.336   9.585
79092W        W43300  11.136  42.946  12.357
79093W        W43301  24.618   5.395   2.267
79094W        W43302   9.726  20.545  12.345
79095W        W43303   8.668   8.766  12.077
79096W        W43304  27.676  19.678  12.507
79097W        W43305  31.959  27.122  10.442
79098W        W43306  20.742   4.378  11.552
79099W        W43307  19.046  44.932  14.945
79100W        W43308  14.749  36.517   4.145
79101W        W43309  20.169   1.260   2.253
79102W        W43310  39.975  29.980  10.472
79103W        W43311  22.670   8.687  13.348
79104W        W43312  10.172   6.908  10.427
79105W        W43313   8.668  12.254   4.622
79106W        W43314  25.685   4.245   2.256
79107W        W43315  41.354  28.582  12.840
79108W        W43316   0.796   1.976  14.961
79109W        W43317   8.344  38.563   4.199
79110W        W43318  24.180   9.387   0.916
79111W        W43319  30.465   8.787  10.954
79112W        W43320  31.987   3.735   4.755
79113W        W43321  15.791  39.340   2.770
79114W        W43322  30.614   6.704   1.211
79115W        W43323  25.684  30.432  10.466
79116W        W43324   8.293   4.870  13.384
79117W        W43325  23.225  39.959   3.232
79118W        W43326  17.178  23.005   0.435
79119W        W43327  12.821  20.073   0.918
79120W        W43328   0.954  36.041   1.413
79121W        W43329  18.069  15.134   1.784
79122W        W43330  16.671  30.579   4.753
79123W        W43331  40.326  17.263   9.645
79124W        W43332   1.430  15.722   2.334
79125W        W43333   2.432  16.249  14.321
79126W        W43334  19.579  17.568   4.281
79127W        W43335   1.900  10.858   1.284
79128W        W43336  32.626  36.522   3.213
79129W        W43337   3.416  33.911   1.922
79130W        W43338  44.890  23.629   1.349
79131W        W43339  29.577  36.571  10.492
79132W        W43340  15.647   7.861   2.756
79133W        W43341  20.073  21.569  12.345
79134W        W43342  18.066  31.489  11.061
79135W        W43343  30.575   6.800  13.395
79136W        W43344  23.733  37.838  14.419
79137W        W43345  36.887  22.200   2.189
79138W        W43346  30.934  28.620   4.707
79139W        W43347  21.247  36.364  10.409
79140W        W43348   4.226  17.568   3.677
79141W        W43349   0.831  26.490   5.205
79142W        W43350  23.995   3.710  11.914
79143W        W43351  31.562  38.921   3.269
79144W        W43352  36.478   0.979   0.252
79145W        W43353   1.762   2.853  11.023
79146W        W43354  18.711  39.880  12.869
79147W        W43355   1.961  37.543   1.730
79148W        W43356  10.687  27.646  14.960
79149W        W43357  31.433  19.556  10.450
79150W        W43358  40.048  16.651   3.358
79151W        W43359  41.530   5.202   3.223
79152W        W43360  33.384  33.021   2.348
79153W        W43361  32.395  10.792  13.397
79154W        W43362  26.618  39.972   2.720
79155W        W43363  33.957  10.761  14.933
79156W        W43364  24.565  17.186  12.344
79157W        W43365   7.736  28.170   4.787
79158W        W43366   4.878  33.547  13.469
79159W        W43367  18.159  41.790   4.686
79160W        W43368  38.039  32.629   3.242
79161W        W43369  29.098  11.203   3.770
79162W        W43370  10.236  14.271  12.018
79163W        W43371  38.007  28.994  14.776
79164W        W43372   3.925  24.560   3.378
79165W        W43373  30.154  39.520  12.510
79166W        W43374  42.370  15.605   2.206
79167W        W43375  10.340  10.674   5.140
79168W        W43376  42.982  32.622  12.483
79169W        W43377   3.321  31.955   1.230
79170W        W43378  26.591  28.125  13.892
79171W        W43379  16.151   9.664   2.722
79172W        W43380   3.349  22.112   4.791
79173W        W43381   9.699   3.356  12.578
79174W        W43382  20.707  21.237  12.967
79175W        W43383  23.039  27.652  12.449
79176W        W43384  35.044  13.774   2.184
79177W        W43385  24.593   3.233  12.009
79178W        W43386  39.011  31.079  13.885
79179W        W43387  30.449  22.164   4.201
79180W        W43388   9.320  26.130   0.834
79181W        W43389  22.050  15.743   4.212
79182W        W43390   4.403  41.927   0.445
79183W        W43391  37.952  43.382  14.407
79184W        W43392  13.108  20.743  12.986
79185W        W43393  28.981  44.949  13.047
79186W        W43394  11.727  43.873   1.695
79187W        W43395   9.770  44.347   1.739
79188W        W43396  13.233   0.981  11.933
79189W        W43397  21.249  18.158  13.055
79190W        W43398  20.049  10.637  13.344
79191W        W43399  32.433  33.050   3.357
79192W        W43400  28.565  27.646  10.453
79193W        W43401  22.576   2.767   0.264
79194W        W43402  38.426   9.226   2.835
79195W        W43403  25.179  27.476   0.344
79196W        W43404  42.324  15.665   0.873
79197W        W43405  13.287  37.419   0.396
79198W        W43406  39.372  38.509   2.207
79199W        W43407  34.887  44.392   0.440
79200W        W43408   8.380  35.895   3.309
79201W        W43409  33.008  16.253   4.756
79202W        W43410  29.648  14.237  11.607
79203W        W43411  16.642  39.387   1.804
79204W        W43412  44.350  15.137   4.795
79205W        W43413  30.989  30.564   0.928
79206W        W43414   6.782  32.027   3.648
79207W        W43415  24.717  41.459  10.437
79208W        W43416   1.291  14.295   0.319
79209W        W43417  30.639  10.278   0.251
79210W        W43418  17.665   5.341  10.129
79211W        W43419  14.607   5.851  12.055
79212W        W43420   6.418  44.796  11.031
79213W        W43421  32.469  22.646   1.355
79214W        W43422   6.698   9.199   0.413
79215W        W43423  14.606   1.755   4.170
79216W        W43424   1.771  41.519   2.875
79217W        W43425  40.436  34.913   1.281
79218W        W43426  20.535  24.078  14.962
79219W        W43427   2.401  27.187  13.846
79220W        W43428   8.680   5.350  14.879
79221W        W43429  26.191  26.075  13.860
79222W        W43430  26.566   0.365  12.437
79223W        W43431  17.598  42.514   0.294
79224W        W43432  33.987  28.981   0.839
79225W        W43433  24.042  26.098   4.612
79226W        W43434   4.318   2.862  14.294
79227W        W43435  19.217   3.342  13.376
79228W        W43436   6.771  41.445   0.301
79229W        W43437  28.466  25.493  12.091
79230W        W43438  28.456  43.830   3.689
79231W        W43439   5.799   3.848  12.442
79232W        W43440  41.324  43.949  11.076
79233W        W43441  34.065  42.980  12.038
79234W        W43442  12.182  27.515   1.912
79235W        W43443   9.380  25.570  11.610
79236W        W43444  38.872  31.499  13.035
79237W        W43445  17.707  14.292  13.463
79238W        W43446  14.746  42.990  12.989
79239W        W43447  12.776  34.389   3.272
79240W        W43448  28.595  36.943   2.382
79241W        W43449  11.854  41.325  11.514
79242W        W43450  22.189  23.678   0.743
79243W        W43451  26.470   3.896   5.092
79244W        W43452  44.864  37.402  11.918
79245W        W43453  25.470  24.549  14.992
79246W        W43454   3.254   6.413   1.881
79247W        W43455  30.162  26.200   4.155
79248W        W43456   4.893  35.360  14.507
79249W        W43457  41.990  30.450  12.937
79250W        W43458  20.217  21.738   4.633
79251W        W43459  34.615  40.445   4.736
79252W        W43460   1.802  30.065   3.265
79253W        W43461  24.114   9.749  13.390
79254W        W43462  19.261  23.500  11.868
79255W        W43463  25.706  18.217   4.267
79256W        W43464  34.463  17.150   0.850
79257W        W43465  26.044  24.667  14.766
79258W        W43466  24.570  13.141  10.615
79259W        W43467  16.790  20.164  12.378
79260W        W43468   9.269  21.153  10.572
79261W        W43469  28.640  21.141  12.926
79262W        W43470   2.371  15.097  13.409
79263W        W43471  21.021   5.762   4.176
79264W        W43472  36.052  16.796   3.752
79265W        W43473  32.446  14.768  10.040
79266W        W43474   8.266   1.435  14.864
79267W        W43475  19.600  12.822  10.516
79268W        W43476  26.091   7.361  11.859
79269W        W43477   0.321   4.354   4.255
79270W        W43478  19.758  18.100   1.267
79271W        W43479  10.787  44.992   4.219
79272W        W43480   5.383  10.279   3.741
79273W        W43481  16.667  29.670   1.226
79274W        W43482  20.547  44.796  13.047
79275W        W43483  11.133  17.080  12.443
79276W        W43484  17.251  12.611   0.805
79277W        W43485  19.144  29.625  14.827
79278W        W43486  36.060  42.417  10.437
79279W        W43487  34.949  35.905  10.925
79280W        W43488  13.669   4.774  11.860
79281W        W43489   8.780  43.472  10.903
79282W        W43490  32.509  30.541   3.831
79283W        W43491  40.022  27.104  14.922
79284W        W43492  13.719  19.556   0.863
79285W        W43493  19.752  13.224  12.508
79286W        W43494  22.625   2.962   3.695
79287W        W43495  17.774  34.923   3.261
79288W        W43496  37.505   3.246  13.470
79289W        W43497  39.332  22.597   4.639
79290W        W43498  15.154   2.362  13.322
79291W        W43499  11.757  34.981   3.837
79292W        W43500  21.646  26.170   2.239
79293W        W43501  39.010  31.533   0.889
79294W        W43502   1.391  15.609   4.262
79295W        W43503  19.104  29.525  11.578
79296W        W43504  16.204  23.675   3.711
79297W        W43505  19.713  22.607  11.374
79298W        W43506  21.605  39.908  12.520
79299W        W43507  23.693  17.774   0.341
79300W        W43508  24.997  31.617   2.360
79301W        W43509   2.802  16.741   2.281
79302W        W43510  33.416  40.440   0.787
79303W        W43511  19.577   7.174   1.401
79304W        W43512  34.884  12.174  12.926
79305W        W43513  24.500  11.743   1.769
79306W        W43514  32.528  24.714   0.298
79307W        W43515  39.419  22.094  11.374
79308W        W43516   5.915  27.196   1.822
79309W        W43517   5.318  11.782  10.474
79310W        W43518  26.059  26.181   3.220
79311W        W43519   6.384  21.033  11.375
79312W        W43520  35.001  23.576  11.123
79313W        W43521   2.928  31.548  12.890
79314W        W43522  24.051  29.947   1.352
79315W        W43523  22.091  44.488   2.728
79316W        W43524  11.755  37.514  12.430
79317W        W43525   7.337  11.141   1.824
79318W        W43526  19.159   3.844   5.607
79319W        W43527   2.788  34.594   4.330
79320W        W43528  39.499  29.055   3.718
79321W        W43529  25.976  20.243   0.335
79322W        W43530  44.923  30.625  10.044
79323W        W43531  29.109  22.074  13.391
79324W        W43532   5.284  13.843  12.046
79325W        W43533  23.729  15.621  13.391
79326W        W43534  25.684  41.019   2.266
79327W        W43535  17.185  31.622  13.507
79328W        W43536  17.300  34.027   4.233
79329W        W43537  34.866  33.565  12.463
79330W        W43538  26.991  16.109  10.409
79331W        W43539   9.253  40.360   1.785
79332W        W43540  19.118  40.351  14.894
79333W        W43541  20.272   9.781   0.398
79334W        W43542  40.892  36.907   1.697
79335W        W43543  37.544  37.371   2.671
79336W        W43544   2.470   8.354   1.405
79337W        W43545  29.648  20.668   3.658
79338W        W43546  16.746   2.871   3.272
79339W        W43547   7.882  10.692  14.023
79340W        W43548  26.020  12.163  11.021
79341W        W43549  22.553  44.823   2.256
79342W        W43550  36.589   0.903   3.791
79343W        W43551  25.973  20.565   2.755
79344W        W43552  35.983   3.444   3.152
79345W        W43553  26.582  11.283   2.232
79346W        W43554  15.192  17.240   1.710
79347W        W43555  37.963  40.513  14.955
79348W        W43556  30.162  43.897   4.799
79349W        W43557  34.985  26.141   1.885
79350W        W43558  42.912  31.985  14.296
79351W        W43559  38.353  29.610   2.202
79352W        W43560   9.261   9.298   1.717
79353W        W43561  26.134  10.158  12.567
79354W        W43562  42.343  30.553   2.261
79355W        W43563  40.480  40.425   3.794
79356W        W43564  28.054  14.322  11.398
79357W        W43565  18.746   4.235  11.422
79358W        W43566  30.481  40.305   4.827
79359W        W43567  21.641  30.956  13.350
79360W        W43568  18.231  14.137   3.740
79361W        W43569  26.206  37.888   1.292
79362W        W43570  13.112   2.278   1.752
79363W        W43571   4.246  17.109  14.871
79364W        W43572   8.663   4.403   3.658
79365W        W43573   5.414   5.294   1.875
79366W        W43574  34.877   3.318  14.282
79367W        W43575  14.771  27.493   0.959
79368W        W43576  34.521  38.067   3.271
79369W        W43577   8.771  19.558  11.561
79370W        W43578  26.469  26.110  12.902
79371W        W43579   1.422  39.862  14.790
79372W        W43580  11.204  41.030  11.952
79373W        W43581   4.861  44.315  12.354
79374W        W43582  16.756   4.300  12.090
79375W        W43583  22.662  20.601  10.594
79376W        W43584  44.756  38.346  14.769
79377W        W43585  33.548  14.094   0.358
79378W        W43586  36.582  28.482   3.830
79379W        W43587  14.605  27.009   3.331
79380W        W43588  12.269  33.964  11.109
79381W        W43589  19.158  11.867   0.261
79382W        W43590  17.174   9.378   4.206
79383W        W43591  18.201  14.698  12.027
79384W        W43592  13.162  32.425   2.802
79385W        W43593  14.725   6.316  10.927
79386W        W43594  21.709   6.342   2.195
79387W        W43595  40.490  20.154   1.741
79388W        W43596  11.668  31.093  11.059
79389W        W43597  12.828  39.930   2.881
79390W        W43598  20.143  42.788   0.345
79391W        W43599  41.037  31.925   0.400
79392W        W43600   1.386  23.575  12.500
79393W        W43601  42.977  30.543   0.919
79394W        W43602  39.317  10.363   4.264
79395W        W43603  24.127  24.033  11.484
79396W        W43604  16.154  27.557  11.582
79397W        W43605  32.566  17.579  11.013
79398W        W43606  33.421  19.555   1.386
79399W        W43607  44.797  20.256  11.007
79400W        W43608  38.327  27.599  14.511
79401W        W43609  26.575  38.937   4.644
79402W        W43610  20.695   4.251   0.456
79403W        W43611  28.143   6.374  14.315
79404W        W43612  42.503  25.060  10.602
79405W        W43613  19.657  26.168   2.823
79406W        W43614   8.712  24.682  10.578
79407W        W43615  42.854   3.877  13.954
79408W        W43616  34.589  29.627  13.407
79409W        W43617  29.516  19.640  11.922
79410W        W43618  41.517  32.433  12.842
79411W        W43619  10.849   0.787  10.441
79412W        W43620  35.425  35.517  13.459
79413W        W43621   3.867  35.923   0.343
79414W        W43622  39.397  37.481  12.368
79415W        W43623  11.657   8.199   3.319
79416W        W43624  20.272  41.522   1.841
79417W        W43625   9.236  32.542   2.798
79418W        W43626  37.006  27.642  12.975
79419W        W43627  32.390  44.985   2.237
79420W        W43628  19.728  21.169  13.492
79421W        W43629  19.136  29.062   2.360
79422W        W43630  40.051  29.149  13.414
79423W        W43631  20.254  12.266  11.416
79424W        W43632  16.107  17.710  12.947
79425W        W43633  34.052  26.000   3.180
79426W        W43634  21.240  20.153   4.738
79427W        W43635  28.460  10.836  14.342
79428W        W43636  37.951  15.104   2.687
79429W        W43637  10.344  28.496   0.347
79430W        W43638  39.342   7.262  13.377
79431W        W43639  44.870  40.370   1.924
79432W        W43640   2.325  36.893   2.838
79433W        W43641  42.012  16.710  13.527
79434W        W43642  34.947  16.733   4.151
79435W        W43643  10.254  16.173  12.859
79436W        W43644  30.041  10.833   2.890
79437W        W43645   8.777  37.881  11.121
79438W        W43646   8.817  10.170   4.708
79439W        W43647   0.426   3.339   0.448
79440W        W43648  24.131  10.238  12.959
79441W        W43649  38.003  39.843  12.383
79442W        W43650  16.311  24.724  12.490
79443W        W43651  20.118  18.090   1.730
79444W        W43652  21.688  12.180  14.461
79445W        W43653   5.707  44.795   4.261
79446W        W43654  39.901  26.143  12.352
79447W        W43655  40.428  16.151   0.831
79448W        W43656   3.889  44.413   3.813
79449W        W43657  38.445  42.885  13.963
79450W        W43658  43.795  28.616  14.825
79451W        W43659  42.876  20.645   1.342
79452W        W43660  24.075  35.061  14.006
79453W        W43661  10.223  37.442   3.360
79454W        W43662   8.784  21.143   1.720
79455W        W43663   9.382  27.482  14.407
79456W        W43664  19.051  44.946   4.271
79457W        W43665  29.429   6.385   5.229
79458W        W43666   8.393   1.830   1.310
79459W        W43667  27.609  35.974  13.400
79460W        W43668  38.549  23.199  14.278
79461W        W43669  13.756  35.007   0.412
79462W        W43670  37.033  22.653  14.960
79463W        W43671  14.696  26.056  11.566
79464W        W43672  26.156  12.163   4.726
79465W        W43673  25.004  43.388   0.836
79466W        W43674  42.492  34.924  11.979
79467W        W43675   1.945  20.249   0.915
79468W        W43676  43.342  26.208   1.796
79469W        W43677  37.567   1.787  11.468
79470W        W43678  39.885  13.264  10.914
79471W        W43679  38.375   2.439  14.777
79472W        W43680   6.779  20.164  11.936
79473W        W43681   0.932  38.995   2.738
79474W        W43682  42.024   0.347   2.779
79475W        W43683  35.935  13.777  10.967
79476W        W43684  12.814  32.141  13.966
79477W        W43685  22.042  26.010   2.668
79478W        W43686  43.270  25.087  11.969
79479W        W43687  11.317  20.594   3.783
79480W        W43688   9.842  43.970   2.795
79481W        W43689  19.224  36.851  14.935
79482W        W43690  18.226  14.670  10.625
79483W        W43691  24.719  37.425  13.947
79484W        W43692  17.735   4.385  12.033
79485W        W43693  17.704  43.780   1.346
79486W        W43694  13.188   9.171   3.317
79487W        W43695  21.675   9.787  13.046
79488W        W43696  12.677  41.482  10.594
79489W        W43697  31.137  10.814   2.207
79490W        W43698  41.383  22.524   1.245
79491W        W43699  25.160  26.057  10.973
79492W        W43700   3.220   6.395   1.351
79493W        W43701   6.297  37.546   1.893
79494W        W43702  11.331  34.881   0.834
79495W        W43703  41.441   3.826   5.230
79496W        W43704   6.910  38.048  11.585
79497W        W43705  14.159  13.203   4.653
79498W        W43706  13.324   5.770   0.272
79499W        W43707  30.937   5.330  13.985
79500W        W43708  37.456   2.845   3.337
79501W        W43709  23.556  17.178  11.984
79502W        W43710  41.984  29.474   4.228
79503W        W43711  18.760   3.420  12.034
79504W        W43712   2.885   4.341   3.808
79505W        W43713  39.815  36.948  13.889
79506W        W43714  26.460   0.369   9.936
79507W        W43715  37.416  39.331  10.470
79508W        W43716  35.019  12.360   2.773
79509W        W43717  25.087  31.978   0.422
79510W        W43718  11.757  25.203  10.982
79511W        W43719  10.239  44.438  14.995
79512W        W43720  44.310  28.024   0.945
79513W        W43721  25.976  26.495  11.991
79514W        W43722  15.590  13.607   1.875
79515W        W43723  29.668  13.316  10.466
79516W        W43724  40.502   4.267   4.609
79517W        W43725  41.929  37.926  12.534
79518W        W43726  40.396  28.623  12.973
79519W        W43727  24.979  12.804  13.824
79520W        W43728  23.204  21.602  10.435
79521W        W43729  32.610  19.690   1.898
79522W        W43730   3.294  32.414  11.890
79523W        W43731  40.534  15.180  14.989
79524W        W43732  43.383  14.682   0.866
79525W        W43733  27.966  37.341   1.831
79526W        W43734  36.479  19.074  14.429
79527W        W43735  27.658  38.988  13.512
79528W        W43736  41.452  29.446  12.390
79529W        W43737  13.805  42.789   2.240
79530W        W43738  11.313  38.821   0.376
79531W        W43739  28.042  38.493  11.547
79532W        W43740  43.894  43.819   3.334
79533W        W43741  12.827  29.516   0.374
79534W        W43742  28.007   0.989  13.923
79535W        W43743  25.051   3.941  14.509
79536W        W43744  40.019  20.227   4.822
79537W        W43745  37.504  19.743   5.167
79538W        W43746  33.619  20.210   1.910
79539W        W43747  39.539  10.646   4.234
79540W        W43748  36.532   9.658   1.895
79541W        W43749  14.116  22.039  14.358
79542W        W43750  23.220  14.278  10.615
79543W        W43751  21.259   3.346   4.800
79544W        W43752  25.534  43.792  12.353
79545W        W43753  19.076  19.223   0.390
79546W        W43754  13.745   2.747   0.966
79547W        W43755  36.936  21.197   4.705
79548W        W43756   5.244  16.616   2.748
79549W        W43757  42.353  11.759  14.917
79550W        W43758  44.338  41.899   2.723
79551W        W43759  32.540  13.734   3.816
79552W        W43760  23.520  10.316  13.343
79553W        W43761  10.144  44.262   3.237
79554W        W43762  24.680  24.043   1.252
79555W        W43763  24.104  36.954   2.745
79556W        W43764  24.126  26.083  14.789
79557W        W43765  17.727  11.210  10.906
79558W        W43766  17.128  22.717  14.463
79559W        W43767  21.572  29.611   1.284
79560W        W43768   4.399   4.280   3.283
79561W        W43769  13.705  30.437   0.248
79562W        W43770  39.935   9.339  13.012
79563W        W43771  31.595  22.708   2.370
79564W        W43772  18.078  33.982   0.467
79565W        W43773  34.009  31.139   4.651
79566W        W43774  22.539  11.677   4.320
79567W        W43775  11.645  31.517   3.147
79568W        W43776  34.490  11.671   4.211
79569W        W43777  38.488  26.634   3.853
79570W        W43778  44.927   3.956  13.871
79571W        W43779  33.929  16.637   4.129
79572W        W43780   1.838   5.426  10.521
79573W        W43781   5.281  15.635  11.607
79574W        W43782  29.163  17.185  11.006
79575W        W43783  22.526  31.031   1.442
79576W        W43784  37.024  18.779   4.709
79577W        W43785  11.647  33.917  13.049
79578W        W43786  36.528  13.274   4.319
79579W        W43787   9.293  44.395   2.286
79580W        W43788  20.654  28.149   0.422
79581W        W43789  10.870  28.037  11.928
79582W        W43790  32.515  29.502   4.285
79583W        W43791  29.053  29.068  11.598
79584W        W43792   7.304  36.546   2.770
79585W        W43793  15.089  18.196   3.175
79586W        W43794  11.857  27.986  10.564
79587W        W43795  13.251  32.443  13.912
79588W        W43796  17.751  44.333   2.726
79589W        W43797  14.316  43.896  11.088
79590W        W43798  15.120  19.770  14.387
79591W        W43799  35.546   5.328   4.826
79592W        W43800  16.734  38.019   0.347
79593W        W43801   3.333  29.531  13.956
79594W        W43802  11.281   6.914   0.376
79595W        W43803  31.517  42.389  11.430
79596W        W43804  40.841   6.333   5.166
79597W        W43805  38.849  36.081   2.775
79598W        W43806  40.344   9.391  14.006
79599W        W43807  36.582   0.264   4.771
79600W        W43808  34.102  14.269  14.974
79601W        W43809  24.981  11.212   2.703
79602W        W43810  24.173  17.080  13.940
79603W        W43811  32.458  20.683  10.500
79604W        W43812  17.219  43.515  10.951
79605W        W43813  29.952  26.048  11.128
79606W        W43814  20.272  13.226   2.684
79607W        W43815  21.556  25.699  13.847
79608W        W43816   6.783  43.405  14.420
79609W        W43817  42.955  41.786   1.810
79610W        W43818  33.624  28.950   4.702
79611W        W43819   7.739  38.928   0.284
79612W        W43820  43.806  43.341   2.851
79613W        W43821  40.040   8.365  14.341
79614W        W43822   3.952  39.016  11.423
79615W        W43823  15.821  29.044  11.583
79616W        W43824  34.386   8.701  12.344
79617W        W43825  11.773  41.454  12.447
79618W        W43826  32.053  33.987   2.357
79619W        W43827  14.801  27.544  14.357
79620W        W43828   1.441  32.908   0.787
79621W        W43829  14.143   1.753  14.287
79622W        W43830  38.825  33.584  13.376
79623W        W43831  40.455  12.710   5.118
79624W        W43832  34.409  34.466   3.831
79625W        W43833  34.933  18.161   4.744
79626W        W43834   2.797  22.208   1.882
79627W        W43835  31.504   6.776   3.189
79628W        W43836  32.985  35.930   4.758
79629W        W43837  35.456  33.388  11.063
79630W        W43838  43.309   6.677   0.835
79631W        W43839  33.402  32.897  12.971
79632W        W43840   2.930  26.979   2.245
79633W        W43841   5.924  32.919   2.713
79634W        W43842  22.051  28.518  12.546
79635W        W43843   3.392  15.279   2.692
79636W        W43844  33.577  38.830   2.203
79637W        W43845  13.685  22.161  12.420
79638W        W43846  21.634  15.795  12.985
79639W        W43847  26.106  11.754   3.381
79640W        W43848  17.284  32.495  11.072
79641W        W43849  19.090  35.870   0.937
79642W        W43850  15.236  28.115   0.479
79643W        W43851  25.106  42.387   4.602
79644W        W43852   1.859   8.185  14.371
79645W        W43853   0.288   8.864  13.451
79646W        W43854  39.543  43.946   4.291
79647W        W43855   8.864  33.974   0.312
79648W        W43856  37.929  22.627  13.419
79649W        W43857   8.820  20.724   4.235
79650W        W43858  21.525   7.252   1.262
79651W        W43859  17.563  30.922  14.804
79652W        W43860  34.986  19.595   2.752
79653W        W43861   7.760   0.982  12.019
79654W        W43862  30.522  35.045   3.191
79655W        W43863   4.920  21.517   2.810
79656W        W43864  35.564  32.595   4.249
79657W        W43865   3.338  20.539  12.579
79658W        W43866  14.140   3.745   5.273
79659W        W43867  41.985  22.626  12.482
79660W        W43868  39.027  27.458  13.428
79661W        W43869  29.999  18.117   4.159
79662W        W43870  29.631  37.452  11.891
79663W        W43871  42.922  35.926   4.757
79664W        W43872  41.790  23.148   2.307
79665W        W43873   6.426   7.897   0.746
79666W        W43874  16.313  20.076  13.346
79667W        W43875   1.894  30.645  13.944
79668W        W43876  12.836  11.836   1.724
79669W        W43877  34.093   9.736  14.369
79670W        W43878  35.552  33.618  12.555
79671W        W43879  32.505  21.198   1.867
79672W        W43880  26.146   2.846   3.766
79673W        W43881  16.079  28.990   4.205
79674W        W43882  29.457  25.621  11.094
79675W        W43883  31.431  19.179  14.018
79676W        W43884  28.505  22.640   2.388
79677W        W43885   0.417  36.543  14.820
79678W        W43886  43.886  30.620   4.233
79679W        W43887  44.973  21.669  11.481
79680W        W43888  10.655  24.989  10.952
79681W        W43889  43.003   2.390   1.293
79682W        W43890  10.199  35.941  12.907
79683W        W43891   9.703  11.751  12.555
79684W        W43892  20.072  12.154   2.367
79685W        W43893  36.893  40.367  11.385
79686W        W43894   7.748  15.723  13.062
79687W        W43895  41.010  42.033  11.101
79688W        W43896  38.048   2.855  13.541
79689W        W43897  29.654  38.951   5.202
79690W        W43898  26.505   5.345  12.832
79691W        W43899  33.551  18.146   0.462
79692W        W43900  38.329   9.191  12.082
79693W        W43901   3.783  41.518   0.933
79694W        W43902   8.341  39.434   4.648
79695W        W43903   5.919   4.391   1.345
79696W        W43904  30.610   5.277  12.450
79697W        W43905  42.024  32.055  13.446
79698W        W43906   1.415   6.776  11.124
79699W        W43907  32.116   1.259  14.376
79700W        W43908   4.765  16.795  14.816
79701W        W43909  10.819  11.318   0.308
79702W        W43910  44.864   7.868   3.786
79703W        W43911   9.691  32.522  10.986
79704W        W43912  35.564  13.769  11.497
79705W        W43913  36.924  40.439   2.330
79706W        W43914  14.291  40.045  14.887
79707W        W43915  12.809   6.251   3.202
79708W        W43916  19.105  43.415  11.458
79709W        W43917  42.995   2.917   0.330
79710W        W43918  10.698  32.595   4.780
79711W        W43919   0.781  43.272   1.915
79712W        W43920   9.792   4.840  14.763
79713W        W43921  38.917   6.682  13.371
79714W        W43922  28.673  39.877   3.307
79715W        W43923   8.737   8.892  14.410
79716W        W43924   3.452  40.539  12.483
79717W        W43925  42.945  30.485   4.322
79718W        W43926  33.549  42.393  11.983
79719W        W43927   7.678   2.453  10.640
79720W        W43928  40.486  41.846   3.778
79721W        W43929   3.319   2.244  14.882
79722W        W43930   9.790  35.570   4.262
79723W        W43931  31.566  26.547   3.359
79724W        W43932  13.623  27.604  11.964
79725W        W43933  33.450   7.820  14.020
79726W        W43934  40.828  13.842  14.965
79727W        W43935   4.321   9.816  12.843
79728W        W43936  15.107  26.584  12.389
79729W        W43937  32.107  31.081   4.823
79730W        W43938  42.899  22.663   5.183
79731W        W43939  44.968  43.931   0.815
79732W        W43940  41.487  37.906  14.382
79733W        W43941  22.714  40.801   0.932
79734W        W43942  29.111   0.972   2.284
79735W        W43943  29.988  44.316  11.123
79736W        W43944   4.255  36.073  12.082
79737W        W43945   7.835  10.855  12.487
79738W        W43946  36.457  19.681   3.215
79739W        W43947  31.964  33.394  13.404
79740W        W43948  23.126  36.069  11.924
79741W        W43949  43.360  38.056  13.359
79742W        W43950  27.972  20.712   0.804
79743W        W43951  11.283   5.249  14.908
79744W        W43952   0.831  26.148   3.364
79745W        W43953   0.354  26.196   0.461
79746W        W43954  32.052  19.713   3.218
79747W        W43955  33.077  18.123  14.837
79748W        W43956   8.268  26.566  11.075
79749W        W43957   2.302   6.299   2.287
79750W        W43958   9.253   8.291   4.783
79751W        W43959  12.136  12.212   2.251
79752W        W43960  28.672  24.512  13.023
79753W        W43961  40.974  25.004  12.919
79754W        W43962  35.413  42.481   2.781
79755W        W43963   5.329   7.882  11.950
79756W        W43964  41.505  41.793   0.346
79757W        W43965  40.410  33.402   2.272
79758W        W43966  33.121  21.235   2.236
79759W        W43967  15.790  23.715   2.347
79760W        W43968  21.666  10.673   0.773
79761W        W43969  30.060   9.166  14.895
79762W        W43970  43.433  17.223  11.428
79763W        W43971  43.472  17.243   9.520
79764W        W43972   8.725  18.140   0.781
79765W        W43973   2.262  21.129  12.527
79766W        W43974  30.428  36.960  14.841
79767W        W43975  39.389  28.021  11.409
79768W        W43976   6.866  16.143   4.299
79769W        W43977   0.970  27.971   1.394
79770W        W43978  20.220  12.151   1.425
79771W        W43979   5.439  32.393  11.458
79772W        W43980  37.939   3.337  14.364
79773W        W43981   3.414  22.613   4.330
79774W        W43982   3.285  40.335   4.354
79775W        W43983  21.527  42.816   1.316
79776W        W43984  29.116  42.485   0.347
79777W        W43985  24.173   2.810   1.792
79778W        W43986  20.718  18.218   5.196
79779W        W43987  31.539   9.223  12.055
79780W        W43988  12.666  21.741   0.264
79781W        W43989  33.914  22.088  14.336
79782W        W43990  26.608  43.774  11.977
79783W        W43991  14.223  26.609  11.411
79784W        W43992  34.893   8.831   3.747
79785W        W43993  33.043   2.346   3.333
79786W        W43994  12.857  24.049   0.869
79787W        W43995  21.667   4.720  11.543
79788W        W43996  13.654   7.725  12.947
79789W        W43997  33.966  11.842  12.500
79790W        W43998  11.656  24.228  11.377
79791W        W43999  18.217   5.318  12.408
79792W        W44000  24.196  14.727  14.505
79793W        W44001  22.517   0.754  12.919
79794W        W44002  42.360   1.855   1.763
79795W        W44003  44.401  41.852  11.581
79796W        W44004  36.071  20.679   4.190
79797W        W44005  17.612  31.979  14.455
79798W        W44006   9.654   8.892  14.838
79799W        W44007  18.615   4.253   2.222
79800W        W44008  19.195  13.824  12.875
79801W        W44009  29.620  10.372   3.643
79802W        W44010   4.892  28.946  13.974
79803W        W44011  43.928  20.045   3.640
79804W        W44012  40.999  10.678  11.372
79805W        W44013   6.813   5.720   3.857
79806W        W44014   1.394  24.041   3.664
79807W        W44015   5.198  18.581   1.924
79808W        W44016  20.626  15.275  11.480
79809W        W44017  11.629   1.869   0.786
79810W        W44018  25.082  21.532   2.183
79811W        W44019  14.244  35.858   0.792
79812W        W44020  12.269  31.137   4.339
79813W        W44021  11.696  39.022   1.817
79814W        W44022  20.112   9.180  11.537
79815W        W44023  38.390  34.463  10.464
79816W        W44024   5.221  23.617  13.308
79817W        W44025  39.538   7.347  12.952
79818W        W44026  43.969  10.250  14.879
79819W        W44027  18.296   5.817   0.895
79820W        W44028  32.504  44.364   1.423
79821W        W44029  20.582  19.595  10.594
79822W        W44030  23.207  13.212  13.502
79823W        W44031  21.177  35.018  11.566
79824W        W44032  31.960   4.929  13.909
79825W        W44033   2.268  15.638  14.863
79826W        W44034  14.630   3.430   1.895
79827W        W44035  30.614  29.966  11.380
79828W        W44036  44.348  25.713  14.328
79829W        W44037  21.686   8.898   4.273
79830W        W44038  37.060  34.400   0.773
79831W        W44039  16.124  10.336   0.305
79832W        W44040  37.424  24.696   2.806
79833W        W44041   0.259   6.841   2.390
79834W        W44042  22.586  30.979  14.513
79835W        W44043  13.716  15.710   0.780
79836W        W44044  39.541  41.984   0.478
79837W        W44045  16.191  20.591   0.837
79838W        W44046  12.256  36.401   1.298
79839W        W44047   5.737  35.061  10.506
79840W        W44048  25.965  28.480  13.430
79841W        W44049   2.816  13.341  10.586
79842W        W44050  13.318   7.314   1.920
79843W        W44051  27.640  20.756   1.225
79844W        W44052   7.882   1.389   0.859
79845W        W44053  11.657  15.733   1.368
79846W        W44054  41.503  16.191   3.719
79847W        W44055  13.351  18.590   3.676
79848W        W44056  44.990   1.363  11.439
79849W        W44057   3.455  43.801   0.772
79850W        W44058  38.380  38.848  14.004
79851W        W44059  17.600  25.130  14.451
79852W        W44060   9.736  39.389   4.338
79853W        W44061  28.611  42.390  13.331
79854W        W44062  14.207  31.029   0.822
79855W        W44063  17.211  26.061  13.419
79856W        W44064   6.316  10.252   0.757
79857W        W44065  15.292  42.516  11.964
79858W        W44066  29.550  10.743  12.926
79859W        W44067  24.198   4.801  13.972
79860W        W44068  41.446  21.751   0.265
79861W        W44069   2.831  35.466  13.846
79862W        W44070   6.395   8.219  13.950
79863W        W44071  32.441  42.474  12.403
79864W        W44072  11.313   1.314  13.454
79865W        W44073  29.157  38.467   3.766
79866W        W44074  31.489  16.802  14.849
79867W        W44075  10.830  25.704  14.836
79868W        W44076  34.016  30.144   1.854
79869W        W44077  34.934  40.407   0.814
79870W        W44078  18.179  28.950  12.518
79871W        W44079  21.516  18.739   4.177
79872W        W44080  21.124  42.439   1.697
79873W        W44081  32.616   3.275  11.906
79874W        W44082   6.366  22.080   0.892
79875W        W44083  11.275  11.650   4.811
79876W        W44084  34.399  29.173   0.944
79877W        W44085   7.347  36.090  11.090
79878W        W44086  30.089  14.192   0.408
79879W        W44087  27.999  21.615   1.284
79880W        W44088  33.542  10.667   4.764
79881W        W44089   3.748   7.260  13.368
79882W        W44090  29.572  18.557  14.378
79883W        W44091  42.517  14.283   0.855
79884W        W44092   4.865  33.904  13.502
79885W        W44093  33.463   4.720  11.086
79886W        W44094  18.550  41.307  11.926
79887W        W44095  13.729   8.748   4.159
79888W        W44096  14.189  21.060  10.062
79889W        W44097  39.047  40.939   1.377
79890W        W44098  15.661  14.783  11.040
79891W        W44099  18.279   4.699  11.915
79892W        W44100  34.006  40.946   2.899
79893W        W44101  37.442  18.712   4.827
79894W        W44102  14.312  42.885  14.991
79895W        W44103   0.454   5.762   4.784
79896W        W44104   9.716   9.205  13.440
79897W        W44105  17.225  11.715   5.224
79898W        W44106  20.235  42.794   1.311
79899W        W44107  13.318  41.801  14.995
79900W        W44108  36.428  42.778   1.838
79901W        W44109  44.406   1.384   3.336
79902W        W44110  34.956  11.373   4.164
79903W        W44111  41.943  21.215  14.302
79904W        W44112  29.987  39.828  13.799
79905W        W44113   8.858  26.146  10.569
79906W        W44114  15.722  37.991   0.470
79907W        W44115   3.764   2.954  13.371
79908W        W44116  11.813   1.831  10.589
79909W        W44117  36.885  44.305   1.383
79910W        W44118  44.758  26.535   0.298
79911W        W44119  12.646  29.996  10.530
79912W        W44120  15.642   9.216   0.959
79913W        W44121  16.602  26.144   0.960
79914W        W44122   9.338  36.867  14.844
79915W        W44123  12.234   3.851   2.704
79916W        W44124  27.152   0.263   1.880
79917W        W44125  20.227  42.304  12.529
79918W        W44126   2.351   6.368   3.299
79919W        W44127  36.939   7.229   4.351
79920W        W44128  31.469   6.906  10.415
79921W        W44129  18.596  29.533  13.467
79922W        W44130  33.385  26.561   2.822
79923W        W44131  30.642   1.433  14.385
79924W        W44132  28.164   0.951   0.316
79925W        W44133  43.901  14.215   0.878
79926W        W44134   5.340  18.684  12.342
79927W        W44135  35.499  33.967   0.468
79928W        W44136  40.809  10.331  10.581
79929W        W44137  14.663  23.156   4.177
79930W        W44138  33.122  14.631   1.229
79931W        W44139  24.159   6.899  11.596
79932W        W44140  44.894  23.988  14.312
79933W        W44141  27.983   5.239  12.003
79934W        W44142  25.179   1.929   0.379
79935W        W44143  30.526   4.933  14.909
79936W        W44144  15.735  40.370  11.407
79937W        W44145  19.118  14.656  13.474
79938W        W44146   5.373  33.967   2.746
79939W        W44147  33.066  35.407  13.064
79940W        W44148  11.318  20.125  10.630
79941W        W44149   1.386  18.175  13.421
79942W        W44150  14.224  30.651   1.398
79943W        W44151   5.341  21.067  12.493
79944W        W44152   3.730  33.519  12.865
79945W        W44153  20.195   1.960  13.989
79946W        W44154  17.178   6.875  14.913
79947W        W44155  27.491   5.379   1.296
79948W        W44156  12.243  11.765  14.022
79949W        W44157  22.747  27.482   1.835
79950W        W44158  20.136  15.757   2.338
79951W        W44159   2.951  28.556   1.782
79952W        W44160  34.047  24.168  11.562
79953W        W44161   4.774  13.163   5.311
79954W        W44162   8.862  14.642  11.948
79955W        W44163  23.039  24.205  14.423
79956W        W44164  21.217  12.226   2.663
79957W        W44165  21.532  21.554  11.399
79958W        W44166  44.309   7.674  14.021
79959W        W44167  24.581  42.390  12.521
79960W        W44168  26.543  26.692   3.710
79961W        W44169  14.600  31.032  13.997
79962W        W44170  43.813   9.330  12.902
79963W        W44171  13.223   6.253   1.307
79964W        W44172   1.822  30.920   4.274
79965W        W44173  13.657  34.998   1.861
79966W        W44174  25.023  23.096   3.382
79967W        W44175   1.941  36.852  11.962
79968W        W44176   5.752  29.103   4.257
79969W        W44177  35.036  43.929   2.402
79970W        W44178  42.469  10.802   3.821
79971W        W44179   0.427  12.715  11.006
79972W        W44180  26.615  30.418  11.866
79973W        W44181  14.118  18.198   1.262
79974W        W44182   8.729   2.357   4.696
79975W        W44183   2.959   6.754   1.901
79976W        W44184  24.007  29.517   1.224
79977W        W44185  14.767  24.146   2.880
79978W        W44186  38.052  24.147   0.324
79979W        W44187  42.509  20.053  10.565
79980W        W44188  16.650   8.889  11.560
79981W        W44189  30.032  32.528  14.902
79982W        W44190   4.929  43.270  12.094
79983W        W44191   1.318   1.296   2.687
79984W        W44192  39.853  31.578  14.891
79985W        W44193  25.688  23.059  14.291
79986W        W44194  35.867   2.265  11.916
79987W        W44195  38.062  30.969   3.732
79988W        W44196  17.574  19.282   3.164
79989W        W44197  16.119  36.011   1.431
79990W        W44198   1.257  38.045   4.632
79991W        W44199  15.248   2.779  12.830
79992W        W44200  34.567  25.499   2.801
79993W        W44201   3.412  29.432  12.046
79994W        W44202  11.728  11.311  12.540
79995W        W44203  20.182  29.053  12.433
79996W        W44204  24.118  21.646  13.402
79997W        W44205  39.012  12.733   3.312
79998W        W44206  16.286  18.650  12.414
79999W        W44207  42.948  19.110   4.173
80000W        W44208  25.477  16.577   1.746
80001W        W44209   2.853   8.301  11.996
80002W        W44210  27.130  33.495  10.562
80003W        W44211   8.290   0.976   0.880
80004W        W44212  20.135  27.125   2.385
80005W        W44213   4.358   5.413  12.512
80006W        W44214  40.986   9.228  14.005
80007W        W44215  10.866   1.290   4.276
80008W        W44216  28.157  37.446   5.262
80009W        W44217   4.750  20.106   1.425
80010W        W44218  15.116  12.750  13.448
80011W        W44219  14.808  29.126   2.331
80012W        W44220  18.252  20.080  14.857
80013W        W44221  20.062  23.619   2.285
80014W        W44222  13.336   8.187  12.980
80015W        W44223  32.424  43.459  14.978
80016W        W44224   2.387  10.745  12.986
80017W        W44225   3.889  41.912  12.051
80018W        W44226  30.543   8.364   0.445
80019W        W44227  37.987  34.029  13.029
80020W        W44228  41.874  21.736  14.398
80021W        W44229  44.824  37.349   4.161
80022W        W44230   0.361   4.806   2.370
80023W        W44231  41.538  23.011   3.251
80024W        W44232   3.378  17.200  10.611
80025W        W44233   8.358  14.752   3.159
80026W        W44234  26.498   1.963   9.964
80027W        W44235   6.319  28.014   0.766
80028W        W44236  39.817  12.233  12.841
80029W        W44237  36.446   7.230   5.322
80030W        W44238   1.771  23.184   3.796
80031W        W44239  17.134   9.826  10.593
80032W        W44240  36.469  31.053  14.931
80033W        W44241   1.259  18.270  14.465
80034W        W44242  39.043  11.755  14.913
80035W        W44243   4.304  25.600   0.307
80036W        W44244  30.412   0.897   2.884
80037W        W44245  15.700  13.293  12.500
80038W        W44246  41.301  23.528   0.379
80039W        W44247   3.421   7.301   1.373
80040W        W44248  32.467  27.481  10.914
80041W        W44249  38.827  23.113   9.928
80042W        W44250   0.257  25.113   3.691
80043W        W44251  35.096  31.607  14.361
80044W        W44252   4.917   8.789  10.042
80045W        W44253  16.752   2.777  14.317
80046W        W44254  14.142  27.044   0.268
80047W        W44255  24.998   9.811  12.923
80048W        W44256  43.983  10.307  13.395
80049W        W44257  41.910   5.325   2.336
80050W        W44258  35.446  38.560  12.527
80051W        W44259   9.771  43.410  12.448
80052W        W44260  15.641  11.248   2.320
80053W        W44261  27.458  19.047  11.432
80054W        W44262  41.412  20.592  11.921
80055W        W44263  13.684  32.604  10.561
80056W        W44264  42.880   0.852   1.723
80057W        W44265  11.186  31.896  12.364
80058W        W44266  29.990  39.522   0.863
80059W        W44267  44.482  38.352  10.447
80060W        W44268   3.942  12.315   4.839
80061W        W44269  27.605  37.039   3.251
80062W        W44270  23.040  25.057  12.830
80063W        W44271  44.936  25.169  12.570
80064W        W44272  24.050  37.965   0.479
80065W        W44273   2.744  41.924   1.283
80066W        W44274  13.728  26.536  12.916
80067W        W44275  36.347  17.295   2.692
80068W        W44276   7.366   0.791   1.811
80069W        W44277  23.990  14.795  11.049
80070W        W44278  43.902  44.868  14.308
80071W        W44279  28.660  10.823  11.948
80072W        W44280  24.188  36.034   1.258
80073W        W44281   9.776  15.716  10.625
80074W        W44282  14.668  19.644   1.428
80075W        W44283  23.161  15.592   2.388
80076W        W44284  18.748  41.040  13.821
80077W        W44285  17.268   6.767   1.242
80078W        W44286   5.201  19.058   2.724
80079W        W44287  19.616  38.401   1.344
80080W        W44288  17.599  11.172   4.805
80081W        W44289   7.191  34.369   0.428
80082W        W44290  42.936  20.137   9.979
80083W        W44291   2.444  43.831   2.678
80084W        W44292  30.533  33.433  10.628
80085W        W44293  30.158  41.386   2.784
80086W        W44294   7.284  35.097   1.318
80087W        W44295  41.794  23.997  11.898
80088W        W44296  27.181  19.128  10.462
80089W        W44297  15.327  31.511   2.869
80090W        W44298  34.893  20.664  13.055
80091W        W44299  23.027  18.286  13.913
80092W        W44300  30.972  21.590   2.262
80093W        W44301   6.758   1.339   0.878
80094W        W44302   6.211  23.021  10.921
80095W        W44303  11.675  15.595   3.342
80096W        W44304   2.803  13.243  11.498
80097W        W44305  23.993  41.025   3.220
80098W        W44306  27.077   3.859  13.910
80099W        W44307  30.914  44.426   1.799
80100W        W44308   5.280  23.606  11.015
80101W        W44309  42.023  28.099   1.845
80102W        W44310   8.235   2.448   4.297
80103W        W44311   5.902  23.093   4.347
80104W        W44312  37.059   5.314  13.029
80105W        W44313  44.943  39.842  14.961
80106W        W44314  24.046  12.851   0.389
80107W        W44315  17.720  12.165   1.707
80108W        W44316  33.588  11.334  14.392
80109W        W44317  33.878  14.235  13.512
80110W        W44318   1.968  22.724  10.543
80111W        W44319  27.987  25.048   4.126
80112W        W44320  26.163  24.521  13.422
80113W        W44321  19.165  11.180  10.614
80114W        W44322  34.386  36.468   1.338
80115W        W44323  14.269  30.486  12.415
80116W        W44324  10.379  32.632   2.832
80117W        W44325  21.084  43.868   2.411
80118W        W44326   5.854   0.339   1.451
80119W        W44327   5.277  43.809   1.318
80120W        W44328  26.000  26.469  14.460
80121W        W44329   6.731  26.097   2.676
80122W        W44330  33.558  44.991  10.458
80123W        W44331  39.948  35.595  14.326
80124W        W44332  17.189  38.481   0.855
80125W        W44333  19.574  36.462  14.474
80126W        W44334  29.099  37.076  10.907
80127W        W44335  26.002  16.134  13.877
80128W        W44336  35.596  32.400   1.350
80129W        W44337  16.246  23.202   2.874
80130W        W44338  14.153   0.808  13.506
80131W        W44339  26.108   5.328  14.863
80132W        W44340  15.746  38.352   0.798
80133W        W44341  38.930   7.679   3.740
80134W        W44342  17.242  39.037  14.986
80135W        W44343  43.339   9.767   1.428
80136W        W44344  37.467   7.227  11.065
80137W        W44345   2.852  25.975  10.591
80138W        W44346  30.596  18.699  14.877
80139W        W44347   3.779  16.313  12.362
80140W        W44348  44.901  18.263   2.663
80141W        W44349  20.550  13.284   0.420
80142W        W44350  34.086  41.997  10.420
80143W        W44351   6.831   0.309   0.851
80144W        W44352  32.414  23.672  14.391
80145W        W44353  44.943  36.350  14.402
80146W        W44354  10.663  10.350  14.402
80147W        W44355   9.816  26.564   3.330
80148W        W44356   1.445  21.586   0.887
80149W        W44357  10.759  15.142  14.782
80150W        W44358   9.744  36.902   1.699
80151W        W44359  28.078  22.234  13.366
80152W        W44360  25.515  33.056   1.386
80153W        W44361  38.934  23.070  12.408
80154W        W44362  16.597  21.542   4.114
80155W        W44363  34.388  35.590   0.258
80156W        W44364  12.710   1.922   0.351
80157W        W44365  42.829   3.838  11.055
80158W        W44366  26.530  32.500  14.943
80159W        W44367  42.795  44.297  10.560
80160W        W44368  24.205  33.900   0.308
80161W        W44369   8.192   8.771   1.390
80162W        W44370   0.798  29.105   3.735
80163W        W44371  28.138  10.695   1.246
80164W        W44372   1.779  43.315   0.753
80165W        W44373  33.501  41.403   0.764
80166W        W44374  22.253  20.251   1.932
80167W        W44375   9.884  19.081   4.352
80168W        W44376  32.943  16.142  10.543
80169W        W44377  36.860  19.773  14.906
80170W        W44378  24.685  43.318   1.215
80171W        W44379   4.841  23.103   4.812
80172W        W44380  35.371  28.525   3.722
80173W        W44381  17.069   8.323  10.963
80174W        W44382   3.789   1.404  14.303
80175W        W44383  22.530   4.734  11.492
80176W        W44384   4.330  31.505   0.256
80177W        W44385  36.515   3.849  11.379
80178W        W44386  33.034  32.098   2.318
80179W        W44387  15.754  42.390   4.244
80180W        W44388  20.094  44.774  11.009
80181W        W44389  40.892  36.860   4.780
80182W        W44390   1.481  41.448   0.903
80183W        W44391  27.446  15.761   2.771
80184W        W44392  37.520   3.303  12.831
80185W        W44393  13.704  11.781  12.341
80186W        W44394  22.727  21.605  13.411
80187W        W44395  27.138  21.539   2.307
80188W        W44396   0.773  41.855  12.529
80189W        W44397  41.889  19.050  12.840
80190W        W44398   5.317   0.847   2.403
80191W        W44399  21.057  12.121   4.266
80192W        W44400  39.964   1.802  14.761
80193W        W44401  42.948   4.775  10.049
80194W        W44402  34.386  20.202  13.463
80195W        W44403  39.390  21.106  11.902
80196W        W44404  24.604  22.188  13.871
80197W        W44405  16.218   8.890   0.827
80198W        W44406  34.541   0.974  14.920
80199W        W44407   1.472   1.757  13.892
80200W        W44408  26.969  30.949   3.177
80201W        W44409  14.332  19.106  13.471
80202W        W44410  27.175  41.821   3.260
80203W        W44411  26.187  30.600   0.281
80204W        W44412   2.724  15.304  10.933
80205W        W44413  34.909  35.587   2.900
80206W        W44414  12.742  31.538  14.849
80207W        W44415  31.554   4.307   1.269
80208W        W44416   8.276  18.592   1.310
80209W        W44417  15.306  24.171   1.350
80210W        W44418  10.208  33.451  10.492
80211W        W44419  13.120  44.463  11.547
80212W        W44420  26.185  22.675  13.468
80213W        W44421  15.666   5.912  12.848
80214W        W44422   5.314   7.757   3.204
80215W        W44423  23.115  21.602  11.974
80216W        W44424   4.446  16.578  14.324
80217W        W44425   1.338  21.538   4.606
80218W        W44426   9.343  35.484  12.479
80219W        W44427  18.250  10.309   4.607
80220W        W44428  41.319   9.216   3.230
80221W        W44429  21.132   3.383   3.387
80222W        W44430  40.417  40.903   0.335
80223W        W44431   3.341  11.300   4.234
80224W        W44432  39.899  11.368   0.355
80225W        W44433   2.836   3.333   1.238
80226W        W44434  22.548   6.199  13.901
80227W        W44435   3.751   5.355   3.739
80228W        W44436   8.277  27.620   0.887
80229W        W44437  29.457   4.412   3.822
80230W        W44438  28.055  22.202   4.249
80231W        W44439  32.462  28.454  10.581
80232W        W44440  30.636  28.678   0.755
80233W        W44441  38.383  25.047  12.452
80234W        W44442  14.595  26.572   4.114
80235W        W44443  33.426  30.034  13.472
80236W        W44444  17.784  15.084   1.292
80237W        W44445  11.676  15.147   1.237
80238W        W44446  31.426  32.554  11.526
80239W        W44447  32.515   4.266  14.436
80240W        W44448   7.835  30.921   2.800
80241W        W44449  43.462  13.299  14.787
80242W        W44450  44.496  23.012  10.507
80243W        W44451   2.736  31.482   4.230
80244W        W44452   6.746  31.110  13.929
80245W        W44453  30.946  23.043  14.439
80246W        W44454   3.408  33.974  10.990
80247W        W44455  12.625  24.160   0.261
80248W        W44456   0.745   4.907  13.800
80249W        W44457  12.288  16.790   2.672
80250W        W44458  44.349  41.394  10.940
80251W        W44459  43.924  37.399  13.418
80252W        W44460  18.701   5.826   4.161
80253W        W44461  41.396  36.075   0.480
80254W        W44462  22.513   1.418  13.870
80255W        W44463  38.391  13.346   1.775
80256W        W44464  27.957  38.855   0.481
80257W        W44465  34.939  19.065  14.959
80258W        W44466  27.139  42.019   2.731
80259W        W44467  30.452  41.794  11.502
80260W        W44468  25.049  31.973   0.844
80261W        W44469  19.758   8.900   0.342
80262W        W44470  23.119   7.780   4.141
80263W        W44471  42.370   9.367   1.833
80264W        W44472   3.299  39.381   1.765
80265W        W44473   5.719  42.817   1.420
80266W        W44474   6.357  18.285  13.482
80267W        W44475   7.392  38.431   2.344
80268W        W44476  14.813  12.710   0.274
80269W        W44477  18.093  23.570  13.050
80270W        W44478  37.525   4.313   0.733
80271W        W44479  11.763  17.134   0.927
80272W        W44480  31.493   1.793   2.241
80273W        W44481  40.813  12.642  11.399
80274W        W44482  32.407   2.359   0.479
80275W        W44483  42.303  19.282  13.797
80276W        W44484  15.317  42.904   5.219
80277W        W44485  29.555   6.237  12.950
80278W        W44486   8.774  17.762  14.407
80279W        W44487   2.387  40.302  13.816
80280W        W44488   7.341  17.241  13.452
80281W        W44489  31.406   8.827  11.030
80282W        W44490  11.809  13.136  11.003
80283W        W44491  13.214  26.629  13.446
80284W        W44492  25.214   1.923  10.576
80285W        W44493  19.146  14.648   0.379
80286W        W44494  42.329   8.329  11.953
80287W        W44495  24.985  10.256   4.739
80288W        W44496   4.392  28.558   2.797
80289W        W44497  34.046   9.871   3.219
80290W        W44498  23.621  18.119  11.377
80291W        W44499   7.887  35.470  14.384
80292W        W44500  27.619   5.918   4.244
80293W        W44501  17.184  11.295  14.383
80294W        W44502  24.993  17.287  11.574
80295W        W44503  39.941  20.254   5.744
80296W        W44504  23.105  17.588  10.606
80297W        W44505  28.141  23.990   2.732
80298W        W44506  16.727   3.766   3.308
80299W        W44507  24.650  21.087   2.269
80300W        W44508   9.319  42.930  13.414
80301W        W44509  42.829   3.761  14.784
80302W        W44510  32.975   6.807  12.987
80303W        W44511  33.553  25.152  12.070
80304W        W44512  10.798  30.090  11.512
80305W        W44513  18.615  29.424   0.303
80306W        W44514  35.531  23.556   3.688
80307W        W44515  12.830  34.377   0.433
80308W        W44516  25.075  21.541   4.187
80309W        W44517  27.519   0.792   0.926
80310W        W44518  43.778  37.086   1.306
80311W        W44519   6.858  36.930  14.362
80312W        W44520  30.570  22.020  14.967
80313W        W44521  41.865  14.194   2.288
80314W        W44522  24.011   5.246   0.732
80315W        W44523  29.000  28.184   0.837
80316W        W44524  24.682   9.784  14.457
80317W        W44525   6.798  32.528  13.308
80318W        W44526  27.045  42.462  11.022
80319W        W44527  27.130  35.894  10.429
80320W        W44528  15.577  39.043  13.517
80321W        W44529  10.339  10.820  13.905
80322W        W44530   0.330  41.793   4.665
80323W        W44531   4.700  13.830   0.754
80324W        W44532  24.494  29.987   0.894
80325W        W44533  15.667  22.082  11.081
80326W        W44534  34.484  31.452   3.290
80327W        W44535  18.121  33.559  10.109
80328W        W44536  14.665  32.971   4.261
80329W        W44537  11.229  27.112   2.891
80330W        W44538  38.849  27.999  10.565
80331W        W44539  43.506  22.573   2.702
80332W        W44540  30.942  20.170   0.281
80333W        W44541  42.964  21.072  11.607
80334W        W44542   6.684   5.237   4.679
80335W        W44543   1.870  25.636  13.798
80336W        W44544   1.911  15.636   1.260
80337W        W44545   4.413  37.524  10.466
80338W        W44546  39.984   1.830   5.314
80339W        W44547  20.249   2.415   2.674
80340W        W44548  44.918  32.897   0.382
80341W        W44549  25.626  18.096  13.403
80342W        W44550   3.754  41.316   4.830
80343W        W44551  37.422  43.340   3.785
80344W        W44552   3.267   6.684  10.431
80345W        W44553  41.512  27.639   0.447
80346W        W44554  43.478  44.449   2.863
80347W        W44555  41.849  25.048  10.074
80348W        W44556  20.643   8.788  10.124
80349W        W44557  39.314  15.701   3.816
80350W        W44558  29.986  23.639   0.741
80351W        W44559  26.057  31.603  11.883
80352W        W44560   0.249  18.665  13.805
80353W        W44561  11.753  27.535  10.976
80354W        W44562   8.780  29.148   2.358
80355W        W44563  26.540  12.681  13.878
80356W        W44564   7.307  36.947   0.831
80357W        W44565  37.374   8.255  12.413
80358W        W44566  29.118   8.366  13.447
80359W        W44567  25.213  18.167  13.842
80360W        W44568   1.333  38.556  12.070
80361W        W44569  44.279  23.088  12.382
80362W        W44570  44.272  38.985   1.736
80363W        W44571  10.144   8.341   3.289
80364W        W44572  41.306  31.957   4.339
80365W        W44573  35.937  27.194  13.980
80366W        W44574  12.268  15.293   3.266
80367W        W44575  27.601   5.902  11.430
80368W        W44576  39.549  29.041  10.904
80369W        W44577  26.662   8.709   2.820
80370W        W44578  20.117  33.408  13.390
80371W        W44579  34.954  39.318  10.541
80372W        W44580  11.356  43.513  12.829
80373W        W44581   0.318   5.742   2.816
80374W        W44582  36.417  36.931  12.442
80375W        W44583   3.926  20.038  10.573
80376W        W44584  17.303  32.122  11.381
80377W        W44585  10.167   3.308  11.550
80378W        W44586  29.038  32.970  10.932
80379W        W44587  38.010   9.169  10.518
80380W        W44588  26.702  26.968   1.717
80381W        W44589  33.907  44.426  10.979
80382W        W44590  27.475  27.952   3.226
80383W        W44591  34.413  13.138  12.007
80384W        W44592   6.249  24.204   3.311
80385W        W44593  29.458  44.757  12.931
80386W        W44594  29.550  35.895   1.340
80387W        W44595  36.465  34.094   3.760
80388W        W44596  21.127  31.566  11.429
80389W        W44597  27.107  19.643   1.349
80390W        W44598  31.632  13.148   0.311
80391W        W44599  18.752   2.378   4.167
80392W        W44600  33.573  25.180  14.934
80393W        W44601  23.495  29.955   4.834
80394W        W44602  44.816  35.944  11.454
80395W        W44603   2.754  36.977   3.672
80396W        W44604  24.685   1.777  11.992
80397W        W44605  41.513  23.086  13.850
80398W        W44606  13.192  15.261   4.713
80399W        W44607  42.908  12.667  14.831
80400W        W44608  40.856  16.129   1.856
80401W        W44609  17.146   4.367   2.830
80402W        W44610  20.720  41.935  14.475
80403W        W44611  21.236  44.904  14.277
80404W        W44612  30.438   1.315  13.021
80405W        W44613   9.218  33.090  13.837
80406W        W44614  35.431  32.077  10.634
80407W        W44615  44.850  19.063   4.733
80408W        W44616  35.089  25.493   2.186
80409W        W44617   8.372  34.561  13.843
80410W        W44618  43.462  13.638   2.833
80411W        W44619   9.806  20.609  11.076
80412W        W44620  10.744  40.531  13.326
80413W        W44621  33.490  43.992   0.473
80414W        W44622  25.050  19.052  12.983
80415W        W44623  44.319  24.154  11.993
80416W        W44624   3.435  22.724  13.530
80417W        W44625   1.943  32.097   0.471
80418W        W44626  32.082   1.772  13.038
80419W        W44627   4.381  25.152   3.741
80420W        W44628  37.966  35.563   0.442
80421W        W44629   9.236  33.459  11.904
80422W        W44630  39.367  41.312   3.767
80423W        W44631  12.659  24.988  11.120
80424W        W44632  22.041  33.982   3.744
80425W        W44633   4.759  34.029  13.937
80426W        W44634  18.143  30.461  12.345
80427W        W44635  33.588  25.061   0.747
80428W        W44636  21.603  17.674   1.799
80429W        W44637  35.503  18.120  14.910
80430W        W44638  10.738  20.060  14.276
80431W        W44639   5.883  34.564  14.829
80432W        W44640  18.270  16.260   4.713
80433W        W44641  22.132  43.506  11.467
80434W        W44642   4.789  28.967  10.943
80435W        W44643  39.054  31.585  14.961
80436W        W44644  44.998   0.983   3.286
80437W        W44645  21.683  40.323   0.964
80438W        W44646  22.630  39.421   0.312
80439W        W44647  17.632   3.337   2.699
80440W        W44648  10.772   1.376   0.869
80441W        W44649  32.398  24.981   0.469
80442W        W44650  25.023   7.777  11.560
80443W        W44651   1.752   6.790   2.235
80444W        W44652  22.703  29.138  11.373
80445W        W44653  39.888   0.391   2.228
80446W        W44654  25.962  34.598   2.736
80447W        W44655   4.358  20.650   3.311
80448W        W44656   2.965  39.465  13.440
80449W        W44657  17.677   1.857   1.833
80450W        W44658  25.627  15.170  14.910
80451W        W44659  19.543  29.665   2.244
80452W        W44660  25.010  19.691  11.965
80453W        W44661  36.416   8.730   3.661
80454W        W44662  33.555  24.194   0.863
80455W        W44663  12.190   0.271  13.425
80456W        W44664  29.471  39.913  14.492
80457W        W44665  10.681  14.806  11.513
80458W        W44666  11.322  33.053   1.272
80459W        W44667  32.588  35.868   3.761
80460W        W44668  16.720  10.149   2.829
80461W        W44669  24.634  14.152  14.289
80462W        W44670   3.731  33.077  14.768
80463W        W44671  11.344  44.477   0.837
80464W        W44672  13.750  34.393   4.736
80465W        W44673   0.268   3.337   3.204
80466W        W44674  33.961   1.936   3.152
80467W        W44675   6.213   4.331   0.828
80468W        W44676  21.162  43.971   4.215
80469W        W44677  35.573  14.814  11.474
80470W        W44678  28.931   7.886  14.004
80471W        W44679  31.946  27.978  13.367
80472W        W44680  34.431  14.815   1.703
80473W        W44681  29.524  27.989  12.485
80474W        W44682  10.866  30.965   3.697
80475W        W44683  42.420  27.691   4.823
80476W        W44684   6.208  21.630  12.538
80477W        W44685   6.267  36.554  13.477
80478W        W44686  29.612  18.290   0.431
80479W        W44687  18.118  10.173  12.046
80480W        W44688  31.012  19.541  10.465
80481W        W44689  18.684  25.484   4.711
80482W        W44690  23.991  44.866   3.763
80483W        W44691  44.395  37.503  11.432
80484W        W44692  42.421  32.567   4.759
80485W        W44693  10.213  30.083  12.847
80486W        W44694   7.731  10.339  14.304
80487W        W44695  42.831  14.263   1.836
80488W        W44696  13.112  27.507  10.539
80489W        W44697  27.677  25.117  10.603
80490W        W44698  16.296  32.491   2.731
80491W        W44699   4.288  32.032  13.019
80492W        W44700  10.208   0.333  14.962
80493W        W44701  15.584  23.100  12.504
80494W        W44702  21.682  34.522   2.902
80495W        W44703   5.710   5.375  13.026
80496W        W44704  34.443  26.648   4.818
80497W        W44705  18.183  21.519   3.333
80498W        W44706  38.016   2.367   3.759
80499W        W44707   7.683   9.661   0.751
80500W        W44708   3.934   8.190   1.316
80501W        W44709  33.072   0.829  14.975
80502W        W44710  21.241   0.478   3.761
80503W        W44711  21.582  38.530  14.486
80504W        W44712  22.632  40.046   3.224
80505W        W44713  40.430   6.301   0.387
80506W        W44714   0.468  40.357   3.676
80507W        W44715  36.039  18.595   4.610
80508W        W44716  18.614  35.419  13.801
80509W        W44717   2.387  11.849   4.252
80510W        W44718   2.302  18.085  10.483
80511W        W44719   2.825  19.639   3.268
80512W        W44720  37.922  36.915   2.368
80513W        W44721  43.385  39.029  13.064
80514W        W44722   0.266  24.066   3.860
80515W        W44723  33.570   4.907  11.964
80516W        W44724  30.507  33.923  11.971
80517W        W44725  22.573  29.452  13.488
80518W        W44726   7.292  12.703   0.953
80519W        W44727  44.456  27.616   3.250
80520W        W44728  41.317  22.019  10.891
80521W        W44729  18.107   3.922  14.029
80522W        W44730   6.344  36.562  13.843
80523W        W44731  44.882  17.779  14.396
80524W        W44732  15.166   6.342   4.301
80525W        W44733  31.414  41.951  12.027
80526W        W44734  42.360  25.592  13.421
80527W        W44735  36.091  30.131  13.413
80528W        W44736   9.351   7.188  14.007
80529W        W44737  27.655  22.195   3.755
80530W        W44738   6.813  43.321  14.777
80531W        W44739  11.731  20.533   0.728
80532W        W44740  44.378  14.258   0.337
80533W        W44741  16.077  16.100   4.836
80534W        W44742  40.862  16.585   2.748
80535W        W44743   9.221  42.515  14.385
80536W        W44744  31.608  18.614  14.004
80537W        W44745  32.516  43.287   2.771
80538W        W44746   7.210  15.188   3.209
80539W        W44747  39.875  16.690  12.047
80540W        W44748  29.482  10.774   2.887
80541W        W44749   8.695  12.792   1.406
80542W        W44750  13.619  43.273  11.896
80543W        W44751  25.987  20.119  11.971
80544W        W44752  15.157  22.119  10.530
80545W        W44753  42.515  19.192   3.278
80546W        W44754  30.006   8.842  12.578
80547W        W44755  30.910  11.319  12.039
80548W        W44756  32.989  39.369   1.843
80549W        W44757  42.374  28.665  11.871
80550W        W44758  14.750  11.255  14.008
80551W        W44759  32.394   8.756   3.283
80552W        W44760  22.508  26.117   2.745
80553W        W44761   6.254  41.320  10.033
80554W        W44762  16.307   6.785  13.877
80555W        W44763  20.256  38.963  14.374
80556W        W44764  23.045  28.572   2.735
80557W        W44765  28.091  21.512   1.719
80558W        W44766  28.679  31.048  12.002
80559W        W44767   8.801  24.485   3.651
80560W        W44768  34.876  14.140   5.106
80561W        W44769  16.637  35.003  12.983
80562W        W44770  18.782  21.708   2.397
80563W        W44771  27.606  18.225   2.310
80564W        W44772  18.560  19.626  13.889
80565W        W44773  42.346  11.731  11.036
80566W        W44774   5.294  30.502  12.984
80567W        W44775  10.206  35.528  11.884
80568W        W44776  22.634  40.305   1.796
80569W        W44777  32.934  11.285  14.842
80570W        W44778  17.261  15.236   4.743
80571W        W44779   9.716  10.282  11.442
80572W        W44780  40.328  38.052  11.915
80573W        W44781  28.048  31.091   4.210
80574W        W44782   2.454  40.918   0.907
80575W        W44783  13.135   8.320   1.238
80576W        W44784  36.992  16.224  11.423
80577W        W44785  32.064  25.217  13.028
80578W        W44786  36.841  13.703   0.941
80579W        W44787  24.042  23.106   1.736
80580W        W44788  10.366  41.906  14.379
80581W        W44789  31.971   4.747   5.111
80582W        W44790  43.453   6.342  10.527
80583W        W44791  24.139  29.498  14.919
80584W        W44792  30.540  34.972  11.520
80585W        W44793  11.188  38.969  12.980
80586W        W44794   1.782   3.344   1.749
80587W        W44795  33.470  42.379   4.646
80588W        W44796  10.634  10.357   9.994
80589W        W44797   4.806  38.047   2.779
80590W        W44798  22.674  23.563   4.275
80591W        W44799  44.972  41.484  12.535
80592W        W44800  10.351  11.373   4.598
80593W        W44801  41.359  30.464  10.468
80594W        W44802  18.772  42.326   4.347
80595W        W44803  31.023  37.993   1.255
80596W        W44804  13.809   8.817  13.353
80597W        W44805   2.837  32.893   3.795
80598W        W44806   6.352  26.951  12.905
80599W        W44807  23.600  29.154  12.949
80600W        W44808   0.426  17.161   1.409
80601W        W44809  23.059  40.921  10.541
80602W        W44810  44.292  18.577  14.821
80603W        W44811  29.012  25.474   1.316
80604W        W44812  41.462  31.153   0.758
80605W        W44813  44.827  22.198  13.913
80606W        W44814  40.495  37.488   0.782
80607W        W44815  18.742  15.786   0.310
80608W        W44816  18.226  19.577   0.477
80609W        W44817  30.987  39.530  12.393
80610W        W44818   5.392  26.526  13.983
80611W        W44819   9.288  35.528   3.342
80612W        W44820  36.585  28.121  14.949
80613W        W44821  40.798  36.900   2.664
80614W        W44822   7.687   6.344   1.401
80615W        W44823  14.189   2.919  12.044
80616W        W44824  38.907  34.585  10.075
80617W        W44825  44.381  26.136  10.474
80618W        W44826   0.264  38.075  11.027
80619W        W44827   7.695  43.882  12.554
80620W        W44828   3.452  30.136  13.846
80621W        W44829  19.095  31.569   4.712
80622W        W44830  16.146   2.814  14.401
80623W        W44831  26.072   6.681  11.495
80624W        W44832  13.740  32.439   2.322
80625W        W44833   6.423  16.159  11.607
80626W        W44834  12.241  31.454  13.509
80627W        W44835   3.791  30.493   5.173
80628W        W44836  22.701   7.905  13.891
80629W        W44837   0.407  21.100   0.314
80630W        W44838  21.748  19.245  11.962
80631W        W44839   8.854  42.920  12.537
80632W        W44840  29.056   4.832   3.681
80633W        W44841  33.968  22.140  11.484
80634W        W44842  20.090  36.385   1.439
80635W        W44843  30.043  12.209   0.416
80636W        W44844   7.278  21.175  11.390
80637W        W44845  29.159   3.263   0.862
80638W        W44846   3.845  27.510  13.915
80639W        W44847  30.032  30.615   3.843
80640W        W44848  20.595   9.650  13.482
80641W        W44849  33.520  11.349  12.393
80642W        W44850  38.859   7.828   4.209
80643W        W44851  25.511  11.641   0.351
80644W        W44852  28.955  16.131  14.958
80645W        W44853   6.753  39.513  13.858
80646W        W44854  17.153  10.210   3.266
80647W        W44855  26.695   2.418   4.609
80648W        W44856  11.746  27.475  10.406
80649W        W44857  33.981   6.202   4.739
80650W        W44858  42.435  10.241   1.784
80651W        W44859  39.397   0.845   1.845
80652W        W44860  20.689  33.583   0.255
80653W        W44861  25.605   0.397  11.981
80654W        W44862  32.629  26.557  11.980
80655W        W44863  35.512  34.866  10.498
80656W        W44864  28.511  20.148  14.871
80657W        W44865   3.777  10.367  13.893
80658W        W44866   5.376  37.041   4.793
80659W        W44867   7.237  25.714   2.241
80660W        W44868  12.179  17.259   0.833
80661W        W44869  22.701  35.087  12.869
80662W        W44870  29.008  31.000   0.957
80663W        W44871  18.231  16.209  14.340
80664W        W44872  11.347   7.249   1.758
80665W        W44873  21.132  28.026  11.457
80666W        W44874  42.387  36.874   0.799
80667W        W44875  29.632  39.529   2.349
80668W        W44876  27.035  29.962   3.218
80669W        W44877  15.728  18.636   3.721
80670W        W44878  38.389   6.190  14.854
80671W        W44879  10.684  14.095   0.875
80672W        W44880  37.450   1.833  14.428
80673W        W44881  32.571  38.362   1.828
80674W        W44882   4.883  27.978  11.464
80675W        W44883  42.015  39.537   1.302
80676W        W44884   6.271  32.514  13.430
80677W        W44885  11.271  35.007  14.769
80678W        W44886  24.138  38.330  11.946
80679W        W44887  11.203  31.046  11.046
80680W        W44888  25.677  36.436  12.932
80681W        W44889  13.826  13.239  13.050
80682W        W44890  21.581  15.247  10.627
80683W        W44891  23.148  12.717  14.766
80684W        W44892  20.713   2.375  14.343
80685W        W44893  36.871  30.006  13.063
80686W        W44894  39.978  16.664  14.017
80687W        W44895  29.507  21.546   4.731
80688W        W44896  30.102  38.056   4.352
80689W        W44897  25.184  14.725  10.890
80690W        W44898  29.044  11.137   4.760
80691W        W44899  16.665   5.863   4.803
80692W        W44900  41.011  30.980   0.827
80693W        W44901  27.561   5.218   2.878
80694W        W44902  34.426  38.045  13.465
80695W        W44903  44.862  16.107   4.733
80696W        W44904  31.960   4.265   0.878
80697W        W44905   5.295  35.109   4.219
80698W        W44906  11.276  36.028  14.867
80699W        W44907  27.556  24.564  11.000
80700W        W44908  24.669   3.412   0.938
80701W        W44909  42.987  29.516  10.972
80702W        W44910  35.387  36.974   1.911
80703W        W44911  39.872  36.994   2.281
80704W        W44912  21.655  40.401  11.591
80705W        W44913  35.378   0.764   3.302
80706W        W44914  17.652  33.056  10.977
80707W        W44915  18.706  39.025   0.324
80708W        W44916  28.610  41.915   0.762
80709W        W44917  38.401  18.175  11.555
80710W        W44918  41.305  33.954  11.389
80711W        W44919   4.356   7.212   2.684
80712W        W44920   8.837   0.757   3.692
80713W        W44921  36.346  14.288   2.861
80714W        W44922  20.731  33.392  11.108
80715W        W44923   4.415  41.978   1.284
80716W        W44924  26.621  22.089  13.312
80717W        W44925  34.948  17.076  13.806
80718W        W44926  11.288  21.677  12.575
80719W        W44927  35.561   0.852   4.336
80720W        W44928  10.717   7.404  13.906
80721W        W44929  28.531  18.548  13.991
80722W        W44930   6.923  19.757  11.994
80723W        W44931  40.974  15.691  10.134
80724W        W44932   0.421  31.647  12.448
80725W        W44933  43.919  20.645   2.816
80726W        W44934   8.755   9.183  14.014
80727W        W44935  12.237  38.893   0.373
80728W        W44936   5.361   0.768  13.965
80729W        W44937  32.617   3.869  12.008
80730W        W44938  37.870   1.743  10.915
80731W        W44939   6.916   3.441   4.650
80732W        W44940   7.417   6.764   2.799
80733W        W44941  17.161  19.623  12.885
80734W        W44942  14.245  44.760   2.324
80735W        W44943  23.091  23.718   2.750
80736W        W44944  32.614  37.354   1.861
80737W        W44945  41.428   6.192   1.420
80738W        W44946  33.034  17.089   1.903
80739W        W44947  40.905   1.955  10.941
80740W        W44948  26.104  19.620  14.835
80741W        W44949  10.228  27.587   1.737
80742W        W44950  28.166   8.865  13.330
80743W        W44951  28.929  36.862   2.285
80744W        W44952   0.439  19.549  13.441
80745W        W44953   2.910  37.463   4.612
80746W        W44954  39.826   2.342  11.872
80747W        W44955  33.063  33.969  14.820
80748W        W44956  42.367  26.567   3.348
80749W        W44957  37.034   0.845  14.356
80750W        W44958  41.992  12.715   5.272
80751W        W44959  30.454  40.874   0.313
80752W        W44960  38.041  16.235   0.865
80753W        W44961  18.785  10.359  12.439
80754W        W44962  15.736   3.272  11.563
80755W        W44963  18.712  34.868  12.517
80756W        W44964  43.397  35.380   3.270
80757W        W44965   7.403  31.474  14.879
80758W        W44966  37.525  14.622   2.796
80759W        W44967  38.055  24.176   3.256
80760W        W44968  32.631  15.086  14.960
80761W        W44969  38.456  39.496   2.187
80762W        W44970  44.284  40.541  12.038
80763W        W44971  10.679  11.630   2.276
80764W        W44972  31.613  30.961   3.207
80765W        W44973  34.433  22.547   2.393
80766W        W44974   9.371  27.026   0.276
80767W        W44975  38.928   2.379   0.366
80768W        W44976  30.079  23.512  14.361
80769W        W44977  26.090  19.079  10.923
80770W        W44978   6.361  37.554  13.350
80771W        W44979  14.184  24.094  10.436
80772W        W44980  22.670  26.103  14.777
80773W        W44981  29.626   4.422   2.404
80774W        W44982  41.815  44.458  12.369
80775W        W44983   3.788  20.552   4.826
80776W        W44984  26.975   1.831  10.920
80777W        W44985  21.244  40.937  11.434
80778W        W44986  14.321  16.178  11.117
80779W        W44987  21.170   2.913   1.879
80780W        W44988  40.416  11.734   0.458
80781W        W44989  36.997  41.448  14.315
80782W        W44990  36.872  38.416   2.304
80783W        W44991  22.030   3.353   1.698
80784W        W44992  37.861  38.507  14.313
80785W        W44993  27.483  12.792  11.578
80786W        W44994  33.593  39.334  11.101
80787W        W44995  18.089  21.605  14.031
80788W        W44996  15.185  20.728  11.946
80789W        W44997   4.878  28.933   4.715
80790W        W44998   1.454  37.849   3.753
80791W        W44999   0.264   5.818   2.313
80792W        W45000  17.736  12.349  10.438
80793W        W45001  40.506  33.105  12.451
80794W        W45002  43.451  29.057  13.022
80795W        W45003  16.623  28.060   2.840
80796W        W45004  35.053   5.719  12.999
80797W        W45005  43.501  18.676  13.036
80798W        W45006  15.764  36.563  14.994
80799W        W45007  37.001  43.290   3.718
80800W        W45008  24.553  14.300   0.951
80801W        W45009  36.400   6.706   4.663
80802W        W45010  14.610   6.368  14.855
80803W        W45011  35.545  15.250  12.425
80804W        W45012  27.195   4.885   4.271
80805W        W45013  32.973  18.757  14.898
80806W        W45014  15.236   9.242  11.596
80807W        W45015  38.394  44.875   2.685
80808W        W45016  35.528  26.549   2.712
80809W        W45017  24.063   3.334   2.413
80810W        W45018  29.553  44.359   5.143
80811W        W45019  14.328  25.161  10.615
80812W        W45020  21.734   6.301  14.382
80813W        W45021  43.431   9.240  13.952
80814W        W45022  20.260  44.847  14.820
80815W        W45023   7.865  37.369   1.332
80816W        W45024  10.658  12.659   0.321
80817W        W45025  30.586  16.714   5.711
80818W        W45026  11.700  31.907   3.651
80819W        W45027  14.142   6.204  12.907
80820W        W45028  42.794   7.336   3.660
80821W        W45029  11.850  19.135  13.897
80822W        W45030   2.434  37.042   3.680
80823W        W45031   2.363   0.884   1.424
80824W        W45032  12.813  17.296  11.395
80825W        W45033  26.696  18.594   1.221
80826W        W45034  40.053  40.823  12.390
80827W        W45035  41.436  25.976  11.054
80828W        W45036   0.915  21.546  13.802
80829W        W45037  11.638  15.117   4.751
80830W        W45038  37.491  18.284  13.915
80831W        W45039  33.948  22.625  12.403
80832W        W45040  29.570  16.691  10.923
80833W        W45041  23.142  38.051  13.477
80834W        W45042   3.348  30.607  13.019
80835W        W45043  26.643  28.028  11.110
80836W        W45044  16.189  38.387   9.514
80837W        W45045  16.171  34.999   2.311
80838W        W45046  21.162  22.607   1.316
80839W        W45047  26.554  24.042   1.398
80840W        W45048   7.366  32.916  14.964
80841W        W45049  17.754  30.434  13.837
80842W        W45050  39.040   5.815   3.738
80843W        W45051  15.758  19.607  14.277
80844W        W45052   3.824  18.127  12.917
80845W        W45053  22.563  38.037  14.292
80846W        W45054  27.046   9.827  11.866
80847W        W45055  35.383  32.049  12.569
80848W        W45056  19.223  34.902  10.412
80849W        W45057  16.683  37.543  13.020
80850W        W45058  35.597  31.519   3.287
80851W        W45059  19.543  29.921  11.550
80852W        W45060  42.515  29.650  10.474
80853W        W45061  15.195   3.458  14.793
80854W        W45062  15.796  25.043  11.932
80855W        W45063  13.683   3.906   4.806
80856W        W45064  20.578  18.175   2.700
80857W        W45065  15.315  29.471  14.862
80858W        W45066  30.508  35.898   4.224
80859W        W45067  35.043  35.498   2.233
80860W        W45068  42.396  41.375  11.561
80861W        W45069  30.106  18.672   3.242
80862W        W45070   7.251   3.944  12.011
80863W        W45071   9.389  19.058  10.484
80864W        W45072  31.446  12.150   1.309
80865W        W45073  30.486  31.548   3.653
80866W        W45074  16.619  23.129   3.381
80867W        W45075  22.117   7.227  11.375
80868W        W45076  24.496  36.368   3.705
80869W        W45077  18.737   1.386  11.523
80870W        W45078  30.042  15.220   3.641
80871W        W45079  28.559  11.278   4.702
80872W        W45080  39.872   1.862   5.588
80873W        W45081  15.704  18.132  10.001
80874W        W45082  17.683   1.958  14.882
80875W        W45083   1.776   9.372  11.883
80876W        W45084  20.645  30.560   1.391
80877W        W45085  20.221  17.580  13.020
80878W        W45086   3.773  14.247  14.804
80879W        W45087  44.810  38.466   1.257
80880W        W45088  42.010  41.918   1.279
80881W        W45089  15.624   6.347  13.483
80882W        W45090  36.090  32.431   4.274
80883W        W45091  33.545   7.751   1.402
80884W        W45092   2.362  25.076  13.828
80885W        W45093  35.060  27.501   0.307
80886W        W45094  44.922  17.198  11.121
80887W        W45095   8.213  17.799   4.267
80888W        W45096   2.455   1.419  11.020
80889W        W45097  24.712  39.841   3.166
80890W        W45098   1.387  39.470  13.951
80891W        W45099  44.990  33.081   3.770
80892W        W45100  30.520  11.248   2.298
80893W        W45101   2.876  30.416  10.568
80894W        W45102  15.686  12.771  11.383
80895W        W45103   3.721  24.638   2.179
80896W        W45104  10.292   9.755   3.254
80897W        W45105   4.440  31.462   4.292
80898W        W45106   4.368  44.928  11.921
80899W        W45107   5.230  21.206  10.524
80900W        W45108  11.713   3.924  11.461
80901W        W45109  13.758  41.873   1.759
80902W        W45110  34.471  24.187  11.395
80903W        W45111  28.461  23.158  13.929
80904W        W45112  44.454  20.636   4.280
80905W        W45113   3.236   5.365   2.712
80906W        W45114  25.575   8.178   1.421
80907W        W45115   1.949  37.840   1.327
80908W        W45116  30.570  35.565   4.188
80909W        W45117  31.592  40.416  14.470
80910W        W45118  26.552  39.366  10.575
80911W        W45119  32.906  12.638  12.426
80912W        W45120  17.566  10.658   3.179
80913W        W45121  16.693  12.802   0.790
80914W        W45122  32.635  32.906   2.832
80915W        W45123  40.407   7.402  11.924
80916W        W45124  21.723  19.637  10.155
80917W        W45125  16.765   3.413   5.089
80918W        W45126  20.163   0.403  11.945
80919W        W45127  27.093  19.730   5.094
80920W        W45128   5.853  19.069  13.006
80921W        W45129  32.976  28.547   0.271
80922W        W45130  30.002  42.448   3.785
80923W        W45131  42.007  34.966   4.610
80924W        W45132  21.243  35.399  12.360
80925W        W45133  13.805  44.418  12.456
80926W        W45134   7.783  33.989  14.481
80927W        W45135  18.642  22.155   1.254
80928W        W45136  25.211  19.270  12.538
80929W        W45137  40.495  25.206   4.158
80930W        W45138  11.335  42.423   3.203
80931W        W45139  18.218  39.861  11.890
80932W        W45140  28.099  15.239  11.507
80933W        W45141  30.004  11.806   3.814
80934W        W45142   4.211  23.623   1.785
80935W        W45143   2.915  43.379   1.727
80936W        W45144   5.786   6.830  14.433
80937W        W45145  33.394  17.714  12.049
80938W        W45146  31.599  16.788   2.296
80939W        W45147  26.479  40.539   0.855
80940W        W45148  24.509  34.485   1.907
80941W        W45149  31.125   2.882   3.685
80942W        W45150  35.098  14.673   1.343
80943W        W45151  23.093  26.459   1.855
80944W        W45152  14.133  40.821  12.061
80945W        W45153  18.604   3.855  11.395
80946W        W45154  22.626  18.131  11.935
80947W        W45155  17.790  26.478   4.308
80948W        W45156  23.141  11.167  14.383
80949W        W45157   7.374  23.116  11.888
80950W        W45158  35.430   9.319   2.406
80951W        W45159   7.335  44.878   0.420
80952W        W45160   8.291  42.297  11.964
80953W        W45161  28.034  17.089   2.360
80954W        W45162   8.715  34.575  14.362
80955W        W45163  43.770   3.249   3.224
80956W        W45164  40.028  25.144   3.291
80957W        W45165  11.139  31.021   3.278
80958W        W45166   3.387  23.235  14.956
80959W        W45167  36.401  36.570  12.383
80960W        W45168  35.897   8.288  11.476
80961W        W45169  37.954  18.620   4.720
80962W        W45170  43.950  11.181  13.917
80963W        W45171  31.577   4.900  12.911
80964W        W45172  34.510  14.620  12.417
80965W        W45173   2.854  13.118   0.787
80966W        W45174  13.178  32.433   3.659
80967W        W45175  17.254  20.663  14.371
80968W        W45176  29.587  12.130  11.018
80969W        W45177  22.739  14.803  14.409
80970W        W45178   5.353  41.489   0.420
80971W        W45179  14.668  27.642  13.542
80972W        W45180  16.710  35.453  12.944
80973W        W45181  38.003  21.709  12.837
80974W        W45182  31.084  26.627  14.946
80975W        W45183  34.060  44.440   0.749
80976W        W45184  39.455   3.905   1.321
80977W        W45185  10.303  10.697  11.926
80978W        W45186  11.227  10.704  11.912
80979W        W45187  21.261  40.933   2.393
80980W        W45188  17.113  36.909  10.905
80981W        W45189  34.058  27.125  10.475
80982W        W45190   0.256   8.331  11.507
80983W        W45191   5.353  26.998   4.642
80984W        W45192  16.713   0.370   3.706
80985W        W45193  21.191   9.297  11.522
80986W        W45194   6.420   2.263   1.355
80987W        W45195  27.631  16.732  11.382
80988W        W45196   2.912  36.497  12.892
80989W        W45197  43.340  36.937  14.863
80990W        W45198  34.031  42.322   1.316
80991W        W45199  26.626  43.991   2.264
80992W        W45200  33.074  11.639  11.047
80993W        W45201  44.470  29.021   1.388
80994W        W45202   0.952   0.963  13.475
80995W        W45203  19.174  41.529  10.953
80996W        W45204  24.031   6.907  12.511
80997W        W45205  26.034  24.702   0.749
80998W        W45206  27.546  21.237   2.799
80999W        W45207  34.049  36.052  14.843
81000W        W45208  10.756  17.102   2.351
81001W        W45209  23.554  16.693  13.462
81002W        W45210  31.948  10.238   0.891
81003W        W45211  43.410   8.658  12.965
81004W        W45212   9.694  41.493  12.959
81005W        W45213  12.120  27.519   1.257
81006W        W45214  12.689   3.398   3.372
81007W        W45215  14.593  35.095   3.203
81008W        W45216  14.260  38.449   3.147
81009W        W45217  40.420  36.966   4.254
81010W        W45218  18.736   9.290   1.823
81011W        W45219  26.017  39.431  13.047
81012W        W45220  40.981  26.009  14.992
81013W        W45221  19.234   0.346  11.529
81014W        W45222  22.206  20.228  13.406
81015W        W45223  20.072  10.792   4.136
81016W        W45224  25.585  25.014  12.473
81017W        W45225  17.146  17.164  10.145
81018W        W45226   1.355  37.959   0.328
81019W        W45227  21.643   5.266  14.336
81020W        W45228  12.724  18.705  11.408
81021W        W45229  21.671  38.512  11.095
81022W        W45230  32.129  42.793   9.931
81023W        W45231  39.930  13.319   4.325
81024W        W45232  37.882  30.483   1.770
81025W        W45233   3.860  14.263   3.262
81026W        W45234  35.505   2.282   1.312
81027W        W45235  44.868   7.875   1.903
81028W        W45236  28.549  29.508  12.833
81029W        W45237  30.105   2.738   0.840
81030W        W45238  35.086  25.666   1.840
81031W        W45239   8.341  41.341  14.342
81032W        W45240  43.983  12.662   0.785
81033W        W45241  19.677  10.850  12.509
81034W        W45242  14.761   1.442  12.421
81035W        W45243  43.502  24.624  11.417
81036W        W45244  42.831  13.808   1.903
81037W        W45245  26.639  32.424   3.266
81038W        W45246  29.451   0.978  14.389
81039W        W45247  35.574  39.454   3.371
81040W        W45248   3.449  41.537   3.790
81041W        W45249  37.849  26.623   0.938
81042W        W45250   1.904  16.743  10.468
81043W        W45251  15.797  24.149  13.025
81044W        W45252   5.726  34.560   3.361
81045W        W45253  10.351  22.043   0.764
81046W        W45254  13.205  14.747  11.491
81047W        W45255  21.644   4.852   1.385
81048W        W45256  41.385  26.044   4.234
81049W        W45257  25.082  33.549  10.630
81050W        W45258  32.050  27.949   0.449
81051W        W45259   9.737   1.938   1.724
81052W        W45260   8.180  44.855   2.304
81053W        W45261   2.818  19.108   2.779
81054W        W45262  14.302  34.054   1.258
81055W        W45263  42.522   7.370   4.652
81056W        W45264   5.423  22.216   3.750
81057W        W45265  21.668  36.552  14.912
81058W        W45266  35.504  19.187   0.727
81059W        W45267  16.783   1.397  14.955
81060W        W45268   1.476   1.895   3.771
81061W        W45269  26.700  12.688   0.364
81062W        W45270  35.049  25.599   2.778
81063W        W45271  13.235  43.800   4.716
81064W        W45272  18.125  30.460   1.450
81065W        W45273  24.155   8.240   4.304
81066W        W45274   4.449   8.357  14.379
81067W        W45275  24.510  36.528  13.912
81068W        W45276  33.411  23.988   1.281
81069W        W45277  14.729  12.743   5.297
81070W        W45278  25.104  43.863  10.956
81071W        W45279   5.423  41.908  14.403
81072W        W45280  25.559  43.886   4.327
81073W        W45281  42.812  12.642  10.633
81074W        W45282  31.956  31.931  10.495
81075W        W45283  26.012  28.977   4.198
81076W        W45284  24.102  23.197  11.077
81077W        W45285  41.939  10.871  12.491
81078W        W45286   8.661  43.972   3.869
81079W        W45287  18.664  24.509  13.926
81080W        W45288  44.497   6.846   3.705
81081W        W45289  25.706  24.114   5.222
81082W        W45290   5.695  41.510  12.446
81083W        W45291  11.810  16.571  11.446
81084W        W45292  15.214   3.949   2.793
81085W        W45293  25.696  35.089  12.521
81086W        W45294  18.202   9.386  12.929
81087W        W45295  29.155  12.314  10.645
81088W        W45296   4.321  39.479   2.412
81089W        W45297  38.847  36.474  14.376
81090W        W45298  31.923  35.385   0.274
81091W        W45299  40.812  11.687  12.084
81092W        W45300  20.215  35.883   1.277
81093W        W45301  19.711  30.523  14.368
81094W        W45302  17.191  37.040   1.411
81095W        W45303  41.379   3.948   2.795
81096W        W45304  16.155  16.123  14.844
81097W        W45305   0.896  14.612  14.477
81098W        W45306   1.389   4.716   9.635
81099W        W45307  23.074  32.497  14.026
81100W        W45308   8.713  15.638  13.828
81101W        W45309   7.312  14.135  10.152
81102W        W45310   1.447  13.347  13.521
81103W        W45311  40.053  26.660  11.492
81104W        W45312  33.626   5.699  12.366
81105W        W45313  27.511  33.065   2.819
81106W        W45314  30.019  18.201  13.391
81107W        W45315   4.357  40.416  13.983
81108W        W45316  36.582  32.126  14.301
81109W        W45317  32.108  42.880  13.830
81110W        W45318  17.284   0.378   1.718
81111W        W45319   8.767   3.259  14.335
81112W        W45320   9.767  44.367  12.943
81113W        W45321  44.462  26.695  11.100
81114W        W45322  31.906  14.624   5.282
81115W        W45323  33.874  22.669  14.959
81116W        W45324  17.623   4.209  10.978
81117W        W45325  38.827  16.591  13.050
81118W        W45326  18.776   0.413  13.425
81119W        W45327   1.292   7.869  14.764
81120W        W45328  22.675  21.086   1.863
81121W        W45329  11.214  38.332  11.455
81122W        W45330  39.360  38.470  13.522
81123W        W45331  41.832  41.997  12.580
81124W        W45332  19.689   9.866  11.508
81125W        W45333   0.778  14.264   0.804
81126W        W45334  25.701   0.347  11.578
81127W        W45335  38.946   0.784   4.728
81128W        W45336   7.418  35.408   2.375
81129W        W45337  32.529  34.606  13.808
81130W        W45338  14.300  10.659  13.404
81131W        W45339  24.581  11.779  13.349
81132W        W45340  37.451   0.967   4.782
81133W        W45341  18.055  39.327  10.020
81134W        W45342  29.942  22.125   0.816
81135W        W45343  43.776  10.861  11.520
81136W        W45344   1.292  27.620   0.264
81137W        W45345  43.873   5.894   3.681
81138W        W45346  16.161  42.487  13.939
81139W        W45347  19.581   1.242  13.484
81140W        W45348   8.833  18.078  14.468
81141W        W45349  10.738   4.798  14.297
81142W        W45350  17.632   8.219   4.598
81143W        W45351  36.960  10.215  12.369
81144W        W45352  18.555  21.180  12.914
81145W        W45353  23.120   3.237  10.026
81146W        W45354   5.691  43.343  10.920
81147W        W45355  13.135  29.966   3.160
81148W        W45356  14.621  35.003   4.321
81149W        W45357  11.301   1.242  10.499
81150W        W45358  11.328  21.151  13.505
81151W        W45359  16.677   0.890  10.462
81152W        W45360  37.352  27.066   3.863
81153W        W45361  18.670  36.397  11.915
81154W        W45362  13.125  34.476   4.305
81155W        W45363  27.646  35.081   1.716
81156W        W45364  10.765   6.732  11.012
81157W        W45365  36.435  27.954   0.878
81158W        W45366   7.367   7.362   4.604
81159W        W45367  11.260  39.515  13.516
81160W        W45368  22.589  28.508   3.779
81161W        W45369  12.157  11.754   3.769
81162W        W45370  41.331  28.509  11.391
81163W        W45371  43.991   9.271  11.085
81164W        W45372  35.360  21.221  11.991
81165W        W45373  20.710   7.347  12.363
81166W        W45374  27.098  14.688   3.365
81167W        W45375  22.703  26.991   1.341
81168W        W45376  36.579  10.286   4.293
81169W        W45377  29.025  37.857   3.368
81170W        W45378   0.413   2.391   1.294
81171W        W45379  27.086  28.438   0.429
81172W        W45380  23.506  11.327  12.971
81173W        W45381  31.024  21.038  12.552
81174W        W45382  34.492  15.710  13.873
81175W        W45383   5.388  33.032   4.743
81176W        W45384  17.158  44.281  14.899
81177W        W45385   9.237  42.958   1.359
81178W        W45386   9.257  43.271   4.679
81179W        W45387  21.693  25.648   0.270
81180W        W45388  30.029  12.341  12.365
81181W        W45389   2.887   8.349   4.165
81182W        W45390  42.824  40.993  13.905
81183W        W45391   5.911  23.081   3.836
81184W        W45392  14.713  38.064   3.372
81185W        W45393   4.806  16.718  13.539
81186W        W45394  14.641  19.658  14.959
81187W        W45395  28.618  37.855  12.092
81188W        W45396  43.865   3.346  12.083
81189W        W45397  13.345  32.066   4.278
81190W        W45398  19.636  19.284   0.776
81191W        W45399  18.578  31.136  10.613
81192W        W45400  32.438  32.420  11.547
81193W        W45401  34.049  20.644  12.398
81194W        W45402  39.901  34.390   2.193
81195W        W45403   5.815  28.606   0.317
81196W        W45404   5.730  38.967  10.570
81197W        W45405  37.361  40.827   2.185
81198W        W45406  43.960  18.568   0.429
81199W        W45407   8.813  12.168  12.023
81200W        W45408  36.948  16.277   4.656
81201W        W45409  28.551  18.131  14.774
81202W        W45410  27.090  22.014   2.196
81203W        W45411  35.540  17.226  10.921
81204W        W45412   4.390  34.581   4.711
81205W        W45413  39.360  13.643   2.801
81206W        W45414  15.251  11.210  10.476
81207W        W45415  28.105   5.261   4.116
81208W        W45416  36.585  44.304  13.031
81209W        W45417  10.227  21.538  14.467
81210W        W45418  35.928   1.249  14.901
81211W        W45419  12.849  31.607  14.395
81212W        W45420  25.034  43.337  12.962
81213W        W45421  26.565  10.703  12.383
81214W        W45422  39.416  42.477   1.387
81215W        W45423   9.805  44.398  11.046
81216W        W45424  23.711   5.809  13.478
81217W        W45425  22.252  41.038   4.804
81218W        W45426  38.517  29.010   3.757
81219W        W45427  21.554   2.836   1.762
81220W        W45428   5.267  34.437   1.296
81221W        W45429   2.455  15.679   5.321
81222W        W45430  21.071  31.919   3.831
81223W        W45431  44.907  42.437   3.245
81224W        W45432   9.239  41.504  11.041
81225W        W45433   6.406  20.205   0.931
81226W        W45434   4.414  21.543   3.174
81227W        W45435   2.838  23.614  12.092
81228W        W45436  12.194  13.330   4.330
81229W        W45437   9.185  18.689  11.103
81230W        W45438  38.922  41.435   3.291
81231W        W45439  18.699  39.838  11.872
81232W        W45440  16.093  13.727   4.728
81233W        W45441   7.828  28.131   3.687
81234W        W45442  16.205  27.689  12.437
81235W        W45443  28.180  42.010  12.344
81236W        W45444  14.240   3.777   3.702
81237W        W45445  14.817  28.124   4.117
81238W        W45446  44.855  42.868  11.058
81239W        W45447   0.376  42.805  13.818
81240W        W45448  15.311   8.661  14.473
81241W        W45449  43.955  27.552   1.799
81242W        W45450   3.357   0.314   3.332
81243W        W45451  13.114  32.576   1.932
81244W        W45452  31.468   8.748  12.497
81245W        W45453  39.020  28.019   5.264
81246W        W45454   8.799  30.035   2.289
81247W        W45455  41.355  20.238   4.153
81248W        W45456  19.149  15.144   0.268
81249W        W45457   0.861  22.515  12.852
81250W        W45458  43.002   9.759  14.000
81251W        W45459   5.192  30.647   4.274
81252W        W45460  22.539  33.965   2.721
81253W        W45461  33.955   9.879  14.959
81254W        W45462  12.180  30.967   1.330
81255W        W45463  30.653  31.549  12.506
81256W        W45464  27.163   0.742  12.571
81257W        W45465  42.506   5.718  11.122
81258W        W45466  20.269   7.699   4.675
81259W        W45467  11.792  19.669  13.916
81260W        W45468  42.885   6.716   4.666
81261W        W45469   6.381  17.275  14.901
81262W        W45470   2.397  44.402  12.352
81263W        W45471   9.286  11.763  12.379
81264W        W45472  11.182  17.638   1.451
81265W        W45473  41.322  24.040  12.024
81266W        W45474  29.155  21.599   4.598
81267W        W45475  34.117  13.229  11.610
81268W        W45476  43.480   9.158  11.012
81269W        W45477  28.981  20.668  13.403
81270W        W45478  41.396  29.050   4.329
81271W        W45479  31.579  38.055   1.720
81272W        W45480  41.997  13.619   3.789
81273W        W45481   8.712  14.229   4.167
81274W        W45482  35.045  40.484  13.965
81275W        W45483  15.778   0.926   0.313
81276W        W45484  36.382  38.524  13.834
81277W        W45485  36.969  24.643   4.344
81278W        W45486  12.801   2.327  14.431
81279W        W45487   1.825  18.218   1.808
81280W        W45488  31.110  12.842   1.219
81281W        W45489  42.810  23.629   1.747
81282W        W45490  33.405  14.720   2.795
81283W        W45491  20.626  23.661   3.202
81284W        W45492   9.661   1.268  11.553
81285W        W45493  21.550  45.000   2.314
81286W        W45494  11.325   0.787  11.888
81287W        W45495  38.411  19.665  12.384
81288W        W45496  43.502  32.445  11.880
81289W        W45497  38.827   1.819   0.752
81290W        W45498  10.161  16.125   3.842
81291W        W45499  12.790  34.875   4.160
81292W        W45500  43.785  34.598  12.532
81293W        W45501   0.254  22.101  14.356
81294W        W45502  36.500  27.594  12.548
81295W        W45503  15.585  27.994  10.537
81296W        W45504   6.847  15.257   3.725
81297W        W45505  33.984  37.513   4.687
81298W        W45506  15.122  24.485  13.792
81299W        W45507  37.062  13.600   0.303
81300W        W45508  36.558  28.649   0.958
81301W        W45509  40.449  37.494   2.820
81302W        W45510  42.956   3.452  10.138
81303W        W45511  14.722  11.314  14.855
81304W        W45512  18.195  35.513   2.833
81305W        W45513  11.304  39.402  11.428
81306W        W45514   4.905  35.905   1.306
81307W        W45515   0.855  18.115   2.681
81308W        W45516  21.757   8.329  12.069
81309W        W45517   9.294   7.712   0.440
81310W        W45518  11.644  32.096  12.548
81311W        W45519  20.114  39.463  13.476
81312W        W45520   4.278  40.329  11.015
81313W        W45521   7.824  13.741   0.897
81314W        W45522  11.279  14.162  14.798
81315W        W45523  10.787  29.483  14.782
81316W        W45524  32.482   0.308  11.452
81317W        W45525  29.657  18.676  11.577
81318W        W45526   8.398  23.184   3.330
81319W        W45527  22.518  32.535   1.268
81320W        W45528  32.941   6.283   1.414
81321W        W45529   6.790  11.153   0.357
81322W        W45530  19.634  43.986  13.338
81323W        W45531  26.683  29.065  11.104
81324W        W45532  28.609  24.724   1.934
81325W        W45533  28.995  34.942  13.390
81326W        W45534  33.066  24.979   1.893
81327W        W45535  27.147  29.610  13.518
81328W        W45536  31.015   6.801  12.082
81329W        W45537  41.503  12.835  11.025
81330W        W45538   4.873   8.370   3.198
81331W        W45539  30.658  24.134   0.911
81332W        W45540   5.693  38.857   2.416
81333W        W45541   7.678  30.475   4.625
81334W        W45542  16.258  29.163  11.460
81335W        W45543  34.461  16.672   4.316
81336W        W45544  37.029   2.241   3.845
81337W        W45545  11.150   1.839   3.767
81338W        W45546   8.686  39.930  10.416
81339W        W45547  17.198  12.703  14.868
81340W        W45548  14.625  13.279   1.258
81341W        W45549  42.449  14.182  11.031
81342W        W45550  37.897  43.367  12.909
81343W        W45551  23.692   2.903   4.652
81344W        W45552  22.137  44.488   1.847
81345W        W45553   7.361   4.852  12.530
81346W        W45554  42.963  13.604   4.310
81347W        W45555  31.072   6.318  12.869
81348W        W45556   5.418  32.991  12.413
81349W        W45557   8.392  36.509  12.057
81350W        W45558  37.465  23.577   4.269
81351W        W45559   3.727  43.431  10.910
81352W        W45560  31.413   9.878   1.832
81353W        W45561  25.133  24.562   3.659
81354W        W45562  35.083  32.077   2.752
81355W        W45563   9.322  27.045  14.023
81356W        W45564  13.341  33.924  12.544
81357W        W45565  14.233  18.149   2.223
81358W        W45566  24.105  33.419  13.531
81359W        W45567  20.156  39.011  12.371
81360W        W45568   3.271  23.621   2.321
81361W        W45569  25.060  38.350   3.213
81362W        W45570  18.126  34.575   2.825
81363W        W45571  23.126  44.005   3.145
81364W        W45572  42.344   0.369   1.735
81365W        W45573  38.986   3.786   5.640
81366W        W45574  17.209  36.952   0.948
81367W        W45575   0.390  31.972  12.877
81368W        W45576   8.717  21.562  12.483
81369W        W45577  38.413  25.078   4.718
81370W        W45578  27.046   6.885   0.405
81371W        W45579  14.169  20.638   1.828
81372W        W45580  22.620  32.536   3.321
81373W        W45581  42.319  38.076   1.396
81374W        W45582   0.958  18.164  12.051
81375W        W45583  11.348  33.945   2.672
81376W        W45584  21.235   8.705  13.055
81377W        W45585   8.190  41.831   1.442
81378W        W45586   0.757  16.300   4.129
81379W        W45587  34.592  30.032   3.862
81380W        W45588  31.564  42.469  12.828
81381W        W45589  35.524  20.689  10.557
81382W        W45590  24.589  12.776   1.394
81383W        W45591  34.884  13.843   1.851
81384W        W45592  21.181  27.045   1.931
81385W        W45593  12.354  41.829  12.049
81386W        W45594   7.283   4.931  10.623
81387W        W45595   9.388  35.582  13.544
81388W        W45596  19.573  22.252   3.789
81389W        W45597   6.399  25.663  11.538
81390W        W45598  17.665  33.929   2.838
81391W        W45599   1.474  41.409  11.377
81392W        W45600  44.278  40.874   1.303
81393W        W45601  40.822  23.652  10.945
81394W        W45602  40.831  40.908   1.313
81395W        W45603  16.085   0.779  11.886
81396W        W45604  30.984  18.248  12.408
81397W        W45605  13.763  29.563   4.792
81398W        W45606  35.857  42.372   2.181
81399W        W45607  14.621  23.730  13.938
81400W        W45608  13.196  11.360   0.323
81401W        W45609   6.393  33.561  13.861
81402W        W45610  37.360  34.043  11.533
81403W        W45611  22.691  37.498   3.773
81404W        W45612  43.989   0.815  13.435
81405W        W45613  18.291   0.444  14.419
81406W        W45614  20.210  20.660   4.237
81407W        W45615  17.733  27.500   2.745
81408W        W45616   8.388  19.188   4.668
81409W        W45617  42.383  15.773   3.825
81410W        W45618   0.752  10.646   3.663
81411W        W45619  13.123  35.945   1.273
81412W        W45620  41.418  43.993   3.294
81413W        W45621  20.256   6.326   1.422
81414W        W45622   4.329   2.778  11.512
81415W        W45623  39.830  18.743   2.854
81416W        W45624  10.285  29.967  12.524
81417W        W45625   6.693  23.184   1.898
81418W        W45626  38.898  40.370   3.371
81419W        W45627  21.095  24.482   2.377
81420W        W45628  28.152  38.933  12.525
81421W        W45629   1.849  30.938  10.142
81422W        W45630  35.952  37.860   3.783
81423W        W45631  35.571  14.807   3.174
81424W        W45632  22.552  25.591   2.736
81425W        W45633   5.908   8.204   0.817
81426W        W45634  39.445   1.786  10.552
81427W        W45635  10.800  14.117   2.263
81428W        W45636  39.963  25.006  14.966
81429W        W45637  10.307  25.186  10.929
81430W        W45638  33.498  44.903  12.905
81431W        W45639  25.508  25.656   0.911
81432W        W45640   8.351  37.381   4.832
81433W        W45641   5.358   6.226  11.877
81434W        W45642   8.261  29.160  13.041
81435W        W45643  15.267   3.826  10.894
81436W        W45644  37.950  36.513   0.806
81437W        W45645  12.659  17.240   3.290
81438W        W45646  28.525   7.714  13.019
81439W        W45647  17.090  39.343  10.950
81440W        W45648  16.707  27.191  12.392
81441W        W45649  33.885  25.691  10.631
81442W        W45650  22.537  43.856   4.628
81443W        W45651   0.365  25.002  10.629
81444W        W45652  27.125  43.888   0.409
81445W        W45653  15.710  41.849  10.953
81446W        W45654  23.171  23.167   3.339
81447W        W45655  12.704  29.518   3.371
81448W        W45656  31.480  20.706   1.266
81449W        W45657  29.471   5.421   3.185
81450W        W45658   3.843   9.261   1.911
81451W        W45659   1.956  42.801   3.168
81452W        W45660   9.273   8.773  14.459
81453W        W45661  11.803  43.968  14.417
81454W        W45662  21.163  43.462   0.729
81455W        W45663  20.186   5.755   1.227
81456W        W45664   0.782  28.023   0.736
81457W        W45665  26.678   7.335  12.823
81458W        W45666  10.335  13.351   4.818
81459W        W45667  43.303   8.270  14.321
81460W        W45668  41.010  37.048   4.319
81461W        W45669  31.947  28.653  11.035
81462W        W45670  30.472   1.390   3.258
81463W        W45671  42.805   8.375   0.340
81464W        W45672  28.970  29.146  12.917
81465W        W45673  35.547   8.666   3.817
81466W        W45674  39.991  19.181  10.409
81467W        W45675  10.641  18.059   0.830
81468W        W45676  33.588  16.642   0.830
81469W        W45677  42.030  38.022  13.868
81470W        W45678  41.809  33.398   1.933
81471W        W45679  44.874  12.771   3.735
81472W        W45680  39.465  11.182  13.547
81473W        W45681  34.871   5.357   4.803
81474W        W45682  12.643  15.267   4.825
81475W        W45683  38.851  26.049  12.425
81476W        W45684   3.899  29.525  11.889
81477W        W45685  31.539   6.385   4.604
81478W        W45686  19.179  25.102  10.455
81479W        W45687  20.652  34.583  12.388
81480W        W45688   2.258  36.024  12.393
81481W        W45689  26.030  44.264  12.408
81482W        W45690  17.708   1.244  11.898
81483W        W45691  25.539  17.699  10.934
81484W        W45692  14.789  37.056   2.804
81485W        W45693  27.579   2.373  13.537
81486W        W45694  11.724  15.172  14.349
81487W        W45695  16.241   4.771   2.303
81488W        W45696  26.461  35.532   4.178
81489W        W45697  11.723  17.094   1.279
81490W        W45698  22.738  17.641   2.898
81491W        W45699  38.959  33.964   4.237
81492W        W45700   1.470  32.080  12.469
81493W        W45701  17.735  17.112  13.860
81494W        W45702  43.426  41.456   1.777
81495W        W45703  30.910   5.740  12.465
81496W        W45704  41.975  31.430  11.121
81497W        W45705  20.739  31.531  14.001
81498W        W45706  41.498   8.783   4.813
81499W        W45707  33.592   6.822  10.079
81500W        W45708  27.080  25.571   3.775
81501W        W45709   6.748  35.969   4.727
81502W        W45710  15.253  30.924   3.148
81503W        W45711  18.256   2.813  12.930
81504W        W45712  22.609  41.826   1.769
81505W        W45713  35.521  44.933   4.230
81506W        W45714  21.189   9.219  12.405
81507W        W45715  22.632  34.021  11.385
81508W        W45716  34.107  23.565   3.639
81509W        W45717  14.776  16.743  12.394
81510W        W45718  17.653  35.516  10.638
81511W        W45719   7.203   3.228   0.965
81512W        W45720  37.382  25.480   0.453
81513W        W45721  24.163   4.846   2.667
81514W        W45722  23.627  29.556  10.969
81515W        W45723  41.956  13.706  10.622
81516W        W45724  22.191  33.534  12.853
81517W        W45725  33.965  29.500  12.049
81518W        W45726  31.128  35.474   4.680
81519W        W45727  17.149  32.039   3.724
81520W        W45728  14.779  23.049  14.302
81521W        W45729  13.652  31.037   2.413
81522W        W45730   6.228   0.804  12.562
81523W        W45731  15.651  15.272   2.284
81524W        W45732  20.667  21.134  14.857
81525W        W45733  42.852  19.717  11.107
81526W        W45734  15.310  15.785   3.735
81527W        W45735   3.844  41.342  12.866
81528W        W45736   3.262   5.344   1.757
81529W        W45737  12.148  27.177  12.872
81530W        W45738  22.654  15.807  13.500
81531W        W45739  43.909  13.707  13.350
81532W        W45740   9.271  43.407  14.910
81533W        W45741   4.864  28.525   4.603
81534W        W45742   4.322  35.523  13.848
81535W        W45743  17.602  33.503  12.420
81536W        W45744  15.772  12.245   1.746
81537W        W45745  38.564   4.778   0.780
81538W        W45746   0.454  23.595  11.120
81539W        W45747   8.847   8.773   3.330
81540W        W45748  32.468  24.007   3.831
81541W        W45749  41.403   6.316   3.154
81542W        W45750  16.714  30.081  14.388
81543W        W45751   7.852   1.443   4.226
81544W        W45752  33.555  10.203  11.437
81545W        W45753  27.940  23.120  12.527
81546W        W45754  20.245  24.114  14.346
81547W        W45755  22.575  35.087   2.778
81548W        W45756  21.753   1.912   3.705
81549W        W45757  17.181   9.816  13.934
81550W        W45758  34.976   0.322   3.687
81551W        W45759  32.925  44.879   0.407
81552W        W45760  39.423  12.336   4.817
81553W        W45761  23.690  30.049   2.741
81554W        W45762   1.257  20.083   1.367
81555W        W45763  37.896  42.283  11.949
81556W        W45764  14.645  29.073   0.751
81557W        W45765  41.952  35.106   3.733
81558W        W45766  17.228  40.019  10.432
81559W        W45767  10.228  29.980  10.559
81560W        W45768  40.811   7.236   2.325
81561W        W45769  39.409  43.406   0.442
81562W        W45770  17.747   0.821   4.143
81563W        W45771   7.752  43.370  13.527
81564W        W45772  14.210   2.808   1.401
81565W        W45773  44.445   1.288   4.821
81566W        W45774  22.691  19.259   4.131
81567W        W45775  22.248   8.337   0.468
81568W        W45776   5.338  20.040   4.199
81569W        W45777  38.943  19.136   2.303
81570W        W45778  22.022  25.544  10.961
81571W        W45779  19.627  30.490   3.856
81572W        W45780  39.828  19.239   4.834
81573W        W45781   4.307  17.681  14.879
81574W        W45782   2.908  16.810   0.806
81575W        W45783   9.241  35.459  14.769
81576W        W45784   6.298  22.623  12.079
81577W        W45785  37.496  30.099  13.371
81578W        W45786   1.306  36.971  14.453
81579W        W45787  23.210  28.446  12.464
81580W        W45788   8.898  18.627  11.045
81581W        W45789  41.297   1.405  12.906
81582W        W45790  44.402  40.480   4.665
81583W        W45791  16.202  19.103   0.352
81584W        W45792  12.237  33.920   1.887
81585W        W45793   7.765  14.127   0.883
81586W        W45794  28.442  40.936  12.396
81587W        W45795   7.672   7.754   5.210
81588W        W45796  16.621  30.480  13.036
81589W        W45797  29.561   1.844  14.943
81590W        W45798  41.304  33.894   4.743
81591W        W45799  13.281  29.141  12.849
81592W        W45800  32.057  15.254  14.019
81593W        W45801  39.457  36.844  11.447
81594W        W45802  22.639  23.639  13.911
81595W        W45803  38.548   8.399   0.319
81596W        W45804  27.649  25.685   3.772
81597W        W45805   5.751  30.145   1.226
81598W        W45806  16.082  19.193   0.825
81599W        W45807  42.440  14.785  13.393
81600W        W45808  43.296  10.182  13.825
81601W        W45809  11.219   3.246   2.397
81602W        W45810  11.278  34.473   2.353
81603W        W45811  14.115  27.963   0.244
81604W        W45812  28.128  34.540   3.371
81605W        W45813  13.646  28.129  12.013
81606W        W45814   4.449  17.714  13.965
81607W        W45815  39.969  32.433  14.387
81608W        W45816  26.637  31.912  12.557
81609W        W45817   6.773  15.806   2.884
81610W        W45818  14.283  44.314   2.400
81611W        W45819   2.286  14.706   0.477
81612W        W45820  12.697  24.101   2.884
81613W        W45821  24.528  17.598   3.203
81614W        W45822  26.156   8.856   4.172
81615W        W45823  36.485  31.532  11.863
81616W        W45824  41.496  15.676   4.193
81617W        W45825  38.464  18.595  11.497
81618W        W45826  26.195  17.584   3.244
81619W        W45827  32.470  36.983  11.059
81620W        W45828  21.586   7.689  13.330
81621W        W45829   5.744  35.468  12.072
81622W        W45830  17.565  34.567  12.575
81623W        W45831  32.486   0.758  12.498
81624W        W45832  31.544  43.316  12.087
81625W        W45833  35.381   0.431   0.368
81626W        W45834  40.446  22.158  14.411
81627W        W45835  19.770  13.742  13.057
81628W        W45836  34.392  22.605   3.226
81629W        W45837   2.394  18.740   3.684
81630W        W45838  41.457  38.367   1.802
81631W        W45839  32.135  35.930  10.492
81632W        W45840  25.561  11.198  10.000
81633W        W45841  24.624  33.879  14.795
81634W        W45842   7.828   0.469  10.100
81635W        W45843  23.695   0.815   3.721
81636W        W45844  27.132  29.165   0.834
81637W        W45845  38.954  15.747  13.383
81638W        W45846   0.743  34.891  10.548
81639W        W45847  35.105   6.289  14.979
81640W        W45848  31.537  35.391   1.213
81641W        W45849   1.365  26.493   1.312
81642W        W45850  18.629  10.785  13.510
81643W        W45851   5.219  17.133   2.397
81644W        W45852  17.199  16.677   4.188
81645W        W45853  11.829  42.485   0.732
81646W        W45854  31.631  15.198  13.941
81647W        W45855  31.433   1.242   1.845
81648W        W45856  28.575  31.573  13.945
81649W        W45857  40.516   8.183  14.994
81650W        W45858  38.992  10.374   3.148
81651W        W45859   1.310  19.659   4.623
81652W        W45860  31.927  14.247   1.369
81653W        W45861  10.193  20.150   3.289
81654W        W45862  18.618  36.862   3.798
81655W        W45863  44.411  17.114  14.420
81656W        W45864  17.649   2.843   2.810
81657W        W45865  26.966  29.466  14.428
81658W        W45866  26.477  27.151  13.935
81659W        W45867  22.087  44.286   0.762
81660W        W45868   5.368   6.423   2.664
81661W        W45869   1.754  42.510  12.435
81662W        W45870  18.568   1.366   3.716
81663W        W45871  39.869  43.855   3.165
81664W        W45872  21.095   8.165   1.411
81665W        W45873  41.849  27.062  14.809
81666W        W45874  24.154  39.523  13.951
81667W        W45875  38.345  20.721   4.680
81668W        W45876  32.488   3.438   0.406
81669W        W45877  11.269  30.976  14.298
81670W        W45878  27.568   4.854  14.780
81671W        W45879  19.119  18.104   4.639
81672W        W45880  34.566  43.434  14.810
81673W        W45881   9.262  14.132  14.762
81674W        W45882  16.317   0.874  10.976
81675W        W45883  25.577  13.843  12.854
81676W        W45884  23.215  22.715   4.637
81677W        W45885   6.219  25.174  14.796
81678W        W45886   6.332   7.866  11.017
81679W        W45887  41.507  28.591  13.431
81680W        W45888  36.387  19.152  11.011
81681W        W45889   2.812  39.552   1.363
81682W        W45890  29.564   4.715  10.562
81683W        W45891  13.614   9.337   0.802
81684W        W45892   8.336  43.959   1.398
81685W        W45893   9.826  36.072   3.838
81686W        W45894  34.498   0.404  14.276
81687W        W45895   2.234  34.072  12.447
81688W        W45896   2.735   4.387  13.863
81689W        W45897  17.142  33.462  12.084
81690W        W45898   0.298  32.000  12.412
81691W        W45899  16.588  22.548  12.543
81692W        W45900  22.077  42.899  13.410
81693W        W45901  32.624  27.973   1.320
81694W        W45902  28.551  14.747   0.916
81695W        W45903  15.159  38.431  12.002
81696W        W45904   5.764   8.839   3.301
81697W        W45905  10.152  13.623  11.923
81698W        W45906  30.018   8.797   1.744
81699W        W45907  39.819  31.633   0.958
81700W        W45908  31.962  26.953   5.168
81701W        W45909  26.682  44.496  12.533
81702W        W45910  12.244  33.562  14.825
81703W        W45911  21.702  25.596  12.547
81704W        W45912  11.669  44.259   3.692
81705W        W45913  23.103  20.267  14.392
81706W        W45914  36.095  34.992   4.680
81707W        W45915   1.426  12.760  11.549
81708W        W45916  43.289  19.270  11.450
81709W        W45917   8.818  15.236   2.248
81710W        W45918  44.265  43.276  14.851
81711W        W45919   9.766  42.921  12.090
81712W        W45920  16.194  10.216   3.257
81713W        W45921  25.182   6.872   1.768
81714W        W45922  14.593   1.787   3.690
81715W        W45923  17.249  42.464  12.036
81716W        W45924  11.835  33.016   2.672
81717W        W45925  28.079  37.955   1.279
81718W        W45926  21.086  44.291   3.632
81719W        W45927  35.382  43.348  10.617
81720W        W45928  13.630  28.018   3.362
81721W        W45929  29.174  42.847   2.203
81722W        W45930  30.522  41.855  10.630
81723W        W45931  20.223   2.866   4.735
81724W        W45932   3.928   5.715  13.886
81725W        W45933  37.500  28.539  13.355
81726W        W45934  12.221  40.875   3.253
81727W        W45935   8.891  18.286  10.953
81728W        W45936  37.001  20.059  11.444
81729W        W45937  20.046  20.255   2.335
81730W        W45938  24.640  43.952   2.214
81731W        W45939  41.495  26.511  10.545
81732W        W45940   8.266   1.322   0.466
81733W        W45941   7.316  16.758   4.121
81734W        W45942  20.133   0.900   0.337
81735W        W45943  23.569  14.220   0.358
81736W        W45944   0.960  35.075   1.296
81737W        W45945  22.625  36.915   0.872
81738W        W45946  35.011  10.351   0.442
81739W        W45947  41.475   1.804  10.482
81740W        W45948  30.051   5.934   1.290
81741W        W45949  37.371  31.529   2.231
81742W        W45950  14.174  40.349  14.433
81743W        W45951  28.085  34.949   5.143
81744W        W45952  28.017  20.218   1.217
81745W        W45953  23.198  39.982  13.966
81746W        W45954  33.914  12.676  13.940
81747W        W45955   9.195  26.111  11.410
81748W        W45956  28.120  12.766   2.338
81749W        W45957  20.209  37.530  12.065
81750W        W45958  42.986  21.633   3.354
81751W        W45959  30.427  44.960  10.930
81752W        W45960  30.595   1.442  12.499
81753W        W45961  13.342  40.350  14.786
81754W        W45962   3.311  14.658  14.841
81755W        W45963  26.494  27.595   1.908
81756W        W45964  21.100  36.364   5.130
81757W        W45965  38.466  37.061   2.837
81758W        W45966  25.621  32.453  13.546
81759W        W45967  22.997  16.803  14.862
81760W        W45968  37.378   9.802   0.934
81761W        W45969  20.172   2.377  14.785
81762W        W45970   2.293  23.999   4.816
81763W        W45971  24.003  15.698   5.178
81764W        W45972   8.285  26.098   3.813
81765W        W45973  44.459  14.833   2.256
81766W        W45974   7.910   4.303  11.540
81767W        W45975  38.515   1.237  10.517
81768W        W45976  41.344   7.185   4.784
81769W        W45977  40.838   7.298   3.337
81770W        W45978   3.861  38.953   2.272
81771W        W45979   2.815  32.504  14.772
81772W        W45980  18.052  15.275   4.263
81773W        W45981  22.033  40.467   0.813
81774W        W45982  23.175   1.926   2.867
81775W        W45983  13.179  10.751  13.851
81776W        W45984  10.197   1.894  12.016
81777W        W45985  36.355  11.365   4.126
81778W        W45986  41.976   3.402   0.772
81779W        W45987   3.380  16.120   4.189
81780W        W45988  26.667  36.861   4.712
81781W        W45989   1.842   7.178  12.936
81782W        W45990  14.178  35.955   3.664
81783W        W45991  21.574  41.881  13.489
81784W        W45992  11.243  21.021  12.044
81785W        W45993  42.374   5.267   3.682
81786W        W45994  40.808  25.962  12.871
81787W        W45995  17.277   4.777  14.310
81788W        W45996   0.896   4.259  13.960
81789W        W45997  25.152  22.646   4.765
81790W        W45998  10.143  31.539  12.024
81791W        W45999  22.723  27.463  10.002
81792W        W46000  14.167   9.236   4.761
81793W        W46001   6.336  10.806   3.847
81794W        W46002  30.000  21.256  12.457
81795W        W46003  35.934  36.919  12.894
81796W        W46004  10.286  16.571  11.966
81797W        W46005   8.172  43.347   0.911
81798W        W46006   3.947   5.269  12.394
81799W        W46007   9.830  23.104   4.722
81800W        W46008  14.747  16.298   1.869
81801W        W46009  23.524  41.927  14.847
81802W        W46010  28.523   6.368   2.370
81803W        W46011   0.873   8.311   2.849
81804W        W46012   5.852  15.601   1.898
81805W        W46013   7.854  15.736   3.331
81806W        W46014  42.360  32.038   4.680
81807W        W46015  27.089   4.756  13.478
81808W        W46016  18.557  37.074   4.664
81809W        W46017  29.999  21.098  13.044
81810W        W46018   7.890   9.351  11.429
81811W        W46019  44.327  13.265   0.854
81812W        W46020  11.160  10.828  11.074
81813W        W46021   5.320  43.988   2.890
81814W        W46022  20.249  12.292  10.416
81815W        W46023  10.376  15.217   4.331
81816W        W46024   2.940  24.016  13.372
81817W        W46025   7.780   6.915   2.260
81818W        W46026  14.647  17.761   1.434
81819W        W46027   3.448   0.797  14.312
81820W        W46028  40.854   5.899   2.326
81821W        W46029  19.642  31.588   2.679
81822W        W46030   9.693  36.927  14.944
81823W        W46031  22.240  19.131   2.869
81824W        W46032  12.196  42.442   3.737
81825W        W46033  38.386   1.740  11.381
81826W        W46034   1.797   7.744   4.280
81827W        W46035  26.047  16.220  10.620
81828W        W46036   9.275  33.500  13.916
81829W        W46037  21.587  12.189   4.815
81830W        W46038   5.223   8.358  10.626
81831W        W46039  25.644  34.972  10.994
81832W        W46040  28.177   8.292  13.837
81833W        W46041  20.124   6.716   4.719
81834W        W46042   8.769  40.907   2.341
81835W        W46043  18.081  31.616  13.889
81836W        W46044  44.379  26.703  12.468
81837W        W46045  10.736  44.877   3.851
81838W        W46046   8.290  26.036   2.249
81839W        W46047  17.745  26.690   0.305
81840W        W46048  13.121   5.239   4.691
81841W        W46049  24.518  27.570  14.336
81842W        W46050  28.526  20.647  14.962
81843W        W46051  35.918  33.923  10.951
81844W        W46052  25.523  20.524   2.764
81845W        W46053  20.043  24.544  13.417
81846W        W46054  22.998   2.753  14.922
81847W        W46055  14.806  12.172  12.859
81848W        W46056  23.032   9.238   1.792
81849W        W46057  44.281  33.023   4.216
81850W        W46058  39.977  28.653   4.212
81851W        W46059  22.105  14.726  11.496
81852W        W46060  25.073  14.756   2.868
81853W        W46061  38.447  21.641   1.908
81854W        W46062  34.086  33.539  14.322
81855W        W46063  25.169  11.732   0.449
81856W        W46064  27.663  20.645   4.837
81857W        W46065  40.983   7.681   2.800
81858W        W46066   4.229  22.170   2.252
81859W        W46067   4.389  15.316   4.781
81860W        W46068  23.132   9.377   3.239
81861W        W46069  40.505  17.064   4.763
81862W        W46070  23.503  29.556   4.289
81863W        W46071  36.868   0.880  14.951
81864W        W46072  44.409  44.973   0.880
81865W        W46073  10.259  35.002   0.455
81866W        W46074  10.322  14.824  11.576
81867W        W46075  41.390   9.301   4.114
81868W        W46076   9.807  36.841  13.432
81869W        W46077  22.713  40.039   2.896
81870W        W46078  20.274  29.095   4.273
81871W        W46079  40.456  24.527  13.327
81872W        W46080  43.427  14.261  11.577
81873W        W46081  13.235  24.012   3.804
81874W        W46082  34.958  12.348  13.423
81875W        W46083  11.362  20.031  12.360
81876W        W46084   1.425   6.731   3.782
81877W        W46085  41.536   2.237  11.483
81878W        W46086  37.575  27.039   2.350
81879W        W46087  32.967  16.081   2.725
81880W        W46088  19.747  27.141  14.403
81881W        W46089  30.623  34.595   0.747
81882W        W46090  33.005   1.449  12.912
81883W        W46091   3.363  21.668   3.706
81884W        W46092  13.691   4.849   4.626
81885W        W46093  22.078  28.659   4.241
81886W        W46094   4.945  27.064   4.227
81887W        W46095  39.343  14.724  12.566
81888W        W46096  28.168  41.412   3.374
81889W        W46097  22.012   9.815   0.841
81890W        W46098  27.085  21.720  12.454
81891W        W46099  27.048  34.099   1.762
81892W        W46100  16.770  35.533  11.086
81893W        W46101  44.909   1.299  12.454
81894W        W46102   3.899  23.666   4.772
81895W        W46103  12.673  16.077   1.406
81896W        W46104  44.907   1.391  14.898
81897W        W46105   1.756  25.164  12.372
81898W        W46106  22.714  29.095   1.754
81899W        W46107   1.394  35.937   3.327
81900W        W46108  31.978  14.809   1.819
81901W        W46109  22.117  32.045   4.642
81902W        W46110   3.245  41.967  13.021
81903W        W46111   8.858  27.635  12.364
81904W        W46112   9.759  20.699   2.362
81905W        W46113  40.996  38.436  12.901
81906W        W46114   6.275  33.043  14.820
81907W        W46115  25.100  21.040   0.341
81908W        W46116  13.324   5.834   4.211
81909W        W46117  19.652  22.712   0.919
81910W        W46118  21.692  21.061  11.024
81911W        W46119  13.160  25.489   0.836
81912W        W46120  42.027  27.125  13.477
81913W        W46121   3.346   6.271   3.242
81914W        W46122   8.165   9.768   3.857
81915W        W46123  41.415  44.884   1.325
81916W        W46124   8.770  38.450   3.327
81917W        W46125  19.168  22.506   4.353
81918W        W46126  31.946  38.054   4.157
81919W        W46127  13.711  30.473  11.521
81920W        W46128   3.764  36.007   3.796
81921W        W46129  25.653  21.208  14.407
81922W        W46130  16.576  22.190   1.309
81923W        W46131  14.745  36.465  14.389
81924W        W46132   5.317  42.453   1.740
81925W        W46133  12.286   1.391   2.354
81926W        W46134  42.907  37.959   2.181
81927W        W46135  40.046  10.315  11.916
81928W        W46136  27.668  38.974   4.180
81929W        W46137  21.098  15.149   0.903
81930W        W46138  26.091  26.147  11.597
81931W        W46139  15.242   7.205   4.796
81932W        W46140  15.645  10.660  11.410
81933W        W46141   3.949  27.560  13.355
81934W        W46142   9.208  41.999   3.675
81935W        W46143  25.697   7.781  13.532
81936W        W46144  16.172  21.654   1.267
81937W        W46145  39.982  22.718   2.879
81938W        W46146  15.657  43.795  14.384
81939W        W46147  27.090  15.616  14.301
81940W        W46148  40.526  16.808   5.581
81941W        W46149  28.015  33.450   1.296
81942W        W46150  33.901   2.472  14.858
81943W        W46151   2.765  37.039  12.549
81944W        W46152  13.307  44.388   4.702
81945W        W46153  20.653   1.925  12.980
81946W        W46154   3.243  41.002  12.078
81947W        W46155  20.716  31.627  11.099
81948W        W46156   3.872  44.491   1.865
81949W        W46157   7.825  14.629  10.443
81950W        W46158  13.197  27.096   4.271
81951W        W46159  44.979  34.887  14.347
81952W        W46160  29.014  26.133   3.806
81953W        W46161   1.291  21.547  13.445
81954W        W46162  12.615  35.369  12.535
81955W        W46163  18.669  29.023   3.170
81956W        W46164  41.865  10.650   2.749
81957W        W46165  11.793  18.219  14.421
81958W        W46166  38.551   7.704  14.443
81959W        W46167  17.270   4.917   0.853
81960W        W46168  38.827  23.075   1.326
81961W        W46169   2.356  29.931   3.310
81962W        W46170  37.541  23.552  14.972
81963W        W46171  28.607  11.846  11.511
81964W        W46172  35.380   7.823   1.798
81965W        W46173   5.302  21.216   4.265
81966W        W46174  31.411  40.921  14.892
81967W        W46175  33.552  18.625  13.353
81968W        W46176  43.885   7.771  10.963
81969W        W46177   7.763   5.837  12.342
81970W        W46178  28.095  30.077  10.519
81971W        W46179  12.655  19.041   4.698
81972W        W46180   1.940  29.564   1.214
81973W        W46181  35.465  40.798  12.095
81974W        W46182  43.426   8.681  14.862
81975W        W46183  44.291  16.207  11.006
81976W        W46184  32.502  38.509   0.480
81977W        W46185  38.522  33.912   1.449
81978W        W46186  40.367  10.274  13.320
81979W        W46187  14.681  34.073  11.995
81980W        W46188  14.294  27.973   1.790
81981W        W46189  36.082  30.061  13.956
81982W        W46190   2.250  10.323   1.241
81983W        W46191  38.976  33.104   0.267
81984W        W46192   6.235  42.030  12.363
81985W        W46193   5.891   0.431  14.452
81986W        W46194  24.199  26.181   4.121
81987W        W46195  25.163  16.079   1.835
81988W        W46196  40.853  30.056  11.053
81989W        W46197   6.812  21.701   3.345
81990W        W46198  24.199  34.501  12.441
81991W        W46199  26.677   9.709  12.034
81992W        W46200  37.428  30.975  14.787
81993W        W46201  24.718  41.014   0.250
81994W        W46202  27.552   3.921  13.003
81995W        W46203  34.892   4.726  14.283
81996W        W46204  38.848  24.692   0.384
81997W        W46205  10.139  39.890   1.741
81998W        W46206  37.084  32.635  14.955
81999W        W46207   7.215   2.399  10.946
82000W        W46208  33.023  19.240  14.874
82001W        W46209  29.655   8.655  14.026
82002W        W46210   0.364   0.250   3.682
82003W        W46211  21.048  32.449   1.713
82004W        W46212   0.861   5.258   3.776
82005W        W46213  36.056  12.334   2.714
82006W        W46214  30.518  23.526   2.292
82007W        W46215  11.657  19.155  10.985
82008W        W46216  41.429  14.167   5.251
82009W        W46217  13.316  29.532   1.757
82010W        W46218  18.747  26.636   2.335
82011W        W46219  35.533   1.857   3.696
82012W        W46220  43.937  27.077   2.319
82013W        W46221  13.243   4.318   2.895
82014W        W46222   4.873  35.424   4.619
82015W        W46223  11.733  32.442   0.943
82016W        W46224   7.216  38.360  13.541
82017W        W46225  41.043  38.014   1.417
82018W        W46226  42.419   8.402  10.417
82019W        W46227  27.061  38.868  10.041
82020W        W46228  22.019  13.760  11.089
82021W        W46229  27.005  42.935   0.303
82022W        W46230   3.304   0.870  13.984
82023W        W46231  17.211  44.310   4.343
82024W        W46232  44.472  25.023   2.407
82025W        W46233  41.423  19.761   3.741
82026W        W46234  43.830  22.251   4.687
82027W        W46235  35.575  20.749   4.143
82028W        W46236   1.919  37.996   3.796
82029W        W46237  40.529  20.620   2.210
82030W        W46238   8.166   8.783  14.396
82031W        W46239  21.568  31.634  14.983
82032W        W46240  31.927  29.014  12.926
82033W        W46241   2.916  18.174  13.418
82034W        W46242  30.655   3.911  14.295
82035W        W46243  29.592  14.746   9.657
82036W        W46244  11.694   8.669  11.999
82037W        W46245  18.789  23.234   1.935
82038W        W46246  26.625  13.190  14.365
82039W        W46247  24.015  24.066  11.891
82040W        W46248  39.054  31.566   1.757
82041W        W46249  32.134  23.659  14.018
82042W        W46250   5.895  21.559  12.910
82043W        W46251   6.677  19.616  11.481
82044W        W46252  37.879   0.893  12.948
82045W        W46253   7.187  12.653  14.463
82046W        W46254  25.585  24.214   3.287
82047W        W46255  36.554  36.493   3.371
82048W        W46256   3.321  23.729   4.113
82049W        W46257  42.424   2.957   3.346
82050W        W46258  30.990  33.459   9.997
82051W        W46259  44.782  39.322  10.474
82052W        W46260   9.191  36.528   3.813
82053W        W46261  29.058  24.049   4.750
82054W        W46262  11.324  30.513  11.860
82055W        W46263  16.708   3.725  12.984
82056W        W46264   7.847  11.202  11.608
82057W        W46265  31.447  23.715  11.962
82058W        W46266   1.243  30.047   0.443
82059W        W46267  28.567  19.619   0.410
82060W        W46268  18.734  10.721  12.383
82061W        W46269  29.097  17.172  14.940
82062W        W46270  21.570  44.795  13.477
82063W        W46271  14.138   2.800  14.300
82064W        W46272  11.187  26.208   0.270
82065W        W46273  33.599  24.107   4.164
82066W        W46274   1.797  28.531  11.905
82067W        W46275   1.829  32.110   4.741
82068W        W46276  35.405   9.373  11.379
82069W        W46277   1.437   8.729  12.520
82070W        W46278   8.737   6.731  11.396
82071W        W46279  35.994  40.409   0.813
82072W        W46280  19.538  15.264   3.225
82073W        W46281  33.492  23.017  13.349
82074W        W46282   8.853  44.383   2.856
82075W        W46283  19.548  13.240  11.583
82076W        W46284  33.919   8.689  14.778
82077W        W46285  33.940  30.013  11.074
82078W        W46286   8.693   3.276  10.491
82079W        W46287  10.203  30.910   0.291
82080W        W46288   7.272  32.407  10.937
82081W        W46289  24.134  39.017  12.531
82082W        W46290   5.858  34.408  11.402
82083W        W46291  14.146   8.184  12.861
82084W        W46292  31.506  35.033   2.347
82085W        W46293  24.606   3.239   4.193
82086W        W46294  13.295  11.755  12.948
82087W        W46295   8.197  12.625  10.589
82088W        W46296  20.757  15.267  12.575
82089W        W46297  18.093  11.203   4.243
82090W        W46298  39.488  36.934   1.291
82091W        W46299  27.094  35.511  12.400
82092W        W46300   1.819   8.805   3.277
82093W        W46301   3.244  44.369   4.123
82094W        W46302  19.778  42.024  12.023
82095W        W46303  39.058  15.143   2.872
82096W        W46304  33.022  11.662   3.322
82097W        W46305   7.866  18.648  10.889
82098W        W46306  20.579  19.179   0.860
82099W        W46307  36.566   5.695   1.701
82100W        W46308  21.159   8.847   1.715
82101W        W46309  19.257  23.041   3.353
82102W        W46310  26.692  32.581   1.380
82103W        W46311  13.788  34.013  13.904
82104W        W46312  25.576  23.664   1.375
82105W        W46313   6.265  24.568  11.015
82106W        W46314  14.240  12.204   4.690
82107W        W46315  44.479  33.996   4.636
82108W        W46316  30.145  42.511   2.345
82109W        W46317  10.660  28.603  13.907
82110W        W46318  22.053  40.506  10.893
82111W        W46319  12.211   8.705  10.596
82112W        W46320   4.807  24.604  11.388
82113W        W46321  35.376  22.034  11.075
82114W        W46322  23.220   6.780  10.529
82115W        W46323  33.396   3.355  10.502
82116W        W46324  37.944  34.948  11.949
82117W        W46325  44.810  10.162   2.882
82118W        W46326   8.881  40.498   2.839
82119W        W46327  42.012  12.119   4.713
82120W        W46328  32.900   7.283  10.642
82121W        W46329  20.697  44.975  12.425
82122W        W46330  33.040   7.371  11.430
82123W        W46331  16.624  38.064  12.981
82124W        W46332  12.216  38.496  10.556
82125W        W46333   1.738  32.495  11.582
82126W        W46334   9.720   9.354  11.449
82127W        W46335  22.110  44.786   1.820
82128W        W46336  29.170  33.916  11.410
82129W        W46337  11.735  22.678  13.402
82130W        W46338   1.412  11.844   1.823
82131W        W46339  26.969  37.845   0.842
82132W        W46340  24.584  33.005  13.000
82133W        W46341  11.658  36.462   0.778
82134W        W46342  36.078  37.077   3.254
82135W        W46343  43.313  29.482   4.184
82136W        W46344  43.468  14.300   2.321
82137W        W46345  44.959   2.845  12.416
82138W        W46346  41.982  15.277  13.485
82139W        W46347  15.697   2.959   1.447
82140W        W46348   9.350   9.234  13.399
82141W        W46349  27.003  32.083   3.676
82142W        W46350  40.506  21.064   4.653
82143W        W46351  34.931  26.487  12.069
82144W        W46352  14.103  29.436   2.384
82145W        W46353   6.252  11.636   9.954
82146W        W46354  35.925   2.252  10.918
82147W        W46355   9.668  38.370  12.446
82148W        W46356  44.364  29.454   4.343
82149W        W46357  40.988  21.656  12.829
82150W        W46358   2.804  44.439  13.489
82151W        W46359  19.700  34.390  10.567
82152W        W46360  31.969  13.188   4.295
82153W        W46361   7.717  21.699   3.166
82154W        W46362  38.496   5.417   3.680
82155W        W46363  39.872  11.212  13.905
82156W        W46364   3.853   7.199   0.458
82157W        W46365  32.898  19.570   3.703
82158W        W46366  28.109  38.969   1.859
82159W        W46367  27.551   1.925   3.674
82160W        W46368  35.075  34.519  10.034
82161W        W46369  14.238  26.173   2.202
82162W        W46370  37.460  10.362  13.415
82163W        W46371  17.720  16.654  11.572
82164W        W46372   1.390  20.183   4.623
82165W        W46373  16.136  39.042  14.913
82166W        W46374  33.489  14.683   2.305
82167W        W46375  15.620  43.940  12.986
82168W        W46376  15.136  37.891   2.713
82169W        W46377   1.287  37.039   1.924
82170W        W46378  42.843  14.782  13.045
82171W        W46379  21.035  26.574  13.889
82172W        W46380  21.226  44.960  14.977
82173W        W46381  22.567  10.227   1.446
82174W        W46382  20.603   3.953  12.934
82175W        W46383  14.189  27.578   2.803
82176W        W46384  22.662   8.165  12.992
82177W        W46385  20.660  34.522  13.803
82178W        W46386  42.520  33.575   2.238
82179W        W46387   5.198  36.386   2.822
82180W        W46388   4.448   4.222   4.221
82181W        W46389  12.161   6.918  14.976
82182W        W46390  15.641  23.511  11.385
82183W        W46391  26.613   7.371  14.437
82184W        W46392  40.887  43.335  11.523
82185W        W46393  32.564  17.153  11.946
82186W        W46394  14.700   7.737   2.249
82187W        W46395  16.629   7.761   0.464
82188W        W46396  21.590  28.049  10.978
82189W        W46397   3.838   3.246  14.998
82190W        W46398  38.513  20.696   3.810
82191W        W46399   4.756   8.264   0.442
82192W        W46400  33.911  15.238   1.306
82193W        W46401  34.031  12.708  10.908
82194W        W46402  22.080   6.795   2.197
82195W        W46403   5.779  42.882  12.092
82196W        W46404  23.057  12.811   3.322
82197W        W46405  29.450  44.999   3.242
82198W        W46406  37.938  37.451   0.860
82199W        W46407   3.241  36.469   1.268
82200W        W46408  22.632   5.239   1.850
82201W        W46409   1.356  39.945   2.350
82202W        W46410   9.679   8.783   1.851
82203W        W46411   8.837  42.975   2.822
82204W        W46412   1.429  44.404   2.889
82205W        W46413  19.611  14.231  12.018
82206W        W46414  26.171  40.500  13.441
82207W        W46415  20.261  13.139   4.282
82208W        W46416   4.273   5.736  12.882
82209W        W46417  12.215  29.132   0.431
82210W        W46418  28.969   5.298  13.341
82211W        W46419  39.945  13.820   3.339
82212W        W46420  18.700  31.420   2.815
82213W        W46421  29.544  21.581   4.262
82214W        W46422  43.511  19.096   2.402
82215W        W46423   2.346  22.719  12.848
82216W        W46424   2.857  36.089  11.538
82217W        W46425  16.748  23.163   1.761
82218W        W46426  38.868  41.958   0.379
82219W        W46427  37.902  44.387  14.023
82220W        W46428  29.638  18.265   2.900
82221W        W46429   1.383  28.674   5.214
82222W        W46430  25.106  41.902  14.805
82223W        W46431  33.539  31.606   0.482
82224W        W46432  29.929   9.262   1.386
82225W        W46433  19.204  36.933  12.431
82226W        W46434  22.068   7.896   1.261
82227W        W46435  42.370  20.682  11.920
82228W        W46436  30.556  12.764   4.673
82229W        W46437  20.232  39.319  14.950
82230W        W46438  11.233  22.019  11.968
82231W        W46439  14.815  42.354   1.319
82232W        W46440  38.048  16.717  13.049
82233W        W46441  42.295  18.127  11.042
82234W        W46442   1.259   7.867  13.944
82235W        W46443  13.751   9.666  13.993
82236W        W46444   9.774  15.271  13.956
82237W        W46445  21.139  31.478   4.135
82238W        W46446  19.050   2.405  10.584
82239W        W46447   8.846  27.586   2.408
82240W        W46448  23.989  30.126  11.098
82241W        W46449  36.046  38.431  13.449
82242W        W46450  30.061  11.261  13.023
82243W        W46451  11.344  34.514  12.519
82244W        W46452  30.082  36.045  11.539
82245W        W46453  14.310  20.761  11.895
82246W        W46454  29.986  33.002  10.407
82247W        W46455  19.222  12.155  10.944
82248W        W46456  23.534  16.078  10.492
82249W        W46457  42.490  36.512  13.028
82250W        W46458  43.462  15.818  11.579
82251W        W46459  44.850   6.381   3.222
82252W        W46460   7.904  24.610  12.487
82253W        W46461  42.403  16.630   1.376
82254W        W46462  24.543   9.837   0.270
82255W        W46463  22.689  15.617  12.047
82256W        W46464   5.323   7.758   4.710
82257W        W46465   2.314   5.239   0.739
82258W        W46466  14.775   6.848  14.306
82259W        W46467  39.940  36.876   0.862
82260W        W46468  39.890  39.947  14.438
82261W        W46469  43.474  42.454   2.708
82262W        W46470  30.028  40.850  11.043
82263W        W46471  37.417  21.712  14.817
82264W        W46472  42.430  30.567   0.322
82265W        W46473   1.958  34.422   3.271
82266W        W46474  35.589  44.324  13.350
82267W        W46475  24.993  23.071  13.024
82268W        W46476  16.568   3.278   3.368
82269W        W46477  24.158   6.830   3.304
82270W        W46478  24.091   1.301  13.374
82271W        W46479  13.168  32.574  10.543
82272W        W46480  38.906   4.272   4.263
82273W        W46481  32.511   6.749  11.371
82274W        W46482  25.170  22.032   0.906
82275W        W46483  16.727  19.758  11.038
82276W        W46484  38.557  36.852  14.012
82277W        W46485  30.427  30.462   3.194
82278W        W46486  37.831  35.097   3.172
82279W        W46487  17.580  39.896  11.042
82280W        W46488   0.972  35.984  13.046
82281W        W46489  30.035  22.172  10.570
82282W        W46490  25.545  19.052  11.070
82283W        W46491  10.772  43.851  13.369
82284W        W46492   3.298  14.273   4.761
82285W        W46493  25.675   2.745  12.429
82286W        W46494  36.049   4.754  11.564
82287W        W46495  25.064  41.933   3.360
82288W        W46496  25.527   0.854   1.854
82289W        W46497  30.515   2.949   3.317
82290W        W46498  37.439  35.525   0.314
82291W        W46499  12.163  18.713   3.207
82292W        W46500  14.116  33.955  12.951
82293W        W46501   6.246  17.273  10.634
82294W        W46502  41.888  11.634  10.103
82295W        W46503  26.970  34.504  13.897
82296W        W46504  20.195  31.571   3.296
82297W        W46505   3.386   5.696  12.046
82298W        W46506  28.523  20.638   3.637
82299W        W46507  11.323  33.482   3.744
82300W        W46508  19.091   3.852  12.997
82301W        W46509   8.822   5.347  12.083
82302W        W46510  24.103  23.230  11.397
82303W        W46511   5.262   7.817   2.253
82304W        W46512   8.870  40.465   2.179
82305W        W46513   1.325  15.092   2.341
82306W        W46514  14.791  30.613  10.914
82307W        W46515   5.429  13.322   3.368
82308W        W46516  14.739  36.077   0.424
82309W        W46517   8.749   0.476   3.157
82310W        W46518  32.038  30.563   1.828
82311W        W46519  35.523  24.616   2.825
82312W        W46520  36.481  27.572   4.324
82313W        W46521  16.587  20.719  14.011
82314W        W46522   9.882  43.004  10.429
82315W        W46523   3.722  34.949  14.977
82316W        W46524  37.464   9.156  12.998
82317W        W46525   0.373  13.696  13.806
82318W        W46526   7.887  12.799   9.523
82319W        W46527  40.936  36.478   3.252
82320W        W46528   9.683  29.035   0.291
82321W        W46529  36.511  28.670  12.023
82322W        W46530   4.728  29.984   2.771
82323W        W46531  12.185   3.772  11.030
82324W        W46532  37.063   2.738  11.953
82325W        W46533  41.864  15.149  14.484
82326W        W46534  11.368  43.329  11.515
82327W        W46535  15.692  30.528  11.119
82328W        W46536  29.430  44.364   3.309
82329W        W46537   2.726  44.855  14.475
82330W        W46538  44.817   2.282   2.674
82331W        W46539   4.244  25.085  12.510
82332W        W46540  34.027  31.567  13.390
82333W        W46541  22.048  30.526  12.532
82334W        W46542  19.738   6.704   1.748
82335W        W46543  20.769   4.897   4.697
82336W        W46544  15.754   7.892   5.234
82337W        W46545  39.844   6.732   3.277
82338W        W46546  41.903   6.836  10.575
82339W        W46547  34.985  18.281   4.121
82340W        W46548   3.879  20.122   2.327
82341W        W46549  25.170  23.604   4.804
82342W        W46550  22.563   4.368  11.895
82343W        W46551  37.872  38.534  13.859
82344W        W46552   8.346  26.684  12.474
82345W        W46553  18.683   9.776  14.390
82346W        W46554  20.625  28.099  12.345
82347W        W46555  36.947  26.687   4.281
82348W        W46556  22.110  39.909  10.423
82349W        W46557  34.051  15.224   1.808
82350W        W46558  25.064  40.820   0.802
82351W        W46559   4.365  14.738  11.531
82352W        W46560  27.152  33.002   2.318
82353W        W46561  26.040  33.050  11.572
82354W        W46562   3.837   9.212  14.022
82355W        W46563  14.834  20.577  14.350
82356W        W46564   3.330  28.543  13.844
82357W        W46565  44.895  36.349  10.589
82358W        W46566  11.296  36.992   3.746
82359W        W46567  38.845  25.619  14.809
82360W        W46568  13.644  35.502  11.109
82361W        W46569  30.047  32.091   2.238
82362W        W46570  25.165  40.052  14.761
82363W        W46571  29.107  37.064   0.345
82364W        W46572  43.310   7.203  10.429
82365W        W46573   2.347  41.927  11.434
82366W        W46574  26.519  43.993   0.827
82367W        W46575   6.814  39.812  12.577
82368W        W46576   2.384  15.258  12.466
82369W        W46577   0.365  29.448   2.682
82370W        W46578   5.797  35.477   3.198
82371W        W46579  13.839  38.390  14.339
82372W        W46580  37.895   6.907  12.095
82373W        W46581  40.512  25.540   2.390
82374W        W46582  43.780  36.393   0.447
82375W        W46583  22.526  28.564  13.004
82376W        W46584  17.121  21.238   0.244
82377W        W46585  24.708  27.608   1.412
82378W        W46586  22.199  39.934  13.423
82379W        W46587  21.546  18.597  14.276
82380W        W46588  22.241  20.736  14.342
82381W        W46589  17.756  38.858  12.462
82382W        W46590  40.377  24.099   2.339
82383W        W46591  42.335  25.990   2.276
82384W        W46592  22.998  11.726   2.881
82385W        W46593  34.496  10.720  10.582
82386W        W46594  24.977  24.483   3.156
82387W        W46595  12.174  16.108  10.953
82388W        W46596  37.422  10.669  14.967
82389W        W46597   3.286   0.439  10.556
82390W        W46598  22.598   6.258  14.468
82391W        W46599   2.836   0.810  11.120
82392W        W46600  14.821  31.953  12.960
82393W        W46601  15.102   1.302  13.534
82394W        W46602   2.943  19.590   1.791
82395W        W46603  19.167   4.849   1.879
82396W        W46604  13.318  38.335   0.806
82397W        W46605  25.962   2.362   0.456
82398W        W46606  37.345  12.764  13.319
82399W        W46607  43.364  21.220   3.657
82400W        W46608  20.080  19.682   0.418
82401W        W46609   7.716   9.337  10.419
82402W        W46610  36.910  36.934   1.396
82403W        W46611  38.995  16.252  12.912
82404W        W46612  12.174  13.840   1.820
82405W        W46613  29.461   7.870  10.594
82406W        W46614   5.889  23.604  11.891
82407W        W46615   1.800  41.879   2.662
82408W        W46616   4.873   9.163   2.369
82409W        W46617   4.776  21.236   1.774
82410W        W46618  31.460  33.388  14.809
82411W        W46619  21.030   7.394   3.300
82412W        W46620  27.574  33.598  12.341
82413W        W46621  32.458  27.582   4.217
82414W        W46622  16.652  24.191  11.990
82415W        W46623  39.360  22.735   2.834
82416W        W46624   4.256  31.913   1.275
82417W        W46625  43.487   2.957  11.520
82418W        W46626  28.612  36.863  12.989
82419W        W46627  32.493  19.588  12.420
82420W        W46628  16.799  42.973  11.509
82421W        W46629  39.909  16.158  12.545
82422W        W46630  33.085  31.091  13.051
82423W        W46631   1.365  27.674   1.892
82424W        W46632  21.261  41.390  11.387
82425W        W46633  39.039  27.149   5.244
82426W        W46634  32.048  19.058   1.277
82427W        W46635  25.714  31.997  11.528
82428W        W46636  31.517  40.525  12.966
82429W        W46637  15.608   1.321   4.630
82430W        W46638  36.546  36.962   4.124
82431W        W46639  18.128  19.764   2.753
82432W        W46640   8.209  14.263   4.323
82433W        W46641  31.607   7.828  10.435
82434W        W46642  28.171   6.818  12.384
82435W        W46643  23.118  33.449  11.005
82436W        W46644   4.733  36.845  11.475
82437W        W46645   7.886  25.041   4.286
82438W        W46646  29.092   7.413  13.943
82439W        W46647  20.064  39.031  10.889
82440W        W46648  24.091  26.457  11.406
82441W        W46649  13.827  41.876   1.319
82442W        W46650  13.802   6.426   0.948
82443W        W46651   5.330  37.405  13.908
82444W        W46652   5.843  16.243  12.874
82445W        W46653  25.201   8.321   1.895
82446W        W46654   0.849  29.529   9.520
82447W        W46655  25.591  14.823   2.328
82448W        W46656  41.847  43.976   3.369
82449W        W46657   1.927  38.565   2.312
82450W        W46658  27.572  11.725   4.324
82451W        W46659  10.198  17.798   2.892
82452W        W46660  13.212  17.710   2.191
82453W        W46661  43.345   6.264   0.943
82454W        W46662  26.524   2.792   1.449
82455W        W46663  15.727  22.045  12.493
82456W        W46664  17.642  34.898   2.326
82457W        W46665  41.366  21.539   0.775
82458W        W46666   2.954  15.654   4.320
82459W        W46667  43.440  12.142  13.008
82460W        W46668  32.018  39.560   4.836
82461W        W46669  41.792  22.636  11.430
82462W        W46670  26.011  13.172  12.894
82463W        W46671  28.067  12.725   0.816
82464W        W46672  16.296  37.856   4.154
82465W        W46673  37.511  38.421  14.345
82466W        W46674   8.752   9.336   2.361
82467W        W46675  12.831  29.997   1.376
82468W        W46676  29.062  41.412   3.715
82469W        W46677  25.080  33.510  14.893
82470W        W46678   4.233   9.371  14.469
82471W        W46679  29.061  24.152   1.914
82472W        W46680  24.573  43.474   2.715
82473W        W46681  40.366  29.034   4.317
82474W        W46682  29.045  28.132  13.458
82475W        W46683  10.778  24.147   1.723
82476W        W46684   4.336  40.898  12.559
82477W        W46685  28.471   2.398   1.918
82478W        W46686  31.479  11.755   3.249
82479W        W46687  31.922  24.605   0.961
82480W        W46688   2.432   0.941  13.039
82481W        W46689   4.363   9.157  14.863
82482W        W46690  39.417  12.360   3.296
82483W        W46691  35.877  35.877  10.906
82484W        W46692  21.583  42.287   0.942
82485W        W46693  18.187  28.949   3.183
82486W        W46694  21.548  38.828   3.818
82487W        W46695   0.430  43.831   2.367
82488W        W46696  17.770  20.193  12.449
82489W        W46697  40.390  27.568  11.023
82490W        W46698  32.626  36.909   2.761
82491W        W46699   3.401  21.066  12.010
82492W        W46700  10.152   7.316  10.427
82493W        W46701  38.376  15.327  10.551
82494W        W46702  22.122  13.192   2.745
82495W        W46703  30.987  39.973   0.806
82496W        W46704  10.322  11.228  11.904
82497W        W46705  13.747   8.807   2.706
82498W        W46706  11.736   2.242   0.319
82499W        W46707   5.367  18.201  13.876
82500W        W46708  13.775  16.232  12.025
82501W        W46709  30.156  24.717  13.958
82502W        W46710   8.681   3.238   1.810
82503W        W46711  19.147  13.330   4.130
82504W        W46712  30.569  16.604  13.409
82505W        W46713  14.333  13.826   0.785
82506W        W46714   3.950   0.850  13.479
82507W        W46715   6.762  34.987   4.612
82508W        W46716   9.723  37.479   2.218
82509W        W46717   0.467  16.631   2.894
82510W        W46718  20.031  41.417   4.250
82511W        W46719  34.975  13.605   3.712
82512W        W46720  22.249  10.650   1.881
82513W        W46721  38.542  39.435   2.729
82514W        W46722   3.936  41.448   0.477
82515W        W46723  14.604  38.923   4.627
82516W        W46724  13.719  23.148  13.417
82517W        W46725  41.004  21.114   0.932
82518W        W46726  43.426   3.761   3.715
82519W        W46727   8.782  28.648  11.566
82520W        W46728  21.033  37.968   3.194
82521W        W46729  44.926  24.206   0.956
82522W        W46730  37.429   3.937  13.500
82523W        W46731  38.075  43.441  11.413
82524W        W46732  13.327   4.716  14.791
82525W        W46733   4.227  36.059   3.746
82526W        W46734  32.032  24.593   2.689
82527W        W46735  12.815  34.111   3.780
82528W        W46736   1.966  37.987   1.720
82529W        W46737   8.194  14.277   3.783
82530W        W46738  13.749  12.141  14.913
82531W        W46739  30.600  18.576   3.316
82532W        W46740  21.243  44.463   4.118
82533W        W46741  12.349   1.818   4.353
82534W        W46742   9.380  38.387  14.921
82535W        W46743  27.570   5.412   3.277
82536W        W46744  19.585   6.841   3.828
82537W        W46745  27.151   1.944   0.916
82538W        W46746  31.148  43.901   3.814
82539W        W46747   3.853   8.676   1.796
82540W        W46748   7.181  43.787  11.040
82541W        W46749  28.635   4.833  11.587
82542W        W46750  20.037  13.784  10.594
82543W        W46751   7.877  38.372  12.508
82544W        W46752  18.573  29.103   4.268
82545W        W46753   8.226   2.269  14.324
82546W        W46754   8.225  33.912  11.437
82547W        W46755  39.504  30.431   1.219
82548W        W46756  39.427   8.371  14.458
82549W        W46757  18.178  32.983   4.234
82550W        W46758  40.339  33.621  14.827
82551W        W46759  42.295  15.276   2.666
82552W        W46760  33.886  12.779   2.245
82553W        W46761  27.501  19.566  14.956
82554W        W46762   8.897   7.895   3.847
82555W        W46763  32.929  27.529   3.338
82556W        W46764   2.732   2.299   1.391
82557W        W46765  20.567  23.652  12.500
82558W        W46766  22.676   2.824   0.923
82559W        W46767  20.648   1.380  14.462
82560W        W46768  37.397   5.817  12.377
82561W        W46769  30.021   4.899  12.455
82562W        W46770  28.444  28.653  12.421
82563W        W46771  30.420  16.239   4.333
82564W        W46772  24.500  11.140   4.353
82565W        W46773  32.120  14.128  11.079
82566W        W46774   4.795   1.768   4.725
82567W        W46775   9.868  32.919  12.447
82568W        W46776  34.941   8.802   1.711
82569W        W46777   3.799  16.168   4.329
82570W        W46778  13.703  39.829   3.729
82571W        W46779  36.502   9.213   1.338
82572W        W46780  33.976  13.325   0.457
82573W        W46781  35.546  40.041  14.397
82574W        W46782  15.234  16.571   1.266
82575W        W46783  16.204  35.897  10.540
82576W        W46784   0.948  36.470   0.365
82577W        W46785  10.738  14.772   2.312
82578W        W46786  31.630  16.144   1.392
82579W        W46787  12.635   3.340  12.384
82580W        W46788  16.597  23.597   3.630
82581W        W46789  19.552  43.461   4.351
82582W        W46790   6.328  35.032   2.204
82583W        W46791  19.147   5.322   1.864
82584W        W46792  36.510  41.340  13.025
82585W        W46793  30.455  17.777   3.759
82586W        W46794  40.311  36.071   4.739
82587W        W46795   1.420  25.139  14.936
82588W        W46796   6.779   8.816   1.767
82589W        W46797  33.053  20.544   0.255
82590W        W46798   7.818  35.934   1.698
82591W        W46799  35.549  12.332   2.674
82592W        W46800  17.559  18.772   2.704
82593W        W46801   9.385  10.718   2.778
82594W        W46802  17.227   9.342   4.647
82595W        W46803  18.122  11.780   0.848
82596W        W46804  23.053  37.488   4.208
82597W        W46805  44.896  36.964   4.169
82598W        W46806  36.949  20.074  10.538
82599W        W46807  12.648  12.226  14.295
82600W        W46808   3.913  15.649  13.835
82601W        W46809  30.576   7.686   5.129
82602W        W46810  34.438  14.298  14.995
82603W        W46811  37.913  17.770   4.322
82604W        W46812  19.568   4.745   2.400
82605W        W46813  25.527  28.598   4.705
82606W        W46814   5.731  37.340  12.905
82607W        W46815  13.836  13.699  10.489
82608W        W46816  43.952  14.281   2.274
82609W        W46817  40.384   4.448  11.598
82610W        W46818   4.772  35.594  12.438
82611W        W46819  16.744  15.243   1.380
82612W        W46820  43.500  17.134   4.674
82613W        W46821  21.255  17.729   2.358
82614W        W46822  14.655  13.144  12.945
82615W        W46823  27.060  33.434  10.917
82616W        W46824  23.681  13.657   4.796
82617W        W46825  14.706  44.809   3.222
82618W        W46826  23.530  42.454   1.363
82619W        W46827  10.144  31.544   1.874
82620W        W46828  39.482   1.381  10.147
82621W        W46829  17.668  35.407   1.355
82622W        W46830  12.631  30.652  14.907
82623W        W46831  32.924  23.083   2.256
82624W        W46832   3.949  11.850  13.032
82625W        W46833  15.158  15.187   4.782
82626W        W46834  25.113   0.756   2.370
82627W        W46835  20.041  33.523   2.338
82628W        W46836  40.499  10.183   2.766
82629W        W46837  14.281   8.290  12.073
82630W        W46838  34.886  22.659   2.275
82631W        W46839   2.370  17.144  14.874
82632W        W46840  39.416  23.139   0.909
82633W        W46841  39.907  37.979   0.748
82634W        W46842  33.397  31.063  14.284
82635W        W46843  31.626  21.751  14.291
82636W        W46844  38.828   2.355  12.376
82637W        W46845   1.314  43.399   3.252
82638W        W46846   3.427   9.225  12.471
82639W        W46847  14.110  37.447   0.849
82640W        W46848  43.312  34.572  12.875
82641W        W46849  38.494  35.046   1.450
82642W        W46850  44.797   2.923  13.036
82643W        W46851  12.135  33.031   2.696
82644W        W46852  18.218  42.466  11.601
82645W        W46853  26.122   1.969   3.801
82646W        W46854  32.927   4.839   4.254
82647W        W46855  43.305  28.147   1.788
82648W        W46856  14.686  21.705   1.924
82649W        W46857  20.236   1.313   4.255
82650W        W46858   6.377  41.031   4.355
82651W        W46859  42.395   1.355  11.111
82652W        W46860  12.701  20.049  11.912
82653W        W46861   6.278   7.665  11.969
82654W        W46862   0.272  26.592   3.734
82655W        W46863  13.833   2.934  14.459
82656W        W46864   5.832  10.784  13.356
82657W        W46865  26.983  43.988   4.612
82658W        W46866  20.170   4.856  13.890
82659W        W46867  15.797  15.780  13.511
82660W        W46868  37.517  41.857  12.872
82661W        W46869  21.525  44.361  13.921
82662W        W46870  30.415  20.111  12.093
82663W        W46871  22.153  36.372   2.804
82664W        W46872  11.685  34.503  12.001
82665W        W46873  26.482  43.962   4.705
82666W        W46874  22.040   2.940  11.602
82667W        W46875  30.955   8.371  11.975
82668W        W46876  20.523  14.245   0.433
82669W        W46877  13.347   7.707  14.888
82670W        W46878  14.640  14.694  10.540
82671W        W46879  22.713  10.781   4.741
82672W        W46880  15.587  30.065   1.818
82673W        W46881  15.202  27.998   2.384
82674W        W46882  23.670  31.592  10.946
82675W        W46883  32.467  10.762  14.480
82676W        W46884  30.151  24.676  12.068
82677W        W46885   9.291  11.691  14.309
82678W        W46886  22.537  32.127  12.374
82679W        W46887  13.286  26.010  13.355
82680W        W46888  19.694  17.615  14.793
82681W        W46889   1.375  34.010   5.139
82682W        W46890   3.368   0.447   2.680
82683W        W46891  15.292  38.548   2.279
82684W        W46892  18.552  31.417  14.495
82685W        W46893  23.591  39.933  14.998
82686W        W46894  12.737   7.778  10.977
82687W        W46895  21.211  34.082  10.612
82688W        W46896  16.237   5.220   1.340
82689W        W46897  40.519   0.912   1.880
82690W        W46898  43.407  44.321   0.929
82691W        W46899  21.514  34.027   3.261
82692W        W46900  32.537  30.590  11.426
82693W        W46901  42.351   6.873  13.850
82694W        W46902  30.988  39.022   1.392
82695W        W46903  37.880  21.221   2.711
82696W        W46904   8.386  25.625  11.100
82697W        W46905  27.172  44.876  10.589
82698W        W46906  34.468  12.777  13.862
82699W        W46907  23.226  43.911   0.949
82700W        W46908   8.661   7.349  12.352
82701W        W46909  37.554   0.795   1.448
82702W        W46910  17.717  15.223   4.696
82703W        W46911  18.708  16.294  10.931
82704W        W46912  41.913   0.406  13.809
82705W        W46913  24.661  32.913   1.843
82706W        W46914   5.804   8.886   0.315
82707W        W46915  40.912  15.116  12.955
82708W        W46916  27.196  33.589   0.787
82709W        W46917  16.622  20.556   3.825
82710W        W46918  38.551   5.865   3.659
82711W        W46919   8.656   9.180  14.383
82712W        W46920  25.015   6.196  13.346
82713W        W46921  32.108  34.933   2.840
82714W        W46922  21.256  20.568  13.424
82715W        W46923  16.700  23.004  10.626
82716W        W46924   0.914   2.255   0.751
82717W        W46925  40.416  21.717   0.790
82718W        W46926  44.958  43.409  10.912
82719W        W46927   2.880  32.908  10.611
82720W        W46928  41.390  34.961  10.461
82721W        W46929  15.290  21.664  13.933
82722W        W46930  12.165  21.068  13.382
82723W        W46931  30.576  38.931  12.562
82724W        W46932  31.970  39.868  12.958
82725W        W46933  16.647   4.443  14.779
82726W        W46934  28.995   9.388   3.310
82727W        W46935   2.375  44.986  11.049
82728W        W46936  42.410  39.054   2.786
82729W        W46937   4.241   9.327  12.472
82730W        W46938  39.929  14.614  10.426
82731W        W46939  28.173  17.105   0.450
82732W        W46940  24.484   1.859  14.833
82733W        W46941   8.276  22.578  10.625
82734W        W46942  22.090  16.590   0.805
82735W        W46943  36.892  37.434  11.408
82736W        W46944   1.911   2.263  10.890
82737W        W46945  35.006  36.429  13.980
82738W        W46946   1.815  15.790   3.697
82739W        W46947  16.651  25.144   3.332
82740W        W46948  41.486  44.270  13.942
82741W        W46949   8.785  38.490  14.366
82742W        W46950  11.704  41.372   2.308
82743W        W46951  28.973  12.652  14.797
82744W        W46952  27.567   9.163   2.255
82745W        W46953   5.256  35.099   2.277
82746W        W46954  31.463  38.986   2.403
82747W        W46955  30.628   3.237  10.418
82748W        W46956  18.119   7.816   1.742
82749W        W46957  27.661   2.898   0.291
82750W        W46958   9.738  19.577  11.414
82751W        W46959   7.729  18.616  14.971
82752W        W46960   5.225  38.892  12.939
82753W        W46961  40.355   9.882   3.195
82754W        W46962   2.943  12.128   0.855
82755W        W46963  13.753  42.894  14.338
82756W        W46964   0.799  40.309   0.802
82757W        W46965   8.214  42.955  13.879
82758W        W46966   9.238  22.125   1.812
82759W        W46967   8.666  42.803   1.728
82760W        W46968  43.412  25.642  14.363
82761W        W46969  30.636  34.057   3.242
82762W        W46970   9.677  26.538  10.607
82763W        W46971  10.750  38.861  14.370
82764W        W46972  36.964   2.302  14.343
82765W        W46973  29.442  42.857  13.436
82766W        W46974   9.784  24.654  14.402
82767W        W46975  14.106  39.977   1.388
82768W        W46976  28.939  22.584  12.045
82769W        W46977  28.135  41.293   5.321
82770W        W46978  18.555   8.251  14.460
82771W        W46979   6.350  34.989   0.293
82772W        W46980  17.136  18.154   2.897
82773W        W46981  43.809   2.851   0.864
82774W        W46982  19.679  38.040  11.489
82775W        W46983  43.279  14.165   1.874
82776W        W46984  37.860  28.544   2.204
82777W        W46985  39.859  38.061   1.732
82778W        W46986  26.623   1.353   3.698
82779W        W46987  12.680   4.212  12.843
82780W        W46988  34.111   5.854   1.292
82781W        W46989  32.067  37.340   3.188
82782W        W46990  12.217  19.058  13.931
82783W        W46991  12.226  36.348  13.977
82784W        W46992  19.274  14.333  13.825
82785W        W46993  22.252   8.200   3.322
82786W        W46994  36.066  44.826  11.583
82787W        W46995   6.387  38.865   3.750
82788W        W46996  17.676  16.199   0.912
82789W        W46997  21.264  25.215  11.898
82790W        W46998  11.157  39.938  11.388
82791W        W46999  17.218  28.526  14.312
82792W        W47000  28.087  29.576   4.676
82793W        W47001  35.872   6.346   4.239
82794W        W47002   2.275  12.238   1.365
82795W        W47003  42.468  12.257   4.218
82796W        W47004  14.163  12.239   1.227
82797W        W47005  13.648  29.106   0.749
82798W        W47006  11.236  23.035   2.791
82799W        W47007  21.605  19.074  14.825
82800W        W47008  15.163  14.660   4.750
82801W        W47009  37.957   8.837  11.089
82802W        W47010  24.203  34.408   2.385
82803W        W47011  19.227  36.861  10.608
82804W        W47012  37.512  14.813   3.345
82805W        W47013  19.213   0.281  14.996
82806W        W47014  30.519   3.423   4.171
82807W        W47015   5.354  29.027   3.688
82808W        W47016  29.055  15.714   1.224
82809W        W47017  34.074  40.865  12.096
82810W        W47018   8.750  44.274   0.906
82811W        W47019  30.021  14.701  13.865
82812W        W47020  32.526  27.160  11.019
82813W        W47021   4.862   5.415   4.664
82814W        W47022  44.778  25.709   4.143
82815W        W47023  22.505   2.851  11.546
82816W        W47024  10.253  14.732   1.737
82817W        W47025  19.667   8.797  12.562
82818W        W47026  40.526  26.468  13.936
82819W        W47027  21.742  32.943   0.779
82820W        W47028  28.096  13.658   1.794
82821W        W47029  13.315  14.798  12.407
82822W        W47030  39.461  21.066   0.450
82823W        W47031   2.855   4.796   5.118
82824W        W47032  17.603  17.563  13.979
82825W        W47033  34.105   1.361  14.906
82826W        W47034  23.690   0.338   0.421
82827W        W47035  15.670  39.058  14.886
82828W        W47036   5.807  24.198   1.396
82829W        W47037  21.090  30.159  12.373
82830W        W47038  24.581  15.714  14.923
82831W        W47039   2.424  26.646   4.262
82832W        W47040  19.610  35.966  12.858
82833W        W47041  43.368   5.408   0.271
82834W        W47042  39.449  34.595  12.348
82835W        W47043  34.565  43.316  13.477
82836W        W47044   6.389  18.053   2.839
82837W        W47045  29.014  15.703   0.737
82838W        W47046  34.950  24.713   0.910
82839W        W47047  34.008  44.858   2.318
82840W        W47048  26.518  18.097  14.379
82841W        W47049  42.966  32.616  14.779
82842W        W47050  14.097  38.903   2.861
82843W        W47051   0.953  38.862  12.573
82844W        W47052   7.868   3.742   3.342
82845W        W47053  22.588  35.975  12.540
82846W        W47054  37.070  33.929  13.000
82847W        W47055  43.401  27.105   3.248
82848W        W47056  20.659  10.838  14.910
82849W        W47057  16.723  19.685  11.462
82850W        W47058  22.239  24.100   2.281
82851W        W47059  37.446   9.366   1.375
82852W        W47060  20.529   1.836  11.427
82853W        W47061   2.778  14.297  12.482
82854W        W47062  26.501  25.204  11.949
82855W        W47063  25.147  30.609   1.859
82856W        W47064  23.650  14.709  11.404
82857W        W47065  22.569  39.365   4.211
82858W        W47066   9.670   0.355   0.302
82859W        W47067   2.408   9.188  11.999
82860W        W47068   0.279  29.960   1.253
82861W        W47069  36.487   3.792   4.746
82862W        W47070  13.747  13.599  11.043
82863W        W47071  44.430  17.627   3.820
82864W        W47072  19.681   2.415   5.240
82865W        W47073  23.688  40.957  12.036
82866W        W47074   3.811  27.066  12.078
82867W        W47075  30.929  13.320  13.466
82868W        W47076  32.019  33.085   0.923
82869W        W47077   4.794   9.272  14.504
82870W        W47078  12.224  25.676   0.426
82871W        W47079  17.632  14.180   1.335
82872W        W47080  16.189  12.760  11.612
82873W        W47081  29.973  35.464  14.415
82874W        W47082  28.046  12.200  11.024
82875W        W47083   3.751   9.709   1.900
82876W        W47084  15.638  18.133  11.896
82877W        W47085  25.094  10.190  14.344
82878W        W47086   7.866  42.958   0.917
82879W        W47087  38.845   1.938   4.837
82880W        W47088  41.845  35.872   2.883
82881W        W47089  36.888  15.757   3.715
82882W        W47090   2.741  26.149   3.636
82883W        W47091   0.450  42.022  12.874
82884W        W47092  43.309  34.609   3.344
82885W        W47093   1.962  36.034   2.815
82886W        W47094  18.268  13.313   1.760
82887W        W47095  26.077  16.080  14.390
82888W        W47096   2.913  33.980  10.958
82889W        W47097  32.473  26.683   0.299
82890W        W47098   5.713  44.867   0.364
82891W        W47099  35.073  24.042  10.588
82892W        W47100  20.633   7.799  13.971
82893W        W47101  34.091  40.948  10.410
82894W        W47102  42.007  39.436  12.954
82895W        W47103  31.938  11.808   3.270
82896W        W47104  28.516  27.184  11.000
82897W        W47105   1.926  23.665   1.229
82898W        W47106   8.744   3.784   1.695
82899W        W47107  30.420  16.134   5.650
82900W        W47108  44.410   0.824   4.801
82901W        W47109  12.306  17.178   0.357
82902W        W47110  38.929  31.515  11.889
82903W        W47111  40.529  41.430   1.727
82904W        W47112   5.340  33.450   0.728
82905W        W47113  20.630  20.094   2.375
82906W        W47114   0.895  33.046   3.169
82907W        W47115  42.006  36.568  13.383
82908W        W47116  44.435   9.872  13.326
82909W        W47117   3.736  37.943  11.035
82910W        W47118  10.217  43.387  10.143
82911W        W47119  29.926  18.292  14.911
82912W        W47120  27.989  13.170  12.499
82913W        W47121   9.244   6.291   3.735
82914W        W47122   7.691  20.747   2.752
82915W        W47123  42.809   9.873   3.660
82916W        W47124  39.911  44.850  11.888
82917W        W47125  44.460  23.663   2.409
82918W        W47126  17.674  17.568  14.446
82919W        W47127  37.916  41.359   2.800
82920W        W47128  35.100  28.630  13.791
82921W        W47129   2.266  21.554  12.870
82922W        W47130   9.266   9.660   0.397
82923W        W47131  44.294  39.856  12.373
82924W        W47132  27.020   5.898   1.781
82925W        W47133  38.042  19.636  10.103
82926W        W47134  21.664  20.051   9.436
82927W        W47135  30.112  20.739   4.322
82928W        W47136  17.184  31.510  10.452
82929W        W47137  40.050  20.730   0.806
82930W        W47138  11.322  15.651   2.703
82931W        W47139   2.458  34.613   9.463
82932W        W47140  31.937   6.270   5.288
82933W        W47141  31.632  43.493  13.438
82934W        W47142  31.102   6.306   4.824
82935W        W47143  32.434  24.478  14.476
82936W        W47144  31.040   2.349   4.709
82937W        W47145  37.533  33.530   0.313
82938W        W47146  44.799  43.834   1.316
82939W        W47147  36.989  44.281  10.614
82940W        W47148  22.027  31.116   0.927
82941W        W47149   6.918  35.879  12.429
82942W        W47150  27.976  10.851  11.055
82943W        W47151  15.740  26.523   0.257
82944W        W47152   7.827   1.789   4.333
82945W        W47153  21.560  23.701  14.304
82946W        W47154   2.429  24.513  14.977
82947W        W47155  10.239  23.723  13.414
82948W        W47156  20.768  38.401   2.691
82949W        W47157   5.741  16.772  12.437
82950W        W47158  18.778  35.869   3.194
82951W        W47159  23.984  10.722  14.773
82952W        W47160  32.073  21.149   2.300
82953W        W47161  25.994  39.377  14.333
82954W        W47162  42.418  20.097   3.653
82955W        W47163   6.724  31.133   1.816
82956W        W47164  26.689  43.869  13.858
82957W        W47165   8.729  14.600  13.963
82958W        W47166  15.693  38.420  11.953
82959W        W47167  31.599   6.186  12.860
82960W        W47168  18.067  13.348  11.916
82961W        W47169  14.754  41.803   1.910
82962W        W47170  17.283  24.596  11.042
82963W        W47171  20.588  37.922  14.987
82964W        W47172  36.872  39.017  12.053
82965W        W47173  24.511  30.038   1.890
82966W        W47174  35.029  40.325  10.576
82967W        W47175  43.001  24.643   3.647
82968W        W47176  13.803  19.286   0.855
82969W        W47177  37.046  23.240   3.837
82970W        W47178  21.058   6.795   1.888
82971W        W47179  19.706   5.255  13.529
82972W        W47180  19.100   3.745  11.382
82973W        W47181  41.371  23.528   2.286
82974W        W47182   6.332  40.525   3.820
82975W        W47183  23.722  18.628  14.776
82976W        W47184  28.175  16.240   4.775
82977W        W47185  23.561  36.067   0.957
82978W        W47186  25.058   2.892   0.840
82979W        W47187  11.768   8.807   1.816
82980W        W47188  40.033  36.418  13.544
82981W        W47189  24.210   7.376   3.372
82982W        W47190  13.647  42.495   1.907
82983W        W47191  13.717  42.953  12.404
82984W        W47192   1.396   6.206   4.733
82985W        W47193  42.962  33.574   4.275
82986W        W47194  23.096  17.670   9.927
82987W        W47195  32.500  30.043  12.395
82988W        W47196  44.289   1.428  12.440
82989W        W47197  37.059  23.167  13.957
82990W        W47198  27.568  32.519   1.255
82991W        W47199  22.236  35.543  12.419
82992W        W47200  28.538  26.141   0.301
82993W        W47201  39.471  17.683   2.688
82994W        W47202  13.180  34.455  11.574
82995W        W47203  36.439  11.753   2.180
82996W        W47204  40.367  23.109  13.414
82997W        W47205  37.552  26.581   4.188
82998W        W47206  19.118  27.995  13.387
82999W        W47207  30.529  41.416   2.311
83000W        W47208  39.057  20.183   3.740
83001W        W47209  32.126  21.197   1.799
83002W        W47210  36.011  29.490  14.302
83003W        W47211  38.901  39.357   1.881
83004W        W47212  17.581  15.682  12.502
83005W        W47213  42.910   0.324  11.390
83006W        W47214   3.855   6.921  12.430
83007W        W47215  35.013  25.181   4.797
83008W        W47216  40.317  32.098  14.806
83009W        W47217  23.150  19.144  13.890
83010W        W47218  26.468  11.356   3.231
83011W        W47219  10.705  18.195  13.493
83012W        W47220  42.817  28.509  12.013
83013W        W47221  38.962  19.600   3.799
83014W        W47222  31.095  44.813  12.385
83015W        W47223  20.067  43.772  14.421
83016W        W47224  26.968  20.674  11.861
83017W        W47225  18.080  16.577   1.312
83018W        W47226  27.583  36.922   1.857
83019W        W47227  38.859   0.780   2.238
83020W        W47228  32.065  33.970   0.860
83021W        W47229  25.176  31.051   3.772
83022W        W47230   6.295  11.859  13.954
83023W        W47231   4.323  17.121   3.740
83024W        W47232  41.910  14.701   2.795
83025W        W47233  28.006  10.725   1.829
83026W        W47234   2.447  18.214  11.513
83027W        W47235  16.198  43.450   2.282
83028W        W47236  15.103  14.729   3.193
83029W        W47237   3.284   4.447  14.501
83030W        W47238   5.774  17.626   1.845
83031W        W47239  32.610  24.649   2.739
83032W        W47240   0.824  33.394   3.774
83033W        W47241  44.923   3.419  14.923
83034W        W47242  31.915  25.588  12.920
83035W        W47243   1.971  21.700  10.570
83036W        W47244  30.540   8.290   1.710
83037W        W47245  27.168   1.289   3.759
83038W        W47246   1.929  38.956   1.365
83039W        W47247  39.065  12.617   5.283
83040W        W47248  11.704  34.406   3.636
83041W        W47249  24.975  15.220   3.779
83042W        W47250  33.577  34.055  12.424
83043W        W47251   6.776  22.207  14.927
83044W        W47252   6.363  23.005   3.727
83045W        W47253  44.816  31.097  11.438
83046W        W47254  36.843   1.310  13.488
83047W        W47255  29.565  23.613   0.832
83048W        W47256  34.096   8.294  14.920
83049W        W47257  34.372  29.641   2.888
83050W        W47258  34.472  29.046   0.247
83051W        W47259  10.852  11.732  10.987
83052W        W47260  39.431   4.225  14.516
83053W        W47261  42.438  29.590   1.874
83054W        W47262   2.387  14.781   4.706
83055W        W47263   5.904  30.539   4.680
83056W        W47264  25.524  36.449   2.408
83057W        W47265  43.765  13.828   0.955
83058W        W47266  16.709  39.512  14.336
83059W        W47267  10.702  11.653   3.845
83060W        W47268  14.331  13.224  10.428
83061W        W47269   9.727  11.719   9.544
83062W        W47270  11.840   7.272   4.775
83063W        W47271  25.524   2.725   3.777
83064W        W47272  26.626  23.650  14.310
83065W        W47273  24.002  41.430  14.846
83066W        W47274  38.524   9.828  10.996
83067W        W47275   1.968  42.830   2.292
83068W        W47276  20.663  20.597  14.766
83069W        W47277  37.411   5.847  10.916
83070W        W47278  12.755   8.353   4.680
83071W        W47279  42.775  13.783  12.965
83072W        W47280  26.138  21.512  13.927
83073W        W47281  42.018  12.133   4.354
83074W        W47282  41.952  23.710   0.793
83075W        W47283  19.728  27.596  14.347
83076W        W47284  23.684  33.508  14.910
83077W        W47285   2.337  11.142  13.540
83078W        W47286  35.054  10.237  12.872
83079W        W47287  31.124  23.497  13.399
83080W        W47288   2.276  10.259   1.760
83081W        W47289  44.814   7.283   2.413
83082W        W47290   4.285  40.514   4.183
83083W        W47291   8.376   3.848  11.531
83084W        W47292  39.484  35.366   1.856
83085W        W47293  25.974  33.538   0.860
83086W        W47294  35.036  32.103  10.071
83087W        W47295  37.083  16.168  10.475
83088W        W47296  42.389   7.381   0.799
83089W        W47297  34.524  36.584   0.847
83090W        W47298  20.067  41.346  13.845
83091W        W47299  23.220  16.201  10.899
83092W        W47300  13.340   0.264   1.337
83093W        W47301  19.236  33.062  12.377
83094W        W47302  42.425  30.969  11.956
83095W        W47303  11.181  34.079  13.339
83096W        W47304  25.064   0.395   0.385
83097W        W47305  19.082  38.402   3.871
83098W        W47306  17.557  38.554  12.392
83099W        W47307  25.134  13.646  11.100
83100W        W47308  41.003  25.180   0.438
83101W        W47309   3.787  15.715   4.325
83102W        W47310  22.514   7.222   3.195
83103W        W47311  20.112  17.263   3.352
83104W        W47312  28.054   7.261   1.344
83105W        W47313  44.779  23.047   2.244
83106W        W47314  28.572  26.638   3.742
83107W        W47315  24.018  42.991   4.802
83108W        W47316  44.960   4.354   4.759
83109W        W47317  26.533  26.564   2.316
83110W        W47318  20.672  27.463  13.804
83111W        W47319   7.783  39.863  14.905
83112W        W47320  39.991  14.683  11.492
83113W        W47321   5.322  36.965   2.419
83114W        W47322   1.936  17.731   4.664
83115W        W47323   9.838   4.738  11.907
83116W        W47324   1.444  16.292   3.631
83117W        W47325   5.222  34.969   2.669
83118W        W47326  13.173  19.722  11.605
83119W        W47327   7.240  13.696  12.464
83120W        W47328  35.863   7.887  10.930
83121W        W47329  37.999   0.955   0.907
83122W        W47330  32.636  42.022   0.379
83123W        W47331  19.085  21.723   3.220
83124W        W47332  35.962  40.397   3.756
83125W        W47333  39.852   0.427   3.737
83126W        W47334  35.030  18.757  10.986
83127W        W47335  25.547  43.011  13.492
83128W        W47336  20.712   1.328  14.795
83129W        W47337  35.591   0.746   4.655
83130W        W47338   7.342  24.078  12.939
83131W        W47339  20.531  30.078  12.484
83132W        W47340  11.315  16.314  13.838
83133W        W47341   7.840  23.231  10.926
83134W        W47342  22.619  34.982  12.405
83135W        W47343  29.616  27.141   4.691
83136W        W47344  28.563   1.790  13.824
83137W        W47345   6.383  31.480  12.893
83138W        W47346   6.758  14.282  12.525
83139W        W47347   2.258  30.013  14.421
83140W        W47348  43.299  19.553   9.961
83141W        W47349  16.133  15.277   2.335
83142W        W47350  19.190  23.520   0.380
83143W        W47351  26.026  28.171  14.791
83144W        W47352  39.430  20.570  13.497
83145W        W47353  26.169  29.959   1.713
83146W        W47354  36.527  30.970  14.447
83147W        W47355  18.171   6.770  12.506
83148W        W47356   4.443  21.695  12.433
83149W        W47357   2.255   1.878   1.319
83150W        W47358   8.403  41.903   3.206
83151W        W47359  13.117  37.944  10.938
83152W        W47360  13.273   7.181   4.788
83153W        W47361  18.174  43.384  14.452
83154W        W47362  29.072  30.435  12.914
83155W        W47363  42.870   1.380  10.907
83156W        W47364  28.011  15.778   0.870
83157W        W47365  29.168  10.384   0.783
83158W        W47366  20.642  29.959   4.807
83159W        W47367   9.778  43.811  10.441
83160W        W47368  42.854  22.648  14.856
83161W        W47369  10.759  38.461  11.600
83162W        W47370  35.539  30.520  11.486
83163W        W47371  18.623  33.614   3.686
83164W        W47372  36.972  44.862  13.488
83165W        W47373  27.515  33.935  14.024
83166W        W47374  27.035  18.130  11.085
83167W        W47375   0.352  25.582   2.284
83168W        W47376  16.270  13.220   3.351
83169W        W47377  31.925  44.440  12.060
83170W        W47378  17.194  39.845  12.836
83171W        W47379  24.185  25.175   2.340
83172W        W47380  31.085  41.883   3.365
83173W        W47381   1.412  30.437  10.988
83174W        W47382  32.455  35.560   4.211
83175W        W47383  37.848  39.441   1.821
83176W        W47384  10.767  28.557  14.418
83177W        W47385  34.968  41.298  12.569
83178W        W47386  34.478   8.753   0.881
83179W        W47387  24.691  43.875  11.962
83180W        W47388  40.024  30.924  13.937
83181W        W47389  34.379  19.123  12.020
83182W        W47390  14.763  27.475   1.882
83183W        W47391  31.631  25.050  13.968
83184W        W47392   6.748  40.477   0.801
83185W        W47393  42.971  43.861  12.830
83186W        W47394  37.469  22.684  14.446
83187W        W47395   0.339  43.971  13.508
83188W        W47396  24.997  23.665  14.793
83189W        W47397  32.891   1.834   3.659
83190W        W47398  35.377  27.466   4.641
83191W        W47399  11.142   4.710  11.565
83192W        W47400  12.611  29.662   1.695
83193W        W47401  43.944  36.911  12.499
83194W        W47402  28.638  34.420   2.828
83195W        W47403  23.654  41.822   2.761
83196W        W47404  43.283  29.999   2.793
83197W        W47405  18.568   4.922  14.288
83198W        W47406  32.540  32.893  12.886
83199W        W47407  37.519  20.559  11.005
83200W        W47408  12.244  11.141   5.130
83201W        W47409  34.443  14.168   3.796
83202W        W47410  34.062  25.967   0.789
83203W        W47411   6.816   4.707   1.766
83204W        W47412  33.379  21.625   0.847
83205W        W47413  22.524   4.299   2.864
83206W        W47414   5.746  28.486  11.540
83207W        W47415  38.055  43.019   1.867
83208W        W47416  17.193  25.646   1.380
83209W        W47417   7.222  22.600   0.771
83210W        W47418  27.107  37.463  14.479
83211W        W47419  40.305  22.595  13.041
83212W        W47420  36.919  34.027   4.730
83213W        W47421  15.630  12.167  12.079
83214W        W47422  25.062  10.178  11.389
83215W        W47423  35.987  35.383  12.954
83216W        W47424  16.168  44.504   0.417
83217W        W47425   5.687  26.042   1.324
83218W        W47426  25.160  10.657  14.862
83219W        W47427  28.087  15.093  13.422
83220W        W47428  25.685  32.539   4.666
83221W        W47429  44.876  22.699  12.871
83222W        W47430  35.969  39.441  14.028
83223W        W47431   1.403   1.446   0.247
83224W        W47432   2.938  24.192  14.483
83225W        W47433   5.806  39.927  12.532
83226W        W47434  34.044  13.626   1.696
83227W        W47435  34.416  29.456   1.278
83228W        W47436  14.278  39.426  12.904
83229W        W47437  29.631  33.944  11.961
83230W        W47438  43.968  20.552   2.196
83231W        W47439  40.457  12.804  11.108
83232W        W47440   0.277  16.723  11.026
83233W        W47441  10.272  16.793  14.833
83234W        W47442  31.994   1.392  12.464
83235W        W47443   7.389  31.981   0.484
83236W        W47444  39.859  33.386  11.415
83237W        W47445  34.476  33.534   1.412
83238W        W47446   9.161  17.162  11.052
83239W        W47447  32.121  29.638  14.410
83240W        W47448  13.120   1.783  14.988
83241W        W47449  15.706  34.462   3.810
83242W        W47450  20.228  44.011  11.409
83243W        W47451  21.709   2.838  12.435
83244W        W47452   7.216  23.711   0.757
83245W        W47453  44.778  22.681  11.423
83246W        W47454   8.851   8.383  12.474
83247W        W47455  34.587  41.515   0.730
83248W        W47456  25.120  34.941   0.445
83249W        W47457   5.895  39.016   0.928
83250W        W47458   6.219   7.866   0.475
83251W        W47459  21.529   3.291   1.915
83252W        W47460  17.785  36.857  11.522
83253W        W47461  39.947  29.994  12.927
83254W        W47462  26.547  39.355   0.957
83255W        W47463  18.062  35.898   0.836
83256W        W47464   5.401  30.023  13.988
83257W        W47465  26.632  22.208   2.815
83258W        W47466   3.748   8.185  13.486
83259W        W47467  15.299  32.425   2.712
83260W        W47468  23.097   3.437   2.250
83261W        W47469  27.023  11.184   2.366
83262W        W47470  19.157  21.674   4.264
83263W        W47471   0.263  27.512   1.300
83264W        W47472  31.114  40.979  14.276
83265W        W47473   4.916  11.267   4.734
83266W        W47474  42.407  23.124   1.321
83267W        W47475   5.878  24.601  14.887
83268W        W47476   9.395  39.495  10.518
83269W        W47477   2.422   1.355   0.746
83270W        W47478   6.734  30.456  10.644
83271W        W47479  15.207  34.086  12.064
83272W        W47480  17.578  10.198   4.273
83273W        W47481  40.463  10.226  14.485
83274W        W47482  22.542  13.142   0.863
83275W        W47483  21.114  26.141  10.641
83276W        W47484  10.281  31.991   2.739
83277W        W47485   2.272  30.600   3.814
83278W        W47486  27.582  36.569  13.403
83279W        W47487  28.675   8.662  14.396
83280W        W47488   7.713  38.935  12.848
83281W        W47489   0.266  39.939   1.233
83282W        W47490  15.322  15.642   3.239
83283W        W47491  12.300   3.244  14.831
83284W        W47492  44.965   3.713   0.859
83285W        W47493   7.783  37.538   2.707
83286W        W47494  23.492  15.185  13.431
83287W        W47495   4.901   7.334  14.410
83288W        W47496   9.321  35.897   0.470
83289W        W47497  11.299   0.821  10.619
83290W        W47498  41.358  40.878  13.443
83291W        W47499  35.085   4.757  13.017
83292W        W47500  38.390   5.738   4.790
83293W        W47501   7.897  31.005   1.286
83294W        W47502  27.945  20.066   3.759
83295W        W47503   7.748  11.300   4.617
83296W        W47504   1.273  33.002   9.529
83297W        W47505  12.155  37.485   3.239
83298W        W47506  19.774  20.127   0.913
83299W        W47507  29.512  16.197   0.913
83300W        W47508  29.144  42.981   5.220
83301W        W47509  17.240  34.892   0.345
83302W        W47510  31.468  29.628  10.500
83303W        W47511  27.607  35.988   1.349
83304W        W47512  43.301  18.623   4.354
83305W        W47513  20.169   7.830  13.914
83306W        W47514  36.931  28.018   4.754
83307W        W47515   4.720  39.373  13.371
83308W        W47516  39.891  11.622   0.784
83309W        W47517   1.467   6.200  10.464
83310W        W47518  18.726  39.483  12.350
83311W        W47519  18.606  26.159   4.811
83312W        W47520  28.183  15.657  14.796
83313W        W47521  10.745   6.239   2.219
83314W        W47522  25.546  11.762   3.157
83315W        W47523   6.189  26.670   1.349
83316W        W47524  22.723  39.342   1.906
83317W        W47525  18.212  13.835   0.369
83318W        W47526   4.332  42.818   4.276
83319W        W47527  23.575   0.293   4.630
83320W        W47528  31.515  13.820  10.126
83321W        W47529  17.111   8.347   2.381
83322W        W47530   7.665   2.455  11.908
83323W        W47531  35.589  16.171  13.468
83324W        W47532   9.695  27.670  11.939
83325W        W47533   0.906  44.754  11.908
83326W        W47534   6.365  25.576   3.385
83327W        W47535  17.133  34.120  14.761
83328W        W47536  32.045   8.849  11.560
83329W        W47537  37.399  13.769   2.898
83330W        W47538  26.051  35.371   4.279
83331W        W47539  21.166   0.304   5.146
83332W        W47540  39.945   1.861   1.761
83333W        W47541  25.482  39.426  12.356
83334W        W47542  40.451   8.711   0.317
83335W        W47543  11.752  29.151   3.384
83336W        W47544  43.287  11.203  13.442
83337W        W47545  12.695  29.482   2.283
83338W        W47546  19.061  32.595   2.854
83339W        W47547   2.232   0.958  13.441
83340W        W47548  37.410  43.364  11.380
83341W        W47549  40.496  30.107  14.902
83342W        W47550   7.736  35.395   1.323
83343W        W47551  39.937  25.206  10.434
83344W        W47552  37.041  34.451  13.371
83345W        W47553   4.764  10.717  12.566
83346W        W47554  43.369  23.624  11.478
83347W        W47555  12.133  13.787  12.888
83348W        W47556  33.468  30.595  11.545
83349W        W47557  26.122  30.546   4.307
83350W        W47558  11.772  21.102   5.303
83351W        W47559   4.391  18.090  11.884
83352W        W47560  33.951   7.689   0.883
83353W        W47561  24.542  24.114   3.729
83354W        W47562  44.806   0.364   4.771
83355W        W47563  22.716  34.993   0.899
83356W        W47564   3.266  26.609   4.682
83357W        W47565  19.167  21.028   4.614
83358W        W47566  31.459   9.292   3.759
83359W        W47567  44.269  36.447  11.594
83360W        W47568  37.830  18.186  14.996
83361W        W47569  43.019   2.806  14.345
83362W        W47570  24.178  41.523   3.765
83363W        W47571  12.833  23.638   2.419
83364W        W47572   0.490   4.908  10.502
83365W        W47573  17.176  11.692  14.494
83366W        W47574  12.189  36.866  12.929
83367W        W47575  33.534  10.282  10.456
83368W        W47576  31.126  22.724  14.984
83369W        W47577   7.258  41.029   4.635
83370W        W47578  44.414  40.430   0.839
83371W        W47579  18.171  39.917  13.819
83372W        W47580  33.382  40.407   1.321
83373W        W47581  19.653  14.220   3.385
83374W        W47582  17.557  23.191   3.637
83375W        W47583   9.273  21.262   0.455
83376W        W47584  21.526  28.056  13.348
83377W        W47585  22.687  20.131  12.984
83378W        W47586   9.748  24.207  12.894
83379W        W47587  10.312  43.314  13.955
83380W        W47588  25.067  29.063  12.966
83381W        W47589  21.629   5.316  13.890
83382W        W47590  10.772  36.040   2.416
83383W        W47591  44.362  32.101  10.126
83384W        W47592  38.382  33.096  14.398
83385W        W47593  26.615   6.905   2.345
83386W        W47594   0.883   8.237  12.073
83387W        W47595  42.933  35.568  13.854
83388W        W47596  34.056  13.261  14.386
83389W        W47597   3.757  27.151   1.371
83390W        W47598  34.097   3.265   1.212
83391W        W47599   1.282  34.594  10.460
83392W        W47600  17.137  16.762   3.734
83393W        W47601  44.858   9.838  10.596
83394W        W47602   6.742  10.307   0.737
83395W        W47603  40.884  34.055  11.549
83396W        W47604   1.300  34.538  13.467
83397W        W47605  43.796   5.311  12.894
83398W        W47606   7.826  40.322  12.841
83399W        W47607  16.636  11.171  11.522
83400W        W47608  10.269   9.762  11.870
83401W        W47609  15.660  14.259   2.308
83402W        W47610  28.440  44.478   3.646
83403W        W47611  30.612  10.289  12.395
83404W        W47612  27.654  10.798   1.330
83405W        W47613  30.064  16.189   3.677
83406W        W47614  23.618   2.404  11.385
83407W        W47615  10.372  27.960  10.642
83408W        W47616  33.513  44.973  14.015
83409W        W47617  25.484  33.587   3.673
83410W        W47618  35.360  33.035   0.921
83411W        W47619  36.371  16.707  14.479
83412W        W47620  40.472  15.171   9.566
83413W        W47621  15.614  43.513   3.332
83414W        W47622  34.117  17.091  12.917
83415W        W47623   6.235  21.149   1.724
83416W        W47624  35.503   7.912  11.535
83417W        W47625   0.253   0.356  12.523
83418W        W47626  20.189   3.284  12.885
83419W        W47627  21.720  44.993   0.260
83420W        W47628  27.052  12.851   2.877
83421W        W47629  35.949   1.314  11.389
83422W        W47630   5.725  42.320   3.689
83423W        W47631  21.210  10.743  11.911
83424W        W47632  40.898  42.357   0.874
83425W        W47633   6.311  30.566   1.906
83426W        W47634   0.858   6.363  14.996
83427W        W47635  17.765  15.150  12.902
83428W        W47636  24.667  21.735   4.178
83429W        W47637   5.692  19.567  10.497
83430W        W47638  40.858   9.876  14.834
83431W        W47639  10.793  19.161   2.350
83432W        W47640  22.707  31.507  14.829
83433W        W47641  22.217  36.578   2.242
83434W        W47642  19.749  39.960   4.174
83435W        W47643  14.142  18.771   3.780
83436W        W47644  11.337  12.290   5.208
83437W        W47645  19.745  27.082   5.270
83438W        W47646  39.812  37.566  12.910
83439W        W47647  35.572  26.654   3.821
83440W        W47648  26.693  10.252   0.412
83441W        W47649   1.341  41.405   2.315
83442W        W47650  25.006  39.896  13.793
83443W        W47651  16.572  34.922  14.319
83444W        W47652  35.431   4.212   4.346
83445W        W47653   6.807  20.617   1.721
83446W        W47654   2.780  13.606   1.722
83447W        W47655  31.411   1.748  14.320
83448W        W47656  41.998  26.193  10.477
83449W        W47657  10.711  16.298  11.558
83450W        W47658  43.851  26.653   0.803
83451W        W47659  17.232  13.302  13.981
83452W        W47660  25.123  31.465  14.766
83453W        W47661  44.757  37.977   2.274
83454W        W47662   7.171  23.679   3.681
83455W        W47663  19.775  15.785  13.056
83456W        W47664   3.749  19.086  11.982
83457W        W47665  18.648  42.801  10.055
83458W        W47666  25.546  15.142   0.861
83459W        W47667   0.796  43.962   4.774
83460W        W47668  36.518  13.200   1.905
83461W        W47669  34.436  41.935  14.937
83462W        W47670  25.028   7.252   4.717
83463W        W47671  21.723   9.847   0.940
83464W        W47672  20.765  13.106  12.079
83465W        W47673  35.468  15.289  13.377
83466W        W47674  22.136   7.212  10.588
83467W        W47675   8.185   1.775   2.887
83468W        W47676  11.196   1.771  12.372
83469W        W47677   8.309  27.019  14.466
83470W        W47678   3.308  43.849   1.739
83471W        W47679  43.918  41.805   3.278
83472W        W47680  16.286  36.069   1.828
83473W        W47681  35.049  35.548   0.918
83474W        W47682  39.036  37.349   4.218
83475W        W47683  27.478  32.570   2.715
83476W        W47684  32.119  37.061   0.905
83477W        W47685  37.386  25.197   2.334
83478W        W47686  42.395   2.273  14.303
83479W        W47687  21.678  14.681   3.289
83480W        W47688  34.867  26.072   1.357
83481W        W47689  28.117  12.180  14.294
83482W        W47690  35.472   8.846   1.430
83483W        W47691   7.746  27.114   3.719
83484W        W47692  18.676  29.495   0.952
83485W        W47693  10.650  26.624  12.089
83486W        W47694  32.596  36.024   0.440
83487W        W47695  33.599  19.236  12.385
83488W        W47696   2.326   3.742   5.196
83489W        W47697  28.100  11.143  14.346
83490W        W47698  23.039  43.458  14.002
83491W        W47699  17.275  13.708   2.340
83492W        W47700   0.317  21.720   1.867
83493W        W47701  41.431   5.228  10.496
83494W        W47702   6.712  16.204   1.723
83495W        W47703  21.211  25.979  13.525
83496W        W47704  23.051  20.714  10.521
83497W        W47705  25.111  27.053  11.930
83498W        W47706  19.171   3.443   1.775
83499W        W47707  20.060   0.814  12.352
83500W        W47708   7.279  41.957   3.692
83501W        W47709  19.766  27.149  13.469
83502W        W47710  38.865  43.771  12.077
83503W        W47711  38.929  24.501   0.901
83504W        W47712  40.851   1.261  13.365
83505W        W47713  42.478  43.283   1.270
83506W        W47714  28.041  13.188   1.934
83507W        W47715  25.507  43.428   0.283
83508W        W47716  13.294  18.258  10.643
83509W        W47717   1.314  28.957   1.378
83510W        W47718  26.520  42.514  11.874
83511W        W47719  24.027  34.430   0.844
83512W        W47720  40.880  23.594   0.422
83513W        W47721  22.206  16.767   2.396
83514W        W47722  31.433  41.438   0.940
83515W        W47723  42.826   5.774   1.288
83516W        W47724   5.883  28.131   3.854
83517W        W47725   1.264   1.468  12.351
83518W        W47726  31.593  29.656   4.245
83519W        W47727  16.315  12.697   0.365
83520W        W47728   0.810  25.021   3.223
83521W        W47729  41.402  33.896   1.696
83522W        W47730   1.471  28.448   0.391
83523W        W47731  11.719  10.308   1.818
83524W        W47732  39.925  44.334   3.656
83525W        W47733   0.831   3.282  14.841
83526W        W47734  29.647  40.798   1.771
83527W        W47735  16.180  12.782  10.409
83528W        W47736  44.500  12.792  10.637
83529W        W47737   2.303  44.915  13.971
83530W        W47738  18.281  29.920  10.601
83531W        W47739  41.295  42.434  12.977
83532W        W47740   4.265  29.956   1.426
83533W        W47741  29.158  43.872   0.932
83534W        W47742  36.571  32.078   1.379
83535W        W47743  43.005  39.347   3.842
83536W        W47744  17.080   1.325   9.961
83537W        W47745   5.803  42.448  14.493
83538W        W47746  10.791  24.532  12.900
83539W        W47747  33.404  30.523  14.358
83540W        W47748  41.413   2.398   5.804
83541W        W47749   3.721  12.635   3.746
83542W        W47750   0.912  16.264  13.927
83543W        W47751  41.466   3.878   4.706
83544W        W47752  25.205  40.926  14.886
83545W        W47753  33.381  32.024  12.514
83546W        W47754  12.760  40.407   1.276
83547W        W47755  38.493  35.915   4.222
83548W        W47756  33.565  40.040   2.290
83549W        W47757   5.289  36.868  14.979
83550W        W47758  37.544   2.934  10.080
83551W        W47759  12.615  10.846  14.978
83552W        W47760  11.301  30.152  12.991
83553W        W47761   5.208  42.850   1.927
83554W        W47762   6.726   2.784  12.883
83555W        W47763  17.589  20.252   1.271
83556W        W47764  10.680   5.739  10.988
83557W        W47765  16.770  18.616  12.949
83558W        W47766  41.927  35.416  12.558
83559W        W47767  33.497  12.765   1.264
83560W        W47768  13.639  12.772  11.036
83561W        W47769  41.792  25.569   2.829
83562W        W47770   4.910  14.705   1.842
83563W        W47771   2.734  24.694  11.866
83564W        W47772  26.531  30.458   0.827
83565W        W47773  20.562   4.444   0.823
83566W        W47774   5.746  28.603   4.666
83567W        W47775  41.908  25.607  10.580
83568W        W47776  37.833  33.035   2.366
83569W        W47777  19.536  27.534  12.954
83570W        W47778   8.396  38.871  14.880
83571W        W47779  41.986   6.328  14.309
83572W        W47780  26.971  10.365   3.711
83573W        W47781  32.479  22.570  14.486
83574W        W47782  31.436  42.843   2.854
83575W        W47783  38.989  37.940  12.480
83576W        W47784  22.084  31.972  10.534
83577W        W47785  14.225   9.752  11.458
83578W        W47786   2.842  29.603  12.074
83579W        W47787  16.682  36.383   2.379
83580W        W47788  25.049  22.202  14.432
83581W        W47789   6.403  40.037   4.272
83582W        W47790  27.643  42.966   2.202
83583W        W47791   7.826  21.126  12.036
83584W        W47792  38.435   9.384  14.923
83585W        W47793  40.452  29.989  12.355
83586W        W47794  15.711  20.587  10.972
83587W        W47795   1.914  14.719  13.378
83588W        W47796  37.938  11.341   4.151
83589W        W47797  38.385   6.375  13.003
83590W        W47798   4.209  17.728   0.966
83591W        W47799   7.352  33.626   4.665
83592W        W47800  22.734  10.345   2.708
83593W        W47801   5.862   1.935   1.288
83594W        W47802  18.132   3.891  11.096
83595W        W47803   7.173  37.915  10.551
83596W        W47804  28.159  38.510   3.162
83597W        W47805  25.148  24.127  10.486
83598W        W47806  34.866  15.697  10.440
83599W        W47807  44.423   8.384  11.028
83600W        W47808  28.004   0.385  13.970
83601W        W47809  43.351  18.759   2.872
83602W        W47810  27.627  37.978  11.542
83603W        W47811  10.297  26.066   2.827
83604W        W47812   5.377  43.499  12.567
83605W        W47813  39.534  20.253   3.381
83606W        W47814   7.830  29.167   3.323
83607W        W47815  35.526  19.267  11.049
83608W        W47816   2.467  36.421   3.147
83609W        W47817   7.233  22.086  14.354
83610W        W47818  21.677  11.845   1.389
83611W        W47819  36.479  43.842   1.324
83612W        W47820   6.792  22.668   3.745
83613W        W47821   3.242  32.900   0.936
83614W        W47822  12.141  37.579  12.941
83615W        W47823  15.157  17.634  12.966
83616W        W47824   5.808  41.850  12.399
83617W        W47825   8.234  23.632   2.714
83618W        W47826  36.552  18.782  13.468
83619W        W47827  34.524  17.068  12.868
83620W        W47828   6.231  23.518  12.930
83621W        W47829  19.625  30.922  11.873
83622W        W47830  40.805   0.911   3.857
83623W        W47831   4.804  28.511  12.376
83624W        W47832   2.346  44.325  13.856
83625W        W47833  43.927   3.310   2.190
83626W        W47834  26.062  21.724   1.833
83627W        W47835   3.407  16.798   4.155
83628W        W47836  15.246  34.434   4.322
83629W        W47837  33.960   1.821  13.535
83630W        W47838   4.246   8.732   3.306
83631W        W47839  39.547   6.735   4.636
83632W        W47840  11.342   4.748  11.003
83633W        W47841  29.658   7.414   4.788
83634W        W47842  40.488  10.813  13.356
83635W        W47843   7.685  16.712  11.060
83636W        W47844  15.277  11.162  13.443
83637W        W47845  25.649  42.466   0.966
83638W        W47846  19.737  16.167   3.768
83639W        W47847  12.669  27.555  11.394
83640W        W47848  42.514   6.923  10.984
83641W        W47849  14.653   4.728   2.326
83642W        W47850  18.731   8.254   4.666
83643W        W47851   9.826   5.316   2.307
83644W        W47852  20.728  36.955  12.026
83645W        W47853   6.354  22.735   2.829
83646W        W47854   2.242  41.015   4.129
83647W        W47855   8.726  35.965  14.374
83648W        W47856  22.644  26.486  13.441
83649W        W47857  39.452   2.942   3.152
83650W        W47858  38.341  39.405   3.819
83651W        W47859  28.013  12.198  14.892
83652W        W47860  38.562  32.141   0.370
83653W        W47861  31.958  25.600   5.229
83654W        W47862  16.591  15.634  11.540
83655W        W47863  32.474   9.817  12.027
83656W        W47864  11.741  30.563   0.285
83657W        W47865  35.567  22.179   2.672
83658W        W47866  35.992  16.261   4.177
83659W        W47867  34.903  23.630  10.061
83660W        W47868  28.653   8.853   4.600
83661W        W47869  38.445  43.405  14.879
83662W        W47870   8.783   0.964   4.115
83663W        W47871  30.922  23.038   4.801
83664W        W47872   0.272   7.851   3.352
83665W        W47873  25.521  39.041   0.857
83666W        W47874  26.977  31.043  11.469
83667W        W47875  32.928  28.170   3.357
83668W        W47876  37.011  29.645   1.829
83669W        W47877  32.597  34.969  10.931
83670W        W47878  22.635  19.700   1.262
83671W        W47879  10.185  27.607  12.386
83672W        W47880  21.737  44.841  10.634
83673W        W47881  38.895  43.898  14.908
83674W        W47882  18.171   7.190  13.794
83675W        W47883  16.186  44.002  10.448
83676W        W47884  39.981  27.152  11.422
83677W        W47885  36.415   6.894   3.639
83678W        W47886  34.393  22.235   4.692
83679W        W47887   0.769  12.840   4.638
83680W        W47888  24.183  29.150  12.847
83681W        W47889   5.313  31.098  14.290
83682W        W47890  25.485  19.748  13.957
83683W        W47891  25.061  12.320  10.969
83684W        W47892  24.658  29.436   4.746
83685W        W47893  15.165   3.919   3.211
83686W        W47894  28.165  33.395   1.713
83687W        W47895  23.574  40.860   2.676
83688W        W47896   6.884   9.666  14.387
83689W        W47897   4.801  18.182  14.952
83690W        W47898   6.427   7.218  13.021
83691W        W47899   5.390   3.303  12.396
83692W        W47900  40.034  32.084  14.420
83693W        W47901   1.259  18.559   4.287
83694W        W47902  19.691  26.013  10.499
83695W        W47903  42.778   1.868  10.509
83696W        W47904   2.240  43.857   3.845
83697W        W47905   1.781  44.355  12.345
83698W        W47906  23.991   5.719   1.433
83699W        W47907  25.586   5.387   4.832
83700W        W47908  22.080  27.601  12.877
83701W        W47909  35.527  35.358  14.792
83702W        W47910  27.074  32.018   0.482
83703W        W47911  30.981   3.417   3.801
83704W        W47912   4.414   9.384   3.724
83705W        W47913  12.118  23.733   4.347
83706W        W47914  41.535  39.436  12.006
83707W        W47915  18.544   3.443  11.378
83708W        W47916  36.513  15.199   3.166
83709W        W47917   2.405  39.403  12.867
83710W        W47918  18.214  33.910  12.038
83711W        W47919  21.577  27.688   3.649
83712W        W47920  16.770   2.446  14.499
83713W        W47921  32.500  14.125   1.902
83714W        W47922  19.285   3.806   2.733
83715W        W47923  37.071  16.261  10.904
83716W        W47924  21.596  12.280   3.723
83717W        W47925  35.093  19.662  10.456
83718W        W47926  38.411  36.075  14.951
83719W        W47927  32.962   9.250   0.418
83720W        W47928   4.792   5.705   2.416
83721W        W47929  24.480  39.485  12.439
83722W        W47930  43.914   4.740   4.123
83723W        W47931  41.308  16.170   1.447
83724W        W47932  21.211  38.388  10.644
83725W        W47933  39.930  19.042   4.324
83726W        W47934  34.416  18.230   0.801
83727W        W47935  39.927  35.538   0.753
83728W        W47936  43.459  15.297  11.038
83729W        W47937   8.225  14.283   3.381
83730W        W47938  17.575   5.313   0.352
83731W        W47939   2.254  25.182   2.873
83732W        W47940  16.594  14.646  14.898
83733W        W47941  28.615  31.031   1.890
83734W        W47942  30.446  32.062   2.332
83735W        W47943   2.727  17.599   1.784
83736W        W47944  13.337  27.009  13.367
83737W        W47945  23.020  15.578   1.337
83738W        W47946   4.719   8.838   2.419
83739W        W47947  16.109   8.835  14.348
83740W        W47948  20.538  18.706  14.857
83741W        W47949  25.517  35.994   2.892
83742W        W47950   4.705  43.896   3.375
83743W        W47951  12.721  29.126   1.927
83744W        W47952   9.362   3.390  10.616
83745W        W47953  16.296  22.146  14.902
83746W        W47954  26.173  21.524   2.703
83747W        W47955   9.369   6.687  10.488
83748W        W47956  18.697  11.808   4.247
83749W        W47957  41.472  29.066   0.266
83750W        W47958  11.739  34.103   2.780
83751W        W47959  32.397  29.921  12.855
83752W        W47960   2.344  42.807  10.953
83753W        W47961  44.434  23.555   4.792
83754W        W47962  34.401  23.999  14.433
83755W        W47963   3.354  20.198   3.750
83756W        W47964  41.368  40.433   2.217
83757W        W47965  43.773  33.494  12.004
83758W        W47966  16.765   9.825   3.326
83759W        W47967  37.066  41.836   1.293
83760W        W47968  10.736  16.225   0.356
83761W        W47969  15.108   4.428   1.881
83762W        W47970   5.243   7.318  11.947
83763W        W47971  10.221  13.739   0.765
83764W        W47972  29.460  24.552  14.279
83765W        W47973  30.994  11.284  13.811
83766W        W47974  29.544  22.200   4.766
83767W        W47975  17.209  35.991  10.073
83768W        W47976  14.219  41.916   3.648
83769W        W47977  30.061  14.094   2.761
83770W        W47978  31.603  33.964   1.332
83771W        W47979  15.813  25.488  11.866
83772W        W47980  35.945  40.951  10.504
83773W        W47981  43.813   9.315   3.175
83774W        W47982  31.149   6.712  14.918
83775W        W47983  24.483  30.423   4.655
83776W        W47984  38.838  32.117   0.862
83777W        W47985  17.765  29.607   4.171
83778W        W47986  13.797  17.796  12.050
83779W        W47987  39.462  42.789   3.668
83780W        W47988  13.755  17.124  11.926
83781W        W47989  13.832  10.767   2.401
83782W        W47990  37.061  13.222   2.869
83783W        W47991   1.943  40.929   2.219
83784W        W47992  13.831  17.297   4.628
83785W        W47993  35.978  16.160   3.794
83786W        W47994  26.196  36.379   1.219
83787W        W47995  41.384   0.491   0.476
83788W        W47996  31.567  27.163   4.622
83789W        W47997  39.463  41.489  12.859
83790W        W47998  22.591  43.822   0.341
83791W        W47999   9.758  24.628   3.862
83792W        W48000  35.091  43.773   2.773
83793W        W48001  35.927   2.902  14.387
83794W        W48002  41.001  22.729   2.297
83795W        W48003  14.260  35.595  11.413
83796W        W48004  40.423  15.324   0.366
83797W        W48005  17.233  38.508   1.405
83798W        W48006  44.363  35.942  13.888
83799W        W48007   7.871  22.704   0.807
83800W        W48008  39.046  21.615  14.005
83801W        W48009  32.429  36.483  13.057
83802W        W48010  15.305  19.705   4.801
83803W        W48011  27.072   7.732   4.295
83804W        W48012  21.593  34.886  12.463
83805W        W48013  21.661  40.044   0.830
83806W        W48014  42.908  17.714   5.091
83807W        W48015   7.305  14.134   5.161
83808W        W48016  14.761  20.658  11.876
83809W        W48017  18.609  39.984   1.441
83810W        W48018   7.757  31.465   1.777
83811W        W48019  44.890   7.259  11.541
83812W        W48020  26.573   7.698   0.898
83813W        W48021  15.303  24.050  14.440
83814W        W48022  35.579   6.911  10.520
83815W        W48023  18.153  11.821   3.681
83816W        W48024   2.296  30.528  12.048
83817W        W48025  18.070   8.332   4.331
83818W        W48026  34.385  40.848   1.885
83819W        W48027  22.197  30.529  13.541
83820W        W48028  34.500   4.421   3.778
83821W        W48029  32.012  22.236  14.763
83822W        W48030  13.165  27.058  11.553
83823W        W48031  22.217   0.410  12.920
83824W        W48032  28.615   2.330  12.577
83825W        W48033  31.545  29.628   0.400
83826W        W48034  30.548  23.567  11.906
83827W        W48035  11.236  15.134  14.390
83828W        W48036  33.588  26.476   1.414
83829W        W48037  36.550  15.103   1.415
83830W        W48038  32.104  37.965  11.040
83831W        W48039  37.978  26.475  14.786
83832W        W48040  17.611  18.659  11.083
83833W        W48041  34.463   8.288   1.339
83834W        W48042  39.840   5.352   1.350
83835W        W48043  41.833  22.020   1.920
83836W        W48044   7.319  23.989  14.994
83837W        W48045  17.215   2.761  12.039
83838W        W48046  16.579  17.136  14.515
83839W        W48047   5.200  16.288   2.847
83840W        W48048   3.757  18.622  10.642
83841W        W48049  32.907  11.762   0.920
83842W        W48050   1.740  39.410   0.244
83843W        W48051   5.331  17.651  12.013
83844W        W48052  34.068  25.665  13.033
83845W        W48053  36.048  18.775   4.127
83846W        W48054  13.163  40.330   2.363
83847W        W48055  34.392  13.640   0.293
83848W        W48056  40.493   9.699  14.985
83849W        W48057  32.139  36.018  13.854
83850W        W48058   2.883  16.116  11.941
83851W        W48059   9.646   5.437   3.196
83852W        W48060  37.934  32.563  13.545
83853W        W48061  25.013   7.722  14.013
83854W        W48062  14.607  28.568  11.976
83855W        W48063   9.676  10.660  11.565
83856W        W48064  34.385  42.979  14.378
83857W        W48065  38.390  42.013  12.071
83858W        W48066   9.809  27.158   2.874
83859W        W48067  21.190  19.247  13.315
83860W        W48068  25.169   3.876   3.278
83861W        W48069  13.779   7.773  14.949
83862W        W48070   5.768  16.792   4.350
83863W        W48071  14.227  24.029   5.252
83864W        W48072  13.655  43.982  14.855
83865W        W48073   1.242  34.474   1.393
83866W        W48074  41.896  11.643   1.862
83867W        W48075  26.688  10.242   0.916
83868W        W48076   5.318  38.367   3.210
83869W        W48077  13.665  21.725  14.008
83870W        W48078  39.011  26.114  11.424
83871W        W48079  32.401  26.177   0.374
83872W        W48080  13.315  19.228  13.467
83873W        W48081  12.166  19.729  11.883
83874W        W48082  23.119  24.973  13.875
83875W        W48083  40.913  24.523  12.471
83876W        W48084  43.969  28.555   3.686
83877W        W48085  20.052  28.605  12.387
83878W        W48086   0.948  13.788   3.847
83879W        W48087  39.841  20.672  10.907
83880W        W48088   0.915   9.756  10.567
83881W        W48089  19.252  10.716   1.839
83882W        W48090   7.801   3.760  12.489
83883W        W48091   8.656   3.217   1.211
83884W        W48092  34.536  19.655  14.825
83885W        W48093   1.858  36.521   4.329
83886W        W48094  13.114  37.527  12.349
83887W        W48095  10.140  36.593  12.341
83888W        W48096   1.360  14.673   3.256
83889W        W48097  24.703   5.276  11.447
83890W        W48098   3.727  25.060   3.379
83891W        W48099  40.917  44.276  12.490
83892W        W48100  37.456   1.287  11.431
83893W        W48101  18.697  44.806  11.897
83894W        W48102  39.932  41.423   4.616
83895W        W48103   4.410  43.821  14.443
83896W        W48104  13.617   1.481   3.378
83897W        W48105  17.073  24.544  11.498
83898W        W48106   8.897  19.729  14.474
83899W        W48107  23.056  22.584   4.147
83900W        W48108  12.642   6.742   1.235
83901W        W48109  15.817  31.074   0.256
83902W        W48110  32.563  13.813   2.754
83903W        W48111  43.350  23.240  13.536
83904W        W48112  12.338   8.844  12.501
83905W        W48113  10.148  16.755   1.290
83906W        W48114  39.842  33.880   0.268
83907W        W48115   0.838   7.745  12.966
83908W        W48116  13.131  35.360   3.858
83909W        W48117  16.689  37.897  12.067
83910W        W48118   8.706   3.272   4.272
83911W        W48119  13.683  20.693  14.330
83912W        W48120  39.520  18.062  11.099
83913W        W48121  35.083  26.206   0.827
83914W        W48122  39.919   4.701   5.282
83915W        W48123   3.898  28.443  11.610
83916W        W48124  25.550   8.862  12.357
83917W        W48125   5.429  39.023   1.883
83918W        W48126   3.724  22.692  10.889
83919W        W48127  29.010  13.701  11.893
83920W        W48128   4.795  21.087   5.285
83921W        W48129  24.524  21.249  11.521
83922W        W48130  32.469  32.976   0.470
83923W        W48131   0.335  30.456   1.282
83924W        W48132  13.134  25.159   4.693
83925W        W48133  32.097   8.342  13.011
83926W        W48134  17.297  34.968   1.785
83927W        W48135   7.751   3.714  14.762
83928W        W48136  33.963  22.631  13.851
83929W        W48137  28.589  16.798   5.268
83930W        W48138  19.586  12.718   0.917
83931W        W48139  33.969  21.239   0.767
83932W        W48140  40.989   9.822  13.862
83933W        W48141   4.309   2.278  10.474
83934W        W48142  11.632  33.420   3.802
83935W        W48143  32.987  19.737   0.808
83936W        W48144  39.361   8.791   4.162
83937W        W48145  33.876  16.765  13.368
83938W        W48146  33.611  29.011  11.373
83939W        W48147  27.579   0.977   3.846
83940W        W48148  25.610   3.874   1.751
83941W        W48149  32.418  43.805  11.127
83942W        W48150   1.768  29.493  14.282
83943W        W48151  42.470  24.527   0.400
83944W        W48152   0.444  35.376   4.261
83945W        W48153  20.536  36.477  14.969
83946W        W48154   3.226  10.321   1.781
83947W        W48155  32.013  11.805  13.031
83948W        W48156   6.244  30.084   2.681
83949W        W48157  32.464  18.700  13.977
83950W        W48158  25.692  12.762  11.866
83951W        W48159  29.987  30.986  12.500
83952W        W48160  37.968  29.934  10.994
83953W        W48161  13.642   6.823   4.772
83954W        W48162  33.476  39.864  13.472
83955W        W48163  30.962   4.277   1.708
83956W        W48164   0.367  41.529   2.835
83957W        W48165  16.701  38.843  12.919
83958W        W48166  12.301  14.637  11.384
83959W        W48167  14.228  15.145   2.863
83960W        W48168  42.484  42.480  14.503
83961W        W48169  35.418  40.394   2.201
83962W        W48170  16.658  41.327  10.589
83963W        W48171  34.864  21.597  12.423
83964W        W48172   9.207  25.068   5.274
83965W        W48173  15.752   1.800   4.765
83966W        W48174   6.200  10.215   2.874
83967W        W48175  13.717  42.325  14.474
83968W        W48176  26.497  28.997   3.205
83969W        W48177  26.029  18.602  14.464
83970W        W48178  18.728  27.999   0.740
83971W        W48179   6.258  42.946  13.485
83972W        W48180  43.355  36.404   5.232
83973W        W48181   2.372   1.869   4.684
83974W        W48182  38.066  19.568   2.209
83975W        W48183  37.491   4.438  12.432
83976W        W48184   2.839  40.848   1.288
83977W        W48185  25.480  31.114  13.811
83978W        W48186  37.928  37.536  12.512
83979W        W48187   7.767  35.036  13.307
83980W        W48188   1.828   5.754  14.928
83981W        W48189  29.153  11.767  10.611
83982W        W48190  18.709  31.134   2.234
83983W        W48191  41.885  44.389   4.795
83984W        W48192  26.081  18.705   2.795
83985W        W48193  21.125  12.662   3.384
83986W        W48194  14.611   5.759  12.551
83987W        W48195  41.943  24.514  14.874
83988W        W48196   0.799  32.433   0.360
83989W        W48197  30.979  36.588   1.220
83990W        W48198  11.825   8.394  14.779
83991W        W48199   3.896  13.199   5.267
83992W        W48200  20.733  18.630  11.587
83993W        W48201   9.338  26.033  13.966
83994W        W48202  11.159  40.827   3.232
83995W        W48203  18.155  24.984   2.381
83996W        W48204  11.308  10.788   1.812
83997W        W48205  25.654  23.720  10.544
83998W        W48206   7.823   1.456   3.860
83999W        W48207   8.897  35.426  11.118
84000W        W48208   4.235  23.580  13.477
84001W        W48209  18.166  43.320   2.322
84002W        W48210  22.212  17.250  13.432
84003W        W48211   1.417  30.998  13.909
84004W        W48212   6.384  14.141  11.999
84005W        W48213  13.246   8.877   4.198
84006W        W48214  36.450  33.115   1.831
84007W        W48215   3.227   7.273   2.781
84008W        W48216  34.516  10.342  13.002
84009W        W48217  14.223   1.457   0.424
84010W        W48218  37.563  29.598  14.997
84011W        W48219  11.165  25.034   2.239
84012W        W48220  10.239  13.681   5.199
84013W        W48221  42.295   0.921   1.848
84014W        W48222   6.355  30.129   2.306
84015W        W48223  17.295   3.774  13.041
84016W        W48224  40.487  40.914  13.444
84017W        W48225  42.945  21.091  10.424
84018W        W48226  19.156  10.725   4.261
84019W        W48227   0.423  25.213   2.901
84020W        W48228  30.949  24.582   4.335
84021W        W48229  41.840  13.604  11.538
84022W        W48230   2.243   4.299   1.234
84023W        W48231  36.477  34.052  11.535
84024W        W48232   4.858  25.704   1.739
84025W        W48233   4.847  22.589  14.505
84026W        W48234  41.389  29.463  13.822
84027W        W48235  22.720  28.482  10.955
84028W        W48236  21.153   0.372  12.532
84029W        W48237   0.776   7.267   9.935
84030W        W48238  10.245   9.373   5.169
84031W        W48239  44.982   6.218   0.340
84032W        W48240   2.930  32.095  14.965
84033W        W48241  28.144  11.754  11.577
84034W        W48242  13.749  28.133   3.811
84035W        W48243   4.711  21.113   2.346
84036W        W48244  27.989  32.088  12.446
84037W        W48245  11.625  34.517   2.784
84038W        W48246  32.427  32.604   3.649
84039W        W48247  36.067  28.465   2.383
84040W        W48248  34.997   0.978   4.815
84041W        W48249  29.568   9.856   1.906
84042W        W48250  29.464  36.373   3.696
84043W        W48251   0.428  43.514  12.453
84044W        W48252   8.249  29.926   2.244
84045W        W48253  29.665  15.733   4.224
84046W        W48254  40.998  30.518  12.984
84047W        W48255   2.379  41.902   2.316
84048W        W48256  32.058   9.197   1.316
84049W        W48257   4.272  18.625   0.908
84050W        W48258  40.413  26.978  13.935
84051W        W48259  27.492  10.328  11.872
84052W        W48260  36.867  20.726   3.636
84053W        W48261  33.019  14.716  13.453
84054W        W48262   4.916  15.633  11.894
84055W        W48263  14.761   4.270   1.383
84056W        W48264  33.479  25.971   0.394
84057W        W48265  31.631   4.210   0.423
84058W        W48266  40.454  20.751  10.624
84059W        W48267  13.111  10.799   0.889
84060W        W48268  29.170  31.604  14.785
84061W        W48269   9.646  25.022   0.389
84062W        W48270  32.982   0.794   0.342
84063W        W48271   6.865   2.952  13.922
84064W        W48272   8.200  36.352  11.408
84065W        W48273  27.687  41.445   0.355
84066W        W48274   2.948  27.653   2.902
84067W        W48275  34.114  17.651   3.829
84068W        W48276  25.027  10.351   4.131
84069W        W48277  31.549  25.185   0.403
84070W        W48278  17.700  35.422  11.103
84071W        W48279  26.032   9.798   2.833
84072W        W48280  44.396  32.424   1.760
84073W        W48281  44.893  32.015   3.146
84074W        W48282   5.901  42.359  12.836
84075W        W48283   2.352   6.311  13.488
84076W        W48284  32.575  23.620  11.494
84077W        W48285  18.173  19.099  11.428
84078W        W48286   4.404   6.186   3.374
84079W        W48287  18.701  10.709   3.664
84080W        W48288  39.381   2.963   4.119
84081W        W48289   5.256  13.743  11.414
84082W        W48290  18.070  38.366   3.766
84083W        W48291  31.452   6.831  13.401
84084W        W48292  31.034  24.195  13.824
84085W        W48293  35.389   3.806   2.784
84086W        W48294  35.046   7.785   0.754
84087W        W48295  44.779  13.660   0.755
84088W        W48296   5.237  11.175  10.510
84089W        W48297  31.914  20.038   1.438
84090W        W48298   2.773  35.966  10.412
84091W        W48299  14.680  26.092   0.947
84092W        W48300   3.713  44.762   2.787
84093W        W48301  26.155  24.031   3.849
84094W        W48302  15.682  21.084   3.315
84095W        W48303  32.433  25.553   0.379
84096W        W48304  40.846  28.135   0.847
84097W        W48305  23.070  21.569  13.034
84098W        W48306  12.748  41.536   4.144
84099W        W48307  26.971  19.218   4.736
84100W        W48308  13.624  18.102   2.342
84101W        W48309  10.876  26.137  11.909
84102W        W48310  16.653   9.831   2.797
84103W        W48311   5.803  38.865   3.206
84104W        W48312  27.119  22.040   0.346
84105W        W48313  37.063   7.799  14.462
84106W        W48314  30.952  10.878  11.948
84107W        W48315  10.348   4.396   4.233
84108W        W48316  12.203  15.258   1.813
84109W        W48317  32.593  36.458  11.612
84110W        W48318  22.086  41.353  10.432
84111W        W48319  35.906  32.480   1.307
84112W        W48320   7.210  34.424  14.279
84113W        W48321  16.113   0.840   1.317
84114W        W48322  13.619  16.728  12.978
84115W        W48323  11.859  15.675  14.319
84116W        W48324  37.408   7.318  14.782
84117W        W48325   6.238  16.683   3.769
84118W        W48326  27.150  38.943  13.492
84119W        W48327  32.568  14.825   2.852
84120W        W48328  30.162  32.949   2.200
84121W        W48329  35.370   6.807  13.858
84122W        W48330  20.221   0.342   5.105
84123W        W48331   2.782  33.999  13.486
84124W        W48332   2.442   1.821   0.945
84125W        W48333  13.317   9.178   1.323
84126W        W48334  31.945  15.608   4.202
84127W        W48335  35.984  14.657  11.947
84128W        W48336  18.261  43.886  10.583
84129W        W48337  39.975  21.085  10.598
84130W        W48338   3.944  38.492   2.198
84131W        W48339  20.735   8.222   1.273
84132W        W48340  42.967   2.278   5.306
84133W        W48341   7.181  30.510   1.727
84134W        W48342  24.053  22.135  12.830
84135W        W48343  39.903  23.645  12.425
84136W        W48344  19.696  32.434  14.032
84137W        W48345  33.982  39.338   1.758
84138W        W48346  38.539  26.131   4.687
84139W        W48347  18.776  21.037  11.478
84140W        W48348  37.479  35.947  14.421
84141W        W48349  24.192  31.999   0.449
84142W        W48350  21.188  44.908   3.247
84143W        W48351  35.358   0.758  10.980
84144W        W48352  43.834   5.315  13.885
84145W        W48353   8.824  21.233   0.798
84146W        W48354  38.441  14.288   4.647
84147W        W48355  37.912  43.341   3.656
84148W        W48356   6.802  40.949   3.834
84149W        W48357  37.947  11.366  12.400
84150W        W48358  14.641  30.416   4.832
84151W        W48359  38.819  28.970   4.797
84152W        W48360  38.398   3.936   1.929
84153W        W48361   3.441  32.958  13.992
84154W        W48362  26.168  22.501  14.942
84155W        W48363   5.928  32.026   2.683
84156W        W48364  14.610  32.402   3.721
84157W        W48365  29.119  17.085  13.485
84158W        W48366   4.336  44.455  10.972
84159W        W48367  39.544   0.853   9.954
84160W        W48368   7.296  14.664  12.972
84161W        W48369  35.958  15.719   1.723
84162W        W48370  11.639  32.116  13.486
84163W        W48371  12.224  39.362   0.865
84164W        W48372  12.684   8.209   1.257
84165W        W48373  26.180  22.695   0.413
84166W        W48374   0.754   6.766  13.471
84167W        W48375  44.480  13.709  14.894
84168W        W48376  36.555  20.118   0.770
84169W        W48377  32.920  23.536  12.972
84170W        W48378   2.428  43.869  11.963
84171W        W48379  12.197  39.036   3.147
84172W        W48380  27.966  30.137   3.862
84173W        W48381  13.717   1.797   1.905
84174W        W48382  35.414  28.565  14.897
84175W        W48383  18.152   4.399   3.770
84176W        W48384  28.657   0.819  10.980
84177W        W48385  25.031  30.916   1.761
84178W        W48386  12.715  40.318   4.788
84179W        W48387  13.317  44.323   1.711
84180W        W48388  44.440  40.032   3.341
84181W        W48389  27.038  42.407   4.135
84182W        W48390  20.745  30.579  14.329
84183W        W48391  23.659  36.369  13.031
84184W        W48392  34.600  44.966   4.355
84185W        W48393   5.914  23.017  14.485
84186W        W48394  18.085  24.725   3.372
84187W        W48395  36.944  40.314   3.187
84188W        W48396  13.639  39.809  13.843
84189W        W48397  17.755  23.137  12.947
84190W        W48398  37.500  11.749  13.893
84191W        W48399  31.968   6.882   1.261
84192W        W48400  35.405  26.042   2.848
84193W        W48401   0.768  36.396   5.707
84194W        W48402  13.334  32.401   4.790
84195W        W48403  43.818  25.054   1.231
84196W        W48404  26.576  40.959  13.951
84197W        W48405   0.371  26.526  14.367
84198W        W48406   4.763   3.401  14.812
84199W        W48407  44.792  34.569  14.824
84200W        W48408  24.515  35.594   2.311
84201W        W48409  40.958  16.150  10.643
84202W        W48410   6.256  44.329   4.120
84203W        W48411  17.107   1.348   2.336
84204W        W48412  12.613  33.519  11.476
84205W        W48413  26.991   4.335  10.559
84206W        W48414   6.347  13.204  14.361
84207W        W48415  25.011  15.104   0.846
84208W        W48416  22.132   8.674   5.230
84209W        W48417   7.782  18.227   1.929
84210W        W48418  27.189   4.704  14.944
84211W        W48419  17.165   5.322  11.575
84212W        W48420  10.724  15.256  14.444
84213W        W48421  15.799   4.879   4.652
84214W        W48422  37.534  28.589   1.388
84215W        W48423  25.661  20.546  11.985
84216W        W48424  22.673  13.740   1.850
84217W        W48425  41.314  17.305   1.770
84218W        W48426  44.780   2.749  14.897
84219W        W48427  44.323  44.960  13.990
84220W        W48428   9.797  14.134  14.368
84221W        W48429  16.107  20.655  11.404
84222W        W48430  36.538   1.837  11.067
84223W        W48431  17.176  36.003  14.804
84224W        W48432  23.241  20.193   3.802
84225W        W48433   2.239   4.428   2.892
84226W        W48434   4.788  14.635  12.379
84227W        W48435  21.623  14.713  14.306
84228W        W48436   1.883  30.637  10.602
84229W        W48437  26.468  24.020  13.504
84230W        W48438   1.956  22.687   0.324
84231W        W48439  42.430   4.801   5.303
84232W        W48440  39.854   5.439  12.935
84233W        W48441  25.103   0.938  11.416
84234W        W48442  14.183  19.609  14.922
84235W        W48443   5.213  26.461  12.882
84236W        W48444   2.293  33.449  11.970
84237W        W48445  22.227  37.527   4.674
84238W        W48446  16.204  42.014  13.998
84239W        W48447  38.046  38.031   4.600
84240W        W48448  24.131   9.671   1.234
84241W        W48449   3.344  18.294   0.759
84242W        W48450  28.435  36.970  10.467
84243W        W48451  38.928  23.101  14.472
84244W        W48452   7.909  19.157  12.987
84245W        W48453  37.525  10.154   3.812
84246W        W48454   6.692   4.837   3.750
84247W        W48455   0.981  22.169  11.861
84248W        W48456  15.096   4.441  12.555
84249W        W48457   7.765  12.785  12.887
84250W        W48458  44.336  36.958  10.920
84251W        W48459  20.658  22.569  14.493
84252W        W48460  25.641  18.108  11.109
84253W        W48461  25.212  26.471  13.354
84254W        W48462  40.882  26.057   3.223
84255W        W48463  35.091  22.047  14.297
84256W        W48464  40.537  22.687  14.929
84257W        W48465  27.656   1.332   0.762
84258W        W48466  26.499  17.684  12.513
84259W        W48467  30.026  29.927  12.477
84260W        W48468   5.392  28.003   1.375
84261W        W48469  33.930  30.999  13.052
84262W        W48470  29.024  25.649   3.377
84263W        W48471  11.152  36.870  12.872
84264W        W48472  10.354  21.555   2.755
84265W        W48473  29.005  15.679   4.150
84266W        W48474   7.274  43.382   2.778
84267W        W48475  20.189  16.730   2.694
84268W        W48476  28.032  17.182  10.946
84269W        W48477  44.446   4.709  10.534
84270W        W48478   9.356  14.107  14.409
84271W        W48479  16.259  33.913  10.909
84272W        W48480   2.835   9.812   3.631
84273W        W48481  34.406   7.768  11.440
84274W        W48482   4.395  30.571  12.531
84275W        W48483  34.947  39.042  12.502
84276W        W48484  14.629  14.278   4.782
84277W        W48485  27.661  21.117   0.342
84278W        W48486  18.659  43.437  13.979
84279W        W48487  36.881  26.474   0.403
84280W        W48488  43.442  34.475   2.862
84281W        W48489  18.261  21.604  13.044
84282W        W48490  33.887  32.411  14.007
84283W        W48491  44.996  18.104  13.468
84284W        W48492   1.471   0.312   0.731
84285W        W48493  35.437  40.910   1.405
84286W        W48494  28.088  41.996   3.825
84287W        W48495   7.868  21.173  10.097
84288W        W48496  21.184  11.208  14.824
84289W        W48497  19.668   7.779  12.345
84290W        W48498  41.850   2.784   2.739
84291W        W48499  33.437  28.127   4.119
84292W        W48500  15.137  23.515   4.274
84293W        W48501  41.517  20.122   3.240
84294W        W48502   2.269   0.753   2.404
84295W        W48503   3.779  12.800  11.414
84296W        W48504  28.488  33.485  10.522
84297W        W48505  34.065  16.139  10.951
84298W        W48506   4.884   2.833   1.368
84299W        W48507  28.013   3.442   3.186
84300W        W48508   1.738   0.294  14.932
84301W        W48509   0.860   2.266  10.482
84302W        W48510  10.266  23.592  13.063
84303W        W48511   0.809  10.264   5.095
84304W        W48512  35.073   1.270  10.645
84305W        W48513  24.540  35.883  13.921
84306W        W48514  31.602  21.106   2.804
84307W        W48515   6.209   3.749   4.665
84308W        W48516  19.635  31.960   1.249
84309W        W48517  41.013  24.601   1.932
84310W        W48518  40.502  15.581   3.822
84311W        W48519  18.213  26.958  14.790
84312W        W48520  18.102   3.381   1.823
84313W        W48521  27.130   8.820   4.333
84314W        W48522  39.346   2.462  13.492
84315W        W48523  39.349   3.413  13.841
84316W        W48524   6.278   6.780  14.964
84317W        W48525  36.431  23.703   0.737
84318W        W48526   6.850  36.453   0.404
84319W        W48527   1.768  44.968   0.896
84320W        W48528  22.533  24.620  10.015
84321W        W48529  13.245  31.635  12.443
84322W        W48530   0.761  36.520   2.326
84323W        W48531  25.535  15.735   1.778
84324W        W48532  36.093   9.650  10.518
84325W        W48533  34.471  33.892   2.183
84326W        W48534  20.541  17.625   4.129
84327W        W48535  29.502  22.725   0.409
84328W        W48536  34.039   1.377  11.562
84329W        W48537  38.029  33.443  13.378
84330W        W48538  34.399  23.989  14.798
84331W        W48539  24.005  17.259  11.462
84332W        W48540  23.164  18.730   4.727
84333W        W48541  34.063   5.425  10.583
84334W        W48542  22.198  10.733   4.746
84335W        W48543  13.651   6.805  11.609
84336W        W48544  27.663  41.953   2.192
84337W        W48545  43.496   7.199   2.284
84338W        W48546   8.700  25.022   9.944
84339W        W48547  40.358   2.919  13.435
84340W        W48548  27.557  44.940   3.761
84341W        W48549  40.986  39.463   0.480
84342W        W48550  41.388   9.341  11.403
84343W        W48551   6.814  24.495  12.841
84344W        W48552  10.691  30.122   2.672
84345W        W48553  44.969  29.542  12.893
84346W        W48554  35.936  31.011  13.546
84347W        W48555  43.401  23.059   2.203
84348W        W48556  25.987  42.869  12.055
84349W        W48557  19.593  20.126   0.437
84350W        W48558  41.515  10.794  13.324
84351W        W48559  39.843  22.196   3.334
84352W        W48560  17.105  43.498   4.350
84353W        W48561  42.510  17.292   0.907
84354W        W48562   2.402  30.528  14.477
84355W        W48563   4.355  42.798   0.452
84356W        W48564  33.545  23.232  14.394
84357W        W48565   7.390  18.282  13.958
84358W        W48566  23.178  40.960  12.528
84359W        W48567  44.902  34.012  12.989
84360W        W48568  34.950  41.296   2.337
84361W        W48569  14.637  35.527  14.340
84362W        W48570  16.233  38.970   0.739
84363W        W48571  13.683  40.884  14.950
84364W        W48572  39.319  19.046   1.336
84365W        W48573   4.902  42.888   1.328
84366W        W48574  16.251  32.514  13.797
84367W        W48575  25.536  43.804   4.743
84368W        W48576  21.113   0.856   4.602
84369W        W48577  10.369  35.884  14.796
84370W        W48578  10.252   2.948  13.959
84371W        W48579  29.647  35.074  11.593
84372W        W48580  27.999  35.427  14.022
84373W        W48581  27.689  14.202   1.760
84374W        W48582  30.443  40.480   0.774
84375W        W48583  44.875  10.731  11.953
84376W        W48584  38.028  11.259   2.815
84377W        W48585   1.343  31.986  12.828
84378W        W48586  30.082  24.179   4.622
84379W        W48587   9.832   2.267   3.777
84380W        W48588  26.471  35.377  14.469
84381W        W48589  32.613  21.756   4.766
84382W        W48590  26.148  24.675   1.361
84383W        W48591  26.082  40.955   0.312
84384W        W48592  21.672   8.819   2.237
84385W        W48593   9.296  23.566  11.033
84386W        W48594  18.629  10.839   1.822
84387W        W48595  20.587  34.051  13.369
84388W        W48596  33.513  15.680   0.285
84389W        W48597  44.349  11.309  11.479
84390W        W48598  29.077  14.125   0.836
84391W        W48599  13.695   3.883  14.819
84392W        W48600  38.953   9.188   0.247
84393W        W48601  23.018  17.558  12.043
84394W        W48602  36.489  43.499   4.824
84395W        W48603  33.916  18.284   4.783
84396W        W48604  17.067  12.126  10.912
84397W        W48605  25.009  23.194   4.672
84398W        W48606  41.358   4.250   2.365
84399W        W48607  24.558  28.667  14.776
84400W        W48608  27.507  26.997  10.573
84401W        W48609  28.084  17.733  13.063
84402W        W48610   8.662  38.012  13.360
84403W        W48611  28.447  28.086   4.328
84404W        W48612  32.394  31.545  10.959
84405W        W48613  16.693  22.592   1.878
84406W        W48614  37.371  17.252   4.827
84407W        W48615  11.150   8.251  10.961
84408W        W48616  25.011  13.808  14.479
84409W        W48617  12.647  11.153   0.252
84410W        W48618  16.197   0.270  11.942
84411W        W48619   6.385  15.285   3.699
84412W        W48620  20.589  19.573  14.765
84413W        W48621   0.848  13.631   3.363
84414W        W48622  27.030  27.678   4.117
84415W        W48623   1.867   3.215  13.932
84416W        W48624  18.705  43.852  11.124
84417W        W48625   1.813  14.630   2.848
84418W        W48626  40.345  30.115  14.460
84419W        W48627  19.144  30.021  11.054
84420W        W48628  16.251  34.388  12.381
84421W        W48629   5.736   1.440   3.312
84422W        W48630   9.711  11.843   0.842
84423W        W48631   3.261  38.882  13.943
84424W        W48632   8.890  42.521  13.447
84425W        W48633  21.629   3.295  14.837
84426W        W48634  39.404  11.223   0.467
84427W        W48635  31.085  44.854  11.380
84428W        W48636  38.976   0.756  10.891
84429W        W48637  28.067  33.425  11.476
84430W        W48638  30.563   5.195  10.960
84431W        W48639  35.913  11.344  12.005
84432W        W48640  24.718  30.462   2.817
84433W        W48641  37.062  15.646  10.990
84434W        W48642  30.568  16.133  12.406
84435W        W48643  37.031  26.105   3.198
84436W        W48644  36.444  11.639   1.799
84437W        W48645  24.198  12.313   2.302
84438W        W48646  36.034   1.456   2.852
84439W        W48647  25.184  28.978  10.477
84440W        W48648  25.203   5.749  14.465
84441W        W48649  12.722  42.834   5.167
84442W        W48650  15.630   6.712  11.585
84443W        W48651  16.162   6.682  13.350
84444W        W48652   2.458  22.016  10.993
84445W        W48653  10.246  33.024  11.603
84446W        W48654   3.457  33.977   1.373
84447W        W48655  34.527  37.520  12.529
84448W        W48656   3.288  10.692   4.751
84449W        W48657  15.638   4.791   0.403
84450W        W48658  19.147  17.287   3.665
84451W        W48659  43.825   6.319   0.354
84452W        W48660  11.765   2.301   2.886
84453W        W48661  24.137  43.810  13.014
84454W        W48662  34.899   0.754  10.583
84455W        W48663  41.012  23.049   4.677
84456W        W48664  42.002  35.902   1.423
84457W        W48665  24.701  33.069  14.419
84458W        W48666  31.584  28.980  11.116
84459W        W48667   1.761  30.155  11.916
84460W        W48668   5.296   1.334  13.404
84461W        W48669  19.711  27.530  11.988
84462W        W48670   5.892  11.202  13.392
84463W        W48671  35.898   9.261  12.424
84464W        W48672  37.398   1.433   4.749
84465W        W48673  18.163  38.850  14.011
84466W        W48674   0.800  43.473   2.308
84467W        W48675  29.019  16.152   3.691
84468W        W48676  28.590  19.112   4.275
84469W        W48677  22.224  34.544   2.774
84470W        W48678  28.058  22.714  11.529
84471W        W48679  43.797  17.291   0.282
84472W        W48680  14.695  39.550  10.575
84473W        W48681  41.858   5.738   2.240
84474W        W48682  12.163  31.900   2.860
84475W        W48683  41.535  26.545   2.733
84476W        W48684  13.750   8.811  13.984
84477W        W48685  23.067   9.886  12.520
84478W        W48686  19.246   7.309   3.286
84479W        W48687  39.439   6.408   2.811
84480W        W48688  15.234  39.532  14.291
84481W        W48689   1.272  27.688   2.862
84482W        W48690  37.350  10.352  14.901
84483W        W48691   8.866  43.452  13.357
84484W        W48692  23.232  14.228   2.349
84485W        W48693  20.580   6.208   1.406
84486W        W48694  26.522  35.852   1.860
84487W        W48695   9.302  35.966   1.352
84488W        W48696  34.991  34.878   2.717
84489W        W48697   1.772  27.495  12.498
84490W        W48698  25.161  18.132   0.380
84491W        W48699  37.057   4.897   0.789
84492W        W48700  39.937  29.647  14.515
84493W        W48701  28.439   3.289  10.496
84494W        W48702  15.256  30.560  10.990
84495W        W48703  33.932  40.043  14.796
84496W        W48704  12.777  41.802  12.350
84497W        W48705  26.627   9.862   0.280
84498W        W48706  12.221  38.016   3.336
84499W        W48707   0.473  21.235  11.905
84500W        W48708  30.120  25.496  13.464
84501W        W48709  28.961  13.228  13.995
84502W        W48710  21.079   9.649   3.287
84503W        W48711  19.707  15.735  11.379
84504W        W48712  42.008  22.629   2.275
84505W        W48713   1.911   7.668   0.410
84506W        W48714  28.553  17.692   3.169
84507W        W48715  19.570  34.926   4.249
84508W        W48716   9.695  31.947  11.011
84509W        W48717  11.275  30.461   3.655
84510W        W48718   0.965  14.285   0.401
84511W        W48719  15.803  32.495   1.422
84512W        W48720  35.477  25.180  11.011
84513W        W48721  11.654   9.180  10.117
84514W        W48722  22.153  40.469  11.574
84515W        W48723  17.599  12.718  11.587
84516W        W48724  11.623   1.782  11.570
84517W        W48725   2.252  33.401   2.307
84518W        W48726  38.834  15.707  12.386
84519W        W48727  34.385  16.165  13.311
84520W        W48728  15.611  33.602  12.426
84521W        W48729  34.548   2.752   2.342
84522W        W48730  23.051  19.130   0.367
84523W        W48731  43.419  23.568   4.818
84524W        W48732  17.569  40.497   0.480
84525W        W48733  10.229  12.851   4.805
84526W        W48734  12.688   9.212  14.411
84527W        W48735  34.880  30.917   4.298
84528W        W48736  10.227  17.173   4.266
84529W        W48737   8.670   5.384  13.394
84530W        W48738  38.356  37.418  10.958
84531W        W48739  16.212   7.751   4.801
84532W        W48740  21.671  43.412   0.740
84533W        W48741  14.110  27.063  12.848
84534W        W48742  14.253  37.022   0.314
84535W        W48743  36.531  14.212   3.660
84536W        W48744  12.127  19.615   4.270
84537W        W48745  20.613  28.181  13.359
84538W        W48746  35.359  37.548  12.981
84539W        W48747  21.661  26.494   3.847
84540W        W48748  11.336   7.340  12.842
84541W        W48749  39.814   2.260   2.781
84542W        W48750  15.671  13.725  14.455
84543W        W48751  12.284  43.914  11.107
84544W        W48752  39.517  43.465  12.559
84545W        W48753  12.340  19.639   5.082
84546W        W48754  16.747  24.023   3.747
84547W        W48755  32.894   0.962   4.820
84548W        W48756  26.697  13.757  13.983
84549W        W48757  38.452  30.039  13.356
84550W        W48758  33.530  37.080  14.025
84551W        W48759   2.805  26.009   2.299
84552W        W48760   4.765  26.603   0.472
84553W        W48761  31.548   2.910  12.566
84554W        W48762   4.906  19.090   2.355
84555W        W48763  41.446  17.248   3.164
84556W        W48764   7.224  11.222   2.189
84557W        W48765  29.535   3.382  14.436
84558W        W48766  33.507  25.661   1.243
84559W        W48767  12.720  40.052  10.575
84560W        W48768  20.068   5.312   5.176
84561W        W48769  26.197  34.091   1.418
84562W        W48770   6.267  39.411   0.889
84563W        W48771  25.578  27.136  10.979
84564W        W48772  41.838  30.475  11.019
84565W        W48773  34.550   7.901   4.646
84566W        W48774  35.923  40.416  11.897
84567W        W48775  39.008   0.769  13.359
84568W        W48776  43.006  25.469   3.804
84569W        W48777  41.429  43.453  13.425
84570W        W48778  13.649  11.256  14.879
84571W        W48779  35.039  31.914   5.312
84572W        W48780  19.768  21.243   1.309
84573W        W48781   3.950  17.698  10.994
84574W        W48782  42.030  25.477  14.447
84575W        W48783  23.647  17.649   0.868
84576W        W48784  34.552  31.417   2.860
84577W        W48785   8.899   8.874  13.919
84578W        W48786  15.193  27.688  14.812
84579W        W48787  19.713   4.912  12.995
84580W        W48788  35.944  21.580   3.716
84581W        W48789   0.269  21.713   0.251
84582W        W48790  16.731  20.573  12.027
84583W        W48791  33.119   6.719  14.887
84584W        W48792  40.021  36.872  11.426
84585W        W48793  27.464  31.463  11.371
84586W        W48794  41.359   8.340  12.051
84587W        W48795  43.884  24.038   0.749
84588W        W48796  18.065  13.153  12.429
84589W        W48797  43.881  16.091   4.658
84590W        W48798  36.850  20.565  14.395
84591W        W48799  34.411  44.397   3.330
84592W        W48800  40.347  21.189   2.242
84593W        W48801   2.837  31.107   1.348
84594W        W48802  26.967  38.001  13.859
84595W        W48803   3.800  30.085   0.742
84596W        W48804  41.861  39.495   2.190
84597W        W48805   9.678   7.888   1.388
84598W        W48806  41.949   7.678   4.782
84599W        W48807   0.791  18.575   4.307
84600W        W48808   2.948  19.042   4.258
84601W        W48809  44.293  31.522   2.900
84602W        W48810  23.200   6.400   0.469
84603W        W48811  40.355  12.181   2.857
84604W        W48812  44.008  15.153  11.460
84605W        W48813  35.395  27.026   0.739
84606W        W48814  28.528   4.718  14.862
84607W        W48815  15.222  23.087   0.464
84608W        W48816  27.604  10.296   3.699
84609W        W48817  35.102  42.497  11.884
84610W        W48818  20.762  15.737  11.958
84611W        W48819  15.781  10.230  11.527
84612W        W48820  11.253  38.551   2.357
84613W        W48821  22.178  38.857   2.842
84614W        W48822  14.817  43.988  11.855
84615W        W48823  34.536  43.796  14.286
84616W        W48824  20.103   7.264  13.949
84617W        W48825  44.830   5.893  10.943
84618W        W48826  35.362  31.516  11.910
84619W        W48827  30.543  27.559   0.842
84620W        W48828   2.948  17.172  13.402
84621W        W48829  13.182  23.611   2.720
84622W        W48830  40.417  33.962  14.917
84623W        W48831  13.773  42.402  11.954
84624W        W48832  16.647  20.606   4.319
84625W        W48833  23.200   4.407  10.444
84626W        W48834   9.798  22.135   0.946
84627W        W48835  41.342  30.453   0.956
84628W        W48836  39.922  42.028   2.211
84629W        W48837  18.783   1.969   4.768
84630W        W48838  20.751   6.333   0.269
84631W        W48839  31.980   9.713   0.945
84632W        W48840   8.870  10.730   3.166
84633W        W48841  20.684  38.840   9.504
84634W        W48842  36.003  41.859   3.150
84635W        W48843  41.353   2.245  13.863
84636W        W48844  18.712  28.457  10.918
84637W        W48845  21.132  21.029   3.681
84638W        W48846  15.328   6.832   4.608
84639W        W48847  24.709  27.674   1.922
84640W        W48848  24.485   0.899  12.012
84641W        W48849  36.520  20.243  14.349
84642W        W48850   1.345  40.414  11.869
84643W        W48851  20.623  26.471  13.439
84644W        W48852   0.838  35.052   1.767
84645W        W48853  44.371   7.286   0.411
84646W        W48854   8.710  39.432  14.388
84647W        W48855  27.457   5.932  12.367
84648W        W48856  43.367  19.197  13.017
84649W        W48857  24.488  24.565  12.838
84650W        W48858  13.806   6.863   4.176
84651W        W48859   3.226  29.604   0.324
84652W        W48860  38.992   9.310   2.692
84653W        W48861  24.499   2.963  14.974
84654W        W48862  26.957  25.143  11.001
84655W        W48863  31.070  19.693   4.294
84656W        W48864   9.353  38.995   1.877
84657W        W48865  32.114  10.248  14.490
84658W        W48866   7.279  23.159   1.802
84659W        W48867  20.120  19.578  13.423
84660W        W48868  37.439  43.002   4.790
84661W        W48869   1.766   5.703   2.333
84662W        W48870  33.027   1.862   2.753
84663W        W48871  14.251  27.449   2.371
84664W        W48872   2.463  38.932   4.209
84665W        W48873  33.473  38.968  10.411
84666W        W48874  15.607  43.984  14.860
84667W        W48875  13.741   7.814  10.620
84668W        W48876  39.002  43.846  13.413
84669W        W48877  27.589  28.093  10.498
84670W        W48878   5.800   2.328  10.464
84671W        W48879  36.006  39.542  12.433
84672W        W48880   1.965  42.349   0.872
84673W        W48881  10.178  16.684  14.443
84674W        W48882  44.783  27.048  13.964
84675W        W48883  17.278  14.746  13.998
84676W        W48884  13.347   9.266   4.311
84677W        W48885  25.120  13.721  14.895
84678W        W48886  33.054  36.470   2.762
84679W        W48887  13.745  43.356  11.010
84680W        W48888  35.392   3.854  10.478
84681W        W48889   8.836  17.630  10.488
84682W        W48890  12.316  19.694   0.901
84683W        W48891   1.895  38.339   0.470
84684W        W48892  43.948   0.317  12.558
84685W        W48893   6.693  38.998  12.040
84686W        W48894  18.623  38.897   2.307
84687W        W48895  35.495   8.301  13.793
84688W        W48896  11.307  13.748   2.884
84689W        W48897  40.885  10.699   3.771
84690W        W48898  31.042  43.499  14.446
84691W        W48899  10.315   3.322  11.128
84692W        W48900  24.675  37.351   2.670
84693W        W48901  16.230  36.990  10.901
84694W        W48902   0.491  23.628   3.202
84695W        W48903  32.549  43.007  11.926
84696W        W48904  18.660  41.004  10.610
84697W        W48905   2.354  13.223  12.358
84698W        W48906  44.826  37.854  14.803
84699W        W48907  24.054  22.638  12.508
84700W        W48908   6.313  25.172   4.193
84701W        W48909   7.854  22.187  14.488
84702W        W48910  10.237  28.579   1.912
84703W        W48911  12.134  43.498  13.314
84704W        W48912  40.491  27.122  12.499
84705W        W48913  12.804   8.864   3.727
84706W        W48914  36.427   4.826   4.699
84707W        W48915  28.537  32.126  10.134
84708W        W48916  11.846   0.337  12.469
84709W        W48917  43.969  34.566  12.076
84710W        W48918  32.606  13.805  11.999
84711W        W48919  40.488   3.220   0.248
84712W        W48920  16.707  14.648   3.309
84713W        W48921   3.420  42.483  12.541
84714W        W48922  17.247  11.622   3.849
84715W        W48923   6.722  37.501   2.193
84716W        W48924  18.079  10.725   3.362
84717W        W48925   0.963  34.023   1.380
84718W        W48926  15.171  10.372  14.764
84719W        W48927  11.832  43.979   0.354
84720W        W48928   1.950  17.599   2.406
84721W        W48929  44.469   8.784   1.443
84722W        W48930  23.672  40.992   0.351
84723W        W48931  10.192  20.546  11.001
84724W        W48932  10.351  16.706   2.190
84725W        W48933  16.242   4.320  11.518
84726W        W48934  23.078  25.054   2.893
84727W        W48935   6.856  17.677  10.983
84728W        W48936  33.994   9.294  10.998
84729W        W48937   2.241  43.387   0.388
84730W        W48938  31.951  44.365  10.958
84731W        W48939   5.877   8.266  13.905
84732W        W48940  16.700  16.604   2.837
84733W        W48941  37.481  32.082  12.992
84734W        W48942  30.154   9.216  10.434
84735W        W48943   8.206  18.293   1.908
84736W        W48944   6.246  28.028   1.363
84737W        W48945   1.458  10.364  12.381
84738W        W48946   3.249   2.472   1.793
84739W        W48947  17.607  18.108  11.561
84740W        W48948  31.456  37.079   4.153
84741W        W48949   5.834  34.934  13.984
84742W        W48950  32.013  34.557   1.218
84743W        W48951  39.049  24.583  10.643
84744W        W48952  12.261   0.939   3.274
84745W        W48953  35.016  11.673  13.002
84746W        W48954  32.531   4.810  13.311
84747W        W48955  25.992  14.820  14.358
84748W        W48956  36.516  14.604   1.256
84749W        W48957  31.152  34.965  14.376
84750W        W48958   3.916   9.843   0.433
84751W        W48959  43.393  43.389   1.830
84752W        W48960  33.560  39.060  13.383
84753W        W48961   6.793  23.093   2.322
84754W        W48962  42.895  22.163  11.027
84755W        W48963  31.004   9.799  13.385
84756W        W48964  30.524   8.387   3.152
84757W        W48965  24.609   5.418  12.492
84758W        W48966  21.610   5.366  12.037
84759W        W48967  28.489  21.178   3.311
84760W        W48968  23.568  25.073   4.235
84761W        W48969  19.039   2.434  14.401
84762W        W48970  11.208  16.632   0.927
84763W        W48971  26.644  12.322  14.011
84764W        W48972   1.854  36.872   4.310
84765W        W48973  30.611  26.984   1.351
84766W        W48974  14.301  17.719   4.268
84767W        W48975  43.358  26.518   4.762
84768W        W48976   4.708  36.954  14.282
84769W        W48977   1.299  35.414   0.964
84770W        W48978   8.693  37.432  14.941
84771W        W48979  14.699  13.122   4.674
84772W        W48980  26.664  11.334  13.533
84773W        W48981  10.876   4.886   2.814
84774W        W48982  31.984  25.980   3.306
84775W        W48983  37.908  44.803   4.613
84776W        W48984  25.089  35.393  11.000
84777W        W48985   1.753  28.569   4.626
84778W        W48986  41.426  15.685   0.340
84779W        W48987  21.594   2.767  12.877
84780W        W48988   1.389  31.445   3.169
84781W        W48989  10.822  13.681   3.288
84782W        W48990  12.159  36.934   4.152
84783W        W48991  38.826  14.310   2.894
84784W        W48992  24.046  12.182   4.703
84785W        W48993  38.517  39.859   0.878
84786W        W48994  34.989  35.518  12.479
84787W        W48995  19.780  25.528   5.199
84788W        W48996  40.415  24.069  10.960
84789W        W48997  19.217  36.456   2.749
84790W        W48998  25.668  14.659  11.549
84791W        W48999  38.342  36.423   3.722
84792W        W49000  10.756   4.800  14.974
84793W        W49001  34.040  11.251   2.207
84794W        W49002  30.992  22.100   3.659
84795W        W49003  20.601   5.243  11.111
84796W        W49004   4.844  37.415  12.474
84797W        W49005  29.982   4.810  11.010
84798W        W49006   5.906  35.946  11.594
84799W        W49007  18.671  40.906  11.978
84800W        W49008  18.759  18.626  11.528
84801W        W49009  14.183  16.240  12.423
84802W        W49010  20.167   3.443  11.404
84803W        W49011   7.370  25.697   0.917
84804W        W49012  20.544  38.482  10.979
84805W        W49013  37.553   8.387   0.434
84806W        W49014  12.256  44.491  11.063
84807W        W49015   8.300  12.160  10.508
84808W        W49016  42.886  14.720   0.388
84809W        W49017  42.010  16.103  11.606
84810W        W49018  12.223  23.989  14.345
84811W        W49019   2.232  27.567  14.939
84812W        W49020  32.607   5.255  13.539
84813W        W49021   4.259  27.160   1.304
84814W        W49022  26.545  13.200   0.923
84815W        W49023   2.250  40.962  13.390
84816W        W49024  21.623  15.268  13.475
84817W        W49025  16.791  16.813   0.967
84818W        W49026  12.218   5.274  13.988
84819W        W49027  26.952  13.636   1.331
84820W        W49028  43.827  18.656   3.326
84821W        W49029  35.952  14.196   3.373
84822W        W49030  26.984  35.908   4.682
84823W        W49031  33.032  43.478  14.792
84824W        W49032  33.909  41.414  13.460
84825W        W49033  18.215  33.062  14.511
84826W        W49034  22.521   1.348   1.729
84827W        W49035  12.735   8.265   1.908
84828W        W49036  21.030  31.080   1.272
84829W        W49037  39.459   6.296   4.810
84830W        W49038  25.655  31.047  12.933
84831W        W49039  28.130  21.176   3.210
84832W        W49040   6.891   6.253   0.361
84833W        W49041  30.055  26.080  13.406
84834W        W49042   0.844  32.565  12.064
84835W        W49043  38.970  29.507   4.217
84836W        W49044  19.254   6.855   1.417
84837W        W49045  23.599   6.249   3.156
84838W        W49046   5.325  24.021  13.865
84839W        W49047  40.824  16.586  10.428
84840W        W49048   2.230   3.743   1.385
84841W        W49049  33.436  23.634   1.749
84842W        W49050  23.614  32.586  13.000
84843W        W49051   3.242   0.831  12.353
84844W        W49052  24.100  31.059   2.720
84845W        W49053  26.956   3.366  13.023
84846W        W49054  27.599  25.142  11.946
84847W        W49055  29.036  23.511  10.979
84848W        W49056  31.499  40.322  14.916
84849W        W49057  20.164  26.517   3.673
84850W        W49058  38.361  16.297   4.700
84851W        W49059   7.206  38.340   1.841
84852W        W49060  26.053  37.995   4.746
84853W        W49061  11.718  44.332   2.714
84854W        W49062  42.896   9.695   2.288
84855W        W49063  33.469  43.495   1.228
84856W        W49064  10.166  24.029  12.460
84857W        W49065  41.873  22.568   0.950
84858W        W49066  38.458  10.253   0.288
84859W        W49067  29.017  29.486  14.483
84860W        W49068  40.857  19.195  11.011
84861W        W49069   0.921  21.608   0.443
84862W        W49070  10.646   5.409  13.035
84863W        W49071  15.329  33.059  14.401
84864W        W49072  41.918  26.552  12.449
84865W        W49073  28.991  39.047  11.498
84866W        W49074  28.960   9.767   3.366
84867W        W49075  41.035   6.770   4.276
84868W        W49076  41.524  10.871  12.348
84869W        W49077  12.280  19.750  11.392
84870W        W49078  44.995  29.536   5.723
84871W        W49079  11.213  22.080  10.454
84872W        W49080  41.963  26.022   2.832
84873W        W49081  15.292  32.931  10.574
84874W        W49082   0.424  33.060  10.438
84875W        W49083  14.676  11.137   0.920
84876W        W49084   0.958  36.968   9.453
84877W        W49085   4.300  41.444  11.511
84878W        W49086  38.356  41.889   0.883
84879W        W49087  13.140   1.755   1.887
84880W        W49088  26.033  26.680  14.887
84881W        W49089  36.544  40.517  11.956
84882W        W49090  23.514   3.754  11.078
84883W        W49091  28.968  28.180  11.129
84884W        W49092   5.210  10.771  14.784
84885W        W49093  38.897   1.930  12.060
84886W        W49094   0.384  20.147  12.920
84887W        W49095  44.794  14.698  13.327
84888W        W49096  25.161  34.063   0.389
84889W        W49097   3.947  18.167  14.935
84890W        W49098  11.829  21.750  10.642
84891W        W49099   6.263  42.804  10.078
84892W        W49100  17.285  14.194  11.452
84893W        W49101  37.581  13.737  14.769
84894W        W49102  25.551   7.691   3.667
84895W        W49103   3.781  34.445   3.272
84896W        W49104  36.929   9.391  10.553
84897W        W49105  27.015  29.068   3.809
84898W        W49106  41.532  43.492   1.374
84899W        W49107  18.275  15.249  13.404
84900W        W49108  22.728  10.331   1.809
84901W        W49109   2.903   2.419  14.514
84902W        W49110  42.862  43.332  10.596
84903W        W49111   8.848  33.603   2.811
84904W        W49112  20.220   8.372   3.827
84905W        W49113   0.949  32.588  13.891
84906W        W49114  17.062  33.884   9.960
84907W        W49115  10.230   5.831  14.900
84908W        W49116  35.397  34.102   4.682
84909W        W49117   2.281  25.000   3.846
84910W        W49118  21.029  20.047   2.704
84911W        W49119  37.078  22.737   1.711
84912W        W49120  19.598  17.254   4.242
84913W        W49121   1.459  39.383   2.713
84914W        W49122  27.105  15.198   3.838
84915W        W49123  44.950  23.162   1.366
84916W        W49124  44.489  29.075  10.993
84917W        W49125  16.188  21.715  14.876
84918W        W49126  26.118   2.943  12.895
84919W        W49127  29.555  11.134  12.019
84920W        W49128   0.324  34.615  12.563
84921W        W49129  27.535  11.317  10.550
84922W        W49130   3.874  17.706  13.368
84923W        W49131  20.743  38.934  10.570
84924W        W49132   9.821  16.157   1.424
84925W        W49133  17.779  31.055  11.481
84926W        W49134  41.970  44.259  13.975
84927W        W49135   8.281  17.714  11.442
84928W        W49136  17.679   3.921   1.780
84929W        W49137  34.930  31.497   0.835
84930W        W49138  18.269  27.054  10.610
84931W        W49139  16.295  25.706  13.790
84932W        W49140  27.948  28.459   0.778
84933W        W49141  19.092  13.287   3.826
84934W        W49142  26.957  10.171  12.547
84935W        W49143   0.370  23.027  10.462
84936W        W49144  37.994   0.405  13.852
84937W        W49145  34.096  16.141   4.210
84938W        W49146  16.594  12.808  12.935
84939W        W49147   9.275   8.866   2.364
84940W        W49148  17.282  15.086   3.201
84941W        W49149  13.128  33.968   4.708
84942W        W49150  11.763  41.534  14.430
84943W        W49151  13.672  25.179   2.755
84944W        W49152  21.596  44.883   4.729
84945W        W49153  42.394  10.226   4.212
84946W        W49154  42.475  41.981  12.441
84947W        W49155  42.479  41.416  14.479
84948W        W49156  42.796  37.352  12.086
84949W        W49157  43.002  16.262   1.894
84950W        W49158  14.283   2.279  13.803
84951W        W49159  43.798  26.477  12.429
84952W        W49160   8.346  42.429  11.560
84953W        W49161   2.741  29.999  10.446
84954W        W49162  35.571   1.461  12.471
84955W        W49163  31.999  42.523  11.856
84956W        W49164   4.906  36.401   1.397
84957W        W49165  20.580   3.423  14.877
84958W        W49166  43.378  12.854  10.099
84959W        W49167  44.395  24.223  14.305
84960W        W49168   4.431  40.470   1.310
84961W        W49169  27.476   9.703  13.835
84962W        W49170   7.852  19.100   2.342
84963W        W49171   5.247  32.902   1.374
84964W        W49172  25.513  30.439  11.946
84965W        W49173  42.367  44.894  13.014
84966W        W49174  23.069  17.600   0.786
84967W        W49175  36.591  23.162   4.677
84968W        W49176   3.755  10.238   3.205
84969W        W49177  29.644  20.533  13.494
84970W        W49178  42.945   5.277   2.268
84971W        W49179  25.709  13.617   2.214
84972W        W49180  16.777  34.058   2.280
84973W        W49181  34.876  35.058  13.524
84974W        W49182   9.714  18.791  10.550
84975W        W49183  22.115   9.340   1.807
84976W        W49184  28.158  29.042  10.140
84977W        W49185  20.127  11.203  13.976
84978W        W49186  38.403  13.236   0.812
84979W        W49187  26.085   2.461  12.568
84980W        W49188  10.800  44.923   4.726
84981W        W49189  32.940   8.754   3.243
84982W        W49190  11.775  25.051  14.834
84983W        W49191  24.529  21.600  13.333
84984W        W49192   6.250   7.181  13.955
84985W        W49193  32.103  24.173  14.321
84986W        W49194   8.277   4.722  14.937
84987W        W49195  18.193  18.676  12.962
84988W        W49196  43.310   1.260  11.415
84989W        W49197   7.285  22.085   4.199
84990W        W49198  22.197  28.538   0.929
84991W        W49199   6.912  43.918  14.362
84992W        W49200  11.638   6.413  11.971
84993W        W49201  20.067   2.300   2.237
84994W        W49202   5.209   0.770  11.514
84995W        W49203   5.202  39.505  13.028
84996W        W49204  44.337   1.248   1.891
84997W        W49205  16.260  25.078  12.042
84998W        W49206   2.842  44.329  14.999
84999W        W49207  27.599  16.182   3.781
85000W        W49208   8.367  16.744  14.899
85001W        W49209  23.986  10.843  10.508
85002W        W49210  40.523  29.015  10.005
85003W        W49211  33.983   2.349  14.303
85004W        W49212  14.304  19.758   0.341
85005W        W49213  35.858  25.015  13.489
85006W        W49214  36.012  26.976   0.741
85007W        W49215  25.044  15.225  11.054
85008W        W49216  37.513  40.507   0.928
85009W        W49217  16.178   5.241  11.595
85010W        W49218  36.358  10.330  14.978
85011W        W49219  20.633   9.388   4.326
85012W        W49220   8.794  34.898   2.810
85013W        W49221  42.340  21.658   0.955
85014W        W49222   7.327  11.639  12.403
85015W        W49223  10.240  31.042  13.433
85016W        W49224  33.510  15.814   1.700
85017W        W49225  34.876  39.896   1.763
85018W        W49226  19.146  20.224  10.957
85019W        W49227  30.499  17.787  11.855
85020W        W49228  23.684  33.975  12.360
85021W        W49229   0.297  38.389   1.844
85022W        W49230  23.611  24.632   1.412
85023W        W49231  27.071  37.493   0.935
85024W        W49232  30.590  26.677  10.643
85025W        W49233  31.611  27.174  11.021
85026W        W49234  26.208   9.810   2.267
85027W        W49235  36.552   6.220  13.529
85028W        W49236  30.480  15.242   0.878
85029W        W49237  29.043   0.475   1.294
85030W        W49238  26.065  25.513  12.869
85031W        W49239  37.414  15.612  14.784
85032W        W49240  37.544  21.714  13.515
85033W        W49241   5.354  15.272  11.882
85034W        W49242  18.232  21.584   2.693
85035W        W49243  33.395  24.094   1.903
85036W        W49244  23.571  27.050   3.859
85037W        W49245  36.533  25.097  12.479
85038W        W49246  21.053  38.920   5.195
85039W        W49247  39.430  15.260  10.559
85040W        W49248  32.019  41.371  14.409
85041W        W49249  43.781  25.703  13.338
85042W        W49250  32.981  29.611  12.477
85043W        W49251  42.518  17.225  10.634
85044W        W49252  24.177  44.280   3.733
85045W        W49253  20.628   7.675   0.273
85046W        W49254  19.549  18.170  13.337
85047W        W49255  30.626   8.187  13.424
85048W        W49256  35.059   0.320  11.508
85049W        W49257   3.896   0.385  10.927
85050W        W49258  32.550  10.237  11.047
85051W        W49259  32.904  42.468  14.319
85052W        W49260  34.413  10.177  11.498
85053W        W49261  27.585   6.306  13.825
85054W        W49262   2.269  41.421   2.779
85055W        W49263  35.927  20.766   1.276
85056W        W49264  19.649  12.728  14.871
85057W        W49265  21.193  31.043  12.091
85058W        W49266  14.698  12.751  13.495
85059W        W49267  24.591   6.793  13.480
85060W        W49268  25.608   4.413  13.421
85061W        W49269  28.626  28.437   1.815
85062W        W49270  35.863  15.179  11.883
85063W        W49271  27.178  26.174  13.321
85064W        W49272   8.369  23.001  14.385
85065W        W49273  10.380  10.249  13.960
85066W        W49274  11.274  25.644   0.408
85067W        W49275  15.299  21.558  10.891
85068W        W49276  26.624  13.804  13.039
85069W        W49277   0.435  10.863  13.888
85070W        W49278  20.128  12.642   4.762
85071W        W49279   5.230   9.836   4.353
85072W        W49280  29.945  33.382  11.512
85073W        W49281   1.956  33.509   4.229
85074W        W49282  33.458  40.521  11.891
85075W        W49283  27.497  12.125  12.360
85076W        W49284  14.178  31.989   2.734
85077W        W49285   1.300  42.925   1.280
85078W        W49286  41.441  21.588  13.807
85079W        W49287  44.410   1.415   2.294
85080W        W49288  12.147   4.323  14.002
85081W        W49289  43.801   0.766   2.836
85082W        W49290  26.502  41.786   5.170
85083W        W49291   8.220  15.791   0.897
85084W        W49292  39.556  32.617  11.912
85085W        W49293  44.319   9.755   0.948
85086W        W49294  34.118   4.839   4.188
85087W        W49295  23.490  16.629   5.608
85088W        W49296  39.846  10.308   4.328
85089W        W49297  32.449   4.239   2.264
85090W        W49298   0.289  20.618   1.793
85091W        W49299  30.073   5.914  11.865
85092W        W49300  18.634  17.713   0.919
85093W        W49301  41.929   3.890   2.218
85094W        W49302  10.373  24.067   0.915
85095W        W49303  18.098  36.529  13.053
85096W        W49304  44.854  22.215  12.383
85097W        W49305  25.652  10.222   4.668
85098W        W49306  37.515  22.598   4.675
85099W        W49307  38.048  15.653  13.047
85100W        W49308  39.346  10.334  10.431
85101W        W49309  33.441  39.438   3.680
85102W        W49310  16.589   1.271  11.437
85103W        W49311  36.351  15.784  12.917
85104W        W49312  38.054  22.577  12.376
85105W        W49313  36.524  17.074  13.361
85106W        W49314  38.475   1.977  12.002
85107W        W49315  14.195  15.703   2.723
85108W        W49316  23.713  21.686   0.931
85109W        W49317  22.093  29.060   1.302
85110W        W49318  33.094  35.540  13.890
85111W        W49319   2.864  29.158  13.004
85112W        W49320   4.430  12.734   4.832
85113W        W49321  43.444  35.488  10.449
85114W        W49322  24.592  18.086  11.599
85115W        W49323  36.057  22.724   2.321
85116W        W49324  12.725   5.364  12.891
85117W        W49325  43.009  31.977   2.900
85118W        W49326  14.734  37.055   4.138
85119W        W49327  11.139  40.882   0.735
85120W        W49328  23.639  37.521   2.787
85121W        W49329  41.904  43.336   2.180
85122W        W49330   4.232   4.446  10.451
85123W        W49331  17.740  31.531   4.192
85124W        W49332   1.825   2.419   3.214
85125W        W49333  38.384  25.064   3.709
85126W        W49334  42.894  18.194  10.537
85127W        W49335  42.899  42.886   3.670
85128W        W49336  33.408  27.944  11.886
85129W        W49337   0.880  33.912   5.211
85130W        W49338  27.507  10.795   0.267
85131W        W49339  35.029  27.038  13.944
85132W        W49340  31.038  44.328  13.431
85133W        W49341  25.472  31.022   1.907
85134W        W49342  30.594  37.433   1.327
85135W        W49343  23.517  13.683   1.231
85136W        W49344  26.134  42.495   1.708
85137W        W49345  41.393  39.378  14.909
85138W        W49346  42.987   8.660   3.689
85139W        W49347  34.578  37.048  12.554
85140W        W49348  22.745  14.232  14.799
85141W        W49349   8.322  27.108   1.368
85142W        W49350  14.619  37.011  13.507
85143W        W49351   5.209  42.499   2.698
85144W        W49352  16.677   5.306   4.146
85145W        W49353  34.574   9.238  14.031
85146W        W49354   1.403  35.020  10.911
85147W        W49355  16.168  29.586   0.739
85148W        W49356  25.105  29.580  11.942
85149W        W49357  36.010   0.839   3.173
85150W        W49358  40.368   6.818   3.671
85151W        W49359  16.614  39.889   3.719
85152W        W49360  20.263  31.112   0.415
85153W        W49361  42.457  16.308   9.546
85154W        W49362  41.462  10.784  14.465
85155W        W49363  33.050  24.673  11.980
85156W        W49364  29.072  33.449   1.698
85157W        W49365  32.476  35.055  10.476
85158W        W49366   0.873  26.511   4.837
85159W        W49367  20.144  35.480  12.580
85160W        W49368   5.406  38.954  14.319
85161W        W49369   2.283  13.205  11.111
85162W        W49370  34.024  42.997   4.171
85163W        W49371  20.061  12.762   1.911
85164W        W49372  44.373   9.217  11.464
85165W        W49373  33.430  10.280   4.280
85166W        W49374  36.003  28.644   0.426
85167W        W49375  22.696  28.959  13.801
85168W        W49376  18.624  37.898   3.308
85169W        W49377   3.281  38.401   4.331
85170W        W49378  28.482  27.062  10.531
85171W        W49379  23.065   4.269  14.002
85172W        W49380  13.694  35.911  12.016
85173W        W49381  28.494   7.286   0.749
85174W        W49382  30.429  11.777  12.976
85175W        W49383  17.233  19.173   2.417
85176W        W49384  35.052  20.602   0.344
85177W        W49385  23.545  14.821  12.853
85178W        W49386  40.433  38.463  11.045
85179W        W49387  26.010   6.716  13.836
85180W        W49388  39.495  23.007  14.018
85181W        W49389  24.161   9.818  14.024
85182W        W49390  18.588  10.868   2.184
85183W        W49391  44.767  24.516   1.360
85184W        W49392  19.188  33.113  12.950
85185W        W49393  29.996   2.833  13.864
85186W        W49394   4.798  35.886  14.942
85187W        W49395  22.680   2.729  10.145
85188W        W49396  12.196  13.688  13.520
85189W        W49397   2.742   1.294   2.323
85190W        W49398  34.545  24.226   1.233
85191W        W49399   0.394  27.538   0.922
85192W        W49400  42.291  19.066  13.537
85193W        W49401  20.061  35.046   3.725
85194W        W49402   0.419  16.605  14.457
85195W        W49403   5.711   7.744   4.778
85196W        W49404  23.722  17.153   1.763
85197W        W49405  40.901   1.807   0.870
85198W        W49406  16.606  10.169  11.090
85199W        W49407  21.728  34.411  13.818
85200W        W49408  20.729   6.422  12.005
85201W        W49409  12.634   2.867  10.483
85202W        W49410  18.149  40.821   0.280
85203W        W49411   3.777  23.187   4.188
85204W        W49412   0.463  28.454  14.331
85205W        W49413   8.757  13.134   3.632
85206W        W49414  26.105  10.260  14.428
85207W        W49415  29.451   1.481  10.640
85208W        W49416   2.856  15.721   2.796
85209W        W49417  33.886  34.502  14.400
85210W        W49418  14.694  17.568   2.213
85211W        W49419  30.125  40.438   1.343
85212W        W49420  10.862  27.166  11.936
85213W        W49421   0.776  26.207   2.216
85214W        W49422  35.585  37.856   2.822
85215W        W49423  14.761  38.923   3.779
85216W        W49424  22.071  10.254   3.289
85217W        W49425   3.716  31.135   3.681
85218W        W49426  20.066  33.007   4.165
85219W        W49427   3.350  15.172  11.563
85220W        W49428  43.016  10.312   1.762
85221W        W49429  37.510  35.601  12.063
85222W        W49430  30.148  31.058   3.684
85223W        W49431  42.520   5.698   2.788
85224W        W49432   2.314  29.011   0.432
85225W        W49433  13.679  19.170  13.026
85226W        W49434  40.832  15.098   1.285
85227W        W49435  28.969   4.905   0.254
85228W        W49436  44.889   1.917   3.314
85229W        W49437   5.904  18.624   2.281
85230W        W49438  39.505  23.626  13.486
85231W        W49439  36.513   9.781  13.990
85232W        W49440  35.501  40.387   3.790
85233W        W49441  43.449  18.272  10.619
85234W        W49442  16.217  17.235   2.833
85235W        W49443  37.455   1.367  11.987
85236W        W49444  22.124   2.816   4.205
85237W        W49445   3.416  15.730   0.461
85238W        W49446  32.502  20.666   0.748
85239W        W49447  38.493  14.097  13.465
85240W        W49448  14.828  36.459  12.027
85241W        W49449  24.580   8.806  11.103
85242W        W49450  21.246  41.796   0.474
85243W        W49451   0.777  44.795   3.189
85244W        W49452  17.134  31.051   1.694
85245W        W49453  30.578  19.253  10.954
85246W        W49454   2.325   6.328   1.873
85247W        W49455  43.926  37.546   4.638
85248W        W49456  10.205  20.207   1.809
85249W        W49457  23.066  31.457   1.306
85250W        W49458  31.408   3.372   3.229
85251W        W49459  24.537  10.314  13.347
85252W        W49460   2.932  15.087  11.579
85253W        W49461  42.486  30.575   4.271
85254W        W49462   8.784  27.639  14.791
85255W        W49463  23.061  26.120  14.305
85256W        W49464   0.969  27.011   4.699
85257W        W49465  44.917   4.802   2.792
85258W        W49466  11.665  25.517  11.909
85259W        W49467  19.079  10.866   3.350
85260W        W49468   8.870   8.369  10.514
85261W        W49469  37.998  10.871  13.919
85262W        W49470   4.432  39.390  10.409
85263W        W49471   8.886   5.288   3.757
85264W        W49472  10.674   1.286  10.971
85265W        W49473  38.456  39.024  11.515
85266W        W49474   6.333  44.821   2.384
85267W        W49475  30.079  40.516   0.920
85268W        W49476   0.429  10.683  11.460
85269W        W49477  29.095  16.264   4.197
85270W        W49478  16.794   4.736  11.585
85271W        W49479  19.617  18.645  11.101
85272W        W49480   5.300  16.094  13.516
85273W        W49481  27.005  22.125   4.603
85274W        W49482   8.326   4.914   3.383
85275W        W49483  24.572  41.401  13.872
85276W        W49484  24.657  32.004   2.308
85277W        W49485  21.549  20.129  14.321
85278W        W49486  38.341   4.916  14.456
85279W        W49487  41.476  16.225  13.963
85280W        W49488  12.263  19.168  13.515
85281W        W49489  38.006   9.392   4.214
85282W        W49490  10.375  14.683  10.945
85283W        W49491  25.705  28.144  14.435
85284W        W49492   0.468   5.244  14.467
85285W        W49493  25.704  27.012  13.454
85286W        W49494  33.933  11.672   4.769
85287W        W49495  34.959  31.429  10.579
85288W        W49496  39.863  23.037   1.217
85289W        W49497  43.352  40.995  13.489
85290W        W49498  30.948  30.928  11.995
85291W        W49499   4.844  11.273   5.197
85292W        W49500  43.914   0.409   1.237
85293W        W49501  21.163  19.213  12.891
85294W        W49502  30.953  12.150  12.015
85295W        W49503  24.028  19.196  11.061
85296W        W49504   6.808  18.605   3.270
85297W        W49505  11.722  15.696  11.431
85298W        W49506  38.065  41.803   4.766
85299W        W49507  21.197  30.050   4.623
85300W        W49508  12.240  33.527  13.426
85301W        W49509  43.306  42.444   0.874
85302W        W49510  16.626  31.148  10.539
85303W        W49511  30.128   4.430   4.166
85304W        W49512  19.577  29.440   1.439
85305W        W49513  24.626  10.213  10.991
85306W        W49514   7.853  42.284   2.335
85307W        W49515   4.886   3.424  11.037
85308W        W49516   1.361  24.702  10.625
85309W        W49517  40.810  22.164   0.964
85310W        W49518  25.034  41.337  11.456
85311W        W49519   8.403   8.890  13.341
85312W        W49520  33.556  36.030  14.800
85313W        W49521  33.067  20.056   2.815
85314W        W49522   2.350  23.229   1.283
85315W        W49523  21.564   0.837   2.693
85316W        W49524  23.519  15.712  12.946
85317W        W49525  18.708  15.232  13.920
85318W        W49526  14.165  36.846   0.945
85319W        W49527  25.557  34.496  12.464
85320W        W49528  44.910  11.639   2.218
85321W        W49529  30.111  14.596  14.910
85322W        W49530  22.698  22.592  14.844
85323W        W49531  33.526  36.469  10.582
85324W        W49532  11.305   3.395  10.431
85325W        W49533  31.074  12.611  12.854
85326W        W49534  39.892  15.253  14.032
85327W        W49535   1.927  21.588  14.346
85328W        W49536  14.194  19.652  10.559
85329W        W49537  25.208  42.015  10.460
85330W        W49538  11.135  10.837  10.491
85331W        W49539   8.367  21.191  10.136
85332W        W49540  13.775  33.447   4.649
85333W        W49541  38.875   4.712   4.781
85334W        W49542   0.821  32.481  13.037
85335W        W49543  37.061  18.240  11.091
85336W        W49544   4.728  17.268  11.066
85337W        W49545  21.745  24.143  14.907
85338W        W49546  41.421  21.132   4.211
85339W        W49547  35.562  16.583  12.360
85340W        W49548   1.929  43.783  12.474
85341W        W49549   4.281  18.592   4.744
85342W        W49550  14.605  18.581  13.801
85343W        W49551  33.954  35.967  13.887
85344W        W49552  23.011  38.044  11.446
85345W        W49553  11.333  43.917   2.183
85346W        W49554  15.753  11.307   2.673
85347W        W49555  37.859  25.126   9.974
85348W        W49556  27.066  25.219   4.634
85349W        W49557  40.828  22.518   0.339
85350W        W49558  44.798   5.340  14.032
85351W        W49559  32.509   6.249   2.860
85352W        W49560  18.658   7.409  14.992
85353W        W49561  39.841  28.512   1.255
85354W        W49562  31.506  38.981  14.912
85355W        W49563  20.718  16.280   1.224
85356W        W49564   8.886   1.963   3.369
85357W        W49565  39.887  40.324  12.917
85358W        W49566  25.218  15.113   2.412
85359W        W49567   2.247  38.066   3.234
85360W        W49568  30.615  37.070  14.472
85361W        W49569   8.896  41.808   3.326
85362W        W49570  42.848   7.300   2.796
85363W        W49571  35.925  29.489  14.970
85364W        W49572   7.860  31.116  11.128
85365W        W49573  12.771   5.713   0.961
85366W        W49574  16.134  15.286   3.797
85367W        W49575   1.357  39.429   3.316
85368W        W49576  10.820  26.117   4.811
85369W        W49577   5.713  18.642  13.935
85370W        W49578  44.263  10.807   9.959
85371W        W49579  38.490  30.568   0.742
85372W        W49580  40.966  22.166   2.186
85373W        W49581  43.788  25.613  12.428
85374W        W49582  14.226  40.909   3.278
85375W        W49583  13.162  37.935  14.411
85376W        W49584  39.470  26.076  14.894
85377W        W49585  15.594  37.888   2.782
85378W        W49586  26.986   3.884  13.416
85379W        W49587  22.699  38.482  13.449
85380W        W49588  23.191  23.992   4.670
85381W        W49589  28.601   9.201   1.332
85382W        W49590  40.911  23.631  13.545
85383W        W49591  15.159   0.903   1.709
85384W        W49592   4.931  37.057   1.436
85385W        W49593  16.279  43.844   3.288
85386W        W49594  35.920   8.873  12.976
85387W        W49595  10.807  10.774   1.212
85388W        W49596  36.012  34.455   3.204
85389W        W49597   0.955  23.163  10.899
85390W        W49598  26.670  36.925  11.118
85391W        W49599   1.370   4.283  12.966
85392W        W49600   7.308  22.573  14.476
85393W        W49601  16.160   2.233  10.408
85394W        W49602  29.127  16.155  10.634
85395W        W49603  43.428   3.370   2.851
85396W        W49604  38.331  26.507   1.244
85397W        W49605  43.444  34.410  10.888
85398W        W49606  21.135   3.421  10.514
85399W        W49607  19.259  23.727   2.406
85400W        W49608  20.670  21.177   4.233
85401W        W49609  42.018   6.704  14.490
85402W        W49610  22.508   7.785   3.865
85403W        W49611   3.264  22.142  11.374
85404W        W49612  29.034   2.823  14.805
85405W        W49613  28.519  26.531  12.422
85406W        W49614   3.768  17.094  13.999
85407W        W49615   4.427  20.194  13.905
85408W        W49616   8.824  22.655  14.374
85409W        W49617  22.213  28.681  11.486
85410W        W49618  44.860  19.702  12.975
85411W        W49619  39.886  12.845  14.443
85412W        W49620  27.140  35.885   0.914
85413W        W49621  24.576  17.195   0.464
85414W        W49622  38.864  18.149   0.756
85415W        W49623  39.551  44.342   4.613
85416W        W49624  34.580  19.738  13.835
85417W        W49625  35.533  23.042   3.630
85418W        W49626  23.101   0.885   4.644
85419W        W49627  39.450  30.068  12.559
85420W        W49628  37.840  13.105  14.438
85421W        W49629   0.891  34.378  10.602
85422W        W49630  39.836  25.205   4.354
85423W        W49631  40.800  27.123  13.056
85424W        W49632  26.983   7.682  12.432
85425W        W49633  32.492  38.888  12.017
85426W        W49634   3.780  28.939  14.022
85427W        W49635  26.619  26.995  14.308
85428W        W49636  28.120  33.395  10.416
85429W        W49637  26.471  26.611   0.864
85430W        W49638   8.745  38.053  14.012
85431W        W49639  33.001  14.697   0.376
85432W        W49640  28.080  22.121   3.829
85433W        W49641  39.037  17.782  12.030
85434W        W49642  22.136  34.105   0.846
85435W        W49643  26.059  31.990   1.384
85436W        W49644  15.166  11.722   1.280
85437W        W49645  24.975  44.372  12.447
85438W        W49646  13.129  43.372   3.237
85439W        W49647  23.710  24.059  14.294
85440W        W49648  21.224  38.539   2.299
85441W        W49649  26.017  30.552  11.480
85442W        W49650  18.589  35.540  10.924
85443W        W49651  42.898   0.841   5.294
85444W        W49652  44.793  20.699   4.641
85445W        W49653  23.157  20.074  12.938
85446W        W49654  39.996  21.189  11.388
85447W        W49655  14.628  12.647   2.685
85448W        W49656  42.479  26.061   4.301
85449W        W49657  42.397  11.279  11.917
85450W        W49658   2.249   3.427   2.788
85451W        W49659  15.160   5.330  13.393
85452W        W49660  26.010   4.715  13.338
85453W        W49661  17.781  36.416   3.807
85454W        W49662  13.210  13.271   0.799
85455W        W49663  42.403  28.132  13.455
85456W        W49664  17.189   2.771   4.727
85457W        W49665  43.879  28.006   2.811
85458W        W49666  32.579  44.913  13.942
85459W        W49667  30.438  21.556   2.292
85460W        W49668  29.053  24.613   0.371
85461W        W49669  22.167  19.755   3.370
85462W        W49670  39.558  16.080   4.286
85463W        W49671  35.496  40.834  11.511
85464W        W49672  25.216  10.371  14.776
85465W        W49673  32.455   8.771   1.836
85466W        W49674  41.892  12.737   9.946
85467W        W49675  14.781  17.176   4.311
85468W        W49676   8.848   3.771  12.087
85469W        W49677   6.423  31.583   0.324
85470W        W49678   2.426  33.013   2.200
85471W        W49679   0.799  34.077   0.839
85472W        W49680  19.768  44.262   1.727
85473W        W49681  21.736  29.165   5.314
85474W        W49682   6.355  24.649   3.757
85475W        W49683  18.199  20.247   4.236
85476W        W49684  21.633  11.822  10.901
85477W        W49685  14.646  20.527  13.955
85478W        W49686  17.227   5.297   2.291
85479W        W49687  34.057  10.869  10.610
85480W        W49688   6.903   0.309  12.429
85481W        W49689  28.474  37.028   0.309
85482W        W49690   0.743   4.917  11.421
85483W        W49691  17.780  24.092   3.637
85484W        W49692  35.867  26.463   1.421
85485W        W49693  23.025  20.103  10.637
85486W        W49694  26.587  21.113   0.907
85487W        W49695  41.461  39.932   1.362
85488W        W49696  34.971  15.701  11.559
85489W        W49697  26.651   4.801   1.841
85490W        W49698  25.503   4.304   2.800
85491W        W49699   7.371  42.497  13.371
85492W        W49700  44.932  10.240  10.936
85493W        W49701  33.557   0.982  12.875
85494W        W49702  34.959  30.053  12.510
85495W        W49703   0.976  33.492   5.758
85496W        W49704  40.508  35.975  13.886
85497W        W49705  28.045   4.403   1.345
85498W        W49706   5.316  43.793  11.942
85499W        W49707  32.467  37.086   1.306
85500W        W49708  16.802  13.314  14.816
85501W        W49709  34.911  11.158   4.683
85502W        W49710   9.732   3.294  13.935
85503W        W49711  44.416   4.789  12.968
85504W        W49712  34.942  20.695  12.064
85505W        W49713  15.751  16.803  13.319
85506W        W49714   3.236  20.533   1.344
85507W        W49715  16.753   1.804  13.473
85508W        W49716  42.382  23.610   4.655
85509W        W49717   8.230  15.316  13.035
85510W        W49718  23.058  27.608   0.392
85511W        W49719  29.017  44.871  13.378
85512W        W49720  13.736  38.949  14.283
85513W        W49721  39.408  26.028   4.124
85514W        W49722  35.528   5.245   2.361
85515W        W49723   6.228  29.065  13.526
85516W        W49724  44.307  10.208   0.727
85517W        W49725  34.119   3.227  11.991
85518W        W49726   9.889  11.651  10.452
85519W        W49727  25.480  15.220   1.917
85520W        W49728  15.739  31.914   1.751
85521W        W49729  22.576   0.860   4.764
85522W        W49730   9.875   9.863   0.323
85523W        W49731  17.141  26.590  13.045
85524W        W49732   0.811  41.362   2.335
85525W        W49733  32.413  29.131  14.409
85526W        W49734   8.198  37.908  10.907
85527W        W49735   1.321  27.453   4.770
85528W        W49736   6.342  22.050   3.169
85529W        W49737  34.036   0.904   0.865
85530W        W49738  37.839  29.472   0.369
85531W        W49739  30.489  39.949  11.589
85532W        W49740  41.837  33.549   3.193
85533W        W49741  37.041   9.371  14.879
85534W        W49742  28.092   8.790   4.247
85535W        W49743  44.318  41.341   0.394
85536W        W49744  38.552  35.966   2.799
85537W        W49745  43.367   7.276  14.012
85538W        W49746  38.414   0.457  13.541
85539W        W49747  31.090  28.100  10.595
85540W        W49748  41.443  20.084   0.477
85541W        W49749  32.000  10.696   0.745
85542W        W49750  13.696  18.552   1.715
85543W        W49751  30.954   6.787   0.403
85544W        W49752  12.271  25.600  13.026
85545W        W49753   3.940  29.163  11.085
85546W        W49754  24.628  38.518  13.453
85547W        W49755  28.454  31.443  12.401
85548W        W49756  42.904   0.338   4.767
85549W        W49757  17.619  21.068  10.897
85550W        W49758   1.735  35.016   3.378
85551W        W49759  42.838   8.301  14.992
85552W        W49760   8.181   6.914  12.419
85553W        W49761  36.583  23.615   5.198
85554W        W49762   8.237  11.249   2.413
85555W        W49763  21.136   5.277   4.611
85556W        W49764   5.414  32.489  12.489
85557W        W49765  18.642  15.787   5.103
85558W        W49766  28.544  39.965   4.622
85559W        W49767  24.608  34.066   2.736
85560W        W49768  16.798  15.758  14.474
85561W        W49769  31.438   2.735   4.657
85562W        W49770  18.096  14.742  13.905
85563W        W49771  39.001  17.711  12.848
85564W        W49772  40.494  40.824   3.801
85565W        W49773  25.474  31.571   3.285
85566W        W49774  33.016  40.438   3.866
85567W        W49775   2.923  44.971  10.997
85568W        W49776  13.602   1.877  10.952
85569W        W49777  41.383  19.608   1.310
85570W        W49778  26.697  14.591  13.500
85571W        W49779  39.977   6.778   2.892
85572W        W49780   1.963  31.045  11.122
85573W        W49781  22.710  32.080   0.299
85574W        W49782   4.799   1.962  14.318
85575W        W49783   4.253  44.466  14.463
85576W        W49784   6.384  31.031  12.516
85577W        W49785  33.013  20.080  14.396
85578W        W49786   5.836  24.504   3.339
85579W        W49787  13.763  30.462   4.727
85580W        W49788  16.808  41.960   4.180
85581W        W49789   9.176   6.700  14.392
85582W        W49790  19.642  22.006  10.925
85583W        W49791   4.425  29.668  13.395
85584W        W49792  27.965  41.876   2.699
85585W        W49793  25.974   3.305   1.274
85586W        W49794  26.644   1.916   0.311
85587W        W49795   4.222  34.435   3.768
85588W        W49796  14.240   8.211   2.215
85589W        W49797   3.398  23.677  11.439
85590W        W49798  14.169   0.341  14.376
85591W        W49799  33.016  38.976   2.282
85592W        W49800   2.851  25.203  11.509
85593W        W49801  34.589  18.090  12.061
85594W        W49802  24.662  13.726   4.816
85595W        W49803   5.852  29.458  12.048
85596W        W49804  26.654   9.845   1.925
85597W        W49805  15.632  26.163   4.809
85598W        W49806  28.973  16.291  12.834
85599W        W49807  43.967  15.184   4.723
85600W        W49808   0.920   8.229  14.358
85601W        W49809   7.674  25.650  13.816
85602W        W49810   1.794   1.450   2.710
85603W        W49811  36.353  38.858   2.819
85604W        W49812  28.637  24.063  11.048
85605W        W49813   5.826  11.211   3.255
85606W        W49814  33.951  42.947   2.316
85607W        W49815  37.080   7.226   3.166
85608W        W49816  23.998  34.526  11.999
85609W        W49817  18.655  36.439   0.794
85610W        W49818   0.447  29.070   4.650
85611W        W49819  19.207   1.397   0.726
85612W        W49820   3.460  13.248  14.279
85613W        W49821  30.064  35.480  13.545
85614W        W49822  29.978   5.385   1.771
85615W        W49823  28.586  43.286   4.789
85616W        W49824  12.737  14.179   3.725
85617W        W49825  30.118  38.376  14.008
85618W        W49826  43.891  25.677   1.823
85619W        W49827  28.023  15.621  14.422
85620W        W49828  28.008   5.253  14.769
85621W        W49829  17.237   8.210  14.441
85622W        W49830   5.210  43.781   0.276
85623W        W49831  29.143   8.817  10.625
85624W        W49832  41.313  37.497   0.454
85625W        W49833  32.620  41.504  13.378
85626W        W49834  25.175   6.369   4.212
85627W        W49835  19.650  33.562   4.646
85628W        W49836  44.329  21.554  11.574
85629W        W49837  19.670  21.513   4.213
85630W        W49838   3.273   7.255  11.077
85631W        W49839   9.201  43.979  14.923
85632W        W49840  36.892  14.133   3.281
85633W        W49841   0.450  21.705   4.332
85634W        W49842   4.798  23.044   4.304
85635W        W49843  26.677  16.753   0.834
85636W        W49844  35.581   2.820   0.738
85637W        W49845  30.911  18.133  11.497
85638W        W49846   2.231   7.384  10.496
85639W        W49847  21.229  38.026   3.633
85640W        W49848  14.237  42.499   0.266
85641W        W49849  25.691  27.050   2.406
85642W        W49850  29.555  14.220  10.134
85643W        W49851  25.117  25.157   0.343
85644W        W49852  32.068  43.796  10.040
85645W        W49853   3.890  41.508  11.997
85646W        W49854   7.671   9.198  14.960
85647W        W49855  10.295   3.809  13.826
85648W        W49856  38.492   1.966   0.885
85649W        W49857  15.754  18.564  11.557
85650W        W49858   1.872  15.216  12.410
85651W        W49859  11.152  17.710  14.927
85652W        W49860  19.607  18.250   2.377
85653W        W49861  36.497  42.812  10.503
85654W        W49862  34.385  40.965   0.383
85655W        W49863  12.614  21.233  13.541
85656W        W49864  40.317  12.194   3.734
85657W        W49865  13.624  41.837   4.151
85658W        W49866   6.264  26.500  14.416
85659W        W49867  10.746  16.580  14.288
85660W        W49868  32.414  16.117  12.515
85661W        W49869  23.503  43.501  10.996
85662W        W49870   6.209  18.134   1.379
85663W        W49871  23.036  29.100   2.360
85664W        W49872  15.659  10.673   4.272
85665W        W49873  16.575  37.918   1.444
85666W        W49874  34.962  36.554  14.279
85667W        W49875  41.991   0.872  10.997
85668W        W49876  32.108  18.555  12.964
85669W        W49877  10.383   3.830  14.456
85670W        W49878  15.172  38.025  11.097
85671W        W49879  21.574  30.467  12.934
85672W        W49880   8.739  11.773   3.700
85673W        W49881  43.824  44.441  14.905
85674W        W49882  25.468  34.012   2.725
85675W        W49883   7.681  24.581  10.494
85676W        W49884   9.673  30.422  11.420
85677W        W49885  43.421  18.160   3.666
85678W        W49886  17.591  33.081  14.770
85679W        W49887   9.647  39.847   1.930
85680W        W49888  13.638   8.853  10.960
85681W        W49889   8.252   0.905  13.914
85682W        W49890  36.366  14.140   0.463
85683W        W49891   9.295  37.344   5.168
85684W        W49892  14.765  17.721   4.289
85685W        W49893  36.501  15.766  13.844
85686W        W49894  28.003  28.043  11.077
85687W        W49895  32.609   5.286  14.792
85688W        W49896  28.954   5.223   1.362
85689W        W49897  16.739  35.906   0.867
85690W        W49898   1.464  13.202   3.649
85691W        W49899  42.509  35.452  10.608
85692W        W49900  27.167  18.610   3.783
85693W        W49901  25.188  10.706   3.330
85694W        W49902   4.329  10.683   3.332
85695W        W49903  32.888  31.591   3.814
85696W        W49904  19.279  44.494   2.755
85697W        W49905  41.395  18.732   0.403
85698W        W49906   1.778  18.771   1.355
85699W        W49907  30.955  26.675   5.170
85700W        W49908  10.300   0.917   3.320
85701W        W49909  20.128  13.160   2.267
85702W        W49910  27.082  12.300  13.479
85703W        W49911  41.499   6.866   3.748
85704W        W49912   4.796  24.494  12.089
85705W        W49913  37.534  23.241  12.499
85706W        W49914  34.576  28.499  14.941
85707W        W49915  15.810  35.360  12.939
85708W        W49916  29.143  25.070   4.724
85709W        W49917  24.130  11.134  10.065
85710W        W49918   5.373  15.316   4.719
85711W        W49919  43.849  12.259   2.892
85712W        W49920   4.379  31.541   1.728
85713W        W49921   8.391  13.647   4.117
85714W        W49922  16.128  43.395  13.374
85715W        W49923  24.646  25.588  13.030
85716W        W49924  42.871  30.651   2.881
85717W        W49925   7.385  42.797   2.296
85718W        W49926  41.959  24.644   0.768
85719W        W49927  10.787  44.327   0.895
85720W        W49928  17.566   0.417   0.375
85721W        W49929  44.767  21.636   0.960
85722W        W49930  43.793   1.475  13.413
85723W        W49931  20.572  32.504  11.440
85724W        W49932  11.850  29.970  13.373
85725W        W49933  23.130   8.827   1.786
85726W        W49934  10.375   4.945   4.698
85727W        W49935  41.437  33.459   1.254
85728W        W49936  30.969  11.775  12.442
85729W        W49937  21.691  21.257  11.597
85730W        W49938  23.161  18.247  13.489
85731W        W49939  29.092   3.915  13.843
85732W        W49940  37.000  13.665  13.000
85733W        W49941  31.920   7.337  11.433
85734W        W49942  15.676   5.389  14.369
85735W        W49943  38.375  27.186   0.474
85736W        W49944  12.802  41.848   1.926
85737W        W49945  15.643  26.196  14.327
85738W        W49946  11.657  33.578  13.903
85739W        W49947  29.658  17.665   2.670
85740W        W49948  11.338  14.751   0.896
85741W        W49949  41.893  13.674  13.424
85742W        W49950  31.946   6.262  12.379
85743W        W49951  37.557  38.921  11.430
85744W        W49952  16.671  28.478  12.560
85745W        W49953  20.242  11.317  14.281
85746W        W49954  25.207  25.559  13.417
85747W        W49955  17.787   1.899   2.243
85748W        W49956  39.426   5.842   5.615
85749W        W49957  23.583  28.444  11.936
85750W        W49958  42.880  27.028   2.414
85751W        W49959  25.574  37.070  13.942
85752W        W49960  22.674  27.970   4.821
85753W        W49961  43.955  35.572   9.507
85754W        W49962  26.046  29.528   0.464
85755W        W49963  30.482  32.117   0.337
85756W        W49964  18.576  24.190  12.451
85757W        W49965  23.598  28.176   2.286
85758W        W49966  32.066  23.090  11.994
85759W        W49967  13.180  34.464  12.554
85760W        W49968   7.747  25.531  10.468
85761W        W49969  19.060   4.249  13.007
85762W        W49970   3.454  31.023   2.354
85763W        W49971   0.898   1.851  13.520
85764W        W49972  12.219   0.248  12.072
85765W        W49973  38.980  19.088  12.513
85766W        W49974  26.992  30.646  11.956
85767W        W49975  22.221  44.432  12.017
85768W        W49976  28.105  31.031  11.857
85769W        W49977  16.566  19.560   2.387
85770W        W49978  33.610   4.909  13.363
85771W        W49979  27.134  39.919   0.771
85772W        W49980  19.720  12.639   4.657
85773W        W49981  23.094  36.898  12.414
85774W        W49982  37.554   2.280   4.649
85775W        W49983   7.412  15.670   0.938
85776W        W49984  26.682  32.939  11.128
85777W        W49985   2.762  37.926  13.458
85778W        W49986   3.945  18.243   3.729
85779W        W49987  19.747  32.579  10.579
85780W        W49988   7.902   7.366  13.463
85781W        W49989  36.495  36.388   0.383
85782W        W49990  31.549  33.876  12.431
85783W        W49991  26.001   1.273   3.801
85784W        W49992  35.100  20.111  13.825
85785W        W49993  40.021   5.415  13.962
85786W        W49994  42.294  16.095  14.929
85787W        W49995  44.469  36.474   2.302
85788W        W49996  37.913  34.408  10.994
85789W        W49997  11.263  27.009  12.474
85790W        W49998  27.162  39.367   4.299
85791W        W49999  29.515  20.176  14.307
85792W        W50000  10.817  15.648  10.068
85793W        W50001  23.043  14.759  14.803
85794W        W50002  30.161   1.757  12.403
85795W        W50003   9.395  20.075   4.624
85796W        W50004  26.630  23.030  14.012
85797W        W50005  21.057  37.991  14.951
85798W        W50006  40.355   1.383  10.906
85799W        W50007  38.448   3.898  13.038
85800W        W50008  15.254  14.279  13.419
85801W        W50009  22.558  34.381  11.033
85802W        W50010  28.662   1.921  12.521
85803W        W50011  28.173  26.057   2.783
85804W        W50012   3.742  20.225   0.921
85805W        W50013  37.435  23.188  13.373
85806W        W50014  28.077  31.403   1.408
85807W        W50015   4.240  11.151  14.513
85808W        W50016  32.917   9.206  10.430
85809W        W50017   8.232  18.220  10.544
85810W        W50018   7.700   9.698  10.451
85811W        W50019  16.590  32.466   0.736
85812W        W50020  38.008  41.360  14.947
85813W        W50021  33.462  34.525   4.291
85814W        W50022  38.526  40.520   2.881
85815W        W50023  43.918  29.507  14.443
85816W        W50024   1.356  16.707   0.851
85817W        W50025  17.221  11.780   4.746
85818W        W50026  38.382  25.090  13.398
85819W        W50027  38.063  16.568  11.974
85820W        W50028  44.472   0.814   2.243
85821W        W50029  27.508  40.044   2.840
85822W        W50030  15.641  25.177  14.780
85823W        W50031  31.005  11.674   3.324
85824W        W50032  32.441  29.648   0.443
85825W        W50033  28.049  35.949  14.776
85826W        W50034  35.979  38.865  10.594
85827W        W50035  18.583  16.609   0.837
85828W        W50036  21.748  24.109  10.529
85829W        W50037  42.943  32.974   4.737
85830W        W50038  22.237  32.403  14.479
85831W        W50039  32.429  38.922   4.670
85832W        W50040  17.254  35.098  12.841
85833W        W50041  37.908  27.634   4.270
85834W        W50042  37.868  34.515   4.748
85835W        W50043  32.394  39.868   2.384
85836W        W50044  14.136  13.625   3.737
85837W        W50045  44.437  30.525   3.379
85838W        W50046  31.525  23.038   4.691
85839W        W50047  43.456  33.581   3.726
85840W        W50048   7.758   2.260  11.559
85841W        W50049   3.741   6.843  14.863
85842W        W50050  35.502  20.649  12.389
85843W        W50051  36.540   2.367   3.314
85844W        W50052  29.998  25.041  12.825
85845W        W50053  29.565  37.421  13.358
85846W        W50054  38.396  35.431   0.808
85847W        W50055  17.784  19.202  12.071
85848W        W50056  37.927  43.815   1.803
85849W        W50057  23.106   9.885  11.401
85850W        W50058  33.406  32.606  10.599
85851W        W50059  21.625  32.509   4.231
85852W        W50060  11.265  29.970   3.198
85853W        W50061   2.430   5.880   1.793
85854W        W50062  39.516  21.518  11.527
85855W        W50063  41.488  42.797   2.834
85856W        W50064  14.703  16.114  10.446
85857W        W50065  20.032  43.894  13.919
85858W        W50066   9.149  14.621   3.271
85859W        W50067  36.075  38.949   2.734
85860W        W50068  28.029  11.673  12.354
85861W        W50069  28.453  10.769  10.512
85862W        W50070  18.276   9.839   4.673
85863W        W50071   5.869  23.219  10.539
85864W        W50072  12.182   6.353  12.917
85865W        W50073  14.762   0.434   1.889
85866W        W50074  22.676  15.799   3.649
85867W        W50075  22.085   9.169   5.691
85868W        W50076  22.676  11.349  14.507
85869W        W50077  17.583  42.483   3.666
85870W        W50078  10.239   1.315   0.959
85871W        W50079  32.063  32.584   3.682
85872W        W50080  20.271  40.447   0.866
85873W        W50081  37.562   7.401  10.527
85874W        W50082   3.872  42.010   3.714
85875W        W50083   3.935  37.569   4.662
85876W        W50084  22.655  29.968  10.625
85877W        W50085  22.109   8.751  11.383
85878W        W50086  36.573  37.470   4.696
85879W        W50087  20.769  13.748  11.057
85880W        W50088  35.492  14.099  13.855
85881W        W50089  35.536  29.547  11.984
85882W        W50090  33.875  34.463  13.038
85883W        W50091  25.681  37.494  14.992
85884W        W50092  10.334  16.600   3.184
85885W        W50093   6.427  24.670  14.372
85886W        W50094   3.341  40.332   3.319
85887W        W50095  17.064  38.010  10.976
85888W        W50096  34.370  42.921   4.756
85889W        W50097   9.670  43.861  13.946
85890W        W50098  15.319   5.702  13.027
85891W        W50099  16.172  27.163   3.197
85892W        W50100  21.544   4.298   5.280
85893W        W50101  21.649  35.595  12.862
85894W        W50102   3.789  36.978   1.729
85895W        W50103   4.839  44.901  12.916
85896W        W50104  27.474  33.390  14.408
85897W        W50105  24.549  21.643  10.990
85898W        W50106   8.390  12.699   5.677
85899W        W50107  42.521  44.947  10.937
85900W        W50108  30.015   7.311  14.763
85901W        W50109  37.946   4.815  11.426
85902W        W50110  31.517  29.504  14.437
85903W        W50111  39.531   1.930   4.197
85904W        W50112  16.165  24.485  11.972
85905W        W50113  33.563  34.588  10.943
85906W        W50114  33.445  43.417  11.436
85907W        W50115  41.991  30.485  13.980
85908W        W50116  22.238  18.596   4.667
85909W        W50117   0.386  33.963   4.803
85910W        W50118  20.263  44.294   2.866
85911W        W50119  14.263  18.683   1.779
85912W        W50120  12.652  28.131  13.970
85913W        W50121  29.085  19.224  12.016
85914W        W50122  11.764   0.406   4.639
85915W        W50123  16.128   9.315   2.278
85916W        W50124   4.207  37.059  12.575
85917W        W50125  39.995  43.330   0.819
85918W        W50126  20.653  15.225  12.029
85919W        W50127  30.064  22.697   1.364
85920W        W50128  16.149   7.843  14.868
85921W        W50129  39.847  19.659  14.317
85922W        W50130  42.861  26.196   0.846
85923W        W50131  23.602  12.246  14.920
85924W        W50132  31.622  38.873  11.551
85925W        W50133  39.889  31.902   0.385
85926W        W50134  36.411  20.694   4.609
85927W        W50135  35.383  41.300   3.764
85928W        W50136   5.862  39.845  12.000
85929W        W50137   1.269  10.641   3.207
85930W        W50138   4.878   6.893   0.306
85931W        W50139  32.446  40.528   4.758
85932W        W50140  29.542  41.436   1.789
85933W        W50141  31.136   8.719  13.357
85934W        W50142  44.334  12.626   3.827
85935W        W50143  30.149  29.473   1.238
85936W        W50144  15.613   6.290  14.293
85937W        W50145  38.514   2.923  12.979
85938W        W50146  24.556  30.574  13.499
85939W        W50147  15.223  17.617   2.681
85940W        W50148  18.739  41.831  11.414
85941W        W50149  10.745  22.123  13.986
85942W        W50150  28.538  26.601   1.817
85943W        W50151   8.246   5.849   4.806
85944W        W50152  29.452  40.485  11.483
85945W        W50153   6.183  33.522   1.819
85946W        W50154  22.177  41.365   2.377
85947W        W50155   3.287   3.456   3.859
85948W        W50156  18.749  36.984  13.530
85949W        W50157  31.900  32.020  14.286
85950W        W50158  26.056  10.653  13.896
85951W        W50159  32.543  24.709   2.340
85952W        W50160  35.433  17.755   4.634
85953W        W50161  24.104  19.742   0.835
85954W        W50162  18.740   6.832  14.360
85955W        W50163  13.188  10.817   3.760
85956W        W50164  38.560  33.430  14.879
85957W        W50165  40.355  33.941   0.867
85958W        W50166  27.490  34.590   4.135
85959W        W50167  22.014  31.534   3.766
85960W        W50168  13.782  40.384  13.922
85961W        W50169  29.131  20.138   0.916
85962W        W50170  14.117  38.457  10.606
85963W        W50171  32.576   8.818  10.469
85964W        W50172  21.018   1.879   4.821
85965W        W50173  32.009   6.735  10.492
85966W        W50174  10.749  34.531   2.308
85967W        W50175  19.213  25.518  11.060
85968W        W50176  38.432   9.799  11.537
85969W        W50177  21.722   4.771   2.789
85970W        W50178  32.130  38.940   1.298
85971W        W50179   0.450  10.317   1.411
85972W        W50180   4.345  13.303  14.359
85973W        W50181  24.597   0.757  11.069
85974W        W50182  10.320  22.693   1.741
85975W        W50183  13.791   8.274   1.212
85976W        W50184   1.294  39.873   2.874
85977W        W50185   9.283   9.792   1.295
85978W        W50186  22.056  18.122  13.912
85979W        W50187  20.690  10.158   1.872
85980W        W50188   5.302  15.267  11.448
85981W        W50189  31.140  33.985  11.566
85982W        W50190  25.649  15.813  10.994
85983W        W50191  26.089   9.337   1.428
85984W        W50192  42.484  28.503  11.578
85985W        W50193  16.568   6.739  10.583
85986W        W50194  11.325  14.274   3.358
85987W        W50195  29.556  24.090   0.372
85988W        W50196   0.462  31.025   3.804
85989W        W50197  10.741  15.192   1.246
85990W        W50198  35.538  18.759   0.819
85991W        W50199  13.808  13.128  13.429
85992W        W50200  12.253  42.914   1.370
85993W        W50201   5.695  14.274  13.855
85994W        W50202  22.565  30.096  12.480
85995W        W50203  29.002  35.853  12.060
85996W        W50204   5.734  21.136   3.354
85997W        W50205  32.083   8.338   4.642
85998W        W50206   4.332  19.268   2.333
85999W        W50207  20.677   8.322  10.560
86000W        W50208  34.448  23.102  14.328
86001W        W50209  22.246  39.494   1.364
86002W        W50210  14.287   1.959   3.838
86003W        W50211  26.011  27.572  13.921
86004W        W50212  25.034  44.363   0.813
86005W        W50213  14.803   8.237  14.955
86006W        W50214  21.094  16.625  13.348
86007W        W50215  28.137  43.285  12.409
86008W        W50216  39.872  17.064  13.025
86009W        W50217  40.947  36.966  11.920
86010W        W50218  20.050  18.707  13.428
86011W        W50219  15.764  18.276   1.262
86012W        W50220  43.460  26.117   3.318
86013W        W50221  23.646  37.551  12.500
86014W        W50222   5.713   6.389  12.438
86015W        W50223  31.499  36.006  12.484
86016W        W50224  32.435  21.677   0.380
86017W        W50225  28.177   1.875   0.440
86018W        W50226  14.132   8.347  12.567
86019W        W50227  11.194   1.852  12.031
86020W        W50228  27.969   0.493  11.441
86021W        W50229  39.483   9.873   3.366
86022W        W50230  25.023  15.641   0.935
86023W        W50231  44.819   8.246   1.413
86024W        W50232  10.157  39.895  12.911
86025W        W50233  15.659  18.282  10.430
86026W        W50234  33.001  23.031  14.339
86027W        W50235  43.971   5.434   2.735
86028W        W50236  39.352  26.146   4.757
86029W        W50237   3.390  30.584  13.462
86030W        W50238   7.702   4.233   0.825
86031W        W50239   1.829  35.919   2.272
86032W        W50240  23.707  39.353  12.897
86033W        W50241  44.487  23.660  14.849
86034W        W50242  36.099  14.702   4.777
86035W        W50243  10.332  30.450  11.104
86036W        W50244  27.978   4.798   3.165
86037W        W50245  26.983   0.431   4.246
86038W        W50246  21.188  21.746   1.820
86039W        W50247  35.478   5.794   1.920
86040W        W50248  26.487  20.763  14.421
86041W        W50249  30.039   2.851   3.629
86042W        W50250   8.243  42.996   0.868
86043W        W50251  44.294  43.302  13.435
86044W        W50252  31.042  27.086  14.860
86045W        W50253  15.636  27.578  13.819
86046W        W50254   7.333  12.704   5.264
86047W        W50255  19.655  15.327   2.790
86048W        W50256  10.662   8.281  12.009
86049W        W50257  21.582  37.960  12.424
86050W        W50258  23.630   2.727  11.957
86051W        W50259  36.006  37.952   0.303
86052W        W50260  37.919  26.662   0.335
86053W        W50261  13.200  34.107  11.047
86054W        W50262  18.197   4.404   0.449
86055W        W50263   8.294  20.578   0.750
86056W        W50264  35.104  37.887   1.932
86057W        W50265  29.476  16.771   2.241
86058W        W50266  25.559  27.667   4.331
86059W        W50267  42.515  44.431   2.785
86060W        W50268  36.892  25.143  13.476
86061W        W50269  38.959  24.176   4.612
86062W        W50270  21.133  29.125  13.325
86063W        W50271  19.628  43.837  12.987
86064W        W50272  15.655  27.485  14.768
86065W        W50273  33.508  34.878  10.932
86066W        W50274  21.618  36.957   3.218
86067W        W50275  26.698  20.666  13.806
86068W        W50276   6.288  17.233   3.240
86069W        W50277  40.505  26.650  10.981
86070W        W50278  14.257  21.157  13.517
86071W        W50279  42.938   2.734   4.809
86072W        W50280  35.486  20.597  14.814
86073W        W50281  22.717   0.888  13.937
86074W        W50282  22.519  19.280   1.860
86075W        W50283   8.212  23.162   2.249
86076W        W50284  36.382  19.153   2.899
86077W        W50285  12.251  38.544   1.882
86078W        W50286  37.563  17.644   5.183
86079W        W50287  37.351  25.488  14.473
86080W        W50288   4.279  36.846  14.505
86081W        W50289  36.987  20.199  13.432
86082W        W50290  30.463  38.385  14.505
86083W        W50291  39.404  23.109  12.046
86084W        W50292  25.200  32.136   2.878
86085W        W50293  10.683  12.638   1.809
86086W        W50294  19.595  41.966  13.869
86087W        W50295  37.055  31.064  12.906
86088W        W50296  35.983  36.576  14.824
86089W        W50297  44.481  17.072  12.043
86090W        W50298  35.863   0.305   0.877
86091W        W50299  20.195  14.193  12.088
86092W        W50300  27.597  25.101   4.658
86093W        W50301   0.914  20.137   2.840
86094W        W50302  13.351  11.683  14.025
86095W        W50303  40.497  20.215  11.574
86096W        W50304   8.752  17.666  13.400
86097W        W50305   0.337  28.640   3.710
86098W        W50306  40.536  37.410  13.841
86099W        W50307  42.845  31.941  12.469
86100W        W50308  37.023  20.189   0.407
86101W        W50309  16.178  22.587  11.962
86102W        W50310  14.792  43.444  12.498
86103W        W50311  29.031  13.233   2.759
86104W        W50312  40.850  13.611   2.899
86105W        W50313   9.691  31.483  13.797
86106W        W50314   3.458  36.488   4.837
86107W        W50315  15.305   8.710   3.640
86108W        W50316  31.422  26.962  11.461
86109W        W50317   4.890  32.988   2.702
86110W        W50318  29.650  14.214  13.050
86111W        W50319  17.673  42.014   2.409
86112W        W50320  11.632   6.880   0.746
86113W        W50321  22.512  41.292   3.197
86114W        W50322  15.105   8.373  13.513
86115W        W50323  38.562  35.412   3.787
86116W        W50324  24.074  25.208   3.328
86117W        W50325  25.580  29.050  10.513
86118W        W50326  30.529  29.156   3.665
86119W        W50327  41.809  19.191   1.438
86120W        W50328  11.745  14.153   3.843
86121W        W50329   7.818  17.771   2.801
86122W        W50330  29.611  35.021   3.255
86123W        W50331  43.798   5.921   0.938
86124W        W50332   6.804   5.341   0.886
86125W        W50333  44.445   1.743   1.705
86126W        W50334  24.529   7.803  11.997
86127W        W50335  19.717   9.837   1.699
86128W        W50336  30.932  41.858   3.749
86129W        W50337   2.455   6.681  13.467
86130W        W50338  29.569  36.479   2.875
86131W        W50339  35.025   1.933  10.424
86132W        W50340  41.019  39.412  13.002
86133W        W50341  40.389  23.085  12.882
86134W        W50342  38.834   1.462  14.871
86135W        W50343  12.707  36.969  14.985
86136W        W50344  10.320  38.995  13.408
86137W        W50345  25.984  44.401  12.930
86138W        W50346   5.386  33.541  14.821
86139W        W50347  33.117   9.741   2.673
86140W        W50348  27.976  36.865   2.791
86141W        W50349   8.881  27.156  13.038
86142W        W50350  15.138   0.480  11.098
86143W        W50351  24.056  35.943   2.715
86144W        W50352  26.602  39.357  14.767
86145W        W50353  14.202   8.383  10.912
86146W        W50354   1.387   7.304  14.006
86147W        W50355  11.739  22.057   3.737
86148W        W50356   3.878  30.060   1.773
86149W        W50357  25.477  40.380   2.247
86150W        W50358  39.054   0.345   5.301
86151W        W50359  16.272  38.358  11.475
86152W        W50360  44.993  31.508   1.308
86153W        W50361   2.339  13.304  10.598
86154W        W50362   7.890  30.541  13.327
86155W        W50363  16.685  41.021   3.353
86156W        W50364   7.171  21.166   4.732
86157W        W50365  23.493  15.091  11.010
86158W        W50366  21.731  22.238   2.736
86159W        W50367  21.691  43.366   4.166
86160W        W50368  14.647  22.150  11.869
86161W        W50369  40.015  43.889  13.855
86162W        W50370  18.586  13.141  13.053
86163W        W50371  13.205  16.594   4.120
86164W        W50372  19.145  29.574  14.455
86165W        W50373   7.173  25.698  12.484
86166W        W50374   5.393  34.544  10.940
86167W        W50375   3.751  12.208  12.521
86168W        W50376  38.944   4.410   4.728
86169W        W50377   8.387  26.951  12.912
86170W        W50378  37.070  11.656  11.910
86171W        W50379  18.787  35.491  10.006
86172W        W50380  33.473  38.544   3.837
86173W        W50381   6.740  13.202  12.962
86174W        W50382  36.360  10.218   4.609
86175W        W50383   7.729  32.400  14.389
86176W        W50384   8.236  44.765  12.417
86177W        W50385  15.272  22.743   4.297
86178W        W50386  10.340   5.308   1.731
86179W        W50387  15.082  38.010   4.164
86180W        W50388  35.086  35.907  13.916
86181W        W50389   1.346  21.072  14.485
86182W        W50390   7.329  40.826  12.569
86183W        W50391  33.559  28.655   0.812
86184W        W50392  18.585  37.439   0.408
86185W        W50393   8.389  22.231  14.399
86186W        W50394  35.887  25.053  11.947
86187W        W50395   9.643  11.690   1.269
86188W        W50396  15.173  15.782  11.906
86189W        W50397  15.609  36.047  11.106
86190W        W50398  14.269  24.039  12.443
86191W        W50399  39.065  38.882   3.292
86192W        W50400  28.061  25.596   4.195
86193W        W50401   0.429  32.938  11.895
86194W        W50402  25.597   7.257  10.100
86195W        W50403  25.561   4.911  12.908
86196W        W50404  18.629  25.590   3.356
86197W        W50405  37.846  31.431  13.953
86198W        W50406  42.482  17.666  14.427
86199W        W50407   2.377  17.663   4.211
86200W        W50408  17.588  24.683  13.999
86201W        W50409  27.063  11.143   1.247
86202W        W50410  20.648  35.085  10.633
86203W        W50411  21.223  41.489   3.340
86204W        W50412  31.151  24.008   3.808
86205W        W50413  38.505  15.602  11.947
86206W        W50414   2.764   3.816  14.776
86207W        W50415  31.136  21.594  11.882
86208W        W50416  14.231   6.426  11.377
86209W        W50417  36.404  25.496  12.459
86210W        W50418  38.048  41.022   3.367
86211W        W50419  33.457   9.208   3.860
86212W        W50420  35.459  41.850  11.004
86213W        W50421  14.701  25.593   1.354
86214W        W50422  24.213  31.646  13.344
86215W        W50423   2.800  37.074   0.919
86216W        W50424  39.526  20.600   2.883
86217W        W50425  31.407  26.670  13.356
86218W        W50426  42.012   6.238   2.406
86219W        W50427  42.388  32.076  11.988
86220W        W50428   9.836  26.955  14.887
86221W        W50429  16.139  11.713  11.072
86222W        W50430  35.364  43.855  12.500
86223W        W50431  28.062  27.459   4.792
86224W        W50432  36.536  30.159   0.437
86225W        W50433  27.605  20.060   0.841
86226W        W50434  16.241  24.991  13.986
86227W        W50435   2.449  39.860  14.800
86228W        W50436  16.295  26.147  14.878
86229W        W50437   9.304  21.668   2.724
86230W        W50438   7.703  15.197   1.839
86231W        W50439  22.619  28.654   3.336
86232W        W50440  27.527  38.944   1.301
86233W        W50441  17.761   7.907  11.022
86234W        W50442  12.645  34.410  11.454
86235W        W50443   4.904   5.316   2.873
86236W        W50444   2.449  29.127  12.453
86237W        W50445  41.871  38.858  13.496
86238W        W50446   1.863   7.400  13.888
86239W        W50447  33.933  30.444   2.265
86240W        W50448  13.328  11.137   4.289
86241W        W50449  14.238   4.700  13.920
86242W        W50450  10.264   7.779  12.370
86243W        W50451  42.793  29.114   2.775
86244W        W50452  22.113  38.419  11.087
86245W        W50453  38.045  20.625  13.523
86246W        W50454   4.376  38.835  12.914
86247W        W50455  13.332   5.860   4.735
86248W        W50456  22.199  12.217  13.444
86249W        W50457  20.530  14.697  13.530
86250W        W50458  33.107  12.147  12.916
86251W        W50459   7.788  37.837   0.403
86252W        W50460  20.218  33.416  12.032
86253W        W50461   7.192  18.107   2.670
86254W        W50462   2.296  19.714   0.879
86255W        W50463  21.645  16.788   0.896
86256W        W50464   5.692  19.241  12.086
86257W        W50465  33.416  35.047   3.263
86258W        W50466  18.579   3.222   4.627
86259W        W50467  27.141  19.078   2.327
86260W        W50468  24.045  36.498   4.833
86261W        W50469  42.930  15.781  10.485
86262W        W50470  26.500  24.670  13.399
86263W        W50471  16.212  33.106   3.312
86264W        W50472   7.342  22.045   0.918
86265W        W50473   7.196  16.102  10.440
86266W        W50474  43.288  35.104   2.295
86267W        W50475   4.878  41.531   2.855
86268W        W50476  15.166  22.127  13.885
86269W        W50477   7.309   2.886  14.942
86270W        W50478  26.103  12.642  13.492
86271W        W50479   2.319  25.137   0.950
86272W        W50480  44.323  32.039  11.956
86273W        W50481  38.864  13.198  10.413
86274W        W50482  43.441  37.519  12.526
86275W        W50483   1.977  22.673  13.915
86276W        W50484  27.475  40.341  13.493
86277W        W50485  16.143  30.113  12.419
86278W        W50486  17.289   0.490   0.261
86279W        W50487   2.726   9.704   1.843
86280W        W50488  25.220  26.546  13.875
86281W        W50489  34.380   6.765  13.873
86282W        W50490  13.615  29.612  13.898
86283W        W50491  19.679  36.425   4.272
86284W        W50492  39.831   5.870   4.213
86285W        W50493  42.285  34.068  13.509
86286W        W50494  28.611   7.186  10.599
86287W        W50495  39.535  38.869  10.888
86288W        W50496   2.923  39.366   2.714
86289W        W50497  19.113  44.811  12.831
86290W        W50498  11.783  29.101  14.492
86291W        W50499   6.425   2.463   4.691
86292W        W50500  35.424  31.050  10.914
86293W        W50501   5.858   5.929   0.409
86294W        W50502  42.455  33.977   3.324
86295W        W50503  13.224  41.431   0.262
86296W        W50504  22.546  10.323   4.627
86297W        W50505   2.777  19.215   1.410
86298W        W50506  17.645  42.815   2.366
86299W        W50507   5.834  26.703  13.812
86300W        W50508  42.839  12.273  13.007
86301W        W50509  37.456  25.490  11.996
86302W        W50510  22.177  36.972   1.854
86303W        W50511  36.511   2.355   1.240
86304W        W50512   9.879  25.623  12.086
86305W        W50513  33.007  14.819  14.421
86306W        W50514  22.021  33.614   3.244
86307W        W50515   2.757  16.703  13.809
86308W        W50516  12.137  16.597  11.482
86309W        W50517  24.157  17.291   4.146
86310W        W50518   6.749  17.712   3.759
86311W        W50519  21.734  21.681  10.920
86312W        W50520  10.295  19.665  12.526
86313W        W50521  25.668  20.102  14.363
86314W        W50522  37.479  30.604   1.250
86315W        W50523  40.008  27.611  12.960
86316W        W50524  42.020  43.004   1.325
86317W        W50525  35.504  29.032   1.424
86318W        W50526  18.074  35.921   0.388
86319W        W50527   1.429  31.566   2.333
86320W        W50528  12.318  12.650   5.715
86321W        W50529   0.812  15.288   3.699
86322W        W50530  17.301  35.420  14.901
86323W        W50531  23.997  10.227   2.268
86324W        W50532  34.388  26.490   4.321
86325W        W50533  30.006  21.581  11.402
86326W        W50534   1.437  43.883   0.760
86327W        W50535  12.340  19.140   3.817
86328W        W50536  35.412  15.765  14.882
86329W        W50537   9.232  22.677   1.696
86330W        W50538  41.474  43.500   3.151
86331W        W50539  36.847  31.543   0.918
86332W        W50540  19.073  26.053  10.477
86333W        W50541  43.271  33.062  13.410
86334W        W50542   9.151  21.226   1.409
86335W        W50543   2.874  37.449  13.402
86336W        W50544  26.994   6.271   0.867
86337W        W50545  23.576   8.735  10.462
86338W        W50546   3.761  20.229  14.779
86339W        W50547   7.798  28.185  14.898
86340W        W50548  27.976  44.891  12.005
86341W        W50549  44.429  18.143   9.950
86342W        W50550  18.259  17.287  13.545
86343W        W50551  28.104  23.218  10.551
86344W        W50552  28.118   3.455   0.324
86345W        W50553  18.751   3.810   3.228
86346W        W50554   4.354  38.980  14.859
86347W        W50555  41.812  38.868   3.718
86348W        W50556  25.083  11.239   4.115
86349W        W50557  17.140  12.837   5.285
86350W        W50558  30.441  42.909  13.384
86351W        W50559  31.474   1.385   4.833
86352W        W50560  34.506  19.241   2.671
86353W        W50561  27.454  23.178   2.679
86354W        W50562  27.020  25.625  14.946
86355W        W50563  21.534  38.976  10.482
86356W        W50564  27.498  29.948   4.135
86357W        W50565  12.823   3.797  13.842
86358W        W50566  14.756  40.820   3.668
86359W        W50567  10.640  36.395   3.816
86360W        W50568  30.046  35.944   3.152
86361W        W50569   9.877  41.802  12.557
86362W        W50570   4.904  20.207  11.000
86363W        W50571  39.532   2.366   0.481
86364W        W50572  21.635   6.395   3.748
86365W        W50573   8.690  31.968  13.879
86366W        W50574  27.977  27.030  10.915
86367W        W50575  19.724  22.059   4.201
86368W        W50576   6.201  44.908   0.955
86369W        W50577  35.952   0.747  12.827
86370W        W50578  18.154  40.872  11.941
86371W        W50579  39.854  22.138  12.567
86372W        W50580  20.621  30.076  12.012
86373W        W50581  15.289  21.697   4.718
86374W        W50582  18.747  35.480  12.945
86375W        W50583   0.248   6.292   0.446
86376W        W50584  33.039  13.156  10.914
86377W        W50585  14.639   3.922   2.246
86378W        W50586  29.166  44.795   1.400
86379W        W50587  18.574  21.554   3.196
86380W        W50588   7.215  32.408  12.829
86381W        W50589  35.395  33.020   1.807
86382W        W50590  13.714  36.593  13.373
86383W        W50591   1.244  12.784  14.929
86384W        W50592  14.217   4.863  11.089
86385W        W50593   9.773   1.783   2.749
86386W        W50594  35.021  35.393   4.274
86387W        W50595  35.575   4.905   2.297
86388W        W50596  28.023  21.592   0.914
86389W        W50597   5.766  36.525  10.578
86390W        W50598  39.543   0.405  10.100
86391W        W50599  13.285   3.369  12.448
86392W        W50600  37.381  34.034   4.170
86393W        W50601  38.939   1.910  10.926
86394W        W50602  10.171  32.048  13.025
86395W        W50603  28.956   4.880   3.343
86396W        W50604  21.020  24.051   2.794
86397W        W50605  15.195   6.191  12.874
86398W        W50606  22.213   9.761  14.808
86399W        W50607  29.521  15.656   3.311
86400W        W50608  12.760  25.655  13.797
86401W        W50609  27.668   2.912  10.893
86402W        W50610  15.275  33.571   3.756
86403W        W50611  32.086   7.820   2.254
86404W        W50612  39.923   5.787  12.403
86405W        W50613  18.778  18.599  12.836
86406W        W50614  39.483   5.689   2.732
86407W        W50615  19.240  30.510  11.030
86408W        W50616  21.200  27.676  12.932
86409W        W50617  11.175  14.111   2.666
86410W        W50618   7.181  17.261   3.655
86411W        W50619  15.769  26.069  12.485
86412W        W50620  14.201   1.827   0.776
86413W        W50621  33.117  24.159  11.966
86414W        W50622  23.144   1.870   0.480
86415W        W50623  18.205  35.085  11.045
86416W        W50624   7.909   3.423   0.451
86417W        W50625   5.358  26.185  13.950
86418W        W50626   2.296   2.867  11.097
86419W        W50627   2.231  43.339  14.969
86420W        W50628   8.758  25.613   3.313
86421W        W50629  24.214   2.859  12.506
86422W        W50630  43.380  19.620   0.930
86423W        W50631  11.372  44.383  12.432
86424W        W50632   4.909  24.590   3.786
86425W        W50633  44.296   9.246  13.401
86426W        W50634  19.061  39.330   2.890
86427W        W50635  23.048   2.325  10.573
86428W        W50636  10.373  36.076   0.796
86429W        W50637   7.222  15.208   1.917
86430W        W50638  28.521  13.288   2.878
86431W        W50639   4.887  25.182   4.188
86432W        W50640   7.872  44.468  11.428
86433W        W50641   0.837  25.628   3.645
86434W        W50642  30.022  19.138   1.339
86435W        W50643   5.313  43.994   0.883
86436W        W50644   3.395  32.485  13.451
86437W        W50645  15.250  36.938  12.511
86438W        W50646  33.589   1.957  14.758
86439W        W50647  35.459  20.102  10.464
86440W        W50648  34.913  25.030   3.365
86441W        W50649  43.919   0.339   4.268
86442W        W50650   7.847  22.667   1.827
86443W        W50651  34.931  16.125   4.646
86444W        W50652  40.546  18.091   0.784
86445W        W50653   2.908  33.991   1.919
86446W        W50654  39.524   0.303   2.702
86447W        W50655  33.085   7.840  14.896
86448W        W50656  41.419  34.423  14.335
86449W        W50657  21.623  32.980   3.358
86450W        W50658  18.651  31.923  12.832
86451W        W50659  36.071  12.167  14.787
86452W        W50660  19.558  31.047   0.828
86453W        W50661   0.481  13.242  11.923
86454W        W50662  17.162   5.860  12.884
86455W        W50663  38.514  21.140   3.189
86456W        W50664  31.079   6.715   4.149
86457W        W50665   5.753  34.424  13.900
86458W        W50666  28.996  21.104  11.435
86459W        W50667  11.229   5.711  11.986
86460W        W50668  31.601  42.301   2.347
86461W        W50669  27.040  44.440   4.738
86462W        W50670  24.110  26.110  12.830
86463W        W50671  36.948  17.194  11.611
86464W        W50672  19.685  40.423  11.438
86465W        W50673  22.722  44.278   4.246
86466W        W50674  10.865  39.371   1.217
86467W        W50675   9.236  16.796   4.817
86468W        W50676  29.066  23.078   4.685
86469W        W50677  10.258  17.300  10.428
86470W        W50678  38.998   8.781  14.344
86471W        W50679  14.321   5.916  11.542
86472W        W50680   1.474  42.931   0.937
86473W        W50681  41.512  44.927  12.939
86474W        W50682  10.208  18.280   4.290
86475W        W50683  18.155  25.100  14.975
86476W        W50684  37.063   5.407   2.404
86477W        W50685  37.494  11.794   5.291
86478W        W50686  21.140  12.154  10.412
86479W        W50687  32.064  40.851   1.321
86480W        W50688  37.021  36.471  14.471
86481W        W50689   4.853   3.273   1.929
86482W        W50690  29.592   6.210  11.904
86483W        W50691  21.196  43.932   3.334
86484W        W50692  15.743   1.267  14.787
86485W        W50693  43.347   8.714  10.577
86486W        W50694  18.232  13.112   3.334
86487W        W50695  28.045   4.933   4.159
86488W        W50696  22.196   4.736  14.763
86489W        W50697  23.064  15.159   4.208
86490W        W50698  22.202  22.683   4.740
86491W        W50699  44.394   9.766   3.295
86492W        W50700  32.618   8.241  11.896
86493W        W50701  17.645   9.683  11.009
86494W        W50702  17.636   9.168   2.387
86495W        W50703   1.470  35.020  12.520
86496W        W50704  13.170  14.130  12.056
86497W        W50705   3.835   9.833   3.277
86498W        W50706  26.097   7.394   3.786
86499W        W50707   4.901   8.864  12.446
86500W        W50708  42.306  12.679   1.326
86501W        W50709  15.589   8.727   3.630
86502W        W50710  25.994  42.389   2.738
86503W        W50711  14.188  18.283  12.957
86504W        W50712  31.095  24.158  10.580
86505W        W50713   1.412  43.826   2.212
86506W        W50714  30.495   8.851  12.855
86507W        W50715  36.538  30.002  12.353
86508W        W50716  32.539  40.353  14.925
86509W        W50717  16.752  44.449  14.333
86510W        W50718  14.206  35.885   4.212
86511W        W50719   4.826   9.803  14.919
86512W        W50720   8.332  18.282   0.424
86513W        W50721  39.523  25.711   1.883
86514W        W50722  33.451   6.373   0.872
86515W        W50723   3.256  25.091  13.503
86516W        W50724  13.633   0.412  11.598
86517W        W50725  30.997  29.998  10.543
86518W        W50726   8.370   7.863   2.212
86519W        W50727  44.457  14.224  13.416
86520W        W50728  27.042  17.246  10.107
86521W        W50729   9.715   0.345   4.268
86522W        W50730   1.419  14.731  11.013
86523W        W50731  23.149  20.539  13.357
86524W        W50732  16.315   5.397   2.699
86525W        W50733  29.625   9.742  13.429
86526W        W50734  33.875  38.458   3.190
86527W        W50735  41.522  11.702   1.335
86528W        W50736   2.761  29.434  11.123
86529W        W50737  21.197  39.361   0.305
86530W        W50738  13.332   6.741  13.474
86531W        W50739  37.020  36.906  11.494
86532W        W50740  43.769  23.697   4.211
86533W        W50741   7.802  29.087   2.376
86534W        W50742   0.420  29.058  11.528
86535W        W50743  24.094  24.074   3.320
86536W        W50744  34.058  31.994  12.432
86537W        W50745   2.446  14.328   4.802
86538W        W50746  13.718  15.592  14.300
86539W        W50747  36.592   7.250  11.925
86540W        W50748  33.030  37.970  11.530
86541W        W50749  14.664  29.017   4.798
86542W        W50750  13.344  19.741   4.148
86543W        W50751   8.342   1.296   4.294
86544W        W50752  19.279   9.656   2.352
86545W        W50753   9.210  29.960   1.398
86546W        W50754  41.933  38.869  10.962
86547W        W50755  13.301  18.686  10.566
86548W        W50756  36.443  42.985   2.199
86549W        W50757  30.584  25.562  10.631
86550W        W50758  37.955   3.739   3.336
86551W        W50759  29.125  39.923  13.429
86552W        W50760  25.140  28.578   4.132
86553W        W50761  32.514  41.864  10.595
86554W        W50762  20.141  34.373   3.824
86555W        W50763  25.701   5.832   1.417
86556W        W50764   1.420   9.156  14.504
86557W        W50765   2.798  13.144  11.928
86558W        W50766  19.694  44.414   4.822
86559W        W50767  12.266  23.209   4.691
86560W        W50768   5.434  15.303   0.350
86561W        W50769  30.422  36.060   1.337
86562W        W50770  23.709  18.183  14.298
86563W        W50771  22.041  39.484   2.787
86564W        W50772  22.047  35.107  11.524
86565W        W50773  28.609  29.526   4.814
86566W        W50774  29.564  34.568   3.764
86567W        W50775  10.315  19.766   1.694
86568W        W50776  28.616  22.734  10.941
86569W        W50777  23.073  37.476  13.850
86570W        W50778  14.222   9.858  13.441
86571W        W50779  30.080  12.850  11.073
86572W        W50780  23.735  14.695   1.274
86573W        W50781  30.999  31.140   2.678
86574W        W50782  19.609   5.897   3.810
86575W        W50783  39.861  40.535   4.245
86576W        W50784  44.473  43.995  10.487
86577W        W50785   7.889  12.163  14.913
86578W        W50786  36.019  21.055  12.379
86579W        W50787   9.332  23.058  14.502
86580W        W50788  18.654  18.733   2.359
86581W        W50789  14.301   1.331   1.353
86582W        W50790  20.599  44.492  11.090
86583W        W50791  33.574  35.882   5.302
86584W        W50792  35.011   9.344   0.304
86585W        W50793  21.667  32.634  12.545
86586W        W50794   8.320   2.260   0.957
86587W        W50795   7.831  19.741   4.647
86588W        W50796  33.513  26.634  12.359
86589W        W50797  21.579  10.240  12.468
86590W        W50798   5.802   8.744   1.369
86591W        W50799  39.420  42.443  12.079
86592W        W50800  28.014  15.817  13.533
86593W        W50801  37.533  38.882   5.218
86594W        W50802  28.959  30.451   3.783
86595W        W50803  35.383  37.865   1.336
86596W        W50804  42.281   5.316   2.262
86597W        W50805  13.193  30.466   0.797
86598W        W50806  42.900  31.498   3.324
86599W        W50807  13.140  18.271   3.696
86600W        W50808   7.910  29.499   0.940
86601W        W50809  17.742  36.382  12.019
86602W        W50810   6.881  43.872   4.803
86603W        W50811  16.166   0.370   4.126
86604W        W50812  18.563  39.874  14.430
86605W        W50813  18.267   5.339  10.942
86606W        W50814  40.884   5.900   1.438
86607W        W50815   2.836   8.869   4.679
86608W        W50816  10.765  18.121   4.140
86609W        W50817  22.054  42.028   0.869
86610W        W50818  30.442  44.325  12.010
86611W        W50819  32.953  31.575  12.892
86612W        W50820   3.234   3.734   0.260
86613W        W50821   4.243   2.370   4.288
86614W        W50822  20.700  33.577   3.150
86615W        W50823   2.900  22.738   1.396
86616W        W50824   4.824  17.742   0.950
86617W        W50825  38.397  22.063   3.639
86618W        W50826   4.278  18.079   3.375
86619W        W50827  33.992  21.521  12.357
86620W        W50828  31.912   2.259  14.960
86621W        W50829  11.668  41.482   1.746
86622W        W50830  30.514   9.668  10.923
86623W        W50831  10.846  37.521   3.366
86624W        W50832  22.650  32.445  11.381
86625W        W50833  19.767  40.375   3.717
86626W        W50834   0.887   0.962  14.976
86627W        W50835   8.183   6.401   0.774
86628W        W50836  24.100  23.526  13.873
86629W        W50837  42.881  27.163   1.368
86630W        W50838  37.497  26.131  12.368
86631W        W50839  10.363  14.832   2.404
86632W        W50840   1.955  12.283  13.440
86633W        W50841  39.019  38.898   1.831
86634W        W50842   0.811  24.674  14.823
86635W        W50843   7.852  24.061   4.167
86636W        W50844  31.024  11.652  14.356
86637W        W50845  28.593  33.582  10.159
86638W        W50846  14.766   0.471   3.153
86639W        W50847  27.493  38.848  11.549
86640W        W50848   4.402  10.336  10.533
86641W        W50849  13.625   5.402  14.421
86642W        W50850  33.413   4.801  11.437
86643W        W50851  33.125  27.984   2.776
86644W        W50852  38.846  17.061   9.476
86645W        W50853  19.607  13.196  13.462
86646W        W50854  16.657  29.098  10.919
86647W        W50855  18.057  15.694  12.555
86648W        W50856   7.188  35.949  11.873
86649W        W50857  12.340  16.271  14.363
86650W        W50858  39.851  19.168  12.349
86651W        W50859  36.904   6.787  10.510
86652W        W50860  44.768  12.763   4.749
86653W        W50861  11.858  34.978  14.387
86654W        W50862  39.542  23.661  10.471
86655W        W50863  36.905   8.220   3.276
86656W        W50864   8.770   1.402  13.443
86657W        W50865  11.866   5.898   4.628
86658W        W50866  14.659  33.880  11.043
86659W        W50867  42.438  23.006  13.867
86660W        W50868  16.794  17.294   3.328
86661W        W50869   4.224  29.615   3.220
86662W        W50870  25.193  33.530  13.446
86663W        W50871  31.143   2.923  12.955
86664W        W50872  31.543   9.798  12.039
86665W        W50873  33.551  32.948   1.914
86666W        W50874  43.848  26.574  10.417
86667W        W50875  33.397  14.138   1.292
86668W        W50876  32.109  15.644  12.438
86669W        W50877  28.463  16.637   4.685
86670W        W50878  31.561  11.697   1.430
86671W        W50879  24.124   1.818  11.472
86672W        W50880  44.895  26.196  11.485
86673W        W50881  25.136  41.921   4.175
86674W        W50882  39.846  30.534  14.945
86675W        W50883  32.007   9.163   3.162
86676W        W50884   1.362  25.062  14.380
86677W        W50885   5.348  14.292  14.972
86678W        W50886  34.446   3.724   1.761
86679W        W50887  26.637  41.396  11.097
86680W        W50888  10.154  11.753  12.577
86681W        W50889  22.678   3.932   1.791
86682W        W50890  26.555  33.390   0.861
86683W        W50891  13.172  33.030   4.803
86684W        W50892  13.134  39.539   0.908
86685W        W50893  33.410  26.064   1.827
86686W        W50894  39.499   4.811   1.402
86687W        W50895  44.907  42.983  11.592
86688W        W50896  25.623   1.928  14.835
86689W        W50897   5.344  27.087  11.574
86690W        W50898  26.535  41.796   0.750
86691W        W50899  37.463  42.491   2.771
86692W        W50900   3.325  19.705   3.665
86693W        W50901  36.028  34.953  14.930
86694W        W50902  27.653  20.663  12.092
86695W        W50903  31.510  40.516   3.739
86696W        W50904   1.434  42.296   0.431
86697W        W50905  33.051  34.531   4.181
86698W        W50906   7.278   5.929   3.179
86699W        W50907  20.737  14.618  12.425
86700W        W50908  39.911  31.078  11.485
86701W        W50909  36.947  19.242  10.414
86702W        W50910  43.282   6.889   2.777
86703W        W50911  31.089   7.181  12.872
86704W        W50912  36.959  17.077  10.987
86705W        W50913  29.007  38.840  13.981
86706W        W50914  26.676  23.559   2.799
86707W        W50915  27.458   1.302  11.059
86708W        W50916  25.139  37.084   0.962
86709W        W50917   2.752  23.493   2.717
86710W        W50918   0.373  24.503   3.183
86711W        W50919  16.607  42.355   2.789
86712W        W50920   2.347  43.420   1.329
86713W        W50921  28.129   3.292  11.445
86714W        W50922  12.288  29.599  14.321
86715W        W50923   5.731  30.064   3.222
86716W        W50924   1.777   5.762   3.318
86717W        W50925  43.833  39.974  11.464
86718W        W50926  41.428  41.419   3.263
86719W        W50927  14.296  29.935   4.674
86720W        W50928  30.567  17.772  14.944
86721W        W50929  17.745  28.656  12.463
86722W        W50930  21.108  27.467  13.943
86723W        W50931  40.813   3.429   2.795
86724W        W50932  31.112  15.578  12.454
86725W        W50933  44.359  33.396   2.783
86726W        W50934  28.520  16.160   4.789
86727W        W50935  25.002  44.991  14.457
86728W        W50936  33.011   2.919  14.483
86729W        W50937  18.149  34.999   0.267
86730W        W50938  43.394  29.008   1.239
86731W        W50939  34.602  33.471   4.115
86732W        W50940  25.693  27.974   1.917
86733W        W50941  44.947  11.155  13.791
86734W        W50942   7.202  41.361  14.485
86735W        W50943  44.755   3.759  14.857
86736W        W50944  14.130  13.841  12.387
86737W        W50945  37.963  27.967   3.288
86738W        W50946   9.232   9.326   2.740
86739W        W50947   6.841   5.243  13.836
86740W        W50948  28.083  18.105  10.436
86741W        W50949   4.443   0.949  13.045
86742W        W50950  11.149   6.764   2.722
86743W        W50951  29.518  32.104   1.311
86744W        W50952  29.101  29.103   0.289
86745W        W50953  21.537  14.812   5.705
86746W        W50954  25.503  38.836   4.709
86747W        W50955  27.125   3.899   1.738
86748W        W50956  20.704  44.450   4.679
86749W        W50957  26.456  25.484  11.102
86750W        W50958  20.264  17.302   4.218
86751W        W50959   5.201  43.331   4.786
86752W        W50960  20.241  42.996  11.564
86753W        W50961  13.698   4.417  10.525
86754W        W50962  35.597  29.506   2.309
86755W        W50963  40.381   6.802  10.893
86756W        W50964  21.024  20.725  14.787
86757W        W50965   1.377  25.091  12.522
86758W        W50966  17.079  40.818   1.290
86759W        W50967  11.857   7.270  10.997
86760W        W50968  16.081  26.580  13.853
86761W        W50969  39.901  42.410  12.441
86762W        W50970  24.542  41.300   2.703
86763W        W50971   2.751  40.484  14.378
86764W        W50972   5.256   5.219  12.055
86765W        W50973  16.305  44.367  13.839
86766W        W50974  43.486  14.257  11.019
86767W        W50975   9.885  35.547   3.855
86768W        W50976  38.852   5.815  10.496
86769W        W50977   4.793  10.195  13.921
86770W        W50978  36.034  16.591   2.695
86771W        W50979  14.113  32.905   2.827
86772W        W50980  25.104  36.005   1.432
86773W        W50981  27.012   9.334  11.049
86774W        W50982  11.851  26.126   2.276
86775W        W50983  25.673  13.174   1.320
86776W        W50984   5.854  12.621   4.239
86777W        W50985  32.123  37.449  11.092
86778W        W50986  43.292   8.313  11.940
86779W        W50987  13.113  33.115  14.358
86780W        W50988  31.454  33.492  13.481
86781W        W50989  29.996   1.399  14.491
86782W        W50990  33.496   5.811   2.314
86783W        W50991  20.124  29.443   0.362
86784W        W50992  12.841  13.191  10.453
86785W        W50993  21.712  36.001  14.805
86786W        W50994  14.650  41.946   2.775
86787W        W50995   8.287  39.873   0.467
86788W        W50996   2.840  27.560  12.412
86789W        W50997   7.333   1.480   4.628
86790W        W50998  42.856  33.987   1.789
86791W        W50999  14.127  37.000   2.321
86792W        W51000   8.745  18.054   2.790
86793W        W51001  26.167  27.506  10.918
86794W        W51002   7.349  43.435  12.535
86795W        W51003  43.448   3.884   2.862
86796W        W51004  19.567  18.056   2.830
86797W        W51005   0.981  22.057  12.925
86798W        W51006  10.638  30.634  12.065
86799W        W51007  43.935  15.146  13.367
86800W        W51008  26.956  17.160   4.739
86801W        W51009  23.581  28.031  10.963
86802W        W51010  40.361  12.690   0.363
86803W        W51011  17.249  15.738   5.223
86804W        W51012  35.463  44.298  13.040
86805W        W51013  26.495  31.052   4.811
86806W        W51014  20.096  12.657  13.406
86807W        W51015  38.340   5.298  14.999
86808W        W51016  43.942  40.364  14.774
86809W        W51017  42.449   9.757   2.338
86810W        W51018  37.560   6.847   0.765
86811W        W51019   3.883  23.121  12.992
86812W        W51020   1.875  20.605   2.372
86813W        W51021  20.595  10.681   4.796
86814W        W51022   9.261   2.842   2.890
86815W        W51023   0.301  38.904  13.806
86816W        W51024   1.430  17.638   2.282
86817W        W51025   3.250  26.642   1.719
86818W        W51026   6.906  36.020   1.328
86819W        W51027  25.116  18.767   1.323
86820W        W51028  42.467  20.093   4.256
86821W        W51029  11.827  11.243  14.853
86822W        W51030  13.247   6.679  10.484
86823W        W51031  30.064  37.835  13.905
86824W        W51032  33.035  35.555  12.516
86825W        W51033  44.824  21.189   4.286
86826W        W51034   3.847  17.117  12.470
86827W        W51035  39.918  23.172  11.058
86828W        W51036  40.931   5.334   2.308
86829W        W51037  25.102  43.271  12.545
86830W        W51038  35.056   8.796   4.620
86831W        W51039  29.935  10.298   3.689
86832W        W51040  43.302   8.832  13.425
86833W        W51041  33.072  41.354  13.941
86834W        W51042  39.554  26.166  14.300
86835W        W51043  25.522  20.767  14.386
86836W        W51044   7.223  33.970  13.433
86837W        W51045  24.528  41.847  14.798
86838W        W51046  28.646  16.584   0.830
86839W        W51047   4.444  41.428  13.510
86840W        W51048  14.595  14.312  11.874
86841W        W51049  13.624  26.133   2.663
86842W        W51050   3.355  16.235  13.328
86843W        W51051  23.110  36.481  14.368
86844W        W51052  44.863  32.949   2.251
86845W        W51053  38.496   9.286   4.172
86846W        W51054   0.306  44.397  11.499
86847W        W51055  12.618  41.318  11.092
86848W        W51056   1.307  12.158   3.721
86849W        W51057  41.462   2.356   1.921
86850W        W51058   6.186  25.073   2.189
86851W        W51059  25.706  30.011  13.863
86852W        W51060  35.437  37.062  10.550
86853W        W51061  14.327   9.199  11.395
86854W        W51062  23.131   5.384   2.413
86855W        W51063  19.696  22.201   4.806
86856W        W51064   3.779  21.530   0.830
86857W        W51065  34.874  26.100  10.551
86858W        W51066   3.439  19.647  13.450
86859W        W51067  18.053  44.503  12.353
86860W        W51068  30.593  25.531  14.802
86861W        W51069  16.117  42.949  13.845
86862W        W51070  31.403  22.587   3.719
86863W        W51071  37.481   8.205  14.363
86864W        W51072  41.872  16.120  14.994
86865W        W51073   4.727  31.627  10.604
86866W        W51074   2.232   4.720   1.715
86867W        W51075  32.042   5.730  10.436
86868W        W51076  43.324  36.036   1.767
86869W        W51077  33.409  14.832   1.920
86870W        W51078  26.135  29.955   0.403
86871W        W51079  24.616  33.413   2.736
86872W        W51080  10.181  24.040  11.023
86873W        W51081  11.712  26.682   3.359
86874W        W51082  25.513  28.475  12.389
86875W        W51083  26.549  20.113  10.935
86876W        W51084  16.734  12.763  13.879
86877W        W51085   3.764  42.992   3.766
86878W        W51086  30.585  28.640  11.948
86879W        W51087  34.498  26.205  13.339
86880W        W51088  44.406   0.888  14.291
86881W        W51089  26.472  40.998  13.450
86882W        W51090  43.510  19.551  10.566
86883W        W51091   8.855  13.657   9.562
86884W        W51092  19.578  36.851   4.618
86885W        W51093  38.374   4.840  13.814
86886W        W51094  13.629  26.526   3.645
86887W        W51095  33.978   6.267   2.204
86888W        W51096   8.212  37.391  13.388
86889W        W51097  20.070  21.154   1.309
86890W        W51098  34.062  26.087  13.888
86891W        W51099  27.101  20.261  12.020
86892W        W51100   9.205  11.251   4.704
86893W        W51101  35.593   0.454  14.850
86894W        W51102   2.962  11.729  11.022
86895W        W51103  16.701  14.609   2.248
86896W        W51104  40.380  12.169  11.424
86897W        W51105  11.673  29.978  12.927
86898W        W51106   5.355  20.702  14.973
86899W        W51107   8.378  30.162  14.819
86900W        W51108  19.107   2.361   2.729
86901W        W51109  31.516   4.756  12.550
86902W        W51110  24.485  31.637   2.267
86903W        W51111  11.749  35.859  12.025
86904W        W51112  26.996   2.947   4.287
86905W        W51113   7.414  38.037   3.277
86906W        W51114  19.164  40.018  11.427
86907W        W51115  13.720  22.229   3.668
86908W        W51116   5.263   6.856   4.243
86909W        W51117  21.251  29.585   1.321
86910W        W51118  28.516  34.878   2.664
86911W        W51119  39.505  29.925  10.553
86912W        W51120  40.876   8.693  10.523
86913W        W51121  23.603   8.382   4.737
86914W        W51122  41.023  34.120   2.859
86915W        W51123   7.294   5.875  10.612
86916W        W51124  36.895  19.607   2.679
86917W        W51125   5.242  14.158   0.334
86918W        W51126  12.278  14.191  11.608
86919W        W51127   0.479  12.622  14.860
86920W        W51128   8.235  16.772  14.337
86921W        W51129  41.803  28.180   0.257
86922W        W51130  32.065  20.121  13.029
86923W        W51131  15.293  15.735  13.309
86924W        W51132  20.192  23.711  14.788
86925W        W51133  16.148  44.801  13.483
86926W        W51134  38.366  39.845   3.311
86927W        W51135   8.692  36.507   0.469
86928W        W51136   8.685  40.051  12.044
86929W        W51137  20.108  15.175  10.132
86930W        W51138  39.973  16.152  14.008
86931W        W51139  16.602  14.284  14.287
86932W        W51140  40.441  17.745  10.429
86933W        W51141  35.091  16.626  10.614
86934W        W51142  32.022   3.354   1.282
86935W        W51143   9.169  15.201  11.510
86936W        W51144  39.876   2.364   3.355
86937W        W51145  44.788  37.071   0.459
86938W        W51146  34.020  18.276  11.584
86939W        W51147  21.554  22.745  12.041
86940W        W51148  17.123  15.102  10.947
86941W        W51149  27.627  10.172   2.344
86942W        W51150  15.714  36.023   2.367
86943W        W51151  23.722  26.057   1.917
86944W        W51152   2.831   8.820   3.184
86945W        W51153  42.405  29.450  13.351
86946W        W51154  22.580   5.310   1.266
86947W        W51155   0.396   8.749   3.361
86948W        W51156  26.190  11.252   0.735
86949W        W51157  25.657  43.345  14.413
86950W        W51158  17.212   3.722  10.930
86951W        W51159  17.274  16.075  13.981
86952W        W51160  32.028   3.816   2.328
86953W        W51161  26.083  23.578  11.458
86954W        W51162  13.237  25.193   2.265
86955W        W51163  11.193  20.078   4.143
86956W        W51164  35.457  20.195  10.987
86957W        W51165  41.336   8.243  14.361
86958W        W51166   3.369   6.331  13.401
86959W        W51167  40.480  24.554   1.804
86960W        W51168  40.347  12.761   3.750
86961W        W51169  11.146   1.946   3.149
86962W        W51170  42.867  29.058  11.932
86963W        W51171   8.292   4.373   0.837
86964W        W51172  11.358  36.011   0.469
86965W        W51173  12.728  32.398  12.973
86966W        W51174  11.326  29.980   2.725
86967W        W51175  12.277  29.626   4.271
86968W        W51176  38.020  35.066   1.741
86969W        W51177   3.741  21.754   0.318
86970W        W51178  33.387   6.831   4.688
86971W        W51179   1.362  23.149   3.169
86972W        W51180   3.288   6.810   1.258
86973W        W51181   6.858   7.801   2.726
86974W        W51182  12.826  31.558  12.348
86975W        W51183  22.518  33.592  14.494
86976W        W51184  15.692  42.441  11.466
86977W        W51185  43.282  34.957  10.133
86978W        W51186  31.053   9.786  12.065
86979W        W51187  10.288  29.576  10.009
86980W        W51188  28.050  19.646  13.828
86981W        W51189  31.623  17.196  11.004
86982W        W51190  36.029  17.750   4.271
86983W        W51191  10.383  36.841   5.276
86984W        W51192  32.462   1.325   1.790
86985W        W51193   5.204  25.187  11.124
86986W        W51194   0.816  34.087  10.578
86987W        W51195   8.716  11.716  10.622
86988W        W51196  36.975  31.441  12.388
86989W        W51197  14.709  10.706  10.478
86990W        W51198   0.458  15.319   1.344
86991W        W51199  26.040  42.817   1.278
86992W        W51200   6.869  36.996  11.124
86993W        W51201  41.864  15.182   1.255
86994W        W51202  20.079  26.007   0.429
86995W        W51203  41.895  23.709   3.811
86996W        W51204   8.746  32.078  10.968
86997W        W51205  33.542  11.868  13.953
86998W        W51206   7.698   0.260  10.432
86999W        W51207  16.713  42.823   2.743
87000W        W51208  20.081  17.791  14.311
87001W        W51209  26.123  11.186  12.910
87002W        W51210   7.764  13.133  14.960
87003W        W51211  28.097   2.749   2.831
87004W        W51212  18.242  25.706  14.019
87005W        W51213  29.458  16.247   2.193
87006W        W51214   7.344  28.499  11.069
87007W        W51215  16.099  20.265   2.217
87008W        W51216   8.895  28.625  13.526
87009W        W51217  27.619  37.882   2.902
87010W        W51218  35.473  43.885   2.663
87011W        W51219  14.225  44.263   2.671
87012W        W51220  31.053  16.688   3.325
87013W        W51221  20.657  31.531  14.840
87014W        W51222  44.922  33.475  12.417
87015W        W51223   7.348  11.702   4.734
87016W        W51224   0.419  31.150  11.472
87017W        W51225   6.913  10.653  11.408
87018W        W51226  37.834  20.592  14.793
87019W        W51227  29.013  26.512  13.965
87020W        W51228   0.968  19.603   5.097
87021W        W51229   3.945  28.934   1.823
87022W        W51230   9.677   6.316  12.451
87023W        W51231  16.636  32.979  12.522
87024W        W51232  15.778  30.920   3.310
87025W        W51233  22.569  11.792  11.508
87026W        W51234  34.117  14.641   2.773
87027W        W51235  14.198   2.838  12.894
87028W        W51236  38.465  29.949   3.209
87029W        W51237  23.122   9.303  12.003
87030W        W51238   2.328  38.025   3.730
87031W        W51239  10.837  25.586  10.919
87032W        W51240  44.369  28.067   1.755
87033W        W51241  37.456   8.721   0.776
87034W        W51242  27.683  19.094   4.811
87035W        W51243  44.853  39.545   0.318
87036W        W51244   3.794  29.481  10.963
87037W        W51245  15.105  30.914   1.799
87038W        W51246  34.866  36.947   3.275
87039W        W51247   7.262  19.200   2.831
87040W        W51248  29.045   9.344  14.281
87041W        W51249  30.158  12.231   3.730
87042W        W51250  42.811  32.410  10.577
87043W        W51251  28.077  34.883   1.762
87044W        W51252  25.580   1.363  12.912
87045W        W51253  43.486  24.722   1.750
87046W        W51254   5.699  23.593  14.376
87047W        W51255  41.025  17.587   3.715
87048W        W51256  27.540  31.422  11.941
87049W        W51257  25.469  37.886  10.516
87050W        W51258  37.545  27.986   3.293
87051W        W51259  41.014  38.042  11.016
87052W        W51260  17.779  33.009  10.472
87053W        W51261  24.700  19.157  10.523
87054W        W51262   9.180  15.809   3.281
87055W        W51263  13.810  44.001   1.357
87056W        W51264  37.494  10.195  10.634
87057W        W51265  14.820   8.880   3.777
87058W        W51266  30.080  18.643   1.401
87059W        W51267  27.562  25.528  13.791
87060W        W51268  38.478  44.845   0.323
87061W        W51269  16.252  42.971   0.441
87062W        W51270  18.635   1.303   0.425
87063W        W51271   3.895  23.520  13.424
87064W        W51272  36.915  13.311  11.492
87065W        W51273   4.757   7.280  11.063
87066W        W51274  42.285  41.395   3.731
87067W        W51275  29.058  13.678   0.414
87068W        W51276  11.161   5.280   1.344
87069W        W51277  42.461  28.650   0.771
87070W        W51278   9.796  41.379  11.503
87071W        W51279   2.891  13.724   1.255
87072W        W51280   5.732  27.107  14.987
87073W        W51281  24.606   2.815   4.156
87074W        W51282  34.109   2.313   0.797
87075W        W51283  31.430  21.077  13.417
87076W        W51284  27.078  19.148  12.447
87077W        W51285   9.367   9.331  11.032
87078W        W51286  16.747  38.980   2.694
87079W        W51287   4.286  27.950  11.470
87080W        W51288  27.950  30.027  12.545
87081W        W51289   5.733  26.592  14.351
87082W        W51290  33.056   6.268  14.871
87083W        W51291  15.159   0.316   4.762
87084W        W51292  28.670  15.242   3.248
87085W        W51293   0.783  35.941   1.887
87086W        W51294  10.275  17.667   0.773
87087W        W51295  25.035  44.455  14.393
87088W        W51296  18.266  18.218  13.928
87089W        W51297  44.316   7.742  11.074
87090W        W51298  16.791   8.343  12.940
87091W        W51299  37.958  30.933   1.724
87092W        W51300  32.902  37.505   0.854
87093W        W51301   6.764   9.784   3.784
87094W        W51302   1.896  11.311  12.879
87095W        W51303   7.366   8.403   2.724
87096W        W51304  10.367   2.412  12.352
87097W        W51305  10.224  26.688  10.427
87098W        W51306  38.459   4.300   0.958
87099W        W51307  22.129  31.451   0.864
87100W        W51308  29.918  35.066   2.198
87101W        W51309  16.203  26.604   4.792
87102W        W51310  32.636  34.043   3.713
87103W        W51311  28.027  19.773   1.797
87104W        W51312  15.758  38.450   3.268
87105W        W51313  22.545   3.859   3.248
87106W        W51314  35.908  40.528  11.416
87107W        W51315  33.907   2.832   3.632
87108W        W51316  20.143  25.640   0.347
87109W        W51317  24.995  39.967   3.703
87110W        W51318   4.387  44.948   3.800
87111W        W51319  25.075   9.884   0.816
87112W        W51320  41.329  10.340   1.353
87113W        W51321  28.675  22.614   0.383
87114W        W51322   0.967  40.408  10.449
87115W        W51323  19.622  11.790  12.937
87116W        W51324   1.958   8.212   0.818
87117W        W51325   6.843  14.600  13.043
87118W        W51326  42.998  30.105   1.930
87119W        W51327  29.503  15.251  13.943
87120W        W51328   7.746  16.752   1.284
87121W        W51329  27.465  13.328  13.349
87122W        W51330  24.109  16.811   0.407
87123W        W51331  21.551   5.424  13.033
87124W        W51332   3.924  26.524  12.524
87125W        W51333  11.833  16.194   0.456
87126W        W51334  28.023   7.365   3.639
87127W        W51335  42.332  15.235  14.363
87128W        W51336  22.052   3.936  14.286
87129W        W51337  42.371  39.953  14.490
87130W        W51338  26.659  25.531  12.487
87131W        W51339  23.080  22.578  14.875
87132W        W51340  21.247  10.309  10.947
87133W        W51341   0.947   0.899   5.660
87134W        W51342  16.244  37.495   0.357
87135W        W51343  18.566  34.085   1.254
87136W        W51344  19.041  43.452  12.356
87137W        W51345   4.892  33.880  11.878
87138W        W51346  19.145   8.868  10.421
87139W        W51347   4.413  42.427  11.608
87140W        W51348  19.750  43.878   2.229
87141W        W51349  39.432  28.617  13.915
87142W        W51350  14.179  11.176  12.975
87143W        W51351  21.250  30.425  13.541
87144W        W51352  27.591   0.289   1.703
87145W        W51353   9.713   1.445   0.734
87146W        W51354  34.924  42.898  10.579
87147W        W51355  13.114  40.400  12.378
87148W        W51356  20.710  41.948  12.881
87149W        W51357  42.781  31.449   0.873
87150W        W51358  24.621  19.070  12.533
87151W        W51359  28.986  40.394   0.383
87152W        W51360   7.737  19.594   4.288
87153W        W51361  44.836  35.984  11.963
87154W        W51362  15.767  26.957   2.281
87155W        W51363  30.413  30.982   2.216
87156W        W51364  30.519  27.018  14.288
87157W        W51365  40.488  20.753  13.530
87158W        W51366   6.426  10.152  10.942
87159W        W51367   2.413  29.098  13.032
87160W        W51368  13.671  41.351  14.386
87161W        W51369  30.458  28.134  14.958
87162W        W51370  31.115  27.987  14.311
87163W        W51371  22.720  24.078   4.272
87164W        W51372  25.210  39.844   1.379
87165W        W51373  13.346  32.492  11.057
87166W        W51374  30.589  37.478  11.441
87167W        W51375   4.248  38.829  13.892
87168W        W51376   5.918  37.439  13.387
87169W        W51377   9.197  11.768   3.869
87170W        W51378  41.032  36.375  11.528
87171W        W51379   3.813  19.221  12.904
87172W        W51380  41.452  11.655  13.880
87173W        W51381  11.772  38.008  11.395
87174W        W51382  22.514  26.109   4.653
87175W        W51383  26.525   3.450   5.172
87176W        W51384  12.218  28.582  12.486
87177W        W51385  37.901  15.320   1.300
87178W        W51386  26.070  44.914  12.493
87179W        W51387  22.234  34.066   1.301
87180W        W51388  44.371  42.974  10.417
87181W        W51389   3.920  35.109   1.719
87182W        W51390  24.190  14.197   4.274
87183W        W51391  39.894  19.641   4.752
87184W        W51392   4.263  31.983  12.449
87185W        W51393  11.141   0.934  13.915
87186W        W51394   8.688  18.283   0.289
87187W        W51395  24.984  35.959  11.554
87188W        W51396   1.282  17.277   2.813
87189W        W51397  36.453  20.252  11.065
87190W        W51398   0.816  27.611   2.847
87191W        W51399  25.048  39.033  11.016
87192W        W51400  40.999   3.298   0.465
87193W        W51401  21.249   9.267  10.599
87194W        W51402  23.595   5.777  14.391
87195W        W51403  31.085  35.900   0.940
87196W        W51404  12.131   2.946  12.855
87197W        W51405  11.184  21.581   0.855
87198W        W51406  35.073   7.788  14.903
87199W        W51407  19.285   6.206  14.498
87200W        W51408  12.650  25.556   1.918
87201W        W51409   0.966  14.765   4.250
87202W        W51410  42.311  13.337  10.503
87203W        W51411   1.378  23.240  13.431
87204W        W51412   3.776  42.849   1.912
87205W        W51413   4.779  18.126   0.345
87206W        W51414  20.542  32.076  10.623
87207W        W51415  41.451  35.387   1.386
87208W        W51416  10.331  41.932  14.814
87209W        W51417  17.201   3.828  11.979
87210W        W51418  34.479  28.027  10.959
87211W        W51419   2.278  32.471   1.712
87212W        W51420  40.472  25.469  12.938
87213W        W51421  10.829  19.058  10.464
87214W        W51422  34.443  40.802  13.888
87215W        W51423  34.394  11.345  12.551
87216W        W51424  44.000  12.185   1.224
87217W        W51425  31.008   5.335   2.415
87218W        W51426  42.020  17.655  10.907
87219W        W51427  41.420  16.745  14.501
87220W        W51428   0.898  20.727  12.513
87221W        W51429  28.561   0.467  10.548
87222W        W51430  44.795  26.684  14.872
87223W        W51431  13.221   8.669  10.011
87224W        W51432  31.011  21.234  13.997
87225W        W51433   0.362   5.313   1.882
87226W        W51434  42.807  12.168   2.211
87227W        W51435   5.745   2.304   0.395
87228W        W51436   9.162  41.466  14.821
87229W        W51437   8.355  24.215  14.950
87230W        W51438  12.623  16.720  14.956
87231W        W51439   2.288   7.808   3.684
87232W        W51440  39.473   5.785  10.475
87233W        W51441  13.641   2.301   4.191
87234W        W51442  44.263  34.043   3.333
87235W        W51443  26.494   5.894   2.770
87236W        W51444  12.752  33.949   1.851
87237W        W51445  17.185   6.879  12.512
87238W        W51446  35.481  33.107   1.440
87239W        W51447  17.214  40.028  13.883
87240W        W51448  36.932   1.955   1.802
87241W        W51449  12.633  23.107   0.329
87242W        W51450  26.999  36.372   4.709
87243W        W51451  23.062  31.487  14.393
87244W        W51452  39.838  34.374  11.486
87245W        W51453  13.155  23.074   3.347
87246W        W51454  38.423  31.932  13.497
87247W        W51455  21.251  39.340  14.888
87248W        W51456   1.259   3.827   4.652
87249W        W51457  41.445  42.505   4.128
87250W        W51458  37.562  22.544  11.109
87251W        W51459  42.456  27.497  10.546
87252W        W51460  21.557  44.280  10.538
87253W        W51461  42.888  41.812   2.701
87254W        W51462  26.541  20.061  10.442
87255W        W51463   1.336  18.667  10.932
87256W        W51464   9.150  24.619   2.763
87257W        W51465  22.236  37.531  12.351
87258W        W51466  39.816  15.823  11.102
87259W        W51467  28.610  25.581   1.727
87260W        W51468  42.331   0.347  14.922
87261W        W51469  41.817  21.117  12.956
87262W        W51470   9.303  27.017  11.442
87263W        W51471  15.788  36.381   0.830
87264W        W51472  35.406  40.379   4.262
87265W        W51473  19.722  42.296  13.846
87266W        W51474  30.597  12.647   5.296
87267W        W51475  44.898  34.474  13.854
87268W        W51476  24.164  26.581  12.380
87269W        W51477  12.208   2.428  14.392
87270W        W51478  27.654  28.184  11.873
87271W        W51479   7.814  31.902   0.330
87272W        W51480  40.922   0.803   0.474
87273W        W51481  31.981  13.711   3.823
87274W        W51482   8.862  26.589   4.149
87275W        W51483  41.984  31.986  14.434
87276W        W51484  30.637  11.861  12.034
87277W        W51485  28.658  27.621  12.558
87278W        W51486   0.419  22.692  10.467
87279W        W51487  20.531  12.712  11.975
87280W        W51488  38.409  19.630  12.982
87281W        W51489  14.627   7.302  14.403
87282W        W51490  13.252   4.229  10.435
87283W        W51491  22.569  26.009  11.958
87284W        W51492  44.284  34.526  11.918
87285W        W51493  42.892   5.354   1.853
87286W        W51494   4.243  26.050  10.942
87287W        W51495   6.409   3.370   2.211
87288W        W51496  37.974  37.496  12.013
87289W        W51497  42.839  28.611  12.492
87290W        W51498  33.914  30.936   3.146
87291W        W51499  31.646  37.500  12.058
87292W        W51500  21.210   6.252  11.968
87293W        W51501  38.541  40.892   1.789
87294W        W51502  24.584  23.569   0.943
87295W        W51503   0.930  24.137   3.707
87296W        W51504  39.889  37.996   2.802
87297W        W51505  41.331   2.788   2.791
87298W        W51506  42.368  39.060   0.314
87299W        W51507   7.225  44.261   2.344
87300W        W51508  40.386  21.143  14.833
87301W        W51509  18.731  14.589  13.052
87302W        W51510   9.846   1.881  11.521
87303W        W51511  12.118  31.039  12.397
87304W        W51512   6.248  20.571   4.714
87305W        W51513  44.277   4.801  14.836
87306W        W51514  32.550  21.716  14.028
87307W        W51515  13.733  21.085  14.412
87308W        W51516   5.908  28.960   4.817
87309W        W51517  44.420  27.062   3.174
87310W        W51518  24.189  44.968   0.378
87311W        W51519  11.659  44.273  14.941
87312W        W51520  23.058   0.317   1.251
87313W        W51521   2.741   3.423  13.432
87314W        W51522  29.129  29.130  10.465
87315W        W51523  26.975  36.881  14.431
87316W        W51524  13.180  16.607  14.030
87317W        W51525   4.286  30.911   2.197
87318W        W51526  28.010  27.956   2.761
87319W        W51527  21.582  34.954  10.996
87320W        W51528  11.856  38.363  13.327
87321W        W51529   5.702  30.993  10.526
87322W        W51530  36.019   4.859   4.138
87323W        W51531  15.647  16.305  12.059
87324W        W51532  28.042  20.552  11.073
87325W        W51533  33.879  24.577  10.582
87326W        W51534  39.032  35.376   0.796
87327W        W51535  20.273  37.414   0.785
87328W        W51536  25.171  42.340   2.732
87329W        W51537  10.171  21.754   5.176
87330W        W51538  43.463  10.266   2.391
87331W        W51539  32.578   8.717   1.225
87332W        W51540  30.984  27.056   3.735
87333W        W51541  31.568   5.774  14.398
87334W        W51542  22.602  33.887   4.706
87335W        W51543  38.989  33.937  10.981
87336W        W51544  21.049   2.250   4.240
87337W        W51545   0.810  38.546   1.886
87338W        W51546  42.885   6.274   1.794
87339W        W51547  22.589  20.541  11.572
87340W        W51548  24.531   6.752   3.772
87341W        W51549  40.525   9.717  13.010
87342W        W51550   5.812  32.499   4.120
87343W        W51551  33.467  34.098   0.453
87344W        W51552   1.478  37.033   4.664
87345W        W51553   0.435   3.833   0.308
87346W        W51554  25.209  11.810  10.610
87347W        W51555  10.224  29.583  10.559
87348W        W51556  28.930   6.329   2.256
87349W        W51557  21.534  29.566  12.569
87350W        W51558  33.606   5.916   1.729
87351W        W51559  18.199  33.978  11.488
87352W        W51560  16.622  14.150   4.662
87353W        W51561  14.156   1.910   4.335
87354W        W51562  32.576  18.713   3.294
87355W        W51563  43.867   8.657  14.780
87356W        W51564   7.767  26.117  11.467
87357W        W51565  11.212  37.465   2.752
87358W        W51566   3.334  28.511  14.464
87359W        W51567   4.698  21.148   4.324
87360W        W51568  35.884  21.219   0.753
87361W        W51569  19.627  10.683   1.755
87362W        W51570   6.421   1.924  13.876
87363W        W51571  20.132  15.128  12.467
87364W        W51572  25.479  30.642  13.023
87365W        W51573  10.768  31.632   1.332
87366W        W51574   0.928  17.559   2.826
87367W        W51575   4.917  26.668   5.114
87368W        W51576  15.818  37.409  12.900
87369W        W51577  32.142  31.913   5.086
87370W        W51578   3.871  32.565   3.847
87371W        W51579   6.316  37.022  12.974
87372W        W51580   4.302  39.550  12.445
87373W        W51581  17.580  32.043   0.374
87374W        W51582  23.991   8.727  14.504
87375W        W51583   8.891  15.097  11.941
87376W        W51584   5.785  21.220   4.685
87377W        W51585  37.955  31.003   2.850
87378W        W51586   7.765  29.503  14.357
87379W        W51587  20.609  37.428   2.763
87380W        W51588   7.219   2.878   1.244
87381W        W51589  12.301  42.344   4.216
87382W        W51590  24.116  35.518  13.358
87383W        W51591  29.919  17.096  13.838
87384W        W51592  22.233  40.435  12.937
87385W        W51593   4.262  19.253  14.873
87386W        W51594  16.654  34.613   2.841
87387W        W51595  23.193  34.508   4.669
87388W        W51596  12.793  13.674  12.872
87389W        W51597  10.254  11.626   5.601
87390W        W51598  33.599  26.632  12.033
87391W        W51599  29.513   3.246   2.363
87392W        W51600  10.720  38.422   2.341
87393W        W51601  44.503  27.587   1.871
87394W        W51602  29.020  25.612   2.688
87395W        W51603  42.858  29.527  10.610
87396W        W51604   3.265  13.248   4.351
87397W        W51605  27.982  13.337   3.719
87398W        W51606   9.657  14.323  13.997
87399W        W51607  16.769  19.548   2.853
87400W        W51608  11.730  20.218   3.825
87401W        W51609  19.773  39.827   2.379
87402W        W51610  25.512   2.379   3.149
87403W        W51611  33.456  14.169   4.139
87404W        W51612   1.948  33.461  13.939
87405W        W51613   9.646  41.888  13.399
87406W        W51614   9.318  25.543  11.080
87407W        W51615  12.804  25.135   3.216
87408W        W51616  24.045  20.742   3.731
87409W        W51617  13.117   4.447   1.878
87410W        W51618  20.051  27.955  14.482
87411W        W51619  14.726  35.478  12.038
87412W        W51620  38.995   3.227   1.897
87413W        W51621   0.830  13.263   3.310
87414W        W51622  35.536  25.651   4.241
87415W        W51623  40.054   3.276  12.015
87416W        W51624  28.009  13.835  12.536
87417W        W51625   2.296  31.140  14.974
87418W        W51626  35.100  16.764  12.085
87419W        W51627  26.047  35.051   4.219
87420W        W51628  36.931  26.012   3.779
87421W        W51629  41.399   8.787   5.146
87422W        W51630  16.787  31.412   4.290
87423W        W51631  42.335  37.035   4.636
87424W        W51632  40.830   7.905   3.343
87425W        W51633  12.191   4.308   1.420
87426W        W51634  23.082   0.271   4.704
87427W        W51635  21.609  28.010   0.909
87428W        W51636  22.010  31.436  11.588
87429W        W51637   7.699   2.880  12.905
87430W        W51638  32.591  13.346   0.328
87431W        W51639  37.076  13.244  11.969
87432W        W51640  44.315  13.753   2.731
87433W        W51641  31.129  16.245   1.428
87434W        W51642   2.345   7.383   3.764
87435W        W51643  21.209  11.631   1.743
87436W        W51644  24.716  11.181  13.014
87437W        W51645   1.392  18.727   3.830
87438W        W51646  36.055   9.800  14.011
87439W        W51647  32.438   1.844  12.431
87440W        W51648   2.797  16.718   3.832
87441W        W51649  30.556  18.590  10.426
87442W        W51650  12.617  13.283   0.279
87443W        W51651  34.506  16.794   0.481
87444W        W51652  44.399  29.926  13.965
87445W        W51653   3.260  34.550  13.460
87446W        W51654  27.656  12.154   1.334
87447W        W51655  29.497  39.376  10.440
87448W        W51656   3.852  31.554   4.742
87449W        W51657   8.837  38.050   3.271
87450W        W51658  33.616  15.108  10.470
87451W        W51659  19.722  24.584  11.464
87452W        W51660   9.754  28.946  14.298
87453W        W51661  32.629  38.371   4.682
87454W        W51662  43.512  14.132   4.776
87455W        W51663   5.850  38.945  13.317
87456W        W51664  20.233  16.219   0.472
87457W        W51665  26.493  31.558   3.386
87458W        W51666  33.997  30.955   1.238
87459W        W51667  19.775  20.270   3.807
87460W        W51668  13.607   0.389   2.716
87461W        W51669  38.020  42.458   3.264
87462W        W51670  21.724  30.939  11.531
87463W        W51671  24.482   2.338   2.826
87464W        W51672  33.410   3.293  14.770
87465W        W51673  25.069  34.514   3.775
87466W        W51674  22.161   7.729   2.190
87467W        W51675   8.305  44.500  11.962
87468W        W51676  20.181  19.264  13.312
87469W        W51677  28.967  10.260   3.267
87470W        W51678  20.545  14.222   4.237
87471W        W51679  29.499  42.867  10.978
87472W        W51680  15.650  22.529  13.032
87473W        W51681  22.242   0.317   2.285
87474W        W51682  27.169  40.388  11.019
87475W        W51683  28.624  27.641  13.853
87476W        W51684  33.520  14.634   5.766
87477W        W51685   1.376  40.313   2.703
87478W        W51686  40.335  33.461  13.326
87479W        W51687  22.060  21.546   3.857
87480W        W51688   7.726  29.658   1.305
87481W        W51689  38.850  26.523   0.894
87482W        W51690   0.988  42.851   4.238
87483W        W51691   1.760   5.714   2.776
87484W        W51692  26.516  25.640  12.044
87485W        W51693  31.052  23.646  12.982
87486W        W51694  33.928  39.381  14.290
87487W        W51695  28.506  11.270  13.487
87488W        W51696  27.123  30.451   2.673
87489W        W51697  11.310  33.912   1.880
87490W        W51698  39.406   1.254   4.654
87491W        W51699  33.032  21.642   0.328
87492W        W51700  18.734  14.708   2.400
87493W        W51701  44.445  29.043   1.931
87494W        W51702  10.184   9.675   1.242
87495W        W51703  38.884  29.136   0.315
87496W        W51704  21.744   9.816   2.829
87497W        W51705  16.102  28.065   2.204
87498W        W51706  10.238   6.694  12.927
87499W        W51707  34.448  29.154  11.380
87500W        W51708  24.113  39.912   0.383
87501W        W51709  26.001  34.936   4.597
87502W        W51710  23.235  40.014  13.517
87503W        W51711  28.167  29.657  10.899
87504W        W51712  17.269  40.316  10.028
87505W        W51713   5.745  33.959   2.901
87506W        W51714  27.170  38.396   4.727
87507W        W51715  42.346  25.481  14.418
87508W        W51716   3.392   1.961   3.301
87509W        W51717   8.178  29.459  10.928
87510W        W51718  13.731  18.735  12.496
87511W        W51719  35.412   7.681   3.309
87512W        W51720  21.544   0.837   3.211
87513W        W51721  12.656  14.793  14.391
87514W        W51722   6.756   1.913   0.938
87515W        W51723  29.062  30.018  14.394
87516W        W51724  18.164  39.543  11.411
87517W        W51725  39.403  27.610   4.836
87518W        W51726   8.329  21.168   4.276
87519W        W51727  35.070   8.338  12.918
87520W        W51728  14.248  14.628  11.934
87521W        W51729   1.735   7.405  12.374
87522W        W51730  25.647  21.642  14.395
87523W        W51731   8.699   5.401  10.532
87524W        W51732  12.306  11.140  11.953
87525W        W51733  32.948  14.299  12.963
87526W        W51734  43.892  44.009  14.484
87527W        W51735   6.908  11.310   1.824
87528W        W51736  35.028  10.300   2.820
87529W        W51737  43.305  17.241   2.695
87530W        W51738   6.796   9.325  13.535
87531W        W51739  39.315   9.341   4.131
87532W        W51740  13.159  16.126  13.040
87533W        W51741  26.477  11.217   4.159
87534W        W51742  23.691   2.737   2.267
87535W        W51743  34.042  42.873   2.812
87536W        W51744   5.737   4.404  14.332
87537W        W51745  43.376   1.408  10.897
87538W        W51746  15.239  16.721   1.868
87539W        W51747  26.113  32.944   4.353
87540W        W51748  33.978  37.489  11.999
87541W        W51749  35.978  10.804  13.833
87542W        W51750  24.131  42.887   5.206
87543W        W51751   4.304  10.198   2.861
87544W        W51752  25.541  27.526   3.242
87545W        W51753  12.168   9.754   4.211
87546W        W51754  29.032  32.532   1.233
87547W        W51755  41.036  14.588  10.629
87548W        W51756  32.590  24.179  13.852
87549W        W51757   7.757  37.479   0.868
87550W        W51758  15.666  35.019   1.288
87551W        W51759  17.621   8.797   3.220
87552W        W51760  20.033  31.001   1.759
87553W        W51761  16.730  18.774   2.376
87554W        W51762  21.746  10.767  11.510
87555W        W51763  15.799   0.338  12.018
87556W        W51764  35.582  29.063  12.468
87557W        W51765  38.454  37.550  14.877
87558W        W51766   7.867  24.093  11.605
87559W        W51767  36.554  24.507   0.799
87560W        W51768  22.541  15.703   0.842
87561W        W51769  43.866  10.652  14.469
87562W        W51770  22.089  32.035  11.103
87563W        W51771  44.319  19.688   4.680
87564W        W51772  39.478  35.085   1.365
87565W        W51773  34.479  35.907  14.764
87566W        W51774  21.585  17.573   3.684
87567W        W51775   3.256  28.440   0.277
87568W        W51776  42.912  11.716   4.702
87569W        W51777  23.722   8.313  12.067
87570W        W51778   4.822   9.253  10.570
87571W        W51779  13.730  39.985   1.214
87572W        W51780  19.270  31.404   4.304
87573W        W51781  43.800   3.903   1.331
87574W        W51782  11.237   6.774   3.683
87575W        W51783  17.741  36.487  12.945
87576W        W51784  37.881  38.373   1.730
87577W        W51785  12.784  18.263  12.092
87578W        W51786   9.179  14.281  12.085
87579W        W51787   9.328  35.457  13.880
87580W        W51788  42.027  37.341   1.895
87581W        W51789  19.248  17.256  12.849
87582W        W51790  13.638  33.953  13.040
87583W        W51791  20.195  21.670  12.860
87584W        W51792  11.654   7.686  12.055
87585W        W51793  24.699  43.319  14.872
87586W        W51794  35.093  22.224  11.077
87587W        W51795  26.038  28.144  13.804
87588W        W51796  20.692  38.998  13.023
87589W        W51797  33.076  31.410   1.893
87590W        W51798  40.934  40.891  14.448
87591W        W51799  41.019  39.480  12.449
87592W        W51800  39.548  26.080  12.395
87593W        W51801  28.993  27.621  13.364
87594W        W51802  17.227  27.105   0.325
87595W        W51803  14.175  11.348   4.626
87596W        W51804   0.421   4.851   5.775
87597W        W51805   9.742  21.525   1.418
87598W        W51806  34.393  29.065   3.260
87599W        W51807   5.266  31.550   3.709
87600W        W51808  31.986  38.506   2.303
87601W        W51809  25.621   1.271  10.530
87602W        W51810  37.830  13.147  12.900
87603W        W51811   4.904  19.726   0.963
87604W        W51812  37.513  35.524   3.650
87605W        W51813  14.772   8.697  14.871
87606W        W51814  25.664   8.780  13.539
87607W        W51815   6.858   8.289   4.204
87608W        W51816   0.945  30.152  14.818
87609W        W51817  25.974  14.284  10.535
87610W        W51818  26.586  11.770  12.373
87611W        W51819  24.557  19.223  10.898
87612W        W51820   1.877   7.396   3.728
87613W        W51821  30.517  22.621   1.226
87614W        W51822  13.171  26.098   2.854
87615W        W51823  36.052  33.089  14.882
87616W        W51824   6.710  32.446  11.588
87617W        W51825  11.626  33.927  10.584
87618W        W51826  29.065   8.820  14.887
87619W        W51827  26.680  26.037   4.325
87620W        W51828   1.795   9.653  12.934
87621W        W51829   7.214   4.897  11.582
87622W        W51830  12.689  40.042   1.783
87623W        W51831  10.316  42.469  14.763
87624W        W51832  11.222  19.748  14.980
87625W        W51833  14.747   5.737  11.373
87626W        W51834  24.684  37.357  11.096
87627W        W51835  30.628  33.098   3.301
87628W        W51836  19.159  33.419   0.750
87629W        W51837  14.322  32.579   2.753
87630W        W51838   9.386  16.101   3.197
87631W        W51839  25.474  24.185   1.737
87632W        W51840  12.258  39.030  14.942
87633W        W51841  37.004   8.804   3.732
87634W        W51842  30.464  11.736  10.999
87635W        W51843  13.182  16.278   1.695
87636W        W51844  19.198  28.442   3.733
87637W        W51845  38.530  27.631  11.935
87638W        W51846  24.202  13.332   0.749
87639W        W51847  23.605  13.817  14.470
87640W        W51848  22.514  31.059   4.702
87641W        W51849  10.696  27.635   2.316
87642W        W51850  37.875  10.297  14.862
87643W        W51851  32.067  36.943  10.405
87644W        W51852   2.356  10.190  13.996
87645W        W51853  12.219   3.901   1.370
87646W        W51854  43.289  43.329   3.765
87647W        W51855  42.298  23.006  11.886
87648W        W51856  17.572  28.963  14.475
87649W        W51857   8.365  28.021   0.377
87650W        W51858   4.916  36.952  12.500
87651W        W51859   8.354  25.156  14.916
87652W        W51860   3.288  26.525  13.455
87653W        W51861  10.173   1.923   9.941
87654W        W51862   8.390  26.193   2.718
87655W        W51863  27.073  44.810  13.419
87656W        W51864  25.144  13.306   0.849
87657W        W51865  35.402  35.876  14.783
87658W        W51866  31.019  35.901  14.821
87659W        W51867  25.475   5.257   0.765
87660W        W51868  34.497  14.769  14.471
87661W        W51869  28.116   0.296   2.262
87662W        W51870  39.031  32.452   4.700
87663W        W51871  36.443  32.028   5.219
87664W        W51872  15.714  25.647  11.054
87665W        W51873  23.678  39.941  10.549
87666W        W51874   5.788  36.996   3.783
87667W        W51875  18.690  20.176   0.313
87668W        W51876  14.749   5.423  11.462
87669W        W51877   7.330  20.271  14.952
87670W        W51878  36.023  17.100  13.799
87671W        W51879   1.963  38.357  12.548
87672W        W51880  40.421  18.690  14.405
87673W        W51881  19.094  38.552  12.418
87674W        W51882  15.160  14.160   4.334
87675W        W51883  22.210  36.098   0.731
87676W        W51884  30.008  14.281   4.690
87677W        W51885  43.877   7.757   3.830
87678W        W51886  12.659  39.896   4.635
87679W        W51887   8.712  15.818   2.789
87680W        W51888   6.748  10.814   1.409
87681W        W51889   9.173  24.151   0.391
87682W        W51890   8.357   0.284   3.834
87683W        W51891   7.224   6.231   3.304
87684W        W51892  34.960  35.051   3.181
87685W        W51893  40.864  33.597   4.328
87686W        W51894  36.504  14.310  11.546
87687W        W51895  31.468   6.373   4.188
87688W        W51896  43.856   4.940   1.293
87689W        W51897  29.511   0.492   0.290
87690W        W51898  10.686  15.160  11.926
87691W        W51899  27.985  34.995   3.674
87692W        W51900  34.081  29.945  12.470
87693W        W51901  12.333  22.166  10.639
87694W        W51902  25.061  42.486  10.421
87695W        W51903   7.229  31.981   3.846
87696W        W51904  26.484   8.331  11.933
87697W        W51905   7.174  20.156  11.582
87698W        W51906  10.851  19.107  13.365
87699W        W51907   2.309   8.812   4.695
87700W        W51908  42.480  42.001   4.159
87701W        W51909  15.197  44.501   4.194
87702W        W51910  27.946  41.382   1.294
87703W        W51911   6.334  29.073  12.492
87704W        W51912  29.924  20.701  14.383
87705W        W51913  23.016  19.212  12.863
87706W        W51914  12.168  41.325   0.785
87707W        W51915   8.352  13.137  11.907
87708W        W51916  18.638  22.501   2.696
87709W        W51917   5.220  35.447  13.363
87710W        W51918  31.609  40.815   3.281
87711W        W51919  31.964  20.631  12.567
87712W        W51920  41.495  22.512  11.479
87713W        W51921  40.923  19.204  14.304
87714W        W51922  33.916   5.768  13.459
87715W        W51923   7.791  10.661  14.852
87716W        W51924  41.322  29.022  11.421
87717W        W51925  13.241  28.614  11.037
87718W        W51926   2.430  24.602  10.515
87719W        W51927  20.202  26.953   3.706
87720W        W51928  29.543  30.598   3.257
87721W        W51929   1.910   9.246  14.924
87722W        W51930   3.374  20.140  12.984
87723W        W51931  27.604   5.413   3.783
87724W        W51932   8.221  26.631   2.689
87725W        W51933  38.465   2.299  13.537
87726W        W51934   1.879  29.935   2.841
87727W        W51935  15.205   6.822   1.763
87728W        W51936  44.425   7.902   0.341
87729W        W51937  31.090   0.401  13.506
87730W        W51938  27.188  28.984  12.984
87731W        W51939  23.146  18.114   1.836
87732W        W51940   6.828  32.045   2.179
87733W        W51941  21.603   7.707  13.894
87734W        W51942  24.047  36.452  14.022
87735W        W51943   1.779  32.948   4.327
87736W        W51944  44.309   2.890   0.906
87737W        W51945   1.795   5.804  12.424
87738W        W51946   7.911  24.548   2.269
87739W        W51947  42.879  15.299  13.519
87740W        W51948  39.047  12.645  13.390
87741W        W51949   7.794  26.058  13.410
87742W        W51950  22.551  37.419  11.073
87743W        W51951   9.828   3.922   2.391
87744W        W51952   9.308   3.356   4.823
87745W        W51953   5.196  44.796  13.547
87746W        W51954  40.839  32.408  12.090
87747W        W51955  17.171  22.533  13.327
87748W        W51956  21.130  37.856  13.415
87749W        W51957  29.122  36.440  13.502
87750W        W51958  20.663  43.418  13.794
87751W        W51959  38.416  26.583   3.249
87752W        W51960  39.910  36.582   0.295
87753W        W51961  44.276  36.020  13.014
87754W        W51962  30.421  27.094   1.895
87755W        W51963  42.962   2.843  14.895
87756W        W51964  22.732  28.605   1.915
87757W        W51965  22.680  15.683  13.050
87758W        W51966  35.437  33.994   1.425
87759W        W51967  31.533  44.817  11.859
87760W        W51968  15.660   6.255   3.730
87761W        W51969   3.242   9.651  13.962
87762W        W51970  36.561  17.634  11.021
87763W        W51971  10.229  30.938   0.749
87764W        W51972  38.470  15.304   0.810
87765W        W51973  38.363  43.360  10.990
87766W        W51974  34.026  29.624  10.941
87767W        W51975   5.842  36.043  12.962
87768W        W51976  10.207  15.201  11.578
87769W        W51977  14.309  34.399   2.268
87770W        W51978  14.112  21.044  11.431
87771W        W51979  44.454  26.182  12.924
87772W        W51980   0.848  16.136   1.442
87773W        W51981  34.012  25.010  10.430
87774W        W51982  25.057  37.366  12.893
87775W        W51983  22.616   3.233   1.823
87776W        W51984  35.047   3.369   1.800
87777W        W51985  22.582  43.998   3.214
87778W        W51986  33.041  38.497   1.298
87779W        W51987  30.932  31.985  14.924
87780W        W51988  16.303   0.314   1.220
87781W        W51989  21.050  41.920  12.507
87782W        W51990  28.644  38.906  12.437
87783W        W51991  31.092  30.941  11.119
87784W        W51992  39.415  25.039   4.182
87785W        W51993  27.592  29.924  13.035
87786W        W51994  22.175   8.323  14.328
87787W        W51995  35.024  23.220   4.789
87788W        W51996  12.828  27.614   3.257
87789W        W51997   4.405  18.788   1.788
87790W        W51998  31.996  23.646  11.989
87791W        W51999   9.322   5.403   4.351
87792W        W52000  26.168   3.385  11.880
87793W        W52001  18.789   0.486   0.248
87794W        W52002  43.866  29.021  11.416
87795W        W52003  44.497  36.860   1.441
87796W        W52004  14.592  41.947   0.876
87797W        W52005  22.139  32.519  12.089
87798W        W52006  10.871  13.221   2.838
87799W        W52007  24.026  36.030  14.451
87800W        W52008   4.439  21.214   2.899
87801W        W52009  14.131  28.050  14.400
87802W        W52010  20.128  13.230  14.930
87803W        W52011  25.058  41.486  12.884
87804W        W52012   3.229  31.054   2.845
87805W        W52013  43.964  29.526  11.470
87806W        W52014  27.073  22.170   3.706
87807W        W52015  32.510  19.706   2.662
87808W        W52016  10.804  39.876   2.825
87809W        W52017  26.636  40.320  11.061
87810W        W52018  26.566   1.943  12.067
87811W        W52019  17.265  11.368  12.526
87812W        W52020   4.743  32.903   5.193
87813W        W52021  43.408   1.359   3.719
87814W        W52022  11.739   9.826   3.358
87815W        W52023   4.909  40.956   2.206
87816W        W52024  44.296   6.248   2.863
87817W        W52025   6.790  30.916   0.349
87818W        W52026  19.187  18.247   2.775
87819W        W52027  34.020   2.402   3.811
87820W        W52028   1.256  17.134  12.939
87821W        W52029  33.554  21.573  12.372
87822W        W52030   2.850  40.448   2.220
87823W        W52031   8.783   9.177   1.385
87824W        W52032  23.169  22.580   0.850
87825W        W52033  34.112  35.596  14.414
87826W        W52034  35.036  17.188   2.697
87827W        W52035  29.984  13.797  13.054
87828W        W52036  40.403  40.508  11.604
87829W        W52037  11.817  23.073   1.832
87830W        W52038  30.659  14.596   1.332
87831W        W52039  30.002  15.824  14.300
87832W        W52040   4.315  16.096  12.040
87833W        W52041  17.559  32.028  12.004
87834W        W52042   2.901  25.081   2.181
87835W        W52043  25.045  35.020  13.868
87836W        W52044  11.773   4.301   2.761
87837W        W52045  35.399  11.235  11.536
87838W        W52046  11.789  39.823  13.059
87839W        W52047  41.971   7.264  13.911
87840W        W52048  40.444  28.170   3.222
87841W        W52049  33.949  42.793   1.827
87842W        W52050  30.053  40.494   4.611
87843W        W52051  23.128  22.188   1.930
87844W        W52052  16.161  11.709  11.991
87845W        W52053   0.411  28.984  13.985
87846W        W52054  32.495  35.028   0.795
87847W        W52055  14.279  34.998   1.314
87848W        W52056  19.221  22.029  10.611
87849W        W52057   9.375  38.060  11.118
87850W        W52058  37.996  31.109   2.359
87851W        W52059  27.615  19.092   3.178
87852W        W52060  43.969   0.880  10.592
87853W        W52061  44.945  40.390  11.005
87854W        W52062  14.323  25.618  11.952
87855W        W52063   6.749  34.945  13.464
87856W        W52064  43.335  17.743  11.376
87857W        W52065   3.836  17.216   3.192
87858W        W52066  26.122  44.270  13.371
87859W        W52067  42.898  15.621   1.888
87860W        W52068  19.134  24.984   0.377
87861W        W52069  10.174  37.435  13.893
87862W        W52070  32.954  29.115  12.980
87863W        W52071   6.695  41.407  13.445
87864W        W52072  40.974  42.422   4.732
87865W        W52073   7.340  35.975   3.199
87866W        W52074  33.419  13.812  12.545
87867W        W52075  20.766  28.073   3.812
87868W        W52076  44.825  10.263  10.070
87869W        W52077   9.676  10.147   1.878
87870W        W52078   7.362   8.661  11.046
87871W        W52079  29.519  17.259  12.940
87872W        W52080   7.894   6.885  14.511
87873W        W52081  43.908   6.276   1.404
87874W        W52082   6.796  36.590  10.970
87875W        W52083  13.757  36.348   3.321
87876W        W52084   0.960  27.975   3.147
87877W        W52085  22.052  21.203   0.939
87878W        W52086   7.346  35.953   4.625
87879W        W52087  15.821   2.837   2.854
87880W        W52088  40.025  40.411   0.916
87881W        W52089  18.102  36.523   3.189
87882W        W52090  10.795  19.541  10.991
87883W        W52091  30.127   2.898  10.922
87884W        W52092   4.710  19.603   1.706
87885W        W52093  29.929  27.163  11.015
87886W        W52094  26.689  14.834  10.542
87887W        W52095  33.978  29.500   1.265
87888W        W52096  33.466  37.061   1.237
87889W        W52097   1.971  37.922   4.832
87890W        W52098  12.612  10.291  14.782
87891W        W52099  16.239  29.484   4.821
87892W        W52100  44.326   9.317  13.800
87893W        W52101  33.070  42.335   0.274
87894W        W52102  21.740  10.826   1.851
87895W        W52103  11.634  40.474  13.408
87896W        W52104   6.388  16.204   2.847
87897W        W52105  21.601  16.654   0.275
87898W        W52106  22.618  10.771   0.799
87899W        W52107   1.334  15.178   1.304
87900W        W52108  11.860  23.700  14.806
87901W        W52109  28.030  32.618  11.382
87902W        W52110  44.458  12.137   2.310
87903W        W52111   6.185  26.088   4.703
87904W        W52112  24.500   2.941   2.332
87905W        W52113  19.571   4.924  11.482
87906W        W52114  38.847  21.624  12.021
87907W        W52115  15.581  38.933  13.893
87908W        W52116  39.927   7.349  11.015
87909W        W52117  33.091  32.582   1.394
87910W        W52118   4.429  37.520  13.000
87911W        W52119  16.781  40.015  12.494
87912W        W52120   5.824   9.335   0.826
87913W        W52121   5.708  43.999  10.617
87914W        W52122   5.796  43.865  14.015
87915W        W52123  35.952  26.615  13.838
87916W        W52124  19.158  26.121  11.952
87917W        W52125  23.136  15.323   3.731
87918W        W52126  42.508  22.593  11.607
87919W        W52127  32.896  24.988   2.832
87920W        W52128  12.147  13.253   2.869
87921W        W52129   3.881  36.927   4.676
87922W        W52130  40.805   9.223  10.547
87923W        W52131  11.637  12.134  10.919
87924W        W52132  13.261  40.995   4.757
87925W        W52133  42.895  13.739  14.012
87926W        W52134  25.544  30.517   5.241
87927W        W52135  44.862   8.810  11.535
87928W        W52136  16.086  28.016  14.311
87929W        W52137  37.975  21.128   0.367
87930W        W52138  37.556  14.174  13.483
87931W        W52139  26.458  23.180   1.306
87932W        W52140  35.544  43.016   3.773
87933W        W52141  42.980  15.203   4.257
87934W        W52142  18.241  15.696   2.678
87935W        W52143   4.817  29.610   3.723
87936W        W52144  28.169  18.110   2.284
87937W        W52145  28.177  31.980  10.407
87938W        W52146  33.128  31.971  11.380
87939W        W52147   1.891  15.684  13.928
87940W        W52148  21.689  11.725  14.333
87941W        W52149   1.941  28.453  11.433
87942W        W52150  15.782  22.073  10.640
87943W        W52151   6.214   5.776   4.288
87944W        W52152  27.626  18.700   0.462
87945W        W52153  14.630  19.650  10.127
87946W        W52154   5.256  24.665  10.444
87947W        W52155   9.305  27.485   0.336
87948W        W52156  11.230  20.060   2.309
87949W        W52157  22.623  40.998   2.754
87950W        W52158  10.208  11.739  10.084
87951W        W52159   5.833   4.737  12.376
87952W        W52160  12.755  17.247   0.867
87953W        W52161   9.368  26.640  12.029
87954W        W52162  24.704   0.778  10.564
87955W        W52163  16.229   6.377   4.750
87956W        W52164   0.930  34.535   9.991
87957W        W52165  39.531  15.667  13.828
87958W        W52166  26.617  37.553   1.285
87959W        W52167   6.388  13.722  11.477
87960W        W52168  24.690   4.937   4.304
87961W        W52169  28.182  43.875  14.455
87962W        W52170  34.413   0.944   1.378
87963W        W52171  40.497  15.281   4.823
87964W        W52172  35.985  34.898   4.265
87965W        W52173   9.346  38.337   0.261
87966W        W52174  27.058  20.578   2.346
87967W        W52175   6.681   6.273   1.719
87968W        W52176  42.457  10.743  13.935
87969W        W52177   1.252  33.385   0.349
87970W        W52178  40.457   7.347   4.132
87971W        W52179  35.061   7.217  13.336
87972W        W52180  36.504  40.527   4.301
87973W        W52181  29.477   5.867  10.502
87974W        W52182   7.323  23.166  10.480
87975W        W52183  33.492  24.137  13.946
87976W        W52184  18.565  16.758  12.441
87977W        W52185  43.302  22.193  12.982
87978W        W52186   1.383   8.309   2.189
87979W        W52187  22.130  43.840  12.401
87980W        W52188   4.796   8.720  11.396
87981W        W52189  19.622   1.427   3.694
87982W        W52190  32.979  33.577  10.901
87983W        W52191  19.269  17.797  11.945
87984W        W52192  20.121  30.613   4.257
87985W        W52193  19.728  11.373  10.953
87986W        W52194  33.988  27.483   4.283
87987W        W52195  21.261  36.490   3.690
87988W        W52196  16.738   5.838   4.180
87989W        W52197  44.361  41.894   3.671
87990W        W52198  35.487  38.387   3.801
87991W        W52199  42.977  22.533  11.100
87992W        W52200  36.950  28.661   3.171
87993W        W52201  35.503   7.272   1.719
87994W        W52202  17.106  38.490   0.259
87995W        W52203  14.664   5.362  14.992
87996W        W52204   4.349  12.116  11.491
87997W        W52205  39.416  42.493  13.996
87998W        W52206   6.898  24.214   0.752
87999W        W52207  36.503  39.882   1.253
88000W        W52208  40.849  36.034   2.710
88001W        W52209  24.523  33.874  14.004
88002W        W52210  33.074  15.164  12.867
88003W        W52211  15.670  10.772   2.730
88004W        W52212  39.487  30.006  14.769
88005W        W52213  25.627  12.833   3.781
88006W        W52214  43.299  18.093  14.867
88007W        W52215   7.354  20.268   4.802
88008W        W52216   1.430  28.134  12.840
88009W        W52217   0.928  38.854  13.450
88010W        W52218  24.522  15.623  10.044
88011W        W52219  37.936  38.395   2.728
88012W        W52220  24.203  33.044   4.644
88013W        W52221  37.950  28.523  11.375
88014W        W52222  21.664  36.572  12.914
88015W        W52223  31.928  31.906  11.519
88016W        W52224  27.610  18.552   0.783
88017W        W52225  14.197  39.378   1.881
88018W        W52226  17.694  27.982   2.785
88019W        W52227  38.535  19.752   2.867
88020W        W52228  38.444  10.379  13.901
88021W        W52229  36.025   4.728  10.122
88022W        W52230  35.072   2.845   3.792
88023W        W52231   7.187  35.986   1.810
88024W        W52232  43.946   2.274   1.707
88025W        W52233  35.087   0.279   3.201
88026W        W52234  30.019   9.752  12.416
88027W        W52235   0.430  44.872   0.309
88028W        W52236   5.411   0.364  12.096
88029W        W52237  11.827  26.971   4.607
88030W        W52238   3.952  32.037  13.470
88031W        W52239  24.507  29.949  10.620
88032W        W52240   4.751   9.650   2.409
88033W        W52241  28.662  42.513  12.922
88034W        W52242  20.660  12.280  11.984
88035W        W52243  34.480  43.887  12.977
88036W        W52244  15.773   4.840  12.086
88037W        W52245   7.715   6.696  10.563
88038W        W52246  26.579  13.738   1.360
88039W        W52247   3.323  12.806   0.270
88040W        W52248  20.057  15.643   5.696
88041W        W52249   6.365  38.060   1.762
88042W        W52250   6.750  39.966  14.960
88043W        W52251  36.967  28.517  14.819
88044W        W52252   6.895  21.678  10.600
88045W        W52253  10.180  33.548  14.856
88046W        W52254  24.050  25.171  10.619
88047W        W52255  10.711  44.467   3.852
88048W        W52256  44.991  20.576   3.742
88049W        W52257  10.185  10.863  14.466
88050W        W52258  40.469   0.346   5.176
88051W        W52259  28.072  25.530  11.422
88052W        W52260  41.314  12.139  13.029
88053W        W52261  21.520  42.949   2.848
88054W        W52262  21.134  21.653   1.417
88055W        W52263  24.098  28.066  12.403
88056W        W52264  39.002  25.584   4.733
88057W        W52265  11.338   8.341   1.369
88058W        W52266   1.906  26.020   1.868
88059W        W52267  15.822   9.197  10.573
88060W        W52268   5.701  16.578  13.329
88061W        W52269  42.956  11.787  11.499
88062W        W52270  32.973  12.281  14.850
88063W        W52271  22.009  10.360   3.803
88064W        W52272   3.879  32.084   3.701
88065W        W52273   4.275  42.288  13.338
88066W        W52274  42.499   8.894  13.814
88067W        W52275  43.326  41.952  13.396
88068W        W52276  15.603  16.683   0.779
88069W        W52277  11.153  17.683  11.895
88070W        W52278  35.041   5.928   3.807
88071W        W52279   5.415  17.091  13.045
88072W        W52280  32.991   8.278  13.468
88073W        W52281  40.375  41.873   2.403
88074W        W52282  42.335  25.644   2.262
88075W        W52283  27.094   8.208   2.212
88076W        W52284  33.523  14.245  13.979
88077W        W52285  19.638  27.107  12.051
88078W        W52286  22.998  31.507  14.802
88079W        W52287   5.866  31.023   0.266
88080W        W52288  26.201  32.942   3.287
88081W        W52289  38.524  22.527   0.274
88082W        W52290   2.268   8.204   1.712
88083W        W52291  23.729   6.326  11.563
88084W        W52292  37.554  41.811   4.818
88085W        W52293  31.899  36.445   1.759
88086W        W52294  27.952  42.298  14.349
88087W        W52295  32.542  35.467  10.582
88088W        W52296   2.337  17.064  11.941
88089W        W52297  42.293  35.584   2.667
88090W        W52298   1.466   1.374   5.293
88091W        W52299   2.266  36.956  11.026
88092W        W52300   2.844  28.966  12.417
88093W        W52301  29.543  12.751   0.920
88094W        W52302   3.912  36.985   2.853
88095W        W52303  20.618  31.068   1.867
88096W        W52304  17.770  31.630  10.644
88097W        W52305  18.642  34.905  13.314
88098W        W52306   8.772  31.001  14.875
88099W        W52307  36.348  39.013  14.394
88100W        W52308   5.273  16.129  13.941
88101W        W52309  41.971  35.496  11.473
88102W        W52310   3.296  37.916   1.328
88103W        W52311  38.333  26.093   2.373
88104W        W52312  12.133  11.267   3.240
88105W        W52313  25.076  19.708   2.835
88106W        W52314   2.787  23.162  13.982
88107W        W52315  26.532  11.163  12.459
88108W        W52316  10.863  14.291   0.323
88109W        W52317  25.477  27.618   2.797
88110W        W52318   4.315  12.762   0.450
88111W        W52319  19.754   5.706   0.858
88112W        W52320  25.647  32.578  12.364
88113W        W52321  18.189  32.026   4.209
88114W        W52322   7.907  18.138   4.201
88115W        W52323  36.044   1.371   3.346
88116W        W52324  28.181  25.178   5.128
88117W        W52325  21.085  30.447   3.720
88118W        W52326  43.485  18.648   2.351
88119W        W52327   9.825  23.215  13.447
88120W        W52328  14.257  43.810  11.923
88121W        W52329  31.469  40.994  14.354
88122W        W52330  14.328  29.937   2.710
88123W        W52331  33.969   7.813  12.373
88124W        W52332  40.431  26.581   1.766
88125W        W52333  21.521   8.741  13.850
88126W        W52334   5.266  32.918  13.361
88127W        W52335  41.863   8.845   4.164
88128W        W52336  21.153  40.955  11.078
88129W        W52337  44.784  24.591  13.911
88130W        W52338  43.871  27.182   3.772
88131W        W52339   4.929  12.274  10.925
88132W        W52340  32.078  31.496  14.990
88133W        W52341  20.067  28.088  10.061
88134W        W52342  34.519  43.778  11.022
88135W        W52343  42.318  39.515   4.254
88136W        W52344  40.995  30.524   0.939
88137W        W52345  14.742   2.232  10.630
88138W        W52346  24.566   8.307  13.378
88139W        W52347  39.410   2.456   3.224
88140W        W52348  33.453  40.968  12.365
88141W        W52349   9.723  44.389   2.285
88142W        W52350  34.877   5.702  10.099
88143W        W52351  31.116  21.153   1.857
88144W        W52352   4.839  35.994   9.923
88145W        W52353  32.584   2.277  11.515
88146W        W52354  33.563  31.017  12.956
88147W        W52355  21.197  21.139  13.799
88148W        W52356   4.409  22.519   2.900
88149W        W52357  37.527   6.349  11.998
88150W        W52358  39.005  42.437  11.481
88151W        W52359  18.248   3.712  13.355
88152W        W52360  39.826  22.159   4.649
88153W        W52361  10.675  24.671   3.248
88154W        W52362  14.657   2.774  11.119
88155W        W52363  28.674  37.551  10.433
88156W        W52364  22.025   7.737   4.178
88157W        W52365  30.568  23.587  13.413
88158W        W52366   6.333  17.636   3.678
88159W        W52367  29.942  15.657   3.802
88160W        W52368  23.151  41.537   3.299
88161W        W52369  34.116  11.802   0.892
88162W        W52370   4.443  20.051  11.073
88163W        W52371  28.140  33.428  13.844
88164W        W52372  43.340   4.752  14.881
88165W        W52373   4.323  27.691   2.337
88166W        W52374  35.938  42.785   1.786
88167W        W52375   3.231  19.240   2.849
88168W        W52376  11.851  35.488   3.148
88169W        W52377  33.998  34.028  10.471
88170W        W52378   7.852  44.821  13.817
88171W        W52379  41.933  18.620  11.016
88172W        W52380  25.524   9.219   4.194
88173W        W52381   3.293  31.144   5.273
88174W        W52382  44.325  16.160   4.615
88175W        W52383   0.483  36.543  13.934
88176W        W52384  28.929  18.702  14.817
88177W        W52385  20.121  31.583  14.980
88178W        W52386   4.380  28.579  11.529
88179W        W52387  39.857   6.326   4.706
88180W        W52388   2.352  26.118  13.030
88181W        W52389  15.587   2.897  14.301
88182W        W52390  26.508   0.474   0.484
88183W        W52391  43.969  36.961   2.881
88184W        W52392  20.052  19.729   2.826
88185W        W52393   6.252  24.608  12.462
88186W        W52394  31.586  25.972   2.406
88187W        W52395  25.619  41.499  14.500
88188W        W52396   4.393  10.291  11.121
88189W        W52397  30.968  30.576  14.970
88190W        W52398  19.703   9.791  14.316
88191W        W52399   3.774  42.309  12.010
88192W        W52400  33.923   3.391   2.736
88193W        W52401  42.874  44.456   3.651
88194W        W52402  12.231  30.517  12.417
88195W        W52403  23.178  43.861   3.837
88196W        W52404  39.924  38.833   2.253
88197W        W52405  37.003  28.670   1.778
88198W        W52406  44.912  23.556   2.252
88199W        W52407  41.841  32.540  14.404
88200W        W52408  10.872   8.873   4.132
88201W        W52409   7.243  20.562   0.384
88202W        W52410   4.427  29.513  12.081
88203W        W52411  42.509  13.625  11.459
88204W        W52412  34.592  31.137  12.993
88205W        W52413  15.728  43.775  10.613
88206W        W52414   0.261  40.026  11.114
88207W        W52415  31.460  44.357   4.272
88208W        W52416  29.454   3.417   4.824
88209W        W52417  23.081  36.549  11.549
88210W        W52418  41.503  16.707   3.157
88211W        W52419  14.094  18.562   5.312
88212W        W52420  15.760  11.745  11.883
88213W        W52421  35.869  20.080   1.812
88214W        W52422  22.013  35.893  13.858
88215W        W52423  24.081  13.250   3.857
88216W        W52424  37.459   6.376   3.703
88217W        W52425  43.971  34.561   3.357
88218W        W52426  40.343   5.399  10.478
88219W        W52427  36.968  42.794  11.912
88220W        W52428  24.053  37.065  13.954
88221W        W52429  29.484  43.381  12.561
88222W        W52430  14.277  37.949   0.899
88223W        W52431  19.042  20.059   4.280
88224W        W52432  22.214  42.305   4.720
88225W        W52433  17.199  42.311  13.473
88226W        W52434  24.704  26.998  14.849
88227W        W52435  10.692  35.980  11.516
88228W        W52436  16.284   7.754  14.288
88229W        W52437   3.922   6.228   4.306
88230W        W52438   6.220  38.900  13.038
88231W        W52439  23.498  24.527  14.478
88232W        W52440  43.806  32.889  12.047
88233W        W52441  44.884  27.065  14.354
88234W        W52442  32.509   5.817  12.992
88235W        W52443  27.653   9.229  14.325
88236W        W52444  22.679   9.697  13.835
88237W        W52445  21.018  15.631   3.837
88238W        W52446   2.291  40.383  14.447
88239W        W52447  44.962   2.225   2.390
88240W        W52448   0.423  28.049   9.528
88241W        W52449  29.485  12.764   2.265
88242W        W52450  22.517   1.354  12.456
88243W        W52451   7.884  17.112   2.788
88244W        W52452  14.665  20.724  10.633
88245W        W52453   0.815   2.911   1.919
88246W        W52454  37.513  25.209   4.304
88247W        W52455   6.216  32.025  12.900
88248W        W52456  34.020  36.484   0.256
88249W        W52457  19.189  15.294  10.571
88250W        W52458  25.218   1.874   3.866
88251W        W52459   6.880  41.325  13.031
88252W        W52460  34.406  16.723  13.048
88253W        W52461   8.188   9.245  11.490
88254W        W52462  30.469   8.730   4.161
88255W        W52463   4.207  37.020   0.477
88256W        W52464  24.986   5.307  12.416
88257W        W52465  38.858  42.794   4.230
88258W        W52466  26.674  41.855   1.217
88259W        W52467   7.190   4.395   4.766
88260W        W52468   9.332   9.187  14.391
88261W        W52469   7.345  29.006   1.443
88262W        W52470  23.123  41.448   4.143
88263W        W52471  27.997  41.810  11.989
88264W        W52472  28.601  43.008   3.259
88265W        W52473  44.957  38.964   1.768
88266W        W52474  26.119   4.731  12.516
88267W        W52475  21.561  17.791  14.878
88268W        W52476  41.862  31.934   2.760
88269W        W52477  13.770  26.627   0.440
88270W        W52478   1.281  15.702   3.799
88271W        W52479   6.350  18.151  10.483
88272W        W52480   7.836  33.560   4.211
88273W        W52481  31.595  21.697   2.738
88274W        W52482   3.716  14.654   1.896
88275W        W52483  22.121  11.769   2.298
88276W        W52484  12.216  43.899   3.293
88277W        W52485  43.978  37.476  11.869
88278W        W52486   2.458  16.779  11.592
88279W        W52487  21.691  36.479   2.273
88280W        W52488  32.440  13.119  10.434
88281W        W52489   6.285  11.248   3.798
88282W        W52490  10.313  27.686   4.171
88283W        W52491  22.700   8.235   5.321
88284W        W52492  40.885  33.511  11.505
88285W        W52493   2.439  10.874  12.513
88286W        W52494   8.708  13.660   2.758
88287W        W52495  15.791  18.636  12.956
88288W        W52496  41.533  17.648  14.485
88289W        W52497  12.240  42.864  14.429
88290W        W52498  32.503  41.453   3.704
88291W        W52499  21.696   5.365   5.093
88292W        W52500  19.190   1.361   3.832
88293W        W52501  22.660  43.412   4.809
88294W        W52502   6.727  28.457  10.622
88295W        W52503  44.823  15.313   0.924
88296W        W52504   7.882  26.187   4.291
88297W        W52505  41.854  44.295  11.433
88298W        W52506  39.508   6.192   0.362
88299W        W52507  35.431  10.354  12.537
88300W        W52508   2.472  34.496  12.508
88301W        W52509  27.109   0.346   2.304
88302W        W52510  22.085   9.826  12.896
88303W        W52511  22.677  14.775  12.845
88304W        W52512  23.092  43.426   2.726
88305W        W52513  33.397  12.623  12.547
88306W        W52514   7.229  13.631   2.327
88307W        W52515  22.566  15.187   0.388
88308W        W52516  34.060  18.089  13.467
88309W        W52517  31.007  30.426   1.860
88310W        W52518  18.113  28.113  13.453
88311W        W52519  35.498  34.071   2.869
88312W        W52520  28.665  36.566  10.957
88313W        W52521   4.889   3.895  13.018
88314W        W52522  35.572   6.415  13.909
88315W        W52523  18.788  25.148  11.470
88316W        W52524  33.946  13.206  13.880
88317W        W52525  41.459   2.895   2.377
88318W        W52526  22.190  14.103   1.749
88319W        W52527   0.329  28.081   4.133
88320W        W52528  24.492  40.045   1.339
88321W        W52529  30.658  32.922   2.880
88322W        W52530  15.125  19.701   1.392
88323W        W52531  30.481  25.526  12.900
88324W        W52532  22.079  32.111  14.764
88325W        W52533  44.399  33.878  13.437
88326W        W52534   0.987  10.334  12.063
88327W        W52535  10.206  42.850   3.724
88328W        W52536   2.737  43.930  10.642
88329W        W52537  10.827  43.831   4.217
88330W        W52538   4.264   6.282  14.961
88331W        W52539  37.548  16.207  13.024
88332W        W52540   2.393  40.819  11.431
88333W        W52541  18.652  19.160   2.262
88334W        W52542  18.546  25.147  12.428
88335W        W52543  30.494  38.520   4.343
88336W        W52544  36.080  19.089   4.717
88337W        W52545  36.065  15.097   4.257
88338W        W52546  12.259  21.624   2.879
88339W        W52547  20.649   1.375   3.829
88340W        W52548   8.719  18.757  12.987
88341W        W52549  17.596   1.772   1.374
88342W        W52550  41.994   5.270   1.299
88343W        W52551  32.548   7.669   2.238
88344W        W52552  14.268  16.258  14.885
88345W        W52553  14.668  22.009  14.824
88346W        W52554  21.638  17.188   1.812
88347W        W52555  36.554  19.665  10.477
88348W        W52556   7.749  18.178  11.886
88349W        W52557  32.616  44.881  12.013
88350W        W52558  10.749   5.336  10.948
88351W        W52559  42.486   5.439  11.577
88352W        W52560  40.908   0.468  11.391
88353W        W52561  38.821  25.571   3.787
88354W        W52562  31.412  44.950  14.386
88355W        W52563  38.048  13.732  12.399
88356W        W52564  22.050  26.632   3.751
88357W        W52565  11.181  20.555   2.307
88358W        W52566  11.768  40.020   0.317
88359W        W52567  28.003  33.008   4.729
88360W        W52568  31.971   2.901  10.585
88361W        W52569  41.950  38.561  13.545
88362W        W52570  25.088  30.120  11.059
88363W        W52571  16.294  42.846   1.798
88364W        W52572  43.342  37.389   4.740
88365W        W52573   2.764  18.611  13.045
88366W        W52574  42.408  16.171   3.631
88367W        W52575  40.392  36.538   1.861
88368W        W52576  25.216   9.257  14.825
88369W        W52577  41.880   6.316  11.096
88370W        W52578   5.850  36.921  14.293
88371W        W52579  38.018  21.653   1.228
88372W        W52580  24.158  15.111  11.526
88373W        W52581  36.481  11.363  12.009
88374W        W52582   4.908  17.588  10.139
88375W        W52583  23.503   0.437   2.663
88376W        W52584  10.812  14.589  14.862
88377W        W52585  20.672  36.465   0.247
88378W        W52586  44.338   9.238   2.405
88379W        W52587  36.430  19.536   5.318
88380W        W52588   8.382  35.927   2.774
88381W        W52589  41.815  42.848   4.696
88382W        W52590  41.986  13.642   4.666
88383W        W52591  19.687  18.624   3.316
88384W        W52592   9.188   6.780  14.995
88385W        W52593  19.546   6.748   2.294
88386W        W52594  33.900  17.680   1.392
88387W        W52595  20.142   5.246  13.820
88388W        W52596   4.322  13.742  14.467
88389W        W52597  41.004   6.209   4.730
88390W        W52598  22.044  35.536  14.354
88391W        W52599   4.735  27.539   2.750
88392W        W52600  42.474  32.929   0.301
88393W        W52601   9.370  23.179   2.282
88394W        W52602  31.927   0.775   1.445
88395W        W52603  21.263  39.501  12.347
88396W        W52604  28.498  33.946  13.489
88397W        W52605   3.860  40.856   2.732
88398W        W52606  30.555  11.779   5.195
88399W        W52607  40.397  29.932   0.796
88400W        W52608  32.595   5.233  14.351
88401W        W52609  35.062  18.584  13.827
88402W        W52610  44.399  29.088   3.150
88403W        W52611  15.637   8.779  12.366
88404W        W52612  39.496  10.842   2.889
88405W        W52613   5.225  19.048   2.353
88406W        W52614  13.279  28.029  14.912
88407W        W52615  35.576  17.227   2.742
88408W        W52616  25.078  41.519   2.785
88409W        W52617  38.075  31.600  12.366
88410W        W52618  41.386   1.947  13.323
88411W        W52619  18.748  44.457   4.632
88412W        W52620  21.246  10.251   0.865
88413W        W52621   3.736  18.214   4.659
88414W        W52622  33.882  40.048   0.385
88415W        W52623   0.262  17.634  11.867
88416W        W52624  29.476   1.322  14.310
88417W        W52625  39.328  42.464   3.730
88418W        W52626  30.454  41.447  14.348
88419W        W52627  42.838   4.721  10.498
88420W        W52628  23.231  38.959  12.006
88421W        W52629  43.901  32.463  12.505
88422W        W52630  38.054  35.593   2.802
88423W        W52631  15.120  26.562   2.888
88424W        W52632  43.427  38.365  12.967
88425W        W52633   1.802  26.031   2.219
88426W        W52634  29.946  32.464   3.708
88427W        W52635  35.012  22.714   9.952
88428W        W52636  35.562  40.043   1.272
88429W        W52637  40.925  13.728  10.483
88430W        W52638  21.224  38.366  12.987
88431W        W52639  30.095  25.701   4.821
88432W        W52640  22.590  38.431  10.955
88433W        W52641  32.587  20.242  13.958
88434W        W52642  35.942  22.648   2.813
88435W        W52643  16.665  38.485   3.276
88436W        W52644   6.709   8.168   3.187
88437W        W52645  35.101   7.837   0.419
88438W        W52646  19.730  27.521   2.900
88439W        W52647  19.131  24.489   4.128
88440W        W52648   8.196  34.997  12.408
88441W        W52649  30.482  21.653  10.445
88442W        W52650  24.115  25.028   3.657
88443W        W52651  26.048   6.708  14.467
88444W        W52652  29.926   8.680  12.880
88445W        W52653  28.565  40.906  12.857
88446W        W52654  40.453  20.765   1.929
88447W        W52655  40.915  37.509  14.951
88448W        W52656  11.154  30.493  10.552
88449W        W52657  43.019  20.679   4.311
88450W        W52658  32.918  31.043  10.461
88451W        W52659   3.928  24.616  12.017
88452W        W52660  11.161   0.427   3.313
88453W        W52661  35.504   3.781  11.980
88454W        W52662  24.090  38.528   3.291
88455W        W52663  18.726   8.334  14.893
88456W        W52664  44.325   1.839   4.310
88457W        W52665  10.222  44.337  14.322
88458W        W52666  40.511   4.407   0.866
88459W        W52667   4.866  41.988  11.873
88460W        W52668   2.422  19.681  14.295
88461W        W52669  18.052  24.070   3.300
88462W        W52670  23.606   4.926  11.919
88463W        W52671  33.060  43.808  14.840
88464W        W52672  41.794   8.858  14.942
88465W        W52673  36.378  17.619   4.146
88466W        W52674  43.451  33.077  11.441
88467W        W52675   3.787  40.317  12.898
88468W        W52676  32.418  40.341  11.559
88469W        W52677  14.793  11.302   1.349
88470W        W52678  42.985  41.791   5.164
88471W        W52679  30.455  20.080  10.517
88472W        W52680  34.082   7.389   4.633
88473W        W52681  25.973  15.631  14.820
88474W        W52682  20.250  36.953  11.092
88475W        W52683  25.980   0.812   4.213
88476W        W52684  40.349  44.778   4.810
88477W        W52685  24.018  23.588   3.301
88478W        W52686  26.188  23.046  13.001
88479W        W52687  41.839  10.175   1.429
88480W        W52688  40.328   4.321  11.974
88481W        W52689   3.770  28.529   4.256
88482W        W52690  43.008  19.761   1.247
88483W        W52691   1.410   7.872  12.891
88484W        W52692   9.790   7.313   4.187
88485W        W52693  33.936  33.438   2.862
88486W        W52694  41.528  14.711  10.995
88487W        W52695  12.776  27.474   4.793
88488W        W52696  21.021   1.852   3.640
88489W        W52697  33.461  43.885  13.338
88490W        W52698  42.408  17.659  12.513
88491W        W52699  42.999  37.579   9.942
88492W        W52700  34.070  29.147   3.378
88493W        W52701   2.407  42.404   4.640
88494W        W52702   2.383  15.169   0.359
88495W        W52703  16.184  35.933  14.317
88496W        W52704  32.887  16.317   9.972
88497W        W52705  28.184   0.790   0.769
88498W        W52706  24.687  25.489   4.608
88499W        W52707  44.781  40.396  12.400
88500W        W52708   8.176  17.184  11.974
88501W        W52709  27.626  43.017   4.353
88502W        W52710  25.166  21.644   4.781
88503W        W52711   0.971  28.986  13.411
88504W        W52712  31.916  44.396  14.005
88505W        W52713  30.149  44.811  12.397
88506W        W52714  33.018  15.649  12.546
88507W        W52715   1.320  34.512   4.832
88508W        W52716  35.865   6.721  13.427
88509W        W52717  29.094  17.560   4.643
88510W        W52718  20.768  38.846  12.572
88511W        W52719  44.920  31.534  12.579
88512W        W52720  43.926  38.017   5.188
88513W        W52721  25.029  33.595   4.720
88514W        W52722   1.453   1.834  12.370
88515W        W52723  38.461  16.669  14.452
88516W        W52724  33.616  36.449  12.388
88517W        W52725  20.561  25.033   3.363
88518W        W52726   6.753  13.180   3.339
88519W        W52727   6.220   5.716   1.316
88520W        W52728  29.011  33.626  12.958
88521W        W52729  20.080   0.799  14.385
88522W        W52730  24.558  20.621  12.492
88523W        W52731   3.258   4.907  13.953
88524W        W52732  25.995  17.203  13.928
88525W        W52733  44.289  40.359  10.142
88526W        W52734  41.328  21.191  12.517
88527W        W52735  27.680  42.454   4.647
88528W        W52736  12.744   9.764   2.392
88529W        W52737   7.856   2.957   3.634
88530W        W52738  40.997   0.416   1.841
88531W        W52739  19.125  38.562  12.933
88532W        W52740  13.328  36.495  13.805
88533W        W52741   3.219  15.127   4.303
88534W        W52742  38.469  14.319   1.885
88535W        W52743  25.519  13.638   4.180
88536W        W52744   7.204   1.737  13.462
88537W        W52745  27.498  23.053  14.402
88538W        W52746  41.979  43.429   0.421
88539W        W52747  41.364  13.626  10.910
88540W        W52748  36.014  44.275   2.729
88541W        W52749  12.298  20.662  10.618
88542W        W52750  22.694  25.041   0.373
88543W        W52751   7.209  25.163   1.935
88544W        W52752   7.299  10.192  13.505
88545W        W52753  34.473  19.537  12.926
88546W        W52754  30.581  18.185  11.415
88547W        W52755   9.663  18.646   0.468
88548W        W52756   2.852  41.396  12.831
88549W        W52757  40.917  29.482  12.494
88550W        W52758  18.709  14.768  10.951
88551W        W52759  13.342  17.567  11.384
88552W        W52760  35.546  38.985  11.550
88553W        W52761  21.154  24.154   0.305
88554W        W52762   9.793  21.023   3.164
88555W        W52763  36.400  42.441  12.017
88556W        W52764  41.991  37.999   1.355
88557W        W52765   2.866   3.749   1.422
88558W        W52766  20.597  41.998   3.824
88559W        W52767  27.980  39.813   1.862
88560W        W52768   9.766   0.412  13.351
88561W        W52769  42.889  31.518   4.136
88562W        W52770  35.571  36.444   0.874
88563W        W52771  21.679  15.141   4.304
88564W        W52772  31.939  14.598  13.494
88565W        W52773  25.667  14.684  11.030
88566W        W52774  23.573  16.604   2.893
88567W        W52775  13.265  36.505   1.350
88568W        W52776  23.985  35.947   3.303
88569W        W52777   7.337  27.582   4.808
88570W        W52778   6.845  22.138   1.926
88571W        W52779  18.143  19.230   2.787
88572W        W52780   9.321  28.459   2.392
88573W        W52781  42.841  35.076  13.519
88574W        W52782  10.253   8.857  13.542
88575W        W52783  21.600  18.170   2.357
88576W        W52784  19.746   1.430   0.738
88577W        W52785  27.544  19.684  11.456
88578W        W52786  22.719  43.905   3.755
88579W        W52787  27.119  41.952  10.607
88580W        W52788  33.968  21.206   4.643
88581W        W52789  23.573  44.487   0.907
88582W        W52790  10.181  33.927   2.673
88583W        W52791  19.547  28.109   2.275
88584W        W52792  36.557  38.415   1.344
88585W        W52793  14.651   8.340  10.585
88586W        W52794  11.235   2.744   2.345
88587W        W52795  27.481   9.264  12.030
88588W        W52796  26.563  21.611  14.509
88589W        W52797  31.151  35.020  12.496
88590W        W52798   4.749   9.700  13.000
88591W        W52799  24.150  44.874  10.479
88592W        W52800   9.749  43.939  11.536
88593W        W52801  17.651   0.341   1.219
88594W        W52802   7.703  27.688   0.814
88595W        W52803  23.018  27.620   3.314
88596W        W52804  23.711   2.228   4.698
88597W        W52805   1.316   5.875   0.928
88598W        W52806  28.458  37.508  13.316
88599W        W52807  37.830  19.573   0.924
88600W        W52808  11.656  29.063   1.896
88601W        W52809  13.211  35.418   4.623
88602W        W52810  29.077  44.483   1.882
88603W        W52811  37.065   4.763   3.797
88604W        W52812  10.250   9.351   2.355
88605W        W52813  16.278   3.886   3.246
88606W        W52814  17.656   1.889   3.242
88607W        W52815  33.889  12.836  12.070
88608W        W52816  20.712  35.484  11.012
88609W        W52817  43.380  12.712   1.279
88610W        W52818  25.649  31.554   2.400
88611W        W52819  35.883  34.881   0.309
88612W        W52820   8.384  32.611   1.363
88613W        W52821  12.156  23.544   0.416
88614W        W52822  37.882   6.426   1.704
88615W        W52823  26.966  43.822  11.954
88616W        W52824   8.658  16.649   2.664
88617W        W52825  38.481  17.209   1.865
88618W        W52826  24.672   1.756   1.753
88619W        W52827  22.553  43.826  14.445
88620W        W52828  33.469  32.013  10.488
88621W        W52829  15.207   0.367   0.266
88622W        W52830  21.720  40.419  13.521
88623W        W52831  32.398   2.801   0.946
88624W        W52832  41.521  17.155   2.891
88625W        W52833  40.941  29.451   1.442
88626W        W52834  35.439  21.179   1.769
88627W        W52835  19.246  10.354   1.437
88628W        W52836  34.865  25.595   4.601
88629W        W52837  31.492  42.947   0.771
88630W        W52838  15.285  16.317  12.399
88631W        W52839  41.877  33.454   0.761
88632W        W52840  27.626  21.553   0.344
88633W        W52841  33.083  40.315  10.551
88634W        W52842  20.170  16.076  14.779
88635W        W52843  10.292  23.680  10.940
88636W        W52844   9.312  36.509   0.845
88637W        W52845   4.281  24.144   1.923
88638W        W52846  41.796  44.780  11.453
88639W        W52847   9.212  21.737   2.399
88640W        W52848  31.975  19.259  13.986
88641W        W52849  11.255  19.544   0.436
88642W        W52850  35.367   1.883   4.120
88643W        W52851  21.118  18.057   3.323
88644W        W52852  25.967  15.671  12.478
88645W        W52853  43.514   2.742   4.837
88646W        W52854  11.352  19.111  10.419
88647W        W52855  11.713  27.111   2.679
88648W        W52856  13.250  36.931   1.300
88649W        W52857  44.371  19.617   0.482
88650W        W52858  41.798  30.649  12.430
88651W        W52859  17.771   8.673  14.432
88652W        W52860  44.958   2.269  14.301
88653W        W52861  19.120   8.811   4.718
88654W        W52862   7.185  30.604   0.409
88655W        W52863   9.672  14.333   0.471
88656W        W52864   3.838  16.748  12.094
88657W        W52865  35.569  40.804   3.160
88658W        W52866   5.706  11.860  10.571
88659W        W52867   4.206  39.545   3.319
88660W        W52868  37.862  38.339   4.194
88661W        W52869   7.305  38.457   2.752
88662W        W52870  21.745  29.170  10.510
88663W        W52871  34.997  42.478   4.322
88664W        W52872  38.945  25.101  14.378
88665W        W52873  40.524  27.047   1.347
88666W        W52874  17.685  23.726   1.717
88667W        W52875  22.629   8.315   3.861
88668W        W52876  29.517  35.528  11.420
88669W        W52877  36.009  27.004  12.889
88670W        W52878  27.080  20.117  14.929
88671W        W52879   3.265  37.866  12.888
88672W        W52880   1.271  23.112  12.552
88673W        W52881  22.587   7.305   5.713
88674W        W52882  44.333  40.043  11.535
88675W        W52883  29.461   1.312  13.453
88676W        W52884  28.161   1.846   3.653
88677W        W52885  43.281  23.126   1.368
88678W        W52886  15.104  16.112   0.391
88679W        W52887  36.549  24.167  13.956
88680W        W52888  43.012  41.335   0.394
88681W        W52889  30.542   3.321  14.396
88682W        W52890  37.574  18.766  14.439
88683W        W52891  42.840  19.753   1.720
88684W        W52892  10.764  44.354  11.581
88685W        W52893  11.801  12.771   4.339
88686W        W52894   7.208  36.868  10.426
88687W        W52895  13.767  39.918   0.757
88688W        W52896   2.788  31.494  11.613
88689W        W52897  32.061   7.257   2.238
88690W        W52898  23.222  15.628  11.394
88691W        W52899  28.465  28.122   0.949
88692W        W52900  40.315   2.425  14.805
88693W        W52901  27.531   7.353   4.733
88694W        W52902  35.033   4.747  10.974
88695W        W52903  35.858   1.322  12.915
88696W        W52904  30.047  43.301  13.905
88697W        W52905  35.547  10.636  11.497
88698W        W52906  42.882  26.040  11.964
88699W        W52907   1.900  27.612  14.475
88700W        W52908  41.994  15.629  14.793
88701W        W52909  21.719  21.750   0.459
88702W        W52910  37.946  12.157  12.516
88703W        W52911  43.778  28.630   1.909
88704W        W52912  23.704  13.641  12.996
88705W        W52913  26.201  36.087   1.725
88706W        W52914  41.307   8.700   2.219
88707W        W52915  39.373  20.201   1.835
88708W        W52916  14.147  11.784  10.417
88709W        W52917  26.160  39.873   1.281
88710W        W52918  31.035  23.192   0.950
88711W        W52919   4.731  20.759   2.378
88712W        W52920  21.075  28.184   4.117
88713W        W52921  25.984  17.099   3.369
88714W        W52922  30.657  27.599  11.497
88715W        W52923  15.295  44.870  11.464
88716W        W52924   5.775  27.588  14.413
88717W        W52925  42.427  27.109  11.882
88718W        W52926  44.986  13.637   1.785
88719W        W52927   0.485  14.614  10.962
88720W        W52928  15.153  37.992  14.497
88721W        W52929   4.719  39.945   2.786
88722W        W52930  17.087  13.750   4.642
88723W        W52931  43.319  26.158   1.297
88724W        W52932  16.637  39.376  13.934
88725W        W52933   4.739  21.253  13.931
88726W        W52934   8.816  21.097  11.494
88727W        W52935  44.967  19.046  13.468
88728W        W52936  18.281  38.867   3.164
88729W        W52937  28.945  15.150   0.802
88730W        W52938  18.668  44.974  12.558
88731W        W52939  11.318   0.398   0.945
88732W        W52940  38.544   6.775   3.659
88733W        W52941  20.764  40.903  13.519
88734W        W52942  14.137  39.423   4.774
88735W        W52943   7.747  44.005  10.946
88736W        W52944  30.992  19.669   1.280
88737W        W52945  21.205  35.565  13.429
88738W        W52946  32.930  21.050  10.641
88739W        W52947  32.607   8.669  14.354
88740W        W52948  38.465  15.814   9.956
88741W        W52949   3.779  35.901   1.898
88742W        W52950  22.533   8.189  13.861
88743W        W52951  26.599  28.446   3.358
88744W        W52952  40.487   5.411  11.038
88745W        W52953  15.663  36.517  12.340
88746W        W52954  35.857   7.756   2.400
88747W        W52955  40.385  20.195   3.176
88748W        W52956   2.383  20.732  14.478
88749W        W52957   6.187  38.820   2.260
88750W        W52958  19.580  27.662  10.610
88751W        W52959  19.155   7.683  10.551
88752W        W52960  16.637  15.634  13.437
88753W        W52961  15.148   2.751  14.893
88754W        W52962  17.684  25.064   4.325
88755W        W52963  34.876  21.682   1.893
88756W        W52964   5.930  40.513   1.759
88757W        W52965  33.032  27.995   1.919
88758W        W52966  21.049  18.712   1.398
88759W        W52967  33.500  42.363  12.486
88760W        W52968  32.111  18.211  14.488
88761W        W52969  16.193  37.543   3.328
88762W        W52970   3.747  30.438   3.232
88763W        W52971  44.362  41.496  14.802
88764W        W52972   5.331  43.463   2.717
88765W        W52973  29.006  17.799  14.840
88766W        W52974  40.006  17.103   1.852
88767W        W52975  30.116  44.360  12.467
88768W        W52976  16.309  32.044   3.691
88769W        W52977  23.224  21.196  11.511
88770W        W52978  43.447   2.343  13.544
88771W        W52979   7.336   0.772   2.746
88772W        W52980  18.558  39.961  14.824
88773W        W52981  24.681  29.517   2.743
88774W        W52982  30.146  28.156  11.376
88775W        W52983  28.157  11.860  13.351
88776W        W52984  15.740   6.204   2.327
88777W        W52985  18.548  13.640  13.981
88778W        W52986  28.071  19.048   4.758
88779W        W52987  35.481  42.867   5.269
88780W        W52988   4.916   7.262  10.523
88781W        W52989  14.703  20.036   2.294
88782W        W52990  15.777  40.907  12.525
88783W        W52991  26.576   0.897   1.234
88784W        W52992   4.299  24.489  12.964
88785W        W52993  42.796  35.052   2.245
88786W        W52994   7.400  21.113   3.838
88787W        W52995  14.291  37.414   3.149
88788W        W52996  35.932  22.702   4.268
88789W        W52997  22.096   5.298   0.911
88790W        W52998  44.424  14.655   0.453
88791W        W52999  19.277   9.753   1.317
88792W        W53000  11.712  11.130  12.895
88793W        W53001   9.797  26.592  13.858
88794W        W53002   4.866  33.597   4.177
88795W        W53003  29.119  14.696  13.331
88796W        W53004  14.250  28.660  11.010
88797W        W53005  22.041  22.553  11.111
88798W        W53006  19.753  22.603   1.384
88799W        W53007  31.606  22.222  14.386
88800W        W53008  17.110  43.991  10.907
88801W        W53009   3.915  16.739   3.341
88802W        W53010  28.546  37.447  14.949
88803W        W53011  14.812   1.374   3.825
88804W        W53012  43.764  21.687   0.340
88805W        W53013  44.938  33.552  11.014
88806W        W53014  29.088   8.858  12.394
88807W        W53015  44.904  20.721  10.943
88808W        W53016  32.980   3.310   1.891
88809W        W53017   9.829  35.597   2.799
88810W        W53018  33.022  27.549   0.286
88811W        W53019  39.485  37.353  14.385
88812W        W53020  16.157   9.778  14.770
88813W        W53021   1.263  25.623  13.833
88814W        W53022   3.405  12.299   1.381
88815W        W53023   6.230  18.273  11.471
88816W        W53024  14.628  35.995  11.565
88817W        W53025   7.308  43.319   0.304
88818W        W53026  44.441  32.009  11.597
88819W        W53027   4.745  35.482   4.207
88820W        W53028  16.588  33.480   3.265
88821W        W53029  20.214   7.376  12.914
88822W        W53030  35.055  30.611  14.932
88823W        W53031  34.120  15.188  11.058
88824W        W53032  37.393  18.684  11.040
88825W        W53033  17.652  12.129  13.376
88826W        W53034  17.170   7.347   3.301
88827W        W53035   8.744   6.703  10.983
88828W        W53036  15.805  11.170  14.394
88829W        W53037  40.510  42.367   1.416
88830W        W53038  11.150   5.261  12.007
88831W        W53039   2.452  31.148   3.264
88832W        W53040  29.987  44.943  14.494
88833W        W53041  26.082  23.143  13.940
88834W        W53042   0.977  21.103  12.044
88835W        W53043  16.156  14.209   4.262
88836W        W53044  40.836  11.186  10.639
88837W        W53045  19.699  34.910   1.694
88838W        W53046  16.749  37.067   2.208
88839W        W53047  17.747  16.727   2.181
88840W        W53048  15.775  10.345   4.772
88841W        W53049  21.654  37.514   3.273
88842W        W53050  25.979   7.350   2.888
88843W        W53051  36.892  36.350  11.942
88844W        W53052   8.204   8.706  11.885
88845W        W53053  18.614  33.585   1.377
88846W        W53054  27.189  21.046   1.801
88847W        W53055  40.033   6.274   1.721
88848W        W53056  11.653   5.314  12.977
88849W        W53057   4.262   1.776   2.733
88850W        W53058   7.348  17.684   0.957
88851W        W53059  32.457  40.025   0.343
88852W        W53060  32.091  20.750  11.931
88853W        W53061  38.872   9.869  13.815
88854W        W53062  16.271  31.436   3.696
88855W        W53063  28.153  43.516   5.134
88856W        W53064   9.722  41.042  14.386
88857W        W53065  20.585  41.927   1.778
88858W        W53066  26.970  12.143  11.417
88859W        W53067  17.599  26.028   0.420
88860W        W53068  19.135   2.282   3.221
88861W        W53069  24.992   0.267   2.326
88862W        W53070  28.168  19.141   9.986
88863W        W53071   9.214  29.499   1.442
88864W        W53072  32.899  12.278   0.795
88865W        W53073  40.863  44.852   3.760
88866W        W53074  34.108   7.908   1.804
88867W        W53075  38.422  34.868   3.799
88868W        W53076  42.321  34.576   1.858
88869W        W53077  38.448   2.870   2.369
88870W        W53078   8.279  39.947   0.880
88871W        W53079  25.614  38.878  11.072
88872W        W53080  26.505   7.766   1.373
88873W        W53081  28.033  29.016  12.012
88874W        W53082  31.146  41.512   3.247
88875W        W53083  15.180  33.995   2.407
88876W        W53084  26.592  26.603  10.615
88877W        W53085   9.805  31.421   4.631
88878W        W53086   6.350  22.037  13.943
88879W        W53087  14.337  10.770  11.957
88880W        W53088   4.250  24.071   0.953
88881W        W53089  15.585  40.940   2.191
88882W        W53090  19.142   4.283   9.567
88883W        W53091  34.092  32.123   0.415
88884W        W53092  38.994   5.799   2.870
88885W        W53093  18.140  29.985  11.126
88886W        W53094  15.215  26.148  13.494
88887W        W53095  31.439   8.792  13.959
88888W        W53096  35.856  31.595   4.173
88889W        W53097  44.771  32.122  10.021
88890W        W53098  30.006  27.043   4.789
88891W        W53099  10.340  17.709  12.853
88892W        W53100  35.490  24.587   0.386
88893W        W53101  41.294  33.574   1.814
88894W        W53102  13.274  26.021  13.063
88895W        W53103   5.805  23.044   1.743
88896W        W53104  23.688  32.129   1.268
88897W        W53105  25.116  22.050   2.391
88898W        W53106  26.177   3.944   0.919
88899W        W53107  28.935  43.320  10.443
88900W        W53108   6.276   0.950   5.093
88901W        W53109  35.038  33.487   2.683
88902W        W53110   9.355  21.517  14.816
88903W        W53111  38.365  31.907  11.127
88904W        W53112   6.870  15.184  14.338
88905W        W53113  40.436  12.797  13.989
88906W        W53114  38.429  18.711  12.926
88907W        W53115  33.451  34.574   4.715
88908W        W53116  44.958   6.805   2.885
88909W        W53117  29.560  11.138  13.978
88910W        W53118  34.587  30.031  10.571
88911W        W53119  31.118  34.547  10.460
88912W        W53120  27.675  43.859  10.624
88913W        W53121  10.176  26.967  12.980
88914W        W53122   9.342  26.048  11.088
88915W        W53123  15.103  40.513  11.466
88916W        W53124  30.552  11.316  13.007
88917W        W53125  19.242  15.808  11.444
88918W        W53126  44.793   0.460  13.050
88919W        W53127   9.386  15.583  10.966
88920W        W53128   5.328  22.171  14.450
88921W        W53129  20.031  15.180   2.406
88922W        W53130  37.965  37.039   0.772
88923W        W53131  41.914   5.272   4.296
88924W        W53132  37.402  32.138   1.721
88925W        W53133  27.070  25.974  12.842
88926W        W53134  16.776   6.245   4.141
88927W        W53135   4.842  30.990  10.626
88928W        W53136  32.637  23.115  14.324
88929W        W53137  23.586  40.024   0.429
88930W        W53138  16.567  17.682   2.278
88931W        W53139  38.987  10.250   1.411
88932W        W53140  28.049  19.710   0.918
88933W        W53141  30.048  17.768  13.391
88934W        W53142  31.931  24.633  14.931
88935W        W53143  23.711  12.144   0.330
88936W        W53144  23.713  26.580   3.807
88937W        W53145  41.427  30.022   2.896
88938W        W53146  10.237  35.083   2.419
88939W        W53147   9.356  22.087   0.376
88940W        W53148   7.894  42.926   2.182
88941W        W53149  22.545   7.391  11.545
88942W        W53150  12.756  28.943  14.761
88943W        W53151  15.274   2.855   4.247
88944W        W53152  30.523  41.001  12.553
88945W        W53153  30.590  22.581   1.842
88946W        W53154  44.470   9.669  14.985
88947W        W53155  27.007  38.468  14.997
88948W        W53156  10.754  24.119   4.599
88949W        W53157   1.357   9.811   3.251
88950W        W53158  17.680  16.128   0.343
88951W        W53159  26.676   9.699   4.238
88952W        W53160   6.376   2.957  13.010
88953W        W53161  43.467  24.183  10.539
88954W        W53162  38.391  32.064  11.590
88955W        W53163   7.396  29.474  12.054
88956W        W53164   0.888   7.345   3.675
88957W        W53165  14.760   6.855   2.219
88958W        W53166  31.609  20.647  12.093
88959W        W53167  43.337  16.685  10.063
88960W        W53168  13.797  37.341   0.348
88961W        W53169   7.173  28.566   0.315
88962W        W53170  42.995  24.090  12.569
88963W        W53171  20.113  33.450  10.076
88964W        W53172  14.337  11.201   4.169
88965W        W53173  14.105  20.742  11.391
88966W        W53174  14.284   2.397   3.307
88967W        W53175   6.268   9.223  12.875
88968W        W53176  24.013  28.162   2.666
88969W        W53177   0.334  37.935  14.470
88970W        W53178   5.338  31.404  12.978
88971W        W53179  14.332  25.123   9.990
88972W        W53180  43.436  21.110   3.158
88973W        W53181  27.117  41.479  12.982
88974W        W53182  11.687  29.670   1.888
88975W        W53183  16.595  16.168   1.387
88976W        W53184  22.547  40.865  12.406
88977W        W53185  37.039  13.709  11.538
88978W        W53186   2.905  26.655  10.450
88979W        W53187  25.990   7.809   2.829
88980W        W53188   7.858   1.932  14.972
88981W        W53189  16.668   1.341   1.724
88982W        W53190  16.182  31.626   4.686
88983W        W53191   9.389  16.803  13.515
88984W        W53192  14.180  27.585  13.853
88985W        W53193   6.246  26.519  12.394
88986W        W53194  23.085   0.743   0.960
88987W        W53195  30.968   2.736  12.076
88988W        W53196  20.547  17.555  12.846
88989W        W53197  33.563  36.903   2.859
88990W        W53198  30.073   4.887   3.867
88991W        W53199  19.635  15.803  14.929
88992W        W53200  43.303   9.151   0.327
88993W        W53201   2.288  18.748  14.913
88994W        W53202   9.694  21.214  12.433
88995W        W53203  43.006  22.042   1.245
88996W        W53204  18.565  32.062   3.784
88997W        W53205  37.442  43.022  13.419
88998W        W53206  43.385   6.191  14.410
88999W        W53207   5.233  23.228  13.798
89000W        W53208  28.566  41.898  12.990
89001W        W53209  18.757  26.984   0.364
89002W        W53210   1.483  40.978  13.994
89003W        W53211   5.768   5.859  14.333
89004W        W53212  30.032  41.900  10.539
89005W        W53213  28.565  28.532  11.060
89006W        W53214  39.929   3.394   2.257
89007W        W53215  26.107  27.617   0.304
89008W        W53216  33.106   6.680  12.054
89009W        W53217   9.320  43.418  13.312
89010W        W53218   5.391  25.025   2.665
89011W        W53219   0.859   0.269  13.544
89012W        W53220  25.999  28.992  13.432
89013W        W53221  27.185  16.194  13.313
89014W        W53222  36.562  26.101  12.884
89015W        W53223   1.929  32.917  12.069
89016W        W53224  39.364  26.678   3.316
89017W        W53225  30.517  23.190  13.800
89018W        W53226   3.221  24.683   3.314
89019W        W53227   6.199  30.650  12.036
89020W        W53228   6.271   9.709   2.824
89021W        W53229  12.223  17.259   2.703
89022W        W53230  10.796  32.482   2.186
89023W        W53231  12.663  38.326  11.894
89024W        W53232  34.046  28.465  11.469
89025W        W53233   0.748  18.555  13.518
89026W        W53234  22.634  37.037  13.936
89027W        W53235  17.075   8.813  13.946
89028W        W53236  36.954  13.150  14.849
89029W        W53237   2.280  32.464  10.406
89030W        W53238  30.596  17.626   2.213
89031W        W53239  43.433  31.510   3.219
89032W        W53240   6.335  16.737   4.739
89033W        W53241  18.105  12.120  12.974
89034W        W53242   0.803   7.243  11.573
89035W        W53243  39.379   7.180  12.389
89036W        W53244   4.731  39.898   3.730
89037W        W53245  11.133  43.278   0.837
89038W        W53246  30.081  42.304   0.425
89039W        W53247  16.678  35.600  10.499
89040W        W53248   2.904  36.515   9.971
89041W        W53249  14.295   1.812   1.326
89042W        W53250   8.869   7.322  10.917
89043W        W53251  25.597  23.179  10.584
89044W        W53252  23.076  13.711   2.798
89045W        W53253  10.871   0.950   0.261
89046W        W53254   8.365  43.480   2.382
89047W        W53255  20.568   9.288  13.495
89048W        W53256   9.687  25.123   3.664
89049W        W53257   0.392  26.525  13.871
89050W        W53258   2.741   0.422   1.851
89051W        W53259  20.588  15.180  14.928
89052W        W53260  37.544  22.672   2.312
89053W        W53261  42.404  32.512  10.931
89054W        W53262  20.691   6.209   3.835
89055W        W53263  22.640  42.298  14.411
89056W        W53264  13.792   0.795  10.561
89057W        W53265  24.701  44.466  10.638
89058W        W53266   0.944  18.670   1.448
89059W        W53267  18.647  34.525   1.771
89060W        W53268  13.652  27.016  10.939
89061W        W53269  29.598  39.927   3.162
89062W        W53270  29.018   9.168  12.518
89063W        W53271  43.415  36.958  13.984
89064W        W53272  31.490  14.732  11.431
89065W        W53273  40.960  21.609  13.938
89066W        W53274  22.198  13.110  10.919
89067W        W53275  18.207   6.914   3.212
89068W        W53276   5.779  41.475  13.950
89069W        W53277  25.508  34.557   1.746
89070W        W53278  26.653  12.293   4.647
89071W        W53279  34.581   1.366  13.526
89072W        W53280  15.766  32.050   0.475
89073W        W53281  19.132   5.314  10.535
89074W        W53282  12.232  29.094   3.298
89075W        W53283   5.925  15.798  11.426
89076W        W53284  22.699  32.395  10.891
89077W        W53285  34.613  17.694   2.814
89078W        W53286  33.451  17.555  11.028
89079W        W53287  39.321  32.443   3.848
89080W        W53288  41.484  18.590  11.379
89081W        W53289  43.013  42.359   2.849
89082W        W53290  21.570  37.850   1.272
89083W        W53291   0.331  29.934   1.809
89084W        W53292  38.054   9.695  11.058
89085W        W53293   7.305  38.012  13.477
89086W        W53294  22.660  36.469  13.040
89087W        W53295  33.974  10.818   4.726
89088W        W53296  19.720  31.490  10.581
89089W        W53297  22.246  22.626   2.885
89090W        W53298  41.824   6.224  14.864
89091W        W53299  14.160   3.450  12.495
89092W        W53300  13.259  26.617   2.361
89093W        W53301  29.103  33.891   1.321
89094W        W53302   5.373   0.932   0.943
89095W        W53303  34.555  31.472  13.418
89096W        W53304   3.276  23.606   1.807
89097W        W53305  44.415  11.712   4.661
89098W        W53306  44.389   1.759  13.831
89099W        W53307  26.033  22.677   1.316
89100W        W53308   5.921  22.120  13.339
89101W        W53309  27.976  26.526  11.124
89102W        W53310   5.747  33.430   0.926
89103W        W53311  16.735  24.563  12.034
89104W        W53312  40.346  33.999  10.441
89105W        W53313  36.550  20.049   1.698
89106W        W53314  21.166  37.547   1.451
89107W        W53315  44.972  36.410   5.168
89108W        W53316   5.361  28.611  12.565
89109W        W53317  30.086  34.911   1.748
89110W        W53318  20.176  29.969   3.686
89111W        W53319  39.445  14.118   2.782
89112W        W53320  21.141  33.112   2.726
89113W        W53321  25.142   5.713  11.085
89114W        W53322  10.811   6.200   3.229
89115W        W53323  11.624  31.482   4.298
89116W        W53324  34.406  32.451   0.750
89117W        W53325   6.813   4.424   0.361
89118W        W53326  17.224  24.108  10.457
89119W        W53327   1.901   6.707   1.327
89120W        W53328  17.081  28.123  11.413
89121W        W53329   3.296  35.416   4.600
89122W        W53330   4.943  24.630  14.399
89123W        W53331  37.034   4.246  12.916
89124W        W53332  11.745  12.754  11.412
89125W        W53333  23.103  44.839  14.406
89126W        W53334  44.291  19.168  14.344
89127W        W53335  22.517   0.296   1.801
89128W        W53336  25.145  37.893  11.554
89129W        W53337   8.367  30.564  13.802
89130W        W53338  42.841  24.148  12.955
89131W        W53339  29.527  26.086   1.913
89132W        W53340  13.111  18.603  11.592
89133W        W53341   6.409  19.587  14.761
89134W        W53342  15.694   7.387   0.467
89135W        W53343   1.874  38.922   0.934
89136W        W53344  19.252  35.509   4.598
89137W        W53345  16.131   8.778   1.273
89138W        W53346  18.059   9.368   1.439
89139W        W53347  12.776  41.999  14.918
89140W        W53348  30.112  44.906   1.340
89141W        W53349  20.082  42.457   0.387
89142W        W53350  11.195  14.814  14.889
89143W        W53351   1.373  32.589  12.836
89144W        W53352   0.274  34.532   2.416
89145W        W53353   3.282  38.401  14.441
89146W        W53354   9.212   5.276  12.861
89147W        W53355  34.406  33.995   3.740
89148W        W53356  17.194  23.696   2.825
89149W        W53357   6.855  11.794   2.271
89150W        W53358  14.160   4.247  11.544
89151W        W53359   4.417  28.973   1.831
89152W        W53360  16.077  41.812  11.979
89153W        W53361  38.988  24.105   0.797
89154W        W53362  34.960   3.435   4.752
89155W        W53363   9.683   8.798  13.797
89156W        W53364  18.782  29.952   0.435
89157W        W53365  30.000  18.665  12.062
89158W        W53366   3.879  14.605  11.462
89159W        W53367  41.922  37.014  12.347
89160W        W53368  13.109  39.976   4.200
89161W        W53369  15.102   1.799  12.898
89162W        W53370  39.969  13.310  11.990
89163W        W53371  22.697  25.669  12.892
89164W        W53372   1.438  28.178   3.826
89165W        W53373  16.150  36.926  13.014
89166W        W53374  11.323  13.329   0.947
89167W        W53375  22.650  32.973  13.369
89168W        W53376  19.101  15.283   0.728
89169W        W53377   6.753   2.298  13.842
89170W        W53378  29.985  43.904  13.885
89171W        W53379  26.592   5.870   4.690
89172W        W53380  27.076  10.155   2.277
89173W        W53381   9.176  20.765   4.319
89174W        W53382  35.560  41.020  14.951
89175W        W53383  30.526   9.253   2.691
89176W        W53384  23.520  35.033  14.996
89177W        W53385  40.956  33.540   4.597
89178W        W53386  29.573  36.042  11.987
89179W        W53387  44.919  22.161  10.435
89180W        W53388  16.111  29.072   3.237
89181W        W53389  33.604  25.479   4.604
89182W        W53390  22.710  37.532  14.763
89183W        W53391  13.775  10.342  14.277
89184W        W53392  42.785  12.306   2.764
89185W        W53393  36.371  37.401  14.950
89186W        W53394   4.216  18.633  13.967
89187W        W53395  23.676  40.032   4.823
89188W        W53396  30.455  13.732   1.872
89189W        W53397  40.473  11.157  11.986
89190W        W53398  23.561  19.085  13.417
89191W        W53399  18.098   9.324   3.711
89192W        W53400  22.193  27.113  11.489
89193W        W53401  26.536  33.885  14.875
89194W        W53402  36.410   6.242   2.391
89195W        W53403  33.016  17.566  13.031
89196W        W53404  23.524  17.077   0.760
89197W        W53405  36.028  13.611   4.270
89198W        W53406   8.709  25.185   2.349
89199W        W53407  44.459   3.229  14.430
89200W        W53408   4.249  39.887   2.316
89201W        W53409  13.680   4.367  11.041
89202W        W53410   5.389  17.789   3.241
89203W        W53411   0.818  12.810  10.601
89204W        W53412  32.050  27.968   4.781
89205W        W53413  43.509  16.079  11.406
89206W        W53414  36.457  32.983  13.794
89207W        W53415   1.373  22.241  12.510
89208W        W53416  24.155  34.442   4.835
89209W        W53417  42.389  25.062  12.982
89210W        W53418  37.454   2.305  10.084
89211W        W53419   8.170  21.752   4.804
89212W        W53420  14.634   1.828  11.575
89213W        W53421  18.714  30.526   5.164
89214W        W53422  17.122  42.817   4.771
89215W        W53423  20.074   8.365   9.601
89216W        W53424  39.350  10.699   4.605
89217W        W53425  36.487   3.232  13.454
89218W        W53426  29.124  42.841  10.976
89219W        W53427   6.720  36.350   3.249
89220W        W53428   8.836   8.166  13.799
89221W        W53429  10.647  17.095   0.729
89222W        W53430  13.738  28.014  14.795
89223W        W53431  44.461  27.659   2.845
89224W        W53432  38.386  15.664  11.109
89225W        W53433   6.749  20.056   4.696
89226W        W53434   9.732  38.369  13.390
89227W        W53435   2.841  44.307  13.815
89228W        W53436   9.798  30.498   2.339
89229W        W53437   2.796   0.867  12.349
89230W        W53438  32.546  22.034   0.476
89231W        W53439  40.541  37.439   2.331
89232W        W53440   5.415  29.579  13.347
89233W        W53441   1.809  15.641  11.406
89234W        W53442   1.763  20.743  10.409
89235W        W53443   7.689  31.459   1.248
89236W        W53444  14.277   0.427  11.507
89237W        W53445  24.698  21.573  10.411
89238W        W53446  13.744  41.301  13.837
89239W        W53447  37.897   9.326   1.333
89240W        W53448  40.525  21.689  13.807
89241W        W53449  16.137   7.678   3.704
89242W        W53450  33.551  25.190  12.535
89243W        W53451  14.110  38.456  10.947
89244W        W53452   3.711  39.480  14.799
89245W        W53453  39.065  27.600  12.919
89246W        W53454  44.436  16.759  10.155
89247W        W53455  42.434  30.625  13.989
89248W        W53456  21.101  21.261  10.584
89249W        W53457   8.371  44.379   0.922
89250W        W53458  39.534  40.977   3.836
89251W        W53459  44.959  31.515  13.040
89252W        W53460  13.326   7.736   0.443
89253W        W53461  31.149  37.572   2.302
89254W        W53462  29.071   1.377   0.310
89255W        W53463  16.269   5.425   4.150
89256W        W53464  44.865   5.703   0.275
89257W        W53465  34.613  33.470   2.764
89258W        W53466  37.469   4.792  11.024
89259W        W53467  11.294   3.893  11.406
89260W        W53468  13.609  29.988  14.449
89261W        W53469  13.821  28.458   0.286
89262W        W53470   6.922  36.552  12.077
89263W        W53471   1.817  12.726  14.935
89264W        W53472  21.724  14.657   1.211
89265W        W53473  10.299  13.157  12.889
89266W        W53474  27.088  40.849   2.744
89267W        W53475  30.434  32.417  14.878
89268W        W53476   0.314  34.036  11.371
89269W        W53477  25.607  33.420   5.322
89270W        W53478  32.437  41.794   4.318
89271W        W53479  34.449  27.625  11.919
89272W        W53480  16.792  16.315  11.397
89273W        W53481   9.675  13.667   1.783
89274W        W53482  32.923  35.970   1.841
89275W        W53483  17.262  44.501   1.264
89276W        W53484  18.280  16.654  12.365
89277W        W53485   1.753  15.255  14.784
89278W        W53486  24.082   3.778   0.375
89279W        W53487   7.809  26.626   1.434
89280W        W53488  27.075   2.354   0.338
89281W        W53489   2.275  34.060  12.887
89282W        W53490  17.604  44.320  12.472
89283W        W53491   3.350  19.737  10.516
89284W        W53492  20.069  22.154   3.272
89285W        W53493  10.165  16.126  10.583
89286W        W53494  36.484   7.304   3.340
89287W        W53495  26.107   5.919   3.347
89288W        W53496  25.699  22.020   2.178
89289W        W53497  23.552  13.272  13.387
89290W        W53498   0.292   2.472  10.570
89291W        W53499   7.372  30.422  13.529
89292W        W53500  25.213  36.846   3.718
89293W        W53501  38.401  11.868   1.893
89294W        W53502  35.066  21.245   2.276
89295W        W53503  12.829  13.156  13.376
89296W        W53504   0.844  38.039   2.199
89297W        W53505  35.922  26.064   4.653
89298W        W53506  18.296  39.887  14.342
89299W        W53507  13.351  17.739   1.805
89300W        W53508   8.711  12.853  13.384
89301W        W53509  13.648   3.829   0.967
89302W        W53510   7.283  42.324  13.012
89303W        W53511  40.815  30.941  14.899
89304W        W53512  43.833  20.273   4.687
89305W        W53513  22.146   4.940  12.540
89306W        W53514   3.813  28.591  13.857
89307W        W53515  26.188  11.368   2.385
89308W        W53516  13.601  31.428  12.937
89309W        W53517  30.458  17.562   3.198
89310W        W53518  16.073  21.135  12.510
89311W        W53519  41.993  35.438   1.722
89312W        W53520  29.987  15.234  12.851
89313W        W53521  32.393  18.228  13.526
89314W        W53522  13.822  22.012  12.859
89315W        W53523  16.743  19.129  10.547
89316W        W53524   1.954  10.814   1.894
89317W        W53525  36.085  24.708   3.727
89318W        W53526  10.865  13.171  11.109
89319W        W53527  19.281  30.437  13.435
89320W        W53528  14.711  16.215  13.002
89321W        W53529  33.015   3.354  11.108
89322W        W53530  36.360  25.628   2.396
89323W        W53531  10.825   2.331  13.012
89324W        W53532  40.947   5.770   1.744
89325W        W53533   0.401  14.238  12.544
89326W        W53534  42.393   9.238   4.744
89327W        W53535   5.341   9.795   4.616
89328W        W53536   1.801  36.926   2.362
89329W        W53537   0.279  20.104   2.254
89330W        W53538   2.291  38.870   9.968
89331W        W53539  34.504  26.631  13.917
89332W        W53540  20.195  10.820  10.998
89333W        W53541  30.096  15.145  10.957
89334W        W53542  25.543  21.647   0.288
89335W        W53543  37.913  10.856  11.478
89336W        W53544  44.417  24.148   3.678
89337W        W53545  32.436  16.596  13.444
89338W        W53546  34.379  18.783   4.673
89339W        W53547  33.489  18.158  13.844
89340W        W53548  21.230  20.210   3.263
89341W        W53549  16.805  43.935  12.425
89342W        W53550  36.560  42.890   2.838
89343W        W53551  11.802  27.147   0.799
89344W        W53552   2.891   5.194  12.986
89345W        W53553  36.870  17.736  12.524
89346W        W53554  12.306  25.025  14.316
89347W        W53555  21.603  24.109   1.287
89348W        W53556  26.623  18.659  12.975
89349W        W53557  20.128  15.646  14.366
89350W        W53558  35.856  12.640  11.531
89351W        W53559   1.409  22.009   2.780
89352W        W53560   9.304   4.305   3.364
89353W        W53561  27.539   1.890   0.383
89354W        W53562   7.689  21.260   3.363
89355W        W53563  13.185  11.756   3.819
89356W        W53564  27.197   5.761   0.891
89357W        W53565   9.341  35.499   4.599
89358W        W53566   3.415  39.369  12.084
89359W        W53567  28.576   0.330   3.346
89360W        W53568  19.780   7.304  12.028
89361W        W53569   8.256   8.714  10.528
89362W        W53570  30.512  19.206  10.644
89363W        W53571  41.293  22.713   2.899
89364W        W53572  15.643  30.533   9.933
89365W        W53573  32.130  24.115   3.232
89366W        W53574   4.775  14.333  13.309
89367W        W53575   1.338  31.947   0.374
89368W        W53576  24.489  13.266   0.426
89369W        W53577  44.398  17.120  10.974
89370W        W53578  19.549  16.129  14.933
89371W        W53579  21.613  36.083  14.003
89372W        W53580  44.323  37.964   4.158
89373W        W53581   2.318  41.371  10.908
89374W        W53582  34.023  43.943  11.496
89375W        W53583  33.089  18.559  10.588
89376W        W53584   4.371  42.448  14.877
89377W        W53585  19.730   8.225   5.154
89378W        W53586  32.483  32.625   2.269
89379W        W53587  10.333  21.677  14.926
89380W        W53588   0.778  33.475  12.841
89381W        W53589  11.173  32.888  12.556
89382W        W53590  40.027  29.496  11.493
89383W        W53591   7.738   3.868  10.608
89384W        W53592  41.906  36.975   0.457
89385W        W53593  20.680   9.862   5.653
89386W        W53594  39.447  41.037  13.914
89387W        W53595  36.025  43.884  13.905
89388W        W53596   2.952  39.377  12.417
89389W        W53597   0.456  11.366   1.851
89390W        W53598  36.898  17.596   2.811
89391W        W53599   6.779   4.798   4.307
89392W        W53600  34.446   5.330   2.248
89393W        W53601  31.540   2.799   2.405
89394W        W53602  24.639  19.729   4.208
89395W        W53603  43.499  37.473   0.887
89396W        W53604   6.845  39.909   0.415
89397W        W53605  11.287   6.324   1.377
89398W        W53606   3.847  40.502   3.231
89399W        W53607  24.997  30.514  13.399
89400W        W53608  12.262  16.768  14.031
89401W        W53609  17.257  19.204  13.045
89402W        W53610  11.746  37.882   4.117
89403W        W53611  40.961   3.819   3.850
89404W        W53612   2.740  20.125  14.837
89405W        W53613   6.256   0.403  12.372
89406W        W53614  19.746  31.462   4.678
89407W        W53615   6.735   5.852  13.401
89408W        W53616  31.585  37.009   2.902
89409W        W53617   7.250  23.088  11.048
89410W        W53618   9.749  38.959   3.279
89411W        W53619  32.019  40.482   5.307
89412W        W53620  38.536  35.956   0.940
89413W        W53621  16.192  13.645   3.226
89414W        W53622  38.960  16.216   3.235
89415W        W53623  41.824  11.754  14.324
89416W        W53624  10.200  23.162  14.948
89417W        W53625  20.197  19.218   3.216
89418W        W53626  11.682   4.319  14.903
89419W        W53627   2.387  42.345  11.468
89420W        W53628  18.627  29.167   4.631
89421W        W53629  18.776  35.093   4.237
89422W        W53630  38.959  41.799   3.152
89423W        W53631   0.965  35.597  10.898
89424W        W53632  40.459  12.318  10.416
89425W        W53633   3.916   4.342   3.164
89426W        W53634   1.792  15.088   1.305
89427W        W53635   1.386  29.505  10.485
89428W        W53636   6.772  12.664   4.264
89429W        W53637  19.574  38.063  14.907
89430W        W53638  19.723  13.608   1.860
89431W        W53639   6.309  34.099  13.040
89432W        W53640  34.539   4.733  10.441
89433W        W53641  33.057  30.506   3.302
89434W        W53642  18.086   9.875   4.312
89435W        W53643   5.881   4.779   1.378
89436W        W53644  19.718   3.352   2.268
89437W        W53645  11.127  41.968   3.232
89438W        W53646  10.724  41.405   3.808
89439W        W53647  40.865  21.216   9.980
89440W        W53648   6.191  29.432   2.681
89441W        W53649  34.990  32.028   4.743
89442W        W53650  38.541  24.559   3.709
89443W        W53651  40.366  26.540   9.981
89444W        W53652   0.914  38.403   4.738
89445W        W53653   9.225   7.677   1.706
89446W        W53654  31.134  43.000  10.535
89447W        W53655   1.910   6.262   4.315
89448W        W53656  30.987   5.831   4.686
89449W        W53657  30.937  29.451  11.872
89450W        W53658  20.047   1.780  13.360
89451W        W53659  42.425  24.567   2.819
89452W        W53660  39.426  22.181  14.892
89453W        W53661  31.066  23.540  12.393
89454W        W53662  25.219  34.481  14.785
89455W        W53663   1.871  25.972  12.035
89456W        W53664  41.978  19.148   5.215
89457W        W53665  41.846  32.435  13.060
89458W        W53666  35.897  40.470   1.785
89459W        W53667  45.000  26.582   1.829
89460W        W53668  32.612   8.195  11.051
89461W        W53669  41.346  28.076  14.918
89462W        W53670  36.852   7.760   3.805
89463W        W53671  40.804  25.644  12.826
89464W        W53672  26.159  31.027   4.339
89465W        W53673  15.692   3.303   4.788
89466W        W53674  43.350  31.471   5.137
89467W        W53675  31.904  25.713   1.347
89468W        W53676  32.900  21.107  11.437
89469W        W53677  21.137  43.416  13.794
89470W        W53678  16.183  29.137  11.074
89471W        W53679  13.763  42.012  13.935
89472W        W53680   0.381  20.735  12.862
89473W        W53681  39.321   9.370   1.842
89474W        W53682  29.431  11.354   3.836
89475W        W53683  42.811  32.115   0.244
89476W        W53684  13.180  36.387  12.096
89477W        W53685   1.411  18.172   0.958
89478W        W53686  42.938   0.772  12.904
89479W        W53687  41.820  36.382   1.866
89480W        W53688  24.507  18.571   1.776
89481W        W53689  25.531   4.243  12.054
89482W        W53690   5.205  39.921  12.968
89483W        W53691  35.922  28.655   4.214
89484W        W53692  25.145   2.279   3.179
89485W        W53693   7.798  42.312   4.742
89486W        W53694  41.017  40.893   3.302
89487W        W53695  31.986  18.122  10.603
89488W        W53696  13.286  20.573   1.702
89489W        W53697   2.417   1.832   4.323
89490W        W53698  18.087  11.804  12.362
89491W        W53699   3.853  42.972  11.035
89492W        W53700  13.305  22.236   2.716
89493W        W53701   6.867   3.393  13.790
89494W        W53702  44.352  44.391  14.946
89495W        W53703  38.543  11.288  14.460
89496W        W53704  13.317  43.965   1.434
89497W        W53705  13.656  38.005  11.915
89498W        W53706  17.744   2.879  10.601
89499W        W53707  26.463  43.472  12.403
89500W        W53708  11.820  23.167  12.387
89501W        W53709  42.791  39.449   0.909
89502W        W53710  36.474  26.099   2.811
89503W        W53711  34.951  18.113  10.585
89504W        W53712  42.455  27.566   0.756
89505W        W53713  41.528  32.981  14.775
89506W        W53714  28.580  16.173   2.189
89507W        W53715  44.912   2.933   3.210
89508W        W53716  19.732  23.618   4.774
89509W        W53717  24.522  36.090  11.463
89510W        W53718  32.973  39.851  11.607
89511W        W53719  33.121   6.697  13.383
89512W        W53720  19.204  35.014  12.050
89513W        W53721   0.986  38.006  10.448
89514W        W53722  21.656  11.334   1.930
89515W        W53723   3.376  33.064  11.612
89516W        W53724  32.904  28.620   1.307
89517W        W53725   5.298   7.272   3.352
89518W        W53726  25.555  39.828  11.471
89519W        W53727  39.442  23.221  12.559
89520W        W53728  37.373   5.255   1.405
89521W        W53729  14.758  17.605   3.280
89522W        W53730  26.186  20.158  12.442
89523W        W53731   8.719  12.300  14.965
89524W        W53732  31.434  33.960  11.551
89525W        W53733  21.025   3.337   4.254
89526W        W53734  27.102  22.620   2.814
89527W        W53735  15.680  24.510  14.928
89528W        W53736  35.480  40.549   1.416
89529W        W53737  34.545  30.470  14.819
89530W        W53738   4.366  44.841   0.332
89531W        W53739  23.088  44.768  12.929
89532W        W53740  12.793  12.309  10.079
89533W        W53741   5.792   0.390  12.931
89534W        W53742  15.229   2.415  10.950
89535W        W53743   8.742  11.858  13.452
89536W        W53744  34.111  33.059  11.448
89537W        W53745  25.135   9.342  14.423
89538W        W53746  19.128   8.795  11.883
89539W        W53747  39.493  42.780  14.968
89540W        W53748  13.615  28.022   0.825
89541W        W53749  26.636  40.929  11.120
89542W        W53750   4.252  30.461  11.473
89543W        W53751  44.296   1.908  14.456
89544W        W53752  13.118  40.996   0.877
89545W        W53753   7.306  26.612  14.762
89546W        W53754  23.092  29.138  11.963
89547W        W53755  41.529  40.435  11.446
89548W        W53756  18.766   6.743   0.733
89549W        W53757  38.486  16.099   9.596
89550W        W53758  29.520  21.579   2.339
89551W        W53759  22.615   4.774   3.332
89552W        W53760  33.925  10.249   1.775
89553W        W53761  39.466  23.494   4.709
89554W        W53762  35.071  27.960   4.716
89555W        W53763  44.832   7.361  13.975
89556W        W53764  17.583   3.830   4.729
89557W        W53765  22.034   9.684   2.360
89558W        W53766  13.136  40.947  11.962
89559W        W53767   0.491  31.444  14.851
89560W        W53768  19.043  42.407   1.715
89561W        W53769  27.179  34.498   1.906
89562W        W53770  24.487   7.351  11.927
89563W        W53771  28.681  36.973   2.759
89564W        W53772  32.081  34.445   3.631
89565W        W53773  34.509  33.518  13.484
89566W        W53774  31.098  44.990  14.287
89567W        W53775  17.180  25.203  14.829
89568W        W53776   1.848   1.329  14.933
89569W        W53777  27.572  35.048  11.878
89570W        W53778  38.411   0.335   1.409
89571W        W53779  28.147  35.880  13.043
89572W        W53780   3.918   0.907  13.011
89573W        W53781  42.961  13.799  12.533
89574W        W53782   8.376  35.587   2.320
89575W        W53783  37.514  38.364  12.013
89576W        W53784  19.143  20.604   1.775
89577W        W53785  32.125  39.524  12.993
89578W        W53786  33.531  17.615   1.315
89579W        W53787  25.083  37.882  12.506
89580W        W53788   6.869  30.544   2.314
89581W        W53789  27.960  31.966   3.315
89582W        W53790  19.707  35.940   0.258
89583W        W53791   7.261  26.469   2.239
89584W        W53792  32.125  16.210  12.054
89585W        W53793  20.550  32.411  12.494
89586W        W53794  27.541  20.211  10.602
89587W        W53795  24.652  18.176  14.866
89588W        W53796  23.135  15.652  12.381
89589W        W53797  44.820  27.468   1.795
89590W        W53798  34.886  39.036  13.312
89591W        W53799   7.331   2.786   1.790
89592W        W53800   2.759  33.881   2.384
89593W        W53801  14.743  33.440  12.437
89594W        W53802  20.093  25.989  11.459
89595W        W53803  33.048  40.372  10.966
89596W        W53804  37.558  39.542   4.276
89597W        W53805   8.243   9.332   2.269
89598W        W53806  15.291  43.329  14.448
89599W        W53807  41.414   9.310  14.871
89600W        W53808  32.622   0.748   1.891
89601W        W53809  10.738   3.736  12.439
89602W        W53810   5.371  35.017  12.994
89603W        W53811   6.194  40.445  14.934
89604W        W53812  41.931  19.560  12.010
89605W        W53813   4.780  18.138   4.824
89606W        W53814  33.120  39.330  14.967
89607W        W53815  39.029  10.770   3.835
89608W        W53816  36.022  28.951  10.645
89609W        W53817  41.410  23.110  10.620
89610W        W53818   5.380  24.498  11.397
89611W        W53819  43.275   0.332   1.413
89612W        W53820  14.622   8.716  12.575
89613W        W53821  43.968  15.224   3.729
89614W        W53822  11.757  35.587   3.805
89615W        W53823  41.906  36.023  11.079
89616W        W53824   2.336  25.527  11.424
89617W        W53825   0.335  27.003   3.195
89618W        W53826  37.479   9.729   3.639
89619W        W53827  22.645  19.557  12.485
89620W        W53828  42.975   2.435  10.896
89621W        W53829  11.635  19.705   3.688
89622W        W53830  29.537  12.811  11.914
89623W        W53831  20.525   9.319   3.163
89624W        W53832   2.773   5.312  11.961
89625W        W53833  13.827   0.769  14.884
89626W        W53834   3.345   9.305  11.558
89627W        W53835  14.822  28.677  11.499
89628W        W53836  27.065  32.062  14.420
89629W        W53837  21.657  11.193   4.792
89630W        W53838  21.600  29.038   4.260
89631W        W53839   1.966  13.270  12.565
89632W        W53840  10.254   6.294   3.238
89633W        W53841  33.398  12.300   1.320
89634W        W53842   4.364  38.013   4.598
89635W        W53843  34.046  36.977  13.364
89636W        W53844  35.943  16.719   1.419
89637W        W53845  36.951  27.943  14.855
89638W        W53846   8.728   0.254  14.344
89639W        W53847  30.491  32.977   1.859
89640W        W53848  43.811  18.734   4.324
89641W        W53849  13.158  24.682   1.854
89642W        W53850  36.408  12.679   4.815
89643W        W53851  44.394  32.421   2.306
89644W        W53852  29.576  32.033   2.900
89645W        W53853  30.613  42.430   4.652
89646W        W53854  16.747  25.533  11.064
89647W        W53855  18.751  34.602   4.259
89648W        W53856  39.036  30.540   3.283
89649W        W53857   1.807  42.427  14.316
89650W        W53858  18.555  16.085  11.465
89651W        W53859  19.602   4.863   5.273
89652W        W53860  35.028   9.753   3.262
89653W        W53861  10.303  24.722  11.064
89654W        W53862  29.038  35.041   2.859
89655W        W53863   1.784  24.615   4.638
89656W        W53864  17.736  20.743   3.200
89657W        W53865  13.753  38.074   2.196
89658W        W53866  21.046   4.362   4.760
89659W        W53867   2.736  25.641  11.032
89660W        W53868   6.863  43.896   4.327
89661W        W53869  23.124  27.112   1.367
89662W        W53870  15.666  23.998  14.301
89663W        W53871  22.082  30.967  13.947
89664W        W53872  12.291  16.678   0.868
89665W        W53873  29.648  38.074   0.358
89666W        W53874  40.967  14.120   2.670
89667W        W53875  17.696   4.449   3.253
89668W        W53876  38.853  22.141   3.251
89669W        W53877  43.467  26.160  12.838
89670W        W53878  33.021  22.151  11.593
89671W        W53879  28.053   4.244   0.930
89672W        W53880   8.370  37.969  12.849
89673W        W53881  20.542   0.412  12.567
89674W        W53882   9.780  14.718  11.919
89675W        W53883  24.007   6.715   2.207
89676W        W53884  43.514   9.700   4.337
89677W        W53885  12.827  14.231   4.124
89678W        W53886  37.444  33.029  12.021
89679W        W53887  38.516  19.717   1.877
89680W        W53888  33.927  35.041  14.943
89681W        W53889   3.821   7.226   9.927
89682W        W53890  39.815  11.756   1.720
89683W        W53891   7.288  24.172   1.431
89684W        W53892  26.500  29.434   5.095
89685W        W53893   3.447   1.917   1.293
89686W        W53894  12.616  26.515  12.045
89687W        W53895  15.793  37.522   3.755
89688W        W53896  27.005   5.871  14.439
89689W        W53897  32.431  12.729  12.522
89690W        W53898   6.196  28.139  14.414
89691W        W53899  20.765   4.290   1.860
89692W        W53900  33.109  41.445  10.602
89693W        W53901   7.851  35.507  13.057
89694W        W53902  43.292   2.801   2.830
89695W        W53903   0.351  16.711  12.881
89696W        W53904  19.112  29.021   3.866
89697W        W53905  29.010  23.553   4.118
89698W        W53906  27.010  25.087  13.424
89699W        W53907  42.439  34.115  14.926
89700W        W53908  39.050   4.323   1.925
89701W        W53909   3.939  18.710  12.067
89702W        W53910  22.134  44.936  11.472
89703W        W53911  31.407  33.535   4.755
89704W        W53912  34.057   4.920   4.641
89705W        W53913  35.535   0.389  13.897
89706W        W53914  33.112   9.392   3.808
89707W        W53915   1.274  27.671  12.915
89708W        W53916  29.470  42.997   1.929
89709W        W53917  14.120   2.339   4.306
89710W        W53918  17.628  42.372   2.694
89711W        W53919  25.498  12.650  12.499
89712W        W53920   5.364  21.200  11.967
89713W        W53921  14.827  34.373  14.390
89714W        W53922  44.263  13.264  12.861
89715W        W53923   8.825  10.186  11.512
89716W        W53924   6.391  11.733   5.207
89717W        W53925  23.155  18.166   1.432
89718W        W53926  21.246  38.839  12.043
89719W        W53927   4.242  40.848   1.743
89720W        W53928  23.635  41.902  11.004
89721W        W53929  23.640  40.007   4.140
89722W        W53930  33.594  44.857  14.998
89723W        W53931  18.055   5.279  13.504
89724W        W53932   6.372   6.804   3.182
89725W        W53933   3.268  32.962   4.755
89726W        W53934  33.480  18.715  13.969
89727W        W53935  13.640  37.371  12.834
89728W        W53936  11.835  40.941   0.256
89729W        W53937  15.645  22.137   1.829
89730W        W53938  42.821  14.202   0.877
89731W        W53939   9.853  14.803   2.679
89732W        W53940   3.347  44.796  14.819
89733W        W53941  15.119  26.676  14.007
89734W        W53942  36.349   3.247  10.933
89735W        W53943  12.669  29.573  12.566
89736W        W53944  21.729   3.831  11.048
89737W        W53945  28.662  35.431   3.649
89738W        W53946  32.040   4.399   4.213
89739W        W53947  34.893  41.020  14.394
89740W        W53948  24.179  12.357   0.744
89741W        W53949  31.979  36.510   1.341
89742W        W53950  17.230  37.427   4.310
89743W        W53951   0.874  35.017  14.805
89744W        W53952  25.105  43.338  12.033
89745W        W53953  19.122  40.499   3.796
89746W        W53954  42.342  11.161   2.842
89747W        W53955  44.822  19.215   4.276
89748W        W53956  11.190  40.897  11.413
89749W        W53957  40.483  19.601   4.326
89750W        W53958  38.480   7.780   1.219
89751W        W53959  29.080  12.829  14.493
89752W        W53960  12.770   6.765   2.795
89753W        W53961  26.128  12.143  14.458
89754W        W53962  35.393  41.465  12.899
89755W        W53963  44.884  18.765  14.355
89756W        W53964  36.939  22.656   2.211
89757W        W53965  43.015  26.180   0.451
89758W        W53966  28.970   1.916   1.355
89759W        W53967  35.523  29.947   0.793
89760W        W53968  44.963  11.365   1.899
89761W        W53969   2.730  22.041  10.912
89762W        W53970  28.941  32.047   1.299
89763W        W53971   8.331  42.786   2.417
89764W        W53972  41.929   0.862  12.080
89765W        W53973  27.143  34.911  13.982
89766W        W53974  34.116  15.232  13.050
89767W        W53975  33.067  30.150  10.971
89768W        W53976  42.825  21.028   1.755
89769W        W53977  31.093  31.986   1.302
89770W        W53978  43.477  21.572   3.866
89771W        W53979  40.335  21.732  11.092
89772W        W53980  28.173   5.703   4.625
89773W        W53981  39.367   6.235   3.804
89774W        W53982  40.832  33.538  14.969
89775W        W53983  20.584  27.636   0.399
89776W        W53984  35.548   4.797   1.357
89777W        W53985  13.612  20.732  10.433
89778W        W53986   9.796  30.954   1.374
89779W        W53987  18.185  40.401   0.372
89780W        W53988   1.403  25.609   3.677
89781W        W53989  27.086  16.259  13.914
89782W        W53990   3.760   4.298   0.842
89783W        W53991  13.351  42.902   3.253
89784W        W53992  21.701  15.643   1.724
89785W        W53993  24.016   6.867  13.310
89786W        W53994  34.947  27.158   4.321
89787W        W53995   8.674  33.463   1.855
89788W        W53996  16.254  18.548   0.453
89789W        W53997  35.018  14.740  14.819
89790W        W53998   7.212  19.100   0.955
89791W        W53999  18.265   5.332   0.420
89792W        W54000  17.793  38.836  10.558
89793W        W54001   0.419  19.136   3.631
89794W        W54002  21.189  13.753   4.614
89795W        W54003  16.219   7.244   5.158
89796W        W54004  18.569  43.363  11.088
89797W        W54005  27.110  28.184  12.094
89798W        W54006  33.613  14.104  14.904
89799W        W54007  29.566   2.863   2.418
89800W        W54008  34.038  42.866   0.788
89801W        W54009  28.652  13.270   3.231
89802W        W54010  15.180   5.227  14.511
89803W        W54011   8.858  43.891  11.099
89804W        W54012  37.569  35.595   1.226
89805W        W54013  41.914  30.540   4.688
89806W        W54014  11.828  13.339  12.073
89807W        W54015   7.822  22.563  14.423
89808W        W54016  41.847  18.665   2.194
89809W        W54017  18.204   3.378  14.864
89810W        W54018  29.562  36.881  10.553
89811W        W54019  11.329  15.284  11.491
89812W        W54020   2.465  18.601   3.334
89813W        W54021  10.678  35.535  11.503
89814W        W54022  20.697  18.550  10.473
89815W        W54023  18.628   0.792  11.070
89816W        W54024  32.931  31.532  13.334
89817W        W54025  14.133  22.524   5.238
89818W        W54026  35.366  11.793   3.718
89819W        W54027   7.341  31.409   0.818
89820W        W54028  39.420  37.848  14.962
89821W        W54029  26.160  25.529   2.734
89822W        W54030  24.655   7.345  14.972
89823W        W54031   3.452   6.283   4.122
89824W        W54032   1.770  17.763  12.536
89825W        W54033  39.522   6.813  13.481
89826W        W54034  36.879  39.388  13.350
89827W        W54035   8.728  23.092  13.043
89828W        W54036  31.920  31.925  14.027
89829W        W54037  21.230  26.580   3.772
89830W        W54038  34.522   2.449  12.888
89831W        W54039  22.628   7.773   2.756
89832W        W54040  12.238  24.210  10.893
89833W        W54041   9.260  19.679  11.059
89834W        W54042  38.024  39.463  12.844
89835W        W54043  15.740   2.297   3.230
89836W        W54044   2.405   2.952   2.882
89837W        W54045  30.050  37.393  10.576
89838W        W54046  43.481  11.190   0.876
89839W        W54047   0.899  40.007  13.403
89840W        W54048  24.599  18.270  11.022
89841W        W54049   2.322  42.827  12.950
89842W        W54050  10.743  12.180   3.860
89843W        W54051  42.451  13.329   1.418
89844W        W54052  32.054  40.921   0.444
89845W        W54053   7.716   6.851  12.379
89846W        W54054   6.841  28.495  13.512
89847W        W54055   9.255  29.454  14.425
89848W        W54056  16.732   5.727  14.434
89849W        W54057   5.800  26.007   2.392
89850W        W54058   0.825  30.019  13.382
89851W        W54059  40.324  21.746   9.552
89852W        W54060  20.640  32.964   1.291
89853W        W54061   2.405  31.509  12.401
89854W        W54062  11.148  33.949   4.699
89855W        W54063   5.315  13.164   2.284
89856W        W54064   0.943  29.629  10.046
89857W        W54065  24.570  24.488   1.390
89858W        W54066   0.822  37.835   1.274
89859W        W54067  14.664  32.516   4.246
89860W        W54068  32.081   8.251  12.429
89861W        W54069  43.821  23.700   1.422
89862W        W54070   7.671  32.955   4.120
89863W        W54071  27.027  23.694   3.860
89864W        W54072  24.214  24.042   3.756
89865W        W54073  38.973  25.054   1.445
89866W        W54074  13.724  36.518   1.360
89867W        W54075   4.780  15.300   2.780
89868W        W54076  35.411  32.901   2.815
89869W        W54077  43.875  26.685   3.264
89870W        W54078  38.453  14.790   1.436
89871W        W54079  23.198  35.535  12.016
89872W        W54080  16.119  34.039  10.423
89873W        W54081  25.564  36.841   3.250
89874W        W54082  39.839  39.827   1.228
89875W        W54083  24.230  22.734   2.367
89876W        W54084  18.657  10.814   2.675
89877W        W54085   6.714  21.236   0.744
89878W        W54086  18.154  33.436   2.760
89879W        W54087  38.896  14.130   0.931
89880W        W54088  42.357  41.402   4.284
89881W        W54089  18.163  22.542   3.758
89882W        W54090  44.761  18.291  11.478
89883W        W54091  13.844  31.916  12.047
89884W        W54092  35.422   4.346   0.789
89885W        W54093  30.935   5.206   1.728
89886W        W54094  35.103   4.287  12.461
89887W        W54095  40.331  26.491   3.868
89888W        W54096  42.799  40.311   3.235
89889W        W54097   0.276  16.717   4.228
89890W        W54098   6.414  26.481   2.881
89891W        W54099  18.639  24.633  11.934
89892W        W54100  12.612   6.835   0.269
89893W        W54101  16.091   7.683   2.674
89894W        W54102   5.242  36.516  13.015
89895W        W54103  21.751  36.446  10.471
89896W        W54104   9.752   6.340  11.995
89897W        W54105  15.235   4.925  12.428
89898W        W54106  38.396  10.789  10.467
89899W        W54107  44.975   5.209  12.051
89900W        W54108  10.171  18.571   3.349
89901W        W54109  28.182  25.099   3.774
89902W        W54110  42.015  25.477   4.346
89903W        W54111  32.939  10.816  12.569
89904W        W54112  31.562  34.533   3.705
89905W        W54113   9.295  35.447  12.882
89906W        W54114  37.571  26.698   4.724
89907W        W54115  31.496  44.293  12.575
89908W        W54116  22.184  14.650   0.285
89909W        W54117  20.565  39.021   3.735
89910W        W54118   9.270  28.522  11.110
89911W        W54119  20.219  23.994  13.825
89912W        W54120  15.208  38.070   5.677
89913W        W54121   6.742  38.513  14.912
89914W        W54122  41.389  31.441   3.659
89915W        W54123  29.664  30.439   4.674
89916W        W54124  32.961  24.119   0.953
89917W        W54125  26.989  31.460   0.882
89918W        W54126  35.855  16.174   4.706
89919W        W54127  44.284  19.156   4.605
89920W        W54128  10.807   5.265  11.487
89921W        W54129  13.158  38.454  14.442
89922W        W54130  28.136  39.017   5.120
89923W        W54131   4.727   1.288   1.927
89924W        W54132  33.082   9.649   0.943
89925W        W54133  16.691  36.421   0.347
89926W        W54134  33.603   8.176  13.954
89927W        W54135  34.048  44.781   1.898
89928W        W54136   7.192  35.956   0.910
89929W        W54137  13.769  24.558   1.796
89930W        W54138   3.820   5.924   3.315
89931W        W54139  22.739  24.143  13.989
89932W        W54140  26.617  40.801  11.441
89933W        W54141  20.039  39.535   0.362
89934W        W54142  31.946  41.975   1.423
89935W        W54143  23.074  16.240  11.481
89936W        W54144  10.158  37.922  10.465
89937W        W54145  43.949   0.417  14.846
89938W        W54146  39.495  14.198  10.587
89939W        W54147  40.950  25.038   3.345
89940W        W54148   0.296  20.038   0.350
89941W        W54149  40.409   1.356  13.538
89942W        W54150  35.059   0.493  13.333
89943W        W54151  13.347  15.220   0.791
89944W        W54152  39.965   2.456  10.161
89945W        W54153   2.732  43.889  11.107
89946W        W54154  33.128  12.681   3.712
89947W        W54155  12.199   7.849  11.081
89948W        W54156   0.261  13.707   3.172
89949W        W54157  26.603  33.996   4.807
89950W        W54158  22.111  24.712  11.608
89951W        W54159  25.614  35.433   4.689
89952W        W54160  42.785   8.244   4.700
89953W        W54161   8.823  18.772  10.591
89954W        W54162   7.192  17.144  11.016
89955W        W54163  22.524   5.922  10.444
89956W        W54164  28.992  12.251  12.030
89957W        W54165  39.853  32.138   0.822
89958W        W54166   2.777  25.578   1.332
89959W        W54167  34.510  36.396   2.797
89960W        W54168  26.552  34.460   3.663
89961W        W54169  36.937   9.835   2.675
89962W        W54170  12.700  30.594  11.386
89963W        W54171  36.979  16.781   2.743
89964W        W54172  18.577  18.662  13.367
89965W        W54173  17.619   3.440  13.961
89966W        W54174  41.821  11.732   3.635
89967W        W54175  21.192   3.858  14.821
89968W        W54176  36.849   3.364   1.249
89969W        W54177  20.136  34.948  12.980
89970W        W54178   8.212   5.385  10.460
89971W        W54179  21.110  35.961  13.056
89972W        W54180   8.401   3.719   3.235
89973W        W54181  44.276  42.934   3.815
89974W        W54182  34.949  25.584  13.438
89975W        W54183  17.136  23.623  13.527
89976W        W54184  26.031  34.073  12.398
89977W        W54185  25.053  15.208   3.237
89978W        W54186  38.545  12.627   2.245
89979W        W54187   8.779  38.978  14.486
89980W        W54188  22.714  17.303   3.757
89981W        W54189  13.773  34.001   1.285
89982W        W54190  12.241  25.074   2.845
89983W        W54191  38.543  12.784  14.894
89984W        W54192  25.572  22.522  14.395
89985W        W54193  31.952  29.036  10.589
89986W        W54194  21.224  11.274   3.790
89987W        W54195  27.146  25.013   3.379
89988W        W54196  35.406  13.766   4.766
89989W        W54197  12.764  20.612  11.874
89990W        W54198  40.819   6.312   1.435
89991W        W54199  10.208  11.192  10.569
89992W        W54200  24.062  20.039   2.284
89993W        W54201  11.234  32.017   3.216
89994W        W54202  35.456   5.433  11.585
89995W        W54203  33.545  16.116   2.202
89996W        W54204  24.054   0.449   2.730
89997W        W54205  39.980  20.689  11.534
89998W        W54206   7.750   6.788  12.940
89999W        W54207  31.610  32.534  13.809
90000W        W54208  19.537  37.030  14.316
90001W        W54209  28.956  17.723  11.864
90002W        W54210   6.676  30.468   4.124
90003W        W54211  34.462  32.582  11.582
90004W        W54212  18.652  16.236   3.178
90005W        W54213   7.358  22.711   3.819
90006W        W54214   7.333   1.456  12.564
90007W        W54215   5.407  39.430   4.623
90008W        W54216  32.403  30.527   2.378
90009W        W54217  34.503   6.348  11.402
90010W        W54218  12.620  43.346   2.396
90011W        W54219   1.955  28.017   0.877
90012W        W54220  42.813  40.992   1.921
90013W        W54221   0.764  44.820  13.391
90014W        W54222  25.547  31.074   4.181
90015W        W54223  17.164  31.565   0.290
90016W        W54224  33.920  18.151   1.874
90017W        W54225  41.806  23.166   2.842
90018W        W54226  12.739  19.266   2.832
90019W        W54227  34.394  28.091  10.499
90020W        W54228  12.310  32.592  11.859
90021W        W54229   4.265  16.760  13.534
90022W        W54230  26.170  30.532   0.778
90023W        W54231   4.400  30.962   4.655
90024W        W54232  36.380  43.308   2.806
90025W        W54233  22.588   3.262   3.293
90026W        W54234  16.595  11.357  14.024
90027W        W54235  44.809  25.506  11.932
90028W        W54236  14.266  37.922   4.682
90029W        W54237   4.361  43.950   3.204
90030W        W54238  44.945   1.349   1.811
90031W        W54239  18.605  24.996   2.798
90032W        W54240  24.705  25.171   1.300
90033W        W54241  43.344   9.801  14.941
90034W        W54242   4.296  15.172  12.373
90035W        W54243  27.973   4.382   1.732
90036W        W54244   8.167  41.332   0.250
90037W        W54245  12.742  44.939   0.427
90038W        W54246   6.686  22.227   4.314
90039W        W54247  20.263   7.300   4.631
90040W        W54248   2.321  11.744  13.962
90041W        W54249  27.052  38.884  10.545
90042W        W54250   7.789  22.241  13.389
90043W        W54251  32.464  14.604   1.276
90044W        W54252  35.066  38.925  14.859
90045W        W54253  26.177  33.615   4.195
90046W        W54254  10.140  23.109  13.822
90047W        W54255   6.190  37.473   1.441
90048W        W54256  38.493   8.876   2.694
90049W        W54257   3.459  30.454  10.090
90050W        W54258  44.921  22.244  10.907
90051W        W54259  38.462  35.501   4.684
90052W        W54260  25.486  33.602   1.434
90053W        W54261  28.630  11.718   2.748
90054W        W54262  16.141  41.394   3.300
90055W        W54263  35.047   7.834   3.188
90056W        W54264   3.886  11.161   0.799
90057W        W54265  39.443   6.310  12.843
90058W        W54266  39.344  21.621   2.268
90059W        W54267  21.521  41.923   3.346
90060W        W54268   5.843  30.649   1.447
90061W        W54269  11.312   4.739   2.809
90062W        W54270   4.920  25.066   1.297
90063W        W54271  34.450  32.921  14.940
90064W        W54272  29.532  43.359   2.389
90065W        W54273   8.194  12.163   3.180
90066W        W54274  38.909   4.716   4.180
90067W        W54275   5.339   1.839   3.384
90068W        W54276  35.526  12.819  10.527
90069W        W54277  36.964  10.829   1.444
90070W        W54278   6.690  43.496  10.598
90071W        W54279  15.756  37.919   1.348
90072W        W54280  24.691   1.758  11.557
90073W        W54281  24.052  43.275  12.465
90074W        W54282  23.686  40.900   3.277
90075W        W54283  33.950  36.530  13.372
90076W        W54284  30.044   3.874  14.976
90077W        W54285  27.951  18.788  13.037
90078W        W54286  33.601   6.730   1.268
90079W        W54287   5.885  36.399   1.911
90080W        W54288  38.062  11.647  14.360
90081W        W54289  44.443  41.912   4.277
90082W        W54290  20.655  19.747  10.087
90083W        W54291  38.948  15.106  14.490
90084W        W54292  32.072  33.099   1.309
90085W        W54293  13.227  13.829   0.378
90086W        W54294  35.088   9.305   1.210
90087W        W54295   4.858  13.168  14.461
90088W        W54296   1.319  14.741  14.960
90089W        W54297  16.185  22.149   2.340
90090W        W54298   6.236  20.531  11.006
90091W        W54299  25.529  42.301   3.325
90092W        W54300   6.244  23.022   0.353
90093W        W54301  30.086   3.440   0.894
90094W        W54302  25.681  10.740   0.799
90095W        W54303  18.163  42.304   4.738
90096W        W54304  14.282  17.162  14.793
90097W        W54305  20.111   2.236   0.775
90098W        W54306  43.008  18.634  13.396
90099W        W54307   8.216  16.285  11.890
90100W        W54308   7.171   2.315   4.175
90101W        W54309  28.102  11.218   0.820
90102W        W54310  40.960  35.395   2.782
90103W        W54311  20.028  43.364  12.066
90104W        W54312  17.775  43.784   2.829
90105W        W54313   0.778  37.049  12.066
90106W        W54314   0.276  33.416   5.292
90107W        W54315  41.924   3.234  12.445
90108W        W54316   7.336  25.172   3.254
90109W        W54317  42.795  28.182  14.857
90110W        W54318  31.485  26.122  11.454
90111W        W54319   9.836   6.748   1.767
90112W        W54320  24.478  40.028  11.912
90113W        W54321   1.754   4.934   2.229
90114W        W54322  35.914   8.830  13.823
90115W        W54323  43.874   2.775   3.222
90116W        W54324  19.244  38.509   4.176
90117W        W54325   3.445  35.590   1.303
90118W        W54326  42.501  43.778   1.836
90119W        W54327   1.774  34.040  11.609
90120W        W54328  34.056  35.525  10.537
90121W        W54329  33.521  29.088  10.132
90122W        W54330   2.790  25.109   0.247
90123W        W54331  20.246   7.773   1.855
90124W        W54332  17.225   0.341  12.538
90125W        W54333   3.233  36.998   2.185
90126W        W54334  16.626  11.793  13.440
90127W        W54335  16.190  11.268   3.685
90128W        W54336  14.781  39.812   2.330
90129W        W54337   9.218  39.324  14.801
90130W        W54338  28.069  12.802  13.908
90131W        W54339  16.104  31.068   0.252
90132W        W54340  17.121  10.862  12.917
90133W        W54341  23.235   9.810   4.759
90134W        W54342  32.458  37.877   1.221
90135W        W54343  16.210  44.931  12.531
90136W        W54344  11.165  31.015  13.830
90137W        W54345  35.009  10.706   1.904
90138W        W54346  36.532   6.731  11.948
90139W        W54347  28.979  35.979  12.459
90140W        W54348  32.432  17.571   2.372
90141W        W54349  37.421  29.637  10.986
90142W        W54350  43.385  31.143  14.020
90143W        W54351  21.208  16.227  11.030
90144W        W54352  23.211  16.259  14.874
90145W        W54353  10.665  21.629   1.824
90146W        W54354  27.167  13.196   3.386
90147W        W54355  24.226  19.749   1.364
90148W        W54356  20.098  14.754  14.885
90149W        W54357  42.019  21.018  12.503
90150W        W54358   1.452  39.882   0.284
90151W        W54359  12.712  24.082  11.125
90152W        W54360  27.492  19.746  11.974
90153W        W54361   2.854  18.266  14.275
90154W        W54362  27.657  19.563   3.823
90155W        W54363  24.720  42.995   0.848
90156W        W54364  13.744  42.350  11.497
90157W        W54365  44.845  25.976  12.392
90158W        W54366  15.731  30.929  13.992
90159W        W54367  41.835  24.010  11.029
90160W        W54368  35.392  29.626   4.710
90161W        W54369   7.193  24.489   2.223
90162W        W54370   5.309  11.308   2.841
90163W        W54371  14.311  10.350  11.385
90164W        W54372   8.299   6.360   3.703
90165W        W54373  26.683  30.995  12.921
90166W        W54374   9.342  29.587   3.285
90167W        W54375  37.361  41.518  12.551
90168W        W54376  30.583  42.880   5.220
90169W        W54377  35.015  14.124  13.899
90170W        W54378  12.840   6.758  11.501
90171W        W54379   2.415  10.301   9.997
90172W        W54380  26.580   2.435   3.290
90173W        W54381  42.807  35.035  11.074
90174W        W54382  15.580  11.281   5.190
90175W        W54383  42.991  32.959   3.761
90176W        W54384  31.905  30.431   4.312
90177W        W54385  25.637  26.029  12.532
90178W        W54386  15.100  19.049  11.432
90179W        W54387  24.025   0.953   0.898
90180W        W54388  25.158  18.655  11.955
90181W        W54389  41.478  27.525  14.339
90182W        W54390  28.013  38.471   3.636
90183W        W54391   8.870  35.408   1.808
90184W        W54392   7.902  16.716   0.959
90185W        W54393  29.926   0.862  12.010
90186W        W54394  33.101   4.841   3.150
90187W        W54395  18.274  12.267  11.423
90188W        W54396  25.008  28.641  13.859
90189W        W54397  16.237  18.104   4.270
90190W        W54398  33.039  18.071  11.549
90191W        W54399  10.261  14.165   2.759
90192W        W54400  25.592   3.845   2.318
90193W        W54401  39.952  23.185  14.844
90194W        W54402  24.533  27.657   0.855
90195W        W54403  36.982  43.457   3.297
90196W        W54404  19.096   0.353  11.981
90197W        W54405  22.725  10.270  13.013
90198W        W54406   5.871   1.944  13.001
90199W        W54407  31.523   2.813  13.950
90200W        W54408  12.233  16.145   2.353
90201W        W54409  21.080  18.599   9.929
90202W        W54410  13.299   4.917   4.612
90203W        W54411  25.013  19.194   4.740
90204W        W54412  18.083  19.052  11.111
90205W        W54413  11.193   2.901   1.726
90206W        W54414  15.756  40.529   2.316
90207W        W54415   3.902  32.989   2.789
90208W        W54416  28.136  29.556   3.690
90209W        W54417   4.799  25.077   2.771
90210W        W54418  22.238  26.661  14.872
90211W        W54419  14.155   5.219  12.570
90212W        W54420  14.207  34.423   0.375
90213W        W54421  33.498  18.230   4.698
90214W        W54422  39.492   0.321   3.850
90215W        W54423   2.887  31.917  14.001
90216W        W54424  19.747  19.674  11.880
90217W        W54425  37.426   9.741   2.321
90218W        W54426   8.846  30.581  11.032
90219W        W54427  19.727  30.536  10.627
90220W        W54428  11.644  19.692   1.699
90221W        W54429  35.860   6.874   2.238
90222W        W54430  44.771  13.188  13.497
90223W        W54431  19.222  32.466  12.578
90224W        W54432  30.443   3.909   2.820
90225W        W54433   9.177  38.503  10.523
90226W        W54434  36.973  31.920  12.974
90227W        W54435  23.128  26.491   3.372
90228W        W54436  32.403   6.892  11.908
90229W        W54437  16.256  10.694   4.619
90230W        W54438  37.361  24.724   4.729
90231W        W54439   8.337  29.919  12.370
90232W        W54440  21.602  41.850  13.988
90233W        W54441  43.295  36.023  14.944
90234W        W54442  37.967   3.238   0.868
90235W        W54443   1.942  32.540   3.642
90236W        W54444  19.169  17.714  11.014
90237W        W54445  33.479  10.703  13.542
90238W        W54446  14.739  19.665  10.972
90239W        W54447   0.484  35.586   1.725
90240W        W54448   8.829  21.050  14.957
90241W        W54449   4.261  26.601   1.322
90242W        W54450  27.109  32.517   0.288
90243W        W54451  22.999  36.431  13.800
90244W        W54452  42.425  37.362  14.278
90245W        W54453  26.635   9.712   1.288
90246W        W54454  28.533  30.632  10.554
90247W        W54455   8.397  26.461  10.418
90248W        W54456  36.921   9.788   4.628
90249W        W54457  10.198   1.747   1.746
90250W        W54458  19.156  10.248  13.537
90251W        W54459  15.276  14.595   2.365
90252W        W54460   1.334   0.303   2.261
90253W        W54461  33.620  10.716   4.264
90254W        W54462   9.679  43.994  13.542
90255W        W54463  44.006   4.410   4.316
90256W        W54464  34.951   0.953  14.838
90257W        W54465  32.934  31.062  11.920
90258W        W54466  12.797   1.828  13.403
90259W        W54467  44.411  35.485  12.938
90260W        W54468  17.136   5.895   3.192
90261W        W54469  43.392  43.843   0.886
90262W        W54470  30.474   0.364   4.337
90263W        W54471  20.724   5.369   1.348
90264W        W54472  31.115  22.683   1.219
90265W        W54473  19.144  28.549   1.778
90266W        W54474   3.889  11.660   4.300
90267W        W54475  20.051   4.732  13.342
90268W        W54476  39.829  37.834  10.969
90269W        W54477  14.104  10.693  11.602
90270W        W54478  25.144   0.365   4.748
90271W        W54479  44.984  11.327  10.624
90272W        W54480  42.780  14.174  12.058
90273W        W54481  41.985  11.717   0.470
90274W        W54482  31.521  39.843   0.917
90275W        W54483  41.402  24.497   1.307
90276W        W54484   4.224  35.873   2.892
90277W        W54485  44.312  27.597  14.988
90278W        W54486  38.403  23.709   2.331
90279W        W54487  43.319  44.455  10.549
90280W        W54488  41.025  29.493   1.929
90281W        W54489  16.300   6.200   3.209
90282W        W54490   7.295  29.168  11.495
90283W        W54491   4.382   7.715  11.885
90284W        W54492  23.700  22.620  14.338
90285W        W54493   6.204  13.278   4.245
90286W        W54494  15.087  12.661   4.228
90287W        W54495  43.299  16.216   1.831
90288W        W54496  11.699  20.752   0.358
90289W        W54497  36.419  44.376   1.214
90290W        W54498  13.171  19.282  11.090
90291W        W54499  15.093   1.301  10.523
90292W        W54500   2.287  27.168  13.541
90293W        W54501  24.062  33.951  14.963
90294W        W54502  12.747   4.907   0.758
90295W        W54503  12.218  23.544   1.242
90296W        W54504  14.651  41.030   3.222
90297W        W54505  33.977  25.510   2.382
90298W        W54506   6.815  19.117  12.559
90299W        W54507  32.529  10.308   0.766
90300W        W54508  35.374  24.133   1.918
90301W        W54509  31.636  20.251   1.223
90302W        W54510  18.179   7.823   4.232
90303W        W54511  40.428  32.024   4.189
90304W        W54512   9.288  12.223   4.827
90305W        W54513  39.017  28.451  11.571
90306W        W54514   1.971  11.764  10.433
90307W        W54515   8.188  33.999  12.535
90308W        W54516  14.748   1.471  13.443
90309W        W54517  33.441  21.039   3.849
90310W        W54518  40.030  37.365  14.760
90311W        W54519  25.034   2.927   2.401
90312W        W54520  42.823  29.089   3.332
90313W        W54521  31.911  29.432  10.908
90314W        W54522   0.899  10.757   0.418
90315W        W54523  35.392  12.742   1.764
90316W        W54524  41.338  10.151  12.353
90317W        W54525  17.739  13.727  13.469
90318W        W54526  20.631  40.446  12.833
90319W        W54527  14.818  22.103   2.874
90320W        W54528  24.228   5.697   4.149
90321W        W54529  26.012  23.072  11.897
90322W        W54530  22.620  39.022   4.217
90323W        W54531  24.174   1.781  12.944
90324W        W54532  32.931  29.145   4.157
90325W        W54533  41.793  41.455  14.447
90326W        W54534   2.388  15.793  13.804
90327W        W54535  30.141  37.469  13.320
90328W        W54536   8.685  32.632  11.013
90329W        W54537  10.785   9.721  11.084
90330W        W54538  15.132  11.766  11.537
90331W        W54539  11.319  10.268   9.994
90332W        W54540  37.554  30.154  10.991
90333W        W54541   6.873  17.241   2.245
90334W        W54542  18.279  30.654  12.908
90335W        W54543  22.029  37.338  10.566
90336W        W54544  43.337  36.593   0.820
90337W        W54545  23.230   6.688  14.295
90338W        W54546  15.792   2.392  11.999
90339W        W54547  15.096  19.085  14.783
90340W        W54548  16.279   4.755   1.791
90341W        W54549  29.020  21.646   2.220
90342W        W54550   0.768  11.336   2.821
90343W        W54551  43.358  13.307   4.217
90344W        W54552  25.636   8.285  12.853
90345W        W54553  40.815  32.628   1.783
90346W        W54554   5.705  15.794  13.455
90347W        W54555  22.663   9.865   3.249
90348W        W54556  26.101   9.309   4.285
90349W        W54557   4.804  22.700  12.933
90350W        W54558   5.276   8.677  14.814
90351W        W54559  10.697  43.462   0.728
90352W        W54560   9.840   0.825   2.242
90353W        W54561  18.655  28.043  12.443
90354W        W54562  19.779  34.398   3.198
90355W        W54563  22.513  27.008  10.973
90356W        W54564  14.228   9.253  13.320
90357W        W54565  33.103   1.288  14.879
90358W        W54566  10.169  43.505  14.349
90359W        W54567   8.835  20.555   2.351
90360W        W54568  19.575  19.622  12.918
90361W        W54569  17.248  28.449   2.750
90362W        W54570  10.286   3.251  13.949
90363W        W54571  10.707  13.816  13.949
90364W        W54572  41.506  40.533   2.742
90365W        W54573  19.206  20.674  11.857
90366W        W54574  39.487  16.699  10.056
90367W        W54575  38.976   4.807   0.301
90368W        W54576   7.670  44.265   1.406
90369W        W54577   1.766  17.305   1.410
90370W        W54578  25.516  18.294  14.413
90371W        W54579  11.716  44.861   0.302
90372W        W54580  19.247  39.997  10.900
90373W        W54581  10.644  38.498  13.043
90374W        W54582  21.262  19.133   3.243
90375W        W54583  14.590  44.901   4.637
90376W        W54584   1.450  28.983  12.976
90377W        W54585  12.177   2.422  13.809
90378W        W54586  36.095  26.075  13.019
90379W        W54587   1.833  17.567   0.837
90380W        W54588  21.643  30.151   2.403
90381W        W54589  35.053  21.662   1.273
90382W        W54590  41.320  13.216   4.342
90383W        W54591  13.634  42.837   0.887
90384W        W54592   8.293  15.306   5.105
90385W        W54593   0.912  26.691  11.122
90386W        W54594  27.036  32.631  13.886
90387W        W54595  35.453   3.451  13.863
90388W        W54596   4.794  42.381   0.277
90389W        W54597   4.316  31.029  13.977
90390W        W54598  27.948  23.559  10.957
90391W        W54599  39.954  41.407   2.720
90392W        W54600  10.319  22.028  10.088
90393W        W54601  40.436  43.313   1.888
90394W        W54602  11.736  11.273   0.741
90395W        W54603  30.598  24.549   1.380
90396W        W54604  15.086  32.950   3.304
90397W        W54605  44.947  17.580  11.981
90398W        W54606  27.135  11.148   1.850
90399W        W54607  41.430  34.470   2.763
90400W        W54608  17.654  28.056  14.868
90401W        W54609   5.256   6.218   0.823
90402W        W54610  20.570  17.149   2.344
90403W        W54611  44.367  22.197  14.408
90404W        W54612  10.374  35.390  10.415
90405W        W54613  29.556  44.313  14.880
90406W        W54614   8.180  13.204   0.749
90407W        W54615  14.613  15.789   3.326
90408W        W54616   5.812  18.722   4.126
90409W        W54617  12.826  18.767   3.340
90410W        W54618  29.083  23.059  14.820
90411W        W54619  38.845  21.042  10.555
90412W        W54620  20.608  22.677   3.154
90413W        W54621  36.475  19.109   0.784
90414W        W54622  25.550  17.198   2.408
90415W        W54623  38.863  35.415   3.794
90416W        W54624  10.712  21.244   3.343
90417W        W54625  26.598   7.744  14.993
90418W        W54626   1.471  42.359  14.352
90419W        W54627   1.978  19.094  13.428
90420W        W54628  34.498  14.331  12.886
90421W        W54629  39.401  42.292   4.794
90422W        W54630  35.461  14.763   2.785
90423W        W54631   5.251  13.671   0.377
90424W        W54632  24.718   4.354  11.025
90425W        W54633  25.166   8.391   0.359
90426W        W54634   6.331  12.810   0.888
90427W        W54635  10.649  32.054  14.956
90428W        W54636  24.154  16.094  14.003
90429W        W54637  37.430   7.412   3.636
90430W        W54638  21.638  27.546   2.844
90431W        W54639  13.201  43.855  14.481
90432W        W54640   6.280   3.297  11.030
90433W        W54641   7.724  31.033   2.350
90434W        W54642  18.097  41.516  14.376
90435W        W54643  23.519  44.923  14.876
90436W        W54644   4.374  26.521  10.956
90437W        W54645  38.449  21.088  10.940
90438W        W54646   8.846  35.068   4.153
90439W        W54647  16.290   5.852   4.657
90440W        W54648  42.858   9.172   2.213
90441W        W54649  33.012  27.965   4.232
90442W        W54650  42.514  20.038  14.847
90443W        W54651  34.539  33.528   1.826
90444W        W54652   3.834  38.919   3.326
90445W        W54653   0.774  33.417   0.361
90446W        W54654  13.250  27.576   4.322
90447W        W54655  30.507  30.457  13.403
90448W        W54656   8.734  23.546  10.543
90449W        W54657  36.547  31.474   4.133
90450W        W54658  35.507  41.492   1.775
90451W        W54659  31.450  12.820   3.387
90452W        W54660  11.863  16.227   4.686
90453W        W54661   6.192  14.174  13.862
90454W        W54662  33.068  16.681   2.240
90455W        W54663  31.124  25.210  10.602
90456W        W54664   5.436  21.138  10.019
90457W        W54665  20.646   8.697   0.429
90458W        W54666  24.093  44.763   2.710
90459W        W54667  30.447  27.180  10.919
90460W        W54668  39.858  29.553   2.794
90461W        W54669  30.915   7.235   1.376
90462W        W54670  39.025  34.375   4.263
90463W        W54671  27.172  14.239  14.437
90464W        W54672  26.515  39.841  12.446
90465W        W54673   4.271   4.443  14.275
90466W        W54674  42.803   7.206  14.327
90467W        W54675  34.496  24.218   2.416
90468W        W54676  20.567  24.679   4.256
90469W        W54677  16.227   5.932   3.803
90470W        W54678  10.242  24.670   1.372
90471W        W54679  29.498  25.560   1.445
90472W        W54680  21.167   0.454  13.513
90473W        W54681  13.240   8.804  11.065
90474W        W54682   5.842  38.537  14.852
90475W        W54683  14.735  16.077   4.283
90476W        W54684  22.702  42.341  13.955
90477W        W54685  36.409  38.500   4.313
90478W        W54686   7.352  30.525   1.335
90479W        W54687   0.975  22.565   5.227
90480W        W54688  24.623  18.576  14.467
90481W        W54689  35.471  39.407  12.580
90482W        W54690  33.889  10.834   0.349
90483W        W54691  44.926   6.850   0.866
90484W        W54692  39.405   4.881   2.870
90485W        W54693  28.470  17.733  13.515
90486W        W54694  40.487  23.534   4.343
90487W        W54695  16.243  16.686  10.473
90488W        W54696  26.684  43.485   4.770
90489W        W54697  13.129  37.349  14.277
90490W        W54698  33.958  37.947  11.450
90491W        W54699  30.527   6.319  11.908
90492W        W54700  29.119  29.158  11.977
90493W        W54701  17.594   0.906  13.320
90494W        W54702  17.727  26.603  10.971
90495W        W54703  16.117  31.096  11.559
90496W        W54704  24.537  13.785   0.329
90497W        W54705   6.830  37.411  13.418
90498W        W54706  41.028  10.259  10.900
90499W        W54707  29.998   1.825  12.895
90500W        W54708  17.292  38.343   1.776
90501W        W54709  20.578  14.331  10.036
90502W        W54710  31.078  35.968   5.153
90503W        W54711  21.553   2.729  11.379
90504W        W54712   8.683  33.613   3.860
90505W        W54713  29.084  31.639  13.806
90506W        W54714  25.997  10.148  14.961
90507W        W54715  19.706  24.557  11.008
90508W        W54716  20.176  10.196  10.909
90509W        W54717  13.646  41.921  14.938
90510W        W54718  31.500  21.112   0.892
90511W        W54719  17.277  40.967  14.927
90512W        W54720   8.318   0.797   4.803
90513W        W54721  25.690  37.559  11.580
90514W        W54722   1.830  40.814   1.213
90515W        W54723  29.089  39.840   4.152
90516W        W54724  20.725  18.681   3.643
90517W        W54725  20.107  18.271  12.567
90518W        W54726  29.538  19.148   1.298
90519W        W54727  41.922  14.299   2.725
90520W        W54728  40.959  41.989   0.445
90521W        W54729  39.454  16.268   0.471
90522W        W54730  14.705   3.369  14.801
90523W        W54731  32.923  20.145  13.546
90524W        W54732  18.601   8.775  13.380
90525W        W54733  24.107  14.117   3.161
90526W        W54734  42.388  31.906   1.444
90527W        W54735   3.379  25.568   5.142
90528W        W54736  11.231  21.025  11.447
90529W        W54737  15.295  26.122  14.438
90530W        W54738  25.597  32.137   2.791
90531W        W54739   8.670  41.948   1.278
90532W        W54740  43.849  41.925   3.706
90533W        W54741  11.811  16.790   3.341
90534W        W54742  17.675  27.676   1.732
90535W        W54743  40.052   1.900   0.304
90536W        W54744  17.176  27.556  12.907
90537W        W54745  29.993   3.867   4.704
90538W        W54746  28.487  11.263   0.402
90539W        W54747  35.548  30.480   0.850
90540W        W54748  35.094  39.004  12.087
90541W        W54749   1.748  12.360  14.504
90542W        W54750  41.511  15.215   1.845
90543W        W54751  33.120   2.812  13.493
90544W        W54752   8.370  22.601  10.913
90545W        W54753  35.367   6.803  13.312
90546W        W54754   0.987   3.905  10.534
90547W        W54755  33.984   0.425  13.347
90548W        W54756  25.492  40.970   4.205
90549W        W54757  28.638  20.637  13.923
90550W        W54758   8.163  40.382  11.393
90551W        W54759  44.761  34.899  12.888
90552W        W54760  21.708   8.749   2.705
90553W        W54761  27.622   3.769   0.260
90554W        W54762  43.477  40.312  13.047
90555W        W54763  43.970   1.314  10.423
90556W        W54764  14.621  19.779  11.529
90557W        W54765  14.711  33.983  11.523
90558W        W54766   8.239  41.889  14.982
90559W        W54767  29.617  43.489  11.436
90560W        W54768  31.619  19.703   4.803
90561W        W54769  19.609  12.280  13.473
90562W        W54770   2.458  11.819   2.827
90563W        W54771   4.332  36.483  11.950
90564W        W54772  35.519  23.536   0.440
90565W        W54773   0.875   5.719   0.868
90566W        W54774  30.478  43.843  12.026
90567W        W54775  31.565   5.279   3.646
90568W        W54776  18.184  40.388  12.867
90569W        W54777  40.031  39.474   1.279
90570W        W54778  27.668  18.743  11.904
90571W        W54779  12.144  13.770   2.198
90572W        W54780  41.848  40.519   2.342
90573W        W54781  17.592  27.506   4.202
90574W        W54782  13.829  18.676  11.528
90575W        W54783   3.397  16.175   2.704
90576W        W54784  42.524  42.816  13.407
90577W        W54785   8.183   6.216   2.321
90578W        W54786  24.001  32.563   1.430
90579W        W54787   5.200   9.748  11.878
90580W        W54788   6.228  39.856   3.826
90581W        W54789   3.830  26.028  10.484
90582W        W54790  34.386  20.690  12.411
90583W        W54791  31.642   2.891   3.716
90584W        W54792  32.904  44.372  12.495
90585W        W54793  18.675  18.157  11.403
90586W        W54794  26.678   6.221   0.470
90587W        W54795  34.442   0.785   1.786
90588W        W54796  20.249   3.901   0.360
90589W        W54797  26.675   2.871  14.459
90590W        W54798  14.612  30.460  13.386
90591W        W54799  25.496  30.625   0.845
90592W        W54800  29.983  38.446  14.997
90593W        W54801   7.274  25.064  12.876
90594W        W54802  15.741   8.850   2.892
90595W        W54803  13.747  17.144   4.201
90596W        W54804   0.404  12.267   4.234
90597W        W54805  42.824  10.873   1.935
90598W        W54806  42.996  20.578   4.730
90599W        W54807  44.952  40.858   0.951
90600W        W54808   3.331  23.513  13.893
90601W        W54809   4.928  33.974  10.963
90602W        W54810  17.269  16.212   4.219
90603W        W54811  13.297   4.826  12.547
90604W        W54812  18.291  36.419  13.949
90605W        W54813  23.157  22.708  12.465
90606W        W54814  38.942   1.921  14.362
90607W        W54815   5.194   8.367   3.764
90608W        W54816  31.061  40.434   3.348
90609W        W54817  23.075  36.590  10.627
90610W        W54818  43.919  39.999  12.369
90611W        W54819  15.641   7.679   3.294
90612W        W54820  31.417  38.469   0.396
90613W        W54821  41.857  33.890  13.502
90614W        W54822  17.558  33.622  12.047
90615W        W54823  26.683  21.044  10.995
90616W        W54824  14.596  34.426   1.815
90617W        W54825   3.792  15.176  14.935
90618W        W54826  16.151  43.513  11.454
90619W        W54827   9.798   5.707   3.246
90620W        W54828  25.607  22.117   1.419
90621W        W54829  34.556  25.992   4.642
90622W        W54830  10.691  12.270  10.591
90623W        W54831   2.875  39.883  11.438
90624W        W54832  26.026   5.915   1.737
90625W        W54833  14.665  13.346   1.765
90626W        W54834   9.330  16.269   0.786
90627W        W54835  30.089  16.572   2.811
90628W        W54836  27.051   9.837  10.599
90629W        W54837  28.438  27.966  11.026
90630W        W54838  24.992  33.556   2.391
90631W        W54839  20.165  11.851  12.431
90632W        W54840  18.631  32.086   1.894
90633W        W54841  44.920  15.599   0.416
90634W        W54842  33.107   9.883  12.830
90635W        W54843   5.274  18.664  14.852
90636W        W54844  32.140  17.181   4.811
90637W        W54845   6.326  34.610   1.833
90638W        W54846  33.492  12.644  10.606
90639W        W54847   8.366  33.529   2.865
90640W        W54848  30.998   9.764  11.054
90641W        W54849   5.326  36.928   0.297
90642W        W54850  34.570   9.773  11.028
90643W        W54851  34.396  36.563   4.324
90644W        W54852   5.714  35.914  12.540
90645W        W54853  14.787  19.144   2.781
90646W        W54854  28.133  16.800  10.455
90647W        W54855  26.965  34.481   4.645
90648W        W54856  19.538   4.369   0.471
90649W        W54857  31.074   0.377   1.715
90650W        W54858  38.418  44.798  11.538
90651W        W54859  26.971  21.678   1.823
90652W        W54860  36.499  26.013  14.319
90653W        W54861  25.560  25.496   4.603
90654W        W54862  20.155  27.965  10.895
90655W        W54863  19.245  28.119   2.771
90656W        W54864  14.320  13.780  14.883
90657W        W54865  36.003  37.992   0.755
90658W        W54866  33.919  39.317  11.402
90659W        W54867  43.320  15.224   1.922
90660W        W54868  24.568  17.270   3.740
90661W        W54869  38.353  38.351   2.829
90662W        W54870  30.598   6.743  10.965
90663W        W54871  30.003   2.857   4.829
90664W        W54872  30.589  17.797   2.866
90665W        W54873   6.307  40.955  13.805
90666W        W54874  26.037  22.707  14.362
90667W        W54875  43.845  34.094   3.166
90668W        W54876  43.946   6.363  10.982
90669W        W54877  19.574  31.001  14.434
90670W        W54878  32.917  20.149   0.869
90671W        W54879  14.138  19.616   1.738
90672W        W54880  32.526  40.500  11.008
90673W        W54881  13.811  37.573   1.725
90674W        W54882  25.074   1.892  13.052
90675W        W54883  18.566  13.719   3.225
90676W        W54884  13.329  37.040  10.421
90677W        W54885  39.851  22.128  14.016
90678W        W54886  17.222   3.434  14.963
90679W        W54887   6.736  39.431   3.661
90680W        W54888  44.809  43.465   0.333
90681W        W54889  15.312  18.111  13.538
90682W        W54890  26.979  41.997   0.820
90683W        W54891  32.994  37.358  10.892
90684W        W54892  19.635  37.501  11.538
90685W        W54893   3.893  26.957   4.173
90686W        W54894  38.848  28.095   1.856
90687W        W54895  18.083  18.668  10.952
90688W        W54896   9.695  14.302   3.350
90689W        W54897  37.526  39.052  13.973
90690W        W54898  14.280   2.761  14.779
90691W        W54899  39.441  36.919   4.633
90692W        W54900  20.082  22.541  12.023
90693W        W54901  32.979  34.508   2.351
90694W        W54902  28.084  27.008   0.410
90695W        W54903  32.077  32.924   4.341
90696W        W54904   9.373  32.433  11.946
90697W        W54905  42.464   1.380   3.156
90698W        W54906  20.047  12.261  11.126
90699W        W54907  38.018  32.093   0.819
90700W        W54908   6.834   2.852   4.761
90701W        W54909  10.788  33.988   0.364
90702W        W54910   0.755  13.744   1.790
90703W        W54911  22.648  30.080  11.541
90704W        W54912   8.326  38.984   2.901
90705W        W54913  24.223  17.116  13.391
90706W        W54914  29.074   2.434   2.901
90707W        W54915  19.065  15.631   0.439
90708W        W54916  25.986  33.432   4.791
90709W        W54917   2.418   3.406   2.410
90710W        W54918   0.348  39.052  12.954
90711W        W54919  37.464  16.138   3.373
90712W        W54920   3.230  26.495   3.294
90713W        W54921   2.392  31.985   0.830
90714W        W54922  17.102  37.336  13.886
90715W        W54923   4.938  28.503   1.877
90716W        W54924  43.851   1.836   5.660
90717W        W54925  16.615  24.578  12.981
90718W        W54926  21.220  30.515  10.575
90719W        W54927  17.289  38.928   0.440
90720W        W54928  19.619  12.245  14.766
90721W        W54929  29.023  21.535  14.371
90722W        W54930   2.452  36.392  13.052
90723W        W54931   3.940  13.663  14.777
90724W        W54932   8.740  21.178  10.508
90725W        W54933  17.095  35.959  11.020
90726W        W54934  33.905   3.449  12.569
90727W        W54935  27.013  24.596  13.393
90728W        W54936   7.386  31.028   5.115
90729W        W54937  22.132   3.297   4.160
90730W        W54938  43.347  36.917   4.736
90731W        W54939  41.846  38.900   0.395
90732W        W54940  10.879  10.736   1.858
90733W        W54941  14.634   2.322   4.172
90734W        W54942  43.915  19.190   1.807
90735W        W54943  25.169  25.150   3.183
90736W        W54944  24.557  10.192  14.290
90737W        W54945  34.931  23.190  10.614
90738W        W54946  26.660   6.335   1.888
90739W        W54947  36.944  39.552   0.336
90740W        W54948  34.441  28.031  12.558
90741W        W54949  28.120   1.838  11.071
90742W        W54950  16.105  40.305   3.798
90743W        W54951   1.968  35.998  13.801
90744W        W54952  30.413   9.214  10.560
90745W        W54953  39.839  33.940   4.325
90746W        W54954  14.194  11.680  11.552
90747W        W54955   8.656  43.856   0.368
90748W        W54956   6.781   3.252   2.410
90749W        W54957  16.075  17.253  12.851
90750W        W54958  33.382   1.432   3.758
90751W        W54959  24.552   1.331  12.050
90752W        W54960  41.402  16.629  13.450
90753W        W54961  14.306  39.387  14.334
90754W        W54962  13.773  40.416   0.389
90755W        W54963  27.595  19.260  12.879
90756W        W54964  36.910  24.605  14.012
90757W        W54965  15.738  32.978   4.297
90758W        W54966  38.384   5.272  10.424
90759W        W54967  30.615  42.371   3.778
90760W        W54968  15.274  36.445  11.917
90761W        W54969   5.842  30.136   0.854
90762W        W54970  25.146  30.915   1.435
90763W        W54971   8.889  10.234   4.223
90764W        W54972  41.385   0.450   0.936
90765W        W54973   6.383  41.499   0.901
90766W        W54974  22.667  35.545   1.817
90767W        W54975  10.869  24.079  11.426
90768W        W54976  24.552  34.504  12.921
90769W        W54977  34.518   4.836   3.331
90770W        W54978  12.291  10.245  13.401
90771W        W54979  39.053  42.825  11.069
90772W        W54980  18.746   9.346  12.889
90773W        W54981  30.539   3.439   0.792
90774W        W54982   2.895  15.202   1.849
90775W        W54983   6.869   0.474  12.894
90776W        W54984  38.892  13.179   2.734
90777W        W54985   6.238  37.916   9.983
90778W        W54986  29.556  40.007  13.317
90779W        W54987  36.577  10.740  11.065
90780W        W54988   9.741  23.599   4.818
90781W        W54989  34.549  32.606  14.476
90782W        W54990  16.590  20.563  14.353
90783W        W54991  12.296  24.658  13.460
90784W        W54992   8.702  33.418  12.991
90785W        W54993  14.165  21.566  13.476
90786W        W54994   0.893  31.967   4.185
90787W        W54995  23.553  20.568   3.236
90788W        W54996  32.114  14.331  14.933
90789W        W54997  35.897  43.767   4.826
90790W        W54998  38.950  32.568  12.863
90791W        W54999  35.014  20.652  13.844
90792W        W55000  15.210  17.298  12.884
90793W        W55001  44.867  28.648   0.935
90794W        W55002  21.030   6.859   2.818
90795W        W55003   4.739  40.493   1.400
90796W        W55004  15.091   7.317   0.343
90797W        W55005   2.375  42.980  11.912
90798W        W55006  32.968  26.638  14.801
90799W        W55007  10.734  18.678   4.825
90800W        W55008  22.521  17.654  11.548
90801W        W55009   6.827  36.891   0.366
90802W        W55010  43.287   7.873   3.209
90803W        W55011  30.941  36.364  10.578
90804W        W55012   5.875  29.595   4.696
90805W        W55013  29.658  17.720   3.798
90806W        W55014  10.188  25.664  10.449
90807W        W55015  22.150  22.592  14.315
90808W        W55016  15.185  16.250   3.830
90809W        W55017  40.415  30.568   0.420
90810W        W55018  43.015   4.748   4.807
90811W        W55019  10.201   7.225   4.732
90812W        W55020  38.469  43.816   1.838
90813W        W55021   8.844  33.626   2.351
90814W        W55022  43.499  37.068   1.730
90815W        W55023  41.964   5.913   3.770
90816W        W55024  17.600  34.525   4.233
90817W        W55025  26.658  38.331  11.547
90818W        W55026   4.830  41.352   1.781
90819W        W55027   4.758  33.477  14.023
90820W        W55028   9.851  34.103  14.896
90821W        W55029  15.125  23.692   3.245
90822W        W55030  13.250  15.786   3.207
90823W        W55031  18.748  12.265   4.179
90824W        W55032   2.781   9.749  11.006
90825W        W55033  42.301   0.360  12.947
90826W        W55034  25.963  12.843  14.867
90827W        W55035   1.861   0.743   1.320
90828W        W55036  12.693  16.275   1.849
90829W        W55037  24.095  40.006   3.248
90830W        W55038  19.248  13.810   4.670
90831W        W55039   0.877   1.343  13.315
90832W        W55040  13.640  21.071  14.892
90833W        W55041  16.288  16.093  12.039
90834W        W55042  10.818  15.634  12.530
90835W        W55043   3.868  17.691   0.746
90836W        W55044  21.255  15.633  13.501
90837W        W55045   3.374  28.490   1.886
90838W        W55046  40.925   1.426  10.953
90839W        W55047   9.716  20.671   4.692
90840W        W55048   1.934   7.327   4.782
90841W        W55049   7.699  37.449  10.520
90842W        W55050   4.831  15.591  12.534
90843W        W55051   4.768  40.381   3.175
90844W        W55052   2.448  19.592  12.032
90845W        W55053  23.231  23.064  13.546
90846W        W55054  26.543  22.575   1.696
90847W        W55055  24.541  20.726   0.250
90848W        W55056   5.276  35.410   1.865
90849W        W55057  23.682  26.052  12.483
90850W        W55058  13.793  17.798   2.692
90851W        W55059   9.219  30.542  13.953
90852W        W55060  44.964  27.507  10.016
90853W        W55061  28.504  34.936  13.424
90854W        W55062  34.046  23.151   0.825
90855W        W55063  41.965  44.794  14.313
90856W        W55064  38.942  30.109   2.397
90857W        W55065  35.089  11.765   5.086
90858W        W55066  11.647  44.839   4.661
90859W        W55067  26.207  36.560   4.343
90860W        W55068  32.442  17.751   4.614
90861W        W55069  25.163  42.918  13.919
90862W        W55070  18.120   4.377  13.380
90863W        W55071   8.318  10.739  13.041
90864W        W55072  19.171   0.879  14.790
90865W        W55073  14.254  32.106   5.209
90866W        W55074  43.504  37.895  10.644
90867W        W55075  29.475  29.959  12.348
90868W        W55076  36.094  31.448   3.254
90869W        W55077  41.822  25.549  10.892
90870W        W55078  25.620   5.741  13.473
90871W        W55079  14.121  37.455  14.336
90872W        W55080   6.422  43.386  13.842
90873W        W55081   0.964  24.540  12.441
90874W        W55082  17.250  10.836  14.464
90875W        W55083   6.386  13.708   1.280
90876W        W55084  10.867  21.250   2.815
90877W        W55085  10.672  26.667  13.948
90878W        W55086  28.929  41.826   4.628
90879W        W55087   9.720  32.470   4.759
90880W        W55088  28.058   1.483  13.501
90881W        W55089  13.249  44.500   3.843
90882W        W55090  15.679  20.602   3.844
90883W        W55091  14.755  40.420   2.683
90884W        W55092  17.661   4.735  12.095
90885W        W55093  42.457  35.471  13.389
90886W        W55094  41.044  24.000   3.376
90887W        W55095  26.016  19.629   1.224
90888W        W55096  14.744  23.708  12.835
90889W        W55097  37.349  23.112   0.332
90890W        W55098  10.149  28.026   4.195
90891W        W55099  12.640  33.987   2.208
90892W        W55100  31.574  16.711   3.173
90893W        W55101  15.605  33.425  12.092
90894W        W55102  44.289  12.749  13.948
90895W        W55103  15.272  38.921   2.850
90896W        W55104  28.109  37.538   0.383
90897W        W55105   9.760  37.896  13.993
90898W        W55106   1.838  27.114  12.428
90899W        W55107  31.623   9.683   4.636
90900W        W55108  27.581  16.101   4.341
90901W        W55109   7.264  40.905  14.434
90902W        W55110   0.313  20.568  11.382
90903W        W55111  14.683   3.388   2.709
90904W        W55112  14.281  40.357  14.772
90905W        W55113  42.522  13.828  12.480
90906W        W55114  21.136  10.383  13.977
90907W        W55115  39.018  11.154  14.813
90908W        W55116  41.025  20.538   4.717
90909W        W55117  27.155  25.567  10.544
90910W        W55118   9.728  23.609  11.419
90911W        W55119  22.574  34.984   4.217
90912W        W55120  16.577  21.252   5.235
90913W        W55121   4.760  13.193  10.969
90914W        W55122   7.409  12.300   1.915
90915W        W55123  12.639  17.617   4.783
90916W        W55124  13.278   8.660   5.245
90917W        W55125  22.058  27.004   2.309
90918W        W55126  16.214  43.872   4.825
90919W        W55127  33.103  34.544  14.894
90920W        W55128  21.684  19.578   2.419
90921W        W55129  37.996   3.358   3.330
90922W        W55130   2.327   3.219   4.794
90923W        W55131  23.987   1.314  13.052
90924W        W55132  10.206   2.765  11.523
90925W        W55133  31.945  28.012  14.332
90926W        W55134  34.962  22.150  10.490
90927W        W55135  38.995   4.275  12.498
90928W        W55136  26.675   9.266   2.825
90929W        W55137  43.016  19.161   5.280
90930W        W55138  44.403  38.404   1.830
90931W        W55139  19.737  26.629  10.529
90932W        W55140  14.593  35.860  13.330
90933W        W55141  35.401   3.252   1.805
90934W        W55142  27.105  44.811   2.705
90935W        W55143  44.443  44.285   3.664
90936W        W55144   7.250  12.653   3.332
90937W        W55145  18.205   6.830   9.445
90938W        W55146  36.547   2.435   3.712
90939W        W55147  38.385  33.074  13.376
90940W        W55148   1.348  38.536  14.506
90941W        W55149  19.098  37.378   4.118
90942W        W55150  15.597  36.366   1.814
90943W        W55151  16.102   1.956  13.466
90944W        W55152   0.425  35.872  14.764
90945W        W55153   8.839  19.608  13.357
90946W        W55154  41.492   9.297  12.527
90947W        W55155  13.330  36.018   2.397
90948W        W55156  21.663  31.491   2.684
90949W        W55157  35.899  44.865   4.261
90950W        W55158  21.726  12.350   2.738
90951W        W55159  30.566  36.081   3.226
90952W        W55160   4.307  41.363  11.061
90953W        W55161  44.350   9.325   3.737
90954W        W55162  12.618  17.184   4.776
90955W        W55163  18.216  40.905  10.407
90956W        W55164   7.301  20.106  11.048
90957W        W55165  16.151  21.115   3.755
90958W        W55166  19.190  23.508   1.427
90959W        W55167  14.118  21.256  12.938
90960W        W55168  25.574  25.183  12.932
90961W        W55169  31.599  13.147  12.880
90962W        W55170  37.888  13.728   0.335
90963W        W55171  40.385  17.103  11.404
90964W        W55172  35.015  38.463   3.236
90965W        W55173   7.191  43.879  12.562
90966W        W55174   4.840   4.830   3.687
90967W        W55175   7.323  40.313   1.869
90968W        W55176  44.321   7.221  14.907
90969W        W55177  22.676  40.453   3.809
90970W        W55178  32.989   1.943  14.987
90971W        W55179  19.761  36.086   2.898
90972W        W55180  22.532  18.276  12.974
90973W        W55181  35.540  16.684   0.927
90974W        W55182  17.130  41.360   3.263
90975W        W55183   0.968  12.656  11.939
90976W        W55184  29.923  36.908   1.695
90977W        W55185  23.999  34.509  14.509
90978W        W55186  16.298  26.129   0.358
90979W        W55187  20.043   2.867  12.453
90980W        W55188  16.290   4.282   1.247
90981W        W55189   3.865  35.006  13.496
90982W        W55190   2.810  22.525   0.355
90983W        W55191  31.555   4.256  11.035
90984W        W55192   4.325   1.439   0.481
90985W        W55193  28.021  32.546  10.591
90986W        W55194   7.257  43.432  11.393
90987W        W55195   1.459  43.279  12.879
90988W        W55196   7.712  32.616   4.119
90989W        W55197  32.427  35.556   0.966
90990W        W55198  41.399  40.377   5.170
90991W        W55199  18.627  10.229   5.245
90992W        W55200  29.554  36.887   3.264
90993W        W55201  43.912   1.398   2.416
90994W        W55202  26.185  28.059  13.511
90995W        W55203  39.957   8.172   2.313
90996W        W55204  19.254  17.143  14.295
90997W        W55205  32.909  28.674  12.577
90998W        W55206  11.859  39.467   3.869
90999W        W55207  29.666  28.155  10.438
91000W        W55208  31.122  42.440  11.035
91001W        W55209  41.425   4.226   3.206
91002W        W55210  14.114  23.122   1.394
91003W        W55211  31.585  25.535  10.494
91004W        W55212  38.475  27.466   0.418
91005W        W55213  26.115  15.805  12.994
91006W        W55214   2.433  29.028   4.290
91007W        W55215   7.374  34.890   0.761
91008W        W55216   1.930   9.780  12.046
91009W        W55217  34.993  37.988   4.298
91010W        W55218  14.244  14.176   4.268
91011W        W55219  10.353  16.286   2.732
91012W        W55220  13.692  44.789  12.410
91013W        W55221   5.851   7.877  12.910
91014W        W55222  34.905  29.484   3.198
91015W        W55223  19.253  22.735   4.718
91016W        W55224  14.806  25.625  11.382
91017W        W55225   4.271  28.667   3.348
91018W        W55226  44.457  42.871  11.411
91019W        W55227  42.384  17.771  11.911
91020W        W55228  13.323  19.575  11.051
91021W        W55229  25.041  13.617  10.603
91022W        W55230  17.147  35.569  13.058
91023W        W55231  36.019   3.794   1.337
91024W        W55232  27.180  30.046  10.576
91025W        W55233   1.782  21.554   3.735
91026W        W55234  26.034  15.260  12.419
91027W        W55235  38.455  34.598  11.127
91028W        W55236   7.388  21.538  10.428
91029W        W55237  16.123  19.048   1.277
91030W        W55238  32.599   5.864   2.360
91031W        W55239  16.293  15.224   1.361
91032W        W55240  37.357  22.535  12.982
91033W        W55241  22.684  39.931   1.706
91034W        W55242  13.165   6.206   0.407
91035W        W55243   9.773  35.075  11.877
91036W        W55244  21.040  13.634  13.831
91037W        W55245  21.194  38.359  11.563
91038W        W55246  23.703  22.101  13.030
91039W        W55247   2.421   8.220  12.056
91040W        W55248  17.220  18.081   3.227
91041W        W55249  35.028   0.945  11.407
91042W        W55250   4.371   3.313   3.213
91043W        W55251  16.572  31.037   2.214
91044W        W55252  42.029   8.886   9.961
91045W        W55253  17.276  40.485  14.515
91046W        W55254  20.668   3.423  12.863
91047W        W55255   9.698  23.006   0.961
91048W        W55256  41.391  30.650   2.751
91049W        W55257  40.385  17.635   5.182
91050W        W55258  15.316  26.127  13.952
91051W        W55259  14.168  41.834   1.763
91052W        W55260  24.076  20.532  14.374
91053W        W55261   4.241  12.670  12.884
91054W        W55262  11.214  28.164  14.942
91055W        W55263   7.708  15.268  14.357
91056W        W55264  19.534  20.716   2.742
91057W        W55265   7.265  13.248   1.356
91058W        W55266  17.654  16.670  12.949
91059W        W55267  30.054  23.571   3.717
91060W        W55268  19.771  34.432  14.503
91061W        W55269  30.521  26.141   0.880
91062W        W55270  44.875   6.413  12.853
91063W        W55271  23.162  43.348  14.492
91064W        W55272  13.206  28.678  13.481
91065W        W55273  10.817   7.713   4.755
91066W        W55274  31.907   7.379  12.004
91067W        W55275   9.780  26.698   5.136
91068W        W55276  24.067  24.214   4.710
91069W        W55277   9.686  37.946   3.838
91070W        W55278  17.157   6.260  10.923
91071W        W55279  11.779  20.738   2.388
91072W        W55280   2.803  22.125   0.386
91073W        W55281  15.816  27.031  14.925
91074W        W55282  18.072  17.273  13.979
91075W        W55283   0.876  17.290   1.816
91076W        W55284  39.853  12.741   1.275
91077W        W55285  23.984  33.989  10.515
91078W        W55286  43.001  17.164  10.003
91079W        W55287  32.086  29.606   3.262
91080W        W55288  32.470  30.601  12.475
91081W        W55289  24.499  40.428  11.008
91082W        W55290  26.675  44.271   2.392
91083W        W55291  43.390  41.883   2.820
91084W        W55292  19.077   7.312  11.877
91085W        W55293  39.477  20.716   3.329
91086W        W55294  12.233  22.662   4.602
91087W        W55295  38.885  25.658  12.504
91088W        W55296  40.425  17.159  10.045
91089W        W55297  13.151  34.863  14.505
91090W        W55298   8.795   3.813   3.761
91091W        W55299  41.386  22.652  14.782
91092W        W55300  39.386  32.040   0.744
91093W        W55301   4.297  22.580  14.856
91094W        W55302   1.788   2.961  13.419
91095W        W55303  10.675  34.511  12.913
91096W        W55304   3.826  36.989  13.961
91097W        W55305  17.101  39.375  13.428
91098W        W55306  15.682  34.533  11.048
91099W        W55307  40.001  19.142  12.016
91100W        W55308  35.572  18.259  13.885
91101W        W55309   3.746  28.105  12.835
91102W        W55310  13.141  36.859   0.394
91103W        W55311  25.109  29.446   0.898
91104W        W55312  17.582  35.038  13.020
91105W        W55313   6.770   8.191   1.331
91106W        W55314  14.205  20.244   0.790
91107W        W55315  27.125  39.440  11.440
91108W        W55316   3.298  14.740   0.897
91109W        W55317  42.947  27.569  12.981
91110W        W55318   1.901  32.924   0.899
91111W        W55319  39.893   0.479  13.864
91112W        W55320   2.227  36.877  12.466
91113W        W55321  36.427  39.976  11.104
91114W        W55322  26.629  25.180  14.855
91115W        W55323  29.571  23.506   4.716
91116W        W55324  13.129   7.335  11.525
91117W        W55325  12.292  40.471  12.827
91118W        W55326   5.305  44.843   3.695
91119W        W55327   6.327  36.906   1.299
91120W        W55328  43.768  19.584  14.862
91121W        W55329  24.126  25.994  10.440
91122W        W55330   9.357  34.376   2.392
91123W        W55331  30.121   1.802  14.501
91124W        W55332   7.795  38.516   0.740
91125W        W55333   1.845  24.696   0.379
91126W        W55334  17.252  12.262   2.832
91127W        W55335  23.694   0.763   1.275
91128W        W55336  36.880  24.656   2.250
91129W        W55337  34.871  34.968  14.432
91130W        W55338  32.521   3.904   0.919
91131W        W55339  41.371  18.664  11.012
91132W        W55340  20.647   4.218  12.398
91133W        W55341   3.864   3.901  14.882
91134W        W55342  20.680  30.074   1.345
91135W        W55343  44.392  15.733   1.242
91136W        W55344  42.815  24.218   0.451
91137W        W55345   0.466  29.426   4.245
91138W        W55346  25.560  18.767   3.755
91139W        W55347  15.582  37.410  11.856
91140W        W55348  27.947  12.791  10.539
91141W        W55349   5.902   4.432  11.043
91142W        W55350   2.427  25.504  14.881
91143W        W55351  35.421  23.222  12.092
91144W        W55352   0.747  42.916   0.770
91145W        W55353  37.085  23.090   1.362
91146W        W55354  32.078  39.439  14.908
91147W        W55355  23.242   7.273   1.384
91148W        W55356  21.692  25.570  10.440
91149W        W55357   7.784  27.688  13.978
91150W        W55358  22.095  33.979   4.294
91151W        W55359  20.193  16.260  11.397
91152W        W55360  24.149   1.476   4.605
91153W        W55361   5.218  22.561   4.193
91154W        W55362  16.313   8.666   3.375
91155W        W55363  35.931  35.604   3.737
91156W        W55364  34.117  25.994  12.925
91157W        W55365  26.180  17.738  12.949
91158W        W55366   1.775  16.810  14.902
91159W        W55367  10.351   8.717   2.195
91160W        W55368  44.974  36.532  11.095
91161W        W55369   2.815   1.758   9.574
91162W        W55370  32.025  16.712  14.909
91163W        W55371   9.873  33.996   1.758
91164W        W55372  41.949  15.755  11.501
91165W        W55373  19.228  17.626  12.941
91166W        W55374  38.431   5.272   4.185
91167W        W55375  40.029   2.956   3.730
91168W        W55376   9.862  28.994  10.628
91169W        W55377  40.960  25.487  11.435
91170W        W55378  41.412  35.599  11.511
91171W        W55379  36.070   0.891   1.750
91172W        W55380  35.989  23.716   0.808
91173W        W55381  44.803  14.255   3.765
91174W        W55382  37.544   4.936   3.645
91175W        W55383  17.785  43.452   4.703
91176W        W55384  29.456  32.611  12.935
91177W        W55385   4.757  19.721  12.871
91178W        W55386  34.591  20.607  11.587
91179W        W55387  24.190  29.023   0.333
91180W        W55388  18.653   7.389   2.283
91181W        W55389  23.094   0.871   1.235
91182W        W55390  30.498  42.924   2.836
91183W        W55391  14.659  37.985   3.822
91184W        W55392  14.796  23.133  10.617
91185W        W55393  27.132  14.803   4.776
91186W        W55394  43.459  40.003  14.294
91187W        W55395   7.773   9.862  12.944
91188W        W55396  34.929  30.420   2.340
91189W        W55397  38.479   1.824  11.084
91190W        W55398  30.164  24.139   1.392
91191W        W55399   1.404   1.367  13.818
91192W        W55400  43.775  21.109   3.660
91193W        W55401  23.156  33.098  11.091
91194W        W55402  42.305  11.817   0.837
91195W        W55403  32.091  30.057  11.411
91196W        W55404  34.082   6.678  13.853
91197W        W55405   7.780  44.942   4.235
91198W        W55406  36.071  19.606  11.503
91199W        W55407   4.735  22.522  13.543
91200W        W55408  32.569  43.828  13.878
91201W        W55409   0.386   8.303   4.680
91202W        W55410  27.487  19.164  10.571
91203W        W55411  17.664  35.999  11.481
91204W        W55412  14.254  31.418   4.651
91205W        W55413  42.437  26.204  10.455
91206W        W55414  12.844  40.431   4.154
91207W        W55415  20.620  15.231   3.281
91208W        W55416  24.111   3.308  11.021
91209W        W55417  24.221  40.981   2.231
91210W        W55418  20.147  30.531  10.106
91211W        W55419   0.313  25.511  11.007
91212W        W55420  34.599  22.032  11.087
91213W        W55421  33.902   6.695   2.825
91214W        W55422  31.974  20.679  14.893
91215W        W55423   4.785   5.934   1.417
91216W        W55424  36.573  33.518  14.957
91217W        W55425  40.020  27.468  14.437
91218W        W55426  20.153  22.691   0.467
91219W        W55427  13.765   4.333   1.695
91220W        W55428  38.911  26.068   2.868
91221W        W55429   7.293  33.429   1.443
91222W        W55430   5.756  38.515  13.457
91223W        W55431  32.468   6.871   0.287
91224W        W55432  34.939  12.768  10.612
91225W        W55433  23.660   1.763  12.503
91226W        W55434  17.212  24.128   3.361
91227W        W55435  21.126  25.012  12.534
91228W        W55436   8.296  26.146  11.082
91229W        W55437  14.834  41.478  14.831
91230W        W55438  20.591  24.178   3.794
91231W        W55439  16.239  36.525  13.938
91232W        W55440   7.674   8.725   2.300
91233W        W55441   6.873  41.415   1.803
91234W        W55442  16.236  35.945   4.293
91235W        W55443   6.302  28.635   1.350
91236W        W55444  29.049  29.511   0.347
91237W        W55445  19.245  14.639  10.593
91238W        W55446   4.790   0.818  12.048
91239W        W55447   4.912  23.050  12.007
91240W        W55448  24.479  10.321  12.445
91241W        W55449  12.320  22.711   1.831
91242W        W55450  29.127   8.707  13.793
91243W        W55451   0.295  13.258   2.689
91244W        W55452  12.771  16.281  10.918
91245W        W55453   4.396  37.524   2.873
91246W        W55454  44.895  16.619   3.349
91247W        W55455  30.965   0.412   4.217
91248W        W55456  44.882  38.915  12.493
91249W        W55457  31.969  43.963   1.756
91250W        W55458  21.033  31.907   1.234
91251W        W55459  18.200   6.913  12.848
91252W        W55460  19.643  34.988  14.391
91253W        W55461   4.335  24.640  13.874
91254W        W55462  22.091  40.374   2.232
91255W        W55463  40.892  34.455  14.336
91256W        W55464  33.621   5.349  12.490
91257W        W55465  42.325  13.641  11.942
91258W        W55466  44.497  30.572  12.986
91259W        W55467  25.653  42.300  11.381
91260W        W55468  23.093  10.222   4.171
91261W        W55469  30.459  21.139   0.314
91262W        W55470  43.868  35.406  11.859
91263W        W55471  14.094  24.550  13.981
91264W        W55472   8.321  31.983   2.788
91265W        W55473  35.389  27.096   2.183
91266W        W55474  28.138  17.135   3.788
91267W        W55475  24.993  23.687   2.795
91268W        W55476  23.003  17.241   4.684
91269W        W55477   0.494  43.402   1.702
91270W        W55478  39.492  13.684  13.063
91271W        W55479   8.897  39.348  10.627
91272W        W55480  33.538  21.627   5.127
91273W        W55481  39.486  16.601  11.030
91274W        W55482  38.464   8.391  11.460
91275W        W55483  25.467  43.943   0.327
91276W        W55484   3.854  30.029  13.797
91277W        W55485   8.738  25.534   1.283
91278W        W55486  37.569   7.775  12.536
91279W        W55487  15.662  38.448  13.962
91280W        W55488  22.732  12.220  13.321
91281W        W55489  27.152  42.408   3.315
91282W        W55490  43.376  25.214   1.216
91283W        W55491   2.794  32.559  12.001
91284W        W55492   6.307   4.804  12.922
91285W        W55493  43.380   7.339  12.526
91286W        W55494  34.101  13.641  13.861
91287W        W55495  42.023  42.398  14.977
91288W        W55496  31.086  37.395  13.834
91289W        W55497  19.207  24.584  12.500
91290W        W55498   7.242  27.492  14.970
91291W        W55499  19.237  18.268  10.413
91292W        W55500  31.122   3.775   3.660
91293W        W55501  20.697  36.984   0.746
91294W        W55502   3.867   2.288  10.040
91295W        W55503  14.668  33.410   2.355
91296W        W55504  27.515  39.367   4.765
91297W        W55505  39.386  42.509   3.156
91298W        W55506  32.141   4.262  12.459
91299W        W55507   4.797  10.672   3.744
91300W        W55508  19.595  14.638  10.423
91301W        W55509  32.893  10.195   3.727
91302W        W55510  44.808  18.252   3.675
91303W        W55511  12.360  36.025   1.320
91304W        W55512  35.000  14.687  10.532
91305W        W55513  24.534  16.801  11.999
91306W        W55514  19.692   1.284  12.977
91307W        W55515   8.831   0.275  12.521
91308W        W55516   2.259  14.243  10.606
91309W        W55517  10.769  40.053   5.146
91310W        W55518  42.789  19.780   4.211
91311W        W55519  39.440  30.421   4.278
91312W        W55520  40.840  10.172   1.930
91313W        W55521  30.988  37.400  11.099
91314W        W55522  27.517  44.930  13.315
91315W        W55523  42.799  43.778   4.608
91316W        W55524  18.690  35.564   2.753
91317W        W55525  44.917  18.601   1.221
91318W        W55526  23.617  18.135   1.367
91319W        W55527  29.140  26.650  14.814
91320W        W55528   9.677  26.586  12.353
91321W        W55529  15.629  22.131  13.409
91322W        W55530  28.493  41.874  11.928
91323W        W55531   7.884  37.924   4.148
91324W        W55532   3.787   0.420  13.934
91325W        W55533   2.250   5.833  14.472
91326W        W55534  31.035   7.290   0.296
91327W        W55535  39.556  25.030  14.371
91328W        W55536   9.186  12.233  14.988
91329W        W55537  26.690  41.466  14.475
91330W        W55538  17.307  40.818   3.669
91331W        W55539  35.521  29.442   1.779
91332W        W55540  30.550  20.065  11.529
91333W        W55541  22.236  28.450  14.852
91334W        W55542  30.634  38.832   4.200
91335W        W55543  40.518  19.657   0.384
91336W        W55544  33.036  35.063  13.444
91337W        W55545  15.213  40.325   1.259
91338W        W55546   5.379  43.304   4.270
91339W        W55547   9.158  11.691  13.321
91340W        W55548   1.368   9.678   2.270
91341W        W55549   1.369   4.256   3.294
91342W        W55550   4.937   6.236  11.380
91343W        W55551  43.861  23.198  10.480
91344W        W55552  37.947  20.270   0.471
91345W        W55553  28.983  14.170   2.217
91346W        W55554  24.580  23.029   1.807
91347W        W55555  38.452  40.801  12.536
91348W        W55556  37.934   2.841   3.734
91349W        W55557  44.310  14.646  12.402
91350W        W55558  44.829  44.811  14.886
91351W        W55559  25.669  16.134   4.677
91352W        W55560   9.803  39.495  13.411
91353W        W55561  10.285  17.643  12.022
91354W        W55562  35.876  41.885  12.907
91355W        W55563  37.858  30.553   0.302
91356W        W55564  25.070  25.502  11.526
91357W        W55565  24.093  40.824  11.068
91358W        W55566  11.195  29.641   4.815
91359W        W55567  28.537  15.236  14.477
91360W        W55568  31.138   2.411  10.418
91361W        W55569   0.773  43.476  13.051
91362W        W55570  12.154   1.271   1.265
91363W        W55571  23.180  20.270   1.812
91364W        W55572  17.201  22.006   3.870
91365W        W55573  20.030  11.310  12.867
91366W        W55574  11.849  24.202   1.704
91367W        W55575  18.291  42.944  13.452
91368W        W55576   6.288   8.249   4.151
91369W        W55577  24.147  14.219  11.411
91370W        W55578  38.995   4.357   2.199
91371W        W55579  44.467   6.812   1.752
91372W        W55580  41.427   9.837   1.250
91373W        W55581   0.491  18.682  14.301
91374W        W55582  19.737  33.091  11.503
91375W        W55583  20.690  36.920   2.846
91376W        W55584  39.987  11.667   3.745
91377W        W55585  44.908  30.413  12.442
91378W        W55586  25.568  43.368   2.266
91379W        W55587  41.893  13.204   1.921
91380W        W55588  25.218  24.104   1.370
91381W        W55589  20.552   3.235  10.044
91382W        W55590  28.541   0.366   0.355
91383W        W55591   2.915   8.706   2.200
91384W        W55592  36.903  27.491   0.295
91385W        W55593  25.539  19.223  12.845
91386W        W55594   4.739  29.069   2.702
91387W        W55595  18.667  11.251   3.193
91388W        W55596  42.304   7.867   1.934
91389W        W55597  14.699   7.242  13.846
91390W        W55598  39.495  38.411   1.848
91391W        W55599  25.977  11.634  14.971
91392W        W55600   1.418   0.365  12.392
91393W        W55601  44.327  13.634   1.441
91394W        W55602  39.836  24.604  11.429
91395W        W55603  23.633  44.786  12.839
91396W        W55604  18.700  39.052   3.146
91397W        W55605  25.562   5.692   2.419
91398W        W55606  18.191  34.951  14.026
91399W        W55607  29.948   2.814  14.994
91400W        W55608  19.617  36.937  11.087
91401W        W55609  32.087   1.453  14.004
91402W        W55610  13.315  36.390   1.874
91403W        W55611  23.616  17.228   4.222
91404W        W55612  36.872   1.404  10.567
91405W        W55613  24.506   1.821  13.041
91406W        W55614  23.519  12.362   3.259
91407W        W55615  30.047   9.690   0.901
91408W        W55616   7.344  19.658   4.624
91409W        W55617  36.527  12.631   1.877
91410W        W55618  22.716  25.127  11.449
91411W        W55619   3.927  27.080  11.472
91412W        W55620  40.370  19.553   3.643
91413W        W55621  23.127   4.722   2.754
91414W        W55622   8.807  35.381   2.718
91415W        W55623  22.169  12.331   3.384
91416W        W55624  12.676  11.278  14.843
91417W        W55625  25.014  16.262  10.636
91418W        W55626  20.687  12.710   2.271
91419W        W55627  40.905  20.710   0.361
91420W        W55628   0.886  21.185  11.432
91421W        W55629  22.038  25.690   1.261
91422W        W55630  15.123  12.688   2.709
91423W        W55631  22.539  32.885  12.544
91424W        W55632  39.451   9.658   2.322
91425W        W55633  39.558  34.569   3.268
91426W        W55634  26.159   7.825   4.117
91427W        W55635  40.837  13.768   3.151
91428W        W55636  23.534  39.512  13.987
91429W        W55637  39.426   0.378  10.639
91430W        W55638  41.922  31.936   1.274
91431W        W55639  41.410  36.841  11.452
91432W        W55640   3.924  32.455  13.376
91433W        W55641  39.956  41.787   1.935
91434W        W55642  24.103  34.884   0.243
91435W        W55643  28.016  15.210   2.367
91436W        W55644  32.052  40.019  12.354
91437W        W55645  24.620  35.909  13.039
91438W        W55646  17.146  39.827   3.343
91439W        W55647  16.103  12.167  13.958
91440W        W55648  21.031  20.649  11.078
91441W        W55649  22.508  33.034   4.311
91442W        W55650   5.352   3.871  14.856
91443W        W55651  32.034   8.808   3.711
91444W        W55652  19.552  32.969  13.528
91445W        W55653   4.204  25.535  10.968
91446W        W55654  11.160  35.455   0.968
91447W        W55655  20.567  42.825   1.873
91448W        W55656   1.448  42.440   3.650
91449W        W55657  16.272   0.958  12.414
91450W        W55658  36.057  24.201  13.055
91451W        W55659  37.007  28.540   2.680
91452W        W55660   0.900  36.495  13.886
91453W        W55661  32.516   7.852  13.812
91454W        W55662  15.290  34.095  12.522
91455W        W55663  32.583   6.411  13.883
91456W        W55664  14.590  22.731  14.987
91457W        W55665   0.882  41.889  10.918
91458W        W55666  15.667  10.701   2.220
91459W        W55667  20.139  12.816  10.559
91460W        W55668  35.997  26.120   3.820
91461W        W55669   4.247  24.600   4.117
91462W        W55670  36.066  40.349  13.480
91463W        W55671  24.713  39.022  12.945
91464W        W55672  11.267  14.791  11.008
91465W        W55673  20.091  38.563   2.263
91466W        W55674  35.418  34.097   3.349
91467W        W55675  22.998  37.004   3.355
91468W        W55676   1.847  22.153  11.551
91469W        W55677  32.428   9.804   4.307
91470W        W55678   6.280  38.407  12.445
91471W        W55679  37.491  29.093   3.634
91472W        W55680  27.118  29.526   3.816
91473W        W55681  35.545   8.816  11.400
91474W        W55682   2.830  18.723  14.929
91475W        W55683  30.658  41.831   1.752
91476W        W55684  34.011  16.154  11.543
91477W        W55685  18.749  37.444   3.667
91478W        W55686   8.808  27.970   4.275
91479W        W55687  39.536   5.334  11.595
91480W        W55688  41.469   2.924  13.803
91481W        W55689  37.984   8.216   2.795
91482W        W55690  32.546  22.553  13.999
91483W        W55691  36.495  42.886   4.624
91484W        W55692  17.228  35.420  10.437
91485W        W55693  14.293  26.966   4.618
91486W        W55694  43.811  31.469   3.644
91487W        W55695   3.333   8.738   2.204
91488W        W55696  19.614   7.726   4.190
91489W        W55697  40.447  22.090   2.741
91490W        W55698   9.237  14.216   2.787
91491W        W55699   0.458   2.844   0.784
91492W        W55700   1.432  18.225   2.326
91493W        W55701  39.375  22.725   4.178
91494W        W55702  35.475   5.370   1.440
91495W        W55703  12.251   5.762  13.010
91496W        W55704  24.043  39.344  12.076
91497W        W55705  43.905   8.888   2.687
91498W        W55706   1.792  22.159   4.179
91499W        W55707   3.753  38.055  14.343
91500W        W55708   4.825  21.209   2.719
91501W        W55709  29.967   8.830  11.522
91502W        W55710  40.834   1.455   3.363
91503W        W55711  17.243   4.862  13.001
91504W        W55712  43.021  11.349   3.253
91505W        W55713  27.644   1.892   1.232
91506W        W55714  32.427  34.455  12.063
91507W        W55715  10.641  29.975  11.896
91508W        W55716  20.558  26.696  13.827
91509W        W55717  17.102   4.906   4.611
91510W        W55718  38.028  33.524   1.861
91511W        W55719  11.307  24.153  13.354
91512W        W55720  43.854  41.435   1.312
91513W        W55721   9.730   9.830  11.083
91514W        W55722  32.519  43.404   3.640
91515W        W55723  37.378  12.301  14.866
91516W        W55724  23.511  27.973  11.960
91517W        W55725   5.743  39.337  10.576
91518W        W55726  37.999  44.415   3.681
91519W        W55727  27.535   0.834   3.185
91520W        W55728   5.780  29.026   2.247
91521W        W55729  24.092  19.238  14.766
91522W        W55730  38.820  39.554  12.412
91523W        W55731  18.063  27.500  13.042
91524W        W55732  18.668  18.714   4.630
91525W        W55733   9.185  20.581  13.015
91526W        W55734   6.359   8.195  14.865
91527W        W55735  16.674   0.391  12.575
91528W        W55736  29.124   2.353  11.015
91529W        W55737  15.250   1.805  11.423
91530W        W55738  41.832  24.142  14.009
91531W        W55739   2.752  35.906   5.261
91532W        W55740  24.599   5.376  11.975
91533W        W55741  23.572  32.567  10.953
91534W        W55742  28.643  14.651   1.886
91535W        W55743  22.532   4.802   1.324
91536W        W55744  21.155   3.237   1.862
91537W        W55745  36.092  36.064   1.446
91538W        W55746  29.531   3.928  12.996
91539W        W55747  17.241  35.592   5.777
91540W        W55748   2.431   0.820   3.765
91541W        W55749  42.487  24.488  12.878
91542W        W55750   9.153   9.156   4.158
91543W        W55751  25.189  32.104   1.812
91544W        W55752  30.996  33.532  13.816
91545W        W55753  27.497  42.889  13.821
91546W        W55754  30.931  17.720  13.473
91547W        W55755  16.733  36.006  13.484
91548W        W55756  39.362  41.412  14.835
91549W        W55757   1.756  39.013   4.703
91550W        W55758  32.052  24.122   3.685
91551W        W55759  39.065  41.496  10.467
91552W        W55760  17.737  18.122   3.789
91553W        W55761  42.286  10.875   2.230
91554W        W55762  15.814  22.638   2.675
91555W        W55763   7.367  30.995   3.337
91556W        W55764  19.098  32.896  13.826
91557W        W55765  35.524   1.916   1.766
91558W        W55766  37.830  23.736   2.411
91559W        W55767  32.044  18.546  13.336
91560W        W55768  22.225  26.479   0.437
91561W        W55769   3.788  31.626  13.518
91562W        W55770  44.320  40.328   5.242
91563W        W55771  22.088  14.713  10.492
91564W        W55772  23.523  43.874  14.294
91565W        W55773  37.513  21.137   0.266
91566W        W55774  17.593  10.335  14.919
91567W        W55775  39.993   7.703   1.920
91568W        W55776   8.253   6.771   4.296
91569W        W55777  25.542   5.908  12.534
91570W        W55778   8.230  31.645   2.188
91571W        W55779  26.014  27.162  12.960
91572W        W55780  31.510  42.290   1.777
91573W        W55781   3.929  39.831  12.860
91574W        W55782   1.833  40.514  11.480
91575W        W55783   2.456  25.149  11.984
91576W        W55784  15.796   2.848  10.606
91577W        W55785  38.895  11.694  11.129
91578W        W55786  29.090  21.152  12.532
91579W        W55787  43.989   6.819  13.844
91580W        W55788  12.822   0.921  14.893
91581W        W55789  27.996  14.177  10.598
91582W        W55790  33.501  22.122  13.369
91583W        W55791  32.139  22.209   2.742
91584W        W55792  23.064  30.458   0.436
91585W        W55793   9.687  29.548  12.497
91586W        W55794  37.948  23.588   4.116
91587W        W55795   7.816  27.142  11.531
91588W        W55796  35.045  31.950  14.846
91589W        W55797   5.238  24.059  10.505
91590W        W55798  18.227  14.149  11.519
91591W        W55799  13.333  33.965   4.208
91592W        W55800  26.081  16.193  13.313
91593W        W55801  38.920  34.118  11.494
91594W        W55802  13.662   4.848   1.304
91595W        W55803  21.249  32.986  12.021
91596W        W55804  27.173  10.651  14.795
91597W        W55805  23.592   1.419  10.583
91598W        W55806  12.349  17.292   1.830
91599W        W55807  39.026  41.301   4.143
91600W        W55808  10.758   9.848   2.240
91601W        W55809   7.677  22.586  10.581
91602W        W55810  26.994  14.195   0.732
91603W        W55811  28.557  16.220  12.078
91604W        W55812  33.038  25.054  11.496
91605W        W55813   0.915  12.706   0.404
91606W        W55814  11.308  10.731   2.303
91607W        W55815   2.405  25.473   2.277
91608W        W55816  25.982  26.016  11.959
91609W        W55817  44.878  27.622  11.097
91610W        W55818  37.955  21.135  13.358
91611W        W55819  34.096  37.938  13.318
91612W        W55820  27.057  17.155  13.415
91613W        W55821  42.910  11.239  14.331
91614W        W55822  18.229  26.697  11.393
91615W        W55823  16.773   5.782   2.754
91616W        W55824  37.956  36.061  13.481
91617W        W55825  27.109  22.055  12.490
91618W        W55826  21.205  32.021  13.419
91619W        W55827   7.267   1.834  11.546
91620W        W55828   3.847  23.571  13.966
91621W        W55829  21.677  33.518  10.474
91622W        W55830  28.179   5.414  13.429
91623W        W55831   4.331  27.168  12.046
91624W        W55832  36.063  36.090   1.914
91625W        W55833   0.755  16.219   3.253
91626W        W55834   4.269  40.001   0.787
91627W        W55835  22.564  21.048   2.207
91628W        W55836  34.003  12.229  11.882
91629W        W55837   8.784  41.818   1.906
91630W        W55838  31.433  15.104  12.968
91631W        W55839  22.738  17.113  11.956
91632W        W55840   2.392   1.426  13.838
91633W        W55841  16.117  30.935  10.941
91634W        W55842  28.501  18.052  12.866
91635W        W55843  38.838   2.321  11.488
91636W        W55844  34.915  14.127  13.313
91637W        W55845  40.014  10.783   4.332
91638W        W55846  32.459  42.937  10.593
91639W        W55847   2.905   8.725  12.539
91640W        W55848   8.820  35.861   1.745
91641W        W55849  37.933  12.357   4.639
91642W        W55850  19.158  43.783   3.654
91643W        W55851  35.108  12.700  14.827
91644W        W55852  16.151  30.113   4.685
91645W        W55853   4.797  12.169  13.512
91646W        W55854  21.628  31.085  14.278
91647W        W55855   4.244  30.909   1.825
91648W        W55856  15.671  19.693  11.530
91649W        W55857   3.344   7.292  13.974
91650W        W55858   5.362  40.475  14.006
91651W        W55859   4.826  11.234   1.441
91652W        W55860  26.059   3.236   4.251
91653W        W55861  20.554  15.239  14.384
91654W        W55862  24.618  16.615   0.809
91655W        W55863   1.450   1.319   1.917
91656W        W55864  22.633  10.836  14.492
91657W        W55865  34.062  35.501   1.398
91658W        W55866  11.285   3.796   1.446
91659W        W55867   3.712  32.547   2.735
91660W        W55868  10.666  44.329   2.268
91661W        W55869  19.261  12.708   0.765
91662W        W55870  40.948   4.395  14.909
91663W        W55871   3.362  27.147  13.976
91664W        W55872  26.961  34.041  10.985
91665W        W55873  23.990  18.746   5.263
91666W        W55874  10.247  42.874  12.095
91667W        W55875  31.035  42.884  12.478
91668W        W55876   9.261  40.524  12.580
91669W        W55877  16.183   1.321   2.771
91670W        W55878  14.129  16.099  13.947
91671W        W55879  13.243  43.485  11.066
91672W        W55880  19.685  16.597   1.401
91673W        W55881   1.774   7.700   3.633
91674W        W55882  33.973  43.503   1.696
91675W        W55883  28.465  42.379  10.598
91676W        W55884  18.223  40.401  12.579
91677W        W55885   5.758  13.132   4.251
91678W        W55886  21.249   9.677  14.900
91679W        W55887   4.220  26.569   3.311
91680W        W55888  39.449  11.740  12.413
91681W        W55889   6.888  22.067   4.812
91682W        W55890   7.297  25.539  13.869
91683W        W55891   7.821   4.236   4.214
91684W        W55892  42.439   2.805   2.788
91685W        W55893  11.367   5.415   4.838
91686W        W55894  42.422  27.040  13.400
91687W        W55895  29.670  28.048   0.339
91688W        W55896   2.907   4.391   9.923
91689W        W55897  44.912   0.856  11.425
91690W        W55898   6.304  40.316   0.739
91691W        W55899  43.769  44.397   0.307
91692W        W55900  27.948  21.074   0.389
91693W        W55901  40.413  34.110  12.029
91694W        W55902   1.893  35.986  14.495
91695W        W55903   4.818  40.431  10.929
91696W        W55904  40.397   7.347   1.211
91697W        W55905  20.206   4.828  12.464
91698W        W55906  44.389   9.321  10.497
91699W        W55907   3.436  13.738   2.184
91700W        W55908  15.807  26.472  10.056
91701W        W55909   7.836  26.188  13.028
91702W        W55910   8.216  40.859  14.387
91703W        W55911  24.592  38.350  10.539
91704W        W55912  16.585  39.999   0.809
91705W        W55913  31.514   2.897   4.312
91706W        W55914  44.834  44.313   4.755
91707W        W55915  42.788  15.805   0.831
91708W        W55916  17.633  12.811  13.907
91709W        W55917  25.058   2.927   1.427
91710W        W55918  17.095  38.942  11.057
91711W        W55919  24.149  41.314  10.559
91712W        W55920  27.501  41.504  14.895
91713W        W55921   7.859  11.746  12.345
91714W        W55922  31.928  44.363  14.815
91715W        W55923  15.103  38.842  12.851
91716W        W55924  16.224   2.397  14.779
91717W        W55925  42.862   5.423  13.401
91718W        W55926  43.944  20.691   1.928
91719W        W55927  34.019  20.696  10.598
91720W        W55928   2.385  29.054  13.997
91721W        W55929  33.982   8.822  12.876
91722W        W55930  25.003   9.217  12.059
91723W        W55931  30.640  30.008   0.421
91724W        W55932  24.164  18.715   0.915
91725W        W55933  16.708  35.535   0.807
91726W        W55934  14.306  24.003   0.886
91727W        W55935  24.102   1.301   1.809
91728W        W55936  40.374  35.543   4.339
91729W        W55937  33.093  15.300   1.934
91730W        W55938  32.014  17.065  10.471
91731W        W55939   7.368  10.155  12.384
91732W        W55940  38.561  32.016   3.771
91733W        W55941   8.385  32.593   3.372
91734W        W55942   3.748  34.407  12.566
91735W        W55943  19.695  35.448  14.419
91736W        W55944  28.479  28.979  14.276
91737W        W55945   1.964   3.916  14.279
91738W        W55946  20.575  23.158  12.498
91739W        W55947  38.412  41.322  14.850
91740W        W55948  26.960  38.901   0.845
91741W        W55949  30.453  34.874   2.895
91742W        W55950   8.694  19.683  14.876
91743W        W55951  25.174   7.666   3.671
91744W        W55952  20.211  35.035  14.440
91745W        W55953  39.851  29.922   2.736
91746W        W55954   7.342  33.912  11.895
91747W        W55955  11.746  23.238  11.607
91748W        W55956  27.997  37.012  11.923
91749W        W55957   2.300  32.903  12.539
91750W        W55958  21.222  20.642  14.374
91751W        W55959  41.862   8.774  13.848
91752W        W55960  17.233  33.614   4.146
91753W        W55961  33.998  21.056  11.044
91754W        W55962  38.491  27.987  14.963
91755W        W55963  36.881  31.991  14.897
91756W        W55964  20.658  28.509   4.790
91757W        W55965  27.489   4.226   1.320
91758W        W55966   2.811   1.479  14.308
91759W        W55967  40.524  15.698  12.069
91760W        W55968   8.382  29.470  14.396
91761W        W55969  16.753  15.731  12.484
91762W        W55970   1.884  43.415  13.793
91763W        W55971  17.691  42.369  10.490
91764W        W55972   2.294  17.721  14.780
91765W        W55973  25.472  37.925   1.279
91766W        W55974  15.693  42.812  13.033
91767W        W55975  19.537   8.764  11.012
91768W        W55976   1.438   8.854  12.064
91769W        W55977  24.690   9.656   2.748
91770W        W55978   0.893  21.595  10.468
91771W        W55979   8.747  18.783   1.806
91772W        W55980  41.865  36.472   0.457
91773W        W55981  29.595  11.371  14.931
91774W        W55982   6.326  43.868   1.850
91775W        W55983   5.381   2.342   1.896
91776W        W55984  28.556  10.185   2.369
91777W        W55985  16.717  28.516   3.733
91778W        W55986   6.231  18.085   2.183
91779W        W55987  27.003   7.693   3.193
91780W        W55988  42.022   6.688   2.854
91781W        W55989   4.429   5.767   2.717
91782W        W55990  30.156  32.421  11.033
91783W        W55991  21.561  40.318  10.000
91784W        W55992   3.937  15.777  12.568
91785W        W55993  32.599  12.612   1.217
91786W        W55994  14.646  13.296   0.290
91787W        W55995  37.547  34.876   4.173
91788W        W55996  37.371  38.411   4.140
91789W        W55997   5.321  34.594  12.445
91790W        W55998   1.382  34.391   0.886
91791W        W55999  38.971  15.677   3.792
91792W        W56000  14.284  11.733   3.700
91793W        W56001  13.234   9.394   0.835
91794W        W56002  11.739  27.653  11.547
91795W        W56003  38.972  37.490  14.415
91796W        W56004   4.278   3.297   1.831
91797W        W56005  27.607  16.626   4.243
91798W        W56006  13.187  41.787   2.364
91799W        W56007   2.780   1.315   3.761
91800W        W56008   6.827  28.661  13.838
91801W        W56009   8.783  32.901  12.436
91802W        W56010  32.606  28.500  12.355
91803W        W56011  37.345   8.398   3.678
91804W        W56012  17.209  27.561  10.138
91805W        W56013   3.271  30.164   4.282
91806W        W56014   5.305  27.652   3.318
91807W        W56015  26.638   0.399  11.595
91808W        W56016  24.052  39.502  14.785
91809W        W56017  19.739  35.507   0.317
91810W        W56018  43.947   1.840  13.806
91811W        W56019  18.771  10.797   4.167
91812W        W56020  35.393   4.323  13.864
91813W        W56021  30.029  25.510   1.284
91814W        W56022  40.408   3.804   5.617
91815W        W56023   7.846  21.225   3.725
91816W        W56024   7.394  12.276  12.085
91817W        W56025  37.393  27.659  13.456
91818W        W56026  33.111  26.488   0.482
91819W        W56027   2.790  26.029   1.282
91820W        W56028  40.302  42.299   3.239
91821W        W56029   2.307   1.400   2.243
91822W        W56030  24.981  31.006  11.862
91823W        W56031   4.307  29.137  12.002
91824W        W56032  23.176  24.484  10.927
91825W        W56033  13.751  28.572  11.524
91826W        W56034  15.613  21.559   0.454
91827W        W56035  43.477  17.778   9.635
91828W        W56036   0.778   4.820   5.206
91829W        W56037  23.721  30.126  13.536
91830W        W56038  11.634  14.730   3.323
91831W        W56039  13.116  20.242   4.322
91832W        W56040  17.197  22.606   2.212
91833W        W56041  14.282  35.984  11.426
91834W        W56042  30.461  21.251   3.746
91835W        W56043  24.991  35.589   1.348
91836W        W56044  41.530  13.660  12.516
91837W        W56045  25.963  30.084  13.926
91838W        W56046  31.522  44.315   4.619
91839W        W56047   3.272  28.046  12.044
91840W        W56048   6.804  16.228   3.154
91841W        W56049   1.325  20.039   4.336
91842W        W56050  35.033  17.118  10.890
91843W        W56051  35.478  10.831  14.798
91844W        W56052  26.508  11.302   1.280
91845W        W56053  21.090  38.987  13.895
91846W        W56054  17.209  33.443   5.234
91847W        W56055  29.518  12.250  14.497
91848W        W56056   8.839  37.395  13.957
91849W        W56057  14.268  22.224  10.473
91850W        W56058  43.514  21.584  10.513
91851W        W56059  19.614  30.528  11.909
91852W        W56060  11.669   1.874   0.243
91853W        W56061  15.120   9.239  13.391
91854W        W56062   0.985  12.765  14.292
91855W        W56063   0.283  15.135  11.065
91856W        W56064  36.845  17.563   0.787
91857W        W56065  36.500  26.133  13.431
91858W        W56066  31.520  18.559   1.813
91859W        W56067   0.428  23.551  10.557
91860W        W56068  34.481   8.324   3.190
91861W        W56069  13.764  43.926   3.210
91862W        W56070   4.770  22.637   2.199
91863W        W56071  16.076  21.677  11.505
91864W        W56072  14.119  14.267  10.042
91865W        W56073   8.218  26.606  13.358
91866W        W56074  24.059  23.189   3.795
91867W        W56075  11.165   7.861   1.240
91868W        W56076  31.998   6.906   3.367
91869W        W56077  17.702   6.319  14.298
91870W        W56078  27.629  11.655  10.641
91871W        W56079   4.852  18.217  10.109
91872W        W56080  28.491   2.913  13.507
91873W        W56081   4.283  44.260   3.795
91874W        W56082  20.607  33.455   1.841
91875W        W56083  27.549  15.093   4.265
91876W        W56084  41.880  12.346  13.535
91877W        W56085  12.202  27.972   0.925
91878W        W56086  32.419  10.155  10.513
91879W        W56087  20.124  19.281   2.335
91880W        W56088   6.809  10.182  13.403
91881W        W56089  21.741  42.956   4.762
91882W        W56090   6.427  40.842  14.494
91883W        W56091  30.546  36.521  12.977
91884W        W56092  33.916  35.051   2.293
91885W        W56093  40.802  42.955   0.926
91886W        W56094  38.832  44.988  10.539
91887W        W56095  23.228   4.383   2.187
91888W        W56096   1.327  24.180   1.290
91889W        W56097   6.220  40.959  10.579
91890W        W56098  30.562  27.469   2.669
91891W        W56099  29.633   1.752   2.385
91892W        W56100  18.647  43.321  11.572
91893W        W56101   6.770  26.702   3.826
91894W        W56102  20.217   6.403   3.835
91895W        W56103   0.759  20.678  11.459
91896W        W56104  42.461   2.727  10.538
91897W        W56105  24.216  21.535   4.337
91898W        W56106  11.167  17.762  11.562
91899W        W56107  16.096  27.196   1.233
91900W        W56108  36.026  27.102  10.609
91901W        W56109   7.754  13.834  12.535
91902W        W56110  14.145  39.490  11.985
91903W        W56111  22.045  10.241   4.197
91904W        W56112  33.065  12.688  13.345
91905W        W56113  11.798  31.927  10.159
91906W        W56114  43.021   4.698  13.547
91907W        W56115   3.916  37.494  14.391
91908W        W56116  10.677  14.615  11.926
91909W        W56117  42.844  10.702   3.724
91910W        W56118   7.342  16.589  12.965
91911W        W56119  44.901   6.312  11.030
91912W        W56120  31.901  15.789   2.329
91913W        W56121  27.674  13.664  10.543
91914W        W56122  38.985  13.293  14.818
91915W        W56123   2.887  13.703   2.800
91916W        W56124   0.429  13.119   1.706
91917W        W56125  14.198  41.339  11.433
91918W        W56126  27.157  35.448   1.698
91919W        W56127  35.859  24.551  11.039
91920W        W56128  21.593  35.543  12.538
91921W        W56129  14.611   5.749  10.552
91922W        W56130  18.601  42.789  11.446
91923W        W56131  32.135  14.216  13.030
91924W        W56132  13.313  41.332  14.893
91925W        W56133  13.343  40.365   2.661
91926W        W56134  14.173  18.065   2.863
91927W        W56135  29.499  44.954   1.707
91928W        W56136  23.578  44.806   4.183
91929W        W56137  37.449  36.395   4.648
91930W        W56138  14.260  39.931  12.997
91931W        W56139  38.471   7.817   2.685
91932W        W56140  16.760   7.715  11.034
91933W        W56141  25.041   6.381  11.009
91934W        W56142  12.322  20.091  14.888
91935W        W56143  40.933  33.128  11.498
91936W        W56144  18.572  39.850  10.624
91937W        W56145   5.383  38.002  12.910
91938W        W56146  18.682  41.426   1.413
91939W        W56147   5.361   4.256  12.462
91940W        W56148  26.528  10.348   1.258
91941W        W56149  31.497   3.781   0.416
91942W        W56150  32.961  32.961  13.961
91943W        W56151  37.513  16.609  12.949
91944W        W56152   4.254   5.377  14.328
91945W        W56153  40.517  43.854   4.743
91946W        W56154  13.327   7.389   4.136
91947W        W56155  27.050  20.606   3.636
91948W        W56156  25.528  30.113  11.014
91949W        W56157   8.306  21.049  12.940
91950W        W56158  13.257   4.760  11.465
91951W        W56159   7.288  37.457   3.643
91952W        W56160  30.988  26.167  14.812
91953W        W56161  15.597  43.275  11.389
91954W        W56162  36.399  40.914  12.946
91955W        W56163   3.426  17.588  12.558
91956W        W56164  41.513  44.989  13.876
91957W        W56165  31.919  35.067   0.817
91958W        W56166   4.377   9.784   2.745
91959W        W56167  26.587  31.007  11.926
91960W        W56168  39.441  20.140   3.825
91961W        W56169   8.858   1.281   1.798
91962W        W56170  14.170  35.586  11.064
91963W        W56171   0.900   5.394  12.096
91964W        W56172  15.711  12.677  14.376
91965W        W56173  37.065  27.949   1.752
91966W        W56174  36.991   5.205   1.838
91967W        W56175  16.205  38.338  14.281
91968W        W56176  26.156  43.451   0.888
91969W        W56177  42.879  41.436  10.980
91970W        W56178  13.253  25.617  12.476
91971W        W56179  24.056  15.688   4.132
91972W        W56180  33.571   7.208  11.494
91973W        W56181  40.848  18.671   1.699
91974W        W56182  29.546   5.281   4.277
91975W        W56183  44.852  28.935   3.192
91976W        W56184  44.973  41.398   1.905
91977W        W56185  26.523   5.915   9.972
91978W        W56186  19.225   7.299   2.853
91979W        W56187  19.728  34.049  11.865
91980W        W56188   8.848  15.161  11.118
91981W        W56189  32.137  21.644   3.205
91982W        W56190  14.308  31.440  14.347
91983W        W56191  13.239  31.550   1.415
91984W        W56192  26.091  11.688  11.875
91985W        W56193   1.337  22.625  14.294
91986W        W56194  37.437  22.065   1.274
91987W        W56195  11.358   5.263  13.379
91988W        W56196  10.673   0.843  10.891
91989W        W56197  32.977  14.742   2.768
91990W        W56198  35.382  21.156   9.939
91991W        W56199  44.310  21.527  12.020
91992W        W56200  18.593   2.804   4.761
91993W        W56201  19.285  27.611   0.915
91994W        W56202  22.519  32.475  12.946
91995W        W56203  38.503   1.835   0.379
91996W        W56204  37.383  24.500  12.869
91997W        W56205   7.899  37.850   1.372
91998W        W56206  19.615   2.406  14.442
91999W        W56207   8.729  44.358  11.920
92000W        W56208   5.330  32.610   3.822
92001W        W56209  40.472  32.422  10.487
92002W        W56210  28.654  16.183  13.978
92003W        W56211  26.029  27.023   1.218
92004W        W56212  40.357   1.804   3.277
92005W        W56213  29.003  20.053   2.332
92006W        W56214  17.273  44.304  10.634
92007W        W56215   2.462  23.194  14.799
92008W        W56216  39.411  29.591   2.240
92009W        W56217  43.462  27.100  14.859
92010W        W56218  20.057  19.274  13.931
92011W        W56219  22.590  24.611   3.645
92012W        W56220  29.516  16.252   2.681
92013W        W56221  14.722  17.233  11.415
92014W        W56222  32.115   1.445   4.760
92015W        W56223  16.179   2.385   4.603
92016W        W56224  15.777   5.322  10.944
92017W        W56225   7.233  19.222   2.316
92018W        W56226  19.193  16.158   5.264
92019W        W56227   1.360  34.393  12.478
92020W        W56228  14.183  37.544  12.047
92021W        W56229  16.614  44.390  10.941
92022W        W56230  41.476   6.716  13.485
92023W        W56231   3.403  27.570  14.990
92024W        W56232  11.201  25.219   1.766
92025W        W56233   3.433  32.136  12.991
92026W        W56234  33.127   4.771  14.466
92027W        W56235  22.072  36.007   3.188
92028W        W56236   4.342  31.618   3.207
92029W        W56237  14.704  41.942   4.631
92030W        W56238   2.963   0.396  14.391
92031W        W56239  38.843  35.499   3.324
92032W        W56240  33.527  10.807  13.821
92033W        W56241   0.479   9.229   3.154
92034W        W56242   1.357   5.286   0.348
92035W        W56243  35.022  26.692   0.881
92036W        W56244   4.874  35.508   1.244
92037W        W56245  35.937  17.080   3.187
92038W        W56246  27.083  30.105  12.421
92039W        W56247  25.192  20.627  13.032
92040W        W56248  11.136  32.575  12.567
92041W        W56249  43.922  14.226  13.383
92042W        W56250  43.893   3.279  12.418
92043W        W56251  11.293  20.227   1.218
92044W        W56252  23.598  24.689  11.862
92045W        W56253  24.563   8.839  12.384
92046W        W56254  12.307  24.203  12.507
92047W        W56255   9.196  20.143   2.252
92048W        W56256  16.260   5.263  13.957
92049W        W56257  34.377   7.881   2.374
92050W        W56258  22.238   2.905   3.257
92051W        W56259  33.908  12.234  12.903
92052W        W56260   3.316  19.628   2.696
92053W        W56261  34.386  35.501  12.350
92054W        W56262  35.873  25.499  13.883
92055W        W56263   6.817  44.285  13.525
92056W        W56264  20.768  23.030  14.305
92057W        W56265  20.718   5.925  12.949
92058W        W56266  25.684  34.430   1.236
92059W        W56267  31.115   8.873  10.049
92060W        W56268  22.697  38.385   4.192
92061W        W56269   2.454  37.930   0.852
92062W        W56270   3.896  37.547  11.442
92063W        W56271  43.784  26.476  13.336
92064W        W56272   8.822  38.505  11.037
92065W        W56273   9.254  11.248   4.178
92066W        W56274  11.209  27.099  11.930
92067W        W56275  40.939  11.328  11.576
92068W        W56276  25.210  10.658   1.758
92069W        W56277  33.884  21.070  11.563
92070W        W56278  10.304  14.111  13.380
92071W        W56279  40.014  21.644   2.714
92072W        W56280  28.527   0.823   4.286
92073W        W56281  12.614  26.509   3.211
92074W        W56282  22.244  23.996  14.439
92075W        W56283  29.524  37.538  12.350
92076W        W56284   3.438  34.960   2.181
92077W        W56285  31.141   5.357  10.420
92078W        W56286  16.758  28.513  10.534
92079W        W56287  39.980   8.727   3.247
92080W        W56288  36.469  42.424   2.730
92081W        W56289  38.890  24.715   3.253
92082W        W56290  10.663  24.560   0.424
92083W        W56291  44.943   2.359   1.407
92084W        W56292  19.194  19.273  10.440
92085W        W56293  39.040  33.397   5.104
92086W        W56294   0.966  21.710  11.571
92087W        W56295  18.682  30.955   0.947
92088W        W56296  10.216  15.623   0.434
92089W        W56297  17.183  32.911   4.186
92090W        W56298   4.386  23.649   0.876
92091W        W56299   0.980  18.206   0.726
92092W        W56300   4.933  39.943  14.357
92093W        W56301  15.658  25.541  14.300
92094W        W56302  31.934  31.553   1.827
92095W        W56303  30.626  17.775  13.010
92096W        W56304  35.964  22.672   3.360
92097W        W56305  44.925  35.100  10.898
92098W        W56306   3.772  20.245  11.435
92099W        W56307  39.476  29.592   0.963
92100W        W56308  25.089  33.909   0.800
92101W        W56309  19.773  14.672   1.873
92102W        W56310  40.044  16.178   5.171
92103W        W56311  15.724  42.287  13.945
92104W        W56312  40.889  15.210   4.231
92105W        W56313  19.746   2.279   4.765
92106W        W56314  41.847  31.587  11.991
92107W        W56315  43.376  35.966  11.940
92108W        W56316  12.262  20.040   4.136
92109W        W56317  12.316  18.786   0.875
92110W        W56318  24.583  31.947  14.360
92111W        W56319  40.395  16.273   9.982
92112W        W56320  10.194  13.621   4.720
92113W        W56321  11.806  10.351   5.175
92114W        W56322  11.251  36.588  13.829
92115W        W56323  33.048  36.899  14.420
92116W        W56324  28.528   1.279   2.870
92117W        W56325  10.372  44.767  14.890
92118W        W56326  38.550  26.138  12.988
92119W        W56327  29.510  11.704   1.878
92120W        W56328  30.521  18.141  10.417
92121W        W56329   8.823   4.448  14.772
92122W        W56330   8.293  12.726  14.336
92123W        W56331  24.542  30.996  11.915
92124W        W56332  32.894  37.947  13.471
92125W        W56333  33.912  35.375  13.500
92126W        W56334  40.381  22.650   4.130
92127W        W56335   2.799  18.244   4.693
92128W        W56336  28.438  28.650   3.340
92129W        W56337  33.045  41.471  11.532
92130W        W56338  10.867  42.965  14.986
92131W        W56339  28.998  25.017   2.301
92132W        W56340   1.248  40.974  12.559
92133W        W56341  28.611  44.293  11.039
92134W        W56342   2.781  36.404  11.860
92135W        W56343  15.228  26.466  14.933
92136W        W56344  17.147  19.157   2.683
92137W        W56345  19.247  40.518   1.312
92138W        W56346  44.755  19.683  12.548
92139W        W56347   6.221  17.782   4.609
92140W        W56348  36.348  29.133   1.373
92141W        W56349   4.885  21.731   4.210
92142W        W56350  37.574  34.444   3.721
92143W        W56351  14.649  39.027  13.362
92144W        W56352  30.633  18.200  12.472
92145W        W56353  35.919  24.042   2.266
92146W        W56354  26.140   4.323   1.780
92147W        W56355  19.042  30.420   3.734
92148W        W56356  33.430  28.617   2.825
92149W        W56357  18.212  15.314  12.880
92150W        W56358  40.420   4.785   5.669
92151W        W56359  33.007  35.465   1.244
92152W        W56360  10.182  37.560   2.795
92153W        W56361  21.579   5.291  10.960
92154W        W56362  27.949  22.113  12.922
92155W        W56363  43.022  40.523  10.969
92156W        W56364  24.682  24.524  13.954
92157W        W56365   0.806  38.492   0.884
92158W        W56366  20.041  30.554   1.351
92159W        W56367   5.877  22.205   2.253
92160W        W56368  42.856  19.074   0.871
92161W        W56369  29.096   1.286  14.483
92162W        W56370  44.460  15.163   2.722
92163W        W56371  26.964  14.764  10.941
92164W        W56372  42.822  13.136   0.884
92165W        W56373   8.211  14.170  14.825
92166W        W56374  27.460  43.348   2.705
92167W        W56375  21.574  33.385  13.836
92168W        W56376  28.546   5.919   3.333
92169W        W56377  10.639  31.619  11.000
92170W        W56378  40.969  20.098  12.070
92171W        W56379  13.230  15.596   0.403
92172W        W56380  16.721  28.631   4.719
92173W        W56381  38.522  22.053  13.519
92174W        W56382  39.051  31.423   3.381
92175W        W56383  28.505  29.526  11.919
92176W        W56384  18.067  41.929  13.956
92177W        W56385  32.448  30.995  10.974
92178W        W56386  35.951   7.704  12.959
92179W        W56387  24.533  32.029  14.841
92180W        W56388   3.870   1.943   0.366
92181W        W56389   0.938  19.765   0.792
92182W        W56390  42.816  12.196   3.334
92183W        W56391  25.208   6.690  14.916
92184W        W56392  28.141  28.183   3.289
92185W        W56393  27.550  22.646   0.268
92186W        W56394   7.814  18.240  13.012
92187W        W56395  39.916  37.386   2.685
92188W        W56396   9.166  44.766  11.035
92189W        W56397   9.877  17.719  13.496
92190W        W56398  28.036  12.800  12.005
92191W        W56399  31.455  20.750  13.488
92192W        W56400  23.192  21.686   3.723
92193W        W56401  41.011   7.724   0.394
92194W        W56402   9.714  16.102   0.925
92195W        W56403  15.284   6.286   3.207
92196W        W56404  29.115  27.486  12.841
92197W        W56405  30.638  30.429  12.983
92198W        W56406  39.001   5.438   4.664
92199W        W56407  13.658  44.285  14.308
92200W        W56408  41.925  38.549   4.288
92201W        W56409   3.311  21.636   1.450
92202W        W56410  29.046   4.856   0.782
92203W        W56411  29.606   4.943  13.956
92204W        W56412  43.957  11.676  12.456
92205W        W56413  21.074  44.504   5.151
92206W        W56414  13.295   5.755  13.362
92207W        W56415   1.319  20.541   3.167
92208W        W56416  34.900  39.437   1.212
92209W        W56417  27.982  30.468  14.913
92210W        W56418  42.426  12.160   3.712
92211W        W56419  18.741  37.961  11.454
92212W        W56420   1.917  20.742   3.829
92213W        W56421  30.439   6.230   2.343
92214W        W56422  13.793  28.155  14.352
92215W        W56423  24.524  13.606   0.966
92216W        W56424   4.844  36.590  11.026
92217W        W56425  31.598   0.950  13.459
92218W        W56426  11.698   3.384  10.040
92219W        W56427   8.803  40.891   4.118
92220W        W56428  16.089  24.704   2.805
92221W        W56429  43.317   5.700  11.425
92222W        W56430  38.508  40.877  11.608
92223W        W56431   1.868  42.519  13.506
92224W        W56432  18.575   3.863   2.779
92225W        W56433  33.495  24.567   0.800
92226W        W56434  16.152  24.191  10.027
92227W        W56435   1.913  38.902  14.505
92228W        W56436   1.909   1.910   5.198
92229W        W56437  36.459  43.355   4.250
92230W        W56438  22.182  38.916  14.366
92231W        W56439  24.124  37.035   2.273
92232W        W56440  33.036  13.142  12.569
92233W        W56441  36.538  16.218  11.424
92234W        W56442   1.887  31.412  12.868
92235W        W56443   3.816  23.735   4.209
92236W        W56444  11.700  39.020   3.676
92237W        W56445  21.757  35.510  11.444
92238W        W56446   7.248   0.302  13.993
92239W        W56447   0.779  22.667   2.260
92240W        W56448  34.988  40.549   5.208
92241W        W56449  29.991   6.706  14.939
92242W        W56450  43.477  17.790   5.151
92243W        W56451  10.696  19.078  12.452
92244W        W56452  10.784   3.427   3.319
92245W        W56453  31.508  32.561   4.785
92246W        W56454  18.586  31.000  14.316
92247W        W56455  12.171  15.321  10.014
92248W        W56456  37.453  22.198   2.212
92249W        W56457  21.120  35.362   0.344
92250W        W56458  11.632   5.831   3.786
92251W        W56459  11.860  15.579  10.028
92252W        W56460   8.880   5.837  14.277
92253W        W56461   9.277  28.132  11.397
92254W        W56462  14.102  44.478   1.827
92255W        W56463  13.605   7.198   0.470
92256W        W56464  33.553  13.705   2.816
92257W        W56465   6.796  18.591   1.821
92258W        W56466   5.830  27.470   3.239
92259W        W56467  17.637   1.276  14.903
92260W        W56468  40.388  27.572  12.964
92261W        W56469  28.506   4.793   2.682
92262W        W56470  13.322  36.348   3.671
92263W        W56471   1.977   7.840  14.763
92264W        W56472   5.784  38.384  14.373
92265W        W56473  25.697  30.149  11.396
92266W        W56474  30.415  17.642   4.778
92267W        W56475  19.766   5.345  13.912
92268W        W56476  26.606   9.702   2.672
92269W        W56477  17.152  36.422  13.835
92270W        W56478  32.622  25.996   3.223
92271W        W56479  42.005   8.292  11.031
92272W        W56480  36.085  11.680  11.398
92273W        W56481  12.251  17.121  13.890
92274W        W56482  33.556  23.727   1.348
92275W        W56483  21.104  11.654   3.827
92276W        W56484  42.872  27.617  10.915
92277W        W56485  39.946   2.377   1.290
92278W        W56486  19.114   4.420  12.500
92279W        W56487   2.867   2.863   9.523
92280W        W56488  25.700   3.844   2.662
92281W        W56489  31.438  18.285   0.381
92282W        W56490  15.656  15.765  13.824
92283W        W56491  11.223  30.639  12.423
92284W        W56492  43.475  44.448  12.557
92285W        W56493  29.062  33.564  14.795
92286W        W56494  28.951  32.885  12.982
92287W        W56495  39.448  17.563  13.892
92288W        W56496  42.338  42.993  13.803
92289W        W56497  43.301  20.681   3.224
92290W        W56498  39.326  12.628  11.582
92291W        W56499  41.448  38.024  14.832
92292W        W56500   2.365  24.057   1.309
92293W        W56501  17.683  19.724   3.163
92294W        W56502  28.653   3.903   2.398
92295W        W56503  11.763  17.173   3.809
92296W        W56504  39.364  18.640   2.209
92297W        W56505  21.736  39.039   2.372
92298W        W56506  11.225  38.944  13.343
92299W        W56507  42.434  11.289   4.127
92300W        W56508  28.578  29.490   3.200
92301W        W56509  28.043  33.549   2.214
92302W        W56510  20.160   7.725   0.842
92303W        W56511  42.925  42.954   2.819
92304W        W56512  32.978  39.024  13.376
92305W        W56513   0.828  42.928  10.518
92306W        W56514  35.861  12.700  14.992
92307W        W56515   4.291  19.169  10.428
92308W        W56516   7.895   0.867   0.427
92309W        W56517  11.868  37.542   3.336
92310W        W56518  14.747  39.350   3.734
92311W        W56519  43.846   7.727  11.995
92312W        W56520  10.773  20.089   4.721
92313W        W56521  13.198  21.230  11.372
92314W        W56522  14.624   4.418  13.498
92315W        W56523  44.505   0.842  12.079
92316W        W56524  38.016  11.210  13.963
92317W        W56525  29.064  32.106   3.755
92318W        W56526  42.281   9.801  11.889
92319W        W56527  37.862  37.507   2.189
92320W        W56528  15.272  43.990   3.385
92321W        W56529  15.645  37.069   1.923
92322W        W56530   8.798  29.968  13.457
92323W        W56531   2.416  15.238  10.483
92324W        W56532  14.167  32.426   0.251
92325W        W56533  11.165  12.300  11.996
92326W        W56534  33.048  10.693  11.936
92327W        W56535  28.458  26.596   1.391
92328W        W56536  10.167  18.171  10.895
92329W        W56537  22.031   9.701   4.317
92330W        W56538  43.836  28.666  12.580
92331W        W56539  33.388  35.999   1.820
92332W        W56540   6.411   2.832  13.356
92333W        W56541  24.679   7.320  14.482
92334W        W56542  27.960  34.409   1.255
92335W        W56543  23.068  40.477  12.402
92336W        W56544  32.044  17.151   0.801
92337W        W56545  44.874  19.645   1.234
92338W        W56546  35.985   0.922  11.935
92339W        W56547  35.026   2.295   2.218
92340W        W56548   3.247  33.047   4.310
92341W        W56549  27.188  41.352  11.880
92342W        W56550  18.769   2.747  11.867
92343W        W56551  11.790  15.746   4.630
92344W        W56552  38.057   9.873   0.339
92345W        W56553  22.024  33.908  12.001
92346W        W56554  22.746  15.795   4.227
92347W        W56555  19.144  21.257   4.175
92348W        W56556  32.422  26.547   4.704
92349W        W56557  11.214  12.193  14.424
92350W        W56558  22.195  14.692   4.201
92351W        W56559  15.229  20.213  14.403
92352W        W56560  26.546  38.485  13.900
92353W        W56561  10.216  29.001   1.762
92354W        W56562  36.918  16.647  12.497
92355W        W56563  16.729  41.883   2.777
92356W        W56564  34.114  32.005  10.552
92357W        W56565  20.717  31.539  14.460
92358W        W56566  32.630  11.809  11.973
92359W        W56567  44.930   1.329   0.289
92360W        W56568   1.296  34.557   3.351
92361W        W56569  28.521  10.821  13.957
92362W        W56570  30.468  30.029  14.362
92363W        W56571  14.692  23.550   1.436
92364W        W56572  13.782  13.627  12.411
92365W        W56573  32.141  34.912   1.837
92366W        W56574  12.728  27.025   2.895
92367W        W56575  40.988   1.825  14.762
92368W        W56576   0.461  38.399  11.524
92369W        W56577  33.005  39.471  14.430
92370W        W56578   9.210  44.288   4.640
92371W        W56579  20.224  29.011   9.987
92372W        W56580  22.198  15.662  12.471
92373W        W56581  25.989  36.877  13.022
92374W        W56582  32.636  28.174   2.179
92375W        W56583   2.866  13.152   1.404
92376W        W56584  27.109  38.424  13.317
92377W        W56585  24.623  24.532  12.062
92378W        W56586  34.612   0.385   2.732
92379W        W56587   8.395  22.172  11.049
92380W        W56588  23.527  34.946   3.183
92381W        W56589  21.095  20.558   5.147
92382W        W56590   3.399  20.706  11.459
92383W        W56591  12.205  40.897  10.558
92384W        W56592   1.322   4.271  13.925
92385W        W56593  18.774  17.614   2.714
92386W        W56594  32.616  37.392   2.360
92387W        W56595  39.959  43.823   1.739
92388W        W56596  13.197  33.427   0.752
92389W        W56597  29.473  34.521  13.931
92390W        W56598  43.303  19.725  13.327
92391W        W56599  24.137  32.045   5.283
92392W        W56600  30.980  11.837  10.046
92393W        W56601  24.616  27.535   2.734
92394W        W56602  28.971  19.742   2.784
92395W        W56603  17.572   7.187   0.894
92396W        W56604   6.206  35.405   2.702
92397W        W56605  34.933  24.146   1.390
92398W        W56606  10.683  10.838   2.345
92399W        W56607  24.491  30.929  14.994
92400W        W56608   0.889  26.116  12.431
92401W        W56609  30.504  35.923   0.920
92402W        W56610  10.734  39.966  13.313
92403W        W56611  10.756  23.196  12.861
92404W        W56612  18.546  37.915   4.197
92405W        W56613  38.409  17.112   2.665
92406W        W56614   3.447  37.010  12.544
92407W        W56615  14.835  35.438   3.361
92408W        W56616  11.225  15.746   3.803
92409W        W56617  26.994  38.014   1.330
92410W        W56618  19.710  13.684   2.411
92411W        W56619   9.151  15.592   1.371
92412W        W56620  41.456  40.933  12.908
92413W        W56621  39.817  24.119   3.763
92414W        W56622  13.341   6.868   0.470
92415W        W56623   7.309  17.220   1.861
92416W        W56624  29.580  16.095   5.194
92417W        W56625  29.456  34.886  10.579
92418W        W56626  41.347  37.554  10.643
92419W        W56627  19.774  11.634  10.579
92420W        W56628   5.880  31.477  14.827
92421W        W56629   5.418  24.550   2.205
92422W        W56630  36.880   4.281   3.280
92423W        W56631   1.336   9.246  10.453
92424W        W56632  39.518  34.969  13.418
92425W        W56633  33.946  37.073  10.424
92426W        W56634   6.238  37.337   4.122
92427W        W56635  20.724  43.360   2.292
92428W        W56636   4.820   5.221  12.060
92429W        W56637  15.290  44.922  14.492
92430W        W56638  12.171  28.182   2.777
92431W        W56639   7.809   3.299   2.738
92432W        W56640  22.151  36.050  12.500
92433W        W56641  38.475  18.562  14.328
92434W        W56642  27.490  17.154   0.327
92435W        W56643  19.181  30.483   1.895
92436W        W56644  41.873   3.722  12.528
92437W        W56645  43.492  16.274  11.046
92438W        W56646  13.602  38.515  11.128
92439W        W56647  37.849  17.664   5.190
92440W        W56648   0.929  35.478   1.396
92441W        W56649  40.813   3.828   1.352
92442W        W56650  40.403  20.165   2.793
92443W        W56651  41.886   7.340  13.374
92444W        W56652  24.680   0.830  11.373
92445W        W56653  36.943  41.510   3.195
92446W        W56654   1.743  44.283   0.726
92447W        W56655   4.811   8.727  12.970
92448W        W56656   7.186  32.093  14.816
92449W        W56657  32.623  37.388  10.602
92450W        W56658   8.696  26.995   4.214
92451W        W56659   9.309  31.442  13.412
92452W        W56660  16.144  10.774   3.203
92453W        W56661  22.746   5.237   3.806
92454W        W56662  18.688   8.858  14.502
92455W        W56663  10.336  34.009  13.949
92456W        W56664   0.908  28.501   0.257
92457W        W56665  10.670  15.703  13.915
92458W        W56666   8.825  40.375  14.320
92459W        W56667   8.376  20.218   3.325
92460W        W56668  15.654  14.273  10.459
92461W        W56669  26.525   3.453  14.978
92462W        W56670   2.901  37.868  12.016
92463W        W56671  15.185  20.551   1.244
92464W        W56672  29.462  30.638  13.479
92465W        W56673  41.496  18.278  11.433
92466W        W56674  42.462  43.326  14.401
92467W        W56675   5.434  39.456   0.245
92468W        W56676  12.313   8.248  13.467
92469W        W56677  17.073  40.350  12.930
92470W        W56678  35.479  23.022   2.854
92471W        W56679   7.278  44.287  14.427
92472W        W56680  32.935   3.359   0.354
92473W        W56681  19.215   0.380   4.714
92474W        W56682  37.054   3.757   3.208
92475W        W56683   9.844  15.272  10.935
92476W        W56684   8.765   1.824  12.091
92477W        W56685  43.294  15.142  13.032
92478W        W56686  32.003  35.368  13.054
92479W        W56687  29.926   0.276   4.707
92480W        W56688  19.634  11.627  13.388
92481W        W56689   9.391   9.705   4.184
92482W        W56690   7.208   5.827  11.127
92483W        W56691  37.883  34.872   2.859
92484W        W56692  40.012  36.443  12.383
92485W        W56693  15.589  13.602  10.999
92486W        W56694  43.452  37.550  11.460
92487W        W56695  43.828  24.208  14.432
92488W        W56696  35.929  14.716  13.342
92489W        W56697   6.845   0.421  13.971
92490W        W56698  13.760  11.774   0.429
92491W        W56699  38.488  17.133  12.977
92492W        W56700  10.357  27.169   0.926
92493W        W56701   2.722  21.535   2.193
92494W        W56702   3.889  17.652   0.381
92495W        W56703  25.018   7.293   0.910
92496W        W56704  41.908  40.914  11.569
92497W        W56705  18.111  15.805  10.138
92498W        W56706  39.538  31.018  14.820
92499W        W56707  33.555   4.381  12.575
92500W        W56708   2.888  20.038   4.288
92501W        W56709   6.190  39.365  11.523
92502W        W56710   7.672   5.242   2.234
92503W        W56711   4.228  29.640   4.783
92504W        W56712  21.698  30.087  14.383
92505W        W56713  26.155  41.370   1.920
92506W        W56714   7.364   8.852   1.810
92507W        W56715  18.294  16.607   2.247
92508W        W56716  37.065   0.277   2.787
92509W        W56717  21.135  39.994  11.571
92510W        W56718  39.536  28.051  10.436
92511W        W56719  26.209  13.697   1.762
92512W        W56720  15.609  22.713   0.305
92513W        W56721  31.012  13.193   2.696
92514W        W56722  13.638  36.013  11.019
92515W        W56723  28.650  13.742  11.413
92516W        W56724   4.242  29.932   1.822
92517W        W56725  22.241   0.437  14.404
92518W        W56726  17.715  15.721  13.381
92519W        W56727  35.427  19.734  12.867
92520W        W56728  38.834   8.694   5.211
92521W        W56729   7.737  32.990   3.845
92522W        W56730  30.654  36.538   3.819
92523W        W56731  38.458  17.307  10.486
92524W        W56732  17.742  32.959   1.447
92525W        W56733   8.665  22.029  10.070
92526W        W56734  14.184  42.930   0.274
92527W        W56735  38.893   1.429   2.299
92528W        W56736  40.455   2.730   0.438
92529W        W56737  26.038   2.230   4.322
92530W        W56738  36.854  36.380   4.164
92531W        W56739  28.099   3.435  11.023
92532W        W56740  32.939  32.480   2.890
92533W        W56741   2.737   5.379  14.342
92534W        W56742  28.164  18.201   5.091
92535W        W56743  21.249  18.696  12.007
92536W        W56744  12.257  41.834   3.769
92537W        W56745  34.932  44.440  13.889
92538W        W56746  26.034  16.655  12.389
92539W        W56747  34.096   1.873  13.962
92540W        W56748  14.761  44.341   2.738
92541W        W56749  24.007  15.634   2.401
92542W        W56750  34.092  18.780  11.870
92543W        W56751   3.873  40.852  12.505
92544W        W56752  33.418  39.334  14.364
92545W        W56753  20.157  34.513   3.380
92546W        W56754  28.123  35.020  13.822
92547W        W56755  12.755  32.443   0.894
92548W        W56756  32.606   0.440   4.686
92549W        W56757  35.872  44.922   3.692
92550W        W56758  21.743  26.191   4.769
92551W        W56759  44.308  41.034  14.470
92552W        W56760  23.724   1.793   4.708
92553W        W56761   7.695  35.019   1.286
92554W        W56762   1.350   9.264  11.096
92555W        W56763  27.605   2.873  13.915
92556W        W56764  19.274  16.787  10.530
92557W        W56765  40.837  10.805   3.273
92558W        W56766  18.188  30.927   1.229
92559W        W56767  25.008  35.525  12.020
92560W        W56768   7.398  26.136   0.758
92561W        W56769  17.777   2.347  10.993
92562W        W56770  12.164  21.593   3.688
92563W        W56771  18.618  12.296  12.550
92564W        W56772   8.283  16.097   4.282
92565W        W56773  37.069  37.411   1.866
92566W        W56774   4.944   9.685  12.469
92567W        W56775  26.512   4.856   1.222
92568W        W56776  32.936  16.708   5.092
92569W        W56777   8.702  41.382  14.406
92570W        W56778  37.994  24.106  10.489
92571W        W56779  27.621  29.634  14.775
92572W        W56780  32.540   8.882  14.019
92573W        W56781  30.006  40.439  11.974
92574W        W56782  27.092  11.651   3.206
92575W        W56783  30.145  16.246   0.403
92576W        W56784   4.314  10.179   4.688
92577W        W56785  21.590  38.976  13.367
92578W        W56786   4.412  17.216   4.324
92579W        W56787  27.195   2.329   1.712
92580W        W56788   9.216  32.939   3.376
92581W        W56789   6.302   3.956  14.459
92582W        W56790  22.576  41.338   3.856
92583W        W56791  26.662  18.241  11.105
92584W        W56792  17.210  43.970   2.678
92585W        W56793  43.899  36.536   1.874
92586W        W56794  16.259  43.348   1.873
92587W        W56795  34.052  28.144   2.832
92588W        W56796  18.609  31.977  12.043
92589W        W56797  12.353  44.447  11.957
92590W        W56798  23.535   0.492   2.361
92591W        W56799   6.281   9.730  10.951
92592W        W56800   0.270  37.419   9.513
92593W        W56801  20.136  29.122  11.023
92594W        W56802  30.575  15.581  12.881
92595W        W56803  33.527  18.176  14.775
92596W        W56804  25.179  30.637   4.818
92597W        W56805  42.304   7.897   2.301
92598W        W56806  25.092  42.909   1.701
92599W        W56807  25.038  13.728  11.537
92600W        W56808   9.824  21.035   0.359
92601W        W56809   4.433   3.409   4.298
92602W        W56810  34.955  26.540  11.588
92603W        W56811  37.503  42.524  13.825
92604W        W56812  43.342  12.622  11.064
92605W        W56813   3.262  25.497  12.458
92606W        W56814  13.197  37.085   2.845
92607W        W56815  10.218   9.737  10.050
92608W        W56816  17.629   4.360  13.475
92609W        W56817  34.394  38.493  11.371
92610W        W56818   8.401  27.163   3.296
92611W        W56819  18.185   8.749   3.663
92612W        W56820  35.081   3.834   4.255
92613W        W56821  40.398  16.290   1.238
92614W        W56822  13.147  40.989  13.393
92615W        W56823   6.363  40.939   1.863
92616W        W56824  27.961  36.990  13.403
92617W        W56825  23.092  18.763   5.288
92618W        W56826   7.683  28.505  14.379
92619W        W56827  11.836  35.464  12.891
92620W        W56828  11.648  41.469   4.329
92621W        W56829  41.903  15.606   3.719
92622W        W56830   2.941  20.663   2.321
92623W        W56831  22.573  10.146   5.172
92624W        W56832  23.125  42.449   2.798
92625W        W56833   2.728  35.882   0.422
92626W        W56834  40.472  26.036   0.865
92627W        W56835  25.707  20.231   1.428
92628W        W56836  14.818  30.972  12.037
92629W        W56837  16.734  33.524   2.240
92630W        W56838   1.411  33.487   2.287
92631W        W56839   1.949  12.752  10.442
92632W        W56840  13.324  44.432  14.507
92633W        W56841  39.817  15.208   3.780
92634W        W56842   9.745  36.394   3.352
92635W        W56843   9.191  39.900  14.375
92636W        W56844  12.154  39.895  13.900
92637W        W56845  11.862  14.267   4.288
92638W        W56846  35.393  15.671   3.643
92639W        W56847   4.209  41.310  12.547
92640W        W56848  42.388  11.237  12.515
92641W        W56849   6.218  39.980   1.406
92642W        W56850  12.127  10.702   1.321
92643W        W56851  38.563  32.612  13.455
92644W        W56852  38.916  42.791   4.647
92645W        W56853  17.166  12.817  11.514
92646W        W56854  34.881  39.427   4.246
92647W        W56855  36.952  20.206   4.665
92648W        W56856  24.709   6.340  11.882
92649W        W56857  21.705  32.455   3.208
92650W        W56858  39.414   5.203   4.255
92651W        W56859  21.743  18.563   2.802
92652W        W56860  37.029   5.760   1.356
92653W        W56861   8.890  33.626   0.903
92654W        W56862  38.965   1.367   4.829
92655W        W56863  43.942  19.224  12.420
92656W        W56864  42.492  19.226   3.710
92657W        W56865  32.940   0.329  11.427
92658W        W56866  12.745  20.116   1.407
92659W        W56867  31.126  23.987   0.918
92660W        W56868  18.663  34.491   2.215
92661W        W56869  24.645  28.491  10.947
92662W        W56870  44.285  16.109  11.529
92663W        W56871  38.422  30.025  11.543
92664W        W56872  18.709   9.221   4.135
92665W        W56873   8.715   9.771   1.345
92666W        W56874  42.525  33.544  13.368
92667W        W56875  22.665  26.624   2.256
92668W        W56876  16.664  29.030   2.180
92669W        W56877  28.628  15.150   9.470
92670W        W56878  43.009   9.886  13.022
92671W        W56879  11.759  42.345   2.403
92672W        W56880  33.596  43.856   3.278
92673W        W56881   9.877  30.028   4.838
92674W        W56882  16.800  33.080  13.052
92675W        W56883  16.231  34.525   4.323
92676W        W56884  44.501  28.634  13.501
92677W        W56885  29.514  38.034   1.807
92678W        W56886   6.831  27.070   2.397
92679W        W56887  37.086  43.274  13.937
92680W        W56888  16.116  39.829  13.460
92681W        W56889  33.614   9.874   2.830
92682W        W56890  43.897  25.613  10.579
92683W        W56891  35.574   2.764   2.402
92684W        W56892   6.760  22.512  10.518
92685W        W56893  43.867  21.109  13.353
92686W        W56894   4.438  32.089  14.020
92687W        W56895  28.113   6.918  14.278
92688W        W56896   4.932   3.293   9.923
92689W        W56897  18.563  23.145  14.480
92690W        W56898  42.522  29.033  12.997
92691W        W56899   0.831  19.159  10.455
92692W        W56900  30.933  25.543   1.872
92693W        W56901  40.022  25.680   2.326
92694W        W56902  11.701  23.686  10.554
92695W        W56903  15.281  36.871   2.374
92696W        W56904  15.183   0.397  13.328
92697W        W56905  31.613   9.263  11.015
92698W        W56906  23.107  19.105  10.085
92699W        W56907  17.674  17.087   3.761
92700W        W56908   7.755  32.438   0.916
92701W        W56909  29.560   9.333   3.645
92702W        W56910   9.167  37.909  13.041
92703W        W56911  34.421  35.048   1.288
92704W        W56912  40.809  12.164   3.243
92705W        W56913  31.088   6.855   4.696
92706W        W56914  23.501  30.925   0.874
92707W        W56915  23.566  19.079  12.835
92708W        W56916  12.188  29.095  13.953
92709W        W56917  21.647   0.372   2.860
92710W        W56918   3.284   3.241  10.971
92711W        W56919  43.979  33.416   2.695
92712W        W56920  15.579   6.798  10.425
92713W        W56921  28.624  19.243   1.804
92714W        W56922  29.943  42.358  13.913
92715W        W56923  39.370   5.893  11.534
92716W        W56924  41.320  22.182  12.922
92717W        W56925  26.186  26.543   5.134
92718W        W56926  36.025  29.512   2.666
92719W        W56927  40.384  36.420   3.294
92720W        W56928  32.587  14.327  10.636
92721W        W56929   9.243  28.064  12.898
92722W        W56930   6.387  30.559   2.835
92723W        W56931  20.260  16.745  14.432
92724W        W56932  38.891  39.522  10.032
92725W        W56933  25.511  35.559   2.193
92726W        W56934  33.020  24.508   2.331
92727W        W56935  11.139  23.183  11.496
92728W        W56936  39.493  35.363   2.835
92729W        W56937   5.861  43.388   0.761
92730W        W56938  13.174  38.455  11.579
92731W        W56939   4.872   8.398   1.714
92732W        W56940  24.145  21.731   4.643
92733W        W56941  30.107   5.800   4.756
92734W        W56942   6.882  28.059   3.370
92735W        W56943  37.022   8.702   1.427
92736W        W56944   1.280   0.384  11.444
92737W        W56945   2.773   6.198   0.736
92738W        W56946   2.363  33.897   2.249
92739W        W56947  41.893  25.084   4.125
92740W        W56948  25.478  12.669  14.329
92741W        W56949  10.228  12.669  12.007
92742W        W56950  13.654  14.155  11.911
92743W        W56951  14.321   5.816  12.945
92744W        W56952  39.831  43.330  10.490
92745W        W56953   0.382  17.074  10.503
92746W        W56954  43.415  17.245   1.422
92747W        W56955  36.406  33.620   5.224
92748W        W56956   0.383  33.087   2.321
92749W        W56957  20.588  26.584  14.287
92750W        W56958  20.558  21.253   1.272
92751W        W56959  38.330  29.428  14.786
92752W        W56960  24.639  27.575  11.406
92753W        W56961  21.043  12.295   1.918
92754W        W56962  12.300  38.997  10.416
92755W        W56963  28.121  16.179   1.700
92756W        W56964  30.651  26.178  14.936
92757W        W56965   0.273   6.919   3.378
92758W        W56966   8.718  34.550  12.057
92759W        W56967  20.246  44.894   1.700
92760W        W56968  24.150   9.738   2.328
92761W        W56969  44.414   9.192  12.367
92762W        W56970   3.281  16.620  13.017
92763W        W56971  10.823  20.067  10.523
92764W        W56972  16.575  38.325   1.744
92765W        W56973  15.810  41.887   1.811
92766W        W56974   1.955  31.028   1.342
92767W        W56975  30.965  37.504   4.734
92768W        W56976  37.860  32.563   1.391
92769W        W56977  19.602  41.805   4.616
92770W        W56978  23.654  39.460   3.223
92771W        W56979  21.589  33.471   1.830
92772W        W56980  30.008  30.613  10.466
92773W        W56981  41.935  22.612   0.415
92774W        W56982  41.504  43.909  12.846
92775W        W56983  41.796  39.957   1.316
92776W        W56984   9.364  13.708  12.857
92777W        W56985  25.652  35.092   4.651
92778W        W56986  42.491  31.930  11.474
92779W        W56987  43.511  10.662   1.304
92780W        W56988  17.664  21.214  12.898
92781W        W56989  23.037  19.193   3.241
92782W        W56990   4.747  35.556  13.439
92783W        W56991  27.196  28.637  11.890
92784W        W56992  10.347  38.399  12.477
92785W        W56993  32.502   4.363  14.940
92786W        W56994  18.626   4.429   1.794
92787W        W56995   7.318  41.294   0.965
92788W        W56996  38.891  20.030   4.254
92789W        W56997   2.379  20.725   3.782
92790W        W56998  18.643   1.924   3.355
92791W        W56999   3.421  26.505   2.190
92792W        W57000  29.427  37.509   0.841
92793W        W57001  39.386  32.887  12.010
92794W        W57002  15.221  30.912  12.348
92795W        W57003  12.652  42.499   0.879
92796W        W57004   0.416   4.715   1.381
92797W        W57005  11.782  28.175  14.294
92798W        W57006  26.014   8.229  12.967
92799W        W57007  43.772  23.052   0.269
92800W        W57008  15.809  13.288   5.182
92801W        W57009  25.494  35.059   3.368
92802W        W57010  37.973  35.037  14.332
92803W        W57011  16.723  34.951   3.268
92804W        W57012  42.454  25.131  13.495
92805W        W57013  10.289  26.583  12.016
92806W        W57014  40.382  32.094  11.996
92807W        W57015   4.871  39.994  10.989
92808W        W57016  29.104  29.430   2.871
92809W        W57017   5.689   4.842   3.677
92810W        W57018  40.473  24.696   3.346
92811W        W57019  19.773  24.165   1.345
92812W        W57020   4.374  25.710  13.521
92813W        W57021  10.186  27.614  13.954
92814W        W57022  33.974  16.109   9.938
92815W        W57023  32.453   9.370  14.345
92816W        W57024  13.739  37.339   2.692
92817W        W57025  13.664   6.878  11.958
92818W        W57026  20.722   5.223   5.221
92819W        W57027   6.205  41.928   1.855
92820W        W57028  38.059  32.087   3.694
92821W        W57029   4.810  20.247  14.924
92822W        W57030  33.950  28.455  14.900
92823W        W57031   4.288  19.596   2.709
92824W        W57032  25.182  36.580   1.767
92825W        W57033   8.364  30.506   1.412
92826W        W57034  27.973   2.721  13.331
92827W        W57035  31.073  15.106   1.796
92828W        W57036  36.359  42.332   4.759
92829W        W57037  25.514  26.588   4.348
92830W        W57038  24.128  13.294   0.317
92831W        W57039  31.451  31.063  13.421
92832W        W57040  20.725   5.334  13.886
92833W        W57041   3.261  42.916   1.751
92834W        W57042  28.107   9.183   1.223
92835W        W57043  31.973  42.343   2.184
92836W        W57044  26.644  14.212  11.426
92837W        W57045  26.060  11.826  12.949
92838W        W57046   4.706  20.194   4.295
92839W        W57047  17.093   6.697  12.940
92840W        W57048  19.713   0.877  10.895
92841W        W57049   9.326  35.053   4.198
92842W        W57050   3.755  40.906  12.866
92843W        W57051  39.024   2.300  14.776
92844W        W57052  25.552   3.759  12.988
92845W        W57053  15.158   3.885  12.395
92846W        W57054  38.076  16.743  11.563
92847W        W57055   9.808  33.973   2.349
92848W        W57056  17.793  32.595   3.785
92849W        W57057  34.371   6.203   2.414
92850W        W57058  20.525  40.940  10.490
92851W        W57059  25.530  37.384  13.854
92852W        W57060  31.445  36.844   3.206
92853W        W57061  14.830  23.581  11.867
92854W        W57062   3.231  24.110   4.741
92855W        W57063  13.173  13.236   2.762
92856W        W57064  34.436  38.858  14.400
92857W        W57065  23.173   3.422   1.287
92858W        W57066  37.544   5.250  14.393
92859W        W57067  35.993  37.355  14.374
92860W        W57068  19.702  30.483  14.759
92861W        W57069  17.146  37.949   0.279
92862W        W57070  40.312  37.374   4.603
92863W        W57071  39.996  40.510   3.264
92864W        W57072  26.625  16.166  14.284
92865W        W57073  39.949  24.172   4.310
92866W        W57074  14.311  42.464   4.609
92867W        W57075  26.584  21.188   2.393
92868W        W57076  30.442  12.299   1.698
92869W        W57077  15.814  26.988  14.323
92870W        W57078  30.110  18.133  14.004
92871W        W57079  31.000  23.054   0.445
92872W        W57080  37.423  43.395  14.024
92873W        W57081  33.886  41.815  11.884
92874W        W57082  11.868  38.405   1.935
92875W        W57083  18.585  22.100  11.114
92876W        W57084  42.407   4.934   0.337
92877W        W57085  25.003  32.611   2.848
92878W        W57086  28.570  38.439  10.578
92879W        W57087   4.317   3.833  14.405
92880W        W57088  24.595  12.141   4.707
92881W        W57089  39.504  44.901   1.423
92882W        W57090  33.439  23.199  11.590
92883W        W57091  15.152  30.142   0.269
92884W        W57092  34.511  37.843   0.818
92885W        W57093  12.249  26.663  13.826
92886W        W57094  42.903   6.824  14.374
92887W        W57095  33.616   0.962  13.861
92888W        W57096   2.308  17.715  12.463
92889W        W57097  26.572  28.467   4.131
92890W        W57098  39.900  28.531   3.724
92891W        W57099  24.621   1.300   0.436
92892W        W57100  30.575  19.116   4.705
92893W        W57101  38.833  42.840   2.396
92894W        W57102  30.163  32.982   2.746
92895W        W57103   2.375  38.835   3.708
92896W        W57104  18.288  37.062  11.993
92897W        W57105  38.492   3.911  13.353
92898W        W57106  26.464  38.898  10.948
92899W        W57107  21.188  24.084   4.228
92900W        W57108   4.817   7.778  14.955
92901W        W57109   0.351  23.112  14.421
92902W        W57110  34.389  15.591   3.326
92903W        W57111  21.684  43.776   1.751
92904W        W57112  28.535   4.326  13.828
92905W        W57113  34.451  44.792   0.419
92906W        W57114  10.137  33.401  14.472
92907W        W57115  41.956  35.414   1.357
92908W        W57116  30.935  30.545  13.330
92909W        W57117  27.461  24.629  14.444
92910W        W57118  25.048   1.904  10.951
92911W        W57119   0.471  26.039   0.837
92912W        W57120  29.032   1.737   0.749
92913W        W57121  38.950  40.357  11.977
92914W        W57122  19.260  42.888  13.012
92915W        W57123  31.998  40.532   0.373
92916W        W57124  35.560  27.165   1.932
92917W        W57125  16.757   1.977   3.718
92918W        W57126  26.667   3.409   1.338
92919W        W57127  26.077   8.228   1.764
92920W        W57128  26.114  35.424  10.890
92921W        W57129  24.163  27.659   1.864
92922W        W57130   0.973  44.987   0.910
92923W        W57131  30.034  15.701   3.378
92924W        W57132  20.679   3.902   1.931
92925W        W57133  35.893  30.980  12.940
92926W        W57134   9.183  16.614   2.687
92927W        W57135  18.128  18.762  13.870
92928W        W57136  32.946  10.353   2.875
92929W        W57137  13.657  35.585   1.305
92930W        W57138  16.638  16.120   2.385
92931W        W57139  33.878   6.325  14.011
92932W        W57140   9.233  18.622   0.436
92933W        W57141  39.977  10.147   4.664
92934W        W57142  33.018  33.012  10.992
92935W        W57143  31.517  37.044  14.500
92936W        W57144  11.351  11.165  14.437
92937W        W57145  11.782  22.121   3.311
92938W        W57146  27.104  37.000   1.313
92939W        W57147   0.365  33.484  12.341
92940W        W57148  22.110  38.959   3.744
92941W        W57149  33.915   6.680  11.871
92942W        W57150   8.789   1.760  10.557
92943W        W57151  38.488  32.526  10.539
92944W        W57152  29.950  31.136  13.503
92945W        W57153  36.354  16.768   4.248
92946W        W57154   4.211  27.944  14.365
92947W        W57155  31.580  38.438  14.276
92948W        W57156   9.234  29.038  11.099
92949W        W57157  24.650  19.135  13.964
92950W        W57158  31.060  36.520  13.062
92951W        W57159  24.975  39.065   4.343
92952W        W57160  37.374  31.574   0.843
92953W        W57161  26.984  21.537  12.955
92954W        W57162  17.066  16.725   9.985
92955W        W57163   9.844   6.307   3.207
92956W        W57164  21.591  12.182   1.795
92957W        W57165   3.369  34.389   2.813
92958W        W57166  22.684   4.849  10.111
92959W        W57167  32.463   3.273   4.179
92960W        W57168  25.163  39.541   2.738
92961W        W57169  18.099   9.664  11.091
92962W        W57170  26.480  14.731   5.266
92963W        W57171   2.901  10.719  14.909
92964W        W57172  44.320  19.619  13.490
92965W        W57173  21.224  10.275  13.042
92966W        W57174   9.223  22.205   0.916
92967W        W57175  42.404  26.547   3.674
92968W        W57176  44.415  43.873   3.781
92969W        W57177  43.851  40.967   4.163
92970W        W57178  11.322  35.067   1.868
92971W        W57179  41.533  44.375   2.808
92972W        W57180  41.024  16.798   1.423
92973W        W57181  16.746  14.699   0.473
92974W        W57182  37.467  24.043  13.325
92975W        W57183  42.481  35.880   2.713
92976W        W57184  24.670  37.038   3.151
92977W        W57185  39.314  12.162  10.503
92978W        W57186  17.146  44.969   4.645
92979W        W57187  44.386  17.667  11.579
92980W        W57188  34.527  43.898   0.903
92981W        W57189  20.759  26.490   1.704
92982W        W57190  43.764  29.174   3.147
92983W        W57191  33.083   9.298   4.147
92984W        W57192  24.705  14.663  12.443
92985W        W57193  33.433  12.360  11.400
92986W        W57194   9.802  33.613   2.856
92987W        W57195  44.456  34.381  13.538
92988W        W57196  17.612  34.486   4.648
92989W        W57197  10.373  28.609  11.486
92990W        W57198  30.514  30.652   4.210
92991W        W57199   0.760  38.356  11.514
92992W        W57200  29.050  33.494  13.970
92993W        W57201  18.141   7.230   1.713
92994W        W57202   5.924  34.014  14.400
92995W        W57203   4.366  16.248  12.364
92996W        W57204  43.884  44.976   4.233
92997W        W57205  21.042  37.544   4.628
92998W        W57206  20.632   9.199  10.530
92999W        W57207  44.380  33.593  11.928
93000W        W57208  13.676   0.788   3.782
93001W        W57209   9.291  43.384  13.034
93002W        W57210  33.947   5.906   4.190
93003W        W57211  19.556   4.344  12.547
93004W        W57212  30.442  16.720   3.727
93005W        W57213  33.015  34.932  13.910
93006W        W57214  24.659  21.170  13.532
93007W        W57215  32.070  15.810  13.060
93008W        W57216  29.610   0.746   0.734
93009W        W57217  19.556  19.690   2.192
93010W        W57218  23.012  10.694   0.798
93011W        W57219  11.339  39.899   1.835
93012W        W57220  29.668  22.176  13.444
93013W        W57221   4.705  10.259  14.302
93014W        W57222  32.099  23.194   3.260
93015W        W57223  28.526   4.799  10.106
93016W        W57224  33.981  30.596   3.196
93017W        W57225   3.423  26.573  11.593
93018W        W57226  13.235  23.581  11.949
93019W        W57227  27.949  26.010  11.420
93020W        W57228   1.735  43.390   0.386
93021W        W57229   9.169  33.587   2.690
93022W        W57230  19.771  18.254  11.053
93023W        W57231   5.379  26.009  14.762
93024W        W57232  25.109  34.890   3.682
93025W        W57233  28.948   5.789  11.460
93026W        W57234   7.690  38.466   1.346
93027W        W57235  39.408  17.563   3.258
93028W        W57236  13.728  29.493  13.364
93029W        W57237   5.227   4.787  14.479
93030W        W57238  16.607  43.431  11.870
93031W        W57239  43.371  34.464  14.775
93032W        W57240  24.131  23.127   0.756
93033W        W57241  20.633  32.907  10.578
93034W        W57242  13.224  20.552   3.283
93035W        W57243  33.969  34.074  12.503
93036W        W57244  30.967  24.184  11.922
93037W        W57245  21.685  31.013   3.287
93038W        W57246  39.528  40.955   4.124
93039W        W57247  31.415  32.068   1.798
93040W        W57248  14.626  34.006  13.813
93041W        W57249  33.537  14.767  10.421
93042W        W57250  12.835  37.015  10.411
93043W        W57251   2.234  25.963   4.730
93044W        W57252  44.965  24.569   2.257
93045W        W57253  16.202  38.542   0.430
93046W        W57254  43.962  37.578   3.206
93047W        W57255  35.387   0.337   2.212
93048W        W57256  20.697  27.075   3.727
93049W        W57257  31.450  22.647  14.499
93050W        W57258  42.996  25.140   1.235
93051W        W57259  24.619  25.488   3.296
93052W        W57260  33.465  15.669  10.588
93053W        W57261  11.687  19.155   3.146
93054W        W57262  35.872  16.595  14.833
93055W        W57263  14.591   8.803   4.798
93056W        W57264   8.833  15.638  11.603
93057W        W57265   4.291   2.259  12.410
93058W        W57266  35.555  25.980   2.259
93059W        W57267  17.143  25.532   0.735
93060W        W57268  15.798  14.620   0.347
93061W        W57269  10.237  32.953  14.781
93062W        W57270  18.166   4.733   4.642
93063W        W57271  16.751  13.833   2.713
93064W        W57272  31.992  31.102   2.734
93065W        W57273  34.511  25.571   3.271
93066W        W57274   3.816  12.305   4.326
93067W        W57275  34.589  34.565  14.948
93068W        W57276   6.217  22.718  11.000
93069W        W57277  11.669  33.875  13.831
93070W        W57278  13.767   6.903   1.416
93071W        W57279  35.911   2.740   3.686
93072W        W57280   6.864  33.997  14.454
93073W        W57281  32.511   9.219   2.838
93074W        W57282  35.450  12.158  10.998
93075W        W57283  11.291   4.447  10.964
93076W        W57284  24.510  39.347  14.849
93077W        W57285  11.845  27.115   3.364
93078W        W57286  31.963  16.219   1.784
93079W        W57287   4.829  32.103   1.843
93080W        W57288  29.087  17.073   3.362
93081W        W57289  40.862  14.275  10.582
93082W        W57290  42.433  33.930  11.894
93083W        W57291  20.154   3.726  12.972
93084W        W57292  28.612   3.418  14.448
93085W        W57293  28.678  25.549   0.250
93086W        W57294   2.346  10.675  13.435
93087W        W57295   6.733  31.496   3.863
93088W        W57296  20.219  41.963   4.703
93089W        W57297  18.785  40.534   5.219
93090W        W57298   0.808  17.247  13.418
93091W        W57299  36.356  10.166  13.431
93092W        W57300  12.731  25.497   4.121
93093W        W57301  21.748  17.242   2.269
93094W        W57302  14.178  43.436  11.509
93095W        W57303  25.480  23.617  11.555
93096W        W57304   2.310  19.698  11.125
93097W        W57305   5.934  33.470   2.240
93098W        W57306  31.630  32.535  11.988
93099W        W57307  21.055  23.028  10.619
93100W        W57308  38.969   9.776   5.224
93101W        W57309  13.797  12.834   1.319
93102W        W57310  28.070   0.362   1.306
93103W        W57311  42.363   9.347  14.920
93104W        W57312  35.375  16.609   0.290
93105W        W57313  15.118  14.695  11.605
93106W        W57314  28.457  19.219  11.407
93107W        W57315  11.764  13.818   9.481
93108W        W57316  27.999  30.522  11.091
93109W        W57317   2.919  39.541   0.467
93110W        W57318  27.559  27.132   1.361
93111W        W57319  12.612  19.621   3.647
93112W        W57320  22.539  20.557   4.664
93113W        W57321   8.270   2.851  11.444
93114W        W57322   2.346  35.536  11.941
93115W        W57323  25.064  31.944  12.570
93116W        W57324  25.072  10.752  11.984
93117W        W57325  38.479  41.802  10.459
93118W        W57326   9.280  14.332  13.346
93119W        W57327  32.138  25.115  14.464
93120W        W57328  43.859   9.644  12.530
93121W        W57329  38.939  21.227  12.064
93122W        W57330   7.713   4.850   3.200
93123W        W57331   6.285  33.882  13.804
93124W        W57332  30.095  33.435  13.932
93125W        W57333   9.250   9.320   0.331
93126W        W57334  25.101  32.073  11.513
93127W        W57335  34.920  38.827   2.877
93128W        W57336  25.046  40.966  11.067
93129W        W57337   8.365  35.555  13.828
93130W        W57338  39.967  11.651   4.752
93131W        W57339  32.570   0.473   2.332
93132W        W57340  19.638  13.143   3.832
93133W        W57341   8.772  41.459  13.478
93134W        W57342   8.828   5.755   4.721
93135W        W57343  25.644  29.112   3.375
93136W        W57344  40.318  26.972   0.342
93137W        W57345  44.917  31.131   0.808
93138W        W57346  20.140  31.086  14.500
93139W        W57347   6.779   7.365  14.330
93140W        W57348  26.693  40.804   2.816
93141W        W57349  31.009  32.463   0.778
93142W        W57350  24.524  24.633   2.258
93143W        W57351  35.415  13.747   0.846
93144W        W57352  16.600   6.424   0.341
93145W        W57353  38.463  34.871  11.481
93146W        W57354  40.355  40.529   2.805
93147W        W57355  25.542   8.741   5.224
93148W        W57356  32.926  33.932   3.770
93149W        W57357  35.430  15.718  13.353
93150W        W57358  31.048  36.432  13.987
93151W        W57359  44.415  32.625   1.258
93152W        W57360  32.578  20.216   0.293
93153W        W57361  11.673  44.309  10.520
93154W        W57362  19.730   3.898   3.322
93155W        W57363  16.600  32.589   1.812
93156W        W57364  13.802  11.782  14.478
93157W        W57365  25.501   6.243  13.940
93158W        W57366  16.767  44.357   3.343
93159W        W57367  22.630  32.916  12.969
93160W        W57368  16.636  26.123  12.894
93161W        W57369  15.733   9.686   3.733
93162W        W57370  29.565  34.111   0.306
93163W        W57371  23.733  21.705  12.841
93164W        W57372  35.978  22.543  12.573
93165W        W57373  11.190  10.154   3.711
93166W        W57374  24.104   4.874   3.820
93167W        W57375  22.527  29.024   2.311
93168W        W57376   6.812  27.623   4.328
93169W        W57377   7.403  39.814  11.497
93170W        W57378  43.992  26.087  14.424
93171W        W57379  12.751  22.583  13.808
93172W        W57380  28.160  19.159  14.865
93173W        W57381  23.193   0.884   4.139
93174W        W57382   7.832   1.406   4.784
93175W        W57383  16.077  18.248   2.687
93176W        W57384   2.751   8.853  13.469
93177W        W57385  11.313  14.639  13.323
93178W        W57386  23.141  25.486  12.371
93179W        W57387  12.315   2.787  13.352
93180W        W57388  41.374  36.027   1.773
93181W        W57389  43.834  13.622  13.863
93182W        W57390  41.984   7.682   2.182
93183W        W57391  21.523  26.102  14.806
93184W        W57392  23.660  15.694  14.389
93185W        W57393  18.199  30.412   4.794
93186W        W57394  23.080   1.847  10.517
93187W        W57395   2.849  25.500   1.827
93188W        W57396  13.252   2.775  11.971
93189W        W57397  34.898  28.933  11.081
93190W        W57398  19.204  30.497  11.521
93191W        W57399  22.527   3.818  10.889
93192W        W57400  26.605  12.310  14.890
93193W        W57401  12.719   1.977   0.846
93194W        W57402  41.952  25.596  11.902
93195W        W57403  21.580  13.287  12.379
93196W        W57404   5.225  11.867  12.438
93197W        W57405  12.760   7.706  14.492
93198W        W57406  38.496  11.624  14.331
93199W        W57407  10.247  15.221   0.260
93200W        W57408  37.570   7.252   0.816
93201W        W57409  10.264  39.856   4.126
93202W        W57410  17.612  35.406   4.292
93203W        W57411  38.535  40.423  13.989
93204W        W57412  26.631  25.708  13.013
93205W        W57413  43.409   0.797  12.085
93206W        W57414   5.436  38.931   0.441
93207W        W57415  20.057   5.232   0.929
93208W        W57416  23.102  19.154   0.840
93209W        W57417   1.403  40.996  14.391
93210W        W57418  19.582  33.448   0.739
93211W        W57419   0.458  18.632  11.470
93212W        W57420  24.689  23.060  14.474
93213W        W57421  43.879   6.188  12.080
93214W        W57422   1.388   9.185  12.901
93215W        W57423   5.733  18.069   2.842
93216W        W57424   8.289   8.225   1.916
93217W        W57425  28.937  17.133   0.423
93218W        W57426  23.633  18.061   2.198
93219W        W57427   3.287   5.917  13.541
93220W        W57428  32.619  36.974  13.333
93221W        W57429  27.673  24.085  14.308
93222W        W57430  40.008  39.512   1.823
93223W        W57431  20.625   8.311   2.844
93224W        W57432  30.108  31.487  14.912
93225W        W57433  25.084   6.323   0.383
93226W        W57434  14.743  23.175   2.276
93227W        W57435  19.670  19.258  11.556
93228W        W57436  17.085  35.020  12.464
93229W        W57437   6.738  35.598  10.448
93230W        W57438  37.984  10.207  12.557
93231W        W57439   0.374   1.382   0.454
93232W        W57440  32.031  34.391  11.921
93233W        W57441  22.700  28.511   4.819
93234W        W57442  22.581   0.815  10.495
93235W        W57443  41.359  11.156   4.167
93236W        W57444  24.499  11.199  12.521
93237W        W57445  19.569   0.868   0.386
93238W        W57446  31.990  12.776  14.982
93239W        W57447  14.164  14.162  14.787
93240W        W57448  38.483  40.029   3.692
93241W        W57449  31.957  36.582  12.030
93242W        W57450  21.204  33.959  12.830
93243W        W57451  11.676  31.554  12.970
93244W        W57452  42.403  19.558   0.431
93245W        W57453  28.570   9.701  12.007
93246W        W57454   7.706  37.011   0.855
93247W        W57455  33.880   9.152  12.025
93248W        W57456  15.269  36.845  11.966
93249W        W57457  34.895   2.757   1.279
93250W        W57458  32.392  44.458   2.354
93251W        W57459  35.075  25.009   2.797
93252W        W57460   6.844  12.297   0.741
93253W        W57461  44.940  21.077   0.378
93254W        W57462  37.443  15.118  13.021
93255W        W57463  11.368  44.347   2.229
93256W        W57464  15.197   8.813  12.516
93257W        W57465  32.525   4.320  12.456
93258W        W57466   6.796  36.378  13.858
93259W        W57467  36.458   5.722  10.026
93260W        W57468  14.730  12.256   2.733
93261W        W57469   6.694  22.089  12.899
93262W        W57470   4.741  36.083  12.386
93263W        W57471  32.129  37.582   1.239
93264W        W57472  33.964  33.900   1.909
93265W        W57473   2.900  33.609  13.015
93266W        W57474  31.130   8.272  10.947
93267W        W57475  42.488  43.371   3.343
93268W        W57476   0.751  30.563  11.882
93269W        W57477  10.170  40.383   4.313
93270W        W57478  40.365  33.118   0.879
93271W        W57479  32.893  37.965   0.946
93272W        W57480  34.011  26.606   0.728
93273W        W57481  37.473   2.727   1.759
93274W        W57482   7.810  36.984  13.826
93275W        W57483  17.220   9.196   1.283
93276W        W57484   7.739  22.059   1.910
93277W        W57485  10.340  41.327   0.762
93278W        W57486   6.879  25.567  13.983
93279W        W57487  33.947  23.235   1.276
93280W        W57488   1.743  18.079  13.487
93281W        W57489  34.510  42.435  13.869
93282W        W57490   3.269  35.032   0.324
93283W        W57491  10.175   2.369   1.795
93284W        W57492  23.052  40.834  11.877
93285W        W57493  42.480  32.097  12.431
93286W        W57494  20.192   4.776   2.379
93287W        W57495  17.726  36.561   5.708
93288W        W57496  10.220  21.044   2.231
93289W        W57497  36.896   4.378   0.386
93290W        W57498  15.769  13.736  13.055
93291W        W57499  20.252  32.998  10.634
93292W        W57500  13.747  18.654  14.837
93293W        W57501  27.635  16.280  10.559
93294W        W57502  11.676  28.537  11.928
93295W        W57503  16.136  15.675   2.252
93296W        W57504  36.969  11.292  12.865
93297W        W57505  10.159  38.446  10.639
93298W        W57506  16.674   2.415  11.494
93299W        W57507  40.860  42.031   3.648
93300W        W57508  32.570   8.212   3.198
93301W        W57509  40.519  25.603   4.320
93302W        W57510  35.519  28.028  11.530
93303W        W57511  40.480  25.618  14.802
93304W        W57512   5.887  14.240   0.937
93305W        W57513  37.471   5.688  13.981
93306W        W57514  40.450  28.626  14.419
93307W        W57515  38.863   8.833  12.848
93308W        W57516  37.951   3.267   1.416
93309W        W57517  14.647   1.417  13.816
93310W        W57518  27.486  16.764   0.444
93311W        W57519   1.241  24.192   0.288
93312W        W57520  14.207  30.055  11.957
93313W        W57521   2.884  38.950   1.367
93314W        W57522  23.106  25.080  13.403
93315W        W57523   6.718  17.191  14.491
93316W        W57524  37.054  30.111  10.602
93317W        W57525  34.037  44.764  11.576
93318W        W57526   3.945   6.892  11.425
93319W        W57527  22.536   7.393   1.257
93320W        W57528  18.636  20.271  11.046
93321W        W57529  17.655  28.560   2.831
93322W        W57530  30.056  22.040   1.266
93323W        W57531  13.828  14.158   0.425
93324W        W57532  19.165  42.944   4.767
93325W        W57533  32.007  18.550   4.267
93326W        W57534  15.698  13.297   0.302
93327W        W57535  10.782   9.158   0.243
93328W        W57536  14.705  26.529  14.016
93329W        W57537  28.121   3.335  13.378
93330W        W57538  16.693  34.470   4.119
93331W        W57539  34.453  44.869  14.809
93332W        W57540  28.021  14.295   2.258
93333W        W57541  44.420  36.910   0.272
93334W        W57542  11.241  32.130   4.317
93335W        W57543  17.795  39.004   5.652
93336W        W57544  43.313  20.118   0.254
93337W        W57545  31.405  18.658   0.926
93338W        W57546   7.394   1.842   3.316
93339W        W57547   2.406  32.928   1.236
93340W        W57548  28.019  38.961  11.990
93341W        W57549  17.699  39.443   4.637
93342W        W57550  40.313  28.048  14.370
93343W        W57551   0.855   5.262   2.195
93344W        W57552  42.469  27.124   4.209
93345W        W57553  21.218  12.265  12.537
93346W        W57554  27.061  30.105  13.879
93347W        W57555  36.547   8.387   0.898
93348W        W57556   0.980   2.859   1.347
93349W        W57557  29.430  40.419   2.188
93350W        W57558  25.538  43.456   4.768
93351W        W57559  28.607  27.519  10.968
93352W        W57560  23.670  44.003   4.784
93353W        W57561  25.050  17.671  13.902
93354W        W57562  44.899  30.103   1.866
93355W        W57563  36.992  14.190   4.838
93356W        W57564   1.961  20.037   3.376
93357W        W57565  17.148  29.652   3.650
93358W        W57566   7.693  42.824   3.334
93359W        W57567  22.011  31.603   4.739
93360W        W57568  25.582  16.194  14.873
93361W        W57569  29.121  23.684  12.519
93362W        W57570  25.487  38.875   2.357
93363W        W57571  39.868  40.409  11.548
93364W        W57572  41.510  40.439  14.483
93365W        W57573  39.496  38.560   0.931
93366W        W57574  16.703   9.788  12.076
93367W        W57575  27.189   0.435  13.908
93368W        W57576  15.293   4.258  14.315
93369W        W57577  44.450  19.608   2.387
93370W        W57578   1.850  40.897  11.960
93371W        W57579   9.179  23.203  11.115
93372W        W57580   1.350  12.339   1.727
93373W        W57581  17.570  31.554  13.931
93374W        W57582  24.524   5.405  14.511
93375W        W57583  43.353  31.421  11.038
93376W        W57584  37.354  33.569  14.966
93377W        W57585   2.926  10.702  10.523
93378W        W57586   2.269   0.930  12.039
93379W        W57587  34.051   6.349  14.351
93380W        W57588  15.727  25.191  10.441
93381W        W57589  27.655   0.424  11.964
93382W        W57590  32.943  38.472  12.556
93383W        W57591  12.818  35.934  12.032
93384W        W57592  28.462   7.227   0.424
93385W        W57593  17.112  25.101  11.967
93386W        W57594  19.650  42.830  12.909
93387W        W57595  42.282   1.471   4.317
93388W        W57596  32.928  22.636  14.318
93389W        W57597  22.687  23.046   0.248
93390W        W57598  17.651  27.144   1.395
93391W        W57599  36.449  42.028   2.879
93392W        W57600  36.881  22.150  12.848
93393W        W57601  14.722  41.493  11.536
93394W        W57602  44.901  10.379  10.603
93395W        W57603  37.051   7.768   2.302
93396W        W57604  35.403  12.804   0.341
93397W        W57605  25.642  41.827   1.758
93398W        W57606  13.617  38.554  13.477
93399W        W57607  15.733  30.149  13.854
93400W        W57608  19.622  23.497  10.987
93401W        W57609  30.963   0.899  10.065
93402W        W57610  21.602  26.566  12.488
93403W        W57611  27.519  34.079   2.370
93404W        W57612   9.168  37.346  12.032
93405W        W57613  11.770   2.821  11.488
93406W        W57614  20.243  28.975   1.929
93407W        W57615   7.719  11.812  10.953
93408W        W57616  30.617  22.511   3.311
93409W        W57617  15.126  33.969  14.028
93410W        W57618  22.187  14.745  10.936
93411W        W57619   3.799   3.746  11.401
93412W        W57620  27.555  27.650  14.513
93413W        W57621   5.262   5.256   2.315
93414W        W57622  11.263   7.743  11.019
93415W        W57623  25.973  13.325   4.119
93416W        W57624   3.772   7.271  10.475
93417W        W57625   4.297  29.055  10.985
93418W        W57626   9.177  35.418  10.530
93419W        W57627  15.606  42.964   3.858
93420W        W57628  27.988  30.114  11.603
93421W        W57629  35.478  20.123  14.407
93422W        W57630  21.579  38.420  12.092
93423W        W57631   6.880  12.681  11.915
93424W        W57632  36.489   2.790   3.362
93425W        W57633  12.168  18.260  14.923
93426W        W57634  24.012  43.380   1.346
93427W        W57635  20.659   4.354  13.873
93428W        W57636  32.906  26.168   4.718
93429W        W57637  14.340  39.382   0.258
93430W        W57638  28.065  31.592  14.829
93431W        W57639  35.985  14.738  14.976
93432W        W57640   6.218  25.713  11.891
93433W        W57641  17.584  30.094   1.876
93434W        W57642  10.756  11.341  13.018
93435W        W57643  13.805  25.117   3.776
93436W        W57644  27.451  37.995  11.093
93437W        W57645  35.052   9.231  14.838
93438W        W57646  20.582  32.576  14.000
93439W        W57647  24.604   7.222   2.752
93440W        W57648  12.198  31.976   1.338
93441W        W57649  13.755   2.368  11.062
93442W        W57650  29.948  25.216  12.069
93443W        W57651  23.687  23.664   4.219
93444W        W57652  13.345  14.331  10.524
93445W        W57653  26.196   9.365   3.210
93446W        W57654  13.663  39.507  12.427
93447W        W57655   9.754  17.673  14.797
93448W        W57656  15.313  26.546   3.174
93449W        W57657   2.920  13.270  10.910
93450W        W57658  30.593  41.444  12.507
93451W        W57659  23.610  16.233  11.567
93452W        W57660  14.201   2.228  11.077
93453W        W57661   5.928  26.190   4.156
93454W        W57662  10.876  32.904   4.823
93455W        W57663  19.545  27.966  12.006
93456W        W57664  18.613   4.264   5.779
93457W        W57665  44.311   0.950  14.844
93458W        W57666  24.140  30.135  11.372
93459W        W57667  27.975   6.383  14.855
93460W        W57668  13.759  38.908  12.054
93461W        W57669   9.814  16.243  10.496
93462W        W57670  40.828  33.967   0.421
93463W        W57671   5.319  37.963   1.879
93464W        W57672  31.059  38.025  14.776
93465W        W57673  30.083  32.603  12.032
93466W        W57674  20.269  21.628  11.052
93467W        W57675  23.113  39.034   1.744
93468W        W57676  28.645  16.632  12.946
93469W        W57677  41.525  44.299  12.058
93470W        W57678  40.915   3.249   2.243
93471W        W57679  17.232   9.780   4.632
93472W        W57680  12.181  37.947   1.324
93473W        W57681   5.810  16.082  14.969
93474W        W57682  30.142  43.484  13.466
93475W        W57683  28.962   9.872  13.411
93476W        W57684   2.430  25.683  14.326
93477W        W57685  13.668  38.409   4.206
93478W        W57686  25.977  17.708   2.360
93479W        W57687  11.135  24.591  14.797
93480W        W57688  21.615  24.638   2.733
93481W        W57689  21.198  35.912  13.443
93482W        W57690  23.070  29.498  14.765
93483W        W57691  12.617  21.254  12.070
93484W        W57692   4.698  32.936   3.168
93485W        W57693  37.376   1.456   1.335
93486W        W57694  35.582  17.170  11.592
93487W        W57695  11.270  23.603   3.867
93488W        W57696  32.579  42.311  14.940
93489W        W57697   8.684  35.903  10.010
93490W        W57698  34.991   4.204  14.491
93491W        W57699  40.425  17.069   3.180
93492W        W57700  25.001  11.325   3.217
93493W        W57701  44.873  11.253   3.797
93494W        W57702  23.679  17.800   3.288
93495W        W57703  33.476  10.159   0.852
93496W        W57704  11.687  41.014   1.396
93497W        W57705  30.425  31.958   4.658
93498W        W57706   3.797   3.771   1.319
93499W        W57707  38.371  32.030   4.216
93500W        W57708   4.432  16.716  12.553
93501W        W57709  37.025   7.298   0.428
93502W        W57710  25.543   2.786  13.341
93503W        W57711  11.329  10.865  11.474
93504W        W57712  28.001   6.683   3.791
93505W        W57713  24.029  11.289   4.304
93506W        W57714  14.794  36.932   4.693
93507W        W57715  16.126  18.709   1.218
93508W        W57716  41.399  13.776   2.774
93509W        W57717  31.597  19.233  12.977
93510W        W57718  18.736  40.991   5.276
93511W        W57719  21.105  40.404  10.465
93512W        W57720  28.152  39.344  12.083
93513W        W57721  26.986   9.709  12.981
93514W        W57722  16.270  30.130   0.821
93515W        W57723  23.165  15.328  14.345
93516W        W57724  41.814   3.280  13.544
93517W        W57725   8.885   5.435   1.214
93518W        W57726  38.921  27.957   0.921
93519W        W57727   5.302  17.657  11.524
93520W        W57728  35.531  33.401   2.767
93521W        W57729  39.917  43.494  14.315
93522W        W57730  17.066  28.503   3.316
93523W        W57731  12.623   9.883  10.612
93524W        W57732  21.635   5.381   4.748
93525W        W57733  38.433   5.238   1.842
93526W        W57734   9.852  33.625   0.444
93527W        W57735  34.937  32.132   1.379
93528W        W57736  43.510   8.322  11.099
93529W        W57737  13.259   5.886   3.831
93530W        W57738  28.135  42.894   5.299
93531W        W57739  40.882   1.953  13.383
93532W        W57740  39.028  12.153  12.503
93533W        W57741   6.812  31.607   3.185
93534W        W57742  29.535  31.547  10.901
93535W        W57743  26.096   9.776  14.373
93536W        W57744  28.463  36.381  10.528
93537W        W57745  43.014  15.230   3.633
93538W        W57746  42.857  32.599  13.375
93539W        W57747  41.811   8.755  12.520
93540W        W57748   4.927  30.502  11.049
93541W        W57749  12.213  27.606  10.572
93542W        W57750  44.459  37.046   3.675
93543W        W57751  24.122  38.865  14.359
93544W        W57752   3.264   6.826  12.351
93545W        W57753   1.967   3.930  10.608
93546W        W57754  10.772   5.882  12.895
93547W        W57755  39.502  42.833  13.907
93548W        W57756  28.986  37.857  14.887
93549W        W57757  38.839   5.880   0.776
93550W        W57758  30.453  14.790   3.383
93551W        W57759  37.482  33.609   3.685
93552W        W57760  44.775  21.156   3.763
93553W        W57761  29.538  20.203  13.897
93554W        W57762  37.832  23.146  14.440
93555W        W57763  44.388  30.153  12.843
93556W        W57764  12.736   3.385  14.889
93557W        W57765   6.412   6.917  10.925
93558W        W57766  28.132  35.002   1.386
93559W        W57767  24.089  31.112  12.479
93560W        W57768   5.398  44.305   2.362
93561W        W57769  18.641  34.015  12.972
93562W        W57770  41.958  35.376   3.332
93563W        W57771   5.359  20.673  11.564
93564W        W57772  37.548  44.452  14.480
93565W        W57773  34.407  31.947  12.579
93566W        W57774  36.990  33.108  13.316
93567W        W57775  15.653  32.402   0.727
93568W        W57776  39.013  18.706   2.303
93569W        W57777  41.496  11.662  11.423
93570W        W57778  42.436  41.399   4.787
93571W        W57779  21.631  24.115  14.485
93572W        W57780   5.747  42.847  13.383
93573W        W57781   5.843  44.267   0.343
93574W        W57782  25.484   2.361  13.443
93575W        W57783  37.928   6.318  14.357
93576W        W57784  14.137   9.237   4.273
93577W        W57785  11.668  10.650  12.959
93578W        W57786  31.001  20.123   4.824
93579W        W57787  19.119  16.145  14.355
93580W        W57788  10.683  11.726   2.868
93581W        W57789  28.127  34.094   3.288
93582W        W57790  12.796  26.968  12.925
93583W        W57791   2.360  16.227  12.934
93584W        W57792  13.153  22.707   1.318
93585W        W57793  19.131  24.056  11.901
93586W        W57794  13.741  42.812   3.200
93587W        W57795  14.275  25.635   2.399
93588W        W57796  20.220  35.497  12.073
93589W        W57797  34.452  39.335  14.944
93590W        W57798  23.502  38.921   3.265
93591W        W57799  40.901  25.525  12.356
93592W        W57800  41.340  31.080  13.345
93593W        W57801  32.475   1.423  14.455
93594W        W57802   4.770   3.768   4.837
93595W        W57803  43.788  13.127   2.290
93596W        W57804   0.304   8.394  10.627
93597W        W57805  31.648  19.171   3.675
93598W        W57806   5.210  40.876   0.397
93599W        W57807  41.414   4.814   0.369
93600W        W57808  42.512   1.421  13.013
93601W        W57809  43.958  14.122   0.418
93602W        W57810  15.746   9.288   3.852
93603W        W57811  11.672  19.555   9.965
93604W        W57812   3.263  43.871   4.832
93605W        W57813  20.595  31.070   0.844
93606W        W57814  29.641  44.443  11.996
93607W        W57815  17.277  21.681   0.732
93608W        W57816  29.161  19.230   3.311
93609W        W57817  33.954   9.260  12.448
93610W        W57818   7.339  36.894   4.115
93611W        W57819  42.802   9.801  10.947
93612W        W57820  41.387  31.536   0.315
93613W        W57821   9.862  25.985   2.367
93614W        W57822  31.516  22.051   4.126
93615W        W57823  16.657  23.656  12.826
93616W        W57824   5.243  22.634  12.868
93617W        W57825  38.934  13.721   4.140
93618W        W57826   8.398  11.137  10.565
93619W        W57827  40.484  41.296   3.804
93620W        W57828  21.104   4.769  14.895
93621W        W57829  39.905  15.801   3.148
93622W        W57830   2.945  21.249  13.431
93623W        W57831  18.563  12.683   0.799
93624W        W57832  20.049   6.381  13.384
93625W        W57833   7.311  16.151  12.433
93626W        W57834  11.333  22.621   1.219
93627W        W57835  37.849  13.130   4.336
93628W        W57836  40.010  26.495   0.911
93629W        W57837  10.201  27.137  10.095
93630W        W57838   3.259  37.424   3.664
93631W        W57839  24.188  26.108  12.501
93632W        W57840   2.284  38.470  12.921
93633W        W57841  42.355  39.967   0.873
93634W        W57842  16.571  18.093   4.268
93635W        W57843  41.452  13.262  11.904
93636W        W57844  18.174  36.520   3.871
93637W        W57845  38.050  41.439   4.728
93638W        W57846   9.364  18.184  14.348
93639W        W57847  24.079  16.228   1.241
93640W        W57848  44.923  26.690  12.090
93641W        W57849  15.208  42.514   3.215
93642W        W57850   0.463  44.793  11.580
93643W        W57851  27.991  43.877   4.825
93644W        W57852  10.746  10.668  13.311
93645W        W57853  25.169   2.365  14.013
93646W        W57854  39.866  24.662  12.925
93647W        W57855  12.275   1.825  13.406
93648W        W57856   2.799  14.098  13.381
93649W        W57857  12.849  40.812  11.109
93650W        W57858  40.974  42.487  14.282
93651W        W57859  22.512  10.333   0.737
93652W        W57860  11.742  13.616  11.517
93653W        W57861  29.667   2.763   4.836
93654W        W57862  21.233  32.543   1.423
93655W        W57863  38.525  31.092  10.929
93656W        W57864  29.612  31.554  11.540
93657W        W57865  23.672  40.315  12.581
93658W        W57866  26.118  40.899  12.013
93659W        W57867   7.327  27.446  10.627
93660W        W57868  35.941  38.824  12.462
93661W        W57869  15.656  43.411   4.790
93662W        W57870  13.623   9.695   2.667
93663W        W57871   0.897  30.952  11.601
93664W        W57872   2.349   9.816   3.236
93665W        W57873  12.752  44.502  10.438
93666W        W57874   4.422  42.864   3.704
93667W        W57875  29.123  22.513   1.338
93668W        W57876   9.751  23.563  13.355
93669W        W57877   6.759  27.505   1.820
93670W        W57878  29.023  34.101   4.218
93671W        W57879  25.505  17.765  14.507
93672W        W57880  19.572  40.009  14.914
93673W        W57881  18.790  32.489   0.946
93674W        W57882  20.690   9.258  10.960
93675W        W57883   2.744  23.580   4.167
93676W        W57884  30.114  25.995   1.713
93677W        W57885   3.718  21.654  14.833
93678W        W57886  11.735  10.636   3.345
93679W        W57887   3.296   4.428  10.629
93680W        W57888  26.146  17.295   0.338
93681W        W57889  36.063  14.295  10.913
93682W        W57890  33.508  29.552  10.629
93683W        W57891  37.525  23.519  12.563
93684W        W57892  40.381  28.522  10.497
93685W        W57893  32.093  44.398   0.886
93686W        W57894  32.935  28.149  11.484
93687W        W57895  10.334  29.971   1.855
93688W        W57896  22.148  12.675   3.826
93689W        W57897  30.639  11.662  12.543
93690W        W57898  22.074  31.620   1.834
93691W        W57899  24.069   2.380   3.638
93692W        W57900  15.807  27.604  10.003
93693W        W57901  12.780   1.378   0.297
93694W        W57902  43.455   4.904   0.732
93695W        W57903   9.757  11.230   4.649
93696W        W57904  15.656  27.552   3.684
93697W        W57905  22.216   4.416  12.363
93698W        W57906   2.939  19.731  10.509
93699W        W57907  33.010  23.516   3.855
93700W        W57908  37.976   3.416  14.982
93701W        W57909  10.685  28.523  10.563
93702W        W57910  22.518  40.422  12.362
93703W        W57911  38.409   0.781   4.172
93704W        W57912  20.214  35.491   4.321
93705W        W57913  38.373  12.254   1.351
93706W        W57914  36.060   0.789   4.274
93707W        W57915  35.567   4.252  12.000
93708W        W57916  21.755   4.237   4.689
93709W        W57917  22.029  12.234   2.752
93710W        W57918  24.091  14.764   4.195
93711W        W57919  37.911   8.189  13.490
93712W        W57920   3.922   1.874  11.103
93713W        W57921  33.610  31.546   2.665
93714W        W57922  44.286   2.390   1.414
93715W        W57923  39.975  42.397  10.935
93716W        W57924  42.844  20.235  12.473
93717W        W57925  38.885  43.859   1.360
93718W        W57926  12.171  36.885   4.773
93719W        W57927  41.426  20.601   3.348
93720W        W57928   9.653  43.779  12.511
93721W        W57929  26.639  19.677   2.378
93722W        W57930  28.116   1.839   2.740
93723W        W57931  40.891  11.844  11.023
93724W        W57932  26.088   3.874   2.839
93725W        W57933  24.974   4.231   3.859
93726W        W57934  38.992  27.103  10.997
93727W        W57935   7.806  20.229  14.473
93728W        W57936  41.838   4.343   2.186
93729W        W57937   1.396  16.798  14.820
93730W        W57938   2.389  14.160   3.236
93731W        W57939  22.725  38.508   0.452
93732W        W57940  30.628   6.740   4.337
93733W        W57941  20.071  30.981  13.012
93734W        W57942  12.806  15.634  14.386
93735W        W57943  43.410  10.248  10.499
93736W        W57944  12.328  16.219  14.788
93737W        W57945  40.806  20.169  13.331
93738W        W57946  25.201  21.051  13.816
93739W        W57947  17.229  20.594  10.456
93740W        W57948  11.148  11.692  13.530
93741W        W57949   2.732   2.852  12.050
93742W        W57950   0.306  20.599  14.345
93743W        W57951  23.715   4.287  14.851
93744W        W57952   6.781  32.432  14.922
93745W        W57953  32.070  22.134   1.907
93746W        W57954  13.831  39.893   1.700
93747W        W57955  33.476   1.896   0.942
93748W        W57956  23.013  38.349  11.556
93749W        W57957  34.895  19.745   4.345
93750W        W57958   2.863  14.623   0.459
93751W        W57959  24.057  36.045  11.947
93752W        W57960  32.906  42.949  13.501
93753W        W57961  15.297  12.672   4.654
93754W        W57962  18.581  20.165   2.697
93755W        W57963  18.210  35.507   0.299
93756W        W57964  11.640   0.836   2.846
93757W        W57965   9.712  22.153   3.729
93758W        W57966  16.759   2.334  12.480
93759W        W57967  41.497  22.702   3.711
93760W        W57968  27.945  30.559   9.956
93761W        W57969   5.870  38.922  12.879
93762W        W57970   7.758  32.599  11.008
93763W        W57971  25.652  13.182  11.099
93764W        W57972  35.989  39.962  13.472
93765W        W57973  12.798  13.729   2.835
93766W        W57974  36.968  34.493  10.449
93767W        W57975   5.772  13.605  10.542
93768W        W57976  43.848  34.380  10.959
93769W        W57977   0.966  39.931   1.226
93770W        W57978  38.440  19.752  14.032
93771W        W57979  43.972  37.867  12.387
93772W        W57980  13.676  41.338   3.780
93773W        W57981  35.099  28.079   2.671
93774W        W57982  39.995  12.261  10.428
93775W        W57983  27.036  29.523  10.430
93776W        W57984  34.452  19.690   0.454
93777W        W57985  31.117  43.949  13.041
93778W        W57986  28.602   0.408   4.812
93779W        W57987  11.818   4.753  13.946
93780W        W57988  18.280   5.428   1.279
93781W        W57989  28.136  30.551  13.989
93782W        W57990   6.681  13.193   3.730
93783W        W57991  41.447  22.196   2.410
93784W        W57992  22.194   7.379  13.796
93785W        W57993  28.491  30.542   3.304
93786W        W57994  22.076   6.774  13.893
93787W        W57995  27.177  19.570  13.523
93788W        W57996   9.317   6.282   2.304
93789W        W57997  16.117  43.008  11.002
93790W        W57998  25.021  39.339   3.324
93791W        W57999  10.179  43.436   3.844
93792W        W58000  17.086  13.706  11.899
93793W        W58001   4.408  11.799  14.805
93794W        W58002  39.963  33.095  11.565
93795W        W58003  32.040  37.914   1.244
93796W        W58004  26.104  36.085  12.414
93797W        W58005  23.137  19.184  10.961
93798W        W58006  22.216   6.865   3.862
93799W        W58007  16.100  26.525  12.444
93800W        W58008  42.866  44.831   0.328
93801W        W58009   1.237   6.875  13.874
93802W        W58010  44.369  14.797   3.747
93803W        W58011  10.666  26.505  10.626
93804W        W58012  27.616  31.448  14.985
93805W        W58013  29.430  34.916   2.214
93806W        W58014  11.791  33.566   2.249
93807W        W58015  20.620  14.731  11.471
93808W        W58016  28.529  15.197  10.891
93809W        W58017   3.730  26.104  14.386
93810W        W58018  44.811  13.708   2.254
93811W        W58019  12.765  24.989   2.759
93812W        W58020  21.152  35.996  14.502
93813W        W58021  14.229  20.648   1.239
93814W        W58022  30.589  28.529   2.219
93815W        W58023  43.820  11.819   1.907
93816W        W58024  19.775  21.599  13.391
93817W        W58025  33.620   2.383   1.427
93818W        W58026  43.418  27.108   2.235
93819W        W58027  17.582  35.917  10.007
93820W        W58028  19.116  31.006  11.500
93821W        W58029  12.298  11.745  11.115
93822W        W58030  21.525  38.439   2.234
93823W        W58031  10.719  30.572   3.344
93824W        W58032  24.975  37.060   2.315
93825W        W58033  14.100   7.341  10.566
93826W        W58034   0.940   2.776  10.965
93827W        W58035  39.385  37.541   2.788
93828W        W58036  32.605  18.273  12.449
93829W        W58037  44.455  28.451  12.573
93830W        W58038   6.911  36.033  14.778
93831W        W58039  19.212  40.042  14.295
93832W        W58040  20.634  38.873   5.277
93833W        W58041  13.199  41.809   3.850
93834W        W58042  18.162   1.415  10.448
93835W        W58043  38.569  40.953   3.783
93836W        W58044  38.976  16.688   3.800
93837W        W58045  18.692   4.332   1.334
93838W        W58046  31.448  14.290  14.780
93839W        W58047   1.774  41.786  11.950
93840W        W58048  42.502  14.793   1.727
93841W        W58049  35.556   4.240   1.828
93842W        W58050   6.199  21.568   1.869
93843W        W58051  34.887  32.622   0.896
93844W        W58052  37.029  39.465  11.094
93845W        W58053  26.697  30.039   2.293
93846W        W58054  33.076  14.329  11.051
93847W        W58055   4.243  38.378   3.151
93848W        W58056  21.158  29.150   2.667
93849W        W58057  44.830  22.208  13.329
93850W        W58058   4.702   4.709  14.839
93851W        W58059  28.566  30.541  11.605
93852W        W58060   6.711  24.073  11.586
93853W        W58061  39.383  34.961   0.763
93854W        W58062  41.843  34.076   3.738
93855W        W58063  38.466   8.325  13.488
93856W        W58064  27.680  41.938   3.714
93857W        W58065  10.319  41.411   1.401
93858W        W58066   8.403  42.334  10.560
93859W        W58067  23.604  27.004  11.458
93860W        W58068  37.850  25.146  11.891
93861W        W58069  41.383   4.794  12.841
93862W        W58070   2.878   4.389   1.882
93863W        W58071  16.787  13.252   4.140
93864W        W58072   6.198  16.575  12.824
93865W        W58073   6.869  44.975  13.825
93866W        W58074   0.985   3.712   5.121
93867W        W58075   5.423  18.071  11.464
93868W        W58076  19.249  26.461  10.961
93869W        W58077   4.219  20.054  10.441
93870W        W58078  36.413  28.022   4.776
93871W        W58079  19.085  38.378   0.811
93872W        W58080   8.815  27.500  14.396
93873W        W58081  42.340  20.059  12.378
93874W        W58082  14.285  26.690   1.227
93875W        W58083  22.243   2.835  12.945
93876W        W58084  14.659   1.275   2.186
93877W        W58085  26.996   9.298  11.863
93878W        W58086  24.595  28.495   2.677
93879W        W58087  33.565  22.223   2.680
93880W        W58088  18.739  15.111   2.772
93881W        W58089   2.354  42.833   3.777
93882W        W58090   2.897  11.299  14.473
93883W        W58091  26.112  22.209   4.784
93884W        W58092   8.253  13.624  14.502
93885W        W58093  22.066  24.192  12.440
93886W        W58094  37.002   5.754   3.242
93887W        W58095  27.549  31.148   1.921
93888W        W58096  31.086   5.396  14.394
93889W        W58097   7.205  43.841  13.793
93890W        W58098   0.754  20.127   3.754
93891W        W58099  11.743  22.628   4.771
93892W        W58100  38.996  17.087   0.951
93893W        W58101  23.646  18.559   0.282
93894W        W58102   8.794   1.929   0.377
93895W        W58103  37.080  15.702   2.673
93896W        W58104  33.049   0.869   4.155
93897W        W58105   8.329  42.894  12.873
93898W        W58106  22.248  13.279  12.924
93899W        W58107  33.424  33.898   1.311
93900W        W58108  24.549   0.876  12.541
93901W        W58109  39.877  33.548  11.911
93902W        W58110   7.759  25.559   1.809
93903W        W58111  42.492  15.649  14.396
93904W        W58112  29.658  24.533  10.905
93905W        W58113   7.217   2.357   1.736
93906W        W58114  41.490  18.642  14.968
93907W        W58115  43.335  18.226   5.611
93908W        W58116  36.954  28.443  12.439
93909W        W58117  23.564  21.539  11.589
93910W        W58118  31.920   1.900   4.742
93911W        W58119  30.608  42.315  11.605
93912W        W58120  44.885  19.155   1.248
93913W        W58121  40.041  34.901  11.099
93914W        W58122  43.932   7.665   0.461
93915W        W58123  36.443   9.360   3.636
93916W        W58124  25.681   4.383  12.966
93917W        W58125  25.584  19.047   1.371
93918W        W58126  36.892  43.301   0.900
93919W        W58127  25.132  16.208   3.218
93920W        W58128  19.280   3.433  11.920
93921W        W58129  24.168  22.105  14.909
93922W        W58130  32.110  26.631  14.379
93923W        W58131   4.263  21.239   0.408
93924W        W58132   2.891   1.879   1.806
93925W        W58133  14.259  39.828   2.287
93926W        W58134  29.653  34.020   4.176
93927W        W58135  20.058   2.923   0.963
93928W        W58136  28.662  43.772   0.791
93929W        W58137  24.534  38.825   1.716
93930W        W58138  41.355   1.756  11.937
93931W        W58139  16.761  41.514   4.350
93932W        W58140  26.598  30.553  11.411
93933W        W58141   6.874  30.539   0.424
93934W        W58142  24.711   5.825   2.665
93935W        W58143  43.879  28.452  14.484
93936W        W58144  33.473  29.618   5.193
93937W        W58145  28.525  15.711   2.779
93938W        W58146   6.919  24.509   2.265
93939W        W58147   4.249  10.383   3.225
93940W        W58148  39.384   8.777  12.993
93941W        W58149   8.660   7.771  11.599
93942W        W58150  38.872   1.869   3.788
93943W        W58151  13.706   5.373  13.891
93944W        W58152   5.209  16.224   3.187
93945W        W58153   5.880  24.549  14.029
93946W        W58154  26.117  27.981  12.453
93947W        W58155   1.376   8.386  13.404
93948W        W58156  29.530  11.367  11.478
93949W        W58157  20.612   4.762   3.658
93950W        W58158  35.979  42.503  14.762
93951W        W58159  36.070   3.837  12.472
93952W        W58160  36.064  11.240   0.321
93953W        W58161  15.089  28.067   1.304
93954W        W58162  44.984  16.811  12.547
93955W        W58163  32.570  30.069   2.349
93956W        W58164  43.894  40.834  11.077
93957W        W58165   5.260  32.410  11.920
93958W        W58166  23.240  39.412   3.870
93959W        W58167  31.575   9.836   2.365
93960W        W58168   2.273   5.297  10.493
93961W        W58169  30.507  34.996  12.870
93962W        W58170  11.635   1.429  13.323
93963W        W58171   5.295  22.589  12.537
93964W        W58172  31.452  25.096   1.773
93965W        W58173  22.560  20.087   4.823
93966W        W58174   7.718  19.056  14.945
93967W        W58175   2.314  12.632   9.989
93968W        W58176  31.930  19.083  14.915
93969W        W58177   7.259  41.425  12.423
93970W        W58178  35.034  14.217  11.980
93971W        W58179  32.460  44.489  12.829
93972W        W58180   4.797  37.551   3.146
93973W        W58181  19.261  16.791  13.911
93974W        W58182  19.216   5.220   0.267
93975W        W58183  21.197  38.854   3.362
93976W        W58184  30.942  13.300  14.827
93977W        W58185  10.230  27.165  10.582
93978W        W58186  38.498  36.438   1.778
93979W        W58187  27.597  37.429  12.443
93980W        W58188  32.478   4.434   4.125
93981W        W58189  29.651   2.444  12.455
93982W        W58190  23.188   3.793   1.391
93983W        W58191  33.879  15.635   4.744
93984W        W58192  22.527   3.279  12.378
93985W        W58193  39.900   3.320   1.910
93986W        W58194  20.130   8.822  12.874
93987W        W58195  22.542  23.499  11.607
93988W        W58196   3.827  34.004   1.758
93989W        W58197   9.352  44.759  13.401
93990W        W58198  26.004  43.788   0.243
93991W        W58199  26.463  28.639   2.852
93992W        W58200  26.545  21.149   0.395
93993W        W58201   3.383  43.503   1.861
93994W        W58202  39.879  17.079   2.363
93995W        W58203  35.082  20.036   2.246
93996W        W58204  12.621  18.554  12.383
93997W        W58205  17.574   6.676  13.839
93998W        W58206   0.819  42.012   2.344
93999W        W58207  36.396  12.297  11.453
94000W        W58208  22.180   5.883   5.138
94001W        W58209  18.285  12.699  14.864
94002W        W58210  34.398  35.878  12.013
94003W        W58211  41.517  21.531   4.802
94004W        W58212  27.582   5.419  14.895
94005W        W58213   1.758   5.910   4.352
94006W        W58214   0.396  21.636  11.419
94007W        W58215   5.785  43.961   4.140
94008W        W58216   4.706  35.495   2.379
94009W        W58217  30.620  36.520  13.397
94010W        W58218   5.897  27.615   3.837
94011W        W58219  23.712  31.545   1.866
94012W        W58220   1.969  33.450   2.190
94013W        W58221  17.670  22.510  13.846
94014W        W58222   9.284   9.830  14.477
94015W        W58223  38.883  35.459   1.225
94016W        W58224  44.368  23.181   2.192
94017W        W58225  23.686  26.102   3.262
94018W        W58226  30.552  20.533  13.353
94019W        W58227  44.300   6.340   2.348
94020W        W58228  13.241   0.785   1.426
94021W        W58229  12.332   0.947   0.791
94022W        W58230  23.681  10.793   1.900
94023W        W58231  12.247  10.727   2.388
94024W        W58232   0.769  42.367  12.053
94025W        W58233  35.586   6.203  11.433
94026W        W58234  29.489  11.827   5.107
94027W        W58235  12.694  26.079   0.461
94028W        W58236  23.582  39.479  10.440
94029W        W58237  14.099   1.373  11.372
94030W        W58238   4.912  26.025   4.320
94031W        W58239  30.933  16.288  11.567
94032W        W58240  41.839  32.077  11.077
94033W        W58241   6.833  29.121  13.040
94034W        W58242   6.225  32.456  11.559
94035W        W58243  33.612  28.562  13.997
94036W        W58244  12.256  18.086   3.780
94037W        W58245   4.291  14.814  14.020
94038W        W58246  43.394  21.582  12.474
94039W        W58247   5.217  14.093   2.259
94040W        W58248  35.891  25.987  14.909
94041W        W58249  33.043   7.173  12.880
94042W        W58250  18.235  28.544   0.945
94043W        W58251   9.753  35.401  13.311
94044W        W58252  17.225  36.921  13.371
94045W        W58253  43.296  19.594   3.861
94046W        W58254   9.155  22.686  11.546
94047W        W58255  36.498  40.808  11.569
94048W        W58256  33.132  23.219   3.783
94049W        W58257   8.884  44.494  11.082
94050W        W58258  18.688  14.710  10.590
94051W        W58259   1.426  14.658  13.939
94052W        W58260  12.849  26.067  11.093
94053W        W58261  19.220  11.767   2.389
94054W        W58262  22.016  22.035   3.207
94055W        W58263  42.493  17.061  14.789
94056W        W58264  44.499   2.745  11.980
94057W        W58265  29.495  19.094   2.183
94058W        W58266  31.961  36.074   1.210
94059W        W58267  35.603   7.413  13.907
94060W        W58268  20.193   6.288   1.767
94061W        W58269   8.752  22.100  12.995
94062W        W58270  22.502  36.967  11.550
94063W        W58271   5.720  16.313  13.978
94064W        W58272  25.681  23.203   2.788
94065W        W58273  19.260   5.853  10.981
94066W        W58274  23.699  37.430  13.470
94067W        W58275  31.078   6.307  11.385
94068W        W58276  21.120  21.072   0.756
94069W        W58277   4.298   9.731  10.448
94070W        W58278  18.141  11.663   1.419
94071W        W58279  12.262  23.616  12.385
94072W        W58280  20.082  36.458  13.040
94073W        W58281  37.039  40.905   4.644
94074W        W58282  32.059  18.138  14.843
94075W        W58283   1.425   6.832  14.772
94076W        W58284  22.239  11.282   3.672
94077W        W58285   5.931  42.929  14.881
94078W        W58286  27.084  28.672   4.662
94079W        W58287  23.220  36.467  11.961
94080W        W58288  34.582  35.520  12.968
94081W        W58289   8.691  37.930  12.355
94082W        W58290  20.543  44.816  13.360
94083W        W58291  15.589  17.557  14.333
94084W        W58292  35.505  41.460   4.123
94085W        W58293   0.437  25.990   4.644
94086W        W58294   5.891  36.044   4.185
94087W        W58295  17.723  35.517   2.839
94088W        W58296   2.254  21.523  11.907
94089W        W58297  30.101  20.757   1.910
94090W        W58298  13.796  42.921   4.762
94091W        W58299  16.759  17.657  11.115
94092W        W58300  13.745   2.900   1.231
94093W        W58301  39.535   5.264  10.997
94094W        W58302  43.806  15.798  14.765
94095W        W58303  29.669  17.077  11.530
94096W        W58304   8.308   9.649   0.947
94097W        W58305  35.961  23.106  10.468
94098W        W58306  40.931  42.281   3.329
94099W        W58307  16.664  27.597  14.941
94100W        W58308  43.327  39.063  14.021
94101W        W58309  22.203  40.474   0.347
94102W        W58310  25.103  15.620   5.190
94103W        W58311  42.332  18.264  12.948
94104W        W58312  43.894   7.723   0.898
94105W        W58313   2.375  40.546  13.429
94106W        W58314   8.729   5.704  10.633
94107W        W58315  15.155  16.791   3.282
94108W        W58316  18.263   0.941  10.444
94109W        W58317  32.904   2.444  10.403
94110W        W58318  25.527  34.088   4.600
94111W        W58319  31.573   5.315  12.911
94112W        W58320  34.491  42.014  14.316
94113W        W58321  41.404  15.660   9.923
94114W        W58322  35.931   5.211  10.569
94115W        W58323  33.877   9.291   3.341
94116W        W58324   0.979  43.930  11.000
94117W        W58325  39.447   3.868  12.565
94118W        W58326  20.105  13.107   4.662
94119W        W58327   6.810  27.647  14.410
94120W        W58328  24.503  39.355   2.392
94121W        W58329  40.467  26.462  11.457
94122W        W58330  25.098  38.484   0.357
94123W        W58331   7.174   0.904  10.431
94124W        W58332  12.243   5.777   1.220
94125W        W58333  39.912  40.453   1.900
94126W        W58334  38.027  22.160   3.757
94127W        W58335   0.465   9.836   2.779
94128W        W58336  27.955  13.814   0.316
94129W        W58337  13.216  26.485  14.392
94130W        W58338  18.785  17.693   2.182
94131W        W58339  29.964  19.752  11.989
94132W        W58340  28.564   3.343   1.237
94133W        W58341  14.280  16.727  11.522
94134W        W58342   9.829  40.536  11.125
94135W        W58343  17.106  29.026  13.364
94136W        W58344  14.172   6.705   2.675
94137W        W58345  39.972  33.987   1.419
94138W        W58346  28.952  13.640   2.796
94139W        W58347  28.670   6.396  10.417
94140W        W58348  26.989  28.071   0.416
94141W        W58349   9.720  42.508   3.668
94142W        W58350  17.662   0.405  14.916
94143W        W58351  17.705   6.827   3.750
94144W        W58352   0.869  33.988   9.673
94145W        W58353  37.440  24.219  10.930
94146W        W58354  42.901  28.010  14.280
94147W        W58355  20.671   3.907   3.331
94148W        W58356  17.242   0.301   4.124
94149W        W58357  37.977  29.159   1.824
94150W        W58358   1.399  32.044  12.033
94151W        W58359  16.117  25.596   2.665
94152W        W58360   7.707  23.722  14.476
94153W        W58361  20.736  20.150   0.731
94154W        W58362   8.818  19.688   4.352
94155W        W58363  39.510  12.768   3.630
94156W        W58364  35.381  33.022  13.333
94157W        W58365   8.894  34.978   4.739
94158W        W58366   0.262  13.308  10.629
94159W        W58367  27.647  31.139   4.719
94160W        W58368  28.981  27.946   0.373
94161W        W58369  10.670   4.902   1.391
94162W        W58370  17.710  11.340   1.805
94163W        W58371  31.525   8.253   3.260
94164W        W58372   2.803  44.837  11.481
94165W        W58373  33.382  22.675   5.167
94166W        W58374  40.329  44.454   2.702
94167W        W58375  27.940  20.052  10.906
94168W        W58376  39.443   5.217   2.673
94169W        W58377  31.445  22.696  13.377
94170W        W58378  21.146  36.959   1.851
94171W        W58379  16.598  29.087  11.472
94172W        W58380   3.264  25.629   3.346
94173W        W58381  21.154  31.974  12.428
94174W        W58382   1.346  35.909  12.979
94175W        W58383  34.510  29.458  13.905
94176W        W58384  31.517   7.183  11.863
94177W        W58385   4.278  23.676  12.823
94178W        W58386  21.263  32.441  13.955
94179W        W58387   0.748  33.520  10.479
94180W        W58388  44.296  36.508  11.046
94181W        W58389  44.888   0.844   0.314
94182W        W58390  23.590  38.466   4.727
94183W        W58391   4.358  23.169  11.075
94184W        W58392  42.492  14.701  12.433
94185W        W58393  36.583  24.158   1.252
94186W        W58394  11.226  11.352   1.218
94187W        W58395  13.811   5.366  13.500
94188W        W58396   5.785  21.194   3.869
94189W        W58397  32.990  26.634  12.034
94190W        W58398  37.395   7.677  11.444
94191W        W58399   7.685  19.763  11.477
94192W        W58400   1.948  27.517   0.424
94193W        W58401  30.099  39.008   1.292
94194W        W58402  44.886   2.251   4.326
94195W        W58403  32.130  35.044  12.998
94196W        W58404   4.856  30.610   1.405
94197W        W58405  13.159   2.917  13.961
94198W        W58406  26.964  24.516  12.578
94199W        W58407  11.362  44.867  14.435
94200W        W58408  27.024  41.931  11.940
94201W        W58409  20.242  43.360  11.524
94202W        W58410  22.122   2.317  11.019
94203W        W58411   1.752  14.222   0.792
94204W        W58412   9.778  27.000   4.190
94205W        W58413  25.509  28.603  11.969
94206W        W58414  27.077  20.122  13.379
94207W        W58415  16.745  42.865   0.908
94208W        W58416  25.182   4.824  11.051
94209W        W58417  18.722  23.537  14.938
94210W        W58418  32.625  32.112   2.715
94211W        W58419  40.036   9.307   4.128
94212W        W58420  30.911   4.731   0.739
94213W        W58421   7.272  20.649   2.185
94214W        W58422  33.582  20.216  12.063
94215W        W58423   7.702  33.402   0.781
94216W        W58424  27.057  39.348   0.751
94217W        W58425   3.842  37.942   0.352
94218W        W58426  17.784  28.557  13.934
94219W        W58427  26.970   1.952  14.872
94220W        W58428   8.404  34.935  11.001
94221W        W58429  33.590   8.777   2.221
94222W        W58430  32.634   9.176  13.814
94223W        W58431  28.162  34.557  13.332
94224W        W58432  22.067  16.638   1.336
94225W        W58433   0.451  12.678  13.851
94226W        W58434  22.142  41.922  14.766
94227W        W58435  23.072   9.682  11.077
94228W        W58436   3.788  11.856   2.785
94229W        W58437  41.803  23.151  10.587
94230W        W58438  25.572  15.278  14.489
94231W        W58439  17.713  35.562  13.482
94232W        W58440  11.231  43.908   2.681
94233W        W58441   0.367   7.740   0.385
94234W        W58442  34.050  39.361   2.388
94235W        W58443   5.326   5.306   1.421
94236W        W58444  26.577  31.424  14.356
94237W        W58445  11.827  22.598  12.371
94238W        W58446  10.836  41.022  14.301
94239W        W58447  12.287  28.066  14.515
94240W        W58448  15.099  26.053   1.890
94241W        W58449  17.719   6.906   0.916
94242W        W58450  10.273  18.547  10.496
94243W        W58451   4.223  31.054   0.817
94244W        W58452  25.529  40.526   1.343
94245W        W58453  30.140   3.314  11.443
94246W        W58454   9.860  39.543   1.796
94247W        W58455   9.267  37.914  10.470
94248W        W58456  12.799   2.736  14.869
94249W        W58457  44.343  42.295  11.436
94250W        W58458   2.409   4.315   2.314
94251W        W58459  15.633  34.100   0.836
94252W        W58460  29.444  17.770   2.220
94253W        W58461  13.321   6.729   3.359
94254W        W58462  11.289  35.494   2.350
94255W        W58463  36.462  21.146   2.850
94256W        W58464  30.955  17.748   2.856
94257W        W58465  30.519   4.908  13.806
94258W        W58466  11.250  40.520  13.479
94259W        W58467  20.656   2.775   3.385
94260W        W58468   4.298  32.549  11.482
94261W        W58469  28.967  33.035  13.547
94262W        W58470  17.639  18.579  12.955
94263W        W58471  19.604  28.608   4.284
94264W        W58472  17.644  29.493   4.631
94265W        W58473   7.255  24.641   0.800
94266W        W58474  13.772  20.764   3.311
94267W        W58475   7.856  28.126  10.627
94268W        W58476  26.691  38.375  11.940
94269W        W58477   5.829  26.958   0.421
94270W        W58478   5.884  29.992  10.904
94271W        W58479  11.220  16.243   2.750
94272W        W58480  18.691   7.900  13.834
94273W        W58481  24.177  35.580   0.358
94274W        W58482  12.239   6.417   3.698
94275W        W58483   6.773   2.404   1.412
94276W        W58484  31.460  35.860   0.435
94277W        W58485  38.940  17.220  10.592
94278W        W58486   6.424  25.518   0.728
94279W        W58487  40.340  15.094  10.896
94280W        W58488  37.959  30.102  10.565
94281W        W58489  37.537  20.094   1.738
94282W        W58490   5.255  13.686  12.578
94283W        W58491  16.694   4.408   1.708
94284W        W58492   8.654  39.451  11.092
94285W        W58493  10.645  39.478  14.464
94286W        W58494  15.151   7.721  11.984
94287W        W58495   6.211  33.581   2.854
94288W        W58496  34.949  14.208   4.764
94289W        W58497  16.087  27.561   1.816
94290W        W58498  24.191  21.574  10.986
94291W        W58499  40.925   9.193  13.393
94292W        W58500  12.652  38.857   2.733
94293W        W58501  42.514  38.075  10.463
94294W        W58502   4.346  29.127  12.868
94295W        W58503  33.436  16.086   4.685
94296W        W58504  31.970   8.779  12.928
94297W        W58505   4.932  38.933  14.022
94298W        W58506   3.334  25.477  14.276
94299W        W58507  34.003  14.807   5.296
94300W        W58508  35.910  32.918  13.334
94301W        W58509  31.010  18.133   0.907
94302W        W58510  43.837  32.436  11.921
94303W        W58511  14.186  39.505  11.038
94304W        W58512  12.300  22.213  11.475
94305W        W58513   0.313  35.084   0.861
94306W        W58514  35.367   9.359   3.151
94307W        W58515   1.977  21.054  12.435
94308W        W58516  42.973  33.527  12.968
94309W        W58517  33.416  25.495   3.260
94310W        W58518  12.257  22.019   3.223
94311W        W58519   8.394  20.261  13.314
94312W        W58520  44.905  37.579  12.459
94313W        W58521  15.722  14.255   1.920
94314W        W58522  37.506  43.929  11.564
94315W        W58523   9.208  36.498  10.526
94316W        W58524  41.875  16.579  14.428
94317W        W58525  29.498  44.416   2.820
94318W        W58526   3.945  40.528  11.569
94319W        W58527  41.921  41.341  10.407
94320W        W58528  37.075   9.869  10.599
94321W        W58529   0.874  17.621   0.483
94322W        W58530  19.278  34.882   2.839
94323W        W58531  23.572  19.636  13.496
94324W        W58532   9.172   4.747  12.351
94325W        W58533  26.124  42.361   3.165
94326W        W58534  11.270   2.343  13.007
94327W        W58535  42.824  29.954  13.469
94328W        W58536  19.146  24.194   1.213
94329W        W58537  25.599   7.821   1.391
94330W        W58538  33.093  30.653   1.232
94331W        W58539  22.507  18.752   4.314
94332W        W58540  24.614  13.253  14.806
94333W        W58541  25.119  43.880   0.301
94334W        W58542  27.050  36.512  14.908
94335W        W58543  32.111   1.858  13.796
94336W        W58544  21.672  14.822   9.567
94337W        W58545  30.113  10.280   1.747
94338W        W58546  10.747  33.465   9.995
94339W        W58547   7.415  16.567   3.752
94340W        W58548  40.346  20.113   0.252
94341W        W58549  18.201  34.983  10.577
94342W        W58550  15.115  10.323   2.343
94343W        W58551  44.491  18.209  13.952
94344W        W58552   0.387  37.863   5.724
94345W        W58553  17.157  11.195  13.053
94346W        W58554  29.487  38.858   2.329
94347W        W58555  44.399  17.698   4.139
94348W        W58556  43.862  27.674   2.203
94349W        W58557  18.069  38.380   3.300
94350W        W58558  39.491  18.230  13.533
94351W        W58559   2.453   4.806   2.179
94352W        W58560  37.506  17.787  12.411
94353W        W58561  13.326  10.287   0.878
94354W        W58562  14.133  16.576   1.798
94355W        W58563   9.797  36.025  13.347
94356W        W58564  34.589  26.493  10.137
94357W        W58565   3.720  33.993  10.636
94358W        W58566  33.458  12.833  10.986
94359W        W58567  11.660   6.316  10.584
94360W        W58568   6.692  31.594  11.437
94361W        W58569  14.825  21.734   4.181
94362W        W58570  35.901  11.638  10.959
94363W        W58571   4.728  20.189  13.017
94364W        W58572  11.143   9.845   1.342
94365W        W58573  33.123  15.790   2.219
94366W        W58574  43.899  32.088   2.743
94367W        W58575  43.917  26.658   0.388
94368W        W58576   9.348  40.418  13.845
94369W        W58577  37.944   7.297   4.157
94370W        W58578   4.417  42.502   0.437
94371W        W58579  10.858  19.639  14.373
94372W        W58580  38.917  38.849  11.546
94373W        W58581  33.897  29.999   3.716
94374W        W58582  40.312  19.591  13.468
94375W        W58583  15.193   9.684  13.936
94376W        W58584  33.056   9.765  13.837
94377W        W58585   8.162  42.798   4.812
94378W        W58586  27.192  27.665   2.317
94379W        W58587  35.565  31.083  13.341
94380W        W58588  10.154  39.546   2.726
94381W        W58589   5.419  37.889   2.217
94382W        W58590   4.275  12.637   4.236
94383W        W58591  27.591  17.576  10.406
94384W        W58592   2.786  34.561  14.300
94385W        W58593  17.732   0.889   0.436
94386W        W58594   2.243  21.536   4.783
94387W        W58595  38.996  35.072  13.895
94388W        W58596  19.700  44.292   3.233
94389W        W58597  21.737   4.358  12.543
94390W        W58598   2.922  34.896   0.258
94391W        W58599  13.341  38.903   3.203
94392W        W58600  11.642   3.831  14.982
94393W        W58601  42.468  36.521   4.711
94394W        W58602   7.412  29.121   0.273
94395W        W58603  20.073  15.630  14.919
94396W        W58604  44.917  17.607  10.461
94397W        W58605  31.646  24.691  14.834
94398W        W58606   5.728   1.836   3.262
94399W        W58607  23.635  43.512   4.832
94400W        W58608  26.974  14.117  12.340
94401W        W58609  22.557  43.440  12.469
94402W        W58610  10.210  11.754  13.809
94403W        W58611   7.752   6.817  14.032
94404W        W58612  18.153  26.077   1.284
94405W        W58613  13.346  40.039   0.373
94406W        W58614   2.962  16.603  12.885
94407W        W58615  20.626   5.399  14.444
94408W        W58616  28.538  36.550  14.850
94409W        W58617  18.194  40.037   0.922
94410W        W58618  42.525  40.312  13.540
94411W        W58619   5.895  11.867   0.312
94412W        W58620  41.947  20.035  13.886
94413W        W58621   9.670  24.120  12.511
94414W        W58622   5.199  17.074  13.979
94415W        W58623  29.664   0.904   1.333
94416W        W58624   4.768   8.172   2.373
94417W        W58625  13.279   2.775   2.855
94418W        W58626   8.789  26.533   2.358
94419W        W58627  40.880   5.817   4.786
94420W        W58628  38.891  44.941  12.865
94421W        W58629  35.584  14.145   0.775
94422W        W58630  15.108  16.645  13.327
94423W        W58631  11.699  23.506  12.349
94424W        W58632  29.997  13.165   5.745
94425W        W58633  23.145  35.104   0.395
94426W        W58634  34.373  13.219   4.145
94427W        W58635  22.101  35.476  10.497
94428W        W58636  41.870  18.254   1.844
94429W        W58637  16.181  18.160  11.958
94430W        W58638  19.606  11.305   2.712
94431W        W58639  43.937  20.038  11.545
94432W        W58640   5.288  22.152  12.997
94433W        W58641  21.587   4.412  12.052
94434W        W58642   1.244  25.096   0.278
94435W        W58643  33.440  20.059  11.444
94436W        W58644  25.680  26.563  12.559
94437W        W58645  33.070   5.225   3.869
94438W        W58646  11.707  30.492   2.696
94439W        W58647  43.981  12.717  10.593
94440W        W58648   4.344  34.611   2.843
94441W        W58649  16.780  16.661  13.965
94442W        W58650  18.545   3.715  11.002
94443W        W58651  28.996   6.867  10.599
94444W        W58652  41.506  35.523   4.212
94445W        W58653  11.836   9.226   3.258
94446W        W58654  18.178   3.910   2.828
94447W        W58655  40.463  39.054  13.459
94448W        W58656  34.487  29.936  13.823
94449W        W58657  10.355  16.601  10.493
94450W        W58658  30.951  17.175  11.551
94451W        W58659  22.529   5.361  10.992
94452W        W58660  15.634  36.350   0.436
94453W        W58661  15.640  40.452   3.687
94454W        W58662  43.377  40.813   4.228
94455W        W58663  29.481   9.678  14.937
94456W        W58664   8.870  29.465   4.793
94457W        W58665  11.133  23.060   0.481
94458W        W58666  26.959  40.444   4.670
94459W        W58667  25.168  27.068  10.612
94460W        W58668   4.394  31.547  13.972
94461W        W58669  15.633  18.562  12.438
94462W        W58670  35.947   3.780   4.692
94463W        W58671   2.309  22.191   4.154
94464W        W58672  35.459   6.264   4.749
94465W        W58673  29.575  34.485  13.446
94466W        W58674  20.637   7.748   5.288
94467W        W58675  15.579  24.082   3.660
94468W        W58676  39.940  40.029  11.924
94469W        W58677   6.418  24.610   4.134
94470W        W58678  21.758  32.554  12.904
94471W        W58679  26.120   7.730  11.479
94472W        W58680  15.322  26.184  11.486
94473W        W58681  16.287  24.983   1.703
94474W        W58682   1.772  26.643  11.595
94475W        W58683  20.764  32.612  11.921
94476W        W58684  42.821  43.770   1.741
94477W        W58685  42.829  34.489   1.438
94478W        W58686  27.495  43.787   3.147
94479W        W58687  31.002   4.935   4.165
94480W        W58688   5.924  28.134  12.359
94481W        W58689  27.537  34.425   4.770
94482W        W58690   2.789  20.752  11.975
94483W        W58691   1.247   2.949   3.785
94484W        W58692   2.470   2.774  12.908
94485W        W58693   1.424  22.240   0.730
94486W        W58694  40.983  21.722   0.309
94487W        W58695   4.353  34.607  12.940
94488W        W58696  43.276   0.388  10.476
94489W        W58697  13.778   9.315  13.052
94490W        W58698  39.033  16.697  13.314
94491W        W58699  36.900  40.406   1.761
94492W        W58700   7.306  42.818   2.895
94493W        W58701  28.993  41.328  11.461
94494W        W58702   7.174   8.666   3.170
94495W        W58703   0.910  38.404  13.023
94496W        W58704  21.172  16.091   0.434
94497W        W58705  23.500   8.161  11.583
94498W        W58706  36.884  44.787   2.818
94499W        W58707  31.433   3.345  13.374
94500W        W58708  15.259  18.280   4.651
94501W        W58709  10.232  34.585   3.198
94502W        W58710  36.012  16.760  13.858
94503W        W58711  26.188   4.713  14.495
94504W        W58712   0.385  22.156  13.361
94505W        W58713  36.961  11.277   2.300
94506W        W58714   2.736  44.304   3.324
94507W        W58715  18.262   6.315   0.433
94508W        W58716  18.204  40.935   4.236
94509W        W58717  23.669  38.065   1.927
94510W        W58718  35.360  20.130   0.915
94511W        W58719   1.396  42.424  11.553
94512W        W58720  35.419  14.248  12.888
94513W        W58721  35.109  14.752   4.745
94514W        W58722  41.483  37.500   4.792
94515W        W58723  11.331  25.107   1.377
94516W        W58724  37.037  22.534  12.072
94517W        W58725  30.060  26.693   3.253
94518W        W58726  17.147  11.180   2.829
94519W        W58727  35.986   5.901  10.430
94520W        W58728   0.338   3.447  13.058
94521W        W58729  32.394   6.394  12.946
94522W        W58730   8.226  20.676  11.501
94523W        W58731  24.028  21.230  12.895
94524W        W58732  14.810  15.698   4.121
94525W        W58733  18.741  42.925   5.237
94526W        W58734  39.922  10.696   4.780
94527W        W58735  18.744  44.260  10.451
94528W        W58736   6.689  27.034  13.031
94529W        W58737  13.637  24.525   2.313
94530W        W58738  22.246  22.567   0.303
94531W        W58739   0.935  17.263  12.375
94532W        W58740   2.228  20.607   2.875
94533W        W58741  27.114   0.792   0.451
94534W        W58742   6.823  22.524  12.940
94535W        W58743  20.720  19.140   9.569
94536W        W58744   8.807   1.923   3.742
94537W        W58745  19.590  24.212   3.767
94538W        W58746  20.614  17.769  11.456
94539W        W58747  13.706  40.980  13.057
94540W        W58748  36.085   2.835   0.801
94541W        W58749  31.153  26.513  12.911
94542W        W58750  19.183  32.606  14.009
94543W        W58751  31.574   8.317  14.371
94544W        W58752  44.829  21.645   3.760
94545W        W58753   6.689  37.349  14.356
94546W        W58754  24.514  16.659   2.257
94547W        W58755   5.393   0.449  11.060
94548W        W58756  25.104   2.786  14.430
94549W        W58757   0.791   2.752  13.483
94550W        W58758   2.398   2.765  13.354
94551W        W58759  39.535  10.837  11.426
94552W        W58760  22.511   0.959  10.950
94553W        W58761  43.287  12.228   0.754
94554W        W58762  27.478  19.658  13.848
94555W        W58763  33.043  20.067  11.860
94556W        W58764  41.878   8.392   0.878
94557W        W58765  37.560  32.474   3.663
94558W        W58766   7.695  22.624   3.205
94559W        W58767  41.527  12.265  13.480
94560W        W58768  11.195  10.679   0.302
94561W        W58769  42.481  11.364   2.319
94562W        W58770  37.953  17.142  11.879
94563W        W58771  22.041  25.046   2.386
94564W        W58772  35.860  44.346   3.636
94565W        W58773   0.366  18.186  14.334
94566W        W58774  12.846  18.229  13.354
94567W        W58775  26.108  39.523   3.661
94568W        W58776   1.415  16.702   4.798
94569W        W58777  34.948  43.278  14.914
94570W        W58778  24.188  22.508  11.607
94571W        W58779  41.039   6.198  10.918
94572W        W58780  28.140  43.914   4.267
94573W        W58781  34.941  19.621   0.758
94574W        W58782  13.808  31.970   1.355
94575W        W58783  17.580   1.280  11.489
94576W        W58784  35.500  42.458   1.354
94577W        W58785  34.096  25.994   2.297
94578W        W58786   3.329   4.230   4.283
94579W        W58787   7.740   2.834   0.827
94580W        W58788   5.822  34.453  12.535
94581W        W58789   5.362  21.035  10.973
94582W        W58790  16.666  27.493  12.848
94583W        W58791  26.638   6.833  13.530
94584W        W58792   1.333  23.159   1.820
94585W        W58793   7.680  32.992  10.619
94586W        W58794  18.561   1.771   0.287
94587W        W58795  24.612  18.209  12.025
94588W        W58796  41.355  31.112  14.457
94589W        W58797  21.709  34.989  13.407
94590W        W58798  32.579  30.424   4.683
94591W        W58799   2.862   9.719  13.003
94592W        W58800  34.420  33.054   0.772
94593W        W58801  38.931  34.565  14.477
94594W        W58802  32.520  39.017  11.506
94595W        W58803   3.846  14.207   9.954
94596W        W58804  22.163  34.063   3.208
94597W        W58805  11.264   9.830   4.698
94598W        W58806  15.262  27.536  11.426
94599W        W58807  23.192  30.120  13.871
94600W        W58808  13.209   1.319  13.444
94601W        W58809  11.703   2.949  10.429
94602W        W58810   0.836   6.775   1.372
94603W        W58811  28.038  40.480   3.869
94604W        W58812  29.626  21.066   4.713
94605W        W58813   5.332  34.547   2.279
94606W        W58814  27.109  26.542   4.176
94607W        W58815  38.062  10.812   3.752
94608W        W58816  14.590  27.996  11.606
94609W        W58817   2.903  26.551   1.882
94610W        W58818  16.793  30.004  13.012
94611W        W58819  12.177  30.927  13.402
94612W        W58820  29.464  23.735   3.769
94613W        W58821   2.286   8.190  12.449
94614W        W58822  31.929  35.952  10.063
94615W        W58823  42.404  40.337   4.297
94616W        W58824  21.036  31.493   1.302
94617W        W58825  36.852  36.853  12.999
94618W        W58826  28.021   7.832   4.127
94619W        W58827  37.024  34.009   2.282
94620W        W58828  15.267  19.114   4.142
94621W        W58829  35.380  42.443  14.762
94622W        W58830  18.055  27.573   0.879
94623W        W58831  35.852  42.784  11.992
94624W        W58832  38.856  42.429   3.649
94625W        W58833  23.204  15.625  14.807
94626W        W58834   6.755  42.437  13.517
94627W        W58835  28.523   3.435  12.921
94628W        W58836  12.701  35.960  10.491
94629W        W58837  43.319  35.478  11.091
94630W        W58838  42.956  36.474   1.430
94631W        W58839  44.399  20.573  12.858
94632W        W58840  41.010  29.473  11.041
94633W        W58841  12.259   5.228   0.921
94634W        W58842  40.993  14.281  11.542
94635W        W58843  31.417  13.243  12.087
94636W        W58844  21.171   7.407  14.343
94637W        W58845   0.880   0.427  11.600
94638W        W58846  22.082  41.425   0.330
94639W        W58847  41.968  43.437  13.998
94640W        W58848  10.182  15.814   0.914
94641W        W58849  33.392   1.942  13.493
94642W        W58850   6.341  26.685  11.374
94643W        W58851   6.287  10.166  13.467
94644W        W58852  35.931  38.539   2.756
94645W        W58853  22.133  32.606  13.902
94646W        W58854  18.739  36.014  10.034
94647W        W58855  14.158  28.145   0.899
94648W        W58856  41.879  16.596   0.387
94649W        W58857  39.339  20.244  12.378
94650W        W58858  44.442  30.516   0.733
94651W        W58859  32.905   1.755  10.567
94652W        W58860  25.511  22.728   2.251
94653W        W58861  38.927  11.324   0.273
94654W        W58862  24.701  33.090   3.639
94655W        W58863  36.989  17.749   4.814
94656W        W58864  38.004  19.129  14.508
94657W        W58865  30.936  41.511   0.923
94658W        W58866  42.466   6.332  11.394
94659W        W58867  17.065  34.986   0.733
94660W        W58868  17.794  35.944   5.164
94661W        W58869   1.830   5.421   3.152
94662W        W58870  42.892  34.591  13.350
94663W        W58871   6.901  15.119   2.229
94664W        W58872  23.208  44.453  13.386
94665W        W58873  36.905  39.359   3.366
94666W        W58874   8.293  35.538   2.888
94667W        W58875  23.985  25.042   5.165
94668W        W58876  24.535   8.360  12.380
94669W        W58877  35.570  14.315  13.467
94670W        W58878  40.403  39.480   2.863
94671W        W58879  26.166  38.945  13.797
94672W        W58880   1.963  12.801  12.921
94673W        W58881  37.440  24.606  13.893
94674W        W58882   3.448   4.246  13.808
94675W        W58883  27.485  30.150  13.311
94676W        W58884  17.562  32.561  14.961
94677W        W58885   2.740  33.079   2.895
94678W        W58886  32.412  37.841   0.310
94679W        W58887  30.981   7.271   2.378
94680W        W58888  17.182  15.237   1.842
94681W        W58889   2.235  39.355   2.838
94682W        W58890  10.168  23.649  10.594
94683W        W58891  12.197   3.295   4.118
94684W        W58892  19.176  12.646   2.388
94685W        W58893  21.690  29.970   0.377
94686W        W58894  17.732  15.111   4.279
94687W        W58895  20.106  24.113  11.432
94688W        W58896   8.822  10.789  12.500
94689W        W58897  20.056  32.455   2.726
94690W        W58898   3.291  18.142  10.572
94691W        W58899   5.811   8.662  14.847
94692W        W58900  13.118  44.335  13.473
94693W        W58901   9.889   9.278   4.215
94694W        W58902  39.483   1.782  12.984
94695W        W58903  28.637  13.227  14.904
94696W        W58904   3.828  13.336  14.349
94697W        W58905  43.504  16.783   3.742
94698W        W58906  24.979  36.016  10.533
94699W        W58907  36.042  24.698   0.821
94700W        W58908  17.163  28.495   4.597
94701W        W58909  42.420  22.515   3.171
94702W        W58910  12.700   7.177   0.873
94703W        W58911  32.631  42.012   1.266
94704W        W58912   9.703  21.184   4.261
94705W        W58913  22.157  39.468   0.252
94706W        W58914  18.637   4.413   9.987
94707W        W58915  11.858  19.745   4.726
94708W        W58916  40.357  21.639   4.345
94709W        W58917  25.690  33.075   1.836
94710W        W58918  23.646  21.036  10.551
94711W        W58919   3.898   9.256   4.680
94712W        W58920   7.743  16.304   0.917
94713W        W58921  17.599  15.309   2.405
94714W        W58922  20.633   8.900  13.518
94715W        W58923   3.752  31.588   1.291
94716W        W58924   6.734   9.889   1.854
94717W        W58925  35.452   2.939  14.438
94718W        W58926  32.562  43.964   4.286
94719W        W58927  29.628   7.232   1.876
94720W        W58928  10.263  14.288   5.128
94721W        W58929   6.427  28.143  12.969
94722W        W58930  11.135  26.508  14.901
94723W        W58931  34.105  31.131   3.830
94724W        W58932  19.251   4.307   2.794
94725W        W58933  30.555  41.912  13.828
94726W        W58934  33.050  22.010  12.571
94727W        W58935  33.016  37.835  10.542
94728W        W58936  36.585   0.862  14.793
94729W        W58937  11.715   9.771  12.964
94730W        W58938  33.550  38.420   2.261
94731W        W58939  11.364  36.976  14.482
94732W        W58940  38.072  35.945  12.857
94733W        W58941  22.996   4.279   4.812
94734W        W58942  39.930   6.333   2.832
94735W        W58943   4.434  35.949   0.300
94736W        W58944   2.429   3.373   1.916
94737W        W58945   0.845  29.645  11.978
94738W        W58946  37.964   1.420   1.362
94739W        W58947   4.256  34.917   2.314
94740W        W58948  37.502   4.305  13.509
94741W        W58949   5.389  25.500  11.073
94742W        W58950   4.926  34.944  12.571
94743W        W58951  27.592  25.145   2.834
94744W        W58952  29.923  25.129   4.244
94745W        W58953  34.411  11.137  13.057
94746W        W58954  25.470  17.703   0.400
94747W        W58955  19.720   2.441  12.419
94748W        W58956  41.949  12.818   2.864
94749W        W58957  25.165   5.821  13.832
94750W        W58958  18.141  11.144  11.085
94751W        W58959   0.893   7.241   3.369
94752W        W58960  16.115  35.109   3.700
94753W        W58961  27.454   8.241   0.937
94754W        W58962  31.488  26.484   4.826
94755W        W58963  14.819  41.292   3.354
94756W        W58964  14.281  40.920  11.402
94757W        W58965  38.978  32.583  12.035
94758W        W58966  11.343  19.049  13.356
94759W        W58967  30.477  13.151   4.167
94760W        W58968  21.224  11.185  11.470
94761W        W58969   0.811   6.299  10.627
94762W        W58970  15.106  10.250  11.958
94763W        W58971  32.001  21.521   0.286
94764W        W58972  17.291  14.786   1.448
94765W        W58973  41.803   2.373  12.547
94766W        W58974  41.001   9.842   0.266
94767W        W58975  25.036   1.902   3.354
94768W        W58976  20.707  43.905  13.881
94769W        W58977   7.679  21.040  14.013
94770W        W58978  32.458  36.050   1.340
94771W        W58979  39.548   9.662   0.356
94772W        W58980  31.078  11.699  13.996
94773W        W58981  38.034  39.516   4.629
94774W        W58982  27.674  19.158  13.947
94775W        W58983  15.662  38.029  12.963
94776W        W58984   2.273  21.148  12.994
94777W        W58985   6.274  32.527  14.871
94778W        W58986   9.185   0.277   4.241
94779W        W58987  33.978   0.869  13.536
94780W        W58988  36.542   4.365   0.284
94781W        W58989   6.686  14.680  12.052
94782W        W58990   3.348   9.192   4.605
94783W        W58991  41.476  28.112  12.555
94784W        W58992  25.085  16.188  12.408
94785W        W58993  33.539  24.605  13.929
94786W        W58994  31.974  21.542   1.758
94787W        W58995  18.724  13.818   1.245
94788W        W58996  30.076  33.028  13.924
94789W        W58997  15.738   3.909   0.469
94790W        W58998  14.303  11.169  14.812
94791W        W58999  40.992  29.574   0.289
94792W        W59000  35.980  28.530  12.411
94793W        W59001   5.868  14.145  13.388
94794W        W59002  12.658  19.706   2.717
94795W        W59003   3.450  26.159   0.746
94796W        W59004  26.162  10.822  12.924
94797W        W59005  31.460  42.889   1.261
94798W        W59006   1.746  19.534  13.539
94799W        W59007  34.421  23.703  14.392
94800W        W59008   9.395  36.972  10.492
94801W        W59009  26.604  19.622   1.243
94802W        W59010  37.523  33.604   1.414
94803W        W59011  22.708   8.235  11.053
94804W        W59012   3.423  29.044   3.677
94805W        W59013  11.325  16.214   3.817
94806W        W59014  22.170  25.646  12.526
94807W        W59015  14.735  11.696   3.381
94808W        W59016   7.883  33.521  13.404
94809W        W59017  22.240   3.930  11.392
94810W        W59018  25.508  43.430   0.923
94811W        W59019  27.558  16.699  10.890
94812W        W59020  10.213  19.084   3.736
94813W        W59021  12.846  21.580   3.219
94814W        W59022  28.143  20.036   4.762
94815W        W59023  28.020  35.565  11.920
94816W        W59024  16.205  39.907   0.915
94817W        W59025  40.832  15.326   0.869
94818W        W59026  25.087  44.861  11.599
94819W        W59027  28.669  20.616   0.794
94820W        W59028  14.131  30.007   3.855
94821W        W59029  13.780  22.074  11.092
94822W        W59030  43.834  14.711   0.953
94823W        W59031  26.172   5.363  14.463
94824W        W59032  37.067  21.198  10.502
94825W        W59033  30.586   2.744   4.817
94826W        W59034  36.072  27.994  13.961
94827W        W59035   7.774  12.216   4.300
94828W        W59036   4.741   6.895  11.858
94829W        W59037   9.371   7.870  13.884
94830W        W59038  11.274  27.527   2.822
94831W        W59039  14.113  35.434   4.628
94832W        W59040  19.246  43.509  14.478
94833W        W59041   8.718  12.214   0.448
94834W        W59042  31.093   8.298  14.410
94835W        W59043  33.481  11.804   2.196
94836W        W59044  35.371  41.968   1.854
94837W        W59045   5.787  18.754  11.929
94838W        W59046  43.970  28.053  11.992
94839W        W59047   5.374  36.987  12.064
94840W        W59048  20.210  25.530  13.938
94841W        W59049  30.945  43.330   4.294
94842W        W59050  36.554  10.181   3.675
94843W        W59051  18.080  33.604  13.021
94844W        W59052  18.065  37.957  10.947
94845W        W59053  14.317  20.230   1.863
94846W        W59054  37.911  11.325   2.310
94847W        W59055   3.925  16.092   3.379
94848W        W59056  36.504  25.023   1.834
94849W        W59057  28.474   8.896  11.517
94850W        W59058  25.701  34.966  12.899
94851W        W59059   7.262  15.632   3.727
94852W        W59060  18.748  43.342   0.427
94853W        W59061  19.618  13.623   0.819
94854W        W59062  43.818  38.351   2.366
94855W        W59063  25.164   3.879  12.424
94856W        W59064  20.614  10.796   2.876
94857W        W59065  31.508  37.976   3.755
94858W        W59066  40.529   6.423   1.410
94859W        W59067   7.793   6.890  11.007
94860W        W59068  26.689  38.566  14.354
94861W        W59069   0.386  31.147  10.950
94862W        W59070  16.667  15.817   3.305
94863W        W59071  17.739  28.938   0.958
94864W        W59072   2.762   2.441   0.752
94865W        W59073  41.951  36.896   2.743
94866W        W59074  34.499  10.712   2.327
94867W        W59075  39.490  36.095   1.236
94868W        W59076  15.260  43.964  12.931
94869W        W59077  25.667  13.666  10.539
94870W        W59078  32.537  24.145   1.293
94871W        W59079  21.750  36.360   0.789
94872W        W59080  41.869  19.072   0.756
94873W        W59081  12.152  19.208  14.373
94874W        W59082  19.213   1.418  14.872
94875W        W59083  23.009  40.524   3.307
94876W        W59084  20.648  15.809  14.835
94877W        W59085  26.558  25.205   3.673
94878W        W59086  29.927  29.001   2.399
94879W        W59087  33.398   3.364   3.296
94880W        W59088  21.663  27.165   2.359
94881W        W59089  23.715  26.113   2.725
94882W        W59090  26.110  35.026   3.812
94883W        W59091  23.537  33.123  11.079
94884W        W59092  21.514  36.352   2.777
94885W        W59093  31.143  33.947   3.646
94886W        W59094   3.800  22.516   9.929
94887W        W59095  22.638  28.970  14.952
94888W        W59096  44.326   5.793   3.212
94889W        W59097  25.169   7.772   5.104
94890W        W59098  28.098  23.629  12.832
94891W        W59099  38.459  35.572   0.301
94892W        W59100  42.393  29.111  14.368
94893W        W59101   0.365  28.477   0.330
94894W        W59102  10.257  42.807   3.201
94895W        W59103  18.072  30.555   0.880
94896W        W59104  36.560  38.906   4.661
94897W        W59105  12.612   0.842   0.729
94898W        W59106  32.934  23.698   0.892
94899W        W59107   8.298  19.730  14.964
94900W        W59108  16.799   0.249  13.792
94901W        W59109  22.657   4.305  12.829
94902W        W59110   8.347  12.146   4.207
94903W        W59111  10.856  11.166   3.189
94904W        W59112  21.132   3.830  10.407
94905W        W59113   7.399   2.875   2.717
94906W        W59114  41.893  21.102   3.705
94907W        W59115  19.103   2.432  13.319
94908W        W59116  19.640  26.475  14.871
94909W        W59117   4.246  14.166   4.152
94910W        W59118  17.187   6.845   3.655
94911W        W59119  24.167  41.338   3.163
94912W        W59120  22.194  35.086   0.813
94913W        W59121  16.643  37.902  11.118
94914W        W59122  11.218  18.280   4.149
94915W        W59123  32.920  38.398  13.829
94916W        W59124  15.582  15.254  10.406
94917W        W59125  28.117  25.540   1.262
94918W        W59126  20.107  30.044  11.516
94919W        W59127  24.198  25.216  13.546
94920W        W59128  37.347  43.309  14.289
94921W        W59129  38.357  15.112   3.808
94922W        W59130  37.837   8.894  13.469
94923W        W59131  25.044  44.295   2.312
94924W        W59132  11.795  16.301   1.290
94925W        W59133  29.607  44.964   0.357
94926W        W59134   0.409  16.622  14.792
94927W        W59135  23.060  11.694   3.267
94928W        W59136   8.814  35.943  13.329
94929W        W59137   2.905  24.647   4.609
94930W        W59138  26.173  10.243  12.048
94931W        W59139  25.019  30.529  13.935
94932W        W59140  11.773  16.617  12.870
94933W        W59141   8.752  13.694  14.506
94934W        W59142  16.177  31.450  10.975
94935W        W59143  43.942  19.734   2.792
94936W        W59144  12.259   7.191   2.897
94937W        W59145  15.743   4.354   2.764
94938W        W59146  26.964   1.973   2.861
94939W        W59147  33.978  38.058  14.423
94940W        W59148  17.678  16.711  14.428
94941W        W59149  31.535  19.259  11.089
94942W        W59150   8.703  29.101  11.042
94943W        W59151  29.430  14.739   0.840
94944W        W59152  15.809   4.846   2.342
94945W        W59153  40.501   3.313  10.925
94946W        W59154  32.097  15.286   3.193
94947W        W59155   8.161  19.060   4.283
94948W        W59156   9.779  36.584  12.872
94949W        W59157   3.741   3.924   5.794
94950W        W59158  18.218  41.407   3.251
94951W        W59159  25.517  38.954  12.052
94952W        W59160  33.101   4.930  12.837
94953W        W59161   7.382  12.840   1.889
94954W        W59162  41.457  42.909  10.995
94955W        W59163  33.616  36.455  13.792
94956W        W59164  10.379  43.868  13.814
94957W        W59165  10.849  38.845   0.855
94958W        W59166  44.378  15.628   4.327
94959W        W59167  11.705  13.685  13.930
94960W        W59168   3.253  29.143   0.745
94961W        W59169  36.573  28.000   3.631
94962W        W59170  32.082  33.593  11.391
94963W        W59171  34.549   4.273   4.244
94964W        W59172   3.851  26.127   2.305
94965W        W59173   9.714  22.620  14.893
94966W        W59174   6.893  17.600  11.449
94967W        W59175  38.968  30.511  14.276
94968W        W59176  23.042   7.907  10.003
94969W        W59177  18.120  19.258   3.343
94970W        W59178  18.192  14.148   0.383
94971W        W59179  14.603  11.821   5.131
94972W        W59180  41.930  14.300   5.289
94973W        W59181  39.383  32.472  12.918
94974W        W59182  42.372  20.068  10.054
94975W        W59183  23.704  38.504   0.838
94976W        W59184  23.503  33.059   2.870
94977W        W59185  26.030   4.269   2.214
94978W        W59186   7.835  33.957   3.748
94979W        W59187  36.934  20.188   3.722
94980W        W59188  20.746  33.965  10.913
94981W        W59189  41.969  33.118  10.486
94982W        W59190   7.418  28.980  12.516
94983W        W59191  23.605  20.555  11.903
94984W        W59192  32.529  43.273   1.763
94985W        W59193  38.069   5.738   1.740
94986W        W59194  42.380  33.547  12.952
94987W        W59195  33.124  25.096   4.129
94988W        W59196  15.235   6.262  11.093
94989W        W59197  43.855  40.393   3.834
94990W        W59198  28.008  39.502   1.848
94991W        W59199  25.095  13.621   0.390
94992W        W59200  36.460   8.803   5.177
94993W        W59201   3.791  19.074  14.905
94994W        W59202  28.133  42.839   4.616
94995W        W59203   2.764  30.567   3.296
94996W        W59204  22.132   5.320   3.184
94997W        W59205  28.942  20.148   0.291
94998W        W59206  32.602   3.739  14.937
94999W        W59207  19.086   4.323   3.187
95000W        W59208  33.025   7.231  14.898
95001W        W59209  25.572  29.940   0.370
95002W        W59210   8.305  43.335   1.864
95003W        W59211  10.784   4.401   4.761
95004W        W59212  15.726  17.252  13.371
95005W        W59213  42.999  10.189   3.347
95006W        W59214  14.124  36.502  13.329
95007W        W59215  40.398  17.583  12.559
95008W        W59216  28.508  29.066  11.549
95009W        W59217  27.129  18.284  12.569
95010W        W59218  41.949  28.131   4.354
95011W        W59219  22.521  27.101  12.974
95012W        W59220   6.312  22.094  11.935
95013W        W59221   2.263  22.022   3.679
95014W        W59222  14.780  26.483   3.860
95015W        W59223  42.522  17.146   1.319
95016W        W59224  30.467  10.320   0.889
95017W        W59225   7.190  17.580   3.272
95018W        W59226  25.129  35.574   1.797
95019W        W59227  21.105  37.992  12.541
95020W        W59228  41.449  22.725  13.434
95021W        W59229  26.567  36.994  11.403
95022W        W59230  24.705  19.585   4.701
95023W        W59231   4.720  20.625  14.876
95024W        W59232  16.225  30.039  12.856
95025W        W59233  20.638   9.377   4.835
95026W        W59234  41.300  28.595  10.447
95027W        W59235  42.783  16.145   3.786
95028W        W59236  18.582   5.827  14.488
95029W        W59237  25.522   6.896   2.348
95030W        W59238   4.857   1.759   3.698
95031W        W59239  24.594  22.522  13.310
95032W        W59240  39.511  17.269   2.363
95033W        W59241  31.999  23.124  14.306
95034W        W59242  19.560   1.925   3.188
95035W        W59243  36.445  25.134  10.024
95036W        W59244   6.778  44.494   3.220
95037W        W59245  41.340  16.076  14.888
95038W        W59246  44.974  38.958  14.359
95039W        W59247  17.113   5.772   3.830
95040W        W59248  24.483  23.026   3.229
95041W        W59249  19.776   3.221  12.526
95042W        W59250  37.015  40.017   3.301
95043W        W59251  32.974  13.128   4.684
95044W        W59252  25.688  33.465  13.990
95045W        W59253  40.529   1.319   4.708
95046W        W59254  10.669  32.498   3.809
95047W        W59255   1.368  34.984   3.166
95048W        W59256  12.805  29.581   1.261
95049W        W59257  28.011  13.730   2.419
95050W        W59258  32.900   7.704   4.183
95051W        W59259  14.770  20.228   3.674
95052W        W59260   9.735  10.832   5.302
95053W        W59261  35.580  38.074   4.171
95054W        W59262   6.848  35.583   1.232
95055W        W59263  40.804  44.989  13.390
95056W        W59264  36.400  18.176   1.247
95057W        W59265  13.830  15.221   2.251
95058W        W59266  42.402  34.437   4.607
95059W        W59267  16.801  42.871   1.331
95060W        W59268  36.367   8.223  13.451
95061W        W59269  28.125  26.057   3.381
95062W        W59270   2.758   4.772   9.985
95063W        W59271  36.437  12.356   0.268
95064W        W59272  39.039  27.495   0.924
95065W        W59273   7.379  20.723   3.187
95066W        W59274  19.221  27.571   1.334
95067W        W59275   7.854  22.127  12.361
95068W        W59276   1.453  29.043  14.929
95069W        W59277  14.600  14.787   1.906
95070W        W59278  41.021   3.797  11.380
95071W        W59279   5.771   3.722  14.830
95072W        W59280  39.908   8.852  10.571
95073W        W59281  16.138  35.591   3.773
95074W        W59282  44.903  19.714  14.515
95075W        W59283  37.393  39.966  11.089
95076W        W59284  13.704   6.285   3.185
95077W        W59285  16.286  32.018   2.234
95078W        W59286  21.069  24.151  14.989
95079W        W59287   1.972  12.342   2.215
95080W        W59288  28.069   3.885  14.981
95081W        W59289  15.314  42.979  12.490
95082W        W59290  12.670  12.196   4.219
95083W        W59291  42.433   3.792   4.749
95084W        W59292  19.082  23.127   3.650
95085W        W59293   0.361  22.687  14.970
95086W        W59294  33.492   3.801  12.562
95087W        W59295  19.590  14.161   1.935
95088W        W59296  38.939  28.445  11.100
95089W        W59297   4.898  41.975   3.276
95090W        W59298  25.664   5.868   3.162
95091W        W59299  42.422  28.668   0.263
95092W        W59300  21.607  18.280  13.908
95093W        W59301  35.487   8.896   2.679
95094W        W59302   5.861  22.162  12.073
95095W        W59303  20.085  20.767   2.808
95096W        W59304  16.757   6.687   2.306
95097W        W59305  23.152  32.956   4.304
95098W        W59306   8.321   4.765  14.514
95099W        W59307  14.131  13.636  13.866
95100W        W59308   1.286  20.251  12.499
95101W        W59309  10.344  35.431  11.096
95102W        W59310   1.844  40.476  11.880
95103W        W59311  35.416  27.580   4.213
95104W        W59312  34.476  27.170  14.398
95105W        W59313  44.305   3.428  11.386
95106W        W59314  36.379  40.830  10.928
95107W        W59315  10.805  16.651  13.823
95108W        W59316   7.669   8.230  12.847
95109W        W59317  37.930  31.620  12.926
95110W        W59318  26.025  42.910  13.423
95111W        W59319  26.524  36.419  12.576
95112W        W59320  35.496  33.999  14.871
95113W        W59321  18.704  19.765  11.563
95114W        W59322  19.234  12.806   0.314
95115W        W59323  28.539  28.681  14.391
95116W        W59324   5.736  20.237   0.298
95117W        W59325   1.400   9.805   3.841
95118W        W59326  35.490   1.295  14.819
95119W        W59327  28.159  12.172  13.429
95120W        W59328  23.163  19.173   5.793
95121W        W59329  12.272  37.513  13.404
95122W        W59330  43.973   9.325   4.608
95123W        W59331   7.215  39.045   1.350
95124W        W59332  26.067  20.767  14.344
95125W        W59333   8.331  36.377   0.324
95126W        W59334  11.817  24.691   3.240
95127W        W59335  12.300  40.037   0.376
95128W        W59336  41.536   0.343  11.428
95129W        W59337   7.413  17.100   3.363
95130W        W59338  20.628  27.671   2.708
95131W        W59339   4.911  33.902   1.327
95132W        W59340  18.781  28.075  11.961
95133W        W59341  15.230   2.775  11.903
95134W        W59342  16.082   3.360   3.822
95135W        W59343  29.943  37.983  11.512
95136W        W59344  35.101  38.904   4.789
95137W        W59345  40.523   1.479   3.724
95138W        W59346   8.270  25.689  14.403
95139W        W59347  32.032   7.809  13.014
95140W        W59348  19.631  15.172  10.521
95141W        W59349  30.916  22.508   4.169
95142W        W59350   0.773  42.934  14.782
95143W        W59351  15.787   9.662  10.626
95144W        W59352  29.070  43.376   2.214
95145W        W59353   1.918  31.933   2.821
95146W        W59354  29.162   4.204   2.685
95147W        W59355  36.932  12.826   0.846
95148W        W59356   3.846  36.033   4.682
95149W        W59357  39.411  24.591  12.480
95150W        W59358  23.567  42.895   0.931
95151W        W59359  31.520   7.216   1.913
95152W        W59360  34.501  15.192   2.231
95153W        W59361  39.972  42.013   0.400
95154W        W59362  17.578  33.439   0.783
95155W        W59363   8.362  23.099   1.421
95156W        W59364  23.508  38.533  10.634
95157W        W59365  33.066  17.298  10.570
95158W        W59366  38.962  42.831   5.270
95159W        W59367   5.364  14.822   3.740
95160W        W59368  30.518   8.303   2.192
95161W        W59369  18.712  44.419  11.956
95162W        W59370  11.248   5.842  14.486
95163W        W59371  42.499  25.553  12.038
95164W        W59372  16.086   3.822   2.215
95165W        W59373  22.693   9.753  11.585
95166W        W59374   0.370  17.115  11.889
95167W        W59375  25.121  14.300  11.946
95168W        W59376  39.986  39.329  12.516
95169W        W59377  28.471  24.076   1.270
95170W        W59378  24.016  29.151   2.769
95171W        W59379  27.545  44.493  12.518
95172W        W59380  14.168  35.395   4.328
95173W        W59381  22.203  15.592  11.561
95174W        W59382  26.104  42.418   0.338
95175W        W59383   2.837  27.516  14.973
95176W        W59384  19.263  29.960  14.026
95177W        W59385  31.523   8.182   4.325
95178W        W59386   0.753  27.141  11.057
95179W        W59387  42.973   2.460   0.242
95180W        W59388  24.524  43.391  13.915
95181W        W59389  20.099  29.605   2.207
95182W        W59390  24.657  16.134  12.875
95183W        W59391  13.142   1.396   3.345
95184W        W59392   8.785  43.511  12.030
95185W        W59393   9.668   6.348  11.095
95186W        W59394  20.112  30.141   2.278
95187W        W59395  33.982  14.658   2.342
95188W        W59396  23.534  29.074  12.053
95189W        W59397  20.581  31.501  11.501
95190W        W59398  15.137  15.812   2.728
95191W        W59399  15.605  10.719   1.786
95192W        W59400  10.676  36.551  13.368
95193W        W59401   3.299  16.808   3.782
95194W        W59402  38.924  11.764   1.822
95195W        W59403  18.729  14.756  14.855
95196W        W59404  37.368  16.201  13.890
95197W        W59405   1.845   0.356  11.401
95198W        W59406  38.002  37.505  14.001
95199W        W59407  11.860  24.541   1.736
95200W        W59408  30.021   0.774  14.761
95201W        W59409  13.157  13.791  14.275
95202W        W59410  24.549  11.347  13.547
95203W        W59411  20.206   9.649  11.058
95204W        W59412   8.282  20.731  11.007
95205W        W59413   6.812  24.500   3.725
95206W        W59414  10.192  24.490  11.507
95207W        W59415   1.327  19.779  10.526
95208W        W59416  24.626  35.590  11.867
95209W        W59417  40.889  27.527  12.555
95210W        W59418  40.368   0.762  13.815
95211W        W59419  25.685  24.025  12.935
95212W        W59420  33.058   1.793  13.481
95213W        W59421  26.689  29.010   4.686
95214W        W59422  40.036  17.146  12.469
95215W        W59423  20.141  38.475  12.470
95216W        W59424  17.617  40.505   3.839
95217W        W59425  33.974  25.548   1.834
95218W        W59426   6.882  38.437   2.663
95219W        W59427   2.878  21.052  14.300
95220W        W59428  44.904  21.121  10.442
95221W        W59429   5.840   5.778  12.950
95222W        W59430  14.790  20.688   0.752
95223W        W59431   6.759  15.095  14.772
95224W        W59432  39.014   9.659  10.538
95225W        W59433  15.287  19.634   2.733
95226W        W59434   4.790  26.158  10.940
95227W        W59435  26.554  44.912  13.436
95228W        W59436   8.283  29.083  14.966
95229W        W59437  31.627   4.779   0.374
95230W        W59438   2.956  41.459   4.320
95231W        W59439  19.778  11.699   2.835
95232W        W59440  14.128  41.402  10.895
95233W        W59441  42.362  37.366   3.696
95234W        W59442   0.350  42.833  12.359
95235W        W59443   4.758  43.862  11.888
95236W        W59444  43.913  29.166  11.009
95237W        W59445  40.859  37.950  13.477
95238W        W59446  11.313  27.492  12.519
95239W        W59447  39.819  23.219  13.850
95240W        W59448  34.585   4.399  11.413
95241W        W59449  24.151  32.037  11.946
95242W        W59450  11.829  18.569  13.508
95243W        W59451  41.502  17.606   3.234
95244W        W59452   7.230  19.767  12.516
95245W        W59453   1.764  32.935  14.780
95246W        W59454  17.800  18.611   3.254
95247W        W59455  32.569   7.817   3.778
95248W        W59456  43.920   8.740   1.927
95249W        W59457   1.343  21.101   1.403
95250W        W59458   9.250  39.890   1.931
95251W        W59459  23.001   1.377  11.964
95252W        W59460   6.260   8.375   1.416
95253W        W59461   1.246  28.997   0.938
95254W        W59462  30.526   4.235   1.446
95255W        W59463  32.582  30.575   0.246
95256W        W59464  36.053  30.021  10.537
95257W        W59465  32.573  40.507  13.027
95258W        W59466  18.672  24.675  14.850
95259W        W59467  26.686  24.099  11.415
95260W        W59468  42.368  12.813  14.320
95261W        W59469  39.520   5.310   3.648
95262W        W59470  11.346  23.997  12.496
95263W        W59471  35.979   4.708   1.710
95264W        W59472  41.465  32.547  12.419
95265W        W59473  13.735  31.999  12.984
95266W        W59474  15.101   8.817   3.266
95267W        W59475  44.311   7.208   1.418
95268W        W59476   0.344  11.639  14.349
95269W        W59477  40.932  10.236  11.608
95270W        W59478  27.063   3.320  12.568
95271W        W59479   7.833  36.862   0.397
95272W        W59480  38.948  41.306  10.926
95273W        W59481  11.772  16.736   4.683
95274W        W59482  40.925  38.443   4.804
95275W        W59483  11.194  44.844  10.975
95276W        W59484  29.653  30.908  12.452
95277W        W59485   1.932  11.749   0.399
95278W        W59486   4.209  17.138  11.584
95279W        W59487  41.321  43.285  14.866
95280W        W59488  36.377   4.911  12.357
95281W        W59489  44.268  30.063  11.590
95282W        W59490   2.766  23.070   0.787
95283W        W59491  40.943  12.241  13.458
95284W        W59492  20.743   1.754  12.358
95285W        W59493  38.483  27.057  13.958
95286W        W59494  24.071  29.097  10.911
95287W        W59495  42.324  16.756   3.148
95288W        W59496  25.665   4.920   5.239
95289W        W59497   2.748   1.321   1.922
95290W        W59498   8.668  11.776  12.383
95291W        W59499  23.163  28.127   2.872
95292W        W59500   8.260  23.023  13.362
95293W        W59501  17.776  42.994  12.432
95294W        W59502  25.173   2.233   1.749
95295W        W59503  16.686   3.228  11.097
95296W        W59504  41.018  26.461  13.447
95297W        W59505  19.201  12.857   1.767
95298W        W59506   4.247  36.444   4.115
95299W        W59507  37.013   6.228  13.431
95300W        W59508   2.300  29.518  10.637
95301W        W59509  38.057   6.271  11.403
95302W        W59510   3.848  28.507  14.994
95303W        W59511  32.109  23.001  11.088
95304W        W59512  15.179  18.582  13.330
95305W        W59513  13.753  31.491  14.968
95306W        W59514  39.399  25.990   1.697
95307W        W59515   3.416  17.621  14.793
95308W        W59516  31.120  18.683  12.039
95309W        W59517  39.344   0.407  11.535
95310W        W59518  38.837  34.922   0.800
95311W        W59519   1.291  13.729   2.890
95312W        W59520   2.300  11.648  10.623
95313W        W59521   3.389  38.923   0.464
95314W        W59522  43.985  37.850   4.799
95315W        W59523  22.108  37.931  13.933
95316W        W59524  37.424  24.129   2.277
95317W        W59525   7.889  28.577  12.849
95318W        W59526  29.627  27.570   2.873
95319W        W59527  22.675   0.365  13.535
95320W        W59528   5.933  20.606   0.391
95321W        W59529   2.309  21.020   9.956
95322W        W59530   1.302  16.152  13.021
95323W        W59531  22.568  36.487   4.270
95324W        W59532   5.337  18.616   1.314
95325W        W59533  34.391  22.517  13.924
95326W        W59534  44.845  35.035   3.813
95327W        W59535   9.826   8.761  11.933
95328W        W59536  33.477   6.274   0.435
95329W        W59537  13.719  38.559   2.832
95330W        W59538  41.031  30.142   0.326
95331W        W59539  40.918  14.712   3.258
95332W        W59540  28.460  33.580  14.859
95333W        W59541  14.606  25.143   4.236
95334W        W59542   2.776  28.969  13.432
95335W        W59543  27.114   3.321   0.744
95336W        W59544  19.616  35.472  12.979
95337W        W59545  32.119  41.487   2.324
95338W        W59546  16.099  20.152   4.121
95339W        W59547  13.299   3.791   4.699
95340W        W59548  31.144  33.400   4.775
95341W        W59549  21.586  25.629   4.280
95342W        W59550  36.955  20.584  11.597
95343W        W59551  17.154  22.731  11.084
95344W        W59552  42.025  31.545   2.719
95345W        W59553  30.553  43.360   2.801
95346W        W59554  14.166  16.802  10.522
95347W        W59555  20.746   8.762  14.808
95348W        W59556   8.658  40.545   0.278
95349W        W59557  17.778  36.581  11.393
95350W        W59558  41.393  26.467   3.184
95351W        W59559   3.439  14.275   3.783
95352W        W59560  34.545   8.382  11.086
95353W        W59561  34.578  39.948  12.997
95354W        W59562  24.019  20.547   2.183
95355W        W59563  22.608  14.306  10.470
95356W        W59564  18.634   1.886   0.948
95357W        W59565  33.089  10.269  11.507
95358W        W59566   5.329  32.109   4.607
95359W        W59567  29.948   8.708  10.591
95360W        W59568  11.288  28.167  13.418
95361W        W59569   4.264  27.989  12.445
95362W        W59570  18.674  41.332  14.787
95363W        W59571  23.038  10.347   4.689
95364W        W59572  36.096  29.166   1.408
95365W        W59573  37.839  20.050   3.633
95366W        W59574  26.701  19.258  10.496
95367W        W59575  30.914  19.253  10.428
95368W        W59576  38.059  35.466  11.038
95369W        W59577   4.932  41.422   0.418
95370W        W59578  23.682  36.469   4.215
95371W        W59579   9.151  36.095   3.366
95372W        W59580  40.345  41.496  11.529
95373W        W59581  27.647   7.193  14.924
95374W        W59582  31.016  26.489   0.732
95375W        W59583  23.642  23.566   0.841
95376W        W59584   1.852  20.215  11.974
95377W        W59585  35.098  12.287  12.404
95378W        W59586  27.563   5.912   0.916
95379W        W59587  40.404  20.243  14.995
95380W        W59588  42.881  11.339  11.463
95381W        W59589  28.438  17.083   4.276
95382W        W59590  18.101  14.756  13.548
95383W        W59591  15.688  23.200   4.151
95384W        W59592  28.608   0.306  10.948
95385W        W59593   5.826  25.175   0.792
95386W        W59594  37.063  39.322  14.918
95387W        W59595  41.840  13.722  14.425
95388W        W59596   3.747   5.393  14.814
95389W        W59597   6.731  34.460  13.036
95390W        W59598   2.837  36.968  13.332
95391W        W59599   8.855  42.390   4.216
95392W        W59600   2.278   5.895  13.513
95393W        W59601  15.815  41.806  14.796
95394W        W59602  44.424  19.731   1.864
95395W        W59603   3.377  23.632   0.856
95396W        W59604  15.817  41.451  10.570
95397W        W59605   3.743  36.489   4.814
95398W        W59606  34.491  37.397  10.970
95399W        W59607  15.802  26.081   0.727
95400W        W59608  19.726  29.524  12.832
95401W        W59609  18.705  40.443   1.926
95402W        W59610  12.802  37.462   2.695
95403W        W59611  33.051  22.710   1.249
95404W        W59612   0.758  37.895   4.686
95405W        W59613  34.022   6.202   1.395
95406W        W59614  20.675  40.838  12.435
95407W        W59615  38.846   3.890   0.863
95408W        W59616   7.238  22.538   3.372
95409W        W59617  40.840  21.055  13.999
95410W        W59618  14.602  15.152   2.377
95411W        W59619  31.451  39.892  12.448
95412W        W59620   5.691  29.173  14.292
95413W        W59621  34.047  20.231   4.820
95414W        W59622  35.413  17.268  14.954
95415W        W59623  44.367  21.176  14.488
95416W        W59624  44.379  17.602   1.898
95417W        W59625  28.064   2.792  14.323
95418W        W59626  31.402  32.093  11.963
95419W        W59627  11.655  23.104  14.441
95420W        W59628  30.631  19.262  13.861
95421W        W59629   6.853  24.489   0.923
95422W        W59630  12.117  11.299   9.452
95423W        W59631  22.694  32.042   2.805
95424W        W59632  10.330   6.391  11.116
95425W        W59633  11.237  15.154  12.426
95426W        W59634  36.452  22.172   0.286
95427W        W59635  31.139  12.178  10.994
95428W        W59636   9.886  23.094   2.386
95429W        W59637   6.413  33.387  10.046
95430W        W59638   1.869   7.231  10.601
95431W        W59639  27.543  44.812  12.486
95432W        W59640  27.973  40.981  11.460
95433W        W59641  44.010   8.247  10.620
95434W        W59642  31.474  24.721  13.903
95435W        W59643   1.453  23.494  11.502
95436W        W59644   8.889  25.204  10.488
95437W        W59645  16.094  26.042  12.901
95438W        W59646  18.653  25.210   2.238
95439W        W59647  36.434  10.321  12.878
95440W        W59648   1.459  39.992   3.300
95441W        W59649   3.797  13.831  13.907
95442W        W59650  43.971  31.408   2.373
95443W        W59651  43.306   6.895   0.339
95444W        W59652  21.608  21.225   2.264
95445W        W59653  34.868  36.936  11.417
95446W        W59654  42.788  17.677   4.688
95447W        W59655  36.047   6.795   1.895
95448W        W59656  25.082  12.718  11.423
95449W        W59657  17.750  14.602  10.439
95450W        W59658  35.554  29.452  11.095
95451W        W59659   6.916   1.788   3.249
95452W        W59660  41.809  14.656  14.012
95453W        W59661  24.555  18.601   4.241
95454W        W59662  24.115  38.488   2.298
95455W        W59663  38.415  24.221   4.115
95456W        W59664   3.842  21.045   4.285
95457W        W59665   7.267  26.587   1.824
95458W        W59666  38.841   2.234  13.016
95459W        W59667  44.465   2.761  12.860
95460W        W59668   9.388  22.537  13.394
95461W        W59669   4.751   3.455  14.489
95462W        W59670  32.522  33.442   2.771
95463W        W59671  37.485  16.730  10.034
95464W        W59672  43.340  18.687  14.391
95465W        W59673  32.433  14.270   5.111
95466W        W59674   0.247  10.722   4.641
95467W        W59675  11.785  35.953   1.443
95468W        W59676  10.236  15.739   1.793
95469W        W59677  10.368   0.336   0.904
95470W        W59678  32.938  42.515  12.396
95471W        W59679   1.340  32.914   0.404
95472W        W59680  24.026  16.570   4.260
95473W        W59681  31.152  16.765  11.612
95474W        W59682  23.151  19.608  14.353
95475W        W59683  43.500   4.376  11.480
95476W        W59684  42.522   1.883  12.992
95477W        W59685   6.868  44.982  14.785
95478W        W59686  16.586  36.921   0.786
95479W        W59687  42.516   5.390   1.388
95480W        W59688   1.826  30.105   5.309
95481W        W59689  19.259  34.910   0.807
95482W        W59690   4.318  19.154   0.451
95483W        W59691  26.490  16.595  13.001
95484W        W59692  31.565   6.855   1.760
95485W        W59693  22.022  24.680  12.460
95486W        W59694  27.190   0.943  12.074
95487W        W59695  42.324   8.217   0.773
95488W        W59696   0.919  27.619  14.514
95489W        W59697  23.145  32.553   4.311
95490W        W59698   3.935  14.734   0.472
95491W        W59699  42.829  43.503   3.232
95492W        W59700  24.117  16.301  11.409
95493W        W59701  33.515  41.471  14.974
95494W        W59702  31.947   0.270   1.782
95495W        W59703  12.281  10.380  10.473
95496W        W59704  13.623  28.064   4.727
95497W        W59705  17.750  33.909  13.910
95498W        W59706  38.341  16.668   2.237
95499W        W59707   3.851  29.946  10.589
95500W        W59708   4.818  38.432  13.858
95501W        W59709  23.658  12.360   4.817
95502W        W59710  42.349  42.028   0.404
95503W        W59711  31.980  34.519   2.879
95504W        W59712  18.229  34.082   0.920
95505W        W59713   6.417   7.813   1.324
95506W        W59714   4.209  24.197   2.849
95507W        W59715  25.698   6.237   2.743
95508W        W59716  18.665  25.144   0.349
95509W        W59717   2.386  20.737  10.481
95510W        W59718  31.996   3.797  14.875
95511W        W59719  33.442  15.722   1.403
95512W        W59720  11.759  36.052  10.042
95513W        W59721   5.694  25.197   3.282
95514W        W59722  24.031  13.164   2.408
95515W        W59723  24.597  39.384  11.985
95516W        W59724  22.204   1.953  11.453
95517W        W59725  12.761  13.806  10.622
95518W        W59726  33.563  24.977  13.026
95519W        W59727  17.203   1.768   2.894
95520W        W59728  17.185  41.294  12.458
95521W        W59729   9.366  38.443  12.992
95522W        W59730  35.534   2.826   1.390
95523W        W59731  22.736  19.776   0.869
95524W        W59732  36.589  34.391  14.974
95525W        W59733  33.501  15.315   3.692
95526W        W59734  28.488  37.549   1.882
95527W        W59735  35.528   2.879   0.249
95528W        W59736  40.908   7.226  14.973
95529W        W59737   2.965  35.510   2.884
95530W        W59738  38.352  33.580  10.473
95531W        W59739  17.285   9.843  12.091
95532W        W59740  35.367  36.362   4.181
95533W        W59741   7.731   8.283  14.316
95534W        W59742  14.248  32.594   4.777
95535W        W59743  14.754   9.673  12.911
95536W        W59744  14.149  13.777   4.320
95537W        W59745  17.555   2.295  13.372
95538W        W59746  27.495  36.873  10.507
95539W        W59747  22.529  24.056  10.892
95540W        W59748  22.598  30.951   2.736
95541W        W59749  28.112  24.521   4.759
95542W        W59750  16.668  33.608  11.128
95543W        W59751  31.553   9.223  13.867
95544W        W59752  33.952  42.302   0.891
95545W        W59753   2.270  13.602  14.985
95546W        W59754  23.027  36.983   0.426
95547W        W59755   4.810   8.861  10.431
95548W        W59756  38.444  10.250   1.885
95549W        W59757  29.163  12.284  14.412
95550W        W59758  42.318   4.772   3.372
95551W        W59759  29.040  37.570  12.093
95552W        W59760  24.212   3.431  10.481
95553W        W59761  28.556   0.325  11.937
95554W        W59762   2.357  17.196   4.637
95555W        W59763   7.886  17.293   4.236
95556W        W59764   9.771  12.840   2.286
95557W        W59765  30.468  30.657   0.481
95558W        W59766   0.386  17.634   0.934
95559W        W59767  33.572   7.826  10.483
95560W        W59768  11.831  44.850   0.945
95561W        W59769   9.217  11.785   1.930
95562W        W59770  17.596   7.396  14.414
95563W        W59771  18.746   1.257   1.815
95564W        W59772  17.250  27.154  11.435
95565W        W59773  20.634  23.610   1.274
95566W        W59774   9.868  32.993  11.863
95567W        W59775  31.038  33.549  14.932
95568W        W59776  33.550  14.751   9.921
95569W        W59777  32.398   8.296   2.899
95570W        W59778  30.084  36.436  11.874
95571W        W59779  13.351  11.219   1.440
95572W        W59780  20.663  42.831   3.256
95573W        W59781  23.174  21.090  10.641
95574W        W59782  20.615   3.871   4.665
95575W        W59783  33.495  41.317   0.410
95576W        W59784  20.590  17.757   0.252
95577W        W59785   6.839  16.140   0.423
95578W        W59786  43.801  37.543   4.208
95579W        W59787   4.808  13.264   4.704
95580W        W59788   4.230  42.361   4.624
95581W        W59789  29.968  17.713   0.729
95582W        W59790  29.468  42.908   5.128
95583W        W59791   3.256   4.844   1.770
95584W        W59792  41.854  12.760  11.993
95585W        W59793   3.276  12.128   3.167
95586W        W59794   8.845  40.965   0.855
95587W        W59795   9.803  25.173  10.537
95588W        W59796  39.436  21.722   1.321
95589W        W59797  12.117  14.703  14.428
95590W        W59798  41.002   3.798  14.778
95591W        W59799  23.504  44.299   3.807
95592W        W59800   6.789  37.553   4.813
95593W        W59801  43.290  22.159   0.935
95594W        W59802  30.510  43.285   1.758
95595W        W59803   5.267  30.108   3.857
95596W        W59804   9.174  13.154   2.882
95597W        W59805  22.179  33.095  14.481
95598W        W59806  19.682  10.151   1.281
95599W        W59807  24.523  38.924   1.334
95600W        W59808  32.946  36.939  13.014
95601W        W59809   9.652  21.133  11.419
95602W        W59810  12.245   2.784   0.909
95603W        W59811   3.869  22.577   0.475
95604W        W59812  12.835  24.166  14.016
95605W        W59813  40.314  43.473   4.162
95606W        W59814  34.378  31.902   4.682
95607W        W59815  41.787   0.967  14.945
95608W        W59816  41.030  34.470  11.913
95609W        W59817  31.005  23.036   3.684
95610W        W59818  21.666  37.082   1.276
95611W        W59819  14.331  41.020   0.484
95612W        W59820  24.153   8.379  11.973
95613W        W59821   3.856  10.177   3.750
95614W        W59822   5.790  42.437  13.934
95615W        W59823   5.889   0.797   2.820
95616W        W59824  25.198  27.952   4.686
95617W        W59825  22.089  15.633   3.161
95618W        W59826  21.521  14.277   4.142
95619W        W59827  33.080  10.757   2.848
95620W        W59828  39.859  12.143  13.478
95621W        W59829   5.314  16.633   1.848
95622W        W59830  20.701  11.860   3.238
95623W        W59831  10.237  36.504   2.687
95624W        W59832   6.819  34.867   2.757
95625W        W59833  13.309  28.003  12.844
95626W        W59834  37.943   3.305  13.960
95627W        W59835   7.357  25.023  12.002
95628W        W59836  29.152  40.484  12.401
95629W        W59837  14.634  32.440  13.425
95630W        W59838  34.899  41.900   4.762
95631W        W59839  43.893   9.155  11.458
95632W        W59840  40.331  16.172   9.619
95633W        W59841   0.416  32.072   3.356
95634W        W59842  25.067  38.382  12.925
95635W        W59843   7.804  38.855   1.297
95636W        W59844  33.066  28.612   2.265
95637W        W59845  20.607  34.495   0.315
95638W        W59846  29.534  25.547   0.381
95639W        W59847   5.860   3.864  11.588
95640W        W59848  22.044   9.337   2.228
95641W        W59849  27.182  18.122  14.472
95642W        W59850  29.534   2.398   4.816
95643W        W59851   5.726  18.229  12.518
95644W        W59852  13.835  29.553   1.885
95645W        W59853  19.660  32.928   0.309
95646W        W59854  40.042  16.277   1.921
95647W        W59855  26.461   7.779  12.417
95648W        W59856  19.597  27.482  11.002
95649W        W59857   2.418   1.744  10.044
95650W        W59858  41.822   1.767   1.264
95651W        W59859  11.648  13.230   3.815
95652W        W59860  33.973   1.841   4.814
95653W        W59861  24.557  15.138  10.957
95654W        W59862  15.141  11.624   3.744
95655W        W59863  39.042  38.892   1.290
95656W        W59864   4.888  33.562  12.344
95657W        W59865  15.167  41.819   0.761
95658W        W59866  43.833   5.800   4.732
95659W        W59867   5.714  30.986  13.410
95660W        W59868  10.350  20.655   4.204
95661W        W59869  12.716  38.991  12.364
95662W        W59870  41.986  25.612  13.971
95663W        W59871  42.898   0.963   0.477
95664W        W59872  12.641  24.210   2.228
95665W        W59873  22.739  39.001  14.003
95666W        W59874  40.908  20.105  10.534
95667W        W59875  14.679   7.833  12.495
95668W        W59876  40.018  35.523   2.767
95669W        W59877  26.992  44.376  12.345
95670W        W59878  20.075  25.519   4.241
95671W        W59879  33.987  26.658  12.043
95672W        W59880  40.523   2.789   1.442
95673W        W59881  31.555  33.877   4.123
95674W        W59882  44.808  21.758  12.978
95675W        W59883  20.086  15.224   0.351
95676W        W59884  14.757  21.094  12.954
95677W        W59885  11.216  32.045  14.496
95678W        W59886  34.585  35.380  13.464
95679W        W59887  41.499  38.444   1.360
95680W        W59888   9.160  30.653   4.241
95681W        W59889  44.760  29.162  13.487
95682W        W59890  16.588  16.638   4.636
95683W        W59891  32.906  17.597  11.479
95684W        W59892  33.989  18.292   3.223
95685W        W59893  38.328  13.194  11.919
95686W        W59894  29.947  28.568  10.627
95687W        W59895   5.431  30.634   5.314
95688W        W59896   6.259  40.839  11.407
95689W        W59897  27.664  28.545  11.097
95690W        W59898  13.349  36.365   0.318
95691W        W59899   3.795  38.525  10.993
95692W        W59900  39.460  15.705  11.479
95693W        W59901   6.907  19.714  10.408
95694W        W59902  33.997  28.546  11.925
95695W        W59903  35.551  30.139  12.062
95696W        W59904  18.078  42.003   2.260
95697W        W59905  32.041  42.393  10.613
95698W        W59906  22.702  36.432   2.297
95699W        W59907  36.975  24.667  11.372
95700W        W59908  15.643  36.900   4.780
95701W        W59909  10.362  25.675  12.854
95702W        W59910  13.269  24.135  11.941
95703W        W59911   3.855  20.201  11.982
95704W        W59912  35.560  11.849   4.777
95705W        W59913   3.713  31.061   2.368
95706W        W59914  40.527   0.843   4.730
95707W        W59915  43.827  26.182  10.950
95708W        W59916  43.985   0.751  11.538
95709W        W59917  17.183   3.840  14.941
95710W        W59918  27.972   9.328  13.816
95711W        W59919   9.668   9.880   0.879
95712W        W59920  19.762  11.634  14.312
95713W        W59921   0.273  40.982  11.017
95714W        W59922  27.525  15.660  14.485
95715W        W59923  13.186  21.183  13.933
95716W        W59924  34.392  41.912   3.274
95717W        W59925  29.141   8.785   4.266
95718W        W59926  43.957  20.528   0.928
95719W        W59927  12.841  42.384   4.635
95720W        W59928  25.007  19.074   3.311
95721W        W59929   3.420  35.105  10.595
95722W        W59930  33.929  23.151  12.059
95723W        W59931  29.075  11.269  10.501
95724W        W59932  33.082  19.567  13.813
95725W        W59933   0.391  14.336  14.412
95726W        W59934  26.488  41.432   4.201
95727W        W59935  28.102   7.898   3.317
95728W        W59936  31.633  13.154   3.843
95729W        W59937  17.738   0.916   2.788
95730W        W59938  10.148   7.731  13.464
95731W        W59939  15.329  34.911  13.047
95732W        W59940  42.292  17.684   3.640
95733W        W59941  34.525   8.367  12.941
95734W        W59942  41.877  15.791   1.311
95735W        W59943  20.754   2.288   3.766
95736W        W59944  40.356  35.078   5.207
95737W        W59945  15.126  16.166  12.892
95738W        W59946  35.553  19.714  14.850
95739W        W59947  17.593  37.481  13.063
95740W        W59948  20.215  25.071   4.332
95741W        W59949  41.866  32.978  13.497
95742W        W59950  44.780   9.845   4.342
95743W        W59951  27.464  36.067   2.664
95744W        W59952   3.895  25.678   3.852
95745W        W59953  33.415  36.405  11.471
95746W        W59954   2.807  20.134   0.382
95747W        W59955  36.575   2.802   0.895
95748W        W59956   0.379   0.975   5.569
95749W        W59957  40.421  40.311   0.439
95750W        W59958   2.328  37.502  14.834
95751W        W59959   0.397  41.844  13.817
95752W        W59960   7.826  17.200  11.441
95753W        W59961  21.109  24.710  13.333
95754W        W59962  27.465  33.021   1.372
95755W        W59963  38.429  22.246  12.051
95756W        W59964  20.039  26.589   1.701
95757W        W59965   5.768  17.683   1.425
95758W        W59966  24.194  30.425  13.358
95759W        W59967  27.119  22.210   4.303
95760W        W59968  37.458  32.437   4.600
95761W        W59969   5.788  43.774  14.327
95762W        W59970  12.353  34.459   1.298
95763W        W59971   0.875   2.765   0.281
95764W        W59972  37.537  26.538   0.349
95765W        W59973  21.706  10.360  14.283
95766W        W59974  29.151   6.280  14.429
95767W        W59975   1.390  39.407  11.384
95768W        W59976  42.972  30.656  12.012
95769W        W59977  13.220  42.798   4.745
95770W        W59978  23.046   7.243  10.068
95771W        W59979  28.448   5.795   3.827
95772W        W59980   3.349  41.479   1.885
95773W        W59981  38.968  37.534   5.243
95774W        W59982  37.382  32.481   0.285
95775W        W59983  42.862  23.152   3.234
95776W        W59984  15.261  27.492   3.208
95777W        W59985  21.716  37.950   3.683
95778W        W59986  40.944  41.959  12.038
95779W        W59987  27.467  31.572   0.935
95780W        W59988  10.718  44.441   4.187
95781W        W59989  40.834  25.652   4.294
95782W        W59990   8.843  20.760   3.727
95783W        W59991   4.784  33.901  14.393
95784W        W59992  32.089  14.783   0.786
95785W        W59993  39.473  42.933  12.082
95786W        W59994   9.872  12.219  10.957
95787W        W59995  22.217  34.543   0.460
95788W        W59996  23.021  38.021   2.811
95789W        W59997   1.764  11.150   0.869
95790W        W59998  31.478  38.843  13.307
95791W        W59999  42.899  24.697  12.987
95792W        W60000   9.196  40.021   0.280
95793W        W60001  26.111  39.927   2.379
95794W        W60002  22.599  39.896   4.273
95795W        W60003  23.181   8.859   4.604
95796W        W60004  38.389  28.530  10.535
95797W        W60005  41.519  29.122   2.682
95798W        W60006  18.169  27.545   3.269
95799W        W60007  35.382  15.674   2.208
95800W        W60008   9.736  35.584  14.389
95801W        W60009  35.046  31.904  12.899
95802W        W60010  30.941  40.329  12.854
95803W        W60011  30.416   3.795   1.424
95804W        W60012   8.787  36.558   0.857
95805W        W60013  35.981  28.170   4.136
95806W        W60014   8.666   5.284  14.321
95807W        W60015  35.377   8.256   2.202
95808W        W60016  20.158  11.289  12.468
95809W        W60017  26.542   7.240   4.631
95810W        W60018  40.010  39.360  10.626
95811W        W60019   0.430  28.082  10.161
95812W        W60020  40.916  20.533   3.354
95813W        W60021  27.072  21.090  11.500
95814W        W60022  26.635  17.095   4.607
95815W        W60023  26.462  24.654   2.884
95816W        W60024  42.470  33.058   0.950
95817W        W60025   0.468  31.981  13.457
95818W        W60026  44.763  11.726   1.374
95819W        W60027  15.208   8.688  12.914
95820W        W60028  36.405  12.232   2.207
95821W        W60029   4.368  27.193   3.155
95822W        W60030  17.611  41.868   0.299
95823W        W60031  19.541  19.154  12.870
95824W        W60032  24.515  34.863   0.884
95825W        W60033  35.512   6.900  12.497
95826W        W60034   1.882  29.088  12.365
95827W        W60035  16.693  20.195  14.822
95828W        W60036  35.399   1.748  11.488
95829W        W60037  27.022  44.389   2.883
95830W        W60038  41.899   3.383   5.615
95831W        W60039  27.507   2.462  11.584
95832W        W60040  41.817  33.420   5.320
95833W        W60041  26.126  14.169   1.703
95834W        W60042   7.189  14.271  13.492
95835W        W60043  22.209   7.874   0.903
95836W        W60044   1.955  33.569   1.843
95837W        W60045  13.636  14.330   0.779
95838W        W60046  34.071  29.100   0.436
95839W        W60047   9.377  36.534   0.257
95840W        W60048  42.865   2.416  13.492
95841W        W60049  22.115  16.595  12.961
95842W        W60050  38.848   3.228  11.469
95843W        W60051  22.541  28.935  12.825
95844W        W60052  20.541  11.259  14.372
95845W        W60053  12.217  27.144  10.976
95846W        W60054  21.121  42.366  12.897
95847W        W60055  38.867  42.904  10.117
95848W        W60056   1.411  23.188   1.319
95849W        W60057  41.831  12.630  12.857
95850W        W60058  26.549  23.701   0.921
95851W        W60059  18.134   7.197   3.747
95852W        W60060  35.432  21.080   5.295
95853W        W60061   1.927  36.357  14.853
95854W        W60062  22.158  21.177   4.689
95855W        W60063  41.979   5.253  14.772
95856W        W60064   3.270  41.960   0.913
95857W        W60065  44.994   6.417   1.322
95858W        W60066  37.873  42.291   0.750
95859W        W60067  43.844  40.048  10.529
95860W        W60068  16.118  44.269   1.417
95861W        W60069  20.650  15.309  12.925
95862W        W60070   0.821  44.986   1.258
95863W        W60071  37.014  39.052  13.355
95864W        W60072   9.352  43.817   2.826
95865W        W60073  37.994   1.435   2.844
95866W        W60074  36.577  27.165  13.347
95867W        W60075  32.500  11.320   2.416
95868W        W60076  28.604   2.755   0.962
95869W        W60077   6.723  10.699   2.412
95870W        W60078  23.644  42.453   3.207
95871W        W60079  21.511  40.919  13.971
95872W        W60080  25.133   6.757   3.740
95873W        W60081  26.497  21.145  10.578
95874W        W60082   6.883  24.033   2.185
95875W        W60083  16.766  40.852   2.299
95876W        W60084  32.411  20.584  11.908
95877W        W60085  12.327  38.028  14.009
95878W        W60086  40.981  23.180  12.983
95879W        W60087  22.552  12.253   4.146
95880W        W60088  32.547  23.673   3.758
95881W        W60089   8.889   4.308   0.468
95882W        W60090  42.472  18.092  12.579
95883W        W60091  26.974  36.920  13.803
95884W        W60092   4.357  22.638   4.270
95885W        W60093   5.803  40.516   3.292
95886W        W60094  31.050  36.375  10.967
95887W        W60095   5.688   9.205   2.807
95888W        W60096  13.147  39.438   1.882
95889W        W60097  31.520  31.117  12.929
95890W        W60098  41.538  30.028   3.843
95891W        W60099  26.466  40.467   4.703
95892W        W60100  39.470  22.162   2.415
95893W        W60101  24.582  15.109   1.904
95894W        W60102   2.866  40.955  14.789
95895W        W60103  12.710   1.445   2.362
95896W        W60104  23.619  20.233   0.825
95897W        W60105  30.478  13.803   3.650
95898W        W60106   9.663  17.709  11.882
95899W        W60107  31.129   0.986  12.985
95900W        W60108  10.299  14.235  11.103
95901W        W60109   7.177  12.132  14.369
95902W        W60110  26.522  10.272  13.899
95903W        W60111  17.583  13.832  10.459
95904W        W60112  22.013  30.148  11.450
95905W        W60113  27.570  34.981  13.979
95906W        W60114   6.272  25.976  12.949
95907W        W60115  12.611  39.950  12.425
95908W        W60116  10.665  26.635  10.150
95909W        W60117  40.489  41.356  11.096
95910W        W60118  14.122   9.713   4.778
95911W        W60119   5.753  31.448  10.894
95912W        W60120  29.942  38.865   2.308
95913W        W60121  25.147  37.052   4.695
95914W        W60122  40.959  27.176  11.395
95915W        W60123   8.297  12.706   3.834
95916W        W60124  13.843  39.016   1.347
95917W        W60125  30.016  44.867  11.950
95918W        W60126  28.062   6.794   1.341
95919W        W60127  27.448  24.577  12.088
95920W        W60128  28.969  31.502  11.929
95921W        W60129   5.777  43.438   4.654
95922W        W60130  33.525  30.639   0.414
95923W        W60131   8.356  32.916  11.935
95924W        W60132  33.131  30.079   1.349
95925W        W60133  10.775  42.013   4.332
95926W        W60134   1.793  38.067   2.391
95927W        W60135   6.753  22.194  12.036
95928W        W60136   4.866  25.627  12.990
95929W        W60137  18.561   2.364   2.256
95930W        W60138  30.429  34.050  13.801
95931W        W60139  26.535  35.048   4.672
95932W        W60140  25.166   5.718   0.739
95933W        W60141   3.714  19.584  12.845
95934W        W60142  39.914  27.071   0.321
95935W        W60143   1.365  13.607   3.684
95936W        W60144  42.381  39.824   4.174
95937W        W60145  31.932  27.166  11.492
95938W        W60146  18.206  34.521  12.969
95939W        W60147  28.013  23.697   4.731
95940W        W60148   1.970  26.508   1.825
95941W        W60149   5.386  12.794  12.423
95942W        W60150  42.357  12.678  10.924
95943W        W60151  20.702  24.094   4.697
95944W        W60152   2.354  16.740   2.704
95945W        W60153   4.450  11.756  10.544
95946W        W60154  20.702  15.183   3.785
95947W        W60155  10.800   9.280   4.674
95948W        W60156  33.983  28.650  10.588
95949W        W60157  34.031   0.875  14.898
95950W        W60158  41.809   0.253   0.423
95951W        W60159  39.423  39.999   1.237
95952W        W60160  39.336  37.478   3.810
95953W        W60161  30.117  17.225   2.360
95954W        W60162  26.200  15.805  14.450
95955W        W60163  18.640  22.050  11.515
95956W        W60164  42.489   8.878   2.178
95957W        W60165  11.647  39.405  10.421
95958W        W60166   3.391  40.913  10.549
95959W        W60167  41.988  38.960  12.364
95960W        W60168   2.320  19.707   3.795
95961W        W60169   0.284  31.550   0.403
95962W        W60170  39.878   8.169   0.891
95963W        W60171  22.213  13.270   2.371
95964W        W60172  22.064   1.903   0.414
95965W        W60173  31.479  30.604   3.285
95966W        W60174  38.978   4.391  14.863
95967W        W60175  12.840  42.922  11.858
95968W        W60176  38.430  23.730  12.364
95969W        W60177  37.518  32.409  12.862
95970W        W60178  28.676  27.555  11.512
95971W        W60179  29.081   2.852   3.675
95972W        W60180  23.575   5.397   3.798
95973W        W60181  36.066  27.546  14.768
95974W        W60182  40.394  40.418   0.967
95975W        W60183  32.484  40.932   0.439
95976W        W60184  25.165  34.109   1.901
95977W        W60185  12.131  17.765   0.932
95978W        W60186  22.245  10.257  11.421
95979W        W60187   5.894  41.005  12.505
95980W        W60188  30.921  18.615   0.830
95981W        W60189  42.988   4.777  14.341
95982W        W60190  43.411  32.057   1.298
95983W        W60191   4.781   7.714  10.947
95984W        W60192  19.600  18.201   9.989
95985W        W60193  34.432   7.778  14.390
95986W        W60194   8.733   2.444  12.064
95987W        W60195  15.787  29.998  10.439
95988W        W60196  29.053  14.181   4.626
95989W        W60197  33.069   1.321   2.696
95990W        W60198  41.431  16.568   2.734
95991W        W60199   3.792  35.947  12.921
95992W        W60200   1.767   4.358   4.677
95993W        W60201  15.751   1.302   3.689
95994W        W60202  33.518   3.258   0.296
95995W        W60203  16.744  32.499  12.381
95996W        W60204  10.227  35.986  14.410
95997W        W60205  44.976   1.262   4.749
95998W        W60206  39.484  13.652  11.044
95999W        W60207  14.818  44.462  13.472
96000W        W60208   9.258   7.347   1.419
96001W        W60209  11.171  32.528   1.695
96002W        W60210   2.854  43.936  11.398
96003W        W60211  20.753  42.922  10.509
96004W        W60212  15.742   0.268   0.411
96005W        W60213  15.245  36.870  13.041
96006W        W60214   5.269   5.785   4.635
96007W        W60215   9.185   3.324  12.972
96008W        W60216  12.360  18.761  13.012
96009W        W60217  30.455  42.411  14.843
96010W        W60218  43.929  42.790   0.397
96011W        W60219  40.965  32.038  12.919
96012W        W60220   2.427  24.097   3.189
96013W        W60221  32.595  26.061   4.354
96014W        W60222  39.391  43.413  14.849
96015W        W60223  29.923   1.754   3.795
96016W        W60224  32.483  22.553  11.871
96017W        W60225   3.301  21.199  14.435
96018W        W60226  18.218   6.379   2.415
96019W        W60227  27.018   2.915  13.867
96020W        W60228  13.208  34.497  10.073
96021W        W60229   8.335  37.843   3.870
96022W        W60230  36.401  31.134  12.909
96023W        W60231  10.715  44.409   1.794
96024W        W60232  25.556  36.398   2.808
96025W        W60233  32.004  21.047  12.478
96026W        W60234   3.327  34.959   4.680
96027W        W60235  24.086  23.687  10.539
96028W        W60236  19.264  16.227  11.957
96029W        W60237  33.432  31.563   4.297
96030W        W60238  32.464  44.322  14.427
96031W        W60239  26.684  19.535  14.011
96032W        W60240  11.288  34.534   0.252
96033W        W60241  15.702  38.492  11.083
96034W        W60242   5.911  35.568   1.393
96035W        W60243  23.596  38.840  10.150
96036W        W60244  22.728  13.350   2.392
96037W        W60245  14.593  32.566  11.871
96038W        W60246  29.125  16.664   3.639
96039W        W60247  37.365  14.322   1.820
96040W        W60248  24.645  25.611   1.892
96041W        W60249  35.438  23.531  14.385
96042W        W60250  12.166  35.492  13.384
96043W        W60251  20.054  41.445   2.709
96044W        W60252  14.773   9.705   2.400
96045W        W60253  38.019  44.879  11.888
96046W        W60254  38.066  32.593  14.477
96047W        W60255  35.470  20.601  11.559
96048W        W60256  33.980  36.359   1.354
96049W        W60257  27.681   7.737   2.798
96050W        W60258  17.594  39.933  11.374
96051W        W60259   3.407  38.871   3.327
96052W        W60260  44.395  40.988   4.323
96053W        W60261  38.417  34.959   4.226
96054W        W60262  20.065  32.402  11.927
96055W        W60263  21.725   2.372   0.441
96056W        W60264   6.687  18.769   2.866
96057W        W60265  13.152  15.093   2.838
96058W        W60266  19.622  13.156   5.133
96059W        W60267   8.838  43.353   4.143
96060W        W60268   5.232   8.215  13.858
96061W        W60269  27.543  41.006  11.516
96062W        W60270  28.154  33.126  14.308
96063W        W60271  22.086  19.188   4.170
96064W        W60272  32.637   6.817   3.786
96065W        W60273  24.581  14.117  10.461
96066W        W60274   1.968  10.333  10.405
96067W        W60275  41.792   5.717   4.144
96068W        W60276  18.245  37.930  14.323
96069W        W60277  39.428  28.666  13.344
96070W        W60278   5.927   3.905  10.584
96071W        W60279  29.661  16.706  12.080
96072W        W60280  35.071   1.356   1.383
96073W        W60281  31.999  10.280  11.028
96074W        W60282  17.251  30.582  14.393
96075W        W60283  16.764  30.481   1.791
96076W        W60284  38.538  40.516  11.929
96077W        W60285  42.844  34.916  12.357
96078W        W60286  19.696  23.028   3.773
96079W        W60287   0.906  38.830   3.847
96080W        W60288   6.233  22.563   4.187
96081W        W60289  27.484  20.570   1.911
96082W        W60290  27.011  17.651  11.890
96083W        W60291  24.101   0.340  13.376
96084W        W60292  44.470  24.712  14.816
96085W        W60293  20.684   9.174   3.868
96086W        W60294  11.859  25.638   1.825
96087W        W60295  12.704  24.040   1.420
96088W        W60296   5.296   9.323   0.829
96089W        W60297   4.274  16.774  12.071
96090W        W60298   2.770  39.985  14.501
96091W        W60299  17.661  36.990   1.847
96092W        W60300   1.847   8.204   0.345
96093W        W60301   7.901  15.751   0.796
96094W        W60302  40.504  38.531  12.048
96095W        W60303  42.362   6.690  10.610
96096W        W60304   5.431  38.533   1.780
96097W        W60305  37.857  13.810  13.461
96098W        W60306  42.967  35.910  10.506
96099W        W60307   0.846  31.934  12.963
96100W        W60308  23.523  34.880  10.488
96101W        W60309  23.614  32.991  10.576
96102W        W60310  42.018   3.419   1.782
96103W        W60311   9.227  29.543   0.359
96104W        W60312  40.371  11.683  11.543
96105W        W60313  37.550  40.375  10.595
96106W        W60314   5.786  12.825  13.907
96107W        W60315  39.448  13.300  14.514
96108W        W60316  31.626   0.879  13.829
96109W        W60317  43.503  14.303   1.239
96110W        W60318  12.634  32.447  10.545
96111W        W60319   1.793  38.942  11.610
96112W        W60320  12.233  11.693   2.179
96113W        W60321  35.881  28.070   4.743
96114W        W60322  19.279   8.406   1.718
96115W        W60323   5.215  28.073  11.549
96116W        W60324  30.083   3.418   0.404
96117W        W60325  32.493  27.009   2.267
96118W        W60326   9.186  37.350  14.861
96119W        W60327  15.116  11.706   0.368
96120W        W60328  34.931  33.556   0.935
96121W        W60329  16.613  11.327  14.930
96122W        W60330  33.503  19.680  14.915
96123W        W60331  23.586  28.681   1.918
96124W        W60332   3.838  17.694   1.328
96125W        W60333   5.767   0.889  10.939
96126W        W60334  14.115   6.866   4.203
96127W        W60335  38.532   3.748  12.070
96128W        W60336  11.182   9.295  12.417
96129W        W60337  35.954   5.386   2.751
96130W        W60338  15.177  23.495   2.827
96131W        W60339   3.261  39.838   1.416
96132W        W60340  37.581  36.967  13.392
96133W        W60341  26.499  30.133   3.305
96134W        W60342  30.147   3.290  10.542
96135W        W60343  18.255  38.393  11.521
96136W        W60344   2.753  31.633   1.404
96137W        W60345  14.259  42.870  12.498
96138W        W60346  12.299  20.138  14.020
96139W        W60347  41.425  15.680  11.917
96140W        W60348  40.950  12.208  14.480
96141W        W60349  31.423  18.636  10.596
96142W        W60350  26.043  14.100  13.048
96143W        W60351  34.577  24.198  13.431
96144W        W60352  14.120   1.357  10.960
96145W        W60353  20.743  36.461   0.913
96146W        W60354  44.364  21.663  14.513
96147W        W60355  33.437   6.394  10.128
96148W        W60356  26.570  28.974  12.547
96149W        W60357  40.821  42.358   3.689
96150W        W60358  31.979  35.472   4.197
96151W        W60359   6.382   8.184   3.787
96152W        W60360  32.501  44.497   3.335
96153W        W60361  31.900  22.227  12.879
96154W        W60362  41.442  31.125  10.939
96155W        W60363  23.566  17.086   4.790
96156W        W60364  20.159  29.117  13.001
96157W        W60365  38.532  20.085   2.691
96158W        W60366  25.046  25.651  12.827
96159W        W60367  20.259  32.928   4.598
96160W        W60368  19.229  35.410  12.046
96161W        W60369  18.086  16.742  14.471
96162W        W60370  35.970  25.502  11.461
96163W        W60371  42.818  36.577  10.418
96164W        W60372  15.123  42.338   3.695
96165W        W60373   6.307   1.917  12.061
96166W        W60374  28.029  22.220   3.175
96167W        W60375  36.591  30.649   2.747
96168W        W60376  37.962  21.110   3.852
96169W        W60377  11.149  41.386  10.530
96170W        W60378  19.625   1.799   3.715
96171W        W60379  35.573  35.882  10.911
96172W        W60380  14.622  24.512  10.448
96173W        W60381  40.931   8.872   1.362
96174W        W60382  37.344  16.763   4.825
96175W        W60383  34.976   2.354   5.148
96176W        W60384  33.517   1.756   4.809
96177W        W60385  22.999  11.245  13.810
96178W        W60386  29.073  28.027  10.497
96179W        W60387  36.498   6.407   4.183
96180W        W60388  27.537  13.117   2.284
96181W        W60389   2.314  33.980  14.400
96182W        W60390  34.890   8.892   2.779
96183W        W60391   9.792   3.244   1.227
96184W        W60392  34.037   8.175   2.703
96185W        W60393  43.403  13.196  12.384
96186W        W60394  31.544  17.188  13.869
96187W        W60395  20.231  26.984   3.356
96188W        W60396  36.428  22.702   4.708
96189W        W60397  25.001  26.535   0.300
96190W        W60398   7.344  21.610   2.778
96191W        W60399  38.961  31.976   2.679
96192W        W60400  40.491  19.132   0.454
96193W        W60401  22.645   7.847  10.971
96194W        W60402  30.048  11.173   3.228
96195W        W60403  34.020  13.614   1.283
96196W        W60404  17.632  25.570  11.558
96197W        W60405  36.041   2.433  10.550
96198W        W60406  18.166  18.655  12.440
96199W        W60407  36.413  44.809  13.494
96200W        W60408   4.768  39.967   0.480
96201W        W60409   2.233  16.300   4.627
96202W        W60410  17.134  32.906   2.350
96203W        W60411  38.331  43.319  11.425
96204W        W60412   9.366  14.307  11.490
96205W        W60413   5.214  29.453  12.857
96206W        W60414  27.152   2.463   3.159
96207W        W60415  16.784  34.043  14.030
96208W        W60416  18.134  14.249   4.765
96209W        W60417  42.011   9.319   1.769
96210W        W60418   0.857   5.698   2.850
96211W        W60419   5.795  42.811   4.641
96212W        W60420  15.726  12.770   2.182
96213W        W60421  24.597  11.704  11.970
96214W        W60422  35.107   6.327   0.901
96215W        W60423  39.918  30.163   4.692
96216W        W60424   0.847  39.386  14.902
96217W        W60425  35.036  16.177   2.231
96218W        W60426  39.515  17.220   3.860
96219W        W60427   2.767  31.146  11.511
96220W        W60428  18.067   5.271   4.341
96221W        W60429  26.659  34.611  13.458
96222W        W60430  10.732  28.961   1.303
96223W        W60431  18.155  38.991  14.311
96224W        W60432   8.335  41.838  12.058
96225W        W60433  18.078  44.913  13.970
96226W        W60434  14.728  17.668   2.758
96227W        W60435  24.983  38.029   4.207
96228W        W60436  39.549  23.088   4.182
96229W        W60437  29.061  23.016   3.357
96230W        W60438  28.447  10.701   2.222
96231W        W60439  22.131  30.040   3.205
96232W        W60440   9.645   8.397   4.698
96233W        W60441  21.242  36.899  14.429
96234W        W60442  35.984  40.808   1.865
96235W        W60443   4.265   2.876   0.845
96236W        W60444  24.989  11.271  12.546
96237W        W60445   9.259  18.184  10.971
96238W        W60446  17.307  19.115  14.864
96239W        W60447  34.118  23.694   1.717
96240W        W60448   1.829   8.872  10.955
96241W        W60449  42.385  10.382  11.526
96242W        W60450  37.416  15.235  14.021
96243W        W60451  21.048   9.674   4.163
96244W        W60452  33.394  37.372   4.832
96245W        W60453  29.608   6.337   4.158
96246W        W60454  27.691  18.167   2.870
96247W        W60455   6.251  10.762  13.816
96248W        W60456   1.886  17.299  12.907
96249W        W60457  32.063   7.414   0.250
96250W        W60458  44.427  34.113   2.229
96251W        W60459  29.494  41.907  11.519
96252W        W60460  11.762  23.049   4.167
96253W        W60461  44.350  11.698   5.120
96254W        W60462  35.081  29.009   2.837
96255W        W60463  37.946  21.112  12.073
96256W        W60464  31.972  17.613   3.767
96257W        W60465  28.052   2.804   1.388
96258W        W60466  25.203  28.961   2.766
96259W        W60467  32.921   5.888   1.391
96260W        W60468  22.621  27.118  13.514
96261W        W60469  12.815   5.292   4.324
96262W        W60470   3.239  30.958  12.559
96263W        W60471  19.255  14.834   2.694
96264W        W60472  17.141  35.088  14.337
96265W        W60473  26.692  15.636   5.312
96266W        W60474  13.684   0.292   0.254
96267W        W60475  31.906  20.706   1.703
96268W        W60476  15.813  40.534  10.421
96269W        W60477   7.777  21.192  14.905
96270W        W60478  30.428  18.627   1.217
96271W        W60479   1.841  38.019   0.356
96272W        W60480   0.452  37.062   2.376
96273W        W60481   1.792  20.711  13.338
96274W        W60482  19.564  15.222  12.443
96275W        W60483   9.299  10.291   1.711
96276W        W60484  26.679  35.415  14.871
96277W        W60485  25.099  23.508   4.170
96278W        W60486  20.052  40.872   0.897
96279W        W60487  28.499   9.811  11.069
96280W        W60488  35.449  36.498  13.025
96281W        W60489  26.963   5.216  13.360
96282W        W60490  15.227  14.232  13.020
96283W        W60491  27.156  38.956   3.366
96284W        W60492  21.196  22.097  13.475
96285W        W60493   2.943  38.480   4.693
96286W        W60494  33.069   4.254   3.751
96287W        W60495   0.471  27.519   0.387
96288W        W60496  24.133  16.587  12.952
96289W        W60497  15.167  12.269  11.048
96290W        W60498  42.809  30.519   3.368
96291W        W60499  30.946  32.124  12.888
96292W        W60500   9.325   0.780  13.507
96293W        W60501  43.966  40.500   0.887
96294W        W60502  11.759   4.703  10.556
96295W        W60503  38.051   6.921  11.085
96296W        W60504  32.083  33.920  13.384
96297W        W60505  25.582  15.741   0.879
96298W        W60506  11.800   1.360   1.240
96299W        W60507   7.240  13.775   2.798
96300W        W60508  17.147  17.591   3.766
96301W        W60509  14.312  26.523  10.941
96302W        W60510   5.273  19.205   3.380
96303W        W60511   0.828  14.819  13.943
96304W        W60512   7.271  38.895   3.642
96305W        W60513  23.616  22.744  10.636
96306W        W60514  38.991   8.825   0.781
96307W        W60515   7.294  21.712   1.219
96308W        W60516  32.005   8.328  14.845
96309W        W60517   3.382  25.593  10.558
96310W        W60518  38.848  44.768   1.257
96311W        W60519  11.679  42.968   0.807
96312W        W60520  42.309   5.894   4.799
96313W        W60521   7.293  26.982   2.323
96314W        W60522   7.214  26.974  12.017
96315W        W60523   3.293  32.552   1.780
96316W        W60524  21.656  19.560   5.627
96317W        W60525  29.448  22.729   2.192
96318W        W60526  43.282   7.825   1.274
96319W        W60527  37.087  16.199   2.727
96320W        W60528  22.201   7.377  12.530
96321W        W60529  23.509  10.770  12.358
96322W        W60530  31.067   4.779  12.981
96323W        W60531  16.208  18.232  11.044
96324W        W60532  24.146  28.484  14.315
96325W        W60533  41.447  38.387  10.533
96326W        W60534  42.979   4.356  11.071
96327W        W60535  25.557  19.695   3.346
96328W        W60536   9.236  14.802   1.297
96329W        W60537   2.251   0.884  10.459
96330W        W60538  12.612   6.411   1.854
96331W        W60539  11.282  23.727   0.913
96332W        W60540  34.070  15.136  13.956
96333W        W60541  38.539  40.845  14.800
96334W        W60542  25.110   7.369   1.322
96335W        W60543  22.076  44.993   4.806
96336W        W60544  39.390  16.137   1.285
96337W        W60545  24.044  17.273   4.810
96338W        W60546   6.777   5.903  14.302
96339W        W60547  37.077  36.588   0.258
96340W        W60548  40.849  36.350  14.008
96341W        W60549  13.210  31.976  12.547
96342W        W60550  18.709  33.476  12.557
96343W        W60551  12.743  43.961   0.738
96344W        W60552  20.105  21.137   4.729
96345W        W60553  43.323  23.090  12.469
96346W        W60554  15.770  40.959  12.836
96347W        W60555  31.122  13.289   1.446
96348W        W60556   8.887  31.556   0.429
96349W        W60557  29.667  27.961  11.420
96350W        W60558   4.835  10.830  13.866
96351W        W60559   8.788  25.142   0.374
96352W        W60560  33.567  18.664  11.547
96353W        W60561  26.487  26.031   3.193
96354W        W60562  30.006  21.163   2.781
96355W        W60563  24.624  12.344  10.560
96356W        W60564  35.103   7.185   1.806
96357W        W60565  38.498  29.425   3.720
96358W        W60566  18.125   3.355   3.207
96359W        W60567  34.516  44.808   1.805
96360W        W60568  15.249  23.231   1.410
96361W        W60569  34.101   8.369   4.750
96362W        W60570   1.895  30.910  13.398
96363W        W60571   9.190  33.431   0.247
96364W        W60572  22.058  25.568  14.467
96365W        W60573  20.207   8.357   0.274
96366W        W60574  31.624  37.983   2.266
96367W        W60575  20.148  22.591   3.340
96368W        W60576  19.657   8.859   4.673
96369W        W60577  26.051  36.935  12.515
96370W        W60578  30.049   0.336   1.411
96371W        W60579  33.523  33.906   4.242
96372W        W60580  28.068  22.728   3.363
96373W        W60581   2.793  22.578  14.313
96374W        W60582  42.422  37.924   0.927
96375W        W60583  25.536  19.697   2.748
96376W        W60584  19.570   6.772   2.718
96377W        W60585  39.942  28.527   2.751
96378W        W60586  27.170  43.837  11.128
96379W        W60587  17.614  23.704   4.281
96380W        W60588  16.775  23.608   3.225
96381W        W60589  37.360  12.735  12.093
96382W        W60590  32.134  28.443   0.412
96383W        W60591  39.493  37.873   2.321
96384W        W60592  35.470  44.314  11.443
96385W        W60593   1.880  37.050  13.050
96386W        W60594  26.557   6.269   5.089
96387W        W60595   2.743  13.810  14.002
96388W        W60596   7.248  32.491   3.207
96389W        W60597   7.180  33.958  10.955
96390W        W60598   5.256  30.587  10.422
96391W        W60599  31.017  43.902  12.359
96392W        W60600  25.521  41.499   5.085
96393W        W60601   1.380  37.475  12.050
96394W        W60602  24.714  34.109  12.382
96395W        W60603  26.180  18.574   4.742
96396W        W60604   2.231   7.847  12.381
96397W        W60605  41.408   4.773  13.444
96398W        W60606   3.869  20.089   1.311
96399W        W60607  17.781  29.052   0.277
96400W        W60608  20.534  21.740  11.039
96401W        W60609   0.794  26.991  10.640
96402W        W60610  33.985  38.355   0.270
96403W        W60611  14.827  20.198   1.398
96404W        W60612  15.754   6.792   0.777
96405W        W60613  31.015  22.174   2.842
96406W        W60614  17.566  33.953   3.196
96407W        W60615  17.201  37.894  12.016
96408W        W60616  38.439  37.454  14.344
96409W        W60617  36.025  13.728   0.470
96410W        W60618  12.633   5.880  12.537
96411W        W60619  15.290  42.358   1.308
96412W        W60620   6.217  32.404   1.380
96413W        W60621  39.496  13.703   1.854
96414W        W60622  20.750  13.291   1.391
96415W        W60623  24.518  35.856   2.392
96416W        W60624  17.154   8.725  12.536
96417W        W60625  32.126  11.317  14.891
96418W        W60626  20.044   1.740  14.972
96419W        W60627  37.448   1.322  10.458
96420W        W60628  16.776   8.854   1.371
96421W        W60629   0.913   6.366   2.860
96422W        W60630  21.709  22.046   1.279
96423W        W60631   2.762  14.730  10.478
96424W        W60632   0.364  12.813   0.940
96425W        W60633  27.955  39.364   3.256
96426W        W60634  19.039  28.595   0.299
96427W        W60635  24.119  44.944  13.875
96428W        W60636  21.067  11.684  12.983
96429W        W60637  29.472  32.127  14.026
96430W        W60638   6.864   9.259  11.882
96431W        W60639  40.402  31.592   4.676
96432W        W60640   2.844  19.274  13.884
96433W        W60641  13.817  36.442  12.017
96434W        W60642  26.047  39.420   1.817
96435W        W60643  15.202  41.340  12.368
96436W        W60644  43.272  18.217  14.027
96437W        W60645  15.778  16.075   2.311
96438W        W60646  13.688   7.272  14.898
96439W        W60647  13.138   3.873   3.710
96440W        W60648   8.777  24.520  11.053
96441W        W60649  31.459  26.171  13.942
96442W        W60650  38.349  31.048  13.982
96443W        W60651  10.648  43.922  10.987
96444W        W60652  37.890  41.471   2.322
96445W        W60653  42.298  21.176  14.495
96446W        W60654  36.575  41.398   2.325
96447W        W60655  41.364  14.180  13.358
96448W        W60656   9.206  16.760   4.182
96449W        W60657  12.322   7.776   2.245
96450W        W60658  39.813  41.856  12.055
96451W        W60659  18.248  37.362  14.360
96452W        W60660  22.231  25.001  11.562
96453W        W60661  33.940  42.968  12.849
96454W        W60662  26.514  21.592  13.882
96455W        W60663  12.177  19.760   2.404
96456W        W60664  13.300  22.246  14.786
96457W        W60665  15.711  17.304   2.801
96458W        W60666  13.807  19.766  12.993
96459W        W60667   0.762  42.408   3.357
96460W        W60668  26.003  41.037   0.906
96461W        W60669  28.179  23.682   0.433
96462W        W60670  34.980  19.089   2.200
96463W        W60671  27.643  30.613  13.469
96464W        W60672   0.439   0.850  14.377
96465W        W60673   1.247  22.640   0.803
96466W        W60674  25.054  44.760  12.561
96467W        W60675  13.330  12.307   0.809
96468W        W60676   5.855  24.602   3.728
96469W        W60677  18.187  18.197  12.569
96470W        W60678  36.995   1.882   0.948
96471W        W60679  16.729  33.615   4.319
96472W        W60680  34.047  17.672  10.433
96473W        W60681  24.613  44.411   4.183
96474W        W60682  19.223  10.722   1.413
96475W        W60683  23.584  21.719   3.251
96476W        W60684  39.461   6.798  11.378
96477W        W60685  19.777   8.260  12.838
96478W        W60686  41.840  19.192   2.286
96479W        W60687   6.270  11.219   0.309
96480W        W60688  14.710  44.933  11.097
96481W        W60689  23.499   7.296   4.750
96482W        W60690  24.221  30.970   3.687
96483W        W60691  43.796  28.077  13.344
96484W        W60692  43.439  41.788  12.402
96485W        W60693   2.393   4.792  11.471
96486W        W60694  25.623  28.600  13.518
96487W        W60695  32.435   6.199  14.441
96488W        W60696  25.147  29.945   0.279
96489W        W60697  33.130  41.977  12.412
96490W        W60698  10.669  20.127   2.330
96491W        W60699  40.836  30.980  12.893
96492W        W60700  27.077   1.366  13.872
96493W        W60701  44.006  17.204  13.922
96494W        W60702  10.383  11.720   3.682
96495W        W60703  32.057   6.255   4.349
96496W        W60704  30.017  15.121  14.995
96497W        W60705  32.042   8.161  13.797
96498W        W60706   6.192  11.691   3.148
96499W        W60707  17.745  19.183  11.426
96500W        W60708  39.994   3.836   2.401
96501W        W60709   7.243  25.631   2.805
96502W        W60710  37.363  27.531   2.738
96503W        W60711  41.301  41.994   5.157
96504W        W60712  31.637   3.273  10.930
96505W        W60713  22.233  42.786  11.978
96506W        W60714  14.734  25.486  12.969
96507W        W60715  31.955  38.896   5.218
96508W        W60716  33.541  25.966  10.982
96509W        W60717  26.087  21.071   4.251
96510W        W60718  33.901  24.644   3.321
96511W        W60719  42.953  12.162   1.329
96512W        W60720  43.937  43.785   0.791
96513W        W60721  23.515  39.430  11.581
96514W        W60722  37.435  12.796   1.255
96515W        W60723   7.381   5.220   1.931
96516W        W60724   7.764  38.032  10.569
96517W        W60725   1.325  28.547   4.618
96518W        W60726  32.511  44.447   4.201
96519W        W60727  30.013  41.502   0.945
96520W        W60728  35.596  20.716   0.790
96521W        W60729  14.710  15.299   0.780
96522W        W60730  40.978  43.793   4.337
96523W        W60731  22.588  17.295   1.343
96524W        W60732  22.190  26.702  10.422
96525W        W60733  22.146  24.996   1.321
96526W        W60734  33.113  44.975  11.575
96527W        W60735  20.252  16.705  12.527
96528W        W60736  36.408  12.651   1.310
96529W        W60737  10.770  14.768  10.413
96530W        W60738  11.810  38.965   2.760
96531W        W60739  17.096  36.563   9.942
96532W        W60740   1.966  18.741  13.368
96533W        W60741  32.075  16.196   1.435
96534W        W60742  35.456   5.905  11.926
96535W        W60743  22.246   9.283  11.905
96536W        W60744   3.402   5.800   0.388
96537W        W60745  36.542  44.404   0.325
96538W        W60746  15.658  35.438  10.565
96539W        W60747  28.020  11.774   3.665
96540W        W60748   0.469   5.854  12.463
96541W        W60749  37.993  33.418   3.862
96542W        W60750   0.424   2.876   2.271
96543W        W60751  14.153  16.258  14.355
96544W        W60752  14.701  23.509   2.811
96545W        W60753  22.685   6.834  14.392
96546W        W60754  20.113  28.526   2.226
96547W        W60755   9.816   0.335   1.229
96548W        W60756   5.400  12.643   3.747
96549W        W60757  32.926   8.194   1.410
96550W        W60758  33.015  31.102  14.430
96551W        W60759  27.553  14.162  10.479
96552W        W60760  12.681  14.149   4.789
96553W        W60761   4.382  28.176   3.239
96554W        W60762   2.264   1.328   0.376
96555W        W60763  35.865  12.349   2.338
96556W        W60764   3.218  30.931  13.054
96557W        W60765  19.778  13.232   1.339
96558W        W60766  10.350  11.818  14.362
96559W        W60767   7.712  19.736   0.868
96560W        W60768  14.326  41.298  14.315
96561W        W60769   3.731  10.820   1.842
96562W        W60770  33.118  32.525   3.637
96563W        W60771  39.489  24.661   3.685
96564W        W60772  10.253  12.195  14.938
96565W        W60773  40.462  38.012   0.792
96566W        W60774   7.364  30.516   2.741
96567W        W60775  31.455  41.462  10.521
96568W        W60776  28.598   7.777   2.211
96569W        W60777  20.674  13.240  12.892
96570W        W60778   9.729  38.487   4.265
96571W        W60779   2.721  43.987   0.887
96572W        W60780  33.963   0.425   3.678
96573W        W60781  30.976  39.866  12.528
96574W        W60782  27.116  25.666  13.539
96575W        W60783  30.952  16.156  12.932
96576W        W60784  23.715   2.444  12.990
96577W        W60785  40.406  40.959  10.888
96578W        W60786  34.057  44.776  14.027
96579W        W60787  26.985  26.023   0.470
96580W        W60788  43.819   6.897   4.658
96581W        W60789  41.334   4.432   4.823
96582W        W60790  38.373  17.206  12.483
96583W        W60791   9.863  20.716  14.356
96584W        W60792  39.466  35.449  11.946
96585W        W60793  16.750   3.430   2.287
96586W        W60794   7.278  35.461  12.833
96587W        W60795   0.830  16.608   1.712
96588W        W60796  30.138  38.820  12.498
96589W        W60797  13.607  12.616  11.588
96590W        W60798  29.946  15.730  11.419
96591W        W60799  20.587  35.083   4.336
96592W        W60800   5.743  29.972   2.841
96593W        W60801   1.458  26.043  11.008
96594W        W60802  33.439  28.479   0.274
96595W        W60803   0.746  39.386  10.635
96596W        W60804  18.785   7.910   4.696
96597W        W60805  35.003  11.636   1.752
96598W        W60806  10.719  38.338  13.821
96599W        W60807  20.165   0.359   1.231
96600W        W60808  36.874  41.948   4.763
96601W        W60809  13.255  28.593  10.424
96602W        W60810  15.225  28.118  12.490
96603W        W60811  12.336  26.469   1.253
96604W        W60812   9.170   3.806   3.870
96605W        W60813  37.000   9.364  12.508
96606W        W60814  23.989   1.892   0.481
96607W        W60815  29.030  22.060   0.782
96608W        W60816  38.922  15.277   3.204
96609W        W60817  22.612  39.970  12.507
96610W        W60818  38.478  42.852   3.290
96611W        W60819   6.879  42.998  13.418
96612W        W60820  21.688  41.412  11.922
96613W        W60821  15.806  15.197  13.324
96614W        W60822  24.156  13.665  13.354
96615W        W60823  14.782  28.156  12.917
96616W        W60824  22.696   8.797  12.040
96617W        W60825  38.389   4.254  13.421
96618W        W60826  35.060  25.558   3.269
96619W        W60827  23.080  42.435  13.372
96620W        W60828  43.943  19.157   0.298
96621W        W60829  20.152  43.492  14.803
96622W        W60830  41.991   5.337  12.074
96623W        W60831  12.707  25.664  11.021
96624W        W60832  38.928  20.673   4.606
96625W        W60833  35.493  11.175  10.995
96626W        W60834  19.595  14.252   5.153
96627W        W60835   9.803  37.538   3.319
96628W        W60836  11.859  39.866  10.144
96629W        W60837  33.127  33.585   4.304
96630W        W60838  27.484  15.816  14.903
96631W        W60839  41.292  33.547  13.372
96632W        W60840  25.554  16.645   4.336
96633W        W60841  10.316  16.186   4.248
96634W        W60842   4.272  28.083  10.948
96635W        W60843  42.999  40.495   5.211
96636W        W60844  20.096  35.006   4.740
96637W        W60845  37.934  10.338   0.738
96638W        W60846   9.827  16.298   2.699
96639W        W60847   6.812  43.361  12.895
96640W        W60848  26.648  31.613  10.066
96641W        W60849  34.405  12.731  14.943
96642W        W60850  37.885  35.890  11.061
96643W        W60851  32.579  25.129  13.041
96644W        W60852  11.294   2.437   0.471
96645W        W60853  44.943  16.728   2.882
96646W        W60854  30.470  34.375   1.882
96647W        W60855  23.150  25.194  10.501
96648W        W60856  11.329  27.494  12.869
96649W        W60857  16.603  21.194   3.757
96650W        W60858  42.466   5.872   3.714
96651W        W60859  25.068  11.356  13.860
96652W        W60860  31.623   8.764  10.497
96653W        W60861   9.818  10.173   2.409
96654W        W60862  25.182   3.899  11.404
96655W        W60863  39.440   5.756  12.081
96656W        W60864  11.732   1.945  10.900
96657W        W60865  32.587  39.436  10.567
96658W        W60866  24.210  37.050   0.914
96659W        W60867   6.897  26.201   4.689
96660W        W60868  42.995   4.837  12.436
96661W        W60869  35.591  16.240  13.998
96662W        W60870  35.503   5.785   0.865
96663W        W60871  36.883  40.865  14.494
96664W        W60872  13.723  38.947  12.884
96665W        W60873  25.190  13.599   2.865
96666W        W60874  31.008  13.114  11.037
96667W        W60875  26.680   5.439   1.705
96668W        W60876  17.180   0.315   0.774
96669W        W60877  18.720   1.352  12.097
96670W        W60878  21.260   2.456   0.411
96671W        W60879  21.619  25.162   3.680
96672W        W60880  18.790  25.524   0.747
96673W        W60881   1.916   1.237   2.376
96674W        W60882  21.604  21.718  14.441
96675W        W60883  17.782  19.542  11.471
96676W        W60884   0.936  31.544  13.894
96677W        W60885   4.400  16.148  14.908
96678W        W60886  29.430   3.362  12.867
96679W        W60887  10.205  13.194  11.576
96680W        W60888  12.267   3.369  11.091
96681W        W60889   7.189  43.490  14.507
96682W        W60890   3.390  32.014   1.797
96683W        W60891  14.671  32.912  11.066
96684W        W60892  33.468   4.345  11.977
96685W        W60893  24.619  31.154  11.503
96686W        W60894  28.144  40.026  12.347
96687W        W60895  22.506  21.186  14.940
96688W        W60896  38.378   7.675  10.572
96689W        W60897  27.619  13.207  11.515
96690W        W60898  27.025  34.051   0.290
96691W        W60899  18.239  41.423  13.361
96692W        W60900   8.262  20.247   0.908
96693W        W60901  38.380   3.718   3.864
96694W        W60902  26.167   4.873  11.559
96695W        W60903  37.931   9.152   4.798
96696W        W60904   8.693   7.211  13.336
96697W        W60905  39.322  21.562  12.873
96698W        W60906  13.653  32.587   4.820
96699W        W60907  19.612   4.789   5.675
96700W        W60908  32.582  43.454  13.490
96701W        W60909  31.985   4.735  10.128
96702W        W60910  20.131  20.762   0.916
96703W        W60911   9.158  24.571   3.296
96704W        W60912  19.103  14.710  11.102
96705W        W60913  41.954   6.866  10.943
96706W        W60914  14.829  32.952  13.396
96707W        W60915  42.799   2.885   0.750
96708W        W60916  23.694  39.485  12.494
96709W        W60917  27.569  21.146  13.483
96710W        W60918  33.573   5.854   3.630
96711W        W60919  38.066   7.756   4.656
96712W        W60920  43.317  20.207  11.427
96713W        W60921   9.739  33.938  11.432
96714W        W60922  42.483  36.528  14.500
96715W        W60923   5.335  20.580   4.182
96716W        W60924  26.145  10.836   0.933
96717W        W60925  13.323  38.836  10.065
96718W        W60926   7.355  41.817  11.504
96719W        W60927  30.948  29.480   1.759
96720W        W60928  19.700  42.317  12.369
96721W        W60929  19.571   2.424  14.933
96722W        W60930  28.030  17.253  12.432
96723W        W60931  11.152  19.618  10.917
96724W        W60932  43.326  12.784  10.498
96725W        W60933  20.615  39.886  14.347
96726W        W60934  10.357  31.016  11.906
96727W        W60935  33.010  38.859   0.760
96728W        W60936   0.260  27.037  13.058
96729W        W60937   3.917  28.520  10.910
96730W        W60938  36.009  39.502  12.920
96731W        W60939   2.954   7.395   4.789
96732W        W60940  39.863  10.648   2.811
96733W        W60941   6.803  31.520  10.443
96734W        W60942  41.528   0.805  11.075
96735W        W60943  23.120  27.646   4.149
96736W        W60944  11.814  31.589  11.590
96737W        W60945  44.855  25.714  10.515
96738W        W60946   9.871  34.079  12.895
96739W        W60947  43.926  15.673   2.759
96740W        W60948  41.030  37.036  13.799
96741W        W60949  28.102  42.925   0.807
96742W        W60950   3.750  29.642  12.422
96743W        W60951  32.489  39.393   4.162
96744W        W60952  15.310  22.631   1.334
96745W        W60953  37.576  14.752   2.355
96746W        W60954  29.645  11.736  12.866
96747W        W60955   1.929  21.251   1.724
96748W        W60956  16.197   3.426   2.677
96749W        W60957  11.149  22.733  13.848
96750W        W60958   7.871  43.974  13.336
96751W        W60959  10.270  14.146   1.811
96752W        W60960   5.867   9.768   1.288
96753W        W60961  18.587   3.321  14.486
96754W        W60962  34.931  40.822  14.783
96755W        W60963   3.260   0.486   4.115
96756W        W60964  16.121  23.563  10.440
96757W        W60965  42.865  39.357   1.726
96758W        W60966  17.675  16.812  13.856
96759W        W60967   7.793  18.232  10.144
96760W        W60968  14.314  43.979   0.303
96761W        W60969  39.901   4.823   1.788
96762W        W60970   7.267  21.649   4.696
96763W        W60971   4.238  13.173  10.948
96764W        W60972  16.750  11.257  10.638
96765W        W60973  43.836   4.766  14.850
96766W        W60974  23.499  17.283   3.335
96767W        W60975   0.291  38.432   3.241
96768W        W60976   2.434  21.569  13.980
96769W        W60977  25.126  35.047  14.494
96770W        W60978  41.303   3.905  14.922
96771W        W60979  31.150   9.370  14.313
96772W        W60980  22.153  43.906  12.861
96773W        W60981   8.733  35.463   4.320
96774W        W60982   0.957   5.260   4.258
96775W        W60983  19.612  43.781   0.278
96776W        W60984   8.655  39.017   0.822
96777W        W60985  35.928   3.438  14.447
96778W        W60986  14.693  30.448  13.062
96779W        W60987  12.149   5.215   4.714
96780W        W60988  33.911  25.081  11.570
96781W        W60989  31.907  38.348  12.558
96782W        W60990  13.829  15.096   4.799
96783W        W60991   4.794   2.932  13.917
96784W        W60992  24.614  35.913   4.729
96785W        W60993  19.650  15.728   1.265
96786W        W60994   7.415  26.175  12.513
96787W        W60995   0.382  21.069   4.181
96788W        W60996  30.151  12.697  13.319
96789W        W60997  44.453  15.138   4.286
96790W        W60998  32.904  28.040  13.446
96791W        W60999  39.387  33.381  11.506
96792W        W61000  18.711  26.554   2.770
96793W        W61001  25.978  11.627  10.603
96794W        W61002   3.318  24.034   3.674
96795W        W61003  41.452   0.416  13.804
96796W        W61004  18.050  31.603   1.888
96797W        W61005  19.717  22.112   2.217
96798W        W61006  30.023  10.823  10.595
96799W        W61007  11.812  44.331   0.303
96800W        W61008  40.798  44.330   0.914
96801W        W61009   3.429  10.337  11.117
96802W        W61010  41.474  14.676   4.184
96803W        W61011  44.309  21.659  14.026
96804W        W61012  10.186  27.519  11.915
96805W        W61013  10.812  31.454   0.482
96806W        W61014  14.622  42.880  14.512
96807W        W61015   9.664  38.861   0.942
96808W        W61016   9.805  37.492   1.451
96809W        W61017  12.362  16.687  13.058
96810W        W61018   9.202   5.748   0.341
96811W        W61019  37.845   7.323  14.477
96812W        W61020  35.545  36.493  12.084
96813W        W61021  28.587  30.435  13.321
96814W        W61022  19.162   3.332  11.542
96815W        W61023  16.792  17.617   1.926
96816W        W61024  44.884  35.415   0.325
96817W        W61025  11.357  29.092  11.024
96818W        W61026  44.281  32.006   4.600
96819W        W61027  34.900   8.247   4.598
96820W        W61028  13.803  22.667  11.086
96821W        W61029  31.598  18.130   4.654
96822W        W61030  32.587  12.263  12.037
96823W        W61031  31.112  21.579   1.389
96824W        W61032  24.223   3.954   3.866
96825W        W61033  36.096   3.219   3.799
96826W        W61034  26.507  19.280  14.880
96827W        W61035  19.748  21.696   3.155
96828W        W61036  10.740  34.872   0.849
96829W        W61037  18.274  10.807   2.697
96830W        W61038  14.726   3.247  11.997
96831W        W61039  23.609  15.652  10.631
96832W        W61040  15.274   7.750   3.230
96833W        W61041  32.400  22.702  10.096
96834W        W61042  13.795  37.910  12.526
96835W        W61043  43.385  23.731   1.858
96836W        W61044  40.003  24.149  12.830
96837W        W61045  23.168  28.517   1.433
96838W        W61046  31.129   2.949   1.704
96839W        W61047  32.950  35.963   1.438
96840W        W61048   7.307  37.868   4.791
96841W        W61049  19.149  18.124   3.230
96842W        W61050  24.160  15.311   4.339
96843W        W61051  34.925   5.227  13.804
96844W        W61052  15.189   4.863   0.888
96845W        W61053   4.863  13.130  13.323
96846W        W61054   0.847  23.094   1.701
96847W        W61055  29.594  37.054  14.332
96848W        W61056  42.875  41.297  14.373
96849W        W61057  43.767   4.234   4.796
96850W        W61058   5.789   6.185  13.000
96851W        W61059   3.247  30.470   3.697
96852W        W61060  25.013  36.532   3.729
96853W        W61061  37.554  11.269   4.803
96854W        W61062  23.994  25.137  11.394
96855W        W61063  35.382  20.703   1.767
96856W        W61064   6.895  42.290   3.655
96857W        W61065   8.285  32.606   2.314
96858W        W61066  33.468  33.379   0.872
96859W        W61067  26.510  21.103  14.341
96860W        W61068  14.660   0.912   3.855
96861W        W61069   7.819  43.372   3.310
96862W        W61070  11.283  24.067  12.073
96863W        W61071  40.908  21.653   5.771
96864W        W61072   7.847   8.750  13.794
96865W        W61073  14.604  41.490  13.023
96866W        W61074  44.416  35.064   1.448
96867W        W61075  39.904  26.642  10.535
96868W        W61076   4.852  24.524   2.690
96869W        W61077  16.289   1.892  12.552
96870W        W61078  40.532   4.278  12.476
96871W        W61079  23.052  24.544   2.256
96872W        W61080   8.830  44.357  10.523
96873W        W61081  40.020   2.471  14.881
96874W        W61082   1.926   2.313  13.051
96875W        W61083  41.953  42.463  12.052
96876W        W61084  13.832  29.465   1.410
96877W        W61085  12.679  14.699   4.628
96878W        W61086  20.171  38.350  12.975
96879W        W61087  12.856  36.023  14.283
96880W        W61088   9.844   3.787   2.763
96881W        W61089  34.477  18.670   3.320
96882W        W61090   5.763  28.543   3.821
96883W        W61091   4.928  41.806   2.862
96884W        W61092  10.706   6.716  11.579
96885W        W61093  32.099  16.785   4.757
96886W        W61094   0.329   1.249   4.317
96887W        W61095  23.621  10.669   3.763
96888W        W61096  10.733  38.523   3.733
96889W        W61097  17.738   8.183  11.469
96890W        W61098  16.586  41.916  10.546
96891W        W61099  35.985  21.036  10.907
96892W        W61100  38.517  14.693  13.408
96893W        W61101   7.804  30.075  12.420
96894W        W61102  39.941  20.744   4.138
96895W        W61103  31.979  33.531   0.834
96896W        W61104   2.265  44.337   4.302
96897W        W61105   5.241  21.754  10.643
96898W        W61106  24.985  28.680   3.268
96899W        W61107   1.398  42.432   4.279
96900W        W61108  38.387  16.712   3.738
96901W        W61109  15.325  34.041   3.747
96902W        W61110  12.316  11.699  11.550
96903W        W61111  26.141  24.636  14.410
96904W        W61112  40.907  14.181  13.462
96905W        W61113  33.421  26.104   2.891
96906W        W61114   3.905  19.187   4.603
96907W        W61115   6.364  27.137  14.316
96908W        W61116  22.035  28.127   2.310
96909W        W61117  16.719   1.290   2.213
96910W        W61118  20.144  27.971   2.763
96911W        W61119  35.054  32.083   1.728
96912W        W61120  36.970   1.253   0.482
96913W        W61121  33.408  16.187  11.454
96914W        W61122  11.860  32.425   1.759
96915W        W61123  21.234  43.427   1.319
96916W        W61124  14.662   8.683  10.518
96917W        W61125  17.130  25.159   3.813
96918W        W61126  30.105  23.096   1.861
96919W        W61127  39.551  17.231   0.797
96920W        W61128  13.165  16.784   2.690
96921W        W61129  10.749  33.394   3.165
96922W        W61130  41.806  26.146  14.353
96923W        W61131  11.738   8.689   5.180
96924W        W61132  41.009  14.685  13.887
96925W        W61133  28.523   4.917   4.734
96926W        W61134   0.407  36.991  11.935
96927W        W61135  38.372  18.685   4.253
96928W        W61136  27.941  12.273   3.262
96929W        W61137  11.293  23.148  11.072
96930W        W61138  24.636  35.074  11.587
96931W        W61139  10.854  11.786  10.103
96932W        W61140  21.637  35.494  13.341
96933W        W61141  38.405   5.920   3.344
96934W        W61142   6.368  43.875   0.913
96935W        W61143  10.343  32.101   1.313
96936W        W61144  42.522  16.075   4.831
96937W        W61145   6.809  13.766  13.815
96938W        W61146  24.636  10.255   3.250
96939W        W61147  42.791  43.877   0.316
96940W        W61148  31.402  29.438   1.448
96941W        W61149  41.473  11.707   0.830
96942W        W61150  24.113   7.370  10.124
96943W        W61151  20.267  36.524  12.533
96944W        W61152  23.584  40.042  14.419
96945W        W61153  33.487  23.505   4.838
96946W        W61154  23.101   6.261   2.679
96947W        W61155   6.787  27.645   2.728
96948W        W61156  31.083  31.478   4.644
96949W        W61157  25.982  19.580  10.550
96950W        W61158  22.205  27.184  13.968
96951W        W61159  33.084  37.000   4.248
96952W        W61160  21.522  39.006   0.430
96953W        W61161  42.012  25.996  11.457
96954W        W61162  30.546  21.100  11.924
96955W        W61163  34.922   6.866   1.743
96956W        W61164  44.375  29.666   5.171
96957W        W61165   2.720   8.758   1.863
96958W        W61166  22.111  13.775  11.984
96959W        W61167  21.183   2.842  13.922
96960W        W61168  18.684  35.907  10.519
96961W        W61169  25.534   6.688   1.397
96962W        W61170  16.609  22.664  14.769
96963W        W61171  39.831  25.581  14.767
96964W        W61172   6.692  28.992  10.624
96965W        W61173  11.183  14.594   3.235
96966W        W61174   5.911   2.274   0.761
96967W        W61175  41.032  23.030  11.576
96968W        W61176   3.266  22.092   3.663
96969W        W61177  44.821   0.324   1.874
96970W        W61178  20.156   9.243  10.097
96971W        W61179  12.685  40.934   0.870
96972W        W61180  37.488   2.315   1.745
96973W        W61181  34.959   3.265  12.094
96974W        W61182  42.822  20.576   0.431
96975W        W61183  40.494  42.817   5.239
96976W        W61184   0.267  30.638  12.021
96977W        W61185  12.687  24.170  14.936
96978W        W61186   6.348  25.132   1.697
96979W        W61187  42.799   4.846   0.787
96980W        W61188   9.294  39.886  12.444
96981W        W61189  19.069   9.723   0.768
96982W        W61190  24.037  21.219   9.986
96983W        W61191  43.455  36.518   2.381
96984W        W61192   6.807  30.592  12.014
96985W        W61193  15.169  37.039  14.823
96986W        W61194  40.327  13.328  12.894
96987W        W61195   2.860  29.958  12.961
96988W        W61196   8.857  33.490  11.592
96989W        W61197   0.978   3.827  13.062
96990W        W61198  38.417  35.015  12.992
96991W        W61199  26.073  23.078  14.912
96992W        W61200  41.374   0.396  13.525
96993W        W61201  29.006   9.177   4.657
96994W        W61202  35.943  34.543  11.125
96995W        W61203   8.683  43.421  14.943
96996W        W61204  39.369   0.931   5.761
96997W        W61205  30.524  18.653   4.140
96998W        W61206  18.705  38.824   1.400
96999W        W61207  21.238  25.559   2.307
97000W        W61208  32.467   0.313   3.774
97001W        W61209  16.229  33.444  12.064
97002W        W61210  38.432  10.783   4.646
97003W        W61211  36.479  23.008  12.018
97004W        W61212  10.643  14.171  11.960
97005W        W61213  29.522  19.240  11.507
97006W        W61214  24.685  16.126  11.875
97007W        W61215  36.964   4.271  10.444
97008W        W61216  14.813  21.750   3.212
97009W        W61217  20.566  27.494  10.481
97010W        W61218  32.976  19.586  12.458
97011W        W61219  23.539  33.033   1.363
97012W        W61220  20.666  36.435  10.527
97013W        W61221  29.626  11.129   4.123
97014W        W61222  28.930   8.383   2.364
97015W        W61223  29.436  10.311  12.435
97016W        W61224  36.409  10.867  14.415
97017W        W61225   8.168  41.444   2.833
97018W        W61226   2.337   0.293   5.152
97019W        W61227   7.784  20.127   2.761
97020W        W61228  38.876   0.261   0.822
97021W        W61229  28.031   9.203  11.515
97022W        W61230  41.883   6.808  11.541
97023W        W61231  43.411  41.816   2.244
97024W        W61232   7.772   7.245  10.988
97025W        W61233  17.227   7.728  12.564
97026W        W61234  34.528  34.981   2.784
97027W        W61235   0.478  42.964   2.419
97028W        W61236   5.370  31.419  14.799
97029W        W61237  11.219  12.848  14.873
97030W        W61238  32.561  29.556  11.588
97031W        W61239  14.324   2.755   0.312
97032W        W61240  31.041   7.871   4.647
97033W        W61241   2.466   4.754   2.758
97034W        W61242   0.349  30.420   2.889
97035W        W61243  41.967  43.308  12.386
97036W        W61244  11.197   4.374   0.744
97037W        W61245   3.865  43.958   1.859
97038W        W61246  22.066  27.677   2.677
97039W        W61247  25.649  33.591   1.836
97040W        W61248  41.430  42.999  11.537
97041W        W61249  43.828  39.460  12.505
97042W        W61250  19.085   1.841  13.464
97043W        W61251  43.931  43.916  12.509
97044W        W61252   0.880  39.878  13.052
97045W        W61253  30.593  18.113  13.383
97046W        W61254  23.554  33.597   4.676
97047W        W61255  33.994  40.534  10.469
97048W        W61256  21.084  13.737   5.248
97049W        W61257  25.700  20.216  14.806
97050W        W61258  44.846  19.667   4.663
97051W        W61259   6.756  20.176   0.741
97052W        W61260  11.775  28.610  13.402
97053W        W61261   7.691  41.973   2.402
97054W        W61262  21.605  37.969  10.540
97055W        W61263  16.075  25.009   3.381
97056W        W61264  29.506  13.825  11.446
97057W        W61265  27.142  37.019  10.410
97058W        W61266  22.146  36.384   4.639
97059W        W61267  34.516  18.128  12.546
97060W        W61268   7.193  42.812  13.332
97061W        W61269  29.634  23.193   4.174
97062W        W61270   2.356  37.860   1.419
97063W        W61271  17.156  15.580   1.896
97064W        W61272  15.681  27.145   4.671
97065W        W61273   6.795  33.888  14.912
97066W        W61274  36.006  15.196  12.364
97067W        W61275   3.418   8.282   0.834
97068W        W61276  30.918  14.700   2.765
97069W        W61277  40.896  24.624  13.854
97070W        W61278   4.743  24.599  12.933
97071W        W61279  44.327  18.652  11.918
97072W        W61280  14.630  37.864   2.840
97073W        W61281  24.145  12.350  11.860
97074W        W61282  27.537  30.551   4.232
97075W        W61283  14.171  30.135   0.454
97076W        W61284  36.572  43.479   3.242
97077W        W61285  13.282  27.019   4.798
97078W        W61286  31.472  23.710   1.362
97079W        W61287  26.087  11.135  12.078
97080W        W61288   5.227  26.026   1.331
97081W        W61289  38.861  14.243  14.414
97082W        W61290   8.663  43.290   0.837
97083W        W61291  32.620  40.020   3.289
97084W        W61292  14.650  44.990  12.077
97085W        W61293  29.995  41.904  13.813
97086W        W61294  31.532  21.036   2.309
97087W        W61295   5.736  29.574  13.027
97088W        W61296   7.324  17.623  13.378
97089W        W61297   8.702  44.922  13.385
97090W        W61298  38.046  28.034  14.425
97091W        W61299  28.489  29.122  11.100
97092W        W61300   5.438   2.232  13.545
97093W        W61301  35.023   1.416   4.708
97094W        W61302  22.155  27.965  14.916
97095W        W61303  28.667  25.705   1.224
97096W        W61304   5.814   9.749  12.857
97097W        W61305  25.141   4.421   0.478
97098W        W61306  11.180  40.525  12.550
97099W        W61307   2.236   2.730   2.214
97100W        W61308   5.773   1.242   4.281
97101W        W61309   8.287   8.773  14.002
97102W        W61310  32.413  44.875  13.038
97103W        W61311  10.675  33.527   0.421
97104W        W61312  38.840  24.541  14.838
97105W        W61313   9.149  37.561   2.855
97106W        W61314  44.913  37.398   2.390
97107W        W61315  35.917   8.768   2.747
97108W        W61316  18.749  21.101   3.684
97109W        W61317  41.037   3.328   1.449
97110W        W61318  24.701  26.080  13.432
97111W        W61319  42.287  37.482  12.452
97112W        W61320  12.202   6.423   1.896
97113W        W61321   0.851  43.897  12.071
97114W        W61322   5.893  38.504  11.378
97115W        W61323  29.487  41.355  12.409
97116W        W61324  21.236  24.617  13.870
97117W        W61325  23.989  33.909  14.424
97118W        W61326  33.087  37.438   1.853
97119W        W61327  17.616  42.325   0.799
97120W        W61328  22.623   4.210   0.934
97121W        W61329  38.014  17.660   0.881
97122W        W61330  36.007  35.397  13.808
97123W        W61331  14.320  38.413  11.593
97124W        W61332  28.511  30.983   4.234
97125W        W61333  33.489  23.696   3.735
97126W        W61334  10.155   0.966   3.652
97127W        W61335   9.309   8.226  10.488
97128W        W61336   5.283  36.510  11.041
97129W        W61337  36.539  17.625   3.644
97130W        W61338  16.623   4.888  14.831
97131W        W61339  13.247   5.421  11.388
97132W        W61340  25.478  41.312  14.005
97133W        W61341  16.101  12.196   4.347
97134W        W61342   2.452  31.587  14.925
97135W        W61343   4.924  14.782   4.777
97136W        W61344  10.759  27.049  13.004
97137W        W61345  19.597  44.270   0.882
97138W        W61346  42.342  13.691   3.321
97139W        W61347   2.751  24.203   0.284
97140W        W61348  30.451  25.187  11.879
97141W        W61349  21.056   2.468  11.085
97142W        W61350  17.217  15.812   4.779
97143W        W61351   1.867   9.151   2.807
97144W        W61352  16.080   8.168  11.127
97145W        W61353  35.476  23.125  10.954
97146W        W61354  37.863   7.881  14.875
97147W        W61355  26.671  17.287  12.944
97148W        W61356   5.757   3.777   1.736
97149W        W61357  38.858  17.295   3.861
97150W        W61358   0.434  28.037  11.588
97151W        W61359   7.866  26.951  12.866
97152W        W61360   0.763  41.922   0.274
97153W        W61361  14.338  13.256  12.560
97154W        W61362  19.058  13.203  12.834
97155W        W61363   8.179  19.569  10.940
97156W        W61364   4.716  37.868  14.307
97157W        W61365  26.474  15.098  11.859
97158W        W61366  43.011  26.104   1.359
97159W        W61367  14.731  16.685   0.302
97160W        W61368  24.050  39.814  10.596
97161W        W61369  11.131  29.932  14.000
97162W        W61370   1.255  40.520  14.857
97163W        W61371  44.472  35.891   2.395
97164W        W61372  12.667  37.345  11.945
97165W        W61373  28.638  37.376   0.409
97166W        W61374  30.083  27.544  14.012
97167W        W61375  15.279  42.925   4.636
97168W        W61376  27.647  24.131  12.975
97169W        W61377  37.533  44.335   0.279
97170W        W61378  25.656  36.069  13.035
97171W        W61379  37.353  36.889  12.031
97172W        W61380  13.241  40.355   0.846
97173W        W61381  37.403  33.936   0.930
97174W        W61382  15.668   4.787   5.314
97175W        W61383   8.776  10.844  13.534
97176W        W61384   9.285  31.555   3.759
97177W        W61385  40.347  29.035  14.874
97178W        W61386  24.079  27.172   0.252
97179W        W61387   3.864  34.440  11.044
97180W        W61388  28.504  35.065   4.689
97181W        W61389  30.106  22.125  13.983
97182W        W61390  41.026  24.084   3.744
97183W        W61391  13.601  15.676   5.314
97184W        W61392   3.813  32.898  10.504
97185W        W61393  19.742  10.682   1.254
97186W        W61394  43.880  11.172   0.947
97187W        W61395  44.393  33.416  14.997
97188W        W61396  20.064   0.426   1.894
97189W        W61397  23.197  33.495   2.869
97190W        W61398  31.110   4.341  10.901
97191W        W61399  15.251  35.912  12.918
97192W        W61400  11.291  32.589   0.393
97193W        W61401  11.285   7.379  12.060
97194W        W61402  24.624   6.677   3.252
97195W        W61403  25.666  18.568  10.465
97196W        W61404   3.300  37.844   2.310
97197W        W61405  43.795  20.751   0.281
97198W        W61406   3.899   4.388   9.662
97199W        W61407  40.855  19.767   0.257
97200W        W61408   6.384  19.263   2.217
97201W        W61409  43.422   4.865   1.702
97202W        W61410   8.859  22.126   2.253
97203W        W61411   4.413   4.301  13.877
97204W        W61412  20.262  38.906   3.234
97205W        W61413  37.500  38.353  11.559
97206W        W61414  18.722  14.234  14.802
97207W        W61415  25.486   0.484   3.804
97208W        W61416  16.207  28.565   1.886
97209W        W61417  37.455  38.907  10.980
97210W        W61418  29.576  27.087  14.019
97211W        W61419   2.397   8.838   0.374
97212W        W61420  35.451  40.491  14.437
97213W        W61421  37.402  19.265   3.384
97214W        W61422  39.341  17.189  14.317
97215W        W61423  12.657   4.449   4.599
97216W        W61424   7.687   9.174   0.830
97217W        W61425  17.243  43.801   4.670
97218W        W61426  39.896  22.233  14.828
97219W        W61427   1.400  25.560   0.415
97220W        W61428  22.670  27.024  11.475
97221W        W61429  14.223   7.225   0.951
97222W        W61430  22.198  22.007  14.871
97223W        W61431  24.083  16.583  11.918
97224W        W61432  29.046   9.279  14.809
97225W        W61433   9.358  25.048  13.859
97226W        W61434  15.329  22.235   3.760
97227W        W61435  39.989  16.101  14.391
97228W        W61436  21.537   2.397   2.331
97229W        W61437  44.758  37.077   3.180
97230W        W61438  35.578   3.326   1.350
97231W        W61439  35.860  38.897   5.313
97232W        W61440  14.239   9.837  12.043
97233W        W61441  15.318  43.498  11.084
97234W        W61442  39.344  39.438  10.564
97235W        W61443  44.377  44.881  10.530
97236W        W61444  20.206  39.810   0.850
97237W        W61445  11.187  10.301  11.861
97238W        W61446  12.296   6.844   1.825
97239W        W61447  16.188  26.047   1.706
97240W        W61448  18.791  35.446   0.401
97241W        W61449  25.182  37.059  14.006
97242W        W61450  40.492  25.533   4.670
97243W        W61451  15.152  44.831  10.969
97244W        W61452  22.244  17.734  11.041
97245W        W61453  44.965  31.515   3.722
97246W        W61454  27.559  31.416   3.375
97247W        W61455  43.294  32.609  12.473
97248W        W61456  23.500  41.022  11.044
97249W        W61457  28.184  20.085  11.884
97250W        W61458   0.853  34.587   3.682
97251W        W61459  32.505  26.171   3.678
97252W        W61460   4.783  40.912  12.855
97253W        W61461  19.207  40.466   3.218
97254W        W61462   5.192  19.669  13.828
97255W        W61463  20.085  29.085   0.267
97256W        W61464   4.922   2.253  14.899
97257W        W61465  36.372  27.998  10.527
97258W        W61466  30.156  28.629   3.258
97259W        W61467   1.334   6.873  11.450
97260W        W61468  42.976  29.056  14.299
97261W        W61469   5.697  16.728   3.320
97262W        W61470  11.631  42.981  10.975
97263W        W61471   4.747  17.082   1.287
97264W        W61472  25.656   4.285  12.387
97265W        W61473   3.349  31.411   1.881
97266W        W61474  28.674  32.568  13.868
97267W        W61475  38.867  35.959   1.856
97268W        W61476  13.258   0.961   4.225
97269W        W61477  25.498  18.187  11.534
97270W        W61478  15.623  32.073  12.551
97271W        W61479  12.654  10.849  14.503
97272W        W61480  15.733  28.064   4.795
97273W        W61481  30.144  28.507  12.887
97274W        W61482  14.155   8.179   4.234
97275W        W61483  19.653  38.873  10.526
97276W        W61484   3.327   1.275   1.292
97277W        W61485   9.651  14.660  12.500
97278W        W61486  27.941  29.457  14.781
97279W        W61487   6.732  17.668   1.930
97280W        W61488  25.055  21.548   1.309
97281W        W61489  32.481  14.599   3.838
97282W        W61490  17.673  43.383  12.394
97283W        W61491  26.663  38.831   3.762
97284W        W61492   8.374  31.465  10.640
97285W        W61493  35.500  25.688   0.895
97286W        W61494  22.638  11.768  10.117
97287W        W61495  29.952   1.853   1.856
97288W        W61496  15.098  29.975   0.884
97289W        W61497   5.762  19.185  13.323
97290W        W61498  10.367  27.087  14.934
97291W        W61499  32.942  26.523   1.351
97292W        W61500  42.008  14.694  11.457
97293W        W61501  11.665  23.150   9.952
97294W        W61502  22.542  21.541   1.332
97295W        W61503  29.049  27.117  14.955
97296W        W61504  18.270   8.790   2.676
97297W        W61505   5.305  33.623  12.464
97298W        W61506  31.118  40.490  14.363
97299W        W61507  13.611  25.587  13.455
97300W        W61508   3.852  36.434  12.342
97301W        W61509  17.737  13.829   0.414
97302W        W61510  29.488  28.088   0.931
97303W        W61511  37.888  16.203  11.972
97304W        W61512  31.000  26.970   4.251
97305W        W61513  43.427   7.190  10.059
97306W        W61514  33.986  10.312   4.808
97307W        W61515  28.554  17.121  14.356
97308W        W61516  44.778  23.595  13.920
97309W        W61517  43.823  35.384  10.947
97310W        W61518  42.357  21.110  10.570
97311W        W61519  32.118  34.494  14.460
97312W        W61520  30.994   4.840   1.730
97313W        W61521  44.374  38.531  13.392
97314W        W61522   4.764   9.288  11.884
97315W        W61523  19.155  14.789   3.306
97316W        W61524  41.343  25.655  14.833
97317W        W61525  39.543  23.715  12.012
97318W        W61526  25.500  15.717   1.430
97319W        W61527   3.371  38.411  13.511
97320W        W61528  39.979  13.289  12.553
97321W        W61529  38.074  32.430  11.437
97322W        W61530  29.527  17.724  13.479
97323W        W61531  34.479  42.844   3.161
97324W        W61532  20.613  27.082   4.264
97325W        W61533  23.709  44.466  12.549
97326W        W61534  42.845  36.506  13.034
97327W        W61535  35.912   6.342   2.180
97328W        W61536  11.633  27.009   1.831
97329W        W61537  24.674  27.615  14.836
97330W        W61538  26.955  32.578   1.224
97331W        W61539  10.197  35.402  14.284
97332W        W61540   5.794   2.447   4.704
97333W        W61541  19.695  32.065   1.706
97334W        W61542  27.086  30.485  12.421
97335W        W61543   3.344  21.112  10.527
97336W        W61544  34.053   6.400  12.973
97337W        W61545   5.757  20.229  12.401
97338W        W61546  21.692  20.629   1.920
97339W        W61547  16.630  12.190  12.373
97340W        W61548   3.312  34.940   1.433
97341W        W61549  25.708  14.306  13.836
97342W        W61550  25.171   7.315  14.816
97343W        W61551  25.695  18.097  10.600
97344W        W61552  31.927   2.427  12.880
97345W        W61553  37.984  15.092  11.013
97346W        W61554  38.824   6.749  13.873
97347W        W61555  25.048  11.300  11.434
97348W        W61556  26.506   0.468  13.931
97349W        W61557   8.741  21.263  11.011
97350W        W61558  31.452  32.915  13.951
97351W        W61559  44.341  32.462   9.439
97352W        W61560  37.042  23.562  13.487
97353W        W61561  16.254  41.488   0.754
97354W        W61562  12.793   7.246   0.329
97355W        W61563   5.851  39.319  11.608
97356W        W61564  35.855   3.941   0.374
97357W        W61565  16.684  43.440  12.859
97358W        W61566  19.697  16.603  11.384
97359W        W61567  37.410  13.696  11.016
97360W        W61568  44.845  35.559  13.520
97361W        W61569  35.524  37.891   3.758
97362W        W61570  36.873  14.643   4.309
97363W        W61571  27.088  30.988  14.003
97364W        W61572  30.537   3.758  11.531
97365W        W61573   4.266  38.359  11.885
97366W        W61574  31.137  39.461  13.003
97367W        W61575  26.188  27.084   3.655
97368W        W61576  22.176  15.705   0.422
97369W        W61577  35.417  42.346   0.417
97370W        W61578  11.314   0.895  12.546
97371W        W61579  24.602  40.442  13.050
97372W        W61580  33.887  31.958  13.386
97373W        W61581   6.739  11.351   4.242
97374W        W61582  42.527  15.299  13.936
97375W        W61583  11.225   9.705  14.032
97376W        W61584  44.369   5.744   0.877
97377W        W61585  29.513   5.865   0.362
97378W        W61586  35.087  39.357   1.922
97379W        W61587   3.742  39.881   0.292
97380W        W61588  41.384  33.056   2.413
97381W        W61589  10.850  22.205   1.274
97382W        W61590  39.001  28.948  10.969
97383W        W61591   5.402   8.277  12.461
97384W        W61592  31.066  30.081   1.734
97385W        W61593  18.126   9.664  11.944
97386W        W61594   2.448  38.961   2.317
97387W        W61595   3.289  15.657  13.547
97388W        W61596  33.021  20.584   4.821
97389W        W61597  18.614  29.469  11.487
97390W        W61598  10.338  38.023  12.343
97391W        W61599  35.856  27.639  11.992
97392W        W61600  34.027  16.606   3.793
97393W        W61601  28.489  30.991  12.932
97394W        W61602  26.161  32.096  10.895
97395W        W61603  22.234  26.192   2.269
97396W        W61604  19.238  38.823  10.012
97397W        W61605  31.151  13.708   2.745
97398W        W61606  30.927  39.017  12.554
97399W        W61607   9.320   4.285   1.783
97400W        W61608   5.845   0.894   3.203
97401W        W61609  41.340  43.768   2.250
97402W        W61610   0.368   8.276   2.226
97403W        W61611  32.610   6.416  11.599
97404W        W61612  36.979  36.907   3.367
97405W        W61613  41.401  22.115   3.311
97406W        W61614  36.014  27.552   4.636
97407W        W61615   9.682   4.324  12.502
97408W        W61616  37.962  12.200   4.328
97409W        W61617   7.832  19.053   2.864
97410W        W61618  10.865  21.193  10.434
97411W        W61619  10.333  18.646   0.371
97412W        W61620  38.512  37.447   0.843
97413W        W61621  31.146  19.695  14.760
97414W        W61622  18.617  17.253  12.917
97415W        W61623  20.555   1.856   3.633
97416W        W61624  30.063   1.765   1.365
97417W        W61625   9.232  37.072  12.062
97418W        W61626  32.522  23.562   4.140
97419W        W61627   4.918  19.635  13.934
97420W        W61628  14.775  40.497  11.061
97421W        W61629  31.999   1.761   2.728
97422W        W61630  31.440   5.917  12.350
97423W        W61631  11.629  26.141   1.708
97424W        W61632  17.134  14.616   1.926
97425W        W61633  20.568  32.396  10.554
97426W        W61634  44.923  24.230  13.459
97427W        W61635  43.402  13.723  10.557
97428W        W61636  34.585  40.526  11.107
97429W        W61637   2.363  20.600  13.839
97430W        W61638  24.984  25.705   1.407
97431W        W61639  30.568  13.120  11.881
97432W        W61640  15.174  34.559   4.692
97433W        W61641  36.529  34.452  12.038
97434W        W61642  32.021  40.377   4.190
97435W        W61643  44.866  39.352   1.711
97436W        W61644  22.167   2.380   1.237
97437W        W61645  44.769  39.949   3.742
97438W        W61646  35.944  39.025   0.312
97439W        W61647  10.239  33.609  10.946
97440W        W61648  31.087  42.829   3.146
97441W        W61649  32.047   5.880   2.342
97442W        W61650  10.656  22.070  10.412
97443W        W61651   9.392  23.204   2.748
97444W        W61652  14.184  23.221   2.182
97445W        W61653  43.833  35.944   0.385
97446W        W61654  29.621  20.608  12.425
97447W        W61655  17.662  24.544   3.785
97448W        W61656   0.813  34.600  14.303
97449W        W61657   9.827  26.014   0.296
97450W        W61658  18.083   8.855   0.814
97451W        W61659  11.642   8.795   1.380
97452W        W61660   2.393  13.714   1.780
97453W        W61661   1.364   8.272   2.778
97454W        W61662   4.360   7.693   2.307
97455W        W61663   0.751   2.829  13.825
97456W        W61664  12.117  12.299   4.156
97457W        W61665  18.257  16.267  12.407
97458W        W61666  10.849  22.601   4.200
97459W        W61667  30.930   9.374   4.273
97460W        W61668  31.563  38.415   0.768
97461W        W61669  37.386  14.251   0.729
97462W        W61670   7.704  19.547  13.491
97463W        W61671  42.791  15.126   4.798
97464W        W61672   5.800  20.630   3.818
97465W        W61673  16.181  39.891  12.934
97466W        W61674  44.412  28.081   3.360
97467W        W61675  23.132   8.714   3.782
97468W        W61676  40.339   6.908   2.236
97469W        W61677   1.838   9.158   0.887
97470W        W61678  19.584  38.950   1.912
97471W        W61679  34.949  23.531  11.865
97472W        W61680   7.679  41.447  10.076
97473W        W61681  11.308   2.424   3.834
97474W        W61682  37.467  12.706   3.692
97475W        W61683   0.832  18.235   3.765
97476W        W61684  26.496   3.905  13.882
97477W        W61685  17.623   0.773   3.712
97478W        W61686   8.783  14.827   4.227
97479W        W61687   0.851  10.165   4.203
97480W        W61688   3.742   2.407   0.796
97481W        W61689  24.686  35.098  14.980
97482W        W61690  14.704  22.726   4.722
97483W        W61691   5.818   4.236   3.292
97484W        W61692  30.989  27.530   3.696
97485W        W61693  37.539   5.379  11.040
97486W        W61694  12.622  11.865  10.455
97487W        W61695  35.601  32.074   4.609
97488W        W61696  35.507  33.545  12.965
97489W        W61697  43.916  41.818   4.298
97490W        W61698  15.733  41.901  11.597
97491W        W61699  36.074  10.383  11.436
97492W        W61700  31.545   0.329   4.119
97493W        W61701   6.753  15.605   4.227
97494W        W61702   3.285  35.027  14.991
97495W        W61703  36.907   9.197  12.020
97496W        W61704  34.549  17.118  14.780
97497W        W61705   4.933  24.078  14.833
97498W        W61706  18.599  10.744  11.419
97499W        W61707   6.230  20.602   3.850
97500W        W61708   6.406  14.630   3.237
97501W        W61709  19.577  32.591   1.760
97502W        W61710  37.986  40.959  11.448
97503W        W61711   2.229  14.646   2.353
97504W        W61712  34.899  37.926  14.332
97505W        W61713  18.213   3.867  14.828
97506W        W61714  24.190   4.417  13.876
97507W        W61715  20.628   5.793  13.845
97508W        W61716   2.429  11.207   3.245
97509W        W61717  43.986  16.076  13.931
97510W        W61718  16.653  32.995   0.778
97511W        W61719   3.951  25.135   4.802
97512W        W61720  36.843   4.435  14.013
97513W        W61721  33.904  16.270   4.826
97514W        W61722  15.164  41.932   1.772
97515W        W61723  42.819  37.928   0.417
97516W        W61724  11.224  39.340  14.832
97517W        W61725  44.870  17.610   2.837
97518W        W61726   6.747  21.212   2.250
97519W        W61727   4.762  42.921   0.314
97520W        W61728  25.520  32.433  10.487
97521W        W61729  33.571   0.765   3.835
97522W        W61730  25.971   7.788   1.721
97523W        W61731  34.942  16.604  14.400
97524W        W61732  26.008  43.283  12.894
97525W        W61733  33.601  25.627  10.918
97526W        W61734   8.691   3.806   0.346
97527W        W61735   9.678  10.250   4.635
97528W        W61736  42.441  29.553  11.031
97529W        W61737  10.744  43.346  11.412
97530W        W61738   0.364   4.291   5.740
97531W        W61739  31.115  17.583  12.977
97532W        W61740  20.112  32.622   4.302
97533W        W61741  13.615  13.205   3.242
97534W        W61742  39.830  12.622   3.271
97535W        W61743   9.348  16.264   1.220
97536W        W61744  43.005  22.198  14.356
97537W        W61745  28.494  44.271  11.532
97538W        W61746  12.640  16.238  14.377
97539W        W61747  27.576   6.687   2.802
97540W        W61748  28.671  24.655  13.968
97541W        W61749   2.355  43.000  10.495
97542W        W61750   8.657  23.648   2.856
97543W        W61751  35.102  21.165  11.449
97544W        W61752  21.097  10.292   3.754
97545W        W61753  41.334  40.871   1.758
97546W        W61754  12.355  37.577  11.609
97547W        W61755  22.643  35.976  10.640
97548W        W61756  29.110  14.251   2.793
97549W        W61757  29.972  35.089   4.177
97550W        W61758  38.538   3.428   3.383
97551W        W61759  41.972  40.008  12.939
97552W        W61760   4.874  44.963   2.334
97553W        W61761  38.852  38.938  12.501
97554W        W61762  15.329  35.401  11.490
97555W        W61763   7.808  23.551   2.828
97556W        W61764  12.351  21.097   3.721
97557W        W61765   5.777  39.003  14.302
97558W        W61766  42.918  25.634   2.362
97559W        W61767   3.876  23.020   0.946
97560W        W61768  40.459  25.674  13.519
97561W        W61769  26.615  25.110   0.431
97562W        W61770  11.633  37.367  12.046
97563W        W61771  22.730  13.787   2.787
97564W        W61772  42.945  25.990  10.899
97565W        W61773  29.941  32.480  12.503
97566W        W61774  25.570  26.095  12.064
97567W        W61775   4.848  30.025   2.321
97568W        W61776  36.508   9.820  10.438
97569W        W61777  35.076  18.746   2.896
97570W        W61778  20.131  17.122  13.525
97571W        W61779   4.362  13.666   0.410
97572W        W61780  10.696  36.843   1.272
97573W        W61781  29.935   0.341   1.712
97574W        W61782  36.381   7.331   0.729
97575W        W61783  11.251  29.116   1.383
97576W        W61784  12.222   5.758  11.431
97577W        W61785  23.143   6.320  12.401
97578W        W61786  23.668  38.562  11.087
97579W        W61787  16.174  37.988  14.370
97580W        W61788  38.917   6.347  14.782
97581W        W61789  44.766   8.374  11.954
97582W        W61790  21.157  14.242   4.802
97583W        W61791  38.357   0.436   0.305
97584W        W61792  26.468  37.865  12.007
97585W        W61793  24.062  11.166  13.057
97586W        W61794   6.241  44.977  12.873
97587W        W61795   5.348   2.847  12.886
97588W        W61796   5.891  34.529  14.366
97589W        W61797  36.872  37.559   3.733
97590W        W61798  20.575  29.563   3.199
97591W        W61799   9.301  22.155  10.469
97592W        W61800  25.501   3.381  10.966
97593W        W61801  10.314  30.052   1.395
97594W        W61802  33.407   0.270   4.638
97595W        W61803  38.368  29.149  12.384
97596W        W61804  23.650  15.123  12.993
97597W        W61805  44.969   1.790  12.967
97598W        W61806  15.306  20.666  11.065
97599W        W61807   5.750   0.370  13.963
97600W        W61808  24.512  21.732  13.059
97601W        W61809  23.134   7.227  14.996
97602W        W61810  32.142  28.127   3.649
97603W        W61811  12.159   6.814  13.386
97604W        W61812  28.643   5.864  10.559
97605W        W61813  18.687   6.267  10.936
97606W        W61814  15.819  22.046  12.022
97607W        W61815  44.430  21.021   1.442
97608W        W61816  31.050  41.525   2.724
97609W        W61817  29.662  26.683  12.451
97610W        W61818  20.176  39.811  11.913
97611W        W61819   1.765  19.718   0.395
97612W        W61820  27.942  32.056  12.006
97613W        W61821  21.199   3.734   3.782
97614W        W61822   5.222   5.292  14.893
97615W        W61823  43.430  32.430   4.603
97616W        W61824  34.479  11.684   4.769
97617W        W61825  15.706  20.197  11.373
97618W        W61826  44.958  30.600  11.860
97619W        W61827   6.323   3.718   4.114
97620W        W61828  27.633  17.619  13.840
97621W        W61829  40.023   9.795   0.871
97622W        W61830  41.487   9.754   3.631
97623W        W61831   5.814   7.905  13.830
97624W        W61832  36.551   5.892  11.910
97625W        W61833  27.642  10.730   2.736
97626W        W61834  44.422  39.461   1.316
97627W        W61835  32.899   8.363   3.775
97628W        W61836  25.007   5.688  14.874
97629W        W61837  24.017  42.291  11.923
97630W        W61838  23.204  23.575   0.298
97631W        W61839  22.512  43.329   2.902
97632W        W61840  26.000  19.619   3.782
97633W        W61841  38.444  18.127   2.301
97634W        W61842   8.830   9.767   4.249
97635W        W61843  15.236  13.237  14.414
97636W        W61844  12.829  13.670   5.588
97637W        W61845  18.752  18.720   1.401
97638W        W61846  35.983  36.081   0.246
97639W        W61847  10.224  37.036  14.923
97640W        W61848   6.884  42.348  14.304
97641W        W61849  12.759  21.723  13.479
97642W        W61850  12.797  19.228  11.523
97643W        W61851  17.283  20.034   4.754
97644W        W61852  37.362  44.839   4.796
97645W        W61853  39.974   0.483  14.451
97646W        W61854  37.898  39.836   3.781
97647W        W61855  43.508  38.541   1.903
97648W        W61856  23.630   6.399  13.036
97649W        W61857  27.960  16.197   0.282
97650W        W61858  31.442   2.832   0.306
97651W        W61859  13.752   9.778   1.298
97652W        W61860  39.338  26.153   2.859
97653W        W61861  29.051  20.029   1.338
97654W        W61862   0.764   7.846   4.676
97655W        W61863  16.749  36.849  10.037
97656W        W61864  33.566   3.279   3.863
97657W        W61865   5.695   7.703  11.493
97658W        W61866   8.251   4.279  14.433
97659W        W61867   4.906   7.181   1.367
97660W        W61868   2.780  35.932  12.471
97661W        W61869  21.631  28.131  12.395
97662W        W61870  25.042   8.168  14.003
97663W        W61871  14.661  35.494  10.895
97664W        W61872  36.474  21.256  12.356
97665W        W61873  36.894  11.786  13.443
97666W        W61874  29.534  12.253   2.243
97667W        W61875  34.923  14.593   0.937
97668W        W61876  11.286  13.713   0.749
97669W        W61877  19.627  25.084   4.664
97670W        W61878   1.803  32.482  14.301
97671W        W61879  18.241  18.579   0.376
97672W        W61880  14.653  38.411   2.251
97673W        W61881   6.376  17.062  11.403
97674W        W61882  37.449  17.680  10.973
97675W        W61883  10.314  31.573  10.407
97676W        W61884  41.813  36.006   9.977
97677W        W61885  10.780  37.357  10.904
97678W        W61886  31.543  22.012  12.063
97679W        W61887  11.172  12.317  14.980
97680W        W61888  21.227  33.914  12.377
97681W        W61889   7.804  31.604   4.602
97682W        W61890  23.113  35.437   1.856
97683W        W61891   1.790  15.658   0.939
97684W        W61892  39.360  41.882   1.239
97685W        W61893  44.276  28.637   3.201
97686W        W61894  13.246  16.673   0.265
97687W        W61895  24.121  24.229   2.740
97688W        W61896  19.713  16.771   1.845
97689W        W61897  25.072  19.620  12.907
97690W        W61898  31.902  16.263  14.795
97691W        W61899  23.060  13.290   2.315
97692W        W61900  22.242   3.787  13.323
97693W        W61901   8.661   4.888   4.807
97694W        W61902  11.207  26.028   0.848
97695W        W61903  35.052  31.945   3.297
97696W        W61904  17.580  16.096  14.901
97697W        W61905   9.317   8.747   3.277
97698W        W61906  35.987  34.471  14.446
97699W        W61907  17.267  18.238  11.496
97700W        W61908   1.938  25.962  14.774
97701W        W61909  13.667   6.849  10.543
97702W        W61910  36.389  16.660   2.875
97703W        W61911  22.582  23.544   2.289
97704W        W61912  36.055   9.331  12.828
97705W        W61913   6.410   6.357  14.399
97706W        W61914  44.498  32.613  11.426
97707W        W61915   8.747  22.744  13.970
97708W        W61916  44.994  36.560   3.732
97709W        W61917  31.438   0.899  11.063
97710W        W61918   9.327  41.510  13.909
97711W        W61919  43.014  18.750   2.667
97712W        W61920  39.815  25.153   2.209
97713W        W61921  16.596  32.441  12.043
97714W        W61922  17.556  22.662   0.790
97715W        W61923   5.237  38.363  10.894
97716W        W61924   2.805   5.231  10.585
97717W        W61925  44.347   4.798   0.939
97718W        W61926   3.440  12.638  11.949
97719W        W61927  14.265  38.845  14.456
97720W        W61928  31.419   0.902   4.166
97721W        W61929  29.640  11.760  11.997
97722W        W61930  37.012  12.809  12.458
97723W        W61931  24.225  43.482  13.510
97724W        W61932  27.688   7.805  10.483
97725W        W61933   6.248  23.639  10.930
97726W        W61934  20.237   7.701  11.986
97727W        W61935  25.067  13.267  14.799
97728W        W61936  26.138   3.876  14.335
97729W        W61937   2.414  27.180   3.335
97730W        W61938  22.094  36.074   0.259
97731W        W61939   1.374  41.317  12.357
97732W        W61940  32.051  29.490  14.795
97733W        W61941  42.483  27.054  13.826
97734W        W61942   0.383  20.187  13.347
97735W        W61943  15.800  14.241   0.423
97736W        W61944  43.941  43.427  14.926
97737W        W61945  32.898  21.095  13.975
97738W        W61946  32.527  12.117   0.834
97739W        W61947  32.456   1.912  14.856
97740W        W61948  23.136  25.003   1.904
97741W        W61949  13.756   1.332   4.691
97742W        W61950  18.595  36.875   5.204
97743W        W61951  44.912   8.669  14.005
97744W        W61952   7.894   5.928   0.458
97745W        W61953  18.657  15.162   0.727
97746W        W61954   8.764  35.535   1.439
97747W        W61955  21.737   5.908  11.503
97748W        W61956  22.240  30.984  12.376
97749W        W61957  19.669  26.509  12.376
97750W        W61958  44.004  13.687   2.727
97751W        W61959   0.873  33.916  12.581
97752W        W61960  28.666  30.092   3.728
97753W        W61961   3.417   8.884  12.911
97754W        W61962  39.933   4.755  12.859
97755W        W61963  15.093  13.334   1.441
97756W        W61964   1.463  40.475   1.361
97757W        W61965  28.182   8.319   1.340
97758W        W61966   8.770   5.808   2.697
97759W        W61967  22.059  35.957   2.787
97760W        W61968  38.569  15.664   2.817
97761W        W61969  33.092  27.073  10.601
97762W        W61970   2.328  30.924   1.776
97763W        W61971  12.769  20.030   4.781
97764W        W61972  20.754  34.412   3.331
97765W        W61973  41.466   8.752  12.342
97766W        W61974  38.354   1.734   9.931
97767W        W61975   1.975   8.304   3.246
97768W        W61976  37.863  21.249  10.033
97769W        W61977   8.764  14.597  14.450
97770W        W61978   1.977  35.551  14.815
97771W        W61979   9.773  16.720  12.499
97772W        W61980  23.004  30.946  14.427
97773W        W61981  40.898  27.650  11.909
97774W        W61982   0.469  41.845   2.267
97775W        W61983  38.861   9.761  12.395
97776W        W61984  41.044  40.883   4.286
97777W        W61985   2.918  23.081   1.872
97778W        W61986  23.130  39.932   1.321
97779W        W61987  40.474   7.903  13.540
97780W        W61988  35.381  15.785   2.878
97781W        W61989  26.061  16.295   3.235
97782W        W61990   5.710   7.891  14.840
97783W        W61991  15.097  25.503  14.901
97784W        W61992  25.653  27.999   0.937
97785W        W61993  20.116  42.312  11.475
97786W        W61994  13.645  42.882  11.473
97787W        W61995  16.179  30.990   4.286
97788W        W61996  21.616  29.455   3.744
97789W        W61997  10.655  34.009   2.240
97790W        W61998  29.167  23.594   2.312
97791W        W61999  38.360  10.281   2.768
97792W        W62000   4.781  24.158  12.495
97793W        W62001   6.264  35.052  14.293
97794W        W62002  16.162  40.956  14.911
97795W        W62003  32.512  33.901   1.730
97796W        W62004  32.931  25.973   3.360
97797W        W62005   0.286   9.822   0.951
97798W        W62006   9.278   4.784  14.934
97799W        W62007  20.143   4.842  14.507
97800W        W62008  18.172   4.291   2.348
97801W        W62009   2.360  35.960   1.426
97802W        W62010  13.313  26.024   0.792
97803W        W62011  42.372  38.026  13.997
97804W        W62012  42.826   3.337  14.411
97805W        W62013  34.038  23.723  14.832
97806W        W62014  31.153  44.398   2.393
97807W        W62015  35.902  36.376   1.708
97808W        W62016  36.867  29.635   4.830
97809W        W62017  32.401  26.678   3.725
97810W        W62018  32.995   4.381   4.280
97811W        W62019   1.836  35.597   3.724
97812W        W62020  36.065  10.801   1.828
97813W        W62021   7.749  32.128  12.913
97814W        W62022   4.281  24.489   0.862
97815W        W62023  15.289  27.559  10.584
97816W        W62024  31.539  16.789   0.781
97817W        W62025   7.906  40.357   2.700
97818W        W62026  18.275  28.548   0.394
97819W        W62027  11.782  37.056  14.969
97820W        W62028  19.087  31.549  11.885
97821W        W62029  16.207  15.734   0.777
97822W        W62030   2.739   7.713   1.700
97823W        W62031  24.221  26.642  11.056
97824W        W62032  14.781  18.217   3.705
97825W        W62033  24.005   3.237   3.368
97826W        W62034  40.882  29.977   4.224
97827W        W62035   7.208  34.070   3.795
97828W        W62036   5.826  21.664   2.732
97829W        W62037  24.070  25.691  12.567
97830W        W62038  10.327  19.608   4.728
97831W        W62039  15.319  24.681   4.129
97832W        W62040  21.045  16.785  10.889
97833W        W62041  23.044  43.380  10.517
97834W        W62042   9.809  11.845  14.465
97835W        W62043   1.797  41.338  14.480
97836W        W62044   7.719  10.185   4.240
97837W        W62045  15.207  34.487   2.765
97838W        W62046   0.375   9.346  11.118
97839W        W62047  23.014  29.577   3.682
97840W        W62048  29.485  36.929  13.950
97841W        W62049   7.758  34.976  12.986
97842W        W62050  22.539  40.483  11.931
97843W        W62051  42.459  21.137  11.507
97844W        W62052  20.136  41.479  14.501
97845W        W62053   8.766  30.127   0.457
97846W        W62054  35.517  38.859   2.696
97847W        W62055  30.128  17.286   3.730
97848W        W62056  38.570  30.501  11.082
97849W        W62057   9.213  18.231   3.364
97850W        W62058  37.533  20.211  10.029
97851W        W62059  35.540  19.543   2.324
97852W        W62060  34.116  26.512   4.254
97853W        W62061  42.382  31.973   4.242
97854W        W62062  12.151  13.289  13.808
97855W        W62063  20.174  35.415   2.206
97856W        W62064  36.877   4.856  12.468
97857W        W62065   4.912  16.257  13.435
97858W        W62066  28.963  15.791   0.277
97859W        W62067   4.370  25.560   3.381
97860W        W62068  13.159  25.591  11.464
97861W        W62069  10.207   1.348   4.339
97862W        W62070   5.828  43.275  14.014
97863W        W62071  28.085   2.746   0.738
97864W        W62072  24.186  41.538  12.985
97865W        W62073  34.516  28.966  10.476
97866W        W62074  17.588  23.231  11.024
97867W        W62075  18.614  33.880   4.718
97868W        W62076  39.417   6.854   0.450
97869W        W62077  34.411  34.096   2.843
97870W        W62078   9.293   2.399  11.460
97871W        W62079  25.079  36.507   2.299
97872W        W62080  23.705  21.086   0.923
97873W        W62081   7.218  28.983   2.697
97874W        W62082  14.833  40.972  10.539
97875W        W62083   6.719  39.042   4.802
97876W        W62084  29.564  25.996   3.387
97877W        W62085   2.751   9.258  12.933
97878W        W62086  36.967   9.172   1.886
97879W        W62087  28.470  36.379   0.425
97880W        W62088   0.808   5.721  11.044
97881W        W62089  27.479  30.476   3.328
97882W        W62090  38.395  23.724  11.939
97883W        W62091   4.398  24.998  14.994
97884W        W62092  31.904   5.769  11.857
97885W        W62093  32.620  17.679  13.540
97886W        W62094  35.020  39.526   4.697
97887W        W62095  14.222   9.854  10.406
97888W        W62096   4.311  15.802   1.320
97889W        W62097  42.903  28.986  14.785
97890W        W62098  41.804  21.584  13.432
97891W        W62099  27.673  40.525  10.922
97892W        W62100  14.671  12.691  14.771
97893W        W62101  23.542  29.532  10.639
97894W        W62102  16.763  37.966   3.776
97895W        W62103   1.904   3.428   5.253
97896W        W62104  42.363  31.432  12.404
97897W        W62105  30.499  42.992  13.835
97898W        W62106   9.309  37.521  10.490
97899W        W62107  13.195  23.720   1.308
97900W        W62108  32.916  31.071   3.173
97901W        W62109  25.008  32.461   4.148
97902W        W62110  26.060  43.291  12.475
97903W        W62111  42.412  11.815   4.682
97904W        W62112  24.612  17.747  13.846
97905W        W62113   4.417  28.964  10.545
97906W        W62114  16.629   9.734  10.405
97907W        W62115  30.965  24.182  13.531
97908W        W62116  15.781   8.308  12.361
97909W        W62117   2.261   2.411  11.380
97910W        W62118  11.263  37.402   1.438
97911W        W62119  20.597  41.871   0.394
97912W        W62120  20.688   6.869  14.334
97913W        W62121  18.066   4.816   3.267
97914W        W62122  16.600  32.011   3.803
97915W        W62123   7.200  31.560  13.401
97916W        W62124  25.677  34.952   9.928
97917W        W62125  38.412   7.351  10.588
97918W        W62126  24.046  29.465  10.642
97919W        W62127  35.492  11.670  10.953
97920W        W62128   7.373  18.196  12.089
97921W        W62129  11.778  41.914   0.315
97922W        W62130  43.376  23.599  14.000
97923W        W62131  36.504  23.200   1.708
97924W        W62132  38.331  31.032  13.320
97925W        W62133  44.321   5.422  10.469
97926W        W62134  29.436  37.483   4.193
97927W        W62135  39.033   5.428  13.970
97928W        W62136   1.797  26.132   0.949
97929W        W62137  43.977  27.542  14.324
97930W        W62138   9.856  20.576   2.802
97931W        W62139  37.386  13.809   0.326
97932W        W62140  18.556  25.684   2.853
97933W        W62141  24.974  24.546   0.785
97934W        W62142  21.091   5.193  10.099
97935W        W62143  34.430  19.565   2.667
97936W        W62144  24.981  19.268   1.866
97937W        W62145  44.818  26.501   1.410
97938W        W62146  31.561  14.252  11.612
97939W        W62147  13.342  10.362  13.839
97940W        W62148  44.882  17.147   0.363
97941W        W62149  40.876  10.743  13.311
97942W        W62150  10.159  42.492  11.975
97943W        W62151  10.380  11.814  11.533
97944W        W62152  28.657  39.037  14.846
97945W        W62153  22.242   1.432   2.793
97946W        W62154  14.728   3.787  13.365
97947W        W62155   3.292  10.179  10.640
97948W        W62156  19.728  18.680  13.439
97949W        W62157  15.145  27.955   0.815
97950W        W62158  43.393  34.552   2.333
97951W        W62159  34.942   8.722   1.368
97952W        W62160   9.210  30.556   0.756
97953W        W62161  26.476  35.997   3.766
97954W        W62162   3.729   2.389  12.475
97955W        W62163  42.368  43.873  12.573
97956W        W62164   7.267  32.093   1.792
97957W        W62165  20.622  43.924  14.442
97958W        W62166  32.412   4.285  11.443
97959W        W62167  21.172  28.175  13.936
97960W        W62168   5.717  17.791  10.610
97961W        W62169  10.311  41.477   2.780
97962W        W62170  29.065  30.548  14.901
97963W        W62171  41.309   9.280  10.983
97964W        W62172  33.617   8.758   9.990
97965W        W62173  17.207  15.590   3.225
97966W        W62174  42.821  22.216   3.156
97967W        W62175   4.783   6.195   4.651
97968W        W62176   4.880  11.638   4.293
97969W        W62177   6.769  24.994   4.601
97970W        W62178  13.784  23.063   3.780
97971W        W62179   1.857  30.603  10.039
97972W        W62180   8.303  12.308   4.750
97973W        W62181  34.899   1.937  14.408
97974W        W62182  42.474  30.919   4.239
97975W        W62183   6.724  35.002  10.586
97976W        W62184  21.136   6.881  12.974
97977W        W62185  20.625  27.996   0.904
97978W        W62186  34.030  16.305   2.809
97979W        W62187  15.744   9.735  14.481
97980W        W62188   8.839  21.745   4.600
97981W        W62189  25.080   4.810   0.940
97982W        W62190  19.176  12.791  13.476
97983W        W62191  30.920   1.798  10.562
97984W        W62192  39.544   9.176   4.634
97985W        W62193  25.097  36.066   4.234
97986W        W62194  40.484  36.044   1.921
97987W        W62195   0.467  20.054   1.354
97988W        W62196  12.813  28.178   2.825
97989W        W62197  14.260  44.813  14.829
97990W        W62198  32.496   5.436   4.234
97991W        W62199  17.096  20.613  12.916
97992W        W62200  17.083  38.990   3.188
97993W        W62201  29.033   2.899   1.321
97994W        W62202  25.662  13.225  13.943
97995W        W62203  24.080  20.523   4.342
97996W        W62204   6.738   7.266  13.354
97997W        W62205  44.870   6.223  11.556
97998W        W62206  18.626  21.142  10.969
97999W        W62207  18.743  41.396   0.896
98000W        W62208   9.171  39.034   0.301
98001W        W62209  41.352  30.112   4.259
98002W        W62210  26.536  36.394   0.390
98003W        W62211  28.992  19.744   1.759
98004W        W62212  38.877  25.095  11.418
98005W        W62213  33.441  44.478   4.151
98006W        W62214  19.159  39.524   2.400
98007W        W62215  17.300  36.589   2.209
98008W        W62216  22.246  39.548  13.523
98009W        W62217  10.634   0.743   3.734
98010W        W62218  39.059   7.803  12.525
98011W        W62219  36.364  15.152  14.847
98012W        W62220  42.282  13.701   2.258
98013W        W62221  26.673  44.797   4.127
98014W        W62222  19.622  42.423   4.654
98015W        W62223  23.159   5.406   0.732
98016W        W62224  18.646  39.957  13.822
98017W        W62225   5.296  39.946   1.881
98018W        W62226  41.450  42.424  12.552
98019W        W62227  11.235  30.049  14.464
98020W        W62228  37.498  16.616  11.607
98021W        W62229  23.591   0.965  13.056
98022W        W62230  12.191  31.553   4.347
98023W        W62231  27.676   8.841  12.414
98024W        W62232  37.488   7.246   2.325
98025W        W62233  37.534  40.473   2.673
98026W        W62234   7.856  26.573  11.507
98027W        W62235  30.052  24.702   1.779
98028W        W62236  12.203  19.123  12.565
98029W        W62237  33.531  24.625  11.087
98030W        W62238  28.007  43.817   0.828
98031W        W62239  35.385  13.174  10.417
98032W        W62240   3.812  18.259   2.832
98033W        W62241  33.959  32.067  11.079
98034W        W62242  27.534  20.675   2.891
98035W        W62243  39.845  24.531  14.986
98036W        W62244  24.984  26.604  11.528
98037W        W62245  25.150  38.843   2.379
98038W        W62246  43.399  43.815  14.382
98039W        W62247  23.029  26.078   2.394
98040W        W62248  41.983  39.034  11.880
98041W        W62249  13.152  28.564   4.755
98042W        W62250  11.220  12.222   1.778
98043W        W62251  13.687   8.230   2.325
98044W        W62252  32.481  22.234  12.534
98045W        W62253   6.400  11.247   4.806
98046W        W62254  27.975  24.992   3.146
98047W        W62255  26.486  12.235  11.383
98048W        W62256   9.827  32.934   2.351
98049W        W62257  35.890  44.770  12.479
98050W        W62258   0.900  16.802  12.004
98051W        W62259   1.807  26.008   3.731
98052W        W62260   3.344  35.989  13.894
98053W        W62261  13.163  23.991   4.129
98054W        W62262  28.176  14.731  13.538
98055W        W62263  10.382  26.684   9.942
98056W        W62264  43.395  15.130  10.580
98057W        W62265  23.731  21.646   3.646
98058W        W62266  29.024  36.370   0.937
98059W        W62267  40.805  24.117   4.776
98060W        W62268  43.915  31.933  14.019
98061W        W62269  39.024  37.351   2.379
98062W        W62270  31.602   2.854   0.836
98063W        W62271  40.502  44.433  10.537
98064W        W62272   3.345  18.192   1.927
98065W        W62273  12.803  15.167  12.977
98066W        W62274  43.981  36.585   3.668
98067W        W62275  30.644  33.995  10.414
98068W        W62276  24.227  28.033   1.422
98069W        W62277  29.506  15.291  14.463
98070W        W62278  38.874  20.232   2.264
98071W        W62279  38.450  20.535  11.944
98072W        W62280  26.537  14.112   3.345
98073W        W62281  32.562  43.990  13.043
98074W        W62282  37.051  17.150  11.896
98075W        W62283  21.120  36.075  11.923
98076W        W62284  28.599  21.577   4.297
98077W        W62285   3.880   7.342   1.792
98078W        W62286  38.375  33.590  13.055
98079W        W62287  22.225  43.851  13.947
98080W        W62288  39.874   5.848   5.235
98081W        W62289  36.404  33.971  12.920
98082W        W62290  22.229  16.809  11.964
98083W        W62291  34.932  24.595   1.389
98084W        W62292  44.299  20.718  10.607
98085W        W62293  29.605  43.485  13.988
98086W        W62294  10.178  40.443   2.408
98087W        W62295  37.377  39.477  14.500
98088W        W62296   6.882  22.168  11.067
98089W        W62297  16.117  10.362  13.481
98090W        W62298   9.290  25.708   2.741
98091W        W62299  35.544   5.221  10.571
98092W        W62300  14.290   6.879  14.502
98093W        W62301   4.312  27.060  10.978
98094W        W62302   6.185  14.277   0.830
98095W        W62303  39.377  15.171   2.364
98096W        W62304   9.831  39.821   2.260
98097W        W62305  37.513  19.144   5.111
98098W        W62306  10.147  24.082  13.973
98099W        W62307  39.887  22.030   1.756
98100W        W62308  32.402   7.687  12.507
98101W        W62309  35.860   9.228  13.908
98102W        W62310  43.016  30.471  11.034
98103W        W62311  20.587  42.353  12.954
98104W        W62312  19.750   2.359  13.411
98105W        W62313  32.587  28.010  12.857
98106W        W62314  30.048  36.406  10.928
98107W        W62315   8.183  27.599   4.335
98108W        W62316  32.933  20.137   0.441
98109W        W62317  12.190  40.925   1.377
98110W        W62318  30.157  26.657   4.711
98111W        W62319   3.427  41.349  12.059
98112W        W62320  26.658  32.546  12.358
98113W        W62321   7.824  29.982  13.967
98114W        W62322  15.789  32.125  10.408
98115W        W62323  37.020   2.799   3.783
98116W        W62324  39.845  12.613  14.814
98117W        W62325  10.847  21.594  10.621
98118W        W62326  21.637  16.626   2.193
98119W        W62327  17.228  42.392   2.262
98120W        W62328  35.968  12.781   3.365
98121W        W62329   2.424  36.084   4.161
98122W        W62330  28.571  30.150  13.420
98123W        W62331  25.146  43.835  12.073
98124W        W62332  28.475   3.890   3.788
98125W        W62333  28.574   8.669  14.780
98126W        W62334   6.677  26.545  13.398
98127W        W62335   8.283  22.142  13.792
98128W        W62336  13.131  10.748  10.572
98129W        W62337   4.803  28.015   3.212
98130W        W62338  16.257   4.241  10.535
98131W        W62339  42.972  14.259   3.269
98132W        W62340  15.822  28.650  10.438
98133W        W62341  14.144  29.044   3.193
98134W        W62342  41.908   4.717  14.390
98135W        W62343  31.505  38.389   4.313
98136W        W62344  21.070  23.729  13.910
98137W        W62345  11.778   5.776  14.356
98138W        W62346  31.511  30.423   1.337
98139W        W62347  41.358  23.543   4.199
98140W        W62348  18.248  34.898  12.472
98141W        W62349   9.162  10.252   2.407
98142W        W62350   2.932  32.912   2.415
98143W        W62351  28.448  39.532   1.926
98144W        W62352  36.016  31.998   1.921
98145W        W62353  17.287  20.196   1.858
98146W        W62354  33.951  20.756  14.410
98147W        W62355  24.486   6.208  14.782
98148W        W62356  30.131   6.739  12.487
98149W        W62357  22.595  29.969   1.321
98150W        W62358  21.261  23.134  14.316
98151W        W62359   3.951  36.438  14.797
98152W        W62360  32.459  28.968   2.200
98153W        W62361  16.790  44.981   4.730
98154W        W62362   3.411   1.900   9.604
98155W        W62363  23.617  43.349   3.339
98156W        W62364  42.504  28.027   2.254
98157W        W62365  14.633  26.485   0.335
98158W        W62366  19.137   9.304   2.853
98159W        W62367  16.695  31.573   2.394
98160W        W62368  43.851   6.243   4.135
98161W        W62369  10.757  30.997   1.346
98162W        W62370   3.432  36.010   2.360
98163W        W62371  36.358  37.433  11.463
98164W        W62372  24.660  29.941   4.233
98165W        W62373  11.304  15.322  10.537
98166W        W62374  26.491  36.386  14.984
98167W        W62375  42.020  33.539  11.498
98168W        W62376  12.207  26.073  10.964
98169W        W62377  13.335  43.471  12.372
98170W        W62378   5.861  31.435  13.437
98171W        W62379   4.880  30.506  14.880
98172W        W62380   3.931  13.602   1.308
98173W        W62381  42.937  40.546   0.252
98174W        W62382   7.310  19.593  14.360
98175W        W62383  36.402   4.263   2.813
98176W        W62384  28.559  34.576  11.375
98177W        W62385   9.780  12.210   2.831
98178W        W62386  16.698  36.492  14.379
98179W        W62387  23.578  30.486  11.017
98180W        W62388  35.909  38.006  14.000
98181W        W62389  30.632   1.438   4.213
98182W        W62390   3.898  25.154   0.302
98183W        W62391  36.403  26.532   4.816
98184W        W62392  39.973  34.064  10.419
98185W        W62393   9.265  23.653   0.406
98186W        W62394  21.592   0.959   1.905
98187W        W62395   1.828  26.582   0.435
98188W        W62396  20.218   4.781   3.870
98189W        W62397  33.574   4.260   0.433
98190W        W62398  16.108   7.239  10.608
98191W        W62399   1.451   0.254  12.970
98192W        W62400  17.580  19.724   0.480
98193W        W62401  34.582  21.742   2.307
98194W        W62402   1.750  40.516   1.346
98195W        W62403  10.713  43.288  13.851
98196W        W62404  29.514  41.959   1.783
98197W        W62405  38.029  16.598  12.399
98198W        W62406  16.759  20.095  13.967
98199W        W62407   3.338  35.483   3.682
98200W        W62408   2.931  43.000   0.814
98201W        W62409   6.728   5.708  12.839
98202W        W62410  14.220  26.481   0.356
98203W        W62411  40.847   0.757   1.910
98204W        W62412  11.357   3.425  11.083
98205W        W62413  25.123  27.948   4.116
98206W        W62414  19.573  33.884  13.855
98207W        W62415  17.788  27.627  11.975
98208W        W62416  14.227  39.553   3.383
98209W        W62417  14.238  31.006  14.378
98210W        W62418  20.605   9.240   5.205
98211W        W62419  19.066  29.498  10.600
98212W        W62420   6.864  24.714   3.266
98213W        W62421  19.584  43.924  14.787
98214W        W62422  41.322   1.796  13.804
98215W        W62423   6.741  24.522  11.924
98216W        W62424  28.109  21.562  13.043
98217W        W62425  16.282   1.284  12.430
98218W        W62426  35.535  39.936   0.808
98219W        W62427  14.795  38.870   3.259
98220W        W62428  22.682  13.794  12.865
98221W        W62429  31.097   3.303   2.724
98222W        W62430  33.093  30.642  11.977
98223W        W62431  37.521  12.749  11.072
98224W        W62432  34.016  12.737   1.861
98225W        W62433  34.904   0.758   5.108
98226W        W62434  11.299  11.793   1.373
98227W        W62435   4.744  41.525  14.429
98228W        W62436  20.527   8.380  11.944
98229W        W62437  16.669  17.607  11.582
98230W        W62438   7.215  30.997  10.493
98231W        W62439   1.457  15.316  10.410
98232W        W62440  16.716  28.546   1.910
98233W        W62441   2.813  13.135   0.333
98234W        W62442  17.303  21.562  13.534
98235W        W62443  13.341  41.962   3.385
98236W        W62444  30.593   9.393   4.279
98237W        W62445   7.695  30.008  12.957
98238W        W62446  12.137   3.945  13.481
98239W        W62447  26.700  34.536   0.437
98240W        W62448  26.983   0.417   2.716
98241W        W62449  26.504  40.830  10.448
98242W        W62450   9.734  28.968   2.263
98243W        W62451  39.435  15.709   2.323
98244W        W62452  27.503  12.832  13.827
98245W        W62453  29.524  42.861   0.333
98246W        W62454  25.015  21.695  13.388
98247W        W62455  38.441   2.432   0.800
98248W        W62456  28.184  26.119   3.715
98249W        W62457  41.469  26.982  13.496
98250W        W62458  40.314  34.463  14.307
98251W        W62459  15.583  43.952   9.926
98252W        W62460  32.448  36.457   1.390
98253W        W62461  37.412  22.151  13.813
98254W        W62462  29.038  39.373   1.353
98255W        W62463  12.659  42.800   0.320
98256W        W62464  25.049   9.677  11.458
98257W        W62465  44.399   7.757  11.884
98258W        W62466  19.185  12.611  10.523
98259W        W62467  34.913  32.628  14.906
98260W        W62468  37.958  31.986  14.814
98261W        W62469  18.738  43.330  13.547
98262W        W62470  36.971  16.277  12.529
98263W        W62471  16.222  35.553  10.430
98264W        W62472  23.524  41.299   2.312
98265W        W62473  11.769  18.784   4.313
98266W        W62474  14.228  30.480   2.841
98267W        W62475  18.275  12.773  14.353
98268W        W62476  25.681  42.832   1.694
98269W        W62477  11.851  21.137  11.940
98270W        W62478  42.790  23.704   3.183
98271W        W62479  26.591  44.946   4.638
98272W        W62480  15.582  13.625  11.576
98273W        W62481  21.563  17.579   2.185
98274W        W62482  27.148  14.241   4.318
98275W        W62483  18.114  27.127  12.873
98276W        W62484  19.624  26.463   0.765
98277W        W62485   9.888  30.040  14.969
98278W        W62486  38.547  34.494   3.359
98279W        W62487   7.239  13.270   4.601
98280W        W62488   9.198  28.132  14.291
98281W        W62489  42.031  14.218  14.782
98282W        W62490   3.215  31.635  12.021
98283W        W62491   5.279   9.786   1.914
98284W        W62492  35.539  42.446   3.158
98285W        W62493  20.207  20.592   1.922
98286W        W62494  16.752  25.165   2.306
98287W        W62495  28.626   0.449   4.245
98288W        W62496  35.089   2.771  10.410
98289W        W62497   2.436   6.223  12.834
98290W        W62498   7.294  19.534   4.149
98291W        W62499  25.705  12.188  10.985
98292W        W62500  15.821  12.165   1.314
98293W        W62501  15.281   5.763  11.022
98294W        W62502   8.227   2.894   0.966
98295W        W62503  22.668  21.750   2.780
98296W        W62504  27.656  19.250   1.342
98297W        W62505  33.077  12.634   0.763
98298W        W62506   3.393  27.965   2.762
98299W        W62507  19.126   8.191   4.717
98300W        W62508  42.341  24.161  10.578
98301W        W62509  43.351  43.447   3.311
98302W        W62510   6.321  12.672  14.297
98303W        W62511   3.733  34.412   0.870
98304W        W62512  35.549  37.410  12.019
98305W        W62513  29.556  19.646   9.962
98306W        W62514  24.001  35.073  12.869
98307W        W62515  23.666  43.839  11.079
98308W        W62516   0.343  39.378   1.729
98309W        W62517  30.502   5.720  10.523
98310W        W62518  25.599  36.016  14.379
98311W        W62519  17.632  36.845   2.409
98312W        W62520   7.251  29.534   2.891
98313W        W62521  23.103  10.737  11.572
98314W        W62522  36.901  36.390  11.385
98315W        W62523   1.802  42.030  11.050
98316W        W62524   4.782  11.190  10.134
98317W        W62525  37.037  42.790   4.354
98318W        W62526  31.559   2.314   1.267
98319W        W62527  19.768  32.402   2.697
98320W        W62528  11.335  38.451  12.454
98321W        W62529  22.172  12.770  12.419
98322W        W62530   0.350   7.300   0.411
98323W        W62531  43.492   5.317   0.880
98324W        W62532  28.094  16.078   1.319
98325W        W62533  17.636  22.592  11.579
98326W        W62534  25.588   0.921   3.728
98327W        W62535  36.067  11.166  13.466
98328W        W62536   5.243  38.497  12.843
98329W        W62537  44.328  40.860   2.253
98330W        W62538  11.646  12.192  13.937
98331W        W62539   5.291  29.583  14.416
98332W        W62540  41.962   6.860   4.181
98333W        W62541  30.025   3.735  11.888
98334W        W62542  32.020   6.194  13.330
98335W        W62543  33.535  18.279   2.366
98336W        W62544   9.308   9.788  10.896
98337W        W62545  44.322  20.590  12.460
98338W        W62546  17.238  18.746  14.512
98339W        W62547  22.062  13.349  14.776
98340W        W62548  21.035  22.623  12.987
98341W        W62549  42.295  33.910   0.913
98342W        W62550  39.029  24.606  14.340
98343W        W62551  23.185   2.952  11.570
98344W        W62552   7.839  16.669  13.861
98345W        W62553  25.059  35.928  13.038
98346W        W62554  20.617  11.223  14.866
98347W        W62555   1.414  42.973  13.840
98348W        W62556  23.723  39.844   1.852
98349W        W62557  18.579  19.130  13.409
98350W        W62558  11.625  42.464   4.630
98351W        W62559  42.822  36.877   4.126
98352W        W62560  20.092  38.435   0.907
98353W        W62561  30.066   8.720   0.928
98354W        W62562   6.901  18.236  10.611
98355W        W62563  27.493  33.879   3.834
98356W        W62564   0.786  31.509  10.121
98357W        W62565   3.750  34.064   0.824
98358W        W62566   9.800   8.304  14.988
98359W        W62567  11.796  38.845  11.440
98360W        W62568  40.463   0.830  14.376
98361W        W62569  36.499   6.236  11.569
98362W        W62570  27.609  44.796  10.931
98363W        W62571  21.062  26.505  12.935
98364W        W62572  35.522  42.852  14.383
98365W        W62573   8.821  44.883   1.805
98366W        W62574   1.769  30.081  10.637
98367W        W62575  10.175  22.218  13.880
98368W        W62576  44.494  42.281   2.714
98369W        W62577  29.652  25.001   1.301
98370W        W62578  44.993  41.494  13.320
98371W        W62579  27.066  28.169  11.376
98372W        W62580   8.695  13.691   2.380
98373W        W62581   1.781  41.496   2.357
98374W        W62582  37.458  37.883  11.585
98375W        W62583  18.783   5.879  13.798
98376W        W62584  43.462  22.638   4.817
98377W        W62585   9.387  39.860   3.645
98378W        W62586  12.251  15.653   3.270
98379W        W62587  41.474  35.471  12.939
98380W        W62588  11.748   4.732   3.364
98381W        W62589  13.104  43.781  14.924
98382W        W62590  22.226   9.787  10.595
98383W        W62591  36.509  17.637  13.872
98384W        W62592  35.873  37.910  11.894
98385W        W62593  42.484  26.657  14.925
98386W        W62594  28.932  32.407   3.247
98387W        W62595  31.535  27.684  14.502
98388W        W62596  41.877  38.406   1.414
98389W        W62597   5.268  16.209   0.939
98390W        W62598  31.115  36.437   2.244
98391W        W62599  21.250   5.384   1.891
98392W        W62600  20.558  25.089   2.296
98393W        W62601  41.979   1.455   4.147
98394W        W62602  23.625   8.231  12.857
98395W        W62603  42.925  28.478  14.447
98396W        W62604   9.750  30.595  14.475
98397W        W62605   5.883  12.689   3.817
98398W        W62606  26.583  36.506  13.796
98399W        W62607   5.744   7.244   3.700
98400W        W62608   9.793  27.109   4.611
98401W        W62609  26.557   1.373  13.978
98402W        W62610  27.682  21.117  12.045
98403W        W62611   7.874  10.646  13.532
98404W        W62612  30.907  20.270  11.962
98405W        W62613   7.222  26.108  13.834
98406W        W62614  30.600  16.799  14.304
98407W        W62615   0.982   0.251   4.284
98408W        W62616  14.295  28.087   1.292
98409W        W62617  10.679  16.237  14.340
98410W        W62618  32.487  17.281   0.370
98411W        W62619   3.309  12.777  12.468
98412W        W62620  44.856  17.603   0.411
98413W        W62621  40.001  19.640  12.077
98414W        W62622  18.174   3.293   0.925
98415W        W62623  33.125  12.245   2.233
98416W        W62624  43.379  10.714   4.645
98417W        W62625  17.578  36.358   1.899
98418W        W62626  24.554  27.984  12.966
98419W        W62627   7.192  17.584   2.752
98420W        W62628  14.589  31.559   0.879
98421W        W62629  30.655  19.180   0.838
98422W        W62630  27.064  16.192  14.912
98423W        W62631  15.239   2.402   0.858
98424W        W62632  19.735  16.102  12.377
98425W        W62633  44.464  19.545  13.926
98426W        W62634   5.695  18.624  14.922
98427W        W62635  33.107  39.935  10.529
98428W        W62636  28.013   4.340  10.980
98429W        W62637  25.988  40.013   4.737
98430W        W62638  28.475  29.979   0.877
98431W        W62639   9.288  26.990   0.871
98432W        W62640  40.492   8.895   4.639
98433W        W62641  34.419  15.186   3.705
98434W        W62642  26.600  28.938   2.370
98435W        W62643  13.815  16.184   2.412
98436W        W62644  21.033  25.627  10.448
98437W        W62645  14.644  33.566  10.935
98438W        W62646  23.128  41.832   4.113
98439W        W62647  14.673  37.572  14.379
98440W        W62648  42.336  44.319   0.391
98441W        W62649  39.046  31.126   2.294
98442W        W62650  41.825   4.234   1.436
98443W        W62651  44.890  36.470   1.878
98444W        W62652   0.297  42.493   4.330
98445W        W62653  16.239  31.595   3.304
98446W        W62654  31.034  30.022   3.334
98447W        W62655  42.499   5.712   1.224
98448W        W62656   6.380  34.113  13.518
98449W        W62657  18.087  41.795   4.113
98450W        W62658   3.254  38.922   2.192
98451W        W62659  14.646  36.432  13.500
98452W        W62660  13.301   6.240  10.951
98453W        W62661  38.351  19.670   0.284
98454W        W62662  27.688  37.567   0.781
98455W        W62663  33.082  20.618  13.987
98456W        W62664  10.870  33.929   1.895
98457W        W62665  15.797   4.437   5.174
98458W        W62666  39.848   0.931   2.899
98459W        W62667  30.421  12.791  14.823
98460W        W62668  32.547  26.630  13.352
98461W        W62669  13.193   2.847  12.448
98462W        W62670   5.729  41.527   1.849
98463W        W62671  14.130  11.132  10.936
98464W        W62672  41.505  18.728   1.728
98465W        W62673  29.174  40.487  14.774
98466W        W62674   1.270  22.738  12.837
98467W        W62675  31.922  22.028   0.306
98468W        W62676   2.746  43.935  14.364
98469W        W62677  22.695  22.598   0.794
98470W        W62678  28.455  31.642   3.283
98471W        W62679   1.377   5.207  12.904
98472W        W62680  41.457  26.203   3.314
98473W        W62681  30.115  29.467  11.388
98474W        W62682  21.644  35.461   4.695
98475W        W62683   5.228  39.932  12.431
98476W        W62684  13.223  38.005   3.325
98477W        W62685  15.256   1.299  11.404
98478W        W62686  44.424   5.308   2.843
98479W        W62687  15.295  15.146  14.957
98480W        W62688   5.310  31.003   4.214
98481W        W62689  10.795   1.819   2.767
98482W        W62690  26.469  41.466  12.452
98483W        W62691   0.893   2.367  13.059
98484W        W62692   4.721   6.227  13.393
98485W        W62693  32.059  34.095   0.305
98486W        W62694  33.568  18.199  12.478
98487W        W62695   7.753   1.737   4.707
98488W        W62696   0.846  30.107  11.486
98489W        W62697  40.912  20.750  13.460
98490W        W62698  29.474   6.719  11.394
98491W        W62699  37.392  12.341  10.583
98492W        W62700  11.674  17.295   5.095
98493W        W62701  35.479  26.650  14.796
98494W        W62702  31.556   3.802   3.840
98495W        W62703  35.415  16.752   2.707
98496W        W62704  26.570  42.378  14.815
98497W        W62705  35.522  31.048   3.193
98498W        W62706  10.835  32.594  11.380
98499W        W62707  31.900  32.906  14.979
98500W        W62708  31.924   3.740  14.374
98501W        W62709  10.855  10.142   0.816
98502W        W62710  26.139  15.164  10.562
98503W        W62711  23.179  19.588  11.483
98504W        W62712  21.553  23.117   1.755
98505W        W62713  29.600  13.699   0.752
98506W        W62714  23.123  26.155  12.873
98507W        W62715  21.159  36.457  12.896
98508W        W62716  28.154   0.876  14.310
98509W        W62717   8.795  19.721  11.008
98510W        W62718  20.636  26.107   1.860
98511W        W62719  24.499   1.467   2.386
98512W        W62720  33.585  39.895  10.909
98513W        W62721  26.460  18.720  13.381
98514W        W62722  17.062   1.871  14.862
98515W        W62723  32.476  25.573  14.001
98516W        W62724  14.178  17.102   2.786
98517W        W62725  40.012  40.899   3.680
98518W        W62726  18.579  32.064  14.828
98519W        W62727  21.569  16.641   1.307
98520W        W62728   4.852  42.295  11.402
98521W        W62729   4.378  26.631   2.781
98522W        W62730  13.751  23.715  12.033
98523W        W62731  29.099  15.680  13.002
98524W        W62732   4.802   2.290   2.192
98525W        W62733  17.098  42.810   0.301
98526W        W62734  16.297   4.779  13.029
98527W        W62735  33.491  25.616  13.029
98528W        W62736   1.402  38.412   4.706
98529W        W62737  22.578  24.094   5.271
98530W        W62738  41.531  38.934   3.154
98531W        W62739   1.265   9.366   4.218
98532W        W62740  15.325  24.159  11.501
98533W        W62741   9.392  30.130   0.250
98534W        W62742   0.465  38.475  12.027
98535W        W62743  13.146   1.954   3.334
98536W        W62744  11.772  17.279   2.258
98537W        W62745   7.317  28.445   4.154
98538W        W62746  22.030  44.961   0.760
98539W        W62747  32.071  13.740  13.032
98540W        W62748  25.073  39.430   3.667
98541W        W62749  28.592   3.308  13.806
98542W        W62750  39.843  13.254   1.836
98543W        W62751  33.409  32.585   0.413
98544W        W62752   6.720  30.164  14.949
98545W        W62753   0.351   5.418   2.798
98546W        W62754  11.362  39.895   2.901
98547W        W62755  39.385   2.344  13.912
98548W        W62756  43.505   9.234   2.805
98549W        W62757  33.547  40.449  14.919
98550W        W62758  13.256  28.520  11.951
98551W        W62759  30.056  21.198  13.870
98552W        W62760  28.945  26.468  14.451
98553W        W62761  24.583  23.606   3.770
98554W        W62762  41.973  42.339   0.420
98555W        W62763  14.664  34.498  10.481
98556W        W62764  24.083  30.571  12.339
98557W        W62765  34.902  30.441  14.413
98558W        W62766   8.213  34.404  13.026
98559W        W62767  24.187  21.098   2.851
98560W        W62768  14.701  35.886  12.832
98561W        W62769  15.588  44.412  14.003
98562W        W62770  20.100  22.603  11.394
98563W        W62771   7.289   0.940  14.293
98564W        W62772  37.529   8.796  12.523
98565W        W62773  44.916   3.426  11.023
98566W        W62774  44.393  10.876  11.379
98567W        W62775  27.065  38.913  11.128
98568W        W62776   2.467  15.705   4.185
98569W        W62777   0.780  17.251   5.259
98570W        W62778   2.797  10.860   0.252
98571W        W62779  23.731   9.171  14.282
98572W        W62780   9.779  33.083  11.445
98573W        W62781   0.925  23.659   1.291
98574W        W62782  39.940  44.269  10.594
98575W        W62783  34.510  21.202  12.530
98576W        W62784  26.986  32.984  11.463
98577W        W62785  37.436   4.758  13.503
98578W        W62786  43.281  11.718   0.832
98579W        W62787  29.521  38.426  12.435
98580W        W62788  18.192  28.646   2.414
98581W        W62789  30.131   1.382  13.518
98582W        W62790   4.314  29.530   2.723
98583W        W62791  31.082  16.711   3.726
98584W        W62792  40.458   4.905   1.305
98585W        W62793  12.150  29.517  12.444
98586W        W62794   8.243  33.121   0.908
98587W        W62795  22.533   1.887   4.291
98588W        W62796  39.010  24.056   1.758
98589W        W62797  42.929  23.502  12.837
98590W        W62798  42.986  26.641   2.301
98591W        W62799  43.882  15.269  14.908
98592W        W62800  14.795  25.596   0.385
98593W        W62801  24.548  34.543   4.227
98594W        W62802  14.604   0.769   0.736
98595W        W62803   6.419  17.743  10.531
98596W        W62804   4.249   5.929   0.364
98597W        W62805  11.313   9.215   3.812
98598W        W62806  37.001  25.128  13.798
98599W        W62807   6.870  14.190   3.846
98600W        W62808  30.627  44.468   1.764
98601W        W62809  35.882  32.481  13.901
98602W        W62810  27.985   9.212   4.306
98603W        W62811  40.016  42.955  13.911
98604W        W62812  10.825  41.336   4.336
98605W        W62813  20.133  14.666  12.401
98606W        W62814  42.807  18.589  10.449
98607W        W62815  39.844  29.484  11.943
98608W        W62816   1.462  20.718  14.904
98609W        W62817   7.692  43.507   1.402
98610W        W62818  44.366  13.735  11.859
98611W        W62819  36.567   7.748  14.808
98612W        W62820  16.217  32.129  12.571
98613W        W62821   8.230   7.870   1.934
98614W        W62822  26.558  29.977   4.788
98615W        W62823  42.015  19.073  11.508
98616W        W62824  42.393  17.601   1.750
98617W        W62825  29.618  21.216   1.783
98618W        W62826  28.553  25.107  13.947
98619W        W62827  18.782  21.107   1.703
98620W        W62828  12.184  26.025   4.309
98621W        W62829  19.187  12.253  13.800
98622W        W62830  42.776   1.267   2.702
98623W        W62831   8.390  16.623  13.895
98624W        W62832  12.692  33.528   9.950
98625W        W62833  21.262   8.260   2.761
98626W        W62834  12.837  12.234   1.252
98627W        W62835  31.456  41.352   3.313
98628W        W62836   4.852  26.146  14.921
98629W        W62837  20.752  19.655  11.903
98630W        W62838  35.371   8.307  11.085
98631W        W62839  11.280  24.974  11.934
98632W        W62840  16.600  38.850   1.448
98633W        W62841  37.395  19.645  13.538
98634W        W62842  18.705  25.031   1.373
98635W        W62843   8.224   7.894  13.503
98636W        W62844  40.548  44.322  12.494
98637W        W62845  26.999   2.893  11.892
98638W        W62846  39.409  12.793  12.034
98639W        W62847  44.872  13.105  13.910
98640W        W62848  26.111  37.509   1.701
98641W        W62849  11.179   4.433   4.113
98642W        W62850  37.965  43.844   0.885
98643W        W62851  13.754   1.325  11.094
98644W        W62852   4.305   8.303  14.866
98645W        W62853  26.643  25.505   2.345
98646W        W62854  11.227   8.716   4.222
98647W        W62855  36.870  41.383  11.565
98648W        W62856   2.874  13.302  13.353
98649W        W62857  31.904  21.061   4.627
98650W        W62858   2.406  19.754  10.085
98651W        W62859   2.388  41.885   4.675
98652W        W62860   4.831  35.594  11.591
98653W        W62861  32.017  21.080  12.069
98654W        W62862  33.494  29.939   1.325
98655W        W62863  33.619  34.550  13.375
98656W        W62864  34.894  11.345   3.305
98657W        W62865  26.961  28.037   2.241
98658W        W62866  19.230  25.490   0.482
98659W        W62867  17.156   8.831  14.815
98660W        W62868  43.988  17.784  13.453
98661W        W62869  29.173  14.129  14.990
98662W        W62870  19.148  32.097   2.269
98663W        W62871  43.944   9.781   4.175
98664W        W62872  37.062  23.019   0.337
98665W        W62873   3.891  32.417   4.681
98666W        W62874  17.712  44.979  10.459
98667W        W62875  18.289   4.283   4.659
98668W        W62876  38.422  20.123   0.349
98669W        W62877   5.817  19.146   4.779
98670W        W62878  25.218   8.656  10.609
98671W        W62879  10.240  39.384   0.355
98672W        W62880  34.515  31.105   2.327
98673W        W62881  14.746  20.610   2.792
98674W        W62882   0.795  27.150   1.840
98675W        W62883  39.531  44.325   2.212
98676W        W62884   0.248  42.524  14.476
98677W        W62885  15.298  33.515   3.237
98678W        W62886  24.205  30.427   4.744
98679W        W62887  15.124  14.313   4.710
98680W        W62888  16.777   6.813   1.310
98681W        W62889  32.409  23.126   4.238
98682W        W62890  31.132  25.073  12.576
98683W        W62891  43.841  24.590  10.900
98684W        W62892  15.281  11.799   2.206
98685W        W62893  33.525  20.141  12.429
98686W        W62894  16.576  19.207   4.745
98687W        W62895  36.373  27.057   2.378
98688W        W62896  37.045  36.000  14.819
98689W        W62897   3.448  23.058   2.695
98690W        W62898   0.924   8.334   2.388
98691W        W62899  33.051   9.774   4.757
98692W        W62900  13.177  22.175  10.542
98693W        W62901  21.083  14.734  14.413
98694W        W62902  36.929  16.671  12.870
98695W        W62903  25.119  38.980   5.235
98696W        W62904   0.344  14.661   2.395
98697W        W62905  39.053   1.389  11.986
98698W        W62906  42.806   6.889   3.297
98699W        W62907  31.411   2.289  13.371
98700W        W62908  11.256  43.295  10.575
98701W        W62909  42.836   1.955  12.440
98702W        W62910  24.203  12.807  10.539
98703W        W62911  39.917  19.754   3.312
98704W        W62912   6.922  18.600  12.499
98705W        W62913   8.199  21.240  12.496
98706W        W62914  35.572   7.407   0.825
98707W        W62915   4.260   7.801   0.889
98708W        W62916  32.960   5.234   2.400
98709W        W62917  17.231  39.936   0.402
98710W        W62918  40.055  15.661  11.974
98711W        W62919  14.135  41.461   0.766
98712W        W62920  27.555  18.265   4.237
98713W        W62921   2.345  44.440   1.769
98714W        W62922  43.423  17.709   3.704
98715W        W62923  14.654   5.894   0.790
98716W        W62924   9.876   0.393   3.269
98717W        W62925  19.284  39.048   2.222
98718W        W62926  36.445  41.891  12.884
98719W        W62927  14.659  10.361   0.463
98720W        W62928  26.998  32.065  13.452
98721W        W62929  16.142  37.354   1.338
98722W        W62930  41.925  21.511   4.613
98723W        W62931  27.962  44.766   0.343
98724W        W62932  13.712  33.075  14.879
98725W        W62933  27.679   2.904   0.900
98726W        W62934  44.888  39.019  10.118
98727W        W62935  14.651  21.653  13.441
98728W        W62936  14.663  13.157  14.946
98729W        W62937  18.243  37.432  11.423
98730W        W62938  20.737  12.132   4.287
98731W        W62939   9.862  39.015  10.977
98732W        W62940  12.237  20.592  14.994
98733W        W62941  31.980  31.015   1.845
98734W        W62942   4.407  18.284   0.850
98735W        W62943  18.101  41.883   2.790
98736W        W62944  30.139  15.109  14.294
98737W        W62945   2.342  21.725   0.815
98738W        W62946  37.576   8.262  11.861
98739W        W62947  27.043  16.746   1.269
98740W        W62948  26.953  20.540   0.259
98741W        W62949   8.200  19.199  13.420
98742W        W62950   6.846   6.911  14.443
98743W        W62951   7.211  35.083  14.837
98744W        W62952  37.087  14.104   3.650
98745W        W62953   4.816   3.818  11.403
98746W        W62954   8.884  24.479   1.929
98747W        W62955  41.989  31.950  11.423
98748W        W62956  25.621   4.246   0.425
98749W        W62957   3.939   8.236  14.488
98750W        W62958  24.643   4.302   2.299
98751W        W62959  18.548  44.325  12.573
98752W        W62960  20.180  21.714  13.960
98753W        W62961  18.247  10.721   1.311
98754W        W62962   3.867  43.510  14.395
98755W        W62963  29.013  39.905  14.992
98756W        W62964  33.560  30.921   4.153
98757W        W62965  14.218   6.189   4.120
98758W        W62966  14.778  16.252   3.746
98759W        W62967  15.783  19.732   3.265
98760W        W62968  42.853  42.840  11.446
98761W        W62969  19.162  41.514   1.778
98762W        W62970  23.009   3.953   3.642
98763W        W62971   4.206  23.647  10.442
98764W        W62972   0.972  20.745  10.915
98765W        W62973  14.277  11.642   1.830
98766W        W62974  26.508  17.231   1.792
98767W        W62975  20.673  10.773  12.897
98768W        W62976  26.196  29.154   1.319
98769W        W62977  35.901  19.161  14.770
98770W        W62978  26.602  33.457   1.219
98771W        W62979  19.643  24.026   4.349
98772W        W62980  19.157  36.411   1.698
98773W        W62981  14.777  21.032  10.156
98774W        W62982  39.834  43.768  14.898
98775W        W62983  39.346  22.695   3.381
98776W        W62984  38.422  37.927   4.117
98777W        W62985  19.039  11.284  12.079
98778W        W62986  31.925  28.507   0.907
98779W        W62987  31.498  18.786   3.870
98780W        W62988  18.613  23.190  13.315
98781W        W62989  13.247  36.501  13.000
98782W        W62990  36.034  36.979  10.998
98783W        W62991  18.602  32.570   0.384
98784W        W62992  16.777  10.327   3.701
98785W        W62993  40.436   6.384  13.052
98786W        W62994   7.749  38.561  10.558
98787W        W62995  42.878  37.452  13.465
98788W        W62996  36.484   9.699   3.822
98789W        W62997  19.172  32.922   4.821
98790W        W62998   0.873  42.316   1.308
98791W        W62999  34.004  29.648   0.891
98792W        W63000   3.947  35.023   5.163
98793W        W63001  43.878   5.206  10.580
98794W        W63002  32.456   5.322   2.207
98795W        W63003   3.785   6.204   0.813
98796W        W63004  24.168  29.479   3.655
98797W        W63005   1.917  17.620   4.323
98798W        W63006  40.483  14.269   3.281
98799W        W63007  39.554  16.283  13.942
98800W        W63008  24.656  13.671   3.739
98801W        W63009  43.418  42.850  12.987
98802W        W63010  28.175   2.404  13.056
98803W        W63011  17.286   2.419   1.865
98804W        W63012  40.903  33.999   1.851
98805W        W63013   0.751   4.208  13.052
98806W        W63014  42.400  21.663  11.598
98807W        W63015  11.272  39.899  13.799
98808W        W63016  26.468  33.076  12.969
98809W        W63017   4.246   8.399  11.118
98810W        W63018  15.645  34.546  14.023
98811W        W63019  33.434   3.712  13.825
98812W        W63020   5.418   3.353  13.009
98813W        W63021  31.967  13.736  13.329
98814W        W63022  27.464  37.886  12.975
98815W        W63023  17.636  30.072  10.479
98816W        W63024  29.597  18.090   0.823
98817W        W63025  13.801  39.510   1.235
98818W        W63026  17.625  35.429  13.904
98819W        W63027  26.063  32.560   3.174
98820W        W63028   7.763  22.057   4.732
98821W        W63029  17.275  21.197   2.808
98822W        W63030  33.488  11.794  13.378
98823W        W63031   1.399  17.218   2.245
98824W        W63032  22.554   6.744   2.720
98825W        W63033  17.306  19.206   1.933
98826W        W63034  22.589  44.001  14.950
98827W        W63035   6.743  20.655  11.919
98828W        W63036  30.972  42.014   4.732
98829W        W63037  36.925  24.228  14.008
98830W        W63038  42.811   0.424   3.774
98831W        W63039   6.342  35.528   4.810
98832W        W63040   1.411   6.855   4.729
98833W        W63041  12.148  30.552   4.660
98834W        W63042  37.872   1.958  14.430
98835W        W63043  23.114  40.042  14.438
98836W        W63044  31.960  16.725   9.975
98837W        W63045  20.539  44.497  10.426
98838W        W63046   1.862  17.212   2.201
98839W        W63047  31.467  15.298   0.389
98840W        W63048  33.580   8.805  12.867
98841W        W63049   7.807  40.900  11.099
98842W        W63050  27.504  14.184   1.326
98843W        W63051  33.561  38.560  11.091
98844W        W63052  20.239  31.923  13.376
98845W        W63053  25.106  31.006   5.156
98846W        W63054   5.817  38.015   4.162
98847W        W63055  39.338  26.632   1.858
98848W        W63056  33.395  40.881   1.871
98849W        W63057  31.934  35.578  11.079
98850W        W63058  36.049   4.723  14.772
98851W        W63059   7.874  39.891   2.855
98852W        W63060  21.137   9.215   0.941
98853W        W63061   8.341  40.362  12.561
98854W        W63062   1.890  29.168   3.850
98855W        W63063   8.753  20.263  11.407
98856W        W63064   4.911  43.948   2.684
98857W        W63065   4.749  25.133   1.854
98858W        W63066  18.057  34.505  11.917
98859W        W63067   2.284  18.181  13.817
98860W        W63068  20.690  38.369  10.615
98861W        W63069  11.227   9.313  13.856
98862W        W63070   5.747  20.081   1.411
98863W        W63071  42.396  12.324  12.519
98864W        W63072  23.071  26.693  14.400
98865W        W63073  10.226   9.263   1.297
98866W        W63074  37.057  16.672   3.174
98867W        W63075  12.321  31.512   0.889
98868W        W63076  18.577  13.330   0.480
98869W        W63077  35.078  35.910   1.362
98870W        W63078  30.440  15.115  12.454
98871W        W63079   4.908  21.146   9.953
98872W        W63080   9.241  12.334  14.356
98873W        W63081  34.426   9.668   0.953
98874W        W63082  37.039  42.287  12.482
98875W        W63083  12.359  32.513  10.497
98876W        W63084  26.951  42.806  10.486
98877W        W63085   3.904   5.426   3.297
98878W        W63086  26.693   0.251   2.397
98879W        W63087   8.694  36.918  13.466
98880W        W63088   3.735   2.301   0.270
98881W        W63089  11.291  40.815   0.461
98882W        W63090  15.645  35.076   4.750
98883W        W63091  10.841  32.120  12.417
98884W        W63092   3.226  18.637   2.864
98885W        W63093   9.652  15.779   1.288
98886W        W63094  26.086  40.357  11.556
98887W        W63095  24.540  42.319  13.886
98888W        W63096   8.398   4.341  11.908
98889W        W63097  41.352  11.256   0.435
98890W        W63098  24.170  28.526   4.189
98891W        W63099  28.469  18.619   2.182
98892W        W63100  33.121  13.104   2.773
98893W        W63101  35.046  26.627  13.954
98894W        W63102  11.335  15.815  14.480
98895W        W63103  13.143  39.039  12.459
98896W        W63104  30.441  20.151  13.982
98897W        W63105  19.777   1.785   0.734
98898W        W63106  31.633   4.841  14.414
98899W        W63107  43.402   3.948  12.359
98900W        W63108  16.212  32.456  10.595
98901W        W63109  22.537  33.938   0.843
98902W        W63110   7.781   9.313   1.333
98903W        W63111  33.554   2.728   1.790
98904W        W63112  36.359  29.509  11.381
98905W        W63113   0.414   3.809  14.286
98906W        W63114  16.690  19.144   3.746
98907W        W63115  10.162  34.059   0.937
98908W        W63116  35.530  32.124  12.926
98909W        W63117  35.529   6.835   2.199
98910W        W63118   6.182   9.715  14.344
98911W        W63119  44.823  15.692  10.905
98912W        W63120  15.294  15.626   4.308
98913W        W63121  38.545  42.868  11.501
98914W        W63122  18.611  36.359   1.743
98915W        W63123   5.429  37.911   1.351
98916W        W63124   0.911  35.964   3.723
98917W        W63125  16.594   3.924   0.376
98918W        W63126  41.476  28.019   3.195
98919W        W63127   5.255   5.842   2.837
98920W        W63128  35.480  39.808   3.369
98921W        W63129  21.601  33.460   3.254
98922W        W63130   5.333   7.175  14.987
98923W        W63131   5.827  10.178  11.038
98924W        W63132  11.810  25.688   2.738
98925W        W63133  33.423   9.814  12.087
98926W        W63134   3.384  43.995  10.629
98927W        W63135  27.488  44.421   1.393
98928W        W63136  31.419   6.883  11.481
98929W        W63137  38.373   8.792   1.359
98930W        W63138  42.957  21.020   0.423
98931W        W63139  23.128   7.856   2.824
98932W        W63140  37.919  19.562   1.302
98933W        W63141  11.786  25.070   3.771
98934W        W63142  38.382  21.637   1.276
98935W        W63143  43.949  42.291  14.402
98936W        W63144  23.537  11.202  13.484
98937W        W63145  40.898   4.712   2.902
98938W        W63146  29.121  14.720  14.309
98939W        W63147  43.319  22.077   3.737
98940W        W63148  35.954  18.719  12.529
98941W        W63149  41.913  12.283   1.428
98942W        W63150  42.799  43.971  12.345
98943W        W63151  43.470  16.099   1.220
98944W        W63152  33.593  27.496   3.717
98945W        W63153  40.383   2.238   2.237
98946W        W63154  16.599  40.314   2.244
98947W        W63155  15.273  32.481   0.841
98948W        W63156  34.598  11.839   3.643
98949W        W63157  26.179   7.676  14.845
98950W        W63158   8.171  12.341  12.511
98951W        W63159  35.995  21.713  11.606
98952W        W63160  35.507  13.220   4.676
98953W        W63161  10.169  10.296  10.554
98954W        W63162   9.182  25.070  10.460
98955W        W63163  36.370  29.526  11.105
98956W        W63164   4.768  36.467   0.773
98957W        W63165  17.159  12.119   1.751
98958W        W63166   3.315   4.336  10.128
98959W        W63167  23.051  37.900  14.966
98960W        W63168  28.184  16.609   1.359
98961W        W63169  30.142   0.322   2.880
98962W        W63170  22.711  44.913  13.043
98963W        W63171  14.749  43.356   2.796
98964W        W63172   8.764  30.449   2.680
98965W        W63173   8.662  28.533   0.341
98966W        W63174   8.262  28.497   2.355
98967W        W63175  41.966  21.537   1.698
98968W        W63176  29.470  36.090   2.393
98969W        W63177   0.456  10.771   0.737
98970W        W63178  17.677  10.874   2.867
98971W        W63179   4.305  18.643  11.490
98972W        W63180  37.887   8.385  12.473
98973W        W63181  20.211  32.966   3.293
98974W        W63182  25.211  37.357  11.930
98975W        W63183  25.139  36.590   1.246
98976W        W63184  27.025   2.307   1.334
98977W        W63185   3.270  44.754  10.471
98978W        W63186  11.679   5.346  13.927
98979W        W63187  43.855  39.013  11.484
98980W        W63188  40.419   6.386  10.129
98981W        W63189   9.350   2.438  12.450
98982W        W63190  41.038  29.551  13.052
98983W        W63191  39.350   8.762   4.810
98984W        W63192  41.874  35.994  14.885
98985W        W63193  15.287  39.462  13.878
98986W        W63194  34.560  43.833   4.244
98987W        W63195  22.561  21.737  11.512
98988W        W63196  20.067  16.295   4.787
98989W        W63197   9.152  36.502  13.893
98990W        W63198  26.536  22.514  12.539
98991W        W63199   5.794   9.206  12.564
98992W        W63200  19.585   5.400  12.841
98993W        W63201  40.475  39.557  11.994
98994W        W63202  23.690  15.797   4.768
98995W        W63203  19.094  30.576  10.524
98996W        W63204  36.508   0.335  14.420
98997W        W63205  13.660   6.722   3.255
98998W        W63206  24.533   2.795  10.578
98999W        W63207  36.977  39.878  11.859
99000W        W63208   9.223   1.384  10.974
99001W        W63209  23.595  19.140   4.661
99002W        W63210  13.632  36.483  10.530
99003W        W63211  20.078  15.147  14.016
99004W        W63212  18.059  21.738  11.453
99005W        W63213  20.712  28.583  13.958
99006W        W63214  19.157   9.760  14.363
99007W        W63215   4.732  12.684  14.806
99008W        W63216  28.648  10.261  11.440
99009W        W63217  38.929  22.587   2.778
99010W        W63218  27.029  13.249   1.806
99011W        W63219  44.452  27.104   2.808
99012W        W63220  19.262   8.670   4.124
99013W        W63221   1.823  24.031   2.662
99014W        W63222  23.188  16.096  12.080
99015W        W63223  10.224  10.694   4.303
99016W        W63224  43.975  36.993  13.793
99017W        W63225   3.869  42.013  12.414
99018W        W63226  28.082   3.924   3.866
99019W        W63227  26.996  36.026  10.929
99020W        W63228  39.471  36.472  11.446
99021W        W63229  36.480   3.743  10.970
99022W        W63230  34.962  41.963  10.404
99023W        W63231  18.288  20.202  12.032
99024W        W63232  26.056  14.772   4.688
99025W        W63233  24.676   5.918  12.979
99026W        W63234  21.755  42.356  13.395
99027W        W63235  14.323  11.347   2.211
99028W        W63236   6.842  33.920   0.728
99029W        W63237  30.031   0.900   0.917
99030W        W63238   7.197  23.692   1.821
99031W        W63239  20.746   5.904  13.369
99032W        W63240   6.289  35.561  14.004
99033W        W63241  12.849  16.308   4.299
99034W        W63242  36.028  38.837   3.168
99035W        W63243  34.432  35.364   3.765
99036W        W63244  42.909  32.139  10.042
99037W        W63245  22.657  10.682  12.993
99038W        W63246  21.248  42.826   0.852
99039W        W63247  35.467   1.389   2.821
99040W        W63248  12.738  36.584  11.612
99041W        W63249  36.526  12.777  13.495
99042W        W63250  34.972  43.401  11.608
99043W        W63251  21.079  14.167   1.896
99044W        W63252   8.339  29.442   1.320
99045W        W63253  14.623  34.074  12.891
99046W        W63254   4.772  32.536  12.428
99047W        W63255  15.183  43.301  10.604
99048W        W63256  18.705  36.495  13.904
99049W        W63257  10.375  13.741   3.636
99050W        W63258  16.716  41.318   2.861
99051W        W63259  14.143  22.540   3.263
99052W        W63260   8.383  11.692  13.527
99053W        W63261  19.583  31.043  12.891
99054W        W63262  13.797  10.733   3.648
99055W        W63263  24.188   2.233   0.793
99056W        W63264  25.043  14.619  10.559
99057W        W63265  14.601  14.696   1.413
99058W        W63266  37.087  31.107   4.609
99059W        W63267  11.721  27.178  11.883
99060W        W63268  33.034  23.560   4.786
99061W        W63269  13.264  21.543   4.115
99062W        W63270  11.228  18.279  13.026
99063W        W63271  13.698  18.089  12.467
99064W        W63272  33.457  32.978   4.650
99065W        W63273   3.801  23.168   3.659
99066W        W63274  24.670  32.621   2.892
99067W        W63275  35.379  34.391  14.978
99068W        W63276  42.415  20.070   5.110
99069W        W63277   1.901  29.000  12.023
99070W        W63278   0.424   2.834  11.524
99071W        W63279  27.610  44.442  10.581
99072W        W63280  16.115  33.552  10.957
99073W        W63281  24.109   2.956   1.225
99074W        W63282  32.038  24.537   4.834
99075W        W63283  21.750  23.725  14.962
99076W        W63284  37.558  15.731   4.259
99077W        W63285  34.441  42.918   4.200
99078W        W63286  28.613  36.095  13.454
99079W        W63287  31.021  44.999  14.997
99080W        W63288  12.684  34.966  13.890
99081W        W63289  20.065  10.262  12.882
99082W        W63290   3.411  33.042  10.589
99083W        W63291  11.796  32.515   4.628
99084W        W63292  28.074   3.800   1.750
99085W        W63293  26.145   0.260  14.858
99086W        W63294  13.689  40.385  12.928
99087W        W63295   7.683   8.872   9.987
99088W        W63296  32.931  34.447  10.914
99089W        W63297  26.193  41.532  13.325
99090W        W63298   8.703  29.992  11.916
99091W        W63299  21.630   3.376  11.944
99092W        W63300  33.107  10.372  14.904
99093W        W63301   6.885  44.306  12.882
99094W        W63302  42.998  42.824  13.837
99095W        W63303  43.894  22.684  12.067
99096W        W63304  25.065  10.263   0.772
99097W        W63305  21.748  11.157   3.205
99098W        W63306  42.956  40.857   4.813
99099W        W63307  30.444  12.669  12.994
99100W        W63308  18.746  21.262   9.930
99101W        W63309   2.929  44.505   4.736
99102W        W63310  31.014  21.250   3.358
99103W        W63311   5.269   3.284   4.347
99104W        W63312  15.288  38.998  14.451
99105W        W63313  39.491  17.585  12.031
99106W        W63314  38.405  44.835   4.353
99107W        W63315  34.562  41.973   2.386
99108W        W63316   9.884  10.747   3.709
99109W        W63317  12.716  30.464   0.755
99110W        W63318  24.029  19.753   1.887
99111W        W63319   9.875  17.161   1.419
99112W        W63320  11.316  29.643   0.412
99113W        W63321  19.226  26.989   4.168
99114W        W63322  33.575   7.202  14.808
99115W        W63323  28.114  39.495  11.414
99116W        W63324  11.253  29.523   4.150
99117W        W63325  41.511   4.339  12.035
99118W        W63326  34.073  43.887  11.018
99119W        W63327  42.858  14.118   4.290
99120W        W63328  36.974  19.619   4.736
99121W        W63329  42.887  15.706  13.944
99122W        W63330  30.608  43.287   2.342
99123W        W63331  38.482   8.310   1.927
99124W        W63332   9.225   4.766   1.748
99125W        W63333   8.873  12.219   3.206
99126W        W63334  34.973  38.841  12.938
99127W        W63335  36.562  20.562   0.330
99128W        W63336   8.170   6.396   2.665
99129W        W63337  10.859  42.825  13.828
99130W        W63338  32.025  38.833  11.124
99131W        W63339  23.618  44.875  13.430
99132W        W63340  22.238  41.499  14.857
99133W        W63341  21.711  21.193   0.340
99134W        W63342   9.674  22.504   2.716
99135W        W63343  21.527   2.839   3.771
99136W        W63344  35.888  31.561   3.780
99137W        W63345  23.692  22.641  13.003
99138W        W63346  32.532  29.649   1.751
99139W        W63347  32.998  28.564  11.380
99140W        W63348  41.362  22.575   3.323
99141W        W63349  13.286  26.595  11.426
99142W        W63350  18.552  31.602   1.223
99143W        W63351  39.812   1.910  14.494
99144W        W63352   8.692  28.986  10.045
99145W        W63353  23.540  17.676  14.777
99146W        W63354  27.019  26.083   1.770
99147W        W63355  41.356  36.867   1.433
99148W        W63356  11.266   0.333  10.924
99149W        W63357  39.007  14.331   4.727
99150W        W63358  40.346  12.347   4.750
99151W        W63359  27.687   8.307   2.772
99152W        W63360  29.018  37.352   2.687
99153W        W63361  25.556  19.657  11.043
99154W        W63362  21.691  32.021   4.622
99155W        W63363  42.331  37.399   9.993
99156W        W63364  30.573  30.137   1.355
99157W        W63365  23.002   4.795  14.449
99158W        W63366  40.975   7.248   1.393
99159W        W63367  13.163   5.820   2.416
99160W        W63368  17.722  15.228  10.637
99161W        W63369  40.523  32.506  14.895
99162W        W63370  40.984  28.099  12.939
99163W        W63371   2.830  28.164   1.870
99164W        W63372  13.119  13.699   5.117
99165W        W63373   6.897  33.950  10.407
99166W        W63374   5.843  44.450   2.733
99167W        W63375   3.732  40.944   0.418
99168W        W63376   0.764   6.363  13.850
99169W        W63377  39.316  22.105  14.322
99170W        W63378  27.690  38.337  12.858
99171W        W63379  33.106  17.203  12.006
99172W        W63380  34.524  16.251   0.389
99173W        W63381  18.573  25.599  10.539
99174W        W63382  38.481  41.044   2.404
99175W        W63383   4.816  17.755  13.971
99176W        W63384  15.222   0.760  14.904
99177W        W63385  30.032   6.379   0.449
99178W        W63386  23.582  12.828  11.010
99179W        W63387  19.694  41.853   3.196
99180W        W63388  27.497  34.590   1.291
99181W        W63389  30.967  14.282  14.862
99182W        W63390  19.117  39.317   1.706
99183W        W63391  25.597   7.205  11.084
99184W        W63392  23.199  43.987   4.272
99185W        W63393  36.046  31.960  13.861
99186W        W63394  32.532  35.912  12.382
99187W        W63395  13.281  43.923  10.958
99188W        W63396   8.314  40.336   1.770
99189W        W63397  17.624  16.271   1.797
99190W        W63398  10.695  11.228   4.274
99191W        W63399  42.491  19.176   4.801
99192W        W63400  16.220  14.718  11.903
99193W        W63401   9.353  13.814  12.452
99194W        W63402  15.308  25.024  13.492
99195W        W63403  16.789  22.060   3.759
99196W        W63404   7.274  27.031  10.477
99197W        W63405  38.471  23.186  11.548
99198W        W63406  20.261  22.156   1.728
99199W        W63407   9.692  12.749  14.859
99200W        W63408  15.142   3.383  10.521
99201W        W63409   7.236   8.261  14.352
99202W        W63410  12.351   7.306   3.249
99203W        W63411   3.843   9.790   2.354
99204W        W63412  20.241  44.427  11.571
99205W        W63413  27.158  21.047   9.929
99206W        W63414  25.169  34.485  12.502
99207W        W63415  18.634  30.152   1.330
99208W        W63416  13.769  26.024  12.413
99209W        W63417   3.244  27.050  13.042
99210W        W63418  41.419   2.238  13.363
99211W        W63419  37.894  16.719  10.557
99212W        W63420  37.929   2.952   1.769
99213W        W63421  16.724  25.072  14.830
99214W        W63422  20.114   2.447  13.856
99215W        W63423   4.784   4.832   2.368
99216W        W63424  40.371  41.387   2.754
99217W        W63425  30.639   6.835  13.872
99218W        W63426   2.922  28.099  13.805
99219W        W63427  12.255  35.548  11.418
99220W        W63428   6.323  24.580   1.788
99221W        W63429  40.476  25.094   3.195
99222W        W63430   6.868   5.334   2.347
99223W        W63431  24.046  11.737   2.701
99224W        W63432  13.214  44.319  10.492
99225W        W63433  42.001  24.697   3.194
99226W        W63434  17.177  26.698   4.274
99227W        W63435   1.444  32.566   3.810
99228W        W63436  30.590  19.679   0.304
99229W        W63437  38.549   6.293  12.430
99230W        W63438   5.387  38.902   2.770
99231W        W63439   0.355  13.178  11.552
99232W        W63440  27.089  17.626  10.459
99233W        W63441  44.765  31.919  11.976
99234W        W63442  44.460  11.834  10.424
99235W        W63443   0.838  30.591   0.285
99236W        W63444   3.257  24.029  11.887
99237W        W63445  16.808  34.901  14.010
99238W        W63446  12.667  32.067  14.326
99239W        W63447  29.936  20.247  10.943
99240W        W63448  29.577  25.135   0.351
99241W        W63449   7.769   7.416  13.816
99242W        W63450  27.999  13.114  13.851
99243W        W63451  38.418   6.358   2.399
99244W        W63452  27.612  40.341   2.790
99245W        W63453  16.791  31.086  12.356
99246W        W63454  12.816   2.906  11.375
99247W        W63455   7.317  29.065   1.791
99248W        W63456  10.355  14.717   4.169
99249W        W63457   2.430  22.149  14.825
99250W        W63458  42.367   7.717   4.839
99251W        W63459  26.008   6.317  13.400
99252W        W63460  41.449  15.157   3.847
99253W        W63461  34.561  12.210  12.544
99254W        W63462  28.580  13.314   4.606
99255W        W63463  23.491  29.153   1.242
99256W        W63464   3.354  19.172   4.664
99257W        W63465  35.946  21.620  14.359
99258W        W63466   0.795  25.623  10.606
99259W        W63467  13.254  31.407   3.786
99260W        W63468  43.846  19.588  11.384
99261W        W63469   5.438  24.044  11.965
99262W        W63470  11.772  22.627  14.962
99263W        W63471  34.559  26.109  11.407
99264W        W63472  38.380  40.343   3.850
99265W        W63473  24.159  23.566   4.229
99266W        W63474  33.959  16.075   0.959
99267W        W63475   8.772  22.565  13.330
99268W        W63476  18.704   2.374   1.384
99269W        W63477  12.160  31.036  11.870
99270W        W63478  39.048   4.264   1.261
99271W        W63479  17.171   4.443  14.470
99272W        W63480   3.837   0.478  11.548
99273W        W63481  35.968  19.765   1.783
99274W        W63482  30.160  14.222   4.240
99275W        W63483  41.906  41.534  12.002
99276W        W63484  18.200  17.245  12.358
99277W        W63485  24.568  10.358  11.929
99278W        W63486  21.125  36.046   3.789
99279W        W63487  18.577  11.786   4.808
99280W        W63488  29.490  39.401   4.292
99281W        W63489   5.709   0.418  11.487
99282W        W63490  20.530  43.831  11.495
99283W        W63491  31.019  14.133   0.362
99284W        W63492   7.377  39.950  10.493
99285W        W63493  16.303   5.744  11.929
99286W        W63494  35.400  22.601   1.324
99287W        W63495   5.826   0.902   0.333
99288W        W63496  33.109  30.429   0.875
99289W        W63497  30.144  34.429   0.848
99290W        W63498  42.901  18.763  13.802
99291W        W63499  30.930  31.060   0.291
99292W        W63500   0.483  34.103   1.276
99293W        W63501  41.881  20.255  14.851
99294W        W63502  11.197  22.191  11.534
99295W        W63503  39.383   2.458  11.981
99296W        W63504  21.262  27.455   3.758
99297W        W63505  19.106   7.831   1.779
99298W        W63506  16.268  41.516  12.022
99299W        W63507  38.993  26.577  14.302
99300W        W63508  11.820  21.695  12.486
99301W        W63509   6.721  18.125   3.745
99302W        W63510  43.938  18.209  14.026
99303W        W63511  24.560   8.871  14.024
99304W        W63512  21.646  40.041  11.468
99305W        W63513   1.447  32.952   3.642
99306W        W63514   7.265   6.189   2.342
99307W        W63515   5.407  28.600  11.065
99308W        W63516  36.453   5.890  13.388
99309W        W63517  24.083  33.881   4.163
99310W        W63518  22.642  26.047   2.265
99311W        W63519  29.929   5.269  13.400
99312W        W63520  16.243  23.051   3.250
99313W        W63521  18.737  24.176  14.904
99314W        W63522  39.489  23.553  12.413
99315W        W63523  36.394  18.559   2.293
99316W        W63524  32.496  31.111   0.950
99317W        W63525  39.395  31.498  11.494
99318W        W63526  43.945  32.113   0.257
99319W        W63527  43.405  23.611   5.132
99320W        W63528  27.172  24.127   0.728
99321W        W63529  42.353  17.119   3.340
99322W        W63530   2.925   4.232  12.894
99323W        W63531  30.635  13.678   4.636
99324W        W63532  13.205  29.172   0.399
99325W        W63533  34.937   6.184   4.720
99326W        W63534  42.791  34.037  11.514
99327W        W63535  11.696  39.316  11.433
99328W        W63536  39.424  28.077   3.646
99329W        W63537  11.837  26.503  12.924
99330W        W63538  12.196   8.706   2.382
99331W        W63539   7.714  35.916  10.550
99332W        W63540  36.392  22.190  12.860
99333W        W63541  16.621  18.056  13.040
99334W        W63542  10.634  26.058   4.317
99335W        W63543   1.350  14.605   4.178
99336W        W63544   7.898  11.281   3.372
99337W        W63545  43.800   3.956  14.473
99338W        W63546   0.316  31.423  14.346
99339W        W63547   2.362  13.310  14.299
99340W        W63548   9.759   8.189  11.527
99341W        W63549  40.848   5.734  14.292
99342W        W63550  12.285  11.664  12.883
99343W        W63551  22.032  40.842  14.002
99344W        W63552   6.423  16.717  14.287
99345W        W63553  40.894  19.143  13.385
99346W        W63554  38.408  20.119  14.921
99347W        W63555   1.398  23.520   4.133
99348W        W63556  17.775  38.062   0.377
99349W        W63557  26.508   2.836  11.605
99350W        W63558  20.675  37.514   1.365
99351W        W63559  28.566  27.561   2.823
99352W        W63560  19.691  25.489   1.724
99353W        W63561  17.161  31.570   0.860
99354W        W63562  27.193  40.435   2.836
99355W        W63563   5.346  24.668  13.469
99356W        W63564   7.205   7.776   2.795
99357W        W63565  18.278  37.504   0.768
99358W        W63566  35.094  13.723  12.412
99359W        W63567  18.699  25.677  14.770
99360W        W63568   8.864  11.221  13.061
99361W        W63569  38.560  28.547  12.490
99362W        W63570  23.500  41.848   1.341
99363W        W63571  42.873   5.303   0.409
99364W        W63572   7.823  21.716  11.089
99365W        W63573  24.098  11.822   4.701
99366W        W63574  11.343  15.674  11.582
99367W        W63575  11.347  16.652  12.554
99368W        W63576  12.153   0.925  13.349
99369W        W63577  31.406  30.098  12.929
99370W        W63578   8.327   7.346  12.083
99371W        W63579  27.488   5.688  10.546
99372W        W63580  29.023   2.300  10.617
99373W        W63581  22.012  13.302  10.427
99374W        W63582  41.445  39.528  11.381
99375W        W63583  31.481  14.283   4.819
99376W        W63584  33.425   7.176   4.778
99377W        W63585  32.995  12.735   4.712
99378W        W63586  32.561  13.741  12.848
99379W        W63587  25.007  21.198   1.741
99380W        W63588  24.711   1.814  12.547
99381W        W63589  28.167  25.118  13.446
99382W        W63590   1.810  33.569  13.337
99383W        W63591   4.316   8.258  12.422
99384W        W63592  30.161  44.315   0.906
99385W        W63593  10.369  16.200   0.472
99386W        W63594   6.302  33.614   1.432
99387W        W63595  24.656   1.396   3.701
99388W        W63596   6.182   3.761   0.961
99389W        W63597  24.589  31.030   1.742
99390W        W63598  25.661  24.055   2.251
99391W        W63599  33.917  22.702  11.952
99392W        W63600  29.145  21.083   2.221
99393W        W63601  34.079  33.590   1.226
99394W        W63602  32.556  39.377   0.406
99395W        W63603   8.768  31.990   2.708
99396W        W63604   1.811  24.198   1.235
99397W        W63605  27.612  40.029  14.986
99398W        W63606  30.646  12.855   4.236
99399W        W63607  39.414  32.403   3.227
99400W        W63608  39.915  32.910   2.896
99401W        W63609  22.512   4.708  14.514
99402W        W63610  33.428  39.856   4.705
99403W        W63611  12.297  23.493   3.211
99404W        W63612  37.832  26.627   4.825
99405W        W63613  43.875  35.381  13.494
99406W        W63614  12.676   3.377   4.791
99407W        W63615  21.242  25.190   4.707
99408W        W63616  44.296  35.461  11.580
99409W        W63617   4.820  16.575  10.961
99410W        W63618   3.266   0.449  12.830
99411W        W63619   2.281  20.563  13.332
99412W        W63620   8.267  19.088   3.154
99413W        W63621  31.632  33.452   1.824
99414W        W63622   3.288   8.240  12.928
99415W        W63623  17.157  17.139  10.565
99416W        W63624  22.202  15.756   1.792
99417W        W63625   1.289  29.035  11.544
99418W        W63626  42.993  21.595  14.846
99419W        W63627  26.139  20.701   1.449
99420W        W63628  22.582  41.479  10.989
99421W        W63629  24.544  33.386   4.166
99422W        W63630  26.594  32.027  14.939
99423W        W63631  12.797   0.980  10.564
99424W        W63632  44.338  41.349   3.803
99425W        W63633  30.022  20.138   4.790
99426W        W63634  11.848  30.978   2.235
99427W        W63635  14.761   4.209   0.461
99428W        W63636  36.397  17.065   3.808
99429W        W63637   7.322  32.547   1.731
99430W        W63638  29.076  23.692   0.855
99431W        W63639  29.993  44.981  10.624
99432W        W63640   8.798   3.850  12.906
99433W        W63641  25.104  10.659   2.863
99434W        W63642  17.750  16.704   4.752
99435W        W63643   5.889  36.356   0.959
99436W        W63644  43.443  24.013  14.377
99437W        W63645  16.153   9.882  13.456
99438W        W63646  29.634  22.647  12.034
99439W        W63647   6.351   3.247  10.575
99440W        W63648   9.658  26.511   1.341
99441W        W63649  44.466  10.334   9.936
99442W        W63650  13.158  32.994  12.962
99443W        W63651   0.483  37.462   4.782
99444W        W63652  14.786  38.533   1.288
99445W        W63653   4.768   9.174  12.349
99446W        W63654  32.570   4.310  11.872
99447W        W63655  36.954  21.209  11.504
99448W        W63656  21.124   6.195  12.359
99449W        W63657  13.807  28.538   3.272
99450W        W63658  27.109   3.223   1.404
99451W        W63659  40.424  19.729  12.468
99452W        W63660  15.288  13.661  13.029
99453W        W63661   6.834  43.356   1.739
99454W        W63662  38.946  17.675  13.940
99455W        W63663  25.110   8.336  11.429
99456W        W63664  28.035  37.077   1.415
99457W        W63665  19.594  37.563  12.930
99458W        W63666  28.648   6.291  13.930
99459W        W63667  37.561  24.194  12.470
99460W        W63668  25.191  41.378  12.472
99461W        W63669   1.249   5.859  10.561
99462W        W63670  25.675  43.460  12.417
99463W        W63671  31.946  22.544   4.716
99464W        W63672  17.201  23.034   2.241
99465W        W63673  20.767   5.305   4.685
99466W        W63674  23.122  31.982   3.748
99467W        W63675  35.018  41.304  14.389
99468W        W63676  40.993   0.255   1.338
99469W        W63677  20.717  34.977   4.765
99470W        W63678   5.310   0.930  10.432
99471W        W63679  11.713  12.699  14.395
99472W        W63680  30.059   5.231  10.920
99473W        W63681  32.393  21.036   4.778
99474W        W63682  13.255  32.927   4.139
99475W        W63683  20.524  22.177  14.982
99476W        W63684  12.203  25.139  12.994
99477W        W63685  29.954  39.447   2.781
99478W        W63686   8.307  10.330   4.723
99479W        W63687  19.048   6.281  12.951
99480W        W63688  26.012  27.509   1.726
99481W        W63689  29.482  10.669  14.763
99482W        W63690  23.010  29.442  13.047
99483W        W63691   0.315   7.351   3.241
99484W        W63692  11.674  39.462   0.253
99485W        W63693  40.847  34.004   3.316
99486W        W63694  37.867  12.131   2.379
99487W        W63695  17.136   1.784  10.033
99488W        W63696   6.722  20.192   2.688
99489W        W63697  13.284  11.754   2.231
99490W        W63698  10.795  37.554  13.980
99491W        W63699  21.566   8.262   3.383
99492W        W63700   8.759  39.896   1.866
99493W        W63701   6.249  14.307   1.335
99494W        W63702  17.122  24.656  12.569
99495W        W63703  38.531  22.745  12.015
99496W        W63704   6.250  41.409   2.260
99497W        W63705  24.713  29.125   3.845
99498W        W63706   1.246   0.257   2.775
99499W        W63707  27.195   3.714  11.977
99500W        W63708  23.100   1.766  14.004
99501W        W63709   5.722  14.687  10.986
99502W        W63710  11.672  21.631  11.417
99503W        W63711  40.503  20.576   4.742
99504W        W63712  11.286   5.896   4.313
99505W        W63713  34.573  27.683  14.341
99506W        W63714  18.617  38.003  12.874
99507W        W63715  44.464  25.197   3.689
99508W        W63716  32.410  31.631  11.552
99509W        W63717  16.096  39.841   2.409
99510W        W63718  40.484  41.434  14.470
99511W        W63719  29.924  36.407  14.309
99512W        W63720  32.460  19.714  11.592
99513W        W63721  32.117   5.871   2.902
99514W        W63722   3.232   1.245  12.961
99515W        W63723  28.673  38.972  12.918
99516W        W63724  13.239  19.073   0.802
99517W        W63725  24.008   0.273   4.631
99518W        W63726  20.222  40.454  10.891
99519W        W63727  39.831  26.463  12.555
99520W        W63728  35.602  36.989   2.242
99521W        W63729  28.482  41.490  14.851
99522W        W63730  35.393   5.325  14.468
99523W        W63731  17.291  38.933   3.642
99524W        W63732  36.070   5.863   4.209
99525W        W63733  32.393  35.860   2.229
99526W        W63734   2.285  30.979  11.604
99527W        W63735  44.756  31.608   4.756
99528W        W63736   2.763  31.136  12.030
99529W        W63737  17.163  21.076   2.352
99530W        W63738  21.236  38.988   0.433
99531W        W63739  10.847  36.091   1.240
99532W        W63740  39.527  40.498   0.416
99533W        W63741  41.316  35.061   1.391
99534W        W63742   4.263  44.378  11.461
99535W        W63743  17.677  15.593   2.224
99536W        W63744  31.436  30.028   1.421
99537W        W63745  39.525  23.158   3.713
99538W        W63746  41.330  19.107  12.997
99539W        W63747  13.768  39.529   3.271
99540W        W63748  17.205  42.360   2.854
99541W        W63749  34.509  31.503  12.887
99542W        W63750  14.721  25.494   4.707
99543W        W63751  15.601  17.074   4.799
99544W        W63752   0.929  36.403  14.887
99545W        W63753  18.696  30.126  10.640
99546W        W63754  34.034  37.983   0.794
99547W        W63755  12.174   3.944   0.309
99548W        W63756  16.177  14.175  14.945
99549W        W63757  41.305   3.717   4.254
99550W        W63758   9.153   7.256   2.736
99551W        W63759  13.318  20.257  12.549
99552W        W63760   1.302  33.125  14.972
99553W        W63761   2.740  34.433  12.936
99554W        W63762   4.448  21.550  13.360
99555W        W63763   1.420  41.480   3.796
99556W        W63764  24.053  13.305  12.351
99557W        W63765  38.042  11.695  13.525
99558W        W63766  40.541  10.780  10.481
99559W        W63767  33.977  31.094   0.450
99560W        W63768  27.595  37.384  11.574
99561W        W63769  40.052  29.592   0.838
99562W        W63770   5.269  30.072   1.928
99563W        W63771  34.475  37.422   4.297
99564W        W63772  33.618   3.255   1.885
99565W        W63773  39.842  43.865   0.456
99566W        W63774  26.499  40.545  11.891
99567W        W63775  39.371  33.441   4.340
99568W        W63776  37.395  23.725  13.424
99569W        W63777  15.780  31.003   4.192
99570W        W63778  22.699  29.427   4.781
99571W        W63779  11.143  31.145   1.350
99572W        W63780  21.743  24.179   0.446
99573W        W63781  30.121   7.696  14.937
99574W        W63782  17.773  27.163   4.340
99575W        W63783  39.914  38.330  12.345
99576W        W63784  44.907  42.922   5.202
99577W        W63785  20.212   8.791  10.070
99578W        W63786  23.099  22.128   2.185
99579W        W63787  40.927  24.509   0.340
99580W        W63788   7.790   0.829   2.681
99581W        W63789  36.979  39.908  10.527
99582W        W63790  39.550   3.263  10.918
99583W        W63791   9.684  17.579   1.321
99584W        W63792  25.992   6.311   0.437
99585W        W63793   1.308  35.082  13.847
99586W        W63794  27.996  28.064   1.768
99587W        W63795  16.249   3.827   0.811
99588W        W63796  19.760  19.273  14.435
99589W        W63797   9.673  39.816  10.502
99590W        W63798   0.345  38.003   4.672
99591W        W63799  10.384   3.923  13.530
99592W        W63800  30.483   9.347   0.451
99593W        W63801   2.438  10.141   0.851
99594W        W63802  43.895  41.025  13.058
99595W        W63803  16.253  22.521   1.325
99596W        W63804  31.034  35.491  13.816
99597W        W63805  41.838  22.190  13.399
99598W        W63806   3.826  24.193  14.805
99599W        W63807  20.523  33.014  14.408
99600W        W63808  40.977  20.654  13.791
99601W        W63809  20.109  14.287  10.938
99602W        W63810  41.925  11.245   1.411
99603W        W63811  26.082  12.638  10.532
99604W        W63812  10.794   9.321  12.991
99605W        W63813  28.605   0.848   4.599
99606W        W63814  42.493   7.409   2.811
99607W        W63815   6.782  40.864   4.193
99608W        W63816  19.245  30.024   0.802
99609W        W63817   1.249  27.535   2.251
99610W        W63818  27.974  40.461   0.450
99611W        W63819  21.070  42.352   3.868
99612W        W63820  38.886  21.576   1.697
99613W        W63821  22.113  31.150  12.840
99614W        W63822   5.819  24.583  11.096
99615W        W63823  37.058   4.257  10.927
99616W        W63824  44.918  33.477  14.457
99617W        W63825  31.083  14.754   1.914
99618W        W63826  17.146  15.774  12.996
99619W        W63827  40.451  42.466  13.860
99620W        W63828   9.217   0.959   1.412
99621W        W63829  16.733   9.232  14.356
99622W        W63830   9.188  36.496  11.603
99623W        W63831  40.462  19.764  13.003
99624W        W63832  39.916  44.502  12.095
99625W        W63833  32.463  35.449  13.799
99626W        W63834  25.533  16.758   3.728
99627W        W63835  34.565   1.876   3.694
99628W        W63836   3.311  43.813   3.207
99629W        W63837  44.986  32.523  11.865
99630W        W63838  12.668  32.488   3.236
99631W        W63839  33.509  41.507   1.734
99632W        W63840   0.294   8.729   1.428
99633W        W63841  18.631   9.149   0.761
99634W        W63842  43.411  22.700  11.005
99635W        W63843  21.199  43.320   0.382
99636W        W63844  13.226  40.474  12.866
99637W        W63845  43.989  13.314   3.355
99638W        W63846   0.848  23.713  14.455
99639W        W63847   3.389   8.180   2.719
99640W        W63848  35.096  20.045   4.643
99641W        W63849  40.450   5.256   2.848
99642W        W63850  39.039  44.444   0.320
99643W        W63851  35.895  32.110   3.343
99644W        W63852   5.399  18.271  13.491
99645W        W63853  39.372   0.457   4.113
99646W        W63854  39.339  43.878  13.474
99647W        W63855  29.956   1.471  10.629
99648W        W63856  37.931  19.717  13.504
99649W        W63857  26.669  34.994   1.727
99650W        W63858  21.731   6.753   1.226
99651W        W63859  40.861  24.504  13.048
99652W        W63860  32.422  43.864  10.604
99653W        W63861  13.304  17.637  13.522
99654W        W63862   9.337  24.570   4.213
99655W        W63863   3.946  44.494   1.403
99656W        W63864  31.407  14.802   4.333
99657W        W63865  30.103   3.785  14.481
99658W        W63866  11.127   0.859  12.879
99659W        W63867  21.132   0.330   4.604
99660W        W63868   8.326  16.777  13.516
99661W        W63869  31.628  29.165   4.123
99662W        W63870  31.638  16.111   2.852
99663W        W63871  23.541  10.220  11.967
99664W        W63872  38.985   3.918  14.016
99665W        W63873  22.217  43.895  13.340
99666W        W63874   2.907  20.703   4.741
99667W        W63875  36.931  30.918   0.419
99668W        W63876  17.289   1.258  14.294
99669W        W63877  30.651   3.299  13.024
99670W        W63878   2.938  33.553  14.943
99671W        W63879   1.893  39.877  11.081
99672W        W63880  32.943  20.721   2.406
99673W        W63881  11.343  34.427  12.882
99674W        W63882  11.831  42.860  12.509
99675W        W63883  40.870  23.648   4.131
99676W        W63884  18.195   1.277  11.090
99677W        W63885   5.253  31.037   3.730
99678W        W63886  27.521  26.475  11.045
99679W        W63887  32.501  33.582   2.272
99680W        W63888  27.660  43.352   1.733
99681W        W63889  36.512  27.566  12.839
99682W        W63890  26.573   2.244  13.022
99683W        W63891  37.870  42.847   4.638
99684W        W63892  11.728  13.308   2.364
99685W        W63893  44.486  33.470  12.579
99686W        W63894  36.006  20.555   1.734
99687W        W63895   5.233  12.127  11.395
99688W        W63896  38.377  21.716   3.653
99689W        W63897  26.614  25.010   0.840
99690W        W63898   7.898  22.658  13.337
99691W        W63899  26.096  21.616  10.425
99692W        W63900  43.815  24.492   3.667
99693W        W63901  11.235   2.460  10.577
99694W        W63902   5.229  32.425   1.845
99695W        W63903  21.595   0.461  10.494
99696W        W63904  30.972  22.997   3.265
99697W        W63905  36.410  41.894   3.232
99698W        W63906  28.952   2.303   1.287
99699W        W63907  22.552  10.799   1.336
99700W        W63908   6.391  42.880  12.483
99701W        W63909  25.638  39.843   1.431
99702W        W63910  22.096  33.588  13.322
99703W        W63911  36.576   2.341   2.320
99704W        W63912  42.486  10.879   4.709
99705W        W63913  15.634  39.493  12.424
99706W        W63914   8.368  22.561   0.857
99707W        W63915  18.093  26.639  13.977
99708W        W63916  19.063   3.778  11.919
99709W        W63917  44.779   1.371   3.856
99710W        W63918  27.668   3.438   4.126
99711W        W63919  16.075  29.936   1.249
99712W        W63920  28.582  15.277   5.225
99713W        W63921  34.042  23.637  10.414
99714W        W63922  17.715  16.135  11.090
99715W        W63923  13.302  14.639   3.641
99716W        W63924  11.758  41.473   1.322
99717W        W63925  36.055   9.685   0.798
99718W        W63926  30.622   5.373   3.254
99719W        W63927  15.226   2.396   3.190
99720W        W63928   1.822   4.296  13.537
99721W        W63929  15.223   3.904  14.368
99722W        W63930  44.877  32.546  14.353
99723W        W63931  37.461  12.814   1.875
99724W        W63932  14.688  41.497  10.946
99725W        W63933  18.075  27.660  10.414
99726W        W63934  11.800   5.857  12.829
99727W        W63935   2.404  26.997   1.758
99728W        W63936  40.847   8.244   0.476
99729W        W63937   5.923  37.512  11.941
99730W        W63938  18.661  35.047  11.887
99731W        W63939  40.475  32.093  12.526
99732W        W63940   5.276  36.044   4.734
99733W        W63941   2.349  24.650  14.413
99734W        W63942   9.697  18.683   4.230
99735W        W63943  29.479   6.340  10.922
99736W        W63944   2.374  37.997  14.948
99737W        W63945   6.292   7.391  13.345
99738W        W63946  21.187  27.456  10.492
99739W        W63947  29.533  36.002  13.310
99740W        W63948  30.965  13.232  11.468
99741W        W63949  25.197  29.470  13.328
99742W        W63950  41.515   1.868   0.301
99743W        W63951  21.197  22.615  10.426
99744W        W63952  30.111  32.461  11.493
99745W        W63953  42.314  19.265  14.512
99746W        W63954  42.357   3.238   2.318
99747W        W63955  11.137  16.679  14.818
99748W        W63956  34.384   9.880   2.349
99749W        W63957  25.526   5.414  10.591
99750W        W63958  10.197  18.770  12.840
99751W        W63959  28.626  44.765  14.871
99752W        W63960   2.749  28.573   2.713
99753W        W63961  17.799  37.505   3.283
99754W        W63962  35.545  36.999  13.820
99755W        W63963  35.106  25.110   0.783
99756W        W63964  39.038  22.676  13.421
99757W        W63965  30.035   6.369  10.564
99758W        W63966  33.602   3.722   1.379
99759W        W63967   6.721  12.707  14.760
99760W        W63968  32.621  28.557   2.829
99761W        W63969  16.616   9.876   0.811
99762W        W63970  11.142  17.615   0.296
99763W        W63971  13.757  41.467  10.571
99764W        W63972  13.231   1.929  13.444
99765W        W63973  35.974   4.382   3.269
99766W        W63974  29.040  36.495   2.402
99767W        W63975   3.739   2.413  11.963
99768W        W63976  13.295  44.833  13.922
99769W        W63977   7.226   7.904  14.973
99770W        W63978   1.319  42.863  14.771
99771W        W63979  44.478  27.067  14.995
99772W        W63980   9.343  35.024  12.406
99773W        W63981  17.256  23.988  12.545
99774W        W63982  15.764  12.242   0.758
99775W        W63983  27.624   0.976  11.446
99776W        W63984  18.227  30.428  14.964
99777W        W63985  14.777  35.918   2.369
99778W        W63986  21.636  28.485   1.854
99779W        W63987  32.395  18.288   1.902
99780W        W63988  26.469  22.163   0.385
99781W        W63989   2.311  37.514  14.443
99782W        W63990   6.744   8.875   4.283
99783W        W63991  41.488  25.970   0.836
99784W        W63992  20.146   5.791   4.694
99785W        W63993   5.385  35.929   3.348
99786W        W63994   9.364   5.836   2.319
99787W        W63995  39.377  38.035   0.393
99788W        W63996  29.445  28.488  12.548
99789W        W63997  32.620   5.404   1.391
99790W        W63998  43.843  40.371   1.405
99791W        W63999  10.708  22.635   2.389
99792W        W64000  11.647  43.417  13.399
99793W        W64001  14.201  19.694  13.051
99794W        W64002   8.730   7.780  12.478
99795W        W64003   9.799  35.377   4.621
99796W        W64004   3.332  38.862   4.281
99797W        W64005  12.719  29.986  12.502
99798W        W64006  20.271  22.140  10.978
99799W        W64007   9.808  31.135  12.441
99800W        W64008   3.839   6.394  14.489
99801W        W64009  44.903  16.162  12.526
99802W        W64010   7.234  10.666  13.469
99803W        W64011  40.515   9.723  10.943
99804W        W64012   0.781  15.220  12.420
99805W        W64013  32.123  24.212   1.779
99806W        W64014  19.759  31.528   0.402
99807W        W64015  11.661  27.184  10.463
99808W        W64016  18.578  28.499   4.200
99809W        W64017  37.513   6.312  11.533
99810W        W64018  27.471   5.752   2.883
99811W        W64019  13.775  19.210  14.343
99812W        W64020  38.434   4.905   4.823
99813W        W64021  26.586  38.526   0.799
99814W        W64022  36.858   9.682   3.816
99815W        W64023  29.973  21.535   2.862
99816W        W64024  36.411  25.545  11.029
99817W        W64025  40.967  26.064  13.425
99818W        W64026  27.511  13.630  11.457
99819W        W64027  16.800   9.329  12.986
99820W        W64028   5.278  34.060   2.404
99821W        W64029  29.924  29.026  14.833
99822W        W64030  23.225   3.399  13.337
99823W        W64031  16.142  25.068  11.487
99824W        W64032   5.785  17.115   1.329
99825W        W64033  42.394   7.692   0.808
99826W        W64034   2.332  11.654   2.304
99827W        W64035  10.142  23.986  12.955
99828W        W64036  38.482  40.497  13.540
99829W        W64037   4.331  30.119   3.710
99830W        W64038  22.044  26.464  11.086
99831W        W64039  36.005  39.556  10.476
99832W        W64040  26.126  35.519   1.260
99833W        W64041   3.953  27.652   4.613
99834W        W64042  40.341  35.449  11.378
99835W        W64043  23.034  41.039  11.523
99836W        W64044  36.467  19.705   3.775
99837W        W64045   0.985  19.196   2.674
99838W        W64046   1.866  10.371   4.153
99839W        W64047  23.660  29.555  14.988
99840W        W64048  39.321  12.212   2.284
99841W        W64049  20.702  32.120  11.560
99842W        W64050  34.559   1.909   2.206
99843W        W64051  43.414  38.841  11.575
99844W        W64052  32.093  39.950   0.417
99845W        W64053  39.414  23.064  13.449
99846W        W64054  34.961  31.513  11.937
99847W        W64055   1.267   5.375  13.382
99848W        W64056  21.034  33.932   1.256
99849W        W64057  41.836  33.910  14.446
99850W        W64058   4.855  33.120   0.847
99851W        W64059   5.826  43.831  13.521
99852W        W64060  44.904   0.955  10.134
99853W        W64061  27.066   6.801  13.002
99854W        W64062  13.323  35.887  11.581
99855W        W64063  12.341  25.698   3.769
99856W        W64064   5.847  26.953   2.316
99857W        W64065  38.919  23.514  12.072
99858W        W64066  31.584  39.878  12.891
99859W        W64067  25.593  39.818  10.141
99860W        W64068  25.676  38.440   2.899
99861W        W64069  12.750   1.258  13.851
99862W        W64070  26.101   8.277  14.012
99863W        W64071  19.635  32.420   2.199
99864W        W64072  16.222   2.723   4.745
99865W        W64073  33.080  17.762  14.376
99866W        W64074  26.181   5.267   0.928
99867W        W64075  43.804  33.013   3.354
99868W        W64076  39.552  12.328   0.838
99869W        W64077  31.017  33.476  11.410
99870W        W64078  13.688  34.400   3.702
99871W        W64079  20.526  42.507  12.014
99872W        W64080  22.069  30.024   1.734
99873W        W64081  12.271  18.610   2.265
99874W        W64082  19.082  11.798  11.121
99875W        W64083   2.814  39.511  14.491
99876W        W64084  43.371  17.695   5.650
99877W        W64085  10.153  31.045  10.057
99878W        W64086   3.309  11.139   2.388
99879W        W64087  37.992   4.295  13.883
99880W        W64088  34.945  24.588  14.895
99881W        W64089  34.082  33.593  13.844
99882W        W64090  40.313  31.422  13.922
99883W        W64091   3.715  39.488   0.938
99884W        W64092  37.496  41.390   3.741
99885W        W64093  35.049  33.910  11.414
99886W        W64094  16.150  21.063   1.213
99887W        W64095  19.583  15.277   4.640
99888W        W64096  12.848  41.884   2.285
99889W        W64097  11.703  32.497   3.164
99890W        W64098   2.949   2.756   2.726
99891W        W64099  12.758   6.391   2.218
99892W        W64100  29.080  15.702  11.930
99893W        W64101  34.967   7.810   4.205
99894W        W64102  44.465   3.806  14.876
99895W        W64103  35.488  11.221   3.263
99896W        W64104   9.278  17.565  12.548
99897W        W64105  35.533  31.612   0.859
99898W        W64106  10.327  13.623  13.864
99899W        W64107  18.175  15.258  14.428
99900W        W64108  37.453   7.745   3.350
99901W        W64109  39.855  18.295  14.850
99902W        W64110   8.340  23.490   0.310
99903W        W64111  32.042  30.513  10.585
99904W        W64112  38.063  31.552   4.226
99905W        W64113  24.529  35.439   0.330
99906W        W64114  40.932  30.602  12.012
99907W        W64115  43.344  15.664  10.481
99908W        W64116  44.813   9.727  11.464
99909W        W64117   8.202   8.393  13.800
99910W        W64118  16.082  24.511   0.374
99911W        W64119  24.060   5.218  13.826
99912W        W64120  40.836  33.877   1.294
99913W        W64121  44.950  14.267   1.437
99914W        W64122  38.025  42.346   1.405
99915W        W64123  23.217   8.361  11.950
99916W        W64124  36.394  32.612   0.368
99917W        W64125   3.363  26.130  13.356
99918W        W64126  22.097  30.499   2.331
99919W        W64127  32.514  40.459   4.167
99920W        W64128  44.434  41.477  10.431
99921W        W64129  17.267  44.001   4.295
99922W        W64130  40.013   0.890  11.379
99923W        W64131  38.927  35.084   2.331
99924W        W64132  29.962   5.863  14.300
99925W        W64133  32.071   7.835  11.104
99926W        W64134  20.687   5.883   3.694
99927W        W64135   2.821  19.696  11.078
99928W        W64136  25.521  44.812   2.352
99929W        W64137  17.150  28.633   1.443
99930W        W64138  28.668  39.513  10.896
99931W        W64139  29.505  10.143  13.047
99932W        W64140  20.560  21.734   0.869
99933W        W64141  38.926  39.997  12.359
99934W        W64142  18.576   7.292  10.099
99935W        W64143   3.887  33.495  12.350
99936W        W64144  31.956  30.999   3.232
99937W        W64145  33.894  34.901   4.776
99938W        W64146  41.406  15.212   1.218
99939W        W64147  14.722  31.515   2.812
99940W        W64148  36.983  17.643  12.001
99941W        W64149   7.873  16.673  10.621
99942W        W64150  21.644  29.022   4.674
99943W        W64151  31.042   8.345   0.342
99944W        W64152  44.312  40.341  11.459
99945W        W64153  23.077  29.973   4.648
99946W        W64154   1.843  28.961   1.885
99947W        W64155  14.656  32.535  11.050
99948W        W64156  31.055  44.372  11.598
99949W        W64157  33.485  28.995   2.289
99950W        W64158  27.080  17.117  13.997
99951W        W64159  36.000  42.898   2.386
99952W        W64160   4.835  34.394   3.669
99953W        W64161  19.128   1.871  12.901
99954W        W64162  27.065  41.329   3.778
99955W        W64163  26.549  27.149  11.486
99956W        W64164  31.084  28.620  10.995
99957W        W64165  29.527  10.213   4.250
99958W        W64166  33.552  15.174   4.680
99959W        W64167  11.246  33.966   0.933
99960W        W64168  34.519  17.211   2.205
99961W        W64169   4.839  16.133  10.574
99962W        W64170  27.617  42.462   3.844
99963W        W64171   1.922  27.139   4.150
99964W        W64172  13.723  24.488  11.485
99965W        W64173  16.755   5.864  11.415
99966W        W64174   1.309  40.033   3.770
99967W        W64175  21.142  11.866   2.851
99968W        W64176  43.487   5.895   2.231
99969W        W64177  31.107  17.120   5.109
99970W        W64178  32.948  36.526   1.259
99971W        W64179  37.463  29.540   1.792
99972W        W64180  18.731  29.529   4.696
99973W        W64181  31.454  23.220  10.896
99974W        W64182   1.257  21.095  11.008
99975W        W64183  27.984   1.338   2.881
99976W        W64184  40.446   6.410   4.825
99977W        W64185  13.655  18.094   0.757
99978W        W64186  26.551  17.064   1.338
99979W        W64187  22.198  20.539  11.889
99980W        W64188   1.771  25.155  10.932
99981W        W64189  17.721  38.049   3.268
99982W        W64190  15.712   9.794   2.817
99983W        W64191  35.979   9.360  14.781
99984W        W64192   6.187   4.821   1.804
99985W        W64193   2.880  23.188  12.349
99986W        W64194  24.516  42.845   4.650
99987W        W64195   7.715   8.244  14.822
99988W        W64196  12.672  26.660  10.919
99989W        W64197  11.298   3.919   3.722
99990W        W64198   9.346  36.987   3.703
99991W        W64199  43.447   0.332   3.773
99992W        W64200  30.450  11.722  14.312
99993W        W64201   5.871  44.332   2.240
99994W        W64202  28.434  20.769  11.015
99995W        W64203   0.961  11.250  12.505
99996W        W64204  27.956  43.488  10.982
99997W        W64205  21.238  39.407  10.500
99998W        W64206  39.499  39.480  13.366
99999W        W64207  17.797  32.028  12.565
    0W        W64208  28.668  22.109   0.889
    1W        W64209  36.003   1.430  11.109
    2W        W64210  44.919  44.011   4.202
    3W        W64211  42.786  16.117   0.351
    4W        W64212  36.572  41.481  11.577
    5W        W64213  28.030  19.274  11.384
    6W        W64214  16.244  16.598  12.910
    7W        W64215  29.968  31.521  14.276
    8W        W64216  41.814  22.208  13.900
    9W        W64217  20.745  23.644   2.844
   10W        W64218  33.054  21.665   4.228
   11W        W64219   7.806  20.569  11.096
   12W        W64220  16.091  40.359   5.144
   13W        W64221  43.314  20.033  11.973
   14W        W64222  27.639   7.827  14.362
   15W        W64223  26.048  24.595  14.004
   16W        W64224  12.196   4.444   4.701
   17W        W64225  22.650   6.276   2.193
   18W        W64226  26.096   7.781   3.346
   19W        W64227   4.775   5.814   4.245
   20W        W64228   2.442  36.086  13.035
   21W        W64229  29.115   1.453   4.314
   22W        W64230  28.554  26.987   2.294
   23W        W64231  18.633  16.317  13.885
   24W        W64232  23.507  20.768  11.506
   25W        W64233  44.330  41.936  13.037
   26W        W64234  24.708  37.364   4.701
   27W        W64235  17.199   2.815  14.965
   28W        W64236  38.028   0.845  13.875
   29W        W64237  37.949  18.181   5.294
   30W        W64238   5.248  10.194   4.754
   31W        W64239  19.184  27.655  10.452
   32W        W64240  25.027  20.694   4.778
   33W        W64241  29.029  20.149  12.381
   34W        W64242  10.187  32.974  11.953
   35W        W64243  14.204  23.489  14.945
   36W        W64244  44.313  23.561   9.920
   37W        W64245  16.166  36.579   3.706
   38W        W64246  10.710   3.333   1.898
   39W        W64247  30.433  43.895  14.871
   40W        W64248   9.665  10.327   0.760
   41W        W64249  30.926   6.770   1.367
   42W        W64250  14.699  16.260  10.963
   43W        W64251   9.261  19.223   0.406
   44W        W64252  16.085  18.596  10.414
   45W        W64253   8.400  24.211  12.841
   46W        W64254  40.406  19.175   3.208
   47W        W64255   2.879  37.397   1.877
   48W        W64256  18.087  23.528  14.367
   49W        W64257  41.876  23.585   0.451
   50W        W64258   1.929   3.447  10.909
   51W        W64259  42.419  21.033  10.971
   52W        W64260   9.751  16.109   4.638
   53W        W64261  21.733  28.596   3.702
   54W        W64262  19.690  28.171   3.299
   55W        W64263  43.862  29.599   2.801
   56W        W64264  42.297   7.755  12.983
   57W        W64265  12.275  19.773   4.752
   58W        W64266  23.092  26.665  10.989
   59W        W64267  30.986  16.197   0.309
   60W        W64268  17.077  18.596  11.599
   61W        W64269  40.442   5.893  12.031
   62W        W64270  23.706  29.936  12.052
   63W        W64271   4.404  11.655   1.232
   64W        W64272   0.963  14.613   0.421
   65W        W64273  41.043  15.266  10.434
   66W        W64274   8.670  40.435  11.510
   67W        W64275  40.365  27.176  12.081
   68W        W64276  15.780  27.584   5.306
   69W        W64277  30.004  34.998  14.514
   70W        W64278  36.856   5.740   0.484
   71W        W64279   5.884  22.698   4.751
   72W        W64280  15.302  41.482  11.454
   73W        W64281  18.152   4.760  10.139
   74W        W64282   6.359   8.725  10.569
   75W        W64283   4.302   4.738   2.784
   76W        W64284  39.851   9.224   0.445
   77W        W64285  37.874   1.891   2.186
   78W        W64286  39.543  24.039  11.112
   79W        W64287  10.139  41.374  12.848
   80W        W64288  22.631   8.394   2.297
   81W        W64289  10.158  41.983   1.722
   82W        W64290  18.273  30.915  11.479
   83W        W64291   5.727  11.672  13.894
   84W        W64292  36.979  10.841   4.237
   85W        W64293  29.048  18.750  10.636
   86W        W64294  12.835  26.998  11.602
   87W        W64295  12.180  39.826   3.278
   88W        W64296   8.331  23.697   3.156
   89W        W64297  44.921   0.475   2.748
   90W        W64298   3.353  25.983  13.017
   91W        W64299   3.890  38.065   2.900
   92W        W64300  20.146  18.690   0.452
   93W        W64301  23.594  36.069  12.066
   94W        W64302  29.641  21.112  11.482
   95W        W64303   5.817  17.621  12.452
   96W        W64304  31.056   9.313   1.251
   97W        W64305  29.954   5.724  13.922
   98W        W64306   0.983  33.941  13.974
   99W        W64307  18.066  36.562  14.302
  100W        W64308   1.771   8.219  11.049
  101W        W64309  36.487  42.021  13.504
  102W        W64310   7.780  22.595  11.469
  103W        W64311   0.367  25.564   0.758
  104W        W64312  26.145  44.955  14.011
  105W        W64313  34.053  16.206  14.921
  106W        W64314  36.898  27.505   4.800
  107W        W64315  17.571  38.483   0.274
  108W        W64316  31.596  26.129  10.415
  109W        W64317   5.209  12.289  11.884
  110W        W64318  39.881   4.328  14.421
  111W        W64319  12.354  23.100   2.749
  112W        W64320  40.043   3.456  11.611
  113W        W64321   6.405  33.034   1.323
  114W        W64322   8.821  12.667   3.803
  115W        W64323  16.164  29.435  10.897
  116W        W64324  15.179  24.563   3.254
  117W        W64325  31.597   4.362   4.263
  118W        W64326  39.888  43.296  12.971
  119W        W64327  17.224  33.921   0.880
  120W        W64328  14.215  23.032   2.778
  121W        W64329   0.765  24.537  10.975
  122W        W64330  35.503  30.630  10.581
  123W        W64331  26.204  26.994  11.566
  124W        W64332  20.199  24.160  12.363
  125W        W64333  41.466  10.770   4.602
  126W        W64334  42.390  38.878  14.307
  127W        W64335  14.776   8.263   1.289
  128W        W64336  12.242  35.947  11.508
  129W        W64337   5.393   5.930  14.834
  130W        W64338  27.469  30.031   2.389
  131W        W64339   4.853  30.437   2.835
  132W        W64340   9.306  10.667  14.396
  133W        W64341  14.676  20.544   4.198
  134W        W64342   1.807   6.871   3.226
  135W        W64343  22.710  44.409   3.828
  136W        W64344  35.061  22.682  13.447
  137W        W64345  31.937  34.922   3.828
  138W        W64346  15.204  42.375   2.184
  139W        W64347  22.166  40.470   4.624
  140W        W64348  13.733  18.752   2.803
  141W        W64349  44.907  23.085   1.778
  142W        W64350  40.053  23.061   0.920
  143W        W64351   7.314  22.682   4.146
  144W        W64352  27.671  33.496  14.875
  145W        W64353  31.111  20.647  12.552
  146W        W64354   4.790  10.727  11.430
  147W        W64355  17.667  41.484   1.419
  148W        W64356  18.097  39.341   5.591
  149W        W64357  16.117  16.678   0.306
  150W        W64358  37.028   6.841  11.937
  151W        W64359  34.007  35.864   2.799
  152W        W64360  14.652  34.578  11.537
  153W        W64361   8.772   0.482   1.327
  154W        W64362   8.678  41.409  10.541
  155W        W64363  19.535  34.934  13.469
  156W        W64364  24.030  17.594  13.541
  157W        W64365  19.199  43.431  13.949
  158W        W64366  38.881   4.731  13.366
  159W        W64367  43.929  24.507   3.218
  160W        W64368  37.497  11.239  14.391
  161W        W64369  35.013  39.365   3.250
  162W        W64370  23.152  24.719  13.880
  163W        W64371  33.991  35.596   2.300
  164W        W64372  42.888  12.134   4.127
  165W        W64373  31.900  16.580  12.535
  166W        W64374  36.478  14.177  12.961
  167W        W64375  14.764   0.261   3.687
  168W        W64376  38.570  40.844   3.151
  169W        W64377  21.264  10.157   0.457
  170W        W64378  15.708  14.790  12.033
  171W        W64379   7.182  14.622   4.668
  172W        W64380  26.199   9.341   0.299
  173W        W64381  16.643  23.049  11.118
  174W        W64382  43.364  23.134  13.849
  175W        W64383   5.869  14.286  10.529
  176W        W64384  23.068   5.366  14.454
  177W        W64385   6.284  36.905   3.294
  178W        W64386  42.996   6.303   0.258
  179W        W64387  11.701  38.359   3.715
  180W        W64388  25.180   0.473  14.910
  181W        W64389   4.764   5.832  10.510
  182W        W64390  32.095  39.838  11.388
  183W        W64391  14.778  24.048   1.265
  184W        W64392  30.937  41.966  14.347
  185W        W64393  30.927  38.389  10.569
  186W        W64394  31.099  13.332  13.033
  187W        W64395  21.085  16.235  14.328
  188W        W64396  20.268  40.985  12.535
  189W        W64397  26.598  13.769   3.207
  190W        W64398  40.884  28.018  13.500
  191W        W64399  16.788  18.568   1.367
  192W        W64400  10.230  24.560  14.935
  193W        W64401  37.042  13.650  14.425
  194W        W64402  25.969   0.763  13.450
  195W        W64403  17.641  17.215   4.214
  196W        W64404   4.243  40.333  12.088
  197W        W64405  27.190  41.966  13.499
  198W        W64406  23.697  39.329   2.768
  199W        W64407  19.124  23.717   4.141
  200W        W64408  32.950  17.784   1.847
  201W        W64409  32.469  25.160   3.653
  202W        W64410  27.637  35.596   0.830
  203W        W64411  42.382  28.167   0.917
  204W        W64412  12.347  10.805  11.872
  205W        W64413   1.956  21.690   2.880
  206W        W64414   2.412  19.740   2.239
  207W        W64415  41.932   5.908  11.961
  208W        W64416  26.575   1.731  12.945
  209W        W64417   0.413  39.376  11.606
  210W        W64418  30.008   4.839  10.426
  211W        W64419  24.078  21.581  13.973
  212W        W64420  43.973  23.049   3.646
  213W        W64421  21.095  41.306   3.777
  214W        W64422  41.328  35.985   2.742
  215W        W64423  21.589  22.644  10.088
  216W        W64424  29.977  17.249   1.818
  217W        W64425  35.922   4.857  10.613
  218W        W64426  18.653  39.433  12.997
  219W        W64427  37.342  41.831  12.349
  220W        W64428  16.641   0.930  14.348
  221W        W64429  30.591   4.794  10.970
  222W        W64430  42.281  32.541  12.005
  223W        W64431  17.191  20.752  10.975
  224W        W64432  10.250   8.769   3.245
  225W        W64433  11.786   9.684  13.454
  226W        W64434  43.344   1.946  14.441
  227W        W64435  10.871  28.095  12.838
  228W        W64436  36.374  18.194  12.450
  229W        W64437   9.307  25.564   4.264
  230W        W64438  32.598  32.085   1.333
  231W        W64439   5.766  28.576   1.883
  232W        W64440  30.026  19.180   2.181
  233W        W64441   5.439  28.505   0.808
  234W        W64442   4.726  39.902   4.660
  235W        W64443  21.539  23.595  13.494
  236W        W64444  34.423   2.362  12.028
  237W        W64445   2.394   8.322   3.371
  238W        W64446   7.206  17.192  13.905
  239W        W64447  34.458  44.275   2.834
  240W        W64448  21.666  14.324   2.877
  241W        W64449   5.360  17.772  13.486
  242W        W64450   4.281  16.146  13.938
  243W        W64451  40.539  28.588   2.362
  244W        W64452  13.715  25.513   0.786
  245W        W64453  27.667   0.284  14.386
  246W        W64454  19.554  23.154  14.978
  247W        W64455  35.547  36.438  14.443
  248W        W64456  27.504  17.105  11.502
  249W        W64457  28.962   5.795   3.356
  250W        W64458  25.515  30.434   1.912
  251W        W64459   5.393  13.170  12.096
  252W        W64460   6.285  19.734   2.350
  253W        W64461  35.896  27.470   4.132
  254W        W64462  17.167  34.991  10.608
  255W        W64463  12.286  43.825   0.844
  256W        W64464  13.324  21.082   1.865
  257W        W64465  15.231  23.659   3.657
  258W        W64466  15.694  37.534   1.867
  259W        W64467   7.198   1.239   2.329
  260W        W64468  42.499  15.095   4.728
  261W        W64469  15.702  40.342  13.885
  262W        W64470   6.734  26.159   0.362
  263W        W64471   3.836  43.317  14.990
  264W        W64472  19.266  18.188   4.337
  265W        W64473   3.880  15.626  14.890
  266W        W64474   7.391  44.798   3.338
  267W        W64475   3.383  18.105  14.383
  268W        W64476  39.042   7.389  13.037
  269W        W64477   3.919   4.889   0.303
  270W        W64478  26.602  29.570   3.290
  271W        W64479  10.170  21.158  10.546
  272W        W64480  43.442  44.482  11.876
  273W        W64481   6.397  16.778   0.915
  274W        W64482  34.930  28.503   1.371
  275W        W64483   0.265  40.854  13.795
  276W        W64484  25.206  37.542   3.670
  277W        W64485  38.041   7.305  14.009
  278W        W64486  42.407  38.390   0.954
  279W        W64487  43.775  42.818   2.875
  280W        W64488  23.187  44.336   0.902
  281W        W64489  22.678  32.405   4.671
  282W        W64490  12.289  13.296   2.344
  283W        W64491  26.200  34.960  12.825
  284W        W64492  35.490  44.909  12.458
  285W        W64493  42.892  37.340   3.148
  286W        W64494  16.235   6.229  14.438
  287W        W64495  10.770   6.848   3.250
  288W        W64496  32.602  16.662   1.886
  289W        W64497  34.102  33.034   1.320
  290W        W64498  12.826  39.978  13.829
  291W        W64499  11.686  35.064   0.945
  292W        W64500  37.959  17.299   0.873
  293W        W64501   6.742  16.588  13.978
  294W        W64502  39.467  36.508  14.837
  295W        W64503  38.001  35.584   4.711
  296W        W64504   8.727   6.262   1.846
  297W        W64505   7.896  24.594   0.467
  298W        W64506  39.523  41.943  10.547
  299W        W64507   0.920  40.355  13.877
  300W        W64508   7.893  28.654  14.836
  301W        W64509   5.207  28.111  14.321
  302W        W64510  18.082  35.369   9.640
  303W        W64511   0.487  25.083  11.524
  304W        W64512  39.020  27.149  14.852
  305W        W64513  36.013  38.943  11.076
  306W        W64514  44.954  41.905  10.498
  307W        W64515  40.956  20.045  11.125
  308W        W64516   8.263   1.400  14.466
  309W        W64517  31.082  24.639   0.888
  310W        W64518   3.722  21.119   0.746
  311W        W64519  23.730  13.800  11.437
  312W        W64520  11.238   5.401   4.255
  313W        W64521  39.413  44.372   0.262
  314W        W64522  39.558  22.164   0.451
  315W        W64523  19.245  26.665   2.899
  316W        W64524   4.919  26.961   4.773
  317W        W64525  10.364  30.423  12.476
  318W        W64526  36.469   5.286   1.897
  319W        W64527   9.332   2.778  13.544
  320W        W64528  14.127  30.612  12.901
  321W        W64529  39.381   4.914  12.568
  322W        W64530  34.370  21.533   4.730
  323W        W64531   2.942  22.702  13.404
  324W        W64532  34.055   5.775  12.383
  325W        W64533  23.680  29.112   4.216
  326W        W64534  35.525   8.772  10.581
  327W        W64535  20.117  25.086  10.912
  328W        W64536  38.055  34.910   0.375
  329W        W64537  21.217   9.790  10.932
  330W        W64538  17.175  43.934  13.401
  331W        W64539   0.360  33.455   4.326
  332W        W64540  41.998  35.953  13.802
  333W        W64541   1.867   3.285   3.658
  334W        W64542   2.912  13.673   4.798
  335W        W64543  24.698  26.517   1.725
  336W        W64544  36.374  24.981   0.319
  337W        W64545  29.500  25.490  13.458
  338W        W64546  17.073  10.261   4.181
  339W        W64547  20.050  21.096  11.120
  340W        W64548  28.074  42.941  10.507
  341W        W64549   2.844   6.368   1.237
  342W        W64550   1.377  14.628   0.369
  343W        W64551  34.908  38.040   2.365
  344W        W64552   1.477  24.214  11.593
  345W        W64553  27.942  36.984  14.783
  346W        W64554   7.284  36.017   1.254
  347W        W64555  25.026   3.305   5.149
  348W        W64556   2.795  40.350  11.606
  349W        W64557  39.484  38.469  11.389
  350W        W64558  18.126  14.656   2.192
  351W        W64559  20.590   5.220   0.836
  352W        W64560  25.650  14.316  12.923
  353W        W64561   7.287  24.654   4.691
  354W        W64562   0.404  11.634   3.355
  355W        W64563  23.145  38.880  14.915
  356W        W64564  22.612  29.460  14.510
  357W        W64565  26.644  34.916   0.415
  358W        W64566  40.022   6.697   2.249
  359W        W64567  34.901   9.736   1.369
  360W        W64568  42.349   4.393  11.488
  361W        W64569  19.128  26.135  14.405
  362W        W64570  32.539  38.421  12.882
  363W        W64571   6.911  36.051  11.608
  364W        W64572   5.409  31.435  10.983
  365W        W64573  23.177  23.621  13.937
  366W        W64574   4.296  24.649   3.723
  367W        W64575   0.816  41.021  12.476
  368W        W64576  26.200  32.021   4.817
  369W        W64577  31.923   5.224   3.645
  370W        W64578   9.390  19.277  14.369
  371W        W64579   7.833  33.512  14.928
  372W        W64580  25.000   7.832   2.351
  373W        W64581   8.250  33.022   4.251
  374W        W64582  36.456   4.753   4.216
  375W        W64583   6.380  25.554  11.117
  376W        W64584  34.468  35.600   0.965
  377W        W64585  22.674   8.186  13.367
  378W        W64586  32.458  30.127   0.435
  379W        W64587  20.684  36.914  13.004
  380W        W64588  38.435  29.995   2.235
  381W        W64589  25.505  16.088  13.852
  382W        W64590   4.719  41.908  12.989
  383W        W64591  27.152  39.028  11.472
  384W        W64592  41.835  19.091  13.828
  385W        W64593  16.704  16.135   3.805
  386W        W64594  27.964  23.496   1.439
  387W        W64595  35.968  12.664  13.545
  388W        W64596  37.010  26.691  13.341
  389W        W64597  22.121  20.669   0.909
  390W        W64598  18.132  21.136   2.742
  391W        W64599  25.497  35.058   2.873
  392W        W64600  44.492  40.880  13.475
  393W        W64601  22.690  41.332   4.719
  394W        W64602   9.230  20.527   0.285
  395W        W64603   0.407  40.052   3.329
  396W        W64604  11.626  28.507   0.850
  397W        W64605  13.219  38.034   4.341
  398W        W64606  12.254  37.026   2.214
  399W        W64607  41.349  10.717   3.675
  400W        W64608  24.503  29.087  13.444
  401W        W64609  18.138  19.140  12.548
  402W        W64610   4.738  41.801   3.816
  403W        W64611   4.333  41.021  14.893
  404W        W64612  14.239  18.726  12.347
  405W        W64613  19.535  29.139  12.422
  406W        W64614  26.101   8.225   0.737
  407W        W64615  32.953  34.505  14.300
  408W        W64616  22.608  25.995  11.593
  409W        W64617  41.992  14.832  12.556
  410W        W64618  20.588   9.267  12.465
  411W        W64619  28.174   0.873  12.373
  412W        W64620  25.630  22.724   3.308
  413W        W64621  34.028  30.013   3.323
  414W        W64622  43.902   1.942  12.443
  415W        W64623  23.559   4.733  12.475
  416W        W64624  11.713  36.400  11.029
  417W        W64625  15.273  25.709   3.674
  418W        W64626  23.202  40.503   0.956
  419W        W64627  29.032   3.285  11.459
  420W        W64628  38.933  18.700  12.533
  421W        W64629  32.503  13.745  10.501
  422W        W64630  29.540  35.911  12.545
  423W        W64631  15.138  29.060   0.945
  424W        W64632   5.838  41.928   3.866
  425W        W64633  22.187  32.104   4.190
  426W        W64634   0.892   5.353  14.499
  427W        W64635  19.117  15.297   4.649
  428W        W64636  39.445  40.020   0.813
  429W        W64637  19.073  13.843  12.375
  430W        W64638  25.208   1.329   1.825
  431W        W64639  14.198   5.249  12.993
  432W        W64640  39.921  10.693  11.611
  433W        W64641  35.887  16.726   4.660
  434W        W64642  26.170  35.600   2.341
  435W        W64643  14.333  24.683  12.899
  436W        W64644  13.821  39.835   3.348
  437W        W64645  44.904  12.735  12.362
  438W        W64646  22.118  17.715  11.530
  439W        W64647  11.250  39.373  10.571
  440W        W64648   6.249   9.709   1.703
  441W        W64649  16.146  30.516  12.921
  442W        W64650   0.331  22.011  12.364
  443W        W64651  44.867  18.136  11.985
  444W        W64652  16.133  12.616  13.008
  445W        W64653   0.821  18.130  10.054
  446W        W64654  31.592   4.807   3.276
  447W        W64655  22.534  39.887  13.845
  448W        W64656  34.505   6.402   1.841
  449W        W64657   7.731  33.413   3.760
  450W        W64658  30.040  39.476  13.987
  451W        W64659  36.087  11.287  12.413
  452W        W64660  42.968   3.844   3.322
  453W        W64661  35.600  20.537  12.935
  454W        W64662  18.073  38.900  12.052
  455W        W64663  12.750   7.719  12.482
  456W        W64664  22.621  40.381   0.346
  457W        W64665  10.153   5.844   3.189
  458W        W64666  37.033   4.426   4.773
  459W        W64667  42.832  44.351  10.915
  460W        W64668  43.274  20.615  11.605
  461W        W64669  27.080   0.276  11.002
  462W        W64670   0.913  21.176   0.346
  463W        W64671  40.892  41.911   4.831
  464W        W64672  14.612  18.111  12.465
  465W        W64673  36.496   6.751  13.998
  466W        W64674  20.133  33.053   3.743
  467W        W64675  35.036  43.302   2.858
  468W        W64676   2.434  41.496  10.002
  469W        W64677  19.280  14.642  12.089
  470W        W64678  17.618   9.779  11.894
  471W        W64679   8.274  22.667  12.011
  472W        W64680  41.436  43.870   0.732
  473W        W64681  14.121  25.218  14.804
  474W        W64682  10.872  10.852   5.586
  475W        W64683  19.108   5.832   1.814
  476W        W64684  43.400  27.128   0.458
  477W        W64685  15.724  24.603  11.552
  478W        W64686  32.498  13.656  13.361
  479W        W64687   6.365  31.948  10.065
  480W        W64688  10.198   9.364  13.009
  481W        W64689   5.355  40.857   2.804
  482W        W64690  18.054  35.938   1.719
  483W        W64691  43.361   5.273   1.235
  484W        W64692   1.818  34.037   0.822
  485W        W64693  33.448  42.023  14.283
  486W        W64694  14.204  31.013   2.664
  487W        W64695  40.412  31.520  14.486
  488W        W64696  31.935  35.875  12.397
  489W        W64697  18.279  39.914  14.764
  490W        W64698  23.515   5.695   1.355
  491W        W64699  41.789   4.737   3.381
  492W        W64700   9.270  15.210   2.695
  493W        W64701  10.195  20.044  14.770
  494W        W64702  23.656  26.524  13.048
  495W        W64703  13.741  19.051   3.806
  496W        W64704  19.565  26.488   3.772
  497W        W64705  16.074   0.911  14.355
  498W        W64706  13.606  32.022  13.881
  499W        W64707  28.950  28.666  12.001
  500W        W64708  38.534  22.230   0.842
  501W        W64709  10.157  43.021   0.383
  502W        W64710  28.532  44.349   1.367
  503W        W64711  13.335  24.227   1.864
  504W        W64712  10.826  18.675   2.414
  505W        W64713  26.498  44.906  12.444
  506W        W64714  27.945  37.509  14.365
  507W        W64715  26.668  23.101   0.307
  508W        W64716  41.824   3.937  12.091
  509W        W64717  37.968  33.060  13.827
  510W        W64718  43.833  38.004   9.446
  511W        W64719   4.419  22.246   4.168
  512W        W64720  30.598   8.872  13.426
  513W        W64721  43.974  26.073  12.480
  514W        W64722  33.030  33.995   2.732
  515W        W64723  34.895   7.763   2.754
  516W        W64724  27.948  11.714   5.228
  517W        W64725  36.531  43.466  13.801
  518W        W64726  39.495   0.960   3.377
  519W        W64727  29.168  17.108  12.548
  520W        W64728   7.710  44.950   2.688
  521W        W64729  39.464  38.984   2.215
  522W        W64730  24.559  18.589  12.887
  523W        W64731   9.663  15.312  11.479
  524W        W64732  40.328  10.333  13.040
  525W        W64733  23.529  22.572  11.450
  526W        W64734  28.482   9.715   1.423
  527W        W64735   4.754  20.651   3.662
  528W        W64736   0.283   8.832   2.258
  529W        W64737  34.943   9.731   3.831
  530W        W64738  41.919  40.474  13.916
  531W        W64739  15.118  13.842   2.734
  532W        W64740  44.797  30.118   3.212
  533W        W64741  11.340  35.580   0.395
  534W        W64742  12.205   7.789  12.854
  535W        W64743   4.721  37.434  11.881
  536W        W64744   2.747   0.876  13.993
  537W        W64745  31.480  23.515   4.619
  538W        W64746  13.717  12.151  10.643
  539W        W64747  42.831  13.778   3.761
  540W        W64748  23.503  18.756   3.864
  541W        W64749  40.994  18.148  13.037
  542W        W64750   6.204  22.247  10.527
  543W        W64751  42.931  23.196   2.839
  544W        W64752  20.536  18.097   5.675
  545W        W64753  44.869  12.233  14.847
  546W        W64754  33.454   4.786   4.197
  547W        W64755  23.533  40.962   4.259
  548W        W64756  29.612  32.970   1.412
  549W        W64757  37.420  37.479  14.031
  550W        W64758   5.712  26.575   3.756
  551W        W64759  11.144  15.607  12.575
  552W        W64760   4.807  33.477   2.683
  553W        W64761  43.886  27.670   3.684
  554W        W64762  26.036  43.298   0.384
  555W        W64763  16.173  40.859  14.025
  556W        W64764  17.744  37.888  12.011
  557W        W64765  10.847  26.203  10.540
  558W        W64766  28.622  29.428   1.768
  559W        W64767  41.468  38.328   2.235
  560W        W64768  33.966  34.604  11.044
  561W        W64769  27.954  27.519   3.358
  562W        W64770  43.955  38.053   0.456
  563W        W64771  11.845  23.575   2.402
  564W        W64772  36.977  22.052  13.351
  565W        W64773  27.565   5.295  11.417
  566W        W64774  36.075  19.542  13.498
  567W        W64775  23.172  28.464  14.495
  568W        W64776  26.476   3.252   2.697
  569W        W64777   4.230  37.053   2.858
  570W        W64778  43.951  25.985  11.602
  571W        W64779   0.261  31.473   5.320
  572W        W64780  12.204  35.050   1.714
  573W        W64781  10.303  17.158  10.965
  574W        W64782  43.275  18.756  10.434
  575W        W64783  19.760  20.115   1.859
  576W        W64784  37.968  19.704   4.325
  577W        W64785  22.700   2.842  11.031
  578W        W64786  32.895   1.310   1.420
  579W        W64787   9.323  25.107   0.806
  580W        W64788  12.767  19.144   3.834
  581W        W64789  20.233  30.480   0.956
  582W        W64790  43.410  22.518  12.566
  583W        W64791  18.687  19.064  10.053
  584W        W64792  25.067  15.319  10.614
  585W        W64793  38.415   8.790   4.202
  586W        W64794   7.305  12.729   2.353
  587W        W64795  27.591  33.970   4.186
  588W        W64796  13.808  19.595  10.497
  589W        W64797   3.906   5.287   1.808
  590W        W64798  23.540  27.989  10.423
  591W        W64799  21.114  12.128   0.480
  592W        W64800  20.640  19.043   1.337
  593W        W64801  40.331  18.259   1.225
  594W        W64802  11.128  15.745   1.780
  595W        W64803  32.438   4.847  11.602
  596W        W64804   3.304  25.528  11.580
  597W        W64805   9.207   3.424   1.285
  598W        W64806  27.080   3.428  11.070
  599W        W64807  23.609  41.428   0.467
  600W        W64808   8.698  20.613  14.021
  601W        W64809  40.933  39.911   1.253
  602W        W64810  11.163  19.131  12.885
  603W        W64811  14.785  21.515   2.824
  604W        W64812  13.808  25.478  11.108
  605W        W64813   1.884  19.112   3.643
  606W        W64814   2.377  30.606   0.424
  607W        W64815  27.586  34.103  14.452
  608W        W64816  10.743   4.375  12.560
  609W        W64817  10.877  34.413   3.354
  610W        W64818  29.442  29.643   4.761
  611W        W64819  14.612  41.970  12.005
  612W        W64820  32.979  31.971   0.432
  613W        W64821  39.523  38.407   0.300
  614W        W64822  43.894  24.569   2.820
  615W        W64823  40.316   9.197  10.908
  616W        W64824  16.286   9.389   2.797
  617W        W64825  19.606  13.689  14.363
  618W        W64826  34.996  32.552  11.053
  619W        W64827  35.470  42.392  10.461
  620W        W64828   3.880  12.241   2.291
  621W        W64829  38.024   1.286  11.997
  622W        W64830  37.367  15.739   0.788
  623W        W64831  19.635  38.571   1.835
  624W        W64832  31.099  35.570   0.809
  625W        W64833  43.327  42.447  13.412
  626W        W64834   3.796  33.519   0.403
  627W        W64835   2.245  28.653  12.518
  628W        W64836  32.898  40.939   4.746
  629W        W64837  37.952  43.493   0.458
  630W        W64838  30.113   2.472  11.967
  631W        W64839  12.335  31.022  11.096
  632W        W64840  26.141  27.034   2.222
  633W        W64841  10.225  24.178   5.286
  634W        W64842   7.910  28.442  10.505
  635W        W64843  44.327  25.561  13.811
  636W        W64844   3.237  22.648   3.764
  637W        W64845  10.747  17.301   1.732
  638W        W64846  39.864  27.050  12.454
  639W        W64847  34.612   2.897   1.375
  640W        W64848  29.956   8.240  13.828
  641W        W64849  29.504   2.725   2.753
  642W        W64850  26.123  28.961   3.648
  643W        W64851  38.925  23.575   1.251
  644W        W64852  15.178  22.654  13.515
  645W        W64853  33.970   4.808   2.766
  646W        W64854  25.028  22.607   0.744
  647W        W64855   3.378  41.508   0.419
  648W        W64856   2.770  12.818   3.366
  649W        W64857  19.185  31.067   4.287
  650W        W64858  12.648  43.395  10.446
  651W        W64859  32.595  21.194  12.478
  652W        W64860   2.905  17.729  14.813
  653W        W64861   4.840  38.950  12.576
  654W        W64862   0.263   7.859   1.735
  655W        W64863  20.705   3.726   3.785
  656W        W64864  12.186  10.757   2.902
  657W        W64865  13.726  13.209   0.349
  658W        W64866  30.532  40.322  13.519
  659W        W64867  33.886  32.992   4.329
  660W        W64868   3.854   4.766   4.747
  661W        W64869  29.031  42.454  14.283
  662W        W64870  21.083  29.927  12.015
  663W        W64871  31.006  30.465   2.301
  664W        W64872   3.338  15.324  14.394
  665W        W64873  37.502  34.900  14.955
  666W        W64874  27.074   8.687   2.777
  667W        W64875  44.001  31.544   2.699
  668W        W64876  37.879  33.906   0.750
  669W        W64877  29.602   7.702   4.297
  670W        W64878  18.761  10.851  11.902
  671W        W64879   7.819   3.354   3.718
  672W        W64880  17.696   2.731  11.864
  673W        W64881  27.517  20.747   2.243
  674W        W64882  13.124  24.008  12.506
  675W        W64883   0.445  29.980   0.302
  676W        W64884  14.647  44.966   0.372
  677W        W64885  33.423  38.426  11.449
  678W        W64886  41.833   9.648   3.367
  679W        W64887  11.231  15.798  12.967
  680W        W64888  27.014   5.714   4.750
  681W        W64889  42.814  34.964   4.210
  682W        W64890   7.395  37.400   4.681
  683W        W64891  14.299   0.904  12.378
  684W        W64892   5.720  30.431   3.757
  685W        W64893  33.932  20.227   3.761
  686W        W64894  28.610  15.767   4.258
  687W        W64895  42.017  39.421   4.167
  688W        W64896  37.064  25.497  14.476
  689W        W64897  20.646  24.481  13.384
  690W        W64898   1.817  12.310   0.906
  691W        W64899  27.642  42.857  11.613
  692W        W64900  19.275  18.586   1.444
  693W        W64901  15.273  38.915   3.630
  694W        W64902  15.680  39.900  13.534
  695W        W64903  17.794   9.846  12.382
  696W        W64904  24.578  37.541   4.197
  697W        W64905  19.222  31.613   1.430
  698W        W64906   0.482  27.144   4.224
  699W        W64907  24.579  32.550  11.567
  700W        W64908  40.544   1.298  13.002
  701W        W64909  38.036  30.432  13.482
  702W        W64910  37.368  28.578   1.785
  703W        W64911  41.363  40.322   4.139
  704W        W64912   7.306  44.870  13.526
  705W        W64913  19.687  34.041   0.245
  706W        W64914  27.623  10.783  10.487
  707W        W64915  43.435  44.863  14.762
  708W        W64916  21.203  42.371  14.412
  709W        W64917   3.837  13.701  13.316
  710W        W64918  15.216  29.622   4.815
  711W        W64919  44.943  44.292  11.379
  712W        W64920  10.753  40.802  11.598
  713W        W64921  29.936  23.090   3.726
  714W        W64922  20.166   5.891  14.359
  715W        W64923  35.990  18.723   3.855
  716W        W64924  40.527   5.315   4.334
  717W        W64925   0.772  18.274  12.932
  718W        W64926  11.232   1.323  11.919
  719W        W64927   1.360   3.337  13.343
  720W        W64928  41.879  39.021   3.183
  721W        W64929  35.390  30.128   3.862
  722W        W64930  10.361  42.312  12.946
  723W        W64931  26.008  26.669  13.815
  724W        W64932   1.469   7.688  11.522
  725W        W64933  14.749  11.240  12.879
  726W        W64934  21.645  36.928   4.717
  727W        W64935  26.196  28.471   3.660
  728W        W64936  25.652   7.900   2.390
  729W        W64937   4.292  12.304  10.630
  730W        W64938  25.554  35.037  13.982
  731W        W64939   2.236  17.726   1.442
  732W        W64940  35.579  25.577   3.310
  733W        W64941  14.314  32.504   3.694
  734W        W64942  23.606  34.001   3.832
  735W        W64943  24.518  24.091   3.303
  736W        W64944  13.238  18.711   1.230
  737W        W64945  23.568  21.057   0.366
  738W        W64946  12.139  14.308  10.451
  739W        W64947  44.913  31.541   3.253
  740W        W64948  14.271   8.658  14.930
  741W        W64949   9.701   0.372   0.962
  742W        W64950  13.611  11.320  12.348
  743W        W64951  29.578  19.621   2.797
  744W        W64952   6.377  32.409  14.327
  745W        W64953  11.197  17.212   4.160
  746W        W64954   7.339  13.709   1.740
  747W        W64955  36.560  44.339  10.517
  748W        W64956  36.553  18.629   1.346
  749W        W64957  43.999  13.695  10.891
  750W        W64958  38.420  14.648  12.370
  751W        W64959  12.184  37.511   4.836
  752W        W64960  18.092  41.534  11.546
  753W        W64961  14.187   3.920  10.415
  754W        W64962  24.583   7.703   3.292
  755W        W64963  29.136  18.590  12.073
  756W        W64964  34.011  21.625   1.221
  757W        W64965  36.585  38.458   2.293
  758W        W64966  37.465  38.061   2.232
  759W        W64967  38.910   1.306  11.019
  760W        W64968  12.299  32.902  13.929
  761W        W64969  34.578  37.071  14.857
  762W        W64970  39.944  34.866  13.437
  763W        W64971  25.611  27.646  10.604
  764W        W64972   1.888   6.335   3.324
  765W        W64973  30.444  23.083   0.291
  766W        W64974   6.194  31.078  13.902
  767W        W64975  29.568  21.589  12.849
  768W        W64976  34.083  26.535   3.243
  769W        W64977  42.323  26.701  13.441
  770W        W64978   0.761  21.622  13.499
  771W        W64979  40.996  29.071  11.037
  772W        W64980  26.991  38.421   2.230
  773W        W64981   6.346  35.071  13.476
  774W        W64982  10.753  29.544   0.805
  775W        W64983  38.852  33.026   3.764
  776W        W64984  20.206  31.514   2.692
  777W        W64985  28.037  21.586  12.536
  778W        W64986  26.596  21.635   1.283
  779W        W64987   5.768  20.644   1.222
  780W        W64988  31.501  25.078   1.448
  781W        W64989  21.676   7.868   1.342
  782W        W64990  42.296  44.398  14.762
  783W        W64991  39.837  12.785  12.367
  784W        W64992  37.546  33.958  12.469
  785W        W64993  36.063  43.277   1.910
  786W        W64994  12.758  38.470   0.427
  787W        W64995  13.735   4.775  12.965
  788W        W64996  16.611  11.723   0.424
  789W        W64997  41.326  13.607   4.789
  790W        W64998   1.278  40.895   0.298
  791W        W64999  26.976   5.728  11.399
  792W        W65000  18.227   4.899   2.711
  793W        W65001  10.196  30.454   3.185
  794W        W65002   6.369  44.786  13.865
  795W        W65003  42.828  18.553  14.442
  796W        W65004  25.712  26.200   3.842
  797W        W65005   3.256  11.664   3.814
  798W        W65006  18.615  24.003  11.392
  799W        W65007  28.109  31.643  10.593
  800W        W65008  18.116   4.211   9.974
  801W        W65009  14.777  15.629   1.926
  802W        W65010  10.860  23.130   4.199
  803W        W65011  10.854   4.870   1.888
  804W        W65012   8.718   3.711  13.498
  805W        W65013  41.018  30.039  12.554
  806W        W65014  33.530  43.820  14.001
  807W        W65015  14.817   8.862   0.793
  808W        W65016   3.723  34.863  12.851
  809W        W65017   3.865  11.635   1.822
  810W        W65018  31.925  20.116  11.903
  811W        W65019  42.323  10.203  13.803
  812W        W65020  14.797  33.418   0.327
  813W        W65021  37.346   8.875   2.856
  814W        W65022   0.400  29.944  11.964
  815W        W65023   1.775  26.031  12.571
  816W        W65024  15.715  29.558   2.367
  817W        W65025  41.368  31.429   0.834
  818W        W65026  35.020  11.265  13.051
  819W        W65027  39.958  31.589   1.872
  820W        W65028  43.883  23.577  10.569
  821W        W65029  25.070  21.720  14.293
  822W        W65030  29.495  33.413  12.917
  823W        W65031  25.641  24.997   4.776
  824W        W65032  44.461  29.577  14.363
  825W        W65033  37.031  17.698  13.489
  826W        W65034  36.950  31.407  11.941
  827W        W65035  31.074  27.189  13.873
  828W        W65036  15.275  10.361   0.441
  829W        W65037  34.872  29.955  13.021
  830W        W65038  12.812   9.813   3.297
  831W        W65039  23.213  40.862   3.827
  832W        W65040  38.483  26.174  13.456
  833W        W65041  33.458  17.107   2.804
  834W        W65042   6.318  18.213   3.750
  835W        W65043   6.748  35.029   3.781
  836W        W65044  26.566   3.908  12.341
  837W        W65045  10.673   8.332  13.977
  838W        W65046  22.194  25.100   3.167
  839W        W65047  26.542  32.086   1.798
  840W        W65048  26.647  21.697  14.847
  841W        W65049  15.670  39.891   3.235
  842W        W65050  43.393  17.714   4.619
  843W        W65051  28.946  30.146  12.544
  844W        W65052  43.832  21.660  12.390
  845W        W65053  17.564  41.330  11.861
  846W        W65054   4.422  28.142  13.018
  847W        W65055   9.187   0.777   2.273
  848W        W65056  21.031  19.274   3.841
  849W        W65057   7.726  29.016   0.246
  850W        W65058  15.147  18.292  13.810
  851W        W65059  30.530  20.141   2.325
  852W        W65060   6.260   1.237   4.134
  853W        W65061   2.449  17.592   3.839
  854W        W65062  18.697  40.037  12.444
  855W        W65063  25.632  44.802   0.824
  856W        W65064  26.194  23.553  13.527
  857W        W65065  22.736  39.048   3.319
  858W        W65066  34.959   9.758   2.662
  859W        W65067  36.496  18.598   3.720
  860W        W65068  43.286  23.708   4.313
  861W        W65069   9.750   6.254   2.339
  862W        W65070  20.240  25.045   4.773
  863W        W65071  27.053  19.723   4.823
  864W        W65072  11.783  19.046  13.417
  865W        W65073  19.609  34.042   3.192
  866W        W65074  30.643  34.439   2.319
  867W        W65075  26.028  16.570   0.454
  868W        W65076  28.993   2.840  12.063
  869W        W65077  15.140  38.068   3.760
  870W        W65078  35.983   3.429  12.399
  871W        W65079   0.265  41.495  10.921
  872W        W65080   8.347  19.540   0.463
  873W        W65081  28.018   0.973   2.722
  874W        W65082  26.981  12.719   3.181
  875W        W65083  44.446   4.281  12.066
  876W        W65084  38.041  33.411  10.416
  877W        W65085  10.190  17.168  11.398
  878W        W65086  31.046  21.712   2.822
  879W        W65087  13.196  31.992   0.884
  880W        W65088  43.916  19.641  14.472
  881W        W65089   8.794  10.874  13.041
  882W        W65090  10.875  28.168   4.798
  883W        W65091  16.572  25.527  11.563
  884W        W65092  35.094  15.175  11.089
  885W        W65093  11.265  24.493   4.756
  886W        W65094   1.939  32.938  13.438
  887W        W65095   3.451   0.798  11.559
  888W        W65096  36.891  20.235   2.238
  889W        W65097  33.131  38.957   4.263
  890W        W65098  19.671  20.234   4.658
  891W        W65099   2.724  34.982   2.343
  892W        W65100  44.423  27.487   1.239
  893W        W65101   4.349  11.830  14.028
  894W        W65102   8.354  44.953   3.238
  895W        W65103   0.841   1.405  14.476
  896W        W65104   6.284  42.032   3.805
  897W        W65105  30.159  24.070   2.378
  898W        W65106  29.490  40.310   5.202
  899W        W65107  16.680  12.225   0.760
  900W        W65108  10.874  23.652   1.809
  901W        W65109  27.179  17.646  14.371
  902W        W65110  27.167   5.930  13.997
  903W        W65111  16.699  27.970   4.797
  904W        W65112  42.808  33.512   1.780
  905W        W65113   4.792   0.891   3.303
  906W        W65114   6.193  17.680   2.410
  907W        W65115   7.880  32.592  14.995
  908W        W65116  32.451  21.693  13.448
  909W        W65117  11.744  35.034   0.302
  910W        W65118  33.419  44.826  11.425
  911W        W65119  20.736  22.583  11.893
  912W        W65120  43.825  38.959  13.912
  913W        W65121   8.292  39.317   4.284
  914W        W65122   2.407  29.167   3.162
  915W        W65123  28.052  37.432   3.174
  916W        W65124  17.674   1.443   0.283
  917W        W65125  18.723  36.587  11.555
  918W        W65126   1.345  16.633   1.721
  919W        W65127  13.659  14.599   0.261
  920W        W65128  41.463  27.112   1.292
  921W        W65129  14.238  22.068  12.062
  922W        W65130  29.169  31.406  11.083
  923W        W65131  39.880  30.597  14.500
  924W        W65132  40.830  28.615   1.216
  925W        W65133  16.773  31.519  14.349
  926W        W65134  33.955   5.702   4.763
  927W        W65135  25.627  14.732   4.337
  928W        W65136  11.346  38.874   1.778
  929W        W65137  28.032  30.075   0.264
  930W        W65138  42.428  28.975   2.418
  931W        W65139   9.880   4.807  10.892
  932W        W65140   0.451  20.150  10.895
  933W        W65141   2.287  21.226  13.453
  934W        W65142  14.778  19.131   3.723
  935W        W65143  15.745  29.114  14.941
  936W        W65144  14.685  12.790   4.629
  937W        W65145   1.886  11.781  11.612
  938W        W65146  40.881  27.524   4.281
  939W        W65147  19.088  14.273  13.036
  940W        W65148   0.418  18.694   4.682
  941W        W65149  31.404  14.170  14.502
  942W        W65150  34.405  32.467   3.361
  943W        W65151  35.864  16.723   2.324
  944W        W65152  19.088  28.073  12.855
  945W        W65153  19.285  40.887   4.227
  946W        W65154  34.567   8.313   2.360
  947W        W65155  16.241   2.734  10.981
  948W        W65156  25.039  36.020   3.281
  949W        W65157   2.443  32.633   4.201
  950W        W65158  15.785  38.037  12.426
  951W        W65159  21.228  31.572  14.360
  952W        W65160  23.618  20.156  12.529
  953W        W65161   8.406  13.253   2.283
  954W        W65162  12.739  38.992   2.187
  955W        W65163  26.530  26.465   3.386
  956W        W65164  27.022   1.474  10.607
  957W        W65165  38.993  34.096   2.365
  958W        W65166  22.604  24.537  11.858
  959W        W65167  27.661  44.446   3.850
  960W        W65168   0.869   6.318   3.787
  961W        W65169  35.045  20.223  12.357
  962W        W65170   5.234  33.511  11.404
  963W        W65171  18.079   7.907   2.727
  964W        W65172  41.430  25.691   2.812
  965W        W65173  28.935  15.138   1.248
  966W        W65174  34.995  21.189  13.422
  967W        W65175   3.778   0.279  13.348
  968W        W65176  20.730  31.528  13.337
  969W        W65177  12.778  24.630  14.996
  970W        W65178  11.306  19.069   1.341
  971W        W65179  44.346   9.356   1.317
  972W        W65180   1.870   0.421  12.889
  973W        W65181  14.692   4.707  11.476
  974W        W65182  44.287  37.966   1.360
  975W        W65183  37.988   5.770  14.905
  976W        W65184  14.640   3.844   4.633
  977W        W65185  15.809   1.315  10.927
  978W        W65186  29.619  24.127   4.829
  979W        W65187   7.813  12.162   3.207
  980W        W65188  24.123  36.457   4.324
  981W        W65189   6.297  15.193  13.796
  982W        W65190  35.872  23.653  14.888
  983W        W65191  26.047   0.352  10.943
  984W        W65192   4.767  16.120   1.730
  985W        W65193  20.541  11.726  12.556
  986W        W65194  27.691   8.790   4.597
  987W        W65195  23.082  11.702   0.936
  988W        W65196  44.322  43.974  11.459
  989W        W65197  34.461   2.428   0.265
  990W        W65198  44.993  29.533   1.418
  991W        W65199   9.360  28.651   3.212
  992W        W65200  14.699  20.195   0.839
  993W        W65201  23.576  17.625  11.385
  994W        W65202   0.262  26.149  13.929
  995W        W65203  39.961  15.656   3.780
  996W        W65204  20.639  24.650  13.926
  997W        W65205  39.939  33.521  12.857
  998W        W65206  41.918  39.809   0.807
  999W        W65207  25.140   9.873   3.667
 1000W        W65208  42.283  43.329   0.746
 1001W        W65209   8.841   3.404  12.436
 1002W        W65210  39.894  39.901   3.818
 1003W        W65211  23.634  24.107   1.719
 1004W        W65212  20.135  27.120  13.393
 1005W        W65213  18.746   4.420  14.899
 1006W        W65214  41.007   0.407   2.714
 1007W        W65215  15.302   6.804  12.065
 1008W        W65216  39.390  29.942   1.791
 1009W        W65217  18.220  32.066   3.167
 1010W        W65218  28.643  42.500   2.895
 1011W        W65219  40.447  31.153   4.283
 1012W        W65220  16.778  15.641  13.940
 1013W        W65221   1.853  14.218  13.410
 1014W        W65222  10.295  32.423   4.277
 1015W        W65223  17.737   0.441   2.307
 1016W        W65224  36.501  30.438  11.467
 1017W        W65225   8.685  11.244   4.298
 1018W        W65226  16.251  13.246  14.777
 1019W        W65227  35.880  38.837   9.998
 1020W        W65228  41.832  18.073   0.391
 1021W        W65229  29.160  41.423  14.334
 1022W        W65230  13.727  16.743   0.893
 1023W        W65231  32.552  11.840   3.858
 1024W        W65232  11.665   4.788   4.206
 1025W        W65233  20.704  37.548   2.379
 1026W        W65234  31.568  28.064  12.433
 1027W        W65235  31.593  43.389  14.877
 1028W        W65236   0.325   9.768   1.856
 1029W        W65237   5.372   2.734  13.944
 1030W        W65238  11.322  39.483  12.341
 1031W        W65239  24.171  25.476   1.781
 1032W        W65240  10.849  24.004  11.986
 1033W        W65241  13.793  37.479   4.236
 1034W        W65242   9.267  19.211  12.380
 1035W        W65243  43.943  44.813  12.342
 1036W        W65244  22.129   5.310   2.410
 1037W        W65245  35.063  22.028  14.818
 1038W        W65246  11.843  10.152   9.976
 1039W        W65247  28.139  13.255   2.754
 1040W        W65248  14.758  42.322   4.229
 1041W        W65249  16.219   2.869   1.308
 1042W        W65250  25.105  23.071  12.440
 1043W        W65251  36.555  10.675   0.280
 1044W        W65252  16.770  34.917  11.049
 1045W        W65253   1.357  36.026   2.832
 1046W        W65254   8.249  31.559  13.425
 1047W        W65255  37.437  40.902   4.125
 1048W        W65256  14.803  11.367   0.331
 1049W        W65257  11.810  21.182  12.905
 1050W        W65258  22.532  10.831  11.532
 1051W        W65259  28.980  39.470   0.932
 1052W        W65260  25.688  26.645  13.946
 1053W        W65261   0.394  31.117  14.896
 1054W        W65262  10.319  19.631   3.758
 1055W        W65263  36.961  34.087  11.611
 1056W        W65264   4.236   0.405  11.434
 1057W        W65265   9.257  14.193   3.344
 1058W        W65266  33.024  31.544  10.508
 1059W        W65267  10.741  20.603  12.008
 1060W        W65268   7.388  33.441   3.792
 1061W        W65269   2.859  26.530   1.445
 1062W        W65270  40.436   5.786   5.184
 1063W        W65271  28.623  21.619   0.396
 1064W        W65272   2.244   7.671  13.421
 1065W        W65273  27.092   4.398   3.332
 1066W        W65274  38.865   5.709   1.904
 1067W        W65275  35.407  19.245  12.484
 1068W        W65276  12.158  28.616   2.686
 1069W        W65277  31.564  10.769   2.819
 1070W        W65278  34.462   1.742  14.468
 1071W        W65279   3.310   2.942  11.397
 1072W        W65280  38.450   3.941  11.419
 1073W        W65281  34.982   4.223  13.857
 1074W        W65282  32.047   1.792  11.883
 1075W        W65283  25.584   4.360   3.378
 1076W        W65284   4.292   7.205  10.549
 1077W        W65285  33.495  14.679   1.282
 1078W        W65286  33.457  23.133   4.346
 1079W        W65287  24.144  12.849   0.806
 1080W        W65288  20.187  13.283   1.751
 1081W        W65289  44.471  13.835  10.904
 1082W        W65290  26.147  29.426  14.793
 1083W        W65291  31.999  13.237  12.985
 1084W        W65292  20.181  16.680   0.832
 1085W        W65293  14.114  43.885   3.220
 1086W        W65294  32.442  37.976   3.305
 1087W        W65295  37.845  37.479   3.798
 1088W        W65296  33.455   7.378  11.901
 1089W        W65297  30.588  33.429  13.537
 1090W        W65298  21.183   2.264  10.450
 1091W        W65299  40.438  44.967  11.513
 1092W        W65300  20.609  39.325   1.729
 1093W        W65301  18.626  16.183  14.281
 1094W        W65302  19.195  43.768   1.278
 1095W        W65303   4.822  17.625   3.862
 1096W        W65304  18.615   1.973  11.943
 1097W        W65305  11.627   6.281   3.376
 1098W        W65306  44.479  16.239  12.994
 1099W        W65307  12.162  36.389  11.560
 1100W        W65308  25.585  26.539  10.549
 1101W        W65309  24.530  23.640   1.920
 1102W        W65310  23.555   2.356  10.505
 1103W        W65311  22.016   0.260   0.749
 1104W        W65312  42.852  40.899   3.323
 1105W        W65313  22.699  41.384  12.968
 1106W        W65314  41.804  42.991  13.053
 1107W        W65315  33.535  43.863   2.194
 1108W        W65316  38.507  22.055  14.833
 1109W        W65317  12.677  38.827  11.877
 1110W        W65318   2.230  33.020  12.922
 1111W        W65319  12.217  31.056  13.891
 1112W        W65320   6.195   6.712  13.936
 1113W        W65321   7.200  32.006  12.988
 1114W        W65322  12.739  17.601  11.464
 1115W        W65323  36.909  29.448  10.921
 1116W        W65324   6.831   6.333   2.739
 1117W        W65325  23.717  31.035   4.154
 1118W        W65326  14.754  21.690  10.529
 1119W        W65327  14.743   0.373   1.261
 1120W        W65328  15.788  11.756   4.697
 1121W        W65329  32.443  39.059  10.521
 1122W        W65330  25.112  10.762  10.948
 1123W        W65331  44.800  41.818  12.873
 1124W        W65332  44.913  35.392   2.391
 1125W        W65333   3.815   0.752   2.848
 1126W        W65334   5.914  39.850  14.510
 1127W        W65335  21.675  20.628   1.237
 1128W        W65336  27.174  12.275   4.182
 1129W        W65337  14.211  16.264   0.312
 1130W        W65338  41.516  16.625   4.806
 1131W        W65339  23.127   7.899   5.105
 1132W        W65340  23.057  23.205   2.737
 1133W        W65341  28.525   8.211   0.277
 1134W        W65342  28.522  15.677   4.755
 1135W        W65343  43.507  12.766   4.733
 1136W        W65344  35.460   2.942  13.361
 1137W        W65345  43.984  12.733   1.863
 1138W        W65346  23.044  38.563  14.275
 1139W        W65347   2.809   2.368  13.797
 1140W        W65348  36.842  34.512   0.479
 1141W        W65349   3.803  24.679  11.406
 1142W        W65350  28.040  11.722   2.410
 1143W        W65351  13.346  20.081  14.509
 1144W        W65352   8.297   6.828  11.461
 1145W        W65353  34.929   3.798  13.919
 1146W        W65354  42.939  27.070   0.879
 1147W        W65355  40.364  10.274   3.643
 1148W        W65356  31.510  32.563   3.267
 1149W        W65357   7.751   1.867   3.651
 1150W        W65358  35.390  42.515  13.977
 1151W        W65359  33.024  38.000  11.120
 1152W        W65360  23.732   4.733   4.157
 1153W        W65361  43.951  36.573   1.324
 1154W        W65362  29.082  38.404  12.572
 1155W        W65363   6.231  22.149  12.404
 1156W        W65364  31.407   1.819   3.381
 1157W        W65365   4.803  15.295  11.387
 1158W        W65366   2.335  43.834   4.275
 1159W        W65367  38.052  13.245  13.330
 1160W        W65368  12.633  33.914  13.027
 1161W        W65369  26.031  17.689  13.980
 1162W        W65370  18.607  28.666  14.928
 1163W        W65371  20.257  37.878   4.718
 1164W        W65372  10.875   2.403  14.971
 1165W        W65373  16.707  11.662  11.582
 1166W        W65374  42.002  32.034   0.855
 1167W        W65375  11.706  43.851  14.945
 1168W        W65376   8.344   9.715  13.003
 1169W        W65377  28.658  27.956   1.842
 1170W        W65378  40.396  19.250  10.120
 1171W        W65379  11.322  41.818   3.785
 1172W        W65380  32.119  10.361  11.443
 1173W        W65381  35.910  38.889   1.837
 1174W        W65382  21.017  20.249  10.456
 1175W        W65383  13.660  37.410  10.901
 1176W        W65384  34.540  13.197   1.831
 1177W        W65385   9.295   3.349  11.873
 1178W        W65386  21.114  33.124  12.891
 1179W        W65387  35.004  28.039  12.398
 1180W        W65388  19.259  34.600   1.799
 1181W        W65389  30.536  40.891  13.964
 1182W        W65390  16.753   3.252  10.553
 1183W        W65391   8.798  22.712   4.640
 1184W        W65392   4.345  26.174  14.873
 1185W        W65393  27.105  23.002   0.727
 1186W        W65394   6.771  18.057   2.350
 1187W        W65395  38.051  40.897   2.768
 1188W        W65396  28.141  24.196   5.243
 1189W        W65397  30.161   9.217   3.285
 1190W        W65398  29.134  21.076  14.790
 1191W        W65399  33.447  24.577   2.365
 1192W        W65400  31.127  15.113  13.022
 1193W        W65401  43.502   5.385   3.336
 1194W        W65402  22.727  25.627   3.318
 1195W        W65403  17.650  41.985  14.488
 1196W        W65404   8.212  19.702  14.361
 1197W        W65405   0.895  23.541   0.421
 1198W        W65406   3.806  30.527  11.509
 1199W        W65407  14.240  15.237   3.385
 1200W        W65408  15.146  36.010  13.459
 1201W        W65409  25.112  11.155   0.299
 1202W        W65410  31.905  30.603  12.050
 1203W        W65411  10.743  28.624  13.396
 1204W        W65412  36.368  21.700   3.322
 1205W        W65413   2.818   3.766  10.011
 1206W        W65414  38.065   0.411   1.765
 1207W        W65415  20.560  21.211   3.678
 1208W        W65416  32.478   3.221   3.649
 1209W        W65417   2.770  36.398  13.359
 1210W        W65418   1.424  19.136   4.280
 1211W        W65419  17.711  43.910  10.460
 1212W        W65420   9.303  15.316  13.983
 1213W        W65421   6.853   1.252  14.915
 1214W        W65422  11.158  30.088   4.189
 1215W        W65423  20.072   0.355   2.302
 1216W        W65424  14.238  12.829  14.337
 1217W        W65425   2.796  31.482  10.466
 1218W        W65426  27.634   3.290  13.367
 1219W        W65427  27.123   0.348   0.348
 1220W        W65428  30.443  39.349  14.833
 1221W        W65429  22.543  15.167  10.518
 1222W        W65430  26.969  33.441  12.883
 1223W        W65431  21.257  24.680   1.705
 1224W        W65432  44.978  43.857  12.834
 1225W        W65433  39.422   8.775  12.029
 1226W        W65434  21.195  27.171  14.979
 1227W        W65435  36.483  19.248   4.706
 1228W        W65436  39.434   7.693  11.109
 1229W        W65437  33.015  25.202   2.248
 1230W        W65438  38.886  22.534   1.356
 1231W        W65439  30.098  42.836  14.979
 1232W        W65440  11.754  18.739   1.219
 1233W        W65441  13.696  35.489   0.829
 1234W        W65442   8.400   0.798   2.779
 1235W        W65443   9.280   9.812  11.861
 1236W        W65444  10.151  30.555   2.292
 1237W        W65445  27.571  11.336  13.452
 1238W        W65446  15.183  19.546  10.626
 1239W        W65447  31.567  28.478   4.635
 1240W        W65448  43.305  33.401   0.301
 1241W        W65449  22.586  33.083  10.532
 1242W        W65450  19.609  33.924   3.774
 1243W        W65451   0.806  20.042   2.377
 1244W        W65452   4.269  40.915  11.019
 1245W        W65453  19.635  16.316  12.062
 1246W        W65454   5.743   8.355  10.931
 1247W        W65455  18.710  25.972  12.885
 1248W        W65456  38.970   6.182  14.352
 1249W        W65457  30.585  24.977  14.478
 1250W        W65458  23.142  15.273   2.283
 1251W        W65459  32.118  31.044  14.315
 1252W        W65460   7.716  26.668  10.930
 1253W        W65461   2.464  26.633   4.723
 1254W        W65462  22.199  34.921  11.935
 1255W        W65463  37.392  18.600   2.202
 1256W        W65464   6.744  36.559  11.436
 1257W        W65465  33.384  24.508   9.988
 1258W        W65466   6.204  10.261  14.004
 1259W        W65467   9.786  15.147   9.629
 1260W        W65468  36.484  10.283  11.421
 1261W        W65469  28.480   8.328  13.020
 1262W        W65470  14.207   5.840  12.059
 1263W        W65471  11.288   6.746   3.279
 1264W        W65472  16.682   5.332  11.029
 1265W        W65473   1.439  31.510   4.232
 1266W        W65474  19.280  38.930   2.694
 1267W        W65475  15.801   6.391   4.799
 1268W        W65476  44.384  27.055  13.845
 1269W        W65477  44.380  28.479  14.428
 1270W        W65478  29.547  23.530   2.209
 1271W        W65479  43.799  16.140  13.470
 1272W        W65480  15.265   0.880   0.909
 1273W        W65481   8.318  39.474  14.892
 1274W        W65482  23.527  33.430  14.466
 1275W        W65483   7.176  27.065   1.350
 1276W        W65484  42.414  26.208   2.807
 1277W        W65485  16.124  35.598   2.178
 1278W        W65486  27.671  21.215  10.421
 1279W        W65487  17.770   8.363  13.855
 1280W        W65488  26.649  20.676  14.947
 1281W        W65489  19.698  22.036  12.057
 1282W        W65490  25.121  42.847   9.938
 1283W        W65491  33.525  19.081  11.445
 1284W        W65492  44.951   8.182   4.743
 1285W        W65493  42.867  18.723   3.811
 1286W        W65494  16.313  19.723  11.515
 1287W        W65495   5.900  42.318  10.557
 1288W        W65496  18.699  20.115  10.415
 1289W        W65497   6.793  15.107  12.051
 1290W        W65498  22.134  27.659  12.388
 1291W        W65499  16.596  31.958  10.973
 1292W        W65500  31.468  17.653   0.840
 1293W        W65501   3.921  28.522   0.338
 1294W        W65502  36.952   5.308  11.440
 1295W        W65503  30.422  35.891  11.524
 1296W        W65504   6.371  15.093  10.902
 1297W        W65505  39.014  35.091   3.225
 1298W        W65506  33.083  32.020  14.762
 1299W        W65507  14.602  21.669  11.913
 1300W        W65508  18.710  24.069  13.986
 1301W        W65509  16.073  31.001   4.782
 1302W        W65510  38.428   1.959  14.961
 1303W        W65511  23.111  12.776  11.385
 1304W        W65512   5.401  27.508   0.314
 1305W        W65513   1.824  12.242  13.045
 1306W        W65514  27.022  19.690  12.861
 1307W        W65515  24.030  33.478   0.286
 1308W        W65516  10.847  27.609  13.321
 1309W        W65517  17.714  43.455  11.479
 1310W        W65518  39.848   9.250   3.780
 1311W        W65519  41.989  13.195   1.309
 1312W        W65520  19.735  19.714  13.465
 1313W        W65521  23.037   5.743   4.679
 1314W        W65522  33.575  20.742   4.285
 1315W        W65523  17.592  42.922   3.831
 1316W        W65524  18.615  24.168   0.744
 1317W        W65525  34.466  13.816   4.148
 1318W        W65526  34.951   9.833  12.924
 1319W        W65527  42.488  30.474  10.617
 1320W        W65528   4.906  34.949  12.904
 1321W        W65529  39.437  31.956   0.253
 1322W        W65530  44.982  14.835  14.326
 1323W        W65531  42.991   1.314   4.143
 1324W        W65532  19.606  32.015  14.775
 1325W        W65533   1.267  14.327   3.206
 1326W        W65534   0.263  22.609  11.056
 1327W        W65535  39.885   1.967   3.809
 1328W        W65536  11.191   6.697  11.898
 1329W        W65537   8.163   3.898   4.709
 1330W        W65538  44.460  28.649   1.854
 1331W        W65539  40.412   0.837   3.385
 1332W        W65540  40.031  35.079  10.437
 1333W        W65541  17.783  37.474  14.874
 1334W        W65542  24.686  22.172   2.284
 1335W        W65543  34.431   5.692   3.276
 1336W        W65544  11.311   4.282   1.929
 1337W        W65545  29.644  30.488   1.359
 1338W        W65546  27.451  39.837   0.937
 1339W        W65547  29.469  28.100  14.361
 1340W        W65548  38.880  19.561  14.365
 1341W        W65549  20.252  39.557  14.279
 1342W        W65550  22.668  32.444  12.373
 1343W        W65551  41.936  30.516  11.454
 1344W        W65552  22.582  23.196   0.773
 1345W        W65553  37.350  35.511  14.382
 1346W        W65554   4.265  32.957   0.818
 1347W        W65555  26.187  11.343   2.765
 1348W        W65556  23.731  40.414   0.459
 1349W        W65557  32.615  31.088  14.490
 1350W        W65558   3.247  26.643  12.380
 1351W        W65559  15.098   9.328   2.717
 1352W        W65560  41.405  13.240  14.282
 1353W        W65561  42.829  25.981   2.867
 1354W        W65562   4.333  10.811   1.210
 1355W        W65563  42.875  25.072  14.385
 1356W        W65564  22.660  18.263   1.292
 1357W        W65565  22.061  17.297   2.180
 1358W        W65566   1.919  38.891   2.727
 1359W        W65567  29.002   9.800  14.993
 1360W        W65568  32.616  34.511   3.712
 1361W        W65569  21.177  38.889  10.582
 1362W        W65570  37.472  21.729   0.290
 1363W        W65571  43.862   4.809   2.206
 1364W        W65572  34.075  22.720  11.598
 1365W        W65573  37.374  20.633  13.806
 1366W        W65574   4.239  41.373  14.789
 1367W        W65575  21.238  18.616   9.604
 1368W        W65576   5.286  30.547   1.798
 1369W        W65577  37.553  33.115  14.362
 1370W        W65578  43.385  41.411  13.373
 1371W        W65579  35.922   0.905  11.438
 1372W        W65580   7.684  18.062  11.583
 1373W        W65581  24.979   6.880  10.528
 1374W        W65582   7.677  31.024   3.186
 1375W        W65583  35.574  36.927  12.036
 1376W        W65584  44.898  21.025   3.173
 1377W        W65585  30.643  35.464   0.378
 1378W        W65586   9.149  43.276   0.385
 1379W        W65587  24.567  30.122   0.361
 1380W        W65588  23.057  37.869  11.911
 1381W        W65589  32.577  35.482   1.301
 1382W        W65590  24.519   2.764  14.028
 1383W        W65591  40.980  21.232  14.355
 1384W        W65592  26.005  41.461  11.555
 1385W        W65593  16.254  22.039  14.435
 1386W        W65594  24.161  17.797   0.941
 1387W        W65595  32.079  19.183   4.149
 1388W        W65596  35.501  30.960  10.499
 1389W        W65597   2.832   6.414  13.929
 1390W        W65598  33.421  39.939   0.804
 1391W        W65599   1.309  15.173   0.950
 1392W        W65600  35.396  15.767  12.463
 1393W        W65601   8.229  21.579   3.762
 1394W        W65602  41.932   2.392   0.778
 1395W        W65603  22.232  36.904  11.413
 1396W        W65604  29.557   6.678  12.931
 1397W        W65605  17.675  12.361   4.760
 1398W        W65606  35.882  27.138   1.832
 1399W        W65607  40.381  43.829  13.891
 1400W        W65608  29.983  19.137  13.360
 1401W        W65609  40.960  40.865  11.514
 1402W        W65610  32.568  13.695   5.602
 1403W        W65611  37.086   2.945   4.672
 1404W        W65612  28.553  44.959  12.486
 1405W        W65613  15.232  44.790  14.775
 1406W        W65614  34.106  32.006   3.667
 1407W        W65615  44.966  32.394  13.490
 1408W        W65616  33.509   7.836   4.240
 1409W        W65617  12.224   3.220   2.682
 1410W        W65618  31.030  23.567  10.593
 1411W        W65619  11.777   8.883  10.923
 1412W        W65620  30.164   9.811   2.870
 1413W        W65621  24.995  33.399  11.946
 1414W        W65622  30.643   2.437  10.453
 1415W        W65623  10.854   8.774   2.723
 1416W        W65624  39.524  10.719   0.921
 1417W        W65625  38.419   0.345   4.802
 1418W        W65626   6.682   2.270  10.570
 1419W        W65627  42.874   0.248   1.766
 1420W        W65628  21.532  32.137  12.388
 1421W        W65629  18.770  26.175  14.889
 1422W        W65630   6.210  20.149  11.372
 1423W        W65631  11.727  39.827  13.488
 1424W        W65632  38.436  42.480  13.332
 1425W        W65633  23.618  14.339   4.733
 1426W        W65634  22.090  24.113   0.880
 1427W        W65635  29.153  39.905   0.890
 1428W        W65636  28.072  13.603  11.406
 1429W        W65637  32.006  25.142   2.218
 1430W        W65638   7.261  41.349   1.328
 1431W        W65639  16.736   4.931  14.324
 1432W        W65640  20.734  18.161  12.404
 1433W        W65641   7.835  10.672  14.352
 1434W        W65642  34.451  36.425  12.962
 1435W        W65643  17.162  14.231  10.155
 1436W        W65644  18.664  12.195  11.571
 1437W        W65645  26.573  22.688  10.992
 1438W        W65646  25.599  29.136  14.908
 1439W        W65647  23.505  42.341   3.706
 1440W        W65648  18.233   0.271  13.856
 1441W        W65649  13.810  42.964  13.448
 1442W        W65650  14.596  11.708   2.341
 1443W        W65651  37.086  25.074   3.752
 1444W        W65652   9.778   8.765   1.347
 1445W        W65653  30.450  16.716   5.118
 1446W        W65654  42.848  29.074   1.932
 1447W        W65655  37.903  39.822   0.300
 1448W        W65656  13.776  18.553   0.791
 1449W        W65657  23.628  43.491  13.371
 1450W        W65658  42.339  23.511  11.924
 1451W        W65659   2.241  14.175   0.332
 1452W        W65660   0.448  32.625   4.150
 1453W        W65661  44.451   8.716  12.389
 1454W        W65662  34.062  30.605  14.923
 1455W        W65663  40.360   0.254   3.673
 1456W        W65664  41.504  44.779   3.852
 1457W        W65665  38.075  20.695   3.350
 1458W        W65666  12.834  36.864   3.202
 1459W        W65667  12.792  23.674  14.429
 1460W        W65668  20.664   5.933  14.451
 1461W        W65669   3.724  12.624   1.709
 1462W        W65670   4.259  33.970   3.654
 1463W        W65671  11.136  42.019  13.402
 1464W        W65672   2.755  37.417  10.117
 1465W        W65673  28.110  22.020   1.278
 1466W        W65674  25.060   3.757   1.336
 1467W        W65675  44.760   4.931   0.777
 1468W        W65676   3.409  15.780  11.942
 1469W        W65677  22.627   4.908  12.522
 1470W        W65678  10.255   1.409  11.049
 1471W        W65679  30.072  11.832  14.785
 1472W        W65680  24.722  28.595   0.295
 1473W        W65681  29.943  27.130  13.350
 1474W        W65682  31.588  43.789   1.842
 1475W        W65683  14.638  26.126   4.744
 1476W        W65684  17.275  25.964  13.847
 1477W        W65685  10.755  10.347  11.489
 1478W        W65686  27.640  36.436  12.945
 1479W        W65687   0.445  26.120  14.853
 1480W        W65688   8.369  39.404   3.750
 1481W        W65689   7.677  20.074   1.224
 1482W        W65690  32.987  34.873  11.566
 1483W        W65691  26.598   1.950  13.513
 1484W        W65692   1.904   1.974   0.801
 1485W        W65693  23.702  25.134  10.579
 1486W        W65694   9.849  35.893   3.252
 1487W        W65695  18.123   5.754   1.804
 1488W        W65696  31.464  18.160  10.524
 1489W        W65697  33.580  26.592   3.838
 1490W        W65698  16.575  24.056   0.380
 1491W        W65699  26.203  29.126   3.215
 1492W        W65700  15.601   1.436  11.969
 1493W        W65701  24.541   3.409   2.208
 1494W        W65702   7.331  42.808   1.314
 1495W        W65703  13.259   1.788   0.414
 1496W        W65704  42.811  39.814   0.834
 1497W        W65705   8.399   0.478  12.891
 1498W        W65706  25.216  22.523   0.280
 1499W        W65707  12.792  19.560  12.953
 1500W        W65708  38.499  32.042  13.921
 1501W        W65709  27.535  44.279  14.304
 1502W        W65710  28.583  16.140  12.501
 1503W        W65711   9.758  15.101  12.026
 1504W        W65712  12.777   1.350  10.901
 1505W        W65713  17.100  36.985   3.832
 1506W        W65714  28.004  17.110   4.140
 1507W        W65715  17.119   5.202   0.907
 1508W        W65716  28.575  31.615  10.905
 1509W        W65717  11.664   2.721   3.211
 1510W        W65718  11.315  32.902  14.931
 1511W        W65719  23.028  13.704  10.913
 1512W        W65720   3.928   1.834   1.782
 1513W        W65721  27.640  29.163  10.531
 1514W        W65722  24.195   9.249  10.452
 1515W        W65723  16.686  22.221   4.147
 1516W        W65724  28.551  43.302  12.571
 1517W        W65725  44.304  42.422  14.301
 1518W        W65726  34.063  18.231  12.537
 1519W        W65727  41.841  25.016   2.230
 1520W        W65728   0.316  23.649   4.705
 1521W        W65729  38.554  37.402   5.305
 1522W        W65730   2.879   6.841   3.638
 1523W        W65731  33.921  36.404  10.429
 1524W        W65732  20.178  43.423  10.489
 1525W        W65733  27.106   5.362  10.478
 1526W        W65734  14.279   8.216   4.600
 1527W        W65735  13.250   5.194  12.096
 1528W        W65736  24.606   2.432   1.219
 1529W        W65737   0.345  32.971  13.378
 1530W        W65738   3.941  34.457  11.868
 1531W        W65739  12.834  40.808  10.433
 1532W        W65740  40.953  22.655   2.877
 1533W        W65741  29.971  11.305   3.705
 1534W        W65742  20.237  35.377  13.452
 1535W        W65743  20.061  27.054   4.718
 1536W        W65744  18.051   6.798   0.779
 1537W        W65745   8.221  18.568  11.084
 1538W        W65746  17.275  22.681   0.841
 1539W        W65747   8.230  22.731  12.535
 1540W        W65748  26.062  15.239  12.855
 1541W        W65749   7.280  31.550   2.391
 1542W        W65750  19.606  44.813   4.650
 1543W        W65751   2.781  16.104  13.384
 1544W        W65752  38.844  35.054   1.695
 1545W        W65753  26.663  33.965  14.410
 1546W        W65754  10.213  25.180   1.779
 1547W        W65755  27.120  15.122  10.895
 1548W        W65756  19.271  27.174   3.767
 1549W        W65757  14.667  17.589  10.487
 1550W        W65758  21.060  36.073  10.892
 1551W        W65759  36.997  37.865   0.257
 1552W        W65760  43.770   1.929  14.497
 1553W        W65761  26.495  42.939   3.306
 1554W        W65762  21.649  22.516   4.298
 1555W        W65763  31.611   4.826   0.814
 1556W        W65764  11.303  37.886  12.483
 1557W        W65765  19.200   6.825   3.149
 1558W        W65766   3.723  42.857   2.900
 1559W        W65767   6.808  11.627   1.888
 1560W        W65768   9.668  39.453  10.489
 1561W        W65769  34.572   1.476  14.885
 1562W        W65770  15.180  28.524  13.316
 1563W        W65771  13.289  22.053   3.286
 1564W        W65772   1.353  38.392  12.442
 1565W        W65773  12.203  41.967  10.936
 1566W        W65774   9.833   1.923  14.006
 1567W        W65775  19.226  26.052   4.325
 1568W        W65776  10.714  27.963   2.753
 1569W        W65777  11.670  12.242   4.599
 1570W        W65778   6.327   0.946  13.968
 1571W        W65779  27.940  39.816  11.511
 1572W        W65780  40.350  40.870  14.298
 1573W        W65781  30.911  40.480  11.527
 1574W        W65782  32.929  12.300  13.544
 1575W        W65783  41.002   7.372  12.929
 1576W        W65784  29.053  31.496   0.347
 1577W        W65785  26.113  32.890  12.973
 1578W        W65786  39.472   7.757   2.297
 1579W        W65787  39.853  12.781   4.748
 1580W        W65788  31.037  19.172  14.768
 1581W        W65789  28.147  13.130  10.629
 1582W        W65790  12.191   2.873   3.834
 1583W        W65791  20.751  14.782   4.609
 1584W        W65792   5.780  33.611  13.531
 1585W        W65793   1.912  37.989   4.177
 1586W        W65794  44.854  26.178   4.829
 1587W        W65795  27.036   3.942   3.725
 1588W        W65796  25.651  15.168  11.891
 1589W        W65797  29.945   1.305   2.334
 1590W        W65798  39.366  22.077   2.664
 1591W        W65799  21.125  19.173  12.008
 1592W        W65800  27.671  15.721   1.303
 1593W        W65801  30.644  20.241   4.278
 1594W        W65802  12.846  25.688   0.738
 1595W        W65803  37.400  13.742  12.956
 1596W        W65804  32.945  43.349  13.019
 1597W        W65805  29.541  34.485   2.679
 1598W        W65806  44.371  44.338   4.223
 1599W        W65807  32.104  19.711  13.808
 1600W        W65808  22.701  35.089  13.959
 1601W        W65809  37.833   4.256  12.829
 1602W        W65810  34.952  24.177   2.707
 1603W        W65811  28.989  39.030  11.927
 1604W        W65812  42.986  13.227   2.336
 1605W        W65813  28.613   5.786  10.974
 1606W        W65814   5.195  40.907   4.691
 1607W        W65815  37.947  35.598  14.345
 1608W        W65816  23.580  16.103  14.998
 1609W        W65817  19.715  23.072   3.295
 1610W        W65818  21.147  34.599  12.339
 1611W        W65819  16.794  16.697  13.308
 1612W        W65820  42.898  29.094  11.601
 1613W        W65821   4.363  16.255  10.484
 1614W        W65822  16.206  30.095  13.442
 1615W        W65823  10.344  41.861  11.595
 1616W        W65824  18.721  17.256   2.815
 1617W        W65825  36.445  19.663  11.566
 1618W        W65826  22.698  28.160  10.572
 1619W        W65827   2.454   0.750   0.412
 1620W        W65828  43.857   7.219  10.964
 1621W        W65829  43.277  27.970   0.948
 1622W        W65830   3.356   0.877   3.328
 1623W        W65831  30.489  36.394  14.313
 1624W        W65832   9.780  15.228   5.610
 1625W        W65833  11.137  34.935   0.423
 1626W        W65834  38.885   2.870  12.995
 1627W        W65835  22.572  21.019   5.260
 1628W        W65836   5.243   3.325   3.703
 1629W        W65837  30.024   8.243  14.395
 1630W        W65838  24.536  36.352  14.983
 1631W        W65839  20.157  20.657  10.981
 1632W        W65840  32.071  24.127  11.094
 1633W        W65841  42.012  13.821   2.718
 1634W        W65842  10.797  12.700  14.437
 1635W        W65843  38.565  27.640   0.754
 1636W        W65844   4.730  13.728  10.470
 1637W        W65845  30.114  14.748  12.435
 1638W        W65846  38.461  41.872  12.918
 1639W        W65847  25.570  37.451   3.280
 1640W        W65848  22.574   4.358   1.714
 1641W        W65849  36.929  37.498  13.890
 1642W        W65850  22.220   9.819  11.059
 1643W        W65851  24.220  28.033  14.380
 1644W        W65852  32.922  21.526   1.731
 1645W        W65853  26.109  25.475  12.570
 1646W        W65854  24.677  19.240   3.820
 1647W        W65855  36.910  36.865   4.661
 1648W        W65856  14.686   6.791  12.056
 1649W        W65857  23.240   9.774   0.863
 1650W        W65858  13.300   2.468  13.049
 1651W        W65859  32.989   4.767  10.476
 1652W        W65860  22.099  17.751   2.689
 1653W        W65861  13.218  25.643  13.505
 1654W        W65862  17.580  32.408   4.347
 1655W        W65863  24.610   3.823   2.887
 1656W        W65864  22.028  37.859  14.955
 1657W        W65865  27.000  42.289  14.464
 1658W        W65866  18.597   2.308   2.827
 1659W        W65867   9.882  35.472  11.041
 1660W        W65868  28.081  22.527  12.463
 1661W        W65869  22.097  14.325   1.417
 1662W        W65870  21.717  13.791   2.875
 1663W        W65871  40.343  13.329   4.167
 1664W        W65872  33.535  38.534   0.736
 1665W        W65873  11.692  16.673  12.512
 1666W        W65874   0.951  25.188  13.934
 1667W        W65875  23.214  26.046   2.858
 1668W        W65876  41.907  25.610  13.346
 1669W        W65877  33.078  12.815  14.820
 1670W        W65878  20.673  38.979   2.216
 1671W        W65879  16.664  32.036  14.994
 1672W        W65880  28.143  22.552   0.863
 1673W        W65881   7.238   4.713  13.049
 1674W        W65882   8.325   7.323   2.697
 1675W        W65883  31.900  34.600  13.809
 1676W        W65884  14.270  23.584  14.477
 1677W        W65885  34.498  25.124   0.757
 1678W        W65886  37.024   6.311  12.864
 1679W        W65887  42.946  38.343  11.495
 1680W        W65888  44.944   2.286   3.184
 1681W        W65889  35.021  32.084   0.747
 1682W        W65890  43.990  38.049  10.962
 1683W        W65891   6.907  34.602  13.982
 1684W        W65892  34.498   4.833  11.032
 1685W        W65893  27.121  18.693  10.487
 1686W        W65894  21.628  13.167   2.255
 1687W        W65895  11.800  13.327  14.788
 1688W        W65896  25.592  12.722   5.105
 1689W        W65897  22.121   0.747  10.625
 1690W        W65898  24.549  44.863   2.841
 1691W        W65899  12.842   3.391  11.106
 1692W        W65900  36.495   5.394   2.417
 1693W        W65901  39.011  30.060   0.249
 1694W        W65902   3.746  18.648   4.625
 1695W        W65903   6.852  38.400  13.046
 1696W        W65904  41.358  19.541   1.896
 1697W        W65905  28.005  40.415  10.446
 1698W        W65906   9.328   3.239  14.779
 1699W        W65907  14.716  14.741   2.779
 1700W        W65908   3.857   1.302   1.241
 1701W        W65909  41.368  20.747   1.337
 1702W        W65910  29.594  36.019   1.930
 1703W        W65911  32.540   9.734  14.383
 1704W        W65912  37.406  12.645  13.872
 1705W        W65913  37.392  39.497   2.212
 1706W        W65914   7.276  27.962  14.026
 1707W        W65915  27.526  24.167  12.395
 1708W        W65916  20.565  25.596   4.315
 1709W        W65917  34.610  27.023  14.829
 1710W        W65918   3.340  16.109   4.762
 1711W        W65919  18.690   8.838   1.346
 1712W        W65920  33.453  26.496  14.982
 1713W        W65921  40.922   7.217  14.332
 1714W        W65922  26.196  33.427   3.322
 1715W        W65923  33.393  42.317  11.503
 1716W        W65924  19.580   1.300   1.925
 1717W        W65925  23.588  23.100   0.859
 1718W        W65926   4.833   5.311   1.830
 1719W        W65927  27.655  38.482  11.601
 1720W        W65928  27.542   0.469   3.657
 1721W        W65929   4.932   9.800   2.895
 1722W        W65930   7.317  24.142   3.195
 1723W        W65931  23.637  40.346   4.330
 1724W        W65932  30.026  35.508   3.344
 1725W        W65933  10.167   4.372   2.841
 1726W        W65934   6.363  20.679  10.409
 1727W        W65935  41.939  41.495  13.519
 1728W        W65936  15.698  32.968  14.769
 1729W        W65937   1.860  42.952   1.882
 1730W        W65938  34.119  17.638   4.805
 1731W        W65939  25.197   2.843  11.401
 1732W        W65940  25.480   7.249  14.936
 1733W        W65941   0.360  21.086  11.454
 1734W        W65942  26.524  11.350  13.924
 1735W        W65943  29.635  17.730  12.481
 1736W        W65944  39.454  21.676  14.282
 1737W        W65945   5.835   5.692  10.479
 1738W        W65946   6.868  18.155   3.148
 1739W        W65947  12.184  14.776   3.195
 1740W        W65948  28.527   5.868   4.642
 1741W        W65949   9.805  18.056  14.794
 1742W        W65950  30.955  30.639   0.281
 1743W        W65951  26.667  35.093  12.531
 1744W        W65952  25.633  27.051   2.855
 1745W        W65953  36.891   7.406  10.911
 1746W        W65954  37.469  34.108   0.453
 1747W        W65955  24.221  38.533  12.499
 1748W        W65956  23.239  33.045   2.370
 1749W        W65957  41.856   5.235  13.465
 1750W        W65958  33.623   5.272  10.516
 1751W        W65959  36.402  27.579  10.623
 1752W        W65960  36.549   6.314  12.879
 1753W        W65961  35.552  21.718   1.865
 1754W        W65962  30.618  10.737  10.974
 1755W        W65963  38.907  41.850  10.910
 1756W        W65964   6.898  23.063   3.693
 1757W        W65965  33.445  37.901   0.242
 1758W        W65966  20.753   3.769  13.341
 1759W        W65967  44.907  12.293  12.555
 1760W        W65968  31.903  44.830  13.375
 1761W        W65969   4.880  21.045   1.405
 1762W        W65970  27.959   4.230  12.830
 1763W        W65971  28.661  39.848   0.315
 1764W        W65972   6.256  19.285   4.772
 1765W        W65973  38.336  33.085   2.849
 1766W        W65974   8.699  14.599  12.374
 1767W        W65975  37.338  13.795   0.829
 1768W        W65976  23.520   3.459  10.472
 1769W        W65977   5.854  32.483   1.927
 1770W        W65978  17.146  21.039  14.798
 1771W        W65979   1.819  35.892   3.740
 1772W        W65980   6.714  29.921  14.347
 1773W        W65981  38.004  43.946  13.801
 1774W        W65982  30.106  16.809  12.575
 1775W        W65983  34.083  15.306   3.234
 1776W        W65984  19.757  28.506  11.105
 1777W        W65985  34.072   0.832  14.336
 1778W        W65986  32.601  17.129   2.695
 1779W        W65987  11.622  38.958  14.407
 1780W        W65988  16.162  37.015   3.242
 1781W        W65989  25.663  35.085  11.921
 1782W        W65990  13.637  15.811   0.476
 1783W        W65991  32.975  36.096   3.728
 1784W        W65992  10.360  24.156  14.506
 1785W        W65993  31.431  13.788  14.486
 1786W        W65994  31.096  35.098   1.787
 1787W        W65995  19.660  13.618   4.722
 1788W        W65996  40.813   9.766  12.999
 1789W        W65997  25.215   7.784  12.923
 1790W        W65998  38.407  30.049   0.393
 1791W        W65999  33.413  16.112  13.506
 1792W        W66000  15.099  32.014  10.572
 1793W        W66001  42.451   1.300  13.347
 1794W        W66002   2.279  11.218  14.398
 1795W        W66003  36.456  39.352   4.791
 1796W        W66004  17.253  22.537   3.212
 1797W        W66005  34.086  16.658  12.942
 1798W        W66006  17.129   4.707  13.930
 1799W        W66007  27.572  28.669   1.312
 1800W        W66008  39.322  33.992   3.233
 1801W        W66009  28.976  37.405  14.771
 1802W        W66010  43.309  12.763   1.722
 1803W        W66011  13.652   3.307  12.396
 1804W        W66012  44.879  19.115   1.710
 1805W        W66013  41.849  11.809   3.292
 1806W        W66014  12.170  30.106  10.504
 1807W        W66015  18.788  16.261  11.967
 1808W        W66016   6.320  28.453  13.806
 1809W        W66017  22.138   5.696   4.780
 1810W        W66018   8.804  14.141  10.056
 1811W        W66019  11.749  43.397  14.028
 1812W        W66020  36.863   2.870  12.940
 1813W        W66021  22.537   8.660   5.244
 1814W        W66022  42.971   3.921  13.488
 1815W        W66023  10.814  32.017  13.466
 1816W        W66024  39.540  40.044   1.720
 1817W        W66025  44.872  32.454   0.252
 1818W        W66026  38.397  29.592  14.354
 1819W        W66027  40.455  27.174   0.786
 1820W        W66028  32.937  19.060   0.272
 1821W        W66029  40.911  37.909   3.704
 1822W        W66030   9.215  42.380   3.241
 1823W        W66031  21.706  37.572  11.536
 1824W        W66032  37.061  31.521   4.608
 1825W        W66033  26.047  39.020  14.992
 1826W        W66034   3.817  42.284   3.214
 1827W        W66035  18.687  15.765  12.037
 1828W        W66036   2.454  26.558  10.448
 1829W        W66037  42.967  27.627   2.899
 1830W        W66038  14.136  10.329  10.024
 1831W        W66039  32.629  38.985   2.703
 1832W        W66040  28.114  34.530  11.954
 1833W        W66041  12.304  10.863  11.004
 1834W        W66042  16.107   4.209   0.258
 1835W        W66043  38.524  17.716   5.717
 1836W        W66044  29.580   4.860  13.360
 1837W        W66045  27.575  32.106  13.410
 1838W        W66046  16.721  11.705  12.572
 1839W        W66047  24.093   9.184  14.357
 1840W        W66048  31.527  17.229   0.390
 1841W        W66049  42.814  42.856   2.358
 1842W        W66050  20.210  43.357   0.892
 1843W        W66051  38.907  29.132   3.861
 1844W        W66052  14.258  41.509   0.245
 1845W        W66053  12.175   8.376  10.423
 1846W        W66054   8.277  31.046   3.819
 1847W        W66055   8.766  36.556   2.419
 1848W        W66056  20.702  36.081   0.900
 1849W        W66057   2.332  15.307   2.240
 1850W        W66058  29.167  30.151   3.146
 1851W        W66059  17.612  41.336  13.994
 1852W        W66060   1.963  20.061  13.438
 1853W        W66061  15.242  42.500   4.740
 1854W        W66062  15.182  38.894  10.578
 1855W        W66063  42.300  43.410  11.999
 1856W        W66064   5.718   7.705   2.256
 1857W        W66065  30.426   2.385  12.931
 1858W        W66066   0.826   5.817   3.760
 1859W        W66067  32.009   7.706  10.594
 1860W        W66068  37.430  32.082   3.776
 1861W        W66069  39.549  21.018   1.897
 1862W        W66070  36.938   3.747   0.364
 1863W        W66071   2.836  24.148   4.602
 1864W        W66072  41.848  23.706  12.536
 1865W        W66073  41.955   2.745  11.914
 1866W        W66074   3.862  13.156  14.941
 1867W        W66075  41.003  11.215  13.890
 1868W        W66076   4.902  24.170   4.207
 1869W        W66077  36.574   3.272  13.933
 1870W        W66078  36.884  41.798  14.304
 1871W        W66079  19.571  26.020   1.716
 1872W        W66080  39.357   5.718   4.320
 1873W        W66081  18.251  42.491  13.876
 1874W        W66082  42.779  22.681   3.672
 1875W        W66083  16.624  11.243   2.407
 1876W        W66084  24.722  15.734  10.611
 1877W        W66085   5.898  24.558  11.986
 1878W        W66086  19.068  32.091  13.451
 1879W        W66087  16.806  29.029  13.476
 1880W        W66088  28.017  34.380  14.918
 1881W        W66089  43.402  31.985  13.872
 1882W        W66090  17.616  30.984  11.980
 1883W        W66091  41.846  37.972   4.691
 1884W        W66092  36.935  38.976  14.347
 1885W        W66093  16.665   0.983   4.773
 1886W        W66094  35.004  17.084   0.469
 1887W        W66095   8.734  14.826   2.394
 1888W        W66096  32.544  41.520  12.913
 1889W        W66097  13.693   0.860   0.779
 1890W        W66098  27.681  39.044  13.819
 1891W        W66099  38.324   9.181   3.645
 1892W        W66100   7.276   5.714  12.845
 1893W        W66101  33.083  36.490  13.540
 1894W        W66102  37.864   6.354  14.924
 1895W        W66103  22.702   2.457  10.905
 1896W        W66104  36.574  16.725   3.787
 1897W        W66105   8.227  20.641   0.297
 1898W        W66106  40.985  40.956   3.636
 1899W        W66107  17.570  26.049   4.629
 1900W        W66108  16.583   3.329  12.875
 1901W        W66109  19.214  29.068  11.053
 1902W        W66110  22.206  19.686  14.324
 1903W        W66111  12.322   9.383  13.010
 1904W        W66112  42.866   7.674  12.827
 1905W        W66113   1.326  32.425  12.495
 1906W        W66114  10.784  24.193   0.726
 1907W        W66115  30.059   4.878   4.819
 1908W        W66116  42.873  44.901   1.340
 1909W        W66117  12.734  12.307  13.412
 1910W        W66118  20.270   3.932   2.244
 1911W        W66119   4.223  21.201  12.555
 1912W        W66120  11.197   7.180  10.605
 1913W        W66121   3.450  29.535  11.013
 1914W        W66122  20.181  18.579   2.280
 1915W        W66123  17.210  32.897  11.033
 1916W        W66124  18.125  32.431   4.229
 1917W        W66125  13.263   5.762  13.814
 1918W        W66126  21.693   4.336  14.032
 1919W        W66127  30.141  27.192   1.246
 1920W        W66128   3.248  32.614  11.015
 1921W        W66129  33.076  33.055  14.362
 1922W        W66130  37.524  33.010  11.518
 1923W        W66131  39.855  15.182  10.426
 1924W        W66132  21.101  11.846   4.296
 1925W        W66133   2.733  34.612  12.064
 1926W        W66134  39.030  19.099   9.934
 1927W        W66135  16.569  43.830   1.831
 1928W        W66136  33.464  29.597  11.087
 1929W        W66137   3.423  36.905   1.924
 1930W        W66138  22.101  38.957  12.997
 1931W        W66139  29.071  16.597  10.972
 1932W        W66140  31.563  29.539  12.359
 1933W        W66141  38.489  32.405  13.991
 1934W        W66142  16.789  16.090  11.098
 1935W        W66143  23.177   6.194   4.694
 1936W        W66144  34.957   3.739   0.943
 1937W        W66145  12.657   2.892  13.979
 1938W        W66146   0.793   8.799   4.329
 1939W        W66147  34.412   4.279   4.794
 1940W        W66148  39.979  39.880   2.736
 1941W        W66149  17.086   3.761   4.724
 1942W        W66150   2.829   4.338   4.600
 1943W        W66151   0.782  39.386   4.182
 1944W        W66152   7.902  19.104  13.983
 1945W        W66153  10.236  30.513   2.711
 1946W        W66154  21.188  21.171   2.844
 1947W        W66155  17.124   4.784   0.289
 1948W        W66156  44.983  23.674  11.921
 1949W        W66157  44.976  20.532  12.988
 1950W        W66158  15.305  39.463   3.773
 1951W        W66159   7.230  35.898  13.898
 1952W        W66160  40.944   2.927   3.653
 1953W        W66161  14.212  11.745   0.732
 1954W        W66162  31.117  12.334  10.410
 1955W        W66163  42.896   4.708  13.048
 1956W        W66164  16.690  33.937  11.904
 1957W        W66165  44.004   9.391  14.910
 1958W        W66166   8.730  31.592  12.860
 1959W        W66167  27.508  31.584  13.489
 1960W        W66168  30.000  12.619  12.965
 1961W        W66169  13.606   2.440   1.796
 1962W        W66170  33.961  27.547  13.454
 1963W        W66171  39.463   8.383  11.042
 1964W        W66172  38.544   1.456  12.351
 1965W        W66173   7.905  41.340   4.678
 1966W        W66174  21.103  13.124   4.133
 1967W        W66175  25.135  18.185   3.722
 1968W        W66176  44.803   7.351  10.487
 1969W        W66177  22.701  19.718   3.264
 1970W        W66178  28.168  28.549  13.006
 1971W        W66179  40.373  38.425   4.643
 1972W        W66180  38.054  28.087   2.864
 1973W        W66181  25.546  24.192  14.792
 1974W        W66182   0.844  34.889   4.656
 1975W        W66183  43.474  25.036   1.857
 1976W        W66184  26.133   5.714   3.859
 1977W        W66185   6.888   1.782  14.947
 1978W        W66186   5.791  29.081  11.970
 1979W        W66187  42.897  39.015  11.388
 1980W        W66188  38.519  23.658   4.116
 1981W        W66189  10.839   2.374  10.564
 1982W        W66190  12.124  26.680  12.554
 1983W        W66191  36.558  43.271  11.103
 1984W        W66192  44.412  40.518   2.679
 1985W        W66193  43.824   1.393   0.345
 1986W        W66194  39.013  23.539   2.275
 1987W        W66195  35.922  18.245   0.283
 1988W        W66196  19.135  34.079  11.036
 1989W        W66197   4.913  18.677   3.631
 1990W        W66198  19.233  28.046   1.746
 1991W        W66199  24.042  30.654   2.698
 1992W        W66200  25.650   7.351   4.146
 1993W        W66201  31.031   0.343  14.278
 1994W        W66202  12.821   4.865  14.790
 1995W        W66203  12.233   6.770   0.404
 1996W        W66204  28.528  13.209  12.892
 1997W        W66205   9.311   2.865  10.586
 1998W        W66206  10.189  20.642   0.399
 1999W        W66207   0.759  34.499   5.153
 2000W        W66208   5.260  18.248   0.759
 2001W        W66209  27.196  29.045   3.229
 2002W        W66210  25.030  26.494   1.736
 2003W        W66211  34.076  19.658  13.348
 2004W        W66212  21.724  25.613   2.278
 2005W        W66213   8.782  39.550  12.936
 2006W        W66214  18.786   0.485   0.921
 2007W        W66215  26.519  40.841   2.274
 2008W        W66216   2.819  26.481  12.396
 2009W        W66217  31.594  27.583  13.880
 2010W        W66218  13.704   4.748   3.331
 2011W        W66219  12.678  13.128   3.834
 2012W        W66220  22.510   2.788   2.832
 2013W        W66221  18.101   6.791  14.494
 2014W        W66222  36.017  18.641  10.607
 2015W        W66223  16.311  25.662   4.177
 2016W        W66224  28.089  41.403   2.185
 2017W        W66225  27.462   2.723   4.799
 2018W        W66226  12.254   9.805   0.807
 2019W        W66227   2.322  13.791  13.024
 2020W        W66228  23.591  14.747  12.071
 2021W        W66229  25.649  17.655   2.768
 2022W        W66230  29.649  38.864   2.811
 2023W        W66231   3.439  29.661  14.433
 2024W        W66232  28.551  16.593   1.357
 2025W        W66233   5.810  35.082  12.851
 2026W        W66234  41.835  28.500   2.697
 2027W        W66235  36.956  30.121   0.482
 2028W        W66236  17.159  18.703   3.789
 2029W        W66237  40.023  24.110  10.426
 2030W        W66238  19.231  24.230  10.522
 2031W        W66239  41.949  22.087  11.044
 2032W        W66240  10.831  43.913   3.172
 2033W        W66241   1.284   4.211  13.451
 2034W        W66242  33.969  37.572   0.826
 2035W        W66243  21.539  13.628  14.950
 2036W        W66244   9.191  36.005   5.240
 2037W        W66245  14.221  26.180  13.320
 2038W        W66246   3.873   0.963   2.295
 2039W        W66247  21.093   7.805  15.000
 2040W        W66248  26.659  40.964   3.671
 2041W        W66249   7.335   9.771  14.415
 2042W        W66250  12.698  22.253  12.969
 2043W        W66251   0.801  27.543  11.579
 2044W        W66252  29.622   9.854   0.861
 2045W        W66253   1.801  36.536   2.387
 2046W        W66254  21.540  41.895   0.747
 2047W        W66255  26.969  10.657  10.981
 2048W        W66256  35.587  40.371   0.482
 2049W        W66257  33.450  43.389   0.483
 2050W        W66258  41.013  17.198  12.970
 2051W        W66259  23.542  20.032   2.310
 2052W        W66260  39.335  38.548  11.904
 2053W        W66261  34.932  42.319  13.919
 2054W        W66262  39.479  11.862   1.361
 2055W        W66263   5.229   2.370  10.579
 2056W        W66264  40.875  43.992  12.035
 2057W        W66265  25.590   1.406   1.780
 2058W        W66266  29.012  41.873   3.798
 2059W        W66267  12.214   5.909  11.086
 2060W        W66268  29.003  26.952   0.410
 2061W        W66269  36.031  31.974   3.736
 2062W        W66270  17.208   9.737   4.149
 2063W        W66271  12.679  16.161  13.822
 2064W        W66272   4.885  15.692  12.921
 2065W        W66273  17.086  28.175   0.468
 2066W        W66274  44.355  19.173   4.157
 2067W        W66275  12.269  43.907  14.471
 2068W        W66276  40.442  18.631  14.955
 2069W        W66277  21.546   2.462  12.056
 2070W        W66278  28.656   9.321   4.601
 2071W        W66279  44.826   7.358   3.356
 2072W        W66280  39.052  37.446  13.817
 2073W        W66281  13.784  26.604   3.250
 2074W        W66282  36.586  38.910   0.915
 2075W        W66283  21.609  29.495   4.606
 2076W        W66284   6.731  25.177  11.529
 2077W        W66285  31.076   5.849   3.323
 2078W        W66286  33.984  14.173   1.918
 2079W        W66287  26.562  19.282   1.240
 2080W        W66288   7.783   0.287  13.404
 2081W        W66289  38.058  33.890  14.994
 2082W        W66290  16.162   7.221   1.891
 2083W        W66291  43.916   1.838  10.446
 2084W        W66292  28.093  12.747  12.873
 2085W        W66293  17.252  41.005  10.581
 2086W        W66294   3.856  28.566  11.978
 2087W        W66295  36.372   4.373  14.801
 2088W        W66296  26.499  16.812   3.223
 2089W        W66297  13.137  34.088  12.888
 2090W        W66298  32.096  29.046   0.291
 2091W        W66299  11.193   6.227  13.917
 2092W        W66300  42.947   5.740   1.876
 2093W        W66301  36.359   8.901   2.286
 2094W        W66302  11.276  30.441  13.451
 2095W        W66303  36.027  26.544  12.527
 2096W        W66304  25.621   8.231  11.523
 2097W        W66305   4.825  10.805   1.746
 2098W        W66306  17.202  40.433  10.942
 2099W        W66307  30.553   8.793  14.950
 2100W        W66308  40.363   7.724   3.250
 2101W        W66309  18.758  25.550   2.404
 2102W        W66310  22.595  39.491   2.205
 2103W        W66311  24.525  11.846   3.305
 2104W        W66312  23.524   1.241   3.686
 2105W        W66313  41.328  32.010   1.346
 2106W        W66314  10.707  18.142  12.084
 2107W        W66315   1.733  35.998   1.383
 2108W        W66316  17.221   2.350  13.853
 2109W        W66317   3.368  26.159   1.898
 2110W        W66318  27.968   3.843  13.384
 2111W        W66319  33.128  19.168  13.847
 2112W        W66320  33.471   5.246   0.462
 2113W        W66321   9.225  41.293   1.407
 2114W        W66322   2.319   7.346  12.851
 2115W        W66323  41.017  33.484   1.442
 2116W        W66324  12.209  22.039  14.353
 2117W        W66325   5.910  18.221   2.221
 2118W        W66326   7.233  17.235  14.932
 2119W        W66327  11.685   9.366  10.907
 2120W        W66328  14.696  15.636  14.351
 2121W        W66329  37.542  29.029  12.870
 2122W        W66330  27.071  29.132   1.432
 2123W        W66331  28.971  31.022  14.308
 2124W        W66332  16.622  15.798   1.905
 2125W        W66333  35.390   6.322   1.288
 2126W        W66334  20.119  37.955  14.019
 2127W        W66335  12.252   5.757   4.679
 2128W        W66336   9.218   2.783  13.940
 2129W        W66337  37.057  22.168   0.767
 2130W        W66338  33.095   3.737   1.280
 2131W        W66339  26.087  14.622  13.841
 2132W        W66340  41.469  27.496   1.255
 2133W        W66341  27.134  24.074  11.441
 2134W        W66342  44.813  11.176  12.994
 2135W        W66343   1.422  19.712   1.332
 2136W        W66344   7.869  29.513   2.274
 2137W        W66345  16.166   1.381   1.255
 2138W        W66346  41.346  37.980   2.668
 2139W        W66347  20.253  12.254   3.291
 2140W        W66348  41.441  24.125   3.334
 2141W        W66349  34.969   3.728   1.702
 2142W        W66350  14.241   2.830  10.890
 2143W        W66351  25.087  40.395   4.666
 2144W        W66352   2.270  28.545  13.323
 2145W        W66353  10.878  18.192  10.492
 2146W        W66354  22.515  38.493  14.337
 2147W        W66355  23.171  20.033   2.308
 2148W        W66356  28.148  30.041  13.512
 2149W        W66357   6.266  20.140  12.459
 2150W        W66358   5.219  41.395  14.836
 2151W        W66359  22.650   1.800   4.666
 2152W        W66360  43.013   7.677  14.355
 2153W        W66361  24.043   8.806   1.894
 2154W        W66362  18.208   1.439   1.314
 2155W        W66363  32.954  38.495   0.398
 2156W        W66364  10.183  17.585  11.541
 2157W        W66365  23.011   1.977  11.420
 2158W        W66366  33.475  33.513   4.157
 2159W        W66367  16.193  24.001  14.985
 2160W        W66368  31.005  27.491  13.310
 2161W        W66369   6.766  16.742  12.959
 2162W        W66370  31.446  28.632   1.832
 2163W        W66371  26.655  27.647  11.958
 2164W        W66372  19.554  36.014   2.417
 2165W        W66373  33.048   2.933   3.221
 2166W        W66374  37.960  16.266   4.624
 2167W        W66375  10.842  38.834  11.430
 2168W        W66376  30.544  39.534   2.186
 2169W        W66377  24.650   9.713   0.899
 2170W        W66378  16.256   1.949  14.012
 2171W        W66379  33.570   2.231   2.235
 2172W        W66380   8.219  15.663   3.780
 2173W        W66381   8.298  16.075  10.555
 2174W        W66382  17.189  17.725  12.894
 2175W        W66383  11.804  14.101   9.986
 2176W        W66384  21.025  12.651   4.208
 2177W        W66385  31.067  19.629   1.702
 2178W        W66386  19.130  30.018  11.415
 2179W        W66387  18.234  21.087   5.177
 2180W        W66388  24.644  12.791   2.282
 2181W        W66389  12.119   4.414  10.422
 2182W        W66390  34.426  24.011   1.873
 2183W        W66391  27.474   7.340   2.848
 2184W        W66392   6.412   7.228  11.054
 2185W        W66393  18.109   4.317  10.446
 2186W        W66394  28.559  30.978  12.530
 2187W        W66395  39.934  41.411   4.180
 2188W        W66396  37.527  32.989  12.359
 2189W        W66397  37.899   5.920   3.290
 2190W        W66398  18.756  17.069   3.239
 2191W        W66399  29.027  10.827   3.256
 2192W        W66400  38.414  40.993  12.898
 2193W        W66401  37.922  12.799   1.882
 2194W        W66402   8.189   7.797  12.012
 2195W        W66403  26.542  43.417  13.824
 2196W        W66404  37.910  40.880   2.182
 2197W        W66405  23.988  32.580   0.826
 2198W        W66406  40.420  13.120   3.805
 2199W        W66407  16.088  21.714   0.826
 2200W        W66408  36.381  41.023  13.355
 2201W        W66409   0.481  44.972   3.742
 2202W        W66410  28.123  20.145   9.966
 2203W        W66411  43.002   9.300   0.732
 2204W        W66412  26.095  36.903   0.314
 2205W        W66413  22.217  11.661  14.478
 2206W        W66414  27.563  26.589  14.860
 2207W        W66415  22.588  16.118   3.356
 2208W        W66416   3.319   8.261   1.225
 2209W        W66417  29.459  32.939  14.278
 2210W        W66418  27.668  33.017   2.179
 2211W        W66419  18.781  23.222  11.023
 2212W        W66420  10.678  17.155   1.439
 2213W        W66421  27.512   6.850   3.802
 2214W        W66422  32.455  33.031   4.655
 2215W        W66423  16.246  24.096  10.548
 2216W        W66424  22.087  38.889  14.908
 2217W        W66425  33.589   4.442   4.224
 2218W        W66426  19.558  14.812  12.400
 2219W        W66427   6.254   5.844   3.791
 2220W        W66428  42.485   3.384   0.841
 2221W        W66429   3.932  18.681   3.736
 2222W        W66430  38.921  44.437   3.787
 2223W        W66431   5.426   9.214  12.515
 2224W        W66432  20.592  19.181  14.803
 2225W        W66433   1.355  37.359   2.359
 2226W        W66434  22.184  30.977   1.815
 2227W        W66435  10.382  27.485   4.661
 2228W        W66436  31.442   3.817  13.930
 2229W        W66437  19.258  39.365  14.831
 2230W        W66438  16.768   8.834   4.802
 2231W        W66439  33.953  29.085  13.349
 2232W        W66440  35.510  35.859   4.612
 2233W        W66441  40.892   6.379   3.338
 2234W        W66442  29.992  43.496   0.937
 2235W        W66443  31.913  32.966   0.301
 2236W        W66444  33.492  24.203   2.883
 2237W        W66445  32.466  11.205  13.857
 2238W        W66446  26.112  26.045  12.575
 2239W        W66447  25.207  30.006   1.451
 2240W        W66448  20.673  24.511   2.292
 2241W        W66449  12.812  35.400  11.013
 2242W        W66450   2.373  32.956   3.281
 2243W        W66451  15.101  28.479   0.922
 2244W        W66452  20.694   2.398   4.676
 2245W        W66453  31.416  32.397  13.500
 2246W        W66454  15.613  43.868   4.759
 2247W        W66455  19.074  12.741  14.485
 2248W        W66456  37.356   7.323  11.500
 2249W        W66457  28.538  36.920  12.493
 2250W        W66458   3.807  22.569   1.697
 2251W        W66459  26.468  33.578   0.415
 2252W        W66460  38.541  11.277   3.849
 2253W        W66461  29.116  22.244  13.842
 2254W        W66462  27.457   7.186  10.947
 2255W        W66463  11.810   9.352   4.783
 2256W        W66464   6.390  27.972   4.647
 2257W        W66465  14.155   1.741  12.527
 2258W        W66466  31.535   4.311  11.943
 2259W        W66467  37.876  35.990   1.220
 2260W        W66468  44.935   1.834  14.355
 2261W        W66469  40.522  13.717   1.351
 2262W        W66470  29.062  29.965   2.795
 2263W        W66471  41.797  37.361  12.522
 2264W        W66472  31.978  39.510   2.256
 2265W        W66473  43.278  36.975  13.352
 2266W        W66474  31.029  34.102  11.886
 2267W        W66475  41.862  32.896  14.415
 2268W        W66476  24.567  17.726   4.736
 2269W        W66477  26.481   1.282  11.503
 2270W        W66478  41.433  37.958  11.000
 2271W        W66479  43.452  24.535  12.411
 2272W        W66480   8.177  28.548   3.153
 2273W        W66481  30.492  32.479  12.405
 2274W        W66482   5.293  39.046  10.914
 2275W        W66483   7.715  42.949  10.529
 2276W        W66484  32.617  17.629  14.345
 2277W        W66485   2.290  14.185  14.918
 2278W        W66486  23.717  15.787   0.816
 2279W        W66487  33.976  36.369  12.996
 2280W        W66488  44.266  24.029  14.874
 2281W        W66489   1.408  41.800  11.982
 2282W        W66490  34.116  41.399   1.338
 2283W        W66491  28.435  32.636  14.855
 2284W        W66492   8.814   4.275   0.959
 2285W        W66493  25.197  13.647  12.051
 2286W        W66494  18.164   2.956  14.762
 2287W        W66495  43.485  34.575  11.392
 2288W        W66496  39.354  34.979  13.909
 2289W        W66497  44.002  26.614  13.820
 2290W        W66498  12.757  42.824  10.640
 2291W        W66499  41.015  32.917   3.670
 2292W        W66500   9.333  10.146   4.798
 2293W        W66501  21.604  39.488   2.249
 2294W        W66502   2.245  31.029   3.656
 2295W        W66503  25.212   9.381  10.643
 2296W        W66504  39.822   1.386   0.361
 2297W        W66505  39.468  42.316  12.342
 2298W        W66506  18.571  10.818  13.923
 2299W        W66507  13.272  21.055  14.856
 2300W        W66508   5.807  13.840  12.014
 2301W        W66509   1.957  40.054  13.531
 2302W        W66510  19.228  37.932   4.296
 2303W        W66511   8.729   1.422  12.873
 2304W        W66512  27.190  22.062   2.780
 2305W        W66513  12.804  10.219   4.280
 2306W        W66514  37.908  27.998   2.376
 2307W        W66515  22.995  43.340   4.656
 2308W        W66516  22.214  27.575   0.803
 2309W        W66517  33.471   7.862   3.646
 2310W        W66518   4.375   6.677   3.681
 2311W        W66519  33.058  25.058  11.994
 2312W        W66520   9.819   0.932   4.118
 2313W        W66521  25.154   6.704  13.534
 2314W        W66522   3.299  28.489  11.483
 2315W        W66523   7.247   7.206  11.564
 2316W        W66524  11.851  40.395   0.470
 2317W        W66525  10.824  33.130   0.731
 2318W        W66526  22.054  12.203   2.357
 2319W        W66527  19.726  40.897   1.243
 2320W        W66528  14.226  16.576   1.318
 2321W        W66529  43.990  23.204  12.442
 2322W        W66530  14.152  22.537   2.780
 2323W        W66531  22.509  21.067   4.698
 2324W        W66532  10.309  32.598  12.397
 2325W        W66533  34.946   3.714  10.626
 2326W        W66534  15.116   6.743  11.075
 2327W        W66535  13.296  23.693   2.417
 2328W        W66536  25.967  29.026   2.776
 2329W        W66537  43.356  44.347   3.274
 2330W        W66538  39.496  26.635   3.865
 2331W        W66539  32.888  14.271  12.468
 2332W        W66540  20.713   9.335  14.008
 2333W        W66541  44.785   3.844   1.924
 2334W        W66542  42.862  25.074   5.243
 2335W        W66543  21.629  44.989  12.076
 2336W        W66544  44.848   6.715   3.268
 2337W        W66545  41.522  25.476   0.876
 2338W        W66546  41.010  11.341  14.510
 2339W        W66547  15.761  12.855  13.967
 2340W        W66548  28.444   9.660  12.526
 2341W        W66549  29.517  30.418  13.819
 2342W        W66550  32.887  41.895   1.916
 2343W        W66551  34.002  36.405   1.911
 2344W        W66552  21.249  20.717   2.283
 2345W        W66553   5.711  35.541   1.829
 2346W        W66554   7.875  29.490   3.768
 2347W        W66555   7.353  30.098   0.934
 2348W        W66556  40.844  19.095   1.698
 2349W        W66557  38.502   4.850   3.833
 2350W        W66558   0.828  30.142   2.212
 2351W        W66559  31.923   7.269   1.451
 2352W        W66560  32.412  38.050   2.837
 2353W        W66561  30.516   4.945   3.159
 2354W        W66562  23.237  36.930  13.414
 2355W        W66563  35.426  37.003   0.433
 2356W        W66564  20.764  30.092  14.306
 2357W        W66565  33.459  15.759  11.563
 2358W        W66566   3.813   6.869  11.861
 2359W        W66567  30.440  10.668  13.522
 2360W        W66568   0.404  33.392  14.005
 2361W        W66569  17.179   0.399  11.943
 2362W        W66570   8.788   6.847  14.013
 2363W        W66571   7.305  42.005  11.904
 2364W        W66572  38.998  10.801  11.448
 2365W        W66573   6.687  12.188  14.455
 2366W        W66574  19.283  38.012   0.933
 2367W        W66575  12.677  17.172   5.174
 2368W        W66576  38.529  31.125   3.785
 2369W        W66577  13.335  13.805  10.153
 2370W        W66578  37.968  39.015   4.310
 2371W        W66579  19.192  26.027  11.405
 2372W        W66580   7.344  26.008   4.213
 2373W        W66581  32.973  34.958  10.922
 2374W        W66582  18.613  32.541   4.665
 2375W        W66583  32.571   8.195  13.458
 2376W        W66584  17.143   4.350   4.823
 2377W        W66585  22.723  16.736   1.336
 2378W        W66586  30.080  41.927  13.481
 2379W        W66587  19.729  31.443   2.212
 2380W        W66588  44.416   8.746  10.982
 2381W        W66589  34.417  42.998  11.482
 2382W        W66590   5.329  11.197  11.569
 2383W        W66591   5.218  37.476   2.296
 2384W        W66592  22.127  12.802  14.964
 2385W        W66593  10.875  10.170   2.190
 2386W        W66594  20.185  17.198  11.057
 2387W        W66595  23.714   7.389  10.986
 2388W        W66596  29.490  17.633  10.495
 2389W        W66597   4.762   7.757   4.646
 2390W        W66598  33.420  19.662  10.467
 2391W        W66599  43.496   0.903  12.570
 2392W        W66600  30.062  38.825  13.407
 2393W        W66601  31.562  35.874   0.949
 2394W        W66602  29.012  25.126   3.646
 2395W        W66603   8.203   0.874   2.341
 2396W        W66604  17.693  11.154  12.061
 2397W        W66605  24.655   5.823  13.385
 2398W        W66606  25.135  17.275  10.499
 2399W        W66607   5.805  44.459  10.533
 2400W        W66608  12.644  40.922  12.996
 2401W        W66609   4.939  44.759  14.842
 2402W        W66610   9.743   8.386  14.362
 2403W        W66611  31.462   2.317   0.862
 2404W        W66612  12.147  43.437  12.505
 2405W        W66613  27.066  44.010   3.866
 2406W        W66614  29.554   5.342   0.926
 2407W        W66615  14.143  22.067   2.277
 2408W        W66616  29.624  21.111   1.319
 2409W        W66617   3.439  40.940   2.419
 2410W        W66618  10.374  26.053  10.999
 2411W        W66619  20.171   2.407   4.783
 2412W        W66620  37.032  42.857   1.278
 2413W        W66621  24.094  28.086   4.665
 2414W        W66622  25.142   0.249   0.805
 2415W        W66623  13.141  32.615  13.503
 2416W        W66624  43.514  24.499  11.979
 2417W        W66625  22.248  33.450   0.441
 2418W        W66626   0.404  34.040   1.852
 2419W        W66627  31.568  26.545  12.476
 2420W        W66628   2.324  20.147  11.997
 2421W        W66629  27.182  34.090   0.957
 2422W        W66630   6.313   9.381  14.010
 2423W        W66631   0.289  41.963  10.446
 2424W        W66632  27.943  36.917  14.441
 2425W        W66633  22.066  11.194  10.556
 2426W        W66634   6.757  27.577   0.727
 2427W        W66635  15.643  11.128  14.816
 2428W        W66636  16.210  38.988  14.453
 2429W        W66637  10.221  42.010   4.671
 2430W        W66638   9.794   3.718   3.326
 2431W        W66639   0.426  29.527  14.310
 2432W        W66640  11.272  18.736   0.272
 2433W        W66641   7.829  32.623  12.052
 2434W        W66642  42.426  18.079  14.798
 2435W        W66643  36.985   1.385   3.300
 2436W        W66644   8.845  33.102  10.039
 2437W        W66645  37.033   6.282  14.429
 2438W        W66646  34.580  41.804  13.438
 2439W        W66647  21.203  39.461   2.867
 2440W        W66648  31.482  29.461   3.324
 2441W        W66649  42.315  36.052  13.797
 2442W        W66650  35.049   5.350  14.429
 2443W        W66651  15.272  10.264  12.361
 2444W        W66652   2.303  28.565   4.214
 2445W        W66653   7.676   6.233  11.891
 2446W        W66654  39.985  30.481  12.353
 2447W        W66655  29.527   8.669   4.146
 2448W        W66656  16.705  10.828   4.712
 2449W        W66657  40.821   9.668   3.337
 2450W        W66658  29.575  27.539  13.460
 2451W        W66659  39.061  18.760   3.336
 2452W        W66660  18.264  16.757   4.801
 2453W        W66661  41.875  31.076   3.654
 2454W        W66662  20.767  28.023  10.415
 2455W        W66663  41.865   4.866  12.040
 2456W        W66664   6.895  30.595   4.745
 2457W        W66665  43.993  42.479   4.197
 2458W        W66666  24.220   5.799   4.736
 2459W        W66667  17.128  36.994   2.378
 2460W        W66668   1.247  31.439   0.791
 2461W        W66669  11.783  33.027  12.094
 2462W        W66670  36.013  41.790   2.720
 2463W        W66671  13.657  10.726   1.448
 2464W        W66672  15.192  33.485   2.727
 2465W        W66673  17.687  30.096   3.375
 2466W        W66674  32.031  17.089   3.869
 2467W        W66675  15.168   2.363   3.812
 2468W        W66676  42.026   0.432   2.286
 2469W        W66677  44.430  19.607   4.306
 2470W        W66678   0.435  21.569   2.205
 2471W        W66679  42.867  20.625  11.486
 2472W        W66680   8.690  38.404   0.459
 2473W        W66681  13.114  24.661  14.445
 2474W        W66682  30.620   9.669  14.303
 2475W        W66683   8.168  23.220   3.694
 2476W        W66684  15.624  40.954   0.411
 2477W        W66685   1.818  41.837   0.904
 2478W        W66686  30.518  15.620   0.756
 2479W        W66687  43.811  23.587  12.039
 2480W        W66688  20.581  22.673   0.436
 2481W        W66689  29.127  22.608  13.379
 2482W        W66690  34.477   0.906  12.000
 2483W        W66691  34.923  19.568  10.085
 2484W        W66692  27.013  41.807   2.404
 2485W        W66693  14.634   7.892   1.729
 2486W        W66694  22.746  44.439  14.880
 2487W        W66695  15.585  32.636  14.023
 2488W        W66696  30.029   1.742   0.874
 2489W        W66697  18.638  35.455   4.788
 2490W        W66698  12.650   3.925   1.273
 2491W        W66699  42.426  19.599   4.119
 2492W        W66700  41.010  35.522  14.462
 2493W        W66701  34.601   4.358   1.917
 2494W        W66702  32.010  27.067   1.401
 2495W        W66703  27.182   6.193   2.190
 2496W        W66704  31.104  28.118   4.307
 2497W        W66705  32.048  37.566   9.976
 2498W        W66706   5.915  42.842   1.877
 2499W        W66707  34.556   5.840   1.282
 2500W        W66708  29.043  34.894   3.775
 2501W        W66709  24.722  29.012  13.827
 2502W        W66710  37.011  36.866  13.454
 2503W        W66711  41.974  22.588  13.452
 2504W        W66712  37.004  25.684  10.620
 2505W        W66713  24.639   8.280  13.808
 2506W        W66714   2.890  37.355   0.367
 2507W        W66715  27.499  15.159  13.369
 2508W        W66716  37.430  40.967  12.064
 2509W        W66717  38.966  38.998  12.884
 2510W        W66718  30.079  30.084   4.219
 2511W        W66719  26.091  34.094  13.335
 2512W        W66720  26.075   1.918   2.748
 2513W        W66721   2.853   7.225  12.052
 2514W        W66722  28.601  23.532   3.288
 2515W        W66723  24.160  35.422  12.455
 2516W        W66724  22.206  32.491  12.856
 2517W        W66725  19.704  12.717  13.975
 2518W        W66726  23.992  14.828   3.694
 2519W        W66727   9.879  39.529   3.712
 2520W        W66728  34.959  10.748  13.334
 2521W        W66729  37.976  15.265   2.306
 2522W        W66730  30.974  35.454  13.529
 2523W        W66731  31.906   9.877  10.939
 2524W        W66732  34.472  28.144   0.437
 2525W        W66733   2.239  16.794  14.418
 2526W        W66734  41.915  32.976   1.304
 2527W        W66735  34.931  44.387  12.411
 2528W        W66736   3.343  13.754   0.829
 2529W        W66737   5.744  34.473   0.819
 2530W        W66738  15.775  41.018   4.341
 2531W        W66739  12.811  43.889   3.208
 2532W        W66740  40.430  23.054   3.848
 2533W        W66741  33.040  36.880   4.721
 2534W        W66742  30.612  34.457   2.860
 2535W        W66743  27.508  24.591  11.611
 2536W        W66744  31.502  34.611  14.314
 2537W        W66745  35.413   8.326  13.424
 2538W        W66746  43.871  16.157  11.120
 2539W        W66747  40.404  19.740   2.325
 2540W        W66748  27.673   4.852   0.913
 2541W        W66749  19.050  11.145   4.158
 2542W        W66750   2.381  13.222   4.839
 2543W        W66751  33.493  39.338   0.462
 2544W        W66752  18.712   9.706   0.244
 2545W        W66753  42.921  24.646   0.817
 2546W        W66754  20.630  15.677   0.869
 2547W        W66755  28.158  15.145   2.725
 2548W        W66756  39.429  29.923   2.826
 2549W        W66757  41.463  10.365   0.805
 2550W        W66758   4.270  38.483  14.476
 2551W        W66759  12.723  14.147   0.793
 2552W        W66760  41.013  20.230   0.254
 2553W        W66761  34.967  28.937  12.417
 2554W        W66762  19.125  39.930  14.967
 2555W        W66763  41.305  23.507  10.443
 2556W        W66764  28.600  36.407   4.804
 2557W        W66765   1.767  23.043  12.057
 2558W        W66766  30.921   7.682   4.275
 2559W        W66767   1.260  41.944   3.713
 2560W        W66768  42.826  31.080  13.393
 2561W        W66769  41.820  15.226  12.383
 2562W        W66770  21.156  25.022  11.046
 2563W        W66771   5.325  18.608  11.979
 2564W        W66772   0.463  24.157   4.684
 2565W        W66773  33.971   2.944  10.443
 2566W        W66774  39.505   0.442  11.027
 2567W        W66775  30.038  21.536   3.637
 2568W        W66776  17.773  43.954  13.938
 2569W        W66777   6.425   9.828  11.910
 2570W        W66778  32.000  22.593   5.211
 2571W        W66779  19.140  33.537  12.001
 2572W        W66780  23.560   9.243  10.629
 2573W        W66781  13.322  32.036  10.928
 2574W        W66782  24.640  22.541  11.559
 2575W        W66783  11.128  13.600   3.700
 2576W        W66784  42.911  11.246  13.850
 2577W        W66785  37.489  23.193  10.642
 2578W        W66786  42.911  19.738  12.000
 2579W        W66787  41.858  44.413  13.410
 2580W        W66788  20.054  35.915   2.737
 2581W        W66789  38.433  42.847   2.858
 2582W        W66790   5.841  42.289  11.065
 2583W        W66791  23.194  13.225  10.585
 2584W        W66792  44.317  31.043   1.876
 2585W        W66793  20.125  12.267   4.334
 2586W        W66794  44.787  24.035  11.453
 2587W        W66795  21.636  36.876   0.772
 2588W        W66796   2.787  44.991  12.529
 2589W        W66797  44.778  17.205  14.499
 2590W        W66798  20.558  42.281  14.479
 2591W        W66799  21.215  35.510   3.383
 2592W        W66800   2.855  15.317   4.271
 2593W        W66801  35.886   2.864  11.075
 2594W        W66802   8.352   5.329  11.612
 2595W        W66803  38.358  31.038   4.198
 2596W        W66804  33.417   9.734  14.497
 2597W        W66805  43.848  43.933   2.294
 2598W        W66806  36.076  16.795   0.457
 2599W        W66807  29.610  30.944  14.837
 2600W        W66808  34.072  31.573  14.459
 2601W        W66809   4.323  17.677   3.367
 2602W        W66810  24.500  42.022  12.991
 2603W        W66811   8.271  14.602   3.745
 2604W        W66812  32.064  22.648  12.885
 2605W        W66813  39.982   0.970   5.230
 2606W        W66814  19.070  36.560  11.892
 2607W        W66815  26.579  23.522   4.782
 2608W        W66816   7.234  16.607  14.872
 2609W        W66817  21.657  28.495   2.753
 2610W        W66818   9.727   4.259  11.532
 2611W        W66819  17.246  18.095  11.996
 2612W        W66820  30.532   8.779  11.932
 2613W        W66821   7.405  10.221  11.512
 2614W        W66822  13.718  14.315  13.430
 2615W        W66823  37.852   5.911   2.887
 2616W        W66824  15.279  10.699  13.882
 2617W        W66825  31.643  27.171  13.841
 2618W        W66826  36.998  10.228   1.372
 2619W        W66827  36.851   8.360  14.912
 2620W        W66828  15.583  29.025  14.378
 2621W        W66829  26.127  22.667   3.264
 2622W        W66830  34.415  38.414  12.870
 2623W        W66831  11.748   2.308  12.024
 2624W        W66832   4.235  13.303  14.893
 2625W        W66833  26.565  19.536  13.060
 2626W        W66834  24.191  24.673  13.058
 2627W        W66835   5.796   8.305  12.854
 2628W        W66836   5.431   3.945  10.631
 2629W        W66837   7.769  33.021  12.343
 2630W        W66838  14.185   2.725   0.833
 2631W        W66839  36.042  24.606  11.407
 2632W        W66840  20.148   6.342   2.672
 2633W        W66841  19.576  18.650  10.448
 2634W        W66842   5.206  28.449   2.402
 2635W        W66843  35.437  44.381   2.184
 2636W        W66844   9.385  43.846  12.502
 2637W        W66845  41.477  20.133   1.241
 2638W        W66846  36.986   1.948  12.983
 2639W        W66847   5.388  24.661  14.334
 2640W        W66848  39.469   5.902  14.367
 2641W        W66849  25.604  34.071  14.031
 2642W        W66850  13.217  33.592   5.183
 2643W        W66851   9.712  15.670   3.734
 2644W        W66852  21.678   4.387   2.229
 2645W        W66853  11.861  27.533   4.710
 2646W        W66854  15.114  24.717   4.732
 2647W        W66855  42.835  14.138   4.834
 2648W        W66856   9.379  30.038  14.481
 2649W        W66857  17.175  17.699   0.876
 2650W        W66858  27.613  37.533   5.318
 2651W        W66859  19.695  17.248   1.316
 2652W        W66860  10.709  34.963   0.475
 2653W        W66861   5.897  21.167   1.868
 2654W        W66862   2.341  35.490  11.048
 2655W        W66863  30.530  15.729  14.424
 2656W        W66864   4.413  33.915   2.890
 2657W        W66865  15.092  36.905  13.942
 2658W        W66866  40.353  18.587   5.185
 2659W        W66867  38.953  33.879  11.942
 2660W        W66868  26.502  37.473  10.586
 2661W        W66869  30.520   0.412   0.309
 2662W        W66870   9.703   5.815   3.730
 2663W        W66871  37.930  18.175   0.940
 2664W        W66872  31.954  18.642  14.509
 2665W        W66873  20.250   8.311  14.428
 2666W        W66874   8.182  37.831   0.835
 2667W        W66875  26.646   8.763   0.888
 2668W        W66876  38.500  19.045  12.366
 2669W        W66877   1.401  40.539   4.648
 2670W        W66878  31.117  13.628  14.391
 2671W        W66879   4.417  18.570  11.995
 2672W        W66880  25.098  20.644   1.705
 2673W        W66881  38.386  18.278   0.847
 2674W        W66882   2.328   4.311  14.015
 2675W        W66883   9.239  10.266  10.602
 2676W        W66884  30.649  20.271  13.024
 2677W        W66885  39.441  42.336   2.748
 2678W        W66886  24.479   7.682  13.876
 2679W        W66887  13.737  19.738  13.406
 2680W        W66888  43.393  26.663   3.630
 2681W        W66889  39.471  41.365   4.242
 2682W        W66890  34.964  11.835   3.646
 2683W        W66891  24.697   7.867  10.507
 2684W        W66892   8.264  20.151  10.634
 2685W        W66893  12.231  14.128  13.937
 2686W        W66894   8.714   9.160  13.424
 2687W        W66895  12.855  13.656  13.352
 2688W        W66896  38.482  28.573   1.312
 2689W        W66897  23.180  14.300   2.806
 2690W        W66898  44.873   6.852  10.468
 2691W        W66899  40.976  38.047  13.019
 2692W        W66900   9.286  32.510  12.514
 2693W        W66901  36.092  30.980   3.643
 2694W        W66902   1.757  10.176  14.030
 2695W        W66903  44.289  26.053  13.423
 2696W        W66904  25.582   4.704  12.574
 2697W        W66905  40.002   3.922   5.092
 2698W        W66906  31.602  12.228  11.553
 2699W        W66907  25.554  33.390   0.750
 2700W        W66908   1.387  12.614   0.295
 2701W        W66909  20.574  31.552   4.315
 2702W        W66910  27.470  43.018  10.439
 2703W        W66911  30.160   5.413   4.155
 2704W        W66912  37.520   1.859   0.895
 2705W        W66913  27.620   6.918   0.774
 2706W        W66914  31.469  33.075  12.886
 2707W        W66915   9.260  41.911   1.935
 2708W        W66916  39.896   7.819  12.395
 2709W        W66917  15.755  29.534  14.294
 2710W        W66918  39.382   1.277   0.877
 2711W        W66919  40.911  18.179   2.883
 2712W        W66920   1.930  33.026   3.793
 2713W        W66921  42.407   3.834   1.871
 2714W        W66922  41.920   1.330  12.042
 2715W        W66923  16.085  25.537   3.756
 2716W        W66924   7.823  43.850   4.118
 2717W        W66925  31.911  33.963   1.731
 2718W        W66926  12.180   2.885   4.810
 2719W        W66927  43.801  27.080   0.350
 2720W        W66928  10.329  28.173  11.881
 2721W        W66929   0.842  42.472  14.967
 2722W        W66930  12.848  43.967   1.333
 2723W        W66931  40.316  20.751   5.187
 2724W        W66932  43.443  31.075   2.777
 2725W        W66933  24.150  35.950  13.014
 2726W        W66934  30.018  11.642  11.038
 2727W        W66935  18.749  14.669   0.878
 2728W        W66936  37.070  40.937   1.860
 2729W        W66937  34.061  12.854   0.839
 2730W        W66938  26.121   2.941  11.390
 2731W        W66939  38.510   1.348   2.688
 2732W        W66940   0.322  18.127  10.600
 2733W        W66941  12.356   3.874   0.754
 2734W        W66942  35.562   7.377   2.342
 2735W        W66943  18.788   8.707   0.845
 2736W        W66944  14.166  37.085  12.561
 2737W        W66945  20.121  37.945   0.408
 2738W        W66946  33.455  33.479  12.910
 2739W        W66947  44.486  16.617  11.989
 2740W        W66948  15.151  20.552  14.330
 2741W        W66949  41.537   1.938   3.222
 2742W        W66950  16.101  16.744  12.512
 2743W        W66951  15.252  12.350   1.827
 2744W        W66952   4.393  32.548   4.220
 2745W        W66953   1.384  29.139   3.334
 2746W        W66954  20.193  31.007   4.602
 2747W        W66955  34.045  20.139  13.035
 2748W        W66956  11.133  23.499  11.892
 2749W        W66957  44.457  15.224   1.800
 2750W        W66958  29.167  24.103  10.468
 2751W        W66959  42.980  39.888   4.157
 2752W        W66960  23.132  20.705   2.209
 2753W        W66961   6.406  11.317   1.753
 2754W        W66962  23.153  28.621   4.727
 2755W        W66963  15.780  25.169   4.799
 2756W        W66964  11.298  14.636   2.246
 2757W        W66965  26.206   7.690   0.951
 2758W        W66966   6.758  24.197  14.999
 2759W        W66967  29.543  21.193  10.544
 2760W        W66968  10.764  19.682   2.273
 2761W        W66969  20.697  12.333  11.008
 2762W        W66970  27.666   5.734   4.827
 2763W        W66971  31.991  28.099  13.988
 2764W        W66972  20.109  22.156   1.358
 2765W        W66973  28.668  39.910   1.298
 2766W        W66974  15.597  22.199  10.105
 2767W        W66975   4.934  18.615   4.292
 2768W        W66976  42.387  29.175   2.738
 2769W        W66977   4.267   3.449   2.813
 2770W        W66978  13.197  15.815   0.782
 2771W        W66979  30.151  40.346  10.506
 2772W        W66980  10.646  30.037   1.848
 2773W        W66981   1.915  17.290  13.955
 2774W        W66982  11.369  18.774  14.848
 2775W        W66983  18.087  41.388   3.784
 2776W        W66984   1.279  19.685   1.817
 2777W        W66985  15.210   6.750  12.919
 2778W        W66986   3.419  37.422   2.288
 2779W        W66987  21.024  42.793   3.277
 2780W        W66988  28.073  28.435  10.616
 2781W        W66989  16.248  11.159   2.801
 2782W        W66990   8.845  40.503   4.797
 2783W        W66991  41.787  15.586  10.925
 2784W        W66992  39.337  12.164  12.577
 2785W        W66993   9.890  43.341   4.186
 2786W        W66994   1.444  41.003   2.414
 2787W        W66995   8.258  13.646  11.411
 2788W        W66996  12.168  35.045  14.309
 2789W        W66997   7.756   1.346  11.967
 2790W        W66998   9.779  24.656  10.413
 2791W        W66999  38.546  12.285  12.045
 2792W        W67000  24.159  41.499  13.957
 2793W        W67001  35.090  33.614  11.859
 2794W        W67002  15.155  22.017   0.254
 2795W        W67003  11.721  11.629  14.016
 2796W        W67004  29.526  20.587  14.885
 2797W        W67005  18.556  17.094   5.175
 2798W        W67006  21.031  16.218  10.599
 2799W        W67007  18.079  44.825   4.114
 2800W        W67008  16.112  39.512  14.363
 2801W        W67009  38.334  24.543  13.442
 2802W        W67010  29.939  10.733  13.957
 2803W        W67011  40.359  28.574   4.757
 2804W        W67012  43.387   9.702   0.856
 2805W        W67013  27.048   6.193   4.279
 2806W        W67014  13.644  26.114   0.807
 2807W        W67015  32.522   9.243   1.224
 2808W        W67016  29.588   8.323  11.043
 2809W        W67017   9.710  20.046  11.957
 2810W        W67018   1.885  21.259   3.733
 2811W        W67019  11.129   7.329   3.340
 2812W        W67020  36.028  15.254   2.272
 2813W        W67021  19.568  43.490   3.673
 2814W        W67022  37.861  40.476   4.633
 2815W        W67023  25.111   4.756  12.029
 2816W        W67024  33.947  32.996   2.819
 2817W        W67025  34.379  31.423  12.479
 2818W        W67026  13.651   3.222  11.895
 2819W        W67027  27.615  19.711   2.851
 2820W        W67028  41.355  28.093   1.362
 2821W        W67029  32.041  17.581   2.211
 2822W        W67030  41.353  25.670   4.603
 2823W        W67031  21.512  39.878   3.360
 2824W        W67032  26.012  36.074  10.544
 2825W        W67033  22.181   1.898  14.972
 2826W        W67034  12.244  42.507  13.471
 2827W        W67035  38.406   7.722   1.847
 2828W        W67036   0.963  15.230  11.422
 2829W        W67037   4.324  28.987   4.199
 2830W        W67038  15.674  24.032  12.499
 2831W        W67039  24.535  19.151   0.290
 2832W        W67040  25.582   1.842   4.736
 2833W        W67041  39.063  38.869   0.729
 2834W        W67042  28.582  10.768  12.344
 2835W        W67043  20.229  23.071   3.659
 2836W        W67044  11.860  42.907   2.748
 2837W        W67045  40.334  43.900  10.928
 2838W        W67046  37.899   6.879   0.429
 2839W        W67047  18.070  25.971   4.683
 2840W        W67048   4.410  32.937  11.869
 2841W        W67049  14.267  22.578  14.505
 2842W        W67050   8.810   1.908  10.909
 2843W        W67051   1.877  41.797   3.732
 2844W        W67052   6.822  31.133  11.501
 2845W        W67053  12.698  30.144  14.941
 2846W        W67054  30.023  12.803  11.918
 2847W        W67055  44.853  28.000   9.439
 2848W        W67056   9.265  26.548   1.249
 2849W        W67057  21.065  19.762   4.634
 2850W        W67058  42.486   7.677  13.337
 2851W        W67059  18.192  13.839  12.026
 2852W        W67060  42.030   2.851  12.864
 2853W        W67061  28.632  22.053   3.766
 2854W        W67062  33.070  11.234  12.040
 2855W        W67063   8.343  22.741   4.782
 2856W        W67064  31.127   3.830   0.356
 2857W        W67065  24.157  12.695  13.482
 2858W        W67066   0.328  37.392   4.291
 2859W        W67067  27.952  39.552   0.415
 2860W        W67068  44.370   4.759  11.058
 2861W        W67069   5.884  17.753   4.278
 2862W        W67070  30.045  10.289   3.208
 2863W        W67071   0.762   4.382   3.299
 2864W        W67072  16.118  21.738   3.827
 2865W        W67073  32.927  26.702   2.282
 2866W        W67074  15.189  35.545  12.851
 2867W        W67075  35.600  14.824  14.824
 2868W        W67076  40.309  39.862  12.030
 2869W        W67077  24.155   0.881   1.704
 2870W        W67078  43.002  18.071  11.933
 2871W        W67079  37.000   9.329   0.366
 2872W        W67080  30.613   9.778  14.867
 2873W        W67081  24.647  16.217  11.081
 2874W        W67082  30.614  36.958   2.218
 2875W        W67083  31.534  42.833  13.984
 2876W        W67084   9.841  13.225   0.805
 2877W        W67085  26.990  27.947   1.897
 2878W        W67086   3.300  34.067  12.827
 2879W        W67087  30.631  41.410  14.922
 2880W        W67088   5.314  13.164  12.951
 2881W        W67089  44.427  35.952  14.402
 2882W        W67090  18.764  15.722  14.870
 2883W        W67091  24.564   9.875  13.364
 2884W        W67092  30.104  19.579  14.804
 2885W        W67093  31.076  34.541   2.828
 2886W        W67094  43.431  23.645  11.948
 2887W        W67095  23.012   3.807   0.792
 2888W        W67096   1.446  28.473  12.425
 2889W        W67097  16.700  43.345   1.403
 2890W        W67098  13.832  25.192   1.875
 2891W        W67099  37.514  20.120  14.503
 2892W        W67100  37.556  37.419   1.407
 2893W        W67101  22.666  19.765  14.939
 2894W        W67102   7.384  22.523  11.611
 2895W        W67103  18.251   9.652   1.213
 2896W        W67104  27.502  23.226   4.795
 2897W        W67105   6.876  27.081   1.301
 2898W        W67106  15.658  40.987  13.905
 2899W        W67107  20.594  28.656  14.919
 2900W        W67108  15.262  26.032  11.890
 2901W        W67109  18.689  24.059   1.773
 2902W        W67110  39.380  26.585  11.119
 2903W        W67111  13.779  35.042  10.517
 2904W        W67112  33.905   0.408  13.960
 2905W        W67113  33.465  38.386  10.640
 2906W        W67114  27.095  39.021   4.255
 2907W        W67115  22.087  15.288   4.788
 2908W        W67116  24.722  13.722  14.277
 2909W        W67117   6.370  17.707  12.859
 2910W        W67118  36.538   6.859  14.352
 2911W        W67119  18.550  39.426   2.776
 2912W        W67120  10.832  32.509   0.754
 2913W        W67121   4.918   6.289  14.484
 2914W        W67122  15.732   9.328   2.306
 2915W        W67123  33.535   0.900   0.436
 2916W        W67124  29.995  10.253   4.734
 2917W        W67125  22.658  43.013  14.978
 2918W        W67126   0.333  21.720  11.953
 2919W        W67127  12.720  34.120   0.435
 2920W        W67128  13.663   6.825  14.026
 2921W        W67129   1.853  42.524   4.653
 2922W        W67130   7.173   1.278  14.910
 2923W        W67131   2.280  26.472  13.367
 2924W        W67132  36.947  28.015  13.430
 2925W        W67133  22.532  14.191   1.293
 2926W        W67134  28.527  28.514  12.920
 2927W        W67135  31.996   0.265   1.270
 2928W        W67136  28.454   3.440   2.843
 2929W        W67137  23.701   7.891   1.268
 2930W        W67138   8.802   0.379   0.300
 2931W        W67139   0.483  29.032   2.355
 2932W        W67140   3.373  17.147   3.690
 2933W        W67141  29.173   1.733  14.841
 2934W        W67142  20.225  33.444   0.421
 2935W        W67143  25.592   6.214   5.105
 2936W        W67144   5.380  44.865  14.878
 2937W        W67145  12.281  27.531   0.822
 2938W        W67146  41.376  36.941   3.689
 2939W        W67147  31.429   7.912  14.790
 2940W        W67148   1.481  16.087  10.637
 2941W        W67149  19.547   1.321   4.814
 2942W        W67150  10.851  24.641  13.804
 2943W        W67151  12.152  21.032   1.907
 2944W        W67152   0.460  36.910  10.442
 2945W        W67153  16.770  19.571   1.733
 2946W        W67154  25.612  16.675  11.035
 2947W        W67155  43.927   2.396  11.489
 2948W        W67156  30.573  25.656   0.396
 2949W        W67157   0.341  23.161   3.751
 2950W        W67158  32.134  39.314  11.467
 2951W        W67159  20.228  25.197  12.507
 2952W        W67160  15.726  37.400   4.142
 2953W        W67161   2.393  21.568   4.157
 2954W        W67162  37.435  36.485  13.057
 2955W        W67163  12.794  42.322  10.589
 2956W        W67164   9.716  36.525  13.419
 2957W        W67165   4.727   8.699   4.598
 2958W        W67166  36.069  27.566   2.776
 2959W        W67167   4.340   4.393  11.502
 2960W        W67168  18.675  21.516  14.491
 2961W        W67169   3.375  13.169   2.313
 2962W        W67170  27.940  20.642   2.244
 2963W        W67171  16.645  23.502   0.267
 2964W        W67172  22.747  30.952  10.447
 2965W        W67173  20.759  12.268   3.273
 2966W        W67174  12.339  24.665   2.897
 2967W        W67175   9.677  34.519   3.781
 2968W        W67176  33.916  11.140  13.913
 2969W        W67177  18.790   9.729   1.863
 2970W        W67178  22.541  14.596  13.981
 2971W        W67179  24.041  21.747  10.551
 2972W        W67180   0.912   3.802  14.460
 2973W        W67181  24.223   8.798   3.705
 2974W        W67182   9.195  17.169   1.432
 2975W        W67183  22.534  31.603  14.482
 2976W        W67184  43.390  32.394  14.809
 2977W        W67185   3.438  22.645  14.439
 2978W        W67186  10.359  22.515   2.230
 2979W        W67187  40.501  17.556   2.395
 2980W        W67188  10.838  27.574  10.914
 2981W        W67189  32.091  11.721   4.799
 2982W        W67190  14.648  29.923   2.360
 2983W        W67191  13.661   2.872  10.595
 2984W        W67192  43.351  36.546  13.401
 2985W        W67193  26.510  28.108   4.681
 2986W        W67194  44.351  19.754   1.256
 2987W        W67195  38.383  37.954  14.478
 2988W        W67196  44.941  20.151  13.495
 2989W        W67197  41.043  32.938  14.301
 2990W        W67198   3.446   8.682  12.351
 2991W        W67199  12.287   6.250  11.476
 2992W        W67200   7.689  29.669  14.024
 2993W        W67201   9.861  44.993   3.662
 2994W        W67202  38.985  26.636   0.377
 2995W        W67203  38.471  25.059  11.489
 2996W        W67204   5.838  44.470   1.400
 2997W        W67205  39.901  32.543   4.656
 2998W        W67206  15.767  38.992  12.066
 2999W        W67207  25.610  43.885  13.358
 3000W        W67208  11.288  41.910  10.561
 3001W        W67209   8.659  16.649  14.897
 3002W        W67210   0.929   8.337   3.694
 3003W        W67211  21.571  38.850  10.049
 3004W        W67212  43.507  28.023  14.514
 3005W        W67213  19.765   4.216   4.656
 3006W        W67214   9.785  44.006   0.269
 3007W        W67215  10.808   7.361   2.716
 3008W        W67216  38.328  44.371   3.285
 3009W        W67217  25.058  40.053   4.241
 3010W        W67218  30.625  35.578  14.841
 3011W        W67219  21.038  22.594  11.458
 3012W        W67220  18.577   7.755   5.174
 3013W        W67221  43.800  14.622  12.874
 3014W        W67222   0.283   3.422  12.392
 3015W        W67223  41.842  40.966  13.800
 3016W        W67224   1.389  28.647   4.314
 3017W        W67225  39.450  19.693   0.424
 3018W        W67226  25.698   5.431   3.673
 3019W        W67227  17.556  29.498  13.057
 3020W        W67228  35.069  11.681  11.486
 3021W        W67229  19.572   5.354   0.909
 3022W        W67230  41.307  37.954   1.260
 3023W        W67231  33.575   4.348   0.782
 3024W        W67232  40.352   5.768   3.374
 3025W        W67233  17.667  19.113   4.265
 3026W        W67234  39.380  31.612  14.980
 3027W        W67235  18.701  35.601   5.176
 3028W        W67236  26.482  14.679   0.802
 3029W        W67237  31.910  28.047   1.787
 3030W        W67238  14.790  36.999   3.244
 3031W        W67239  40.917   1.269  11.551
 3032W        W67240  43.886   0.872   3.311
 3033W        W67241  32.409   8.376  10.438
 3034W        W67242  13.179  43.366   0.419
 3035W        W67243   2.831  25.641   2.194
 3036W        W67244  19.186  41.943  10.906
 3037W        W67245  31.114   0.329   3.317
 3038W        W67246  35.372   5.892   4.757
 3039W        W67247  19.256   9.748  10.478
 3040W        W67248  30.127   2.356   1.738
 3041W        W67249   5.911  29.121  11.596
 3042W        W67250  20.605  25.963  13.511
 3043W        W67251  29.432  26.175  14.318
 3044W        W67252   7.307  38.008   0.386
 3045W        W67253  17.671  11.821  10.420
 3046W        W67254  15.104  30.926  14.762
 3047W        W67255  18.282  19.559  13.052
 3048W        W67256  27.604   8.242  12.420
 3049W        W67257  44.899   7.279   3.721
 3050W        W67258  40.405  14.676  13.034
 3051W        W67259   8.839  10.833   0.359
 3052W        W67260  10.204  13.277  13.519
 3053W        W67261   9.354  17.242  10.136
 3054W        W67262  29.545  32.067  13.424
 3055W        W67263  43.288  26.662  11.590
 3056W        W67264  22.742  18.633   0.786
 3057W        W67265  19.100  22.111   2.794
 3058W        W67266  37.467  10.754  11.998
 3059W        W67267  34.915  32.985   4.294
 3060W        W67268  41.858  17.170   2.312
 3061W        W67269  28.493  40.423  10.425
 3062W        W67270  44.373  10.865  12.082
 3063W        W67271  18.726  18.188   0.418
 3064W        W67272  15.798  23.089  14.790
 3065W        W67273  41.857  30.054   4.655
 3066W        W67274  38.018  24.155   4.832
 3067W        W67275   8.772   2.778   4.137
 3068W        W67276  19.688  43.969   4.644
 3069W        W67277  13.750  44.936  13.837
 3070W        W67278   7.800  16.276  12.377
 3071W        W67279   7.357  18.668   2.220
 3072W        W67280   1.409  26.998   0.355
 3073W        W67281  33.053   3.819   3.635
 3074W        W67282   3.423  17.198  12.361
 3075W        W67283  19.736   4.371   1.774
 3076W        W67284   5.223   4.791  12.392
 3077W        W67285   3.297   9.178  10.587
 3078W        W67286  34.096  42.826  13.395
 3079W        W67287   6.327  44.483  12.473
 3080W        W67288  27.632   3.888   3.253
 3081W        W67289  43.325  37.336   3.805
 3082W        W67290  13.119  41.316  10.539
 3083W        W67291  29.503  16.640   2.802
 3084W        W67292  38.909   4.209   3.334
 3085W        W67293  30.575   2.301  11.962
 3086W        W67294  21.147  41.825   5.194
 3087W        W67295   8.801   9.256  10.911
 3088W        W67296  25.177  15.618  10.577
 3089W        W67297   1.764  32.952   1.309
 3090W        W67298  29.034  36.526  10.912
 3091W        W67299   3.277  22.093   1.249
 3092W        W67300  27.529  15.111   1.439
 3093W        W67301  32.637  23.185   1.838
 3094W        W67302  15.717  31.925  11.005
 3095W        W67303  20.061  20.606   2.306
 3096W        W67304  30.479   1.291   2.235
 3097W        W67305  35.913  41.354  12.391
 3098W        W67306  31.565  37.470  13.355
 3099W        W67307  25.035  34.557   1.717
 3100W        W67308  38.932   5.370   1.308
 3101W        W67309  12.360  25.146   1.880
 3102W        W67310  25.975  32.407   2.810
 3103W        W67311  34.971  26.143  11.100
 3104W        W67312  24.688   6.792  11.604
 3105W        W67313  29.986  20.595   1.272
 3106W        W67314   8.255  38.566  10.890
 3107W        W67315  42.441  42.525   1.238
 3108W        W67316  31.621  18.768   2.330
 3109W        W67317   1.456  16.665  14.299
 3110W        W67318  39.066  26.184   0.341
 3111W        W67319  27.465  31.416  12.428
 3112W        W67320  13.286  33.458  11.561
 3113W        W67321   4.401  19.058  11.990
 3114W        W67322   2.757  42.396   3.756
 3115W        W67323  39.336  15.299   4.650
 3116W        W67324  13.114  33.503   3.630
 3117W        W67325  10.862  22.658  14.914
 3118W        W67326   9.812   2.903   4.613
 3119W        W67327  26.101  28.970  14.965
 3120W        W67328  19.542  44.903  14.879
 3121W        W67329  44.481  17.187  14.014
 3122W        W67330  32.624  26.686   2.313
 3123W        W67331  39.527  19.212   0.846
 3124W        W67332  25.031   9.648   3.218
 3125W        W67333  10.138   9.680  11.024
 3126W        W67334  20.595  16.269   4.130
 3127W        W67335  17.671  34.376   0.276
 3128W        W67336   1.860  40.972   4.640
 3129W        W67337  33.560  44.876  10.158
 3130W        W67338  12.847  17.152  12.581
 3131W        W67339  40.428   1.848   9.645
 3132W        W67340  17.139  24.640   1.901
 3133W        W67341  23.100  27.626  12.831
 3134W        W67342  30.596  23.087   2.371
 3135W        W67343  22.031  40.501   1.851
 3136W        W67344  42.470  41.031  14.813
 3137W        W67345  21.237   7.835   2.844
 3138W        W67346   4.403  11.652  11.071
 3139W        W67347  30.635   9.206  11.574
 3140W        W67348   5.259   5.912   3.251
 3141W        W67349  21.651  23.033   3.329
 3142W        W67350  32.955  12.284   4.270
 3143W        W67351   6.918   4.208  11.068
 3144W        W67352   7.253  31.138   1.427
 3145W        W67353   4.209   5.392   1.854
 3146W        W67354  36.975  27.160  13.965
 3147W        W67355   6.261  27.040  12.058
 3148W        W67356   0.789  29.660  14.503
 3149W        W67357   8.173  24.019  10.644
 3150W        W67358  17.768   5.440  13.432
 3151W        W67359   2.811  28.132   3.332
 3152W        W67360   8.286  30.584   3.810
 3153W        W67361  15.194  20.734   1.935
 3154W        W67362   5.350   2.929  11.902
 3155W        W67363  33.488   4.444   2.358
 3156W        W67364  35.858   0.372  11.047
 3157W        W67365  23.023  41.366   2.347
 3158W        W67366   0.437  20.054   0.821
 3159W        W67367  41.369  37.976   1.703
 3160W        W67368  15.778  12.649   1.906
 3161W        W67369  38.841  22.164   4.274
 3162W        W67370   6.716  31.413   1.298
 3163W        W67371   6.733  36.925   1.868
 3164W        W67372  43.857  37.969   1.308
 3165W        W67373  40.492  30.938  13.535
 3166W        W67374  17.121  24.993  14.011
 3167W        W67375   2.260  43.006  13.439
 3168W        W67376  25.598  41.874   2.235
 3169W        W67377  20.589  35.592   0.424
 3170W        W67378  33.076  21.255   4.325
 3171W        W67379  43.904  18.783   3.716
 3172W        W67380  38.352  19.073   2.275
 3173W        W67381  31.003  21.626  12.993
 3174W        W67382  40.023  10.357   3.284
 3175W        W67383  22.639  25.642  12.527
 3176W        W67384  33.882  19.116  12.535
 3177W        W67385   2.270  11.224   2.857
 3178W        W67386  42.361  26.995   0.867
 3179W        W67387  35.971   3.875   2.256
 3180W        W67388  30.002   9.839   1.891
 3181W        W67389  17.257  34.969  11.071
 3182W        W67390  25.966   4.855  11.941
 3183W        W67391  33.979   1.367   4.653
 3184W        W67392  40.916   4.830  11.604
 3185W        W67393   2.287  29.455   1.915
 3186W        W67394  43.820  22.618   4.342
 3187W        W67395  15.739   7.242  12.377
 3188W        W67396  10.729  33.982   4.642
 3189W        W67397  14.262  34.929   3.381
 3190W        W67398  29.054   7.355  14.429
 3191W        W67399  33.594  24.652  12.044
 3192W        W67400  29.131  23.704   1.351
 3193W        W67401   0.367  26.077   4.323
 3194W        W67402   5.710   3.771  13.423
 3195W        W67403  38.012  14.281  10.947
 3196W        W67404  31.977   0.836   1.780
 3197W        W67405   3.737  21.678   3.820
 3198W        W67406  36.071  13.106   3.272
 3199W        W67407   5.223  40.822   0.728
 3200W        W67408  16.306  33.462   4.624
 3201W        W67409  14.288  31.571  10.596
 3202W        W67410  37.372  20.616  13.054
 3203W        W67411  31.097   0.905  12.052
 3204W        W67412  22.747  43.866   2.738
 3205W        W67413   4.920   0.466  12.961
 3206W        W67414   3.802  25.194  12.916
 3207W        W67415  32.585   8.829  13.337
 3208W        W67416  42.524  37.006  12.445
 3209W        W67417  41.949  25.031   2.707
 3210W        W67418  12.695  28.507   2.341
 3211W        W67419   1.826  10.658   2.701
 3212W        W67420  16.794  31.984   1.407
 3213W        W67421   8.810  17.732   1.338
 3214W        W67422  33.058   0.773  11.546
 3215W        W67423  38.383  16.664   5.305
 3216W        W67424  22.198   6.251   0.479
 3217W        W67425   5.275  16.743  13.839
 3218W        W67426   0.441  41.830  10.951
 3219W        W67427  40.977  41.517  14.276
 3220W        W67428  26.077  42.296  12.052
 3221W        W67429  35.094  11.697   4.231
 3222W        W67430  15.176  37.862   9.461
 3223W        W67431   1.931  21.702   1.322
 3224W        W67432  40.881  14.161  12.092
 3225W        W67433  33.927  41.490   3.803
 3226W        W67434  25.125   3.378   1.797
 3227W        W67435  26.980  30.590  13.483
 3228W        W67436  16.294   9.264  11.432
 3229W        W67437  28.609  12.327   0.395
 3230W        W67438   9.677   9.850  14.433
 3231W        W67439   7.900  15.173   2.245
 3232W        W67440  43.324  18.294  11.487
 3233W        W67441  38.369   5.338   2.320
 3234W        W67442  29.928  29.499  13.476
 3235W        W67443  21.240  41.007  14.445
 3236W        W67444  19.600   7.268   1.875
 3237W        W67445  32.437  21.091  14.767
 3238W        W67446   5.871  40.305   2.232
 3239W        W67447  12.753  33.999  12.563
 3240W        W67448   8.352  28.996   2.418
 3241W        W67449  21.566  21.090  14.920
 3242W        W67450  30.072  19.283   0.302
 3243W        W67451   8.893  29.631   2.342
 3244W        W67452  41.925  31.610   4.214
 3245W        W67453   5.293  14.591  11.500
 3246W        W67454  27.687   4.343   4.778
 3247W        W67455  36.431  35.385  12.395
 3248W        W67456   6.706  23.080   1.260
 3249W        W67457  42.836   8.396  13.002
 3250W        W67458  37.338  11.229  11.899
 3251W        W67459  13.351  37.923  11.969
 3252W        W67460  40.962   6.766   1.890
 3253W        W67461  33.510  25.079  10.082
 3254W        W67462  34.414  27.623  10.495
 3255W        W67463  32.929  25.534  14.893
 3256W        W67464  23.025  43.424  11.978
 3257W        W67465  33.951  41.525   2.200
 3258W        W67466  26.128  34.900  14.760
 3259W        W67467  16.162  30.507  12.052
 3260W        W67468  14.157  36.506  10.512
 3261W        W67469  32.992  26.693  12.852
 3262W        W67470  41.958  15.660  12.869
 3263W        W67471  12.201   8.398   4.692
 3264W        W67472  40.957  29.549   4.691
 3265W        W67473   6.687  34.385  11.039
 3266W        W67474  14.234  41.298   4.809
 3267W        W67475   0.480  10.335   1.808
 3268W        W67476  32.128   8.726   3.378
 3269W        W67477   9.845  15.251  12.942
 3270W        W67478  20.607   0.435  14.771
 3271W        W67479   4.365   3.751   0.955
 3272W        W67480  30.558  33.581  14.007
 3273W        W67481  12.210  18.197   0.432
 3274W        W67482  37.396  17.262  14.502
 3275W        W67483  25.084  41.928  13.813
 3276W        W67484  28.489  26.010  11.460
 3277W        W67485  19.271  43.380   4.697
 3278W        W67486  13.781  37.537   3.868
 3279W        W67487  12.826   1.249  10.597
 3280W        W67488  41.466   1.855  14.390
 3281W        W67489  28.934   5.199  11.571
 3282W        W67490  22.741  37.905   4.680
 3283W        W67491  22.189  26.186  13.540
 3284W        W67492  41.919  44.408  12.891
 3285W        W67493  22.693   2.806  12.958
 3286W        W67494  33.428  19.202   4.755
 3287W        W67495  17.739  22.563   1.721
 3288W        W67496  41.033   2.877   2.714
 3289W        W67497  13.318  23.227   0.277
 3290W        W67498  26.139  16.229   0.264
 3291W        W67499   4.319  34.509  10.454
 3292W        W67500  11.703  40.303  14.003
 3293W        W67501   0.960   0.744   5.117
 3294W        W67502  37.430  15.696  10.902
 3295W        W67503  25.982  40.411  13.002
 3296W        W67504  38.919  39.347   3.764
 3297W        W67505   4.382  17.798   2.326
 3298W        W67506  28.069  42.367  10.487
 3299W        W67507  38.023  42.992   0.823
 3300W        W67508  31.576  14.274   1.924
 3301W        W67509  17.162  43.312  12.906
 3302W        W67510   7.311  28.608   2.192
 3303W        W67511  22.221   2.801  13.970
 3304W        W67512   9.240   2.732  12.473
 3305W        W67513  36.400  29.426   0.855
 3306W        W67514   3.833   3.941  10.514
 3307W        W67515   0.788   3.804  12.382
 3308W        W67516  19.571  19.632  12.347
 3309W        W67517  23.095  42.482   0.828
 3310W        W67518   1.874  30.517  14.498
 3311W        W67519  32.606  33.066  14.366
 3312W        W67520  32.484  23.131  10.438
 3313W        W67521  15.677   7.797  13.010
 3314W        W67522  13.174   8.799   3.676
 3315W        W67523   5.420   3.752  13.931
 3316W        W67524   9.328  41.515   0.759
 3317W        W67525  11.147  42.327   0.457
 3318W        W67526  44.833  42.948   4.222
 3319W        W67527   3.406  26.581  11.112
 3320W        W67528   4.906   9.874   1.789
 3321W        W67529  22.177  17.097  12.554
 3322W        W67530  10.336   6.809  14.417
 3323W        W67531  40.811  25.688  13.411
 3324W        W67532  40.465   9.676   0.847
 3325W        W67533   0.869  20.215   4.663
 3326W        W67534  13.194  40.373  10.997
 3327W        W67535  34.936  42.287  10.519
 3328W        W67536  13.294  26.037  13.823
 3329W        W67537  17.296  19.188   0.413
 3330W        W67538   3.753   2.237  11.511
 3331W        W67539  24.201  16.575   2.313
 3332W        W67540  14.746  34.432   1.210
 3333W        W67541  34.594  25.708  13.849
 3334W        W67542   0.438  18.592   4.314
 3335W        W67543  39.958  39.413   0.728
 3336W        W67544   1.322  29.543   5.240
 3337W        W67545  10.682  13.335  14.513
 3338W        W67546  18.157  44.414   2.843
 3339W        W67547  36.889   6.268  11.892
 3340W        W67548   7.851  31.410   2.376
 3341W        W67549   2.405   9.275   0.353
 3342W        W67550  23.236  13.189  14.292
 3343W        W67551  44.434  35.520   2.204
 3344W        W67552   6.742   2.467   1.803
 3345W        W67553   0.470  30.621   2.277
 3346W        W67554  33.075  24.987   3.176
 3347W        W67555  36.441  23.596   4.682
 3348W        W67556   2.385   5.434  14.984
 3349W        W67557  13.179  15.203  11.918
 3350W        W67558  25.659  11.242   0.451
 3351W        W67559   9.219  41.865   1.341
 3352W        W67560  29.962  30.147  11.108
 3353W        W67561  33.999   3.909  10.643
 3354W        W67562  17.237   5.871  11.950
 3355W        W67563  27.140   5.249  12.031
 3356W        W67564   5.270  30.642   2.736
 3357W        W67565  14.334  19.061  12.095
 3358W        W67566  15.194  18.683   4.249
 3359W        W67567  10.869  36.948  12.506
 3360W        W67568  17.202  38.000   0.783
 3361W        W67569  24.199  39.398  12.921
 3362W        W67570   0.960  20.151  12.446
 3363W        W67571  33.979  14.627  13.827
 3364W        W67572  18.694  18.257   4.709
 3365W        W67573  27.099  22.246  14.957
 3366W        W67574  42.364  31.575  14.846
 3367W        W67575  32.077   4.427  13.438
 3368W        W67576  39.555  23.506   0.367
 3369W        W67577  12.675   0.938  13.900
 3370W        W67578  40.420  14.187   2.734
 3371W        W67579   4.767  17.097   2.298
 3372W        W67580  22.737   3.429   3.733
 3373W        W67581   7.678  13.188   3.857
 3374W        W67582  22.557  15.734  14.762
 3375W        W67583  11.704  44.345  10.076
 3376W        W67584  17.124  21.513  10.469
 3377W        W67585  13.221   6.375   4.775
 3378W        W67586  15.796   0.756   2.675
 3379W        W67587  42.815  22.080  13.884
 3380W        W67588  40.801  12.796   1.337
 3381W        W67589   4.376  43.494  13.338
 3382W        W67590  38.842  15.790   2.847
 3383W        W67591  25.066  26.606   2.210
 3384W        W67592   0.801  22.644   1.447
 3385W        W67593  42.786   3.878   5.724
 3386W        W67594  32.083   3.376   0.350
 3387W        W67595  28.557  36.500   1.930
 3388W        W67596  39.872   9.734   3.345
 3389W        W67597  44.828  20.144  12.095
 3390W        W67598  15.214  19.756  12.353
 3391W        W67599   2.866  39.917   2.669
 3392W        W67600  36.851  31.027   3.352
 3393W        W67601   7.739  20.769   4.807
 3394W        W67602  32.067  41.863   0.879
 3395W        W67603  37.016  29.138  11.043
 3396W        W67604  34.615  24.613   3.739
 3397W        W67605  18.559  32.966   2.728
 3398W        W67606  38.415   4.387  13.982
 3399W        W67607  41.928   7.416   2.727
 3400W        W67608   6.732   3.936   4.199
 3401W        W67609  29.492  33.565  11.886
 3402W        W67610   2.344  41.530  13.340
 3403W        W67611  12.783  33.933   0.753
 3404W        W67612  12.613  25.202  12.093
 3405W        W67613  30.012  44.907   4.141
 3406W        W67614  28.541  37.430   4.307
 3407W        W67615  23.138   1.776   4.320
 3408W        W67616  31.416  33.068   1.427
 3409W        W67617  38.562  28.636   2.719
 3410W        W67618  35.583  28.443  10.951
 3411W        W67619   7.766  44.004   2.367
 3412W        W67620  34.891  16.264  12.943
 3413W        W67621   2.823  18.700  10.487
 3414W        W67622  33.112  35.424   0.347
 3415W        W67623  37.501  31.461  12.383
 3416W        W67624  13.811   5.793  14.396
 3417W        W67625  40.503  20.186  10.496
 3418W        W67626  41.475  24.608   2.280
 3419W        W67627  43.802  11.642   4.342
 3420W        W67628   8.699   1.387  12.065
 3421W        W67629  28.138  23.559   3.705
 3422W        W67630  37.346   2.801   3.712
 3423W        W67631  30.517  14.601  14.466
 3424W        W67632  18.072  40.799   1.792
 3425W        W67633  27.625   6.302  14.885
 3426W        W67634  34.036  35.983  13.461
 3427W        W67635  15.274  27.946  12.034
 3428W        W67636  41.976  38.040   3.147
 3429W        W67637  38.011  12.746  14.423
 3430W        W67638  17.131  23.130   4.336
 3431W        W67639   2.285  23.081   2.178
 3432W        W67640  15.594  30.164   4.197
 3433W        W67641  27.517  16.639   1.283
 3434W        W67642  26.130   5.806  11.103
 3435W        W67643  20.152  44.501   5.268
 3436W        W67644   0.341  27.097   1.327
 3437W        W67645  24.159   8.729  13.825
 3438W        W67646   8.198  33.875  13.837
 3439W        W67647  18.087   7.876  13.878
 3440W        W67648  32.083  33.080   3.363
 3441W        W67649  43.324   7.222   1.357
 3442W        W67650  13.309   8.326  10.404
 3443W        W67651  19.042  20.050  14.417
 3444W        W67652  22.621  37.348   2.852
 3445W        W67653  22.633  29.629   5.207
 3446W        W67654  28.082  44.813  12.461
 3447W        W67655  44.334  29.611  12.990
 3448W        W67656  36.421  11.349  10.416
 3449W        W67657  18.292   7.250  12.870
 3450W        W67658  42.983  14.782  14.334
 3451W        W67659  15.647  10.366   1.271
 3452W        W67660  41.942  14.227   4.116
 3453W        W67661  11.196   2.447   1.804
 3454W        W67662  24.209  21.042   4.657
 3455W        W67663  40.849  25.579  14.925
 3456W        W67664   7.197  30.419  12.908
 3457W        W67665  10.336  25.611  14.854
 3458W        W67666   1.974  26.190  10.443
 3459W        W67667  21.746  22.695  10.928
 3460W        W67668   8.867  30.540  12.885
 3461W        W67669  28.041  16.213   9.954
 3462W        W67670  36.966  13.158  13.008
 3463W        W67671  29.126   7.905  11.601
 3464W        W67672  34.052  23.092  10.405
 3465W        W67673  19.600  26.956   2.864
 3466W        W67674  19.640   8.709   1.371
 3467W        W67675   8.330  25.611   0.462
 3468W        W67676  33.927  36.582  14.894
 3469W        W67677  38.410  26.553  14.774
 3470W        W67678  27.157  32.971  14.361
 3471W        W67679   5.235  24.072   2.766
 3472W        W67680  17.077  12.227  13.337
 3473W        W67681  32.074  24.544   0.280
 3474W        W67682  13.266   1.465  11.893
 3475W        W67683  40.476  43.477  11.602
 3476W        W67684  20.162  29.140  10.560
 3477W        W67685   6.388  29.099   1.859
 3478W        W67686  21.130  38.362  13.468
 3479W        W67687  19.734  29.634   3.341
 3480W        W67688  13.191  30.089  11.089
 3481W        W67689  10.813  35.486   4.209
 3482W        W67690  37.472  28.958  14.021
 3483W        W67691  20.244  39.386  10.458
 3484W        W67692  38.009  32.890  11.519
 3485W        W67693  37.835  15.136  13.900
 3486W        W67694  23.028  21.511  13.378
 3487W        W67695  11.795  30.503   4.625
 3488W        W67696  16.589  16.219   1.823
 3489W        W67697   3.803  22.221   1.791
 3490W        W67698  35.006  15.314   1.929
 3491W        W67699  17.748  23.568  13.546
 3492W        W67700  14.190  25.045   4.215
 3493W        W67701  35.425  17.623   4.311
 3494W        W67702  26.519  24.592  13.907
 3495W        W67703   4.866  41.788   0.797
 3496W        W67704  44.834  26.585   2.403
 3497W        W67705   0.249  23.054   1.784
 3498W        W67706  27.604  38.513  10.472
 3499W        W67707  36.448  38.387  12.004
 3500W        W67708  20.242  24.536  13.927
 3501W        W67709  14.714  13.821  10.421
 3502W        W67710  41.944  15.786   0.913
 3503W        W67711  16.265  23.573   2.233
 3504W        W67712   4.719  34.414  11.613
 3505W        W67713  28.029  29.574   4.213
 3506W        W67714  40.015  15.591   4.268
 3507W        W67715  18.567  30.056   0.949
 3508W        W67716  18.237  18.726   9.529
 3509W        W67717   4.349   8.774   1.334
 3510W        W67718  12.710   6.286   0.437
 3511W        W67719  29.920  31.552  13.836
 3512W        W67720  33.572  20.220  14.431
 3513W        W67721  27.086   8.852  10.589
 3514W        W67722  28.635  15.814  14.791
 3515W        W67723  24.581  23.723  11.995
 3516W        W67724   6.792  38.420   0.405
 3517W        W67725  17.659  25.180  10.619
 3518W        W67726  14.605   9.742   4.113
 3519W        W67727  16.317  25.124   3.762
 3520W        W67728  10.202  23.536   1.352
 3521W        W67729  20.111   1.735  14.502
 3522W        W67730   7.693  33.902   0.288
 3523W        W67731  25.971   0.784   3.747
 3524W        W67732  11.294  32.460  10.954
 3525W        W67733  27.016  40.896  14.302
 3526W        W67734  39.428   9.880  11.897
 3527W        W67735   6.267  17.700  13.344
 3528W        W67736   2.295  36.443  12.551
 3529W        W67737  21.087  27.690  12.459
 3530W        W67738  29.082  34.378   3.752
 3531W        W67739  22.506  30.027   0.783
 3532W        W67740  14.185  28.646   2.715
 3533W        W67741  26.083  23.226  11.057
 3534W        W67742  44.276  34.956   0.747
 3535W        W67743  39.868  35.103  12.994
 3536W        W67744  18.720   5.834  10.423
 3537W        W67745   7.700  40.342   3.667
 3538W        W67746  33.606  38.402   4.823
 3539W        W67747  18.654  42.973  11.933
 3540W        W67748  12.692  36.575   3.694
 3541W        W67749  39.013   1.455  11.534
 3542W        W67750  22.661  28.563   0.357
 3543W        W67751  36.565   4.838   3.737
 3544W        W67752  27.976  32.603  14.784
 3545W        W67753   0.929   4.450   3.673
 3546W        W67754  33.518  35.586   4.158
 3547W        W67755  22.148  37.547   4.304
 3548W        W67756   2.880  32.939  14.388
 3549W        W67757   7.381  38.057   2.815
 3550W        W67758  11.162  17.211   3.683
 3551W        W67759   3.952  16.313   1.434
 3552W        W67760  31.114  14.780   2.351
 3553W        W67761   4.288   2.242   3.331
 3554W        W67762  20.156   0.479   0.370
 3555W        W67763  11.637  23.610  13.446
 3556W        W67764  43.339  14.173   2.779
 3557W        W67765   2.317  28.511  10.558
 3558W        W67766  15.772  30.945   1.761
 3559W        W67767   6.310  32.455  13.002
 3560W        W67768  21.519  40.342   3.242
 3561W        W67769  43.306  23.690  14.858
 3562W        W67770  39.344   2.761   2.362
 3563W        W67771  22.668  30.532  10.623
 3564W        W67772  21.098   4.898  10.505
 3565W        W67773   9.691   0.477   2.741
 3566W        W67774   0.419  36.426   0.935
 3567W        W67775  34.886  30.519   2.807
 3568W        W67776   4.353  18.265   1.296
 3569W        W67777   1.872  15.318   0.903
 3570W        W67778  24.214   0.413  13.063
 3571W        W67779  40.808  40.350   4.715
 3572W        W67780  10.168  34.947   0.879
 3573W        W67781  20.171   8.834  14.508
 3574W        W67782   3.838  28.106   0.456
 3575W        W67783  27.186   9.879   0.912
 3576W        W67784  16.760  32.946  11.976
 3577W        W67785  10.160  14.777  12.962
 3578W        W67786  24.203  11.284   0.815
 3579W        W67787  30.934  24.123   3.271
 3580W        W67788   9.317   8.377  13.329
 3581W        W67789   9.281  22.198  10.958
 3582W        W67790  35.873  15.712  13.356
 3583W        W67791  24.613  37.922  10.481
 3584W        W67792  27.627  35.916  12.988
 3585W        W67793  33.948  43.435   1.281
 3586W        W67794  19.122  37.373   2.897
 3587W        W67795   1.443  24.581  13.027
 3588W        W67796   2.433   8.781  14.803
 3589W        W67797  12.262   7.413   2.308
 3590W        W67798   2.446  42.522   1.433
 3591W        W67799  19.586  41.438  11.006
 3592W        W67800  30.092  26.100  12.547
 3593W        W67801  19.595  16.079   1.884
 3594W        W67802  33.981  36.513   4.255
 3595W        W67803  43.365  34.972   1.443
 3596W        W67804   6.197  33.879  11.009
 3597W        W67805   2.855  27.553   1.892
 3598W        W67806   9.840  23.621  11.936
 3599W        W67807   3.371   8.357   2.281
 3600W        W67808  20.091  36.993  13.497
 3601W        W67809  44.490  18.711   3.377
 3602W        W67810  31.984  35.976   0.804
 3603W        W67811  41.943  22.624   3.291
 3604W        W67812  16.616   0.783   4.298
 3605W        W67813  41.506   0.822   4.800
 3606W        W67814  32.565  15.213   1.239
 3607W        W67815  35.050  41.530  10.549
 3608W        W67816  36.889  17.589  13.842
 3609W        W67817  28.494   7.793  12.404
 3610W        W67818  13.213  30.159   4.332
 3611W        W67819  41.431  14.183   2.895
 3612W        W67820  21.750  15.626  14.478
 3613W        W67821  24.177  26.630  10.156
 3614W        W67822  15.312  44.422   0.377
 3615W        W67823   9.345  20.175   3.767
 3616W        W67824  18.588   5.897  13.058
 3617W        W67825  13.344   6.334   3.327
 3618W        W67826  39.891  20.219   1.426
 3619W        W67827  20.710  36.031  13.355
 3620W        W67828   3.934  40.026   2.841
 3621W        W67829  42.315  15.657  11.540
 3622W        W67830  33.008  16.574   0.460
 3623W        W67831  37.834   2.381   1.833
 3624W        W67832   7.345  31.407   0.405
 3625W        W67833  39.855  11.277  14.294
 3626W        W67834  15.137  11.629  10.549
 3627W        W67835  18.083  42.360   2.794
 3628W        W67836  25.975  36.364   3.301
 3629W        W67837  43.491  29.960   0.802
 3630W        W67838  21.684   5.346   0.276
 3631W        W67839   7.264   7.268   0.342
 3632W        W67840  31.480  13.654   2.202
 3633W        W67841  36.079   6.182   2.695
 3634W        W67842  26.042  22.165  14.934
 3635W        W67843  12.247   5.289   1.408
 3636W        W67844  14.127  34.400   3.783
 3637W        W67845  31.568  14.747  13.344
 3638W        W67846  44.306   2.426  14.911
 3639W        W67847   2.829  33.881   3.205
 3640W        W67848   9.176  39.041  14.955
 3641W        W67849  27.446  25.196   0.352
 3642W        W67850   4.735  12.837   0.305
 3643W        W67851  21.617  20.613   3.381
 3644W        W67852   2.803   6.306  12.559
 3645W        W67853  18.721  41.306  13.309
 3646W        W67854  19.761   9.811   2.734
 3647W        W67855  13.304  23.528   4.225
 3648W        W67856   1.733  22.161   0.789
 3649W        W67857   2.455  30.600   0.950
 3650W        W67858  38.562   9.776   0.948
 3651W        W67859  27.069  16.739  13.360
 3652W        W67860  36.412  13.203  12.410
 3653W        W67861  17.090  42.014   1.907
 3654W        W67862  31.959  14.232   4.637
 3655W        W67863  16.164  29.948  13.890
 3656W        W67864  10.870  32.621  13.355
 3657W        W67865  33.891  39.363  12.867
 3658W        W67866  18.763  38.382  12.390
 3659W        W67867  28.485  32.400   4.813
 3660W        W67868  40.390  20.726   0.778
 3661W        W67869  38.064  19.572   2.673
 3662W        W67870  20.122  16.619  13.978
 3663W        W67871   7.309   5.695   0.883
 3664W        W67872  36.555  10.819   3.347
 3665W        W67873  32.992  33.046  12.538
 3666W        W67874   2.758   6.752   0.263
 3667W        W67875  13.282  41.801   4.287
 3668W        W67876  33.558  12.137  11.994
 3669W        W67877  22.629  25.049   9.985
 3670W        W67878  22.225  35.443   0.810
 3671W        W67879   0.782  26.505  10.410
 3672W        W67880   0.324  23.019  12.512
 3673W        W67881  23.149  41.296   1.230
 3674W        W67882  43.906  16.165   2.296
 3675W        W67883  40.955  10.345   0.858
 3676W        W67884  36.445  34.450   0.289
 3677W        W67885  31.014  29.513  12.896
 3678W        W67886  23.988  19.571  10.126
 3679W        W67887  12.351   7.391   4.693
 3680W        W67888  35.010  13.226  10.424
 3681W        W67889  15.702  39.949  13.848
 3682W        W67890  27.096  38.361  11.967
 3683W        W67891  30.654  30.983  12.911
 3684W        W67892  14.758  16.580  12.050
 3685W        W67893  44.476  22.690   2.361
 3686W        W67894   1.953  40.382   2.240
 3687W        W67895  30.510  17.211   2.205
 3688W        W67896   0.780  25.484   4.344
 3689W        W67897  37.999  42.989  11.464
 3690W        W67898   3.752  22.672  12.086
 3691W        W67899  30.152  18.592   4.209
 3692W        W67900  18.127  30.561   2.312
 3693W        W67901  30.987  27.048   2.244
 3694W        W67902  21.162  18.264  14.929
 3695W        W67903  44.892  26.700  13.464
 3696W        W67904   5.744  17.124  12.363
 3697W        W67905  12.360  25.695   0.742
 3698W        W67906  22.251  16.304   5.320
 3699W        W67907  25.613  44.815   0.339
 3700W        W67908  36.918  36.423   2.257
 3701W        W67909  36.435  32.412   3.788
 3702W        W67910   5.287  15.635  13.039
 3703W        W67911  44.776  44.880   2.389
 3704W        W67912  28.575  41.330  10.464
 3705W        W67913  34.425  36.851   1.357
 3706W        W67914  22.181   2.367  14.879
 3707W        W67915  44.758  13.669  11.394
 3708W        W67916  36.474  44.461   4.623
 3709W        W67917  37.856  42.299   4.162
 3710W        W67918  18.236  41.000  14.989
 3711W        W67919  13.808  37.050   3.151
 3712W        W67920  27.995  36.397  10.602
 3713W        W67921  12.351   5.911   0.953
 3714W        W67922   1.964  26.487  13.874
 3715W        W67923  42.853  40.940  13.360
 3716W        W67924   1.967  31.483   2.781
 3717W        W67925  30.137  22.724  10.585
 3718W        W67926  44.291  27.101  14.438
 3719W        W67927   5.761  41.350  12.855
 3720W        W67928  15.266  43.841   4.647
 3721W        W67929  36.565  21.534  14.281
 3722W        W67930  20.668   9.178  13.053
 3723W        W67931   9.647   7.382  10.916
 3724W        W67932  26.178  27.072   4.229
 3725W        W67933  29.601   3.357   2.789
 3726W        W67934  39.861  10.236  11.049
 3727W        W67935  24.627  14.821   3.863
 3728W        W67936  32.118  18.106   1.429
 3729W        W67937  11.704  19.198  13.036
 3730W        W67938  25.089  33.626   0.431
 3731W        W67939  19.534   4.231   2.869
 3732W        W67940  30.065  36.582  12.473
 3733W        W67941  25.684  18.084  13.923
 3734W        W67942  17.077  33.606  13.958
 3735W        W67943  42.481  19.538   5.268
 3736W        W67944   7.809  26.682   2.196
 3737W        W67945  41.864  34.567   3.279
 3738W        W67946  21.733   1.853   4.312
 3739W        W67947  34.497  38.537  13.847
 3740W        W67948  43.805  39.421   4.630
 3741W        W67949  36.555   1.969  10.593
 3742W        W67950  28.569   0.412   3.846
 3743W        W67951  28.154  20.166  14.469
 3744W        W67952  44.270  34.909   1.838
 3745W        W67953  40.051  34.057  12.456
 3746W        W67954  22.525   2.240  11.986
 3747W        W67955  18.790  22.229  12.547
 3748W        W67956  32.944  16.618   2.693
 3749W        W67957  18.146  25.703   4.254
 3750W        W67958   3.772  31.584   1.785
 3751W        W67959  22.195   6.854   0.424
 3752W        W67960  38.994  22.146  11.961
 3753W        W67961   9.857  16.636  11.599
 3754W        W67962  34.991  19.141  12.384
 3755W        W67963  32.024  43.978  11.867
 3756W        W67964  35.102  39.387   2.279
 3757W        W67965  14.719  41.310  14.397
 3758W        W67966  34.452  18.548   0.950
 3759W        W67967  23.071  43.871   4.773
 3760W        W67968  32.099  14.266   2.226
 3761W        W67969   9.297  25.972  14.426
 3762W        W67970  43.288   8.235   2.186
 3763W        W67971  32.135   8.210  11.910
 3764W        W67972   9.794   9.237  10.547
 3765W        W67973  33.091  13.233  13.354
 3766W        W67974  11.320  24.585   2.372
 3767W        W67975  17.162  10.177  10.096
 3768W        W67976   2.916  22.659  12.040
 3769W        W67977  43.819   4.842  13.838
 3770W        W67978  10.311  30.133  14.994
 3771W        W67979  42.499  35.945   0.880
 3772W        W67980   6.889   1.955  13.961
 3773W        W67981  15.182   0.328  13.803
 3774W        W67982  15.624  33.482  13.045
 3775W        W67983  21.211  24.710   3.292
 3776W        W67984  19.760  43.291  10.954
 3777W        W67985  19.230  37.558   0.821
 3778W        W67986  26.615  40.997   4.735
 3779W        W67987  14.164  23.055   3.727
 3780W        W67988   5.895  22.093  14.289
 3781W        W67989  24.145  11.357  12.494
 3782W        W67990  17.068  15.792  11.003
 3783W        W67991  26.508  26.145  13.365
 3784W        W67992   4.331  36.912   3.766
 3785W        W67993  27.985  22.742  10.501
 3786W        W67994  27.691  31.138  14.335
 3787W        W67995  10.855  41.887  13.970
 3788W        W67996  19.734  20.177   2.358
 3789W        W67997   4.386  34.912  12.468
 3790W        W67998  39.953   5.762   9.926
 3791W        W67999  37.444  44.941  13.947
 3792W        W68000  38.001  14.281  10.519
 3793W        W68001  28.003  23.577  14.991
 3794W        W68002   5.290  14.170  11.947
 3795W        W68003  26.656  26.971   4.321
 3796W        W68004   2.454  18.614   1.795
 3797W        W68005  26.985   5.923   0.329
 3798W        W68006   9.795   8.822  12.884
 3799W        W68007  33.567   2.270   0.300
 3800W        W68008   3.219  10.646  11.895
 3801W        W68009  44.995  17.224   3.867
 3802W        W68010  42.000  35.568   2.699
 3803W        W68011  29.502  24.640  13.942
 3804W        W68012   5.428  19.230  13.871
 3805W        W68013   7.812  11.736  11.894
 3806W        W68014  40.431   8.303  13.342
 3807W        W68015   0.430   4.730   1.713
 3808W        W68016  11.244  16.604  11.522
 3809W        W68017  11.689  29.446  11.516
 3810W        W68018   7.759   2.471  14.302
 3811W        W68019  11.256  31.558   3.198
 3812W        W68020  11.317  44.944  12.825
 3813W        W68021  22.167   5.898   3.733
 3814W        W68022  36.499  15.170   0.281
 3815W        W68023  27.609  20.060   3.678
 3816W        W68024   1.876  37.497  11.591
 3817W        W68025  30.600  26.102  12.580
 3818W        W68026  33.493   2.467   5.140
 3819W        W68027  22.538  22.248   2.211
 3820W        W68028  37.408  39.899   2.338
 3821W        W68029  29.950   3.817  12.411
 3822W        W68030  10.145  43.827   3.795
 3823W        W68031  31.491  38.562  13.915
 3824W        W68032  38.907  25.606  13.819
 3825W        W68033   4.314  21.579  11.039
 3826W        W68034  13.687  40.522   1.741
 3827W        W68035  40.799  29.446  14.975
 3828W        W68036  16.304   9.150   4.683
 3829W        W68037   8.674  10.683  14.891
 3830W        W68038  39.978   3.817  10.565
 3831W        W68039  27.447  21.115   2.325
 3832W        W68040   1.802  44.867  12.872
 3833W        W68041  32.398  41.015   2.314
 3834W        W68042  22.118  42.784  10.425
 3835W        W68043   3.784  25.024  13.340
 3836W        W68044  11.328  26.140  14.475
 3837W        W68045  25.963   4.862  10.086
 3838W        W68046  19.126  22.040  14.422
 3839W        W68047  34.455  41.454  11.913
 3840W        W68048  44.317  29.520   3.652
 3841W        W68049  43.927  19.764   0.279
 3842W        W68050  33.495   2.404   2.880
 3843W        W68051  32.918  31.619   3.180
 3844W        W68052  33.388   5.366  11.489
 3845W        W68053  44.902   5.873  11.607
 3846W        W68054  12.154  44.995   0.327
 3847W        W68055  18.714  26.993   1.813
 3848W        W68056  38.952  29.148  14.930
 3849W        W68057   9.690  35.080  14.482
 3850W        W68058  43.814  36.065  10.625
 3851W        W68059  41.487  15.178  10.549
 3852W        W68060  43.446  13.222   1.847
 3853W        W68061   3.243  39.847  12.066
 3854W        W68062   0.906  32.930  12.396
 3855W        W68063  27.515  36.488  11.959
 3856W        W68064  40.435  20.117   4.307
 3857W        W68065  35.562  34.049  13.349
 3858W        W68066  11.643   4.810   3.743
 3859W        W68067  39.968  24.481   2.284
 3860W        W68068  35.573   5.289   4.234
 3861W        W68069   8.676  23.202   4.174
 3862W        W68070  40.304  24.608  13.805
 3863W        W68071   3.337  26.007   3.682
 3864W        W68072   8.288  16.258  13.006
 3865W        W68073  37.538   9.207   1.919
 3866W        W68074   8.678  14.326  11.079
 3867W        W68075  15.741   0.769  13.486
 3868W        W68076  40.486   6.420   3.694
 3869W        W68077  30.062  12.686   1.247
 3870W        W68078  32.411  19.634   3.318
 3871W        W68079  19.178   3.861   3.287
 3872W        W68080  41.334   8.786   4.291
 3873W        W68081  15.650  26.701   0.827
 3874W        W68082   5.688  25.625   0.844
 3875W        W68083  43.835  15.698  10.105
 3876W        W68084  35.079   4.894  10.006
 3877W        W68085  19.712  36.384  12.020
 3878W        W68086  44.984  29.497  11.605
 3879W        W68087  20.214  25.032   3.247
 3880W        W68088  21.178  34.549   0.908
 3881W        W68089   7.776   3.878  11.570
 3882W        W68090  38.392  33.508   3.291
 3883W        W68091  20.585  34.425   0.897
 3884W        W68092   7.900  34.045  11.549
 3885W        W68093  16.794  20.125   1.335
 3886W        W68094  21.088  22.092  12.852
 3887W        W68095  36.591  26.026  12.047
 3888W        W68096  23.701   7.777   3.340
 3889W        W68097  44.811   8.654  10.905
 3890W        W68098  34.051  24.479  11.515
 3891W        W68099  32.139  33.547   3.655
 3892W        W68100  27.541   2.313   4.140
 3893W        W68101  29.109  14.278  12.387
 3894W        W68102  21.036   3.332  11.376
 3895W        W68103   4.842   6.423   0.302
 3896W        W68104  31.416   1.407   2.301
 3897W        W68105  26.960  16.755  11.489
 3898W        W68106  39.855  23.231   3.678
 3899W        W68107  26.541  41.478   3.803
 3900W        W68108  16.768  18.274   3.763
 3901W        W68109  33.440  34.012  10.952
 3902W        W68110  44.835  39.008   4.250
 3903W        W68111  44.369  22.010  11.122
 3904W        W68112  37.059   2.963  14.913
 3905W        W68113  40.514  39.974  11.458
 3906W        W68114  22.052  24.680   1.808
 3907W        W68115  33.033  10.227  12.344
 3908W        W68116  28.932  19.541  11.376
 3909W        W68117  18.221  43.822  12.023
 3910W        W68118  40.808  11.727  14.959
 3911W        W68119   7.895  26.998  10.473
 3912W        W68120  23.494  14.230  14.388
 3913W        W68121  26.038  15.761   3.811
 3914W        W68122  23.596   5.931  11.420
 3915W        W68123  25.608  28.609  14.426
 3916W        W68124   0.262  19.644   3.820
 3917W        W68125  22.695  30.559  14.288
 3918W        W68126   8.758  25.581   1.822
 3919W        W68127  15.113  35.492   0.264
 3920W        W68128  27.479   3.453  13.866
 3921W        W68129   7.225  18.216   0.262
 3922W        W68130  28.437  12.121  12.536
 3923W        W68131   9.352  24.549  14.003
 3924W        W68132  40.929  27.468   2.193
 3925W        W68133  21.034   5.702  14.917
 3926W        W68134   5.818  44.850  14.388
 3927W        W68135  17.178  28.970  14.400
 3928W        W68136  26.020  34.079  13.983
 3929W        W68137  16.783   9.331   2.186
 3930W        W68138   2.905   5.846   4.242
 3931W        W68139   8.738  30.466  13.362
 3932W        W68140  36.380   1.411   1.428
 3933W        W68141  40.345  28.057   1.322
 3934W        W68142  28.004  33.417  14.870
 3935W        W68143  18.659  44.306  13.997
 3936W        W68144   3.880  34.116  14.315
 3937W        W68145  33.408   8.237  14.324
 3938W        W68146  20.584  25.695  12.509
 3939W        W68147  35.964   1.865   3.753
 3940W        W68148  39.911  42.413   3.364
 3941W        W68149   5.337  25.067   3.640
 3942W        W68150  11.770  44.434   0.816
 3943W        W68151  41.965  18.563   4.126
 3944W        W68152  12.767  27.509  12.418
 3945W        W68153  30.142  13.830  14.340
 3946W        W68154  33.040  35.081  12.088
 3947W        W68155  41.859  44.795   2.196
 3948W        W68156  31.590  10.710  13.490
 3949W        W68157   7.809  24.625   4.752
 3950W        W68158  20.226  30.651  12.075
 3951W        W68159   0.839  15.098  12.937
 3952W        W68160  39.045  11.734  13.839
 3953W        W68161   6.359  35.460  14.845
 3954W        W68162  28.001  32.502   4.139
 3955W        W68163  20.535   9.199  14.382
 3956W        W68164  27.645  28.606   0.743
 3957W        W68165  41.836  34.104   3.351
 3958W        W68166   4.779  34.595   0.351
 3959W        W68167  36.916   7.782   4.331
 3960W        W68168  14.615  13.738   0.420
 3961W        W68169   8.900  38.475   0.864
 3962W        W68170   8.231  32.524  14.296
 3963W        W68171   0.439  25.588  14.908
 3964W        W68172  10.852  29.540  11.419
 3965W        W68173   4.919  29.097   1.912
 3966W        W68174  38.017   0.983   4.316
 3967W        W68175  21.260  30.490   2.229
 3968W        W68176  30.457  30.613   4.800
 3969W        W68177   1.856  26.175  13.369
 3970W        W68178  20.070   6.873  11.122
 3971W        W68179  43.382  11.354   1.422
 3972W        W68180  41.006  10.749  13.906
 3973W        W68181  43.514  21.143  12.921
 3974W        W68182   7.299  28.457   0.858
 3975W        W68183  19.110   0.483   3.290
 3976W        W68184  36.540   2.895   3.737
 3977W        W68185   9.726   2.303  10.963
 3978W        W68186   2.302  41.504  14.464
 3979W        W68187  34.540  13.734   3.712
 3980W        W68188  41.934  22.587  12.092
 3981W        W68189   3.902   1.814   5.293
 3982W        W68190  11.290  38.561   4.144
 3983W        W68191  41.365   3.451   1.346
 3984W        W68192  27.941  29.944   1.911
 3985W        W68193  27.456   3.872   1.449
 3986W        W68194  21.661  33.032   0.366
 3987W        W68195   5.733  37.488   0.922
 3988W        W68196  29.453  19.047   1.798
 3989W        W68197   9.770  44.891  11.949
 3990W        W68198  35.363   8.246  12.072
 3991W        W68199   5.234  14.309   4.762
 3992W        W68200  18.724   7.689  14.836
 3993W        W68201  11.339  17.765   4.799
 3994W        W68202   8.759   8.245  14.868
 3995W        W68203  18.614  41.484  13.897
 3996W        W68204  19.072  44.365   4.258
 3997W        W68205  10.724   3.322   0.772
 3998W        W68206  43.512  16.709   2.870
 3999W        W68207  26.457   7.272  10.977
 4000W        W68208  27.126  24.632   2.416
 4001W        W68209  38.399   6.196   1.817
 4002W        W68210  32.496  31.444  13.317
 4003W        W68211  27.573   0.764   4.623
 4004W        W68212  26.043  39.834   3.788
 4005W        W68213  43.296  40.391  14.796
 4006W        W68214  29.670  27.630  12.401
 4007W        W68215  23.736  17.576  13.314
 4008W        W68216  34.941  35.507  13.359
 4009W        W68217  40.480  31.598  14.931
 4010W        W68218  23.596  43.834  12.570
 4011W        W68219  36.425  29.939   0.864
 4012W        W68220  43.941   5.910  11.456
 4013W        W68221  22.514  32.084  11.527
 4014W        W68222   5.840  19.780   2.879
 4015W        W68223  14.220  38.552  14.337
 4016W        W68224  35.924  18.095   4.761
 4017W        W68225  12.689  11.642   0.245
 4018W        W68226  37.971  44.847   3.230
 4019W        W68227  38.496  22.062   2.373
 4020W        W68228  42.428   2.947  11.530
 4021W        W68229  35.046  39.459  11.982
 4022W        W68230  42.432   8.373  14.959
 4023W        W68231  29.000  30.634  14.292
 4024W        W68232   8.799   6.879   0.793
 4025W        W68233  33.892   0.274   1.211
 4026W        W68234  42.309  19.072  12.939
 4027W        W68235  26.998   3.453   4.617
 4028W        W68236  14.250  38.915  13.505
 4029W        W68237   5.336  36.063  11.497
 4030W        W68238  38.945  42.350  14.010
 4031W        W68239   4.324  40.961   4.710
 4032W        W68240   5.328   2.755   4.637
 4033W        W68241  41.335  36.456  10.638
 4034W        W68242  20.200   0.940   0.906
 4035W        W68243   4.731  33.481   0.373
 4036W        W68244  28.155   8.318   1.814
 4037W        W68245  34.465  37.420  12.839
 4038W        W68246  40.974  11.717  14.512
 4039W        W68247  44.830  42.011   4.117
 4040W        W68248   2.441  13.676   2.236
 4041W        W68249  23.711   4.703  14.437
 4042W        W68250  10.846  35.008  12.508
 4043W        W68251  12.215  28.634   4.667
 4044W        W68252  10.719   5.369   3.867
 4045W        W68253   8.779  22.012  12.509
 4046W        W68254  25.610  41.326   3.284
 4047W        W68255  13.689  44.367   4.611
 4048W        W68256  31.001  19.588  14.368
 4049W        W68257  16.702  42.316   4.201
 4050W        W68258  36.531  23.552  10.891
 4051W        W68259  42.512  29.034   4.297
 4052W        W68260  44.483  22.204  14.787
 4053W        W68261  17.235  23.534  11.989
 4054W        W68262  26.526  14.216  14.970
 4055W        W68263  22.536  32.408  13.831
 4056W        W68264   6.379  10.792  14.790
 4057W        W68265  15.093  31.458   4.299
 4058W        W68266  23.236  24.664   0.940
 4059W        W68267  16.100  12.351   2.347
 4060W        W68268  15.139  26.549  14.435
 4061W        W68269  20.147  38.836  13.000
 4062W        W68270  21.192   5.779   1.324
 4063W        W68271  28.174  18.115  14.461
 4064W        W68272  39.514  16.658  11.907
 4065W        W68273  30.117  27.095  11.491
 4066W        W68274  33.077  19.741   3.208
 4067W        W68275   9.153  14.201   4.268
 4068W        W68276  21.113   5.796   3.857
 4069W        W68277  15.117  13.111   0.951
 4070W        W68278  18.078  37.984   0.376
 4071W        W68279  17.291   5.739  10.411
 4072W        W68280  11.332  10.229  12.931
 4073W        W68281  29.962   5.318   2.252
 4074W        W68282  18.661  14.304   5.130
 4075W        W68283   7.792  36.473  13.014
 4076W        W68284  30.535  16.170   9.632
 4077W        W68285  14.730  26.967   2.382
 4078W        W68286  39.878  27.151   1.813
 4079W        W68287  43.274  14.297  13.436
 4080W        W68288  36.973  18.774  13.893
 4081W        W68289  24.979  27.191  14.796
 4082W        W68290  28.656  22.540  14.499
 4083W        W68291  28.102  29.661  10.445
 4084W        W68292  25.142   0.935  10.442
 4085W        W68293  40.887  36.003  11.540
 4086W        W68294  14.117  23.203  11.871
 4087W        W68295  44.990   3.795   2.189
 4088W        W68296  23.609  19.228  12.359
 4089W        W68297  27.154  39.983  14.449
 4090W        W68298  29.543  17.756  11.537
 4091W        W68299  41.479  28.065   2.868
 4092W        W68300  23.015   8.377  13.392
 4093W        W68301  38.973   5.316  10.942
 4094W        W68302  22.631   3.430  14.006
 4095W        W68303  34.439  25.515  14.321
 4096W        W68304  34.481   2.751  12.477
 4097W        W68305  34.880  10.223  11.420
 4098W        W68306  17.657  30.090   1.218
 4099W        W68307  39.013   9.723  13.062
 4100W        W68308   1.808  16.697  13.480
 4101W        W68309  19.565  27.647   4.160
 4102W        W68310  17.178  29.026  13.836
 4103W        W68311  28.107   2.308  10.520
 4104W        W68312  30.118  12.778  11.427
 4105W        W68313  24.167  21.529   3.741
 4106W        W68314  44.414  27.653   4.264
 4107W        W68315   4.211   8.761  14.786
 4108W        W68316   7.237   1.959  13.923
 4109W        W68317  29.030  17.782   0.884
 4110W        W68318  12.714  19.247  14.887
 4111W        W68319  15.226  27.106   1.326
 4112W        W68320  26.141   3.224  13.841
 4113W        W68321   9.781  26.060  10.583
 4114W        W68322  35.380  33.390   1.863
 4115W        W68323   2.234  22.247   0.929
 4116W        W68324  39.340   8.311  14.847
 4117W        W68325  33.576  19.542   2.776
 4118W        W68326   3.915  11.634  14.277
 4119W        W68327  42.903   0.827  13.446
 4120W        W68328  25.589  43.935  10.946
 4121W        W68329  22.136  42.377  11.878
 4122W        W68330   1.929  15.234  14.029
 4123W        W68331   0.355  44.971  13.825
 4124W        W68332  10.711  29.594   4.804
 4125W        W68333   6.375  14.161  12.461
 4126W        W68334   7.361  39.416   0.301
 4127W        W68335  31.987  31.052  11.887
 4128W        W68336  43.871  10.735  12.892
 4129W        W68337  22.708  26.654  13.883
 4130W        W68338  16.655  16.166   0.750
 4131W        W68339  29.139   8.828   5.296
 4132W        W68340   2.723   7.725   4.130
 4133W        W68341   8.192  24.570  13.548
 4134W        W68342  20.586   7.848   4.351
 4135W        W68343   8.825  30.478  12.424
 4136W        W68344  31.533   0.364   4.777
 4137W        W68345  39.978   6.874   0.821
 4138W        W68346   0.323  19.701  10.474
 4139W        W68347   0.799  39.417   0.369
 4140W        W68348   0.390  30.492  11.419
 4141W        W68349   4.817  12.703  14.348
 4142W        W68350  42.362  21.613  14.827
 4143W        W68351  26.494  42.023  13.924
 4144W        W68352  38.334  43.984   2.224
 4145W        W68353  39.548  37.853  13.516
 4146W        W68354   5.783   5.895   4.220
 4147W        W68355  20.166   4.439  12.836
 4148W        W68356  44.919  24.636   1.713
 4149W        W68357  10.838   5.919   4.742
 4150W        W68358  29.078  28.640  11.593
 4151W        W68359  30.967  25.157  14.829
 4152W        W68360  12.829  26.498   2.680
 4153W        W68361   7.218  26.646  10.642
 4154W        W68362  28.168  26.122  11.005
 4155W        W68363   3.379   3.855  10.102
 4156W        W68364  10.209  27.473   1.273
 4157W        W68365  12.757  16.576   1.279
 4158W        W68366   1.372  28.498  14.952
 4159W        W68367  36.557  43.457  14.855
 4160W        W68368  21.230  11.630  11.408
 4161W        W68369   9.684  26.201  12.991
 4162W        W68370  14.113  31.991  14.968
 4163W        W68371  44.943  33.075  14.942
 4164W        W68372   3.743  31.599   2.796
 4165W        W68373  34.998  37.843  10.907
 4166W        W68374  37.978  43.271   4.246
 4167W        W68375  16.256  15.306   4.318
 4168W        W68376  23.232  33.908   2.418
 4169W        W68377  28.530   7.347  12.397
 4170W        W68378  39.395   3.378   1.419
 4171W        W68379  33.443   3.831   3.708
 4172W        W68380   5.331  16.612  12.042
 4173W        W68381  36.512  20.661  13.377
 4174W        W68382  32.467   2.353  12.867
 4175W        W68383  43.344  36.080  10.082
 4176W        W68384  18.583   7.745   4.329
 4177W        W68385  19.165  16.581   2.369
 4178W        W68386  33.035   0.271  13.544
 4179W        W68387  24.601  21.047   3.335
 4180W        W68388  18.683   7.386   2.819
 4181W        W68389  36.929  33.527  14.835
 4182W        W68390   9.267  40.406  14.909
 4183W        W68391  23.145  17.204   9.648
 4184W        W68392  12.808  40.900   4.743
 4185W        W68393  22.232  11.225   4.819
 4186W        W68394   5.829   3.720  13.015
 4187W        W68395  15.731   7.219  13.444
 4188W        W68396  32.077  35.573  14.859
 4189W        W68397  33.564  27.469  11.446
 4190W        W68398  37.380   3.442  12.559
 4191W        W68399  27.028  26.119   4.665
 4192W        W68400  29.519   8.753  10.497
 4193W        W68401   4.399  32.971  14.800
 4194W        W68402   2.723  37.950  11.125
 4195W        W68403  22.621   9.665  11.103
 4196W        W68404   0.924   9.392   2.402
 4197W        W68405  20.208  16.249   3.746
 4198W        W68406  37.363  27.639  10.955
 4199W        W68407  24.129   9.299  13.826
 4200W        W68408  23.193  26.600   4.118
 4201W        W68409   4.267  20.089   0.875
 4202W        W68410  24.563  16.619  13.393
 4203W        W68411  34.953  42.808  12.894
 4204W        W68412  41.509  43.450   2.278
 4205W        W68413  21.585  31.535  14.318
 4206W        W68414   8.178  16.786  12.430
 4207W        W68415   5.905   2.953   1.754
 4208W        W68416   9.888   2.964   1.746
 4209W        W68417  42.358   3.802   3.742
 4210W        W68418   7.177  38.025  14.824
 4211W        W68419  39.421  13.690   1.212
 4212W        W68420  26.969  40.026  12.886
 4213W        W68421  12.342  38.030  11.053
 4214W        W68422  29.967  25.008   4.715
 4215W        W68423   3.881  39.422   4.309
 4216W        W68424  34.376  36.485   4.653
 4217W        W68425  27.962  38.844   2.702
 4218W        W68426  39.315   7.687  13.815
 4219W        W68427  41.994   9.703   2.816
 4220W        W68428  31.560  35.881  10.426
 4221W        W68429  16.740   8.192   0.301
 4222W        W68430  15.629   7.314   3.725
 4223W        W68431   7.411  12.237  11.507
 4224W        W68432  15.239   6.873  14.881
 4225W        W68433  40.452  37.538  10.089
 4226W        W68434  14.680  40.548  11.385
 4227W        W68435  25.607   0.349  13.858
 4228W        W68436  19.171   6.328  11.389
 4229W        W68437  32.107  39.898  11.080
 4230W        W68438   3.916  31.020  13.807
 4231W        W68439  14.132  37.052  11.962
 4232W        W68440  20.692   8.221   2.199
 4233W        W68441   5.431  11.287  13.879
 4234W        W68442  13.753  25.122  10.993
 4235W        W68443  12.765   7.344  11.929
 4236W        W68444   8.235  24.070  11.098
 4237W        W68445  29.459  26.688   3.827
 4238W        W68446   4.828  20.617  13.887
 4239W        W68447  20.676  41.915  11.424
 4240W        W68448   2.774   5.241  11.016
 4241W        W68449  29.627  10.238   4.739
 4242W        W68450  19.203   9.368  12.047
 4243W        W68451  16.748  39.511   3.640
 4244W        W68452  26.458  17.724   4.703
 4245W        W68453  33.875  44.260   0.311
 4246W        W68454  11.171  35.578  13.357
 4247W        W68455  33.571  26.630  11.468
 4248W        W68456   0.408  13.645   0.322
 4249W        W68457  34.879  38.030  14.875
 4250W        W68458   2.243  41.512   4.713
 4251W        W68459  27.527  19.672   4.601
 4252W        W68460   8.243  18.700   0.346
 4253W        W68461  38.895  20.028   0.758
 4254W        W68462  42.840   4.322  13.047
 4255W        W68463   7.700   6.404   4.741
 4256W        W68464  30.070  28.490   0.388
 4257W        W68465  25.031  14.100   1.798
 4258W        W68466  24.061  33.124  12.049
 4259W        W68467  10.836  41.326   5.229
 4260W        W68468  40.990  24.022   0.277
 4261W        W68469   3.822  42.394   0.270
 4262W        W68470  11.315   5.778   4.741
 4263W        W68471   9.782  20.140  13.430
 4264W        W68472  40.524   8.888   1.269
 4265W        W68473   6.217  21.717   0.464
 4266W        W68474  23.236  30.919  13.364
 4267W        W68475  14.325   2.371   2.678
 4268W        W68476  13.633  12.794  13.477
 4269W        W68477  42.437  28.933  10.084
 4270W        W68478  36.562  24.104   4.664
 4271W        W68479   8.864  29.044   4.657
 4272W        W68480  19.262  44.859  11.029
 4273W        W68481  40.365  40.838  12.916
 4274W        W68482  40.546  21.720  11.394
 4275W        W68483  29.081  18.671  11.441
 4276W        W68484   2.328   9.281   3.358
 4277W        W68485   1.340   0.914  10.004
 4278W        W68486  10.264  27.486  10.624
 4279W        W68487   1.796  21.149  14.291
 4280W        W68488   4.442  39.943   2.865
 4281W        W68489  34.463  21.656  13.810
 4282W        W68490  36.979  11.857   3.655
 4283W        W68491  22.142  18.595  10.620
 4284W        W68492   6.884  44.865   2.897
 4285W        W68493  25.143  40.898  13.900
 4286W        W68494   4.803  27.490   1.703
 4287W        W68495   3.303  34.866  13.893
 4288W        W68496  40.391  23.179   1.317
 4289W        W68497   2.842  26.112  14.782
 4290W        W68498  17.156  11.686   1.324
 4291W        W68499  26.658  10.674   3.658
 4292W        W68500  26.614   2.776   4.215
 4293W        W68501  22.723  43.951   4.272
 4294W        W68502  16.796  12.754  10.543
 4295W        W68503   0.373  17.258   3.282
 4296W        W68504  44.010  22.667   0.292
 4297W        W68505  27.530  40.040  11.924
 4298W        W68506  35.485  29.984  12.965
 4299W        W68507   4.423  11.193   3.735
 4300W        W68508   6.346  32.028  12.490
 4301W        W68509   5.901  41.396   2.877
 4302W        W68510   2.923  33.516   0.912
 4303W        W68511  30.908  29.512   5.314
 4304W        W68512   0.305   5.387   5.105
 4305W        W68513   3.917  29.119   3.236
 4306W        W68514  28.123  38.470  14.370
 4307W        W68515  18.152  38.885   5.108
 4308W        W68516  10.637  32.422  11.888
 4309W        W68517  35.504  19.183   2.721
 4310W        W68518  10.342   9.208  11.548
 4311W        W68519   9.374  22.744   4.611
 4312W        W68520   0.754   2.267  14.280
 4313W        W68521  42.316  10.689   1.927
 4314W        W68522  44.340  13.264   3.710
 4315W        W68523  23.691  10.311  14.393
 4316W        W68524  28.502   7.720  11.586
 4317W        W68525  30.480  38.964   2.257
 4318W        W68526  11.862   6.723   0.282
 4319W        W68527  26.577  43.797  13.374
 4320W        W68528  33.482  12.275  14.428
 4321W        W68529  14.113  22.165   3.695
 4322W        W68530  13.757  18.702  13.542
 4323W        W68531  27.990   9.885   4.789
 4324W        W68532  19.720   5.301  10.903
 4325W        W68533  11.747  21.044   0.417
 4326W        W68534   4.356  19.172   0.942
 4327W        W68535  26.501  15.705   3.234
 4328W        W68536  33.529  30.652  10.404
 4329W        W68537  15.754  37.491   0.436
 4330W        W68538   1.774  28.936  11.450
 4331W        W68539  16.660  15.274   4.697
 4332W        W68540  44.983  13.193   0.350
 4333W        W68541  33.110  36.380   4.276
 4334W        W68542   6.228  33.433   5.151
 4335W        W68543  18.083  40.822  12.547
 4336W        W68544  27.551  10.864   2.382
 4337W        W68545  15.613  30.595   0.346
 4338W        W68546   2.926  33.578   2.280
 4339W        W68547  43.967  16.699   3.815
 4340W        W68548  26.085  25.697  13.416
 4341W        W68549   5.278   5.278  13.003
 4342W        W68550  40.008  34.524   0.281
 4343W        W68551  34.593  10.326  12.504
 4344W        W68552  30.915  15.139   0.380
 4345W        W68553   2.378   0.430  12.340
 4346W        W68554   9.749  32.522  11.392
 4347W        W68555  14.268   3.743   4.730
 4348W        W68556  11.847  44.895   3.207
 4349W        W68557  12.263  34.413   0.839
 4350W        W68558  43.774  37.980   3.805
 4351W        W68559  20.094  15.092  14.941
 4352W        W68560  28.450  28.490   4.330
 4353W        W68561  12.615   1.439  11.573
 4354W        W68562  18.116  12.249  14.409
 4355W        W68563  25.554  31.982   3.187
 4356W        W68564  17.220   1.395  13.413
 4357W        W68565  39.049  38.503   1.761
 4358W        W68566  20.559  29.064   0.936
 4359W        W68567   2.427  43.857   3.313
 4360W        W68568  17.627   5.931  11.984
 4361W        W68569  27.974  16.314  12.902
 4362W        W68570  24.188  26.055   1.821
 4363W        W68571   6.253  15.636  12.427
 4364W        W68572  13.774  34.372   2.185
 4365W        W68573  33.021  30.922   3.725
 4366W        W68574  26.151  28.582  14.293
 4367W        W68575  13.314  41.890   1.227
 4368W        W68576  28.618  18.766   0.462
 4369W        W68577  21.198   5.226   0.404
 4370W        W68578  44.938  13.245   4.712
 4371W        W68579   6.303   3.318   3.779
 4372W        W68580  27.549  40.837  10.968
 4373W        W68581  38.457  33.602  13.448
 4374W        W68582  20.767  25.144  13.544
 4375W        W68583  10.186  38.016   3.664
 4376W        W68584  36.517  27.049  13.818
 4377W        W68585  22.014  15.305  12.950
 4378W        W68586  14.279  10.307  10.951
 4379W        W68587   9.735  42.488  13.928
 4380W        W68588   7.259  36.855  13.935
 4381W        W68589  31.061  43.480   3.761
 4382W        W68590  18.143  22.115   2.298
 4383W        W68591  25.994  37.405   3.646
 4384W        W68592  13.128  26.456   1.309
 4385W        W68593   0.384  15.752   1.754
 4386W        W68594  14.096  33.565  11.079
 4387W        W68595  43.830  13.799  12.501
 4388W        W68596  30.079  20.117  12.532
 4389W        W68597  41.349  13.816  10.505
 4390W        W68598  22.632  40.421   2.806
 4391W        W68599  35.031  39.908   1.327
 4392W        W68600   4.311  12.233   4.707
 4393W        W68601  43.884   9.215   4.141
 4394W        W68602   3.264  28.021  13.829
 4395W        W68603   5.209  15.715   0.384
 4396W        W68604  18.701  31.986   4.114
 4397W        W68605  38.820  44.948   0.357
 4398W        W68606  14.599   4.906   0.307
 4399W        W68607  41.506  26.676   0.816
 4400W        W68608  12.260  41.847   4.218
 4401W        W68609  17.211   8.789   0.422
 4402W        W68610   5.199  34.080  14.415
 4403W        W68611  38.499   8.239   0.729
 4404W        W68612  32.093  21.159  11.421
 4405W        W68613  31.106  16.661  11.072
 4406W        W68614  22.195  26.646  14.511
 4407W        W68615  22.056  23.073  11.486
 4408W        W68616  11.128  28.179   0.479
 4409W        W68617   5.246   8.185  13.401
 4410W        W68618  33.417  14.762  11.024
 4411W        W68619  33.912  12.649   4.827
 4412W        W68620  18.780  44.905   4.133
 4413W        W68621  13.731   9.796   1.884
 4414W        W68622  19.679  43.363  12.551
 4415W        W68623  33.958   6.711   4.638
 4416W        W68624   9.164  31.089  12.490
 4417W        W68625  38.919   2.960  14.001
 4418W        W68626  11.161  35.975   4.270
 4419W        W68627  40.507   8.860  14.795
 4420W        W68628  41.848  39.826  14.939
 4421W        W68629   8.389   7.886   4.600
 4422W        W68630  34.401  42.968  12.433
 4423W        W68631  27.951  41.944  13.547
 4424W        W68632  36.356  14.328   4.334
 4425W        W68633  31.555  38.878  12.918
 4426W        W68634   1.447  43.929  12.023
 4427W        W68635   0.287   9.879   3.199
 4428W        W68636  39.357  39.318   2.248
 4429W        W68637  23.597  12.293  11.490
 4430W        W68638   3.912  40.982  11.025
 4431W        W68639  14.155  31.992   3.148
 4432W        W68640  39.024  43.006   0.927
 4433W        W68641  17.786  35.401  14.887
 4434W        W68642  13.791  37.071  13.533
 4435W        W68643   2.431  17.188  13.058
 4436W        W68644   2.946  15.310   4.802
 4437W        W68645  30.596  42.369  12.432
 4438W        W68646  41.368  14.768   3.220
 4439W        W68647  36.493  23.540   1.784
 4440W        W68648   2.874  18.694  13.454
 4441W        W68649  26.594  41.964  11.488
 4442W        W68650  16.686  22.685   1.383
 4443W        W68651   9.225  15.317  14.405
 4444W        W68652  13.299  16.592  12.037
 4445W        W68653   9.753  26.598  14.320
 4446W        W68654  30.973  43.329  14.888
 4447W        W68655  33.572  13.658  11.608
 4448W        W68656  15.135  25.106  12.031
 4449W        W68657  12.687  24.202   4.692
 4450W        W68658   5.402  14.624  10.595
 4451W        W68659  34.075  29.452   2.794
 4452W        W68660  14.323  19.137   4.319
 4453W        W68661   0.906  27.688   1.420
 4454W        W68662  13.751   1.480   2.764
 4455W        W68663  30.431  30.143  12.438
 4456W        W68664  21.512  39.969   1.707
 4457W        W68665  10.766   5.736  12.477
 4458W        W68666  33.951  15.597  12.509
 4459W        W68667  29.440   8.677  14.778
 4460W        W68668  29.441   5.730  10.905
 4461W        W68669  33.380  11.322  13.375
 4462W        W68670  28.634  22.606   3.690
 4463W        W68671   8.898  40.399  10.628
 4464W        W68672  16.257  41.392   4.701
 4465W        W68673  10.316  38.563  11.859
 4466W        W68674   4.931   1.392  12.408
 4467W        W68675  20.056  28.980   0.765
 4468W        W68676   0.914   6.750  14.443
 4469W        W68677  42.847   0.858   0.934
 4470W        W68678  27.633   3.455  11.587
 4471W        W68679  40.471   3.429   3.724
 4472W        W68680  43.368  29.002  13.492
 4473W        W68681  19.574  38.466  12.575
 4474W        W68682  39.369  41.831   4.280
 4475W        W68683  15.747  12.772  12.350
 4476W        W68684  28.633  41.386  11.927
 4477W        W68685   9.718  20.622  10.471
 4478W        W68686  15.798  42.388  14.853
 4479W        W68687  20.222  42.944   4.166
 4480W        W68688   3.930  17.289   4.696
 4481W        W68689  25.113  38.548   1.428
 4482W        W68690   1.391  22.118  13.927
 4483W        W68691  12.616  28.055  12.990
 4484W        W68692   1.426   9.786  10.897
 4485W        W68693  30.925  13.159   0.342
 4486W        W68694  21.194   9.825   1.897
 4487W        W68695   5.330   0.341   4.355
 4488W        W68696  12.798  38.500   0.868
 4489W        W68697  28.124  22.025  11.880
 4490W        W68698   0.756  27.131   4.235
 4491W        W68699  36.975   2.753   4.191
 4492W        W68700  19.721  21.190  14.368
 4493W        W68701  12.331  44.454  12.437
 4494W        W68702  34.405  42.894   0.369
 4495W        W68703  38.401  25.115   2.372
 4496W        W68704  41.358   0.464  10.520
 4497W        W68705  10.832   5.934  13.315
 4498W        W68706  41.422  30.616  14.477
 4499W        W68707   8.208  40.484   2.866
 4500W        W68708  43.425  26.115   2.387
 4501W        W68709  36.957  10.329   3.810
 4502W        W68710  21.175  31.962  13.937
 4503W        W68711   9.355   5.845  12.413
 4504W        W68712  31.972   3.316   3.862
 4505W        W68713  24.684  24.537  10.590
 4506W        W68714  15.772  37.561   5.252
 4507W        W68715  17.594  13.122   1.882
 4508W        W68716   6.315  22.206   3.781
 4509W        W68717  35.939  28.085   3.865
 4510W        W68718   5.900  11.763  13.466
 4511W        W68719  14.594  10.214   1.450
 4512W        W68720  41.018  42.515  13.340
 4513W        W68721  27.185   7.345   0.962
 4514W        W68722   1.291  25.521  12.453
 4515W        W68723  25.084  26.154  12.568
 4516W        W68724  18.562   6.745   2.742
 4517W        W68725  27.957  19.585   4.625
 4518W        W68726  18.612  34.980   2.736
 4519W        W68727  16.593  41.427  13.915
 4520W        W68728  18.277  36.844  12.991
 4521W        W68729   9.887  42.292  10.587
 4522W        W68730   4.732  25.194   2.258
 4523W        W68731   0.797  39.549  12.379
 4524W        W68732  41.899  18.653   1.925
 4525W        W68733  29.091  44.349   4.198
 4526W        W68734  31.124  12.731  10.950
 4527W        W68735  24.017  31.009  10.406
 4528W        W68736  38.964  15.674  12.902
 4529W        W68737  31.473  30.934   2.306
 4530W        W68738  29.990  13.755   4.297
 4531W        W68739   5.323   3.262  11.908
 4532W        W68740   4.752  27.507  12.465
 4533W        W68741  19.213  34.999   4.679
 4534W        W68742   3.273  10.864  14.966
 4535W        W68743  13.153  42.329   1.445
 4536W        W68744  17.703  11.629   3.833
 4537W        W68745  37.396  19.566   4.196
 4538W        W68746   1.755  20.108  14.506
 4539W        W68747  32.393  25.608  10.543
 4540W        W68748  35.433  38.065   0.252
 4541W        W68749  23.224  11.233   3.346
 4542W        W68750  11.762  26.491   3.720
 4543W        W68751  29.955   3.381   2.693
 4544W        W68752  32.965   5.755   0.421
 4545W        W68753  25.608  29.441  12.973
 4546W        W68754  31.999   4.809   4.201
 4547W        W68755  25.631  36.421  14.503
 4548W        W68756  20.054  32.623  13.415
 4549W        W68757  17.624  39.965  13.360
 4550W        W68758  41.384  21.665   2.851
 4551W        W68759  11.291  25.620   1.431
 4552W        W68760  40.467  38.990   4.816
 4553W        W68761  43.989  39.866   4.239
 4554W        W68762  42.001  24.596  13.536
 4555W        W68763   7.669  43.279   4.622
 4556W        W68764  21.606  21.200   9.967
 4557W        W68765   9.781  21.110   1.900
 4558W        W68766   2.832  30.121   2.355
 4559W        W68767  37.871  17.616   5.586
 4560W        W68768  32.484  13.700   1.264
 4561W        W68769  11.370  21.696  12.056
 4562W        W68770   7.222  40.976  10.416
 4563W        W68771  15.750  39.901  14.908
 4564W        W68772  31.955  33.935  12.903
 4565W        W68773  30.529   4.710  10.465
 4566W        W68774  28.437  37.871   1.406
 4567W        W68775  11.856  42.018   3.779
 4568W        W68776  33.924  17.250   0.419
 4569W        W68777   2.316  36.018  14.354
 4570W        W68778   8.211  23.127   0.767
 4571W        W68779  30.448  30.949   0.364
 4572W        W68780  14.811  40.417  12.492
 4573W        W68781   7.907  10.705   1.407
 4574W        W68782  34.506  10.329  14.343
 4575W        W68783  35.600  22.622   0.460
 4576W        W68784  28.129  10.342   4.612
 4577W        W68785  15.800  34.477  11.456
 4578W        W68786  44.979  36.374   3.266
 4579W        W68787  40.454  35.878   2.352
 4580W        W68788  37.011  43.797   1.817
 4581W        W68789  12.834  27.143   4.813
 4582W        W68790  21.756  27.100  10.896
 4583W        W68791  32.972   4.262   0.887
 4584W        W68792  36.996  14.265   0.730
 4585W        W68793   5.244  35.994  10.413
 4586W        W68794  23.151   3.871   1.908
 4587W        W68795  24.526  43.821  14.871
 4588W        W68796  33.384  23.661   3.249
 4589W        W68797  43.953  28.982  14.431
 4590W        W68798  44.822  11.264   2.669
 4591W        W68799   9.249   7.741  13.063
 4592W        W68800  33.446  22.694  13.963
 4593W        W68801  31.994  12.141   2.371
 4594W        W68802  17.609  43.490   0.391
 4595W        W68803  33.548  25.017  10.592
 4596W        W68804  22.539  31.003   0.804
 4597W        W68805  19.646  30.069   0.459
 4598W        W68806   5.232  32.515   2.238
 4599W        W68807  28.606  35.425   1.267
 4600W        W68808  29.569   9.885   2.235
 4601W        W68809  15.720   3.855  14.394
 4602W        W68810  43.857   4.440   2.809
 4603W        W68811  25.606  20.628   0.370
 4604W        W68812  20.684  18.766   5.212
 4605W        W68813  37.536  10.747   3.840
 4606W        W68814  43.866  34.404   0.894
 4607W        W68815  21.109  39.418   1.785
 4608W        W68816  25.671   2.468  14.412
 4609W        W68817  14.832  41.351   0.817
 4610W        W68818  20.656  43.832   4.601
 4611W        W68819  23.155   6.257  12.850
 4612W        W68820  16.266  22.610  14.333
 4613W        W68821  41.914  39.400   2.815
 4614W        W68822  39.987  25.050  10.915
 4615W        W68823  42.495  30.032  13.806
 4616W        W68824  38.443  37.934   0.920
 4617W        W68825  44.369  10.707  13.355
 4618W        W68826  31.142   4.779  12.049
 4619W        W68827  34.458  18.760  14.007
 4620W        W68828  17.074  37.930  12.867
 4621W        W68829  32.928   8.250  10.888
 4622W        W68830  16.753   1.746   1.344
 4623W        W68831   3.253  39.922   4.629
 4624W        W68832  37.865   6.810  14.926
 4625W        W68833  23.711  38.477   2.891
 4626W        W68834  31.084  32.623   4.335
 4627W        W68835  24.228  30.056  12.864
 4628W        W68836  23.115  11.784  13.465
 4629W        W68837   5.278  26.531  14.347
 4630W        W68838  31.464  25.597  14.990
 4631W        W68839  22.018  20.636  13.379
 4632W        W68840   1.866   7.680  11.858
 4633W        W68841  25.128  25.029  11.863
 4634W        W68842  28.015   3.383  14.461
 4635W        W68843  40.490  28.990   2.356
 4636W        W68844  16.660  40.390   4.690
 4637W        W68845  27.112  35.943   4.176
 4638W        W68846  35.103  10.270  10.999
 4639W        W68847   7.680  34.890   2.224
 4640W        W68848   5.766   3.253  10.893
 4641W        W68849  29.515  22.009   4.247
 4642W        W68850  40.891  27.471   3.325
 4643W        W68851  39.910  21.093   4.139
 4644W        W68852   6.420  44.967  14.881
 4645W        W68853  36.048  37.507  10.952
 4646W        W68854  35.901  30.588  12.084
 4647W        W68855   4.916  42.347  10.997
 4648W        W68856  23.234  25.568  11.122
 4649W        W68857  42.842  42.983  13.518
 4650W        W68858  44.777  43.851  13.937
 4651W        W68859  24.051  42.007  12.544
 4652W        W68860  20.655  18.204  10.113
 4653W        W68861   3.760  10.872   0.457
 4654W        W68862  10.675  17.748  12.487
 4655W        W68863  31.040   9.197   2.407
 4656W        W68864   0.854  26.504  11.596
 4657W        W68865  30.495   2.462   0.472
 4658W        W68866  25.982  38.899  11.008
 4659W        W68867  39.889  27.453   0.261
 4660W        W68868  24.166   7.674   4.178
 4661W        W68869  28.562  19.732  14.808
 4662W        W68870  33.907  32.434  11.459
 4663W        W68871  38.987  33.446   0.841
 4664W        W68872  40.841  26.149  10.994
 4665W        W68873  19.611  32.058  14.279
 4666W        W68874   5.371  25.590  13.869
 4667W        W68875  36.525  27.595  13.826
 4668W        W68876  29.611   9.697  12.389
 4669W        W68877  15.661   4.873   1.441
 4670W        W68878  23.658  28.677   3.285
 4671W        W68879  11.786  13.737   1.932
 4672W        W68880  39.372  15.160  10.921
 4673W        W68881  12.214  11.701  10.479
 4674W        W68882   2.461  31.946   3.216
 4675W        W68883  42.998   6.407   2.270
 4676W        W68884  12.835  14.778  10.515
 4677W        W68885  43.368  14.610   3.352
 4678W        W68886  14.823   1.304   1.241
 4679W        W68887   1.827  21.179   0.875
 4680W        W68888  42.499  33.910  13.002
 4681W        W68889  35.887  15.663   2.335
 4682W        W68890   8.679  39.876  13.985
 4683W        W68891  26.627  15.167  14.291
 4684W        W68892  12.797  12.662  11.467
 4685W        W68893  31.498   8.684  14.351
 4686W        W68894  10.338  44.392  10.894
 4687W        W68895  39.939  25.540   3.803
 4688W        W68896  39.445  24.077  13.388
 4689W        W68897  35.922  41.900   0.775
 4690W        W68898   5.252  31.900  14.385
 4691W        W68899   7.845   2.919  13.344
 4692W        W68900  40.369  10.158   1.921
 4693W        W68901   1.759   4.261  13.814
 4694W        W68902  36.964  20.686   4.654
 4695W        W68903  37.538  37.975   0.839
 4696W        W68904  10.693   5.413  11.902
 4697W        W68905  10.701  18.209   3.367
 4698W        W68906   5.313  20.139   0.729
 4699W        W68907  20.237  10.779   0.291
 4700W        W68908  37.447  11.673  12.578
 4701W        W68909  17.217  24.227  14.487
 4702W        W68910  43.410  39.985   4.345
 4703W        W68911  32.017  19.752   1.365
 4704W        W68912  29.466  27.612  14.838
 4705W        W68913  13.633  18.587   4.261
 4706W        W68914  31.020  44.463   4.668
 4707W        W68915  20.592  15.587  10.009
 4708W        W68916  21.629  22.653   1.335
 4709W        W68917  31.537  26.511   4.127
 4710W        W68918  29.556  10.632   4.682
 4711W        W68919  26.960  11.135   4.723
 4712W        W68920  33.552  36.359   0.813
 4713W        W68921  10.246  27.991  10.888
 4714W        W68922   3.243  32.141  12.443
 4715W        W68923  43.335  40.409   3.223
 4716W        W68924   7.399  16.710  12.528
 4717W        W68925   6.343  38.349   3.386
 4718W        W68926  30.450  42.340   2.689
 4719W        W68927  24.123  32.031   2.811
 4720W        W68928  10.182  11.157   3.738
 4721W        W68929  26.957  17.125  14.855
 4722W        W68930  10.165  35.864   3.836
 4723W        W68931   6.840  38.036  13.887
 4724W        W68932   1.444  44.979   4.804
 4725W        W68933  23.714  40.854   3.861
 4726W        W68934  22.686  44.943   3.644
 4727W        W68935  12.335   9.793  14.462
 4728W        W68936  23.655  38.571  13.463
 4729W        W68937  25.169  21.117  12.443
 4730W        W68938  15.113  19.706   4.344
 4731W        W68939  39.937  12.207   1.239
 4732W        W68940   4.813   1.851  11.076
 4733W        W68941  21.132   9.708   5.091
 4734W        W68942  11.638  23.008  14.996
 4735W        W68943  13.649  21.556   0.296
 4736W        W68944   8.240  28.053  10.612
 4737W        W68945  36.914  28.611   1.334
 4738W        W68946  32.122   6.337  12.949
 4739W        W68947  42.391   3.234  10.914
 4740W        W68948  25.143  30.079  10.599
 4741W        W68949  19.717   3.431  11.867
 4742W        W68950  15.686  21.200  14.337
 4743W        W68951  14.095  11.697  12.991
 4744W        W68952  27.643  32.039  14.777
 4745W        W68953  19.099  11.672  11.527
 4746W        W68954  26.646  29.627   4.346
 4747W        W68955  39.025  11.198   4.246
 4748W        W68956  28.955  30.467   2.346
 4749W        W68957   2.725  42.976  14.448
 4750W        W68958   4.764  22.069   2.857
 4751W        W68959  21.116  20.527  12.872
 4752W        W68960   4.418  12.630  13.312
 4753W        W68961  42.787  41.353   2.865
 4754W        W68962   8.389  11.218   5.204
 4755W        W68963   0.747  35.939   4.669
 4756W        W68964  28.611  27.494   3.190
 4757W        W68965  21.714  25.030  11.427
 4758W        W68966  28.494  27.557  13.006
 4759W        W68967  31.124   1.841  11.121
 4760W        W68968  35.916   0.855  14.396
 4761W        W68969   9.775  39.518   3.199
 4762W        W68970  23.133  14.689   0.888
 4763W        W68971  10.326  20.168   3.771
 4764W        W68972  37.024  34.986   2.708
 4765W        W68973  22.590  15.619  10.406
 4766W        W68974  12.684  28.123  11.404
 4767W        W68975  22.513  12.702  14.887
 4768W        W68976  24.489  30.564   0.303
 4769W        W68977  10.712  13.620   2.832
 4770W        W68978   2.370  15.127   1.877
 4771W        W68979   2.427  26.151   3.159
 4772W        W68980  33.084  15.744  11.873
 4773W        W68981  44.855  32.623  12.903
 4774W        W68982  42.307  26.961  14.779
 4775W        W68983  17.730   8.750   1.756
 4776W        W68984  16.598   0.329   2.835
 4777W        W68985  38.503  24.497  11.574
 4778W        W68986  25.021  41.349  10.584
 4779W        W68987  39.059  20.046  10.634
 4780W        W68988  17.282  30.955  10.922
 4781W        W68989  25.004  37.899  14.336
 4782W        W68990   7.885   7.754   0.877
 4783W        W68991  33.595  26.689   1.708
 4784W        W68992  31.409   1.812   0.823
 4785W        W68993  24.187   5.705  14.428
 4786W        W68994  42.389  18.641   2.320
 4787W        W68995  42.446  40.364  11.588
 4788W        W68996   4.372   4.222  13.493
 4789W        W68997   7.869  31.646  12.845
 4790W        W68998  31.997  16.689  14.388
 4791W        W68999  41.877  30.946  13.918
 4792W        W69000  28.118  15.140   0.311
 4793W        W69001  17.578  42.448  12.080
 4794W        W69002  39.519  13.182  12.375
 4795W        W69003  41.386  12.788  12.431
 4796W        W69004  15.212  34.445  12.828
 4797W        W69005   1.312  44.867   1.874
 4798W        W69006  35.928   0.352  12.908
 4799W        W69007  42.949  19.701  11.408
 4800W        W69008  29.482   8.826   3.690
 4801W        W69009  27.464  29.129  12.875
 4802W        W69010  26.586  42.939  11.058
 4803W        W69011  34.027  20.545   4.795
 4804W        W69012  36.548  36.499  13.947
 4805W        W69013  22.008  22.045   2.404
 4806W        W69014   4.802  19.129  14.300
 4807W        W69015   4.228  35.044  14.815
 4808W        W69016   1.273  14.271  13.881
 4809W        W69017  23.190  26.154   0.738
 4810W        W69018   7.253   4.917  13.405
 4811W        W69019  18.144   5.277   3.750
 4812W        W69020   1.795  25.185  13.321
 4813W        W69021   0.441  27.610   4.352
 4814W        W69022  15.157  38.547  11.477
 4815W        W69023  39.949  36.049   1.726
 4816W        W69024   0.954  25.191  14.462
 4817W        W69025  12.747  34.096   4.622
 4818W        W69026  39.314  12.614  14.934
 4819W        W69027  20.206  36.053   2.375
 4820W        W69028  31.056  37.342  14.956
 4821W        W69029   4.425  12.816  13.945
 4822W        W69030  28.554  20.533   4.189
 4823W        W69031  10.798  35.865  13.481
 4824W        W69032  32.577  18.069  14.880
 4825W        W69033   4.244   8.831   4.810
 4826W        W69034  32.402  42.313   3.664
 4827W        W69035  11.629   8.362  11.095
 4828W        W69036   1.337  43.985  12.838
 4829W        W69037  38.464  43.847  14.395
 4830W        W69038  43.345  24.150   4.794
 4831W        W69039  31.498  39.913  14.384
 4832W        W69040  21.148  35.395   4.306
 4833W        W69041  44.934   7.707  13.397
 4834W        W69042   8.288  34.893  12.941
 4835W        W69043  29.477   1.852   3.868
 4836W        W69044   0.469  33.924  13.917
 4837W        W69045  36.029  42.956   2.837
 4838W        W69046   6.199   4.751  10.448
 4839W        W69047   4.928  18.603   2.769
 4840W        W69048  42.299   9.835  12.912
 4841W        W69049  31.462  16.702  12.474
 4842W        W69050   4.822  30.529  10.619
 4843W        W69051  15.088  41.393  12.008
 4844W        W69052  13.747  19.173  11.603
 4845W        W69053  39.839  39.976  12.378
 4846W        W69054   1.338  42.325  14.961
 4847W        W69055  16.204  43.475  12.873
 4848W        W69056  26.153  31.007  11.538
 4849W        W69057  27.036   9.350  12.429
 4850W        W69058  29.103  38.463   4.164
 4851W        W69059  27.568   8.401  13.015
 4852W        W69060  36.909  10.175  10.500
 4853W        W69061  29.461  19.249  11.951
 4854W        W69062  43.788  10.672  10.983
 4855W        W69063  13.326  19.687   1.308
 4856W        W69064   7.767  25.210   5.239
 4857W        W69065  41.327  18.065   4.145
 4858W        W69066   8.833   3.736   1.368
 4859W        W69067   1.361   4.811   0.877
 4860W        W69068  20.108  30.490   3.227
 4861W        W69069  12.614  35.875  12.568
 4862W        W69070  12.793  13.669  12.001
 4863W        W69071   0.930   1.787   2.704
 4864W        W69072  28.576   9.799  10.605
 4865W        W69073   6.396  11.149  14.390
 4866W        W69074  42.972  29.469   4.766
 4867W        W69075  35.103   4.344   4.655
 4868W        W69076   1.864   5.303  12.545
 4869W        W69077  29.149  21.059   4.203
 4870W        W69078   8.384  13.285  12.395
 4871W        W69079  26.474   2.917  12.925
 4872W        W69080  27.585   5.703  11.974
 4873W        W69081  31.473  28.125   3.871
 4874W        W69082  12.248  14.095  12.360
 4875W        W69083  16.083  12.284   0.354
 4876W        W69084  40.337  18.204  13.909
 4877W        W69085  23.492  44.818  14.422
 4878W        W69086   1.405  16.110   3.239
 4879W        W69087  44.925  16.590  12.829
 4880W        W69088  31.110  37.928   3.334
 4881W        W69089  15.729  38.536  10.626
 4882W        W69090  19.189  30.538  12.970
 4883W        W69091  14.218   4.892  10.553
 4884W        W69092  15.645  10.371  10.406
 4885W        W69093  14.775   8.738  11.938
 4886W        W69094  27.181  13.767  12.375
 4887W        W69095  32.126  19.183  13.012
 4888W        W69096  40.997  31.096   4.306
 4889W        W69097  12.189  36.846   3.695
 4890W        W69098  15.778  42.011  12.887
 4891W        W69099  26.081   9.773  11.378
 4892W        W69100  39.864  13.709  12.991
 4893W        W69101   1.265  23.059   0.424
 4894W        W69102  33.453  39.914  12.419
 4895W        W69103   1.857  20.642  14.418
 4896W        W69104  33.904  25.131  11.893
 4897W        W69105  26.563   4.788   4.776
 4898W        W69106  22.605  16.660   3.256
 4899W        W69107  44.282  25.493   4.306
 4900W        W69108  27.976  27.540   3.685
 4901W        W69109  20.641  41.901  12.516
 4902W        W69110  23.646  23.047  11.029
 4903W        W69111  22.120  22.086  14.504
 4904W        W69112  24.682  11.328   1.817
 4905W        W69113   4.793   7.779   3.808
 4906W        W69114  22.725  32.629  12.031
 4907W        W69115   6.245  37.531   0.956
 4908W        W69116  44.964   5.304   1.375
 4909W        W69117  18.189  16.270   0.479
 4910W        W69118  39.049  43.274   0.414
 4911W        W69119  37.410  25.108   3.333
 4912W        W69120  14.250  27.564   3.630
 4913W        W69121   3.884  30.598   4.167
 4914W        W69122  14.745   4.205   2.671
 4915W        W69123  41.896  23.207  13.832
 4916W        W69124  32.625  19.759  10.515
 4917W        W69125  39.958  41.924  14.031
 4918W        W69126  42.024  35.966   3.231
 4919W        W69127  41.311  29.597   3.366
 4920W        W69128  26.070  15.600   1.811
 4921W        W69129  12.189   1.734  14.883
 4922W        W69130   4.920  18.691  12.428
 4923W        W69131  26.098  22.065   0.949
 4924W        W69132  22.133  21.527  14.492
 4925W        W69133  11.621  10.778  10.629
 4926W        W69134  43.473  22.672   2.319
 4927W        W69135  24.230  44.979  14.373
 4928W        W69136   4.412  18.724   2.320
 4929W        W69137  26.544  30.568   1.889
 4930W        W69138  20.191  10.342  11.905
 4931W        W69139   0.853  11.621  13.906
 4932W        W69140  19.125   5.846   0.926
 4933W        W69141  30.426   0.394   2.708
 4934W        W69142  40.329   3.743  12.961
 4935W        W69143  33.470   7.268   1.407
 4936W        W69144  18.682  16.792  14.777
 4937W        W69145  37.476  12.706   4.830
 4938W        W69146  10.194  44.873  10.530
 4939W        W69147  33.482   0.965   9.988
 4940W        W69148  35.440  10.861   2.226
 4941W        W69149  27.459  27.044  13.538
 4942W        W69150  27.616  38.953  14.343
 4943W        W69151  42.833   2.303   4.785
 4944W        W69152   3.928  31.955   0.276
 4945W        W69153  10.787  34.972  10.981
 4946W        W69154  37.936  35.534   3.323
 4947W        W69155   7.680  26.125  14.846
 4948W        W69156  44.889  18.173   2.235
 4949W        W69157  22.108  38.568  14.319
 4950W        W69158  21.101  38.360  11.894
 4951W        W69159  13.257  25.656   1.711
 4952W        W69160  17.782  31.494   3.803
 4953W        W69161  13.256  40.798   2.888
 4954W        W69162   1.768  28.095  12.345
 4955W        W69163  34.985  34.540   0.788
 4956W        W69164   0.295   2.941   4.311
 4957W        W69165  34.583  39.446   2.754
 4958W        W69166  30.607  15.261   3.370
 4959W        W69167  13.711   4.945  12.412
 4960W        W69168  16.755  32.394   1.359
 4961W        W69169  22.238  32.635   2.860
 4962W        W69170  24.084  12.164  12.529
 4963W        W69171  36.556  25.123   1.302
 4964W        W69172   6.267  31.040   3.381
 4965W        W69173  23.136  18.254   2.376
 4966W        W69174  21.723  36.550  13.970
 4967W        W69175  25.115  25.548   2.856
 4968W        W69176  27.989  14.619   3.659
 4969W        W69177  37.360  33.121   0.829
 4970W        W69178  28.103  26.097  11.975
 4971W        W69179  36.886  30.949  10.429
 4972W        W69180  26.654  17.794  10.612
 4973W        W69181  23.021  23.168  12.899
 4974W        W69182  11.676  42.410  12.496
 4975W        W69183   6.854  14.197   0.430
 4976W        W69184  33.095  28.565  13.360
 4977W        W69185  15.608   8.654  13.312
 4978W        W69186  24.558   4.406   1.373
 4979W        W69187   6.724  33.565  12.847
 4980W        W69188  39.335  25.483  10.619
 4981W        W69189  41.432  43.310   2.788
 4982W        W69190  31.059  26.516  14.391
 4983W        W69191  32.011   2.941  12.547
 4984W        W69192  41.895  10.192   3.315
 4985W        W69193  39.849  43.311   1.433
 4986W        W69194   7.899  19.590  11.894
 4987W        W69195  22.010  23.189  13.019
 4988W        W69196  16.625  25.468   4.288
 4989W        W69197  36.376  43.800  12.088
 4990W        W69198   1.830  12.206   4.119
 4991W        W69199  36.413  14.751  13.889
 4992W        W69200  38.406  11.330   4.626
 4993W        W69201  10.682   5.267   1.265
 4994W        W69202  28.633   4.248  14.909
 4995W        W69203  28.465  30.565  11.967
 4996W        W69204  12.240  39.816  12.540
 4997W        W69205  35.048  16.182  13.923
 4998W        W69206   7.765  23.197  12.096
 4999W        W69207  12.666  44.273  14.802
 5000W        W69208  29.927  13.155  13.807
 5001W        W69209  17.080  32.610   2.329
 5002W        W69210  43.790  23.228   3.155
 5003W        W69211  24.663  34.393  13.381
 5004W        W69212  29.937   7.329   4.122
 5005W        W69213  43.786  44.921   3.676
 5006W        W69214   3.269  27.035   0.771
 5007W        W69215  16.655   2.895  12.412
 5008W        W69216  12.201   2.245  13.463
 5009W        W69217  27.642   4.924   1.216
 5010W        W69218  33.995  35.025   4.197
 5011W        W69219  16.706   8.883   1.795
 5012W        W69220   4.261  37.869   3.820
 5013W        W69221  42.331  28.990  12.463
 5014W        W69222  17.183  44.862   4.185
 5015W        W69223  32.995  27.539   4.217
 5016W        W69224   2.748  15.187   0.246
 5017W        W69225   1.953  31.530   3.649
 5018W        W69226  30.618   5.780  12.945
 5019W        W69227  25.015  10.838  13.990
 5020W        W69228  22.076   5.897   2.393
 5021W        W69229  21.075  32.427   3.152
 5022W        W69230  12.777  10.256   2.269
 5023W        W69231  16.772  37.945  13.908
 5024W        W69232  11.770  33.058   2.416
 5025W        W69233  41.494  28.559   4.320
 5026W        W69234  22.580  11.274   2.735
 5027W        W69235  15.616   6.779   1.879
 5028W        W69236  26.036  27.557   4.805
 5029W        W69237   4.844   2.392  11.121
 5030W        W69238  19.093  24.711  11.418
 5031W        W69239  32.438  24.587   0.849
 5032W        W69240  31.636  17.166  12.884
 5033W        W69241  40.537  33.064  11.598
 5034W        W69242   2.281  38.851  13.315
 5035W        W69243  26.170  17.258  14.389
 5036W        W69244  26.698   9.312   5.287
 5037W        W69245  10.284  23.572  10.047
 5038W        W69246  13.293   1.314   1.294
 5039W        W69247  44.754  30.477  12.844
 5040W        W69248   9.368  24.547   3.828
 5041W        W69249  14.119  24.992   2.769
 5042W        W69250  13.659  18.717   3.302
 5043W        W69251  24.982  14.809  12.880
 5044W        W69252  27.075  41.886  12.855
 5045W        W69253  40.390  22.551   0.288
 5046W        W69254   7.391  15.267  11.504
 5047W        W69255  32.973  14.166  13.445
 5048W        W69256  35.531  40.476  14.961
 5049W        W69257   3.863  10.307  12.446
 5050W        W69258  35.858  33.450   1.339
 5051W        W69259  29.506  42.776  14.358
 5052W        W69260   5.395   4.715   0.307
 5053W        W69261  42.426  31.036  11.084
 5054W        W69262  24.067  42.411  13.390
 5055W        W69263  17.170  27.134  12.967
 5056W        W69264  41.925   5.911  13.882
 5057W        W69265  38.531  24.111  13.379
 5058W        W69266  27.508  36.571  11.390
 5059W        W69267  21.634   3.935  13.997
 5060W        W69268  32.539   6.713  12.928
 5061W        W69269   7.698   3.731  14.488
 5062W        W69270  29.943  33.426   1.766
 5063W        W69271  36.355  34.909  14.917
 5064W        W69272  37.052  39.333  12.424
 5065W        W69273  25.981  32.065  13.499
 5066W        W69274  20.107  14.674  10.499
 5067W        W69275  25.707   5.358  12.564
 5068W        W69276  22.625  41.501   5.081
 5069W        W69277   9.263   0.836   4.179
 5070W        W69278  43.502  29.526  13.393
 5071W        W69279  36.089  41.792  11.371
 5072W        W69280  42.860  28.544  12.862
 5073W        W69281  10.186  13.660  14.998
 5074W        W69282  11.833  27.074  14.966
 5075W        W69283  39.390  22.510  12.840
 5076W        W69284  30.964   2.780  14.499
 5077W        W69285  42.491  31.985   3.250
 5078W        W69286  39.490   8.394   1.256
 5079W        W69287  32.530  43.288   1.262
 5080W        W69288  31.099  25.582   4.119
 5081W        W69289   8.319  12.262  14.779
 5082W        W69290  27.486  38.838  10.969
 5083W        W69291  40.876  41.021  13.438
 5084W        W69292  12.269  32.445   2.673
 5085W        W69293  23.153  36.494   0.356
 5086W        W69294  19.061  34.879  13.928
 5087W        W69295  16.581   0.477   0.940
 5088W        W69296  19.722  29.485  14.920
 5089W        W69297  35.063   0.865  14.316
 5090W        W69298  26.994  25.626   1.348
 5091W        W69299  28.133  24.054   1.257
 5092W        W69300   4.256  15.237  11.587
 5093W        W69301   7.801  13.273  14.304
 5094W        W69302   0.897  34.537   4.701
 5095W        W69303   3.255   7.181  11.580
 5096W        W69304  26.594  23.015  12.878
 5097W        W69305  21.129  12.141   0.743
 5098W        W69306   6.262  31.064  11.454
 5099W        W69307  10.692  34.884   4.209
 5100W        W69308   8.334  17.071   4.634
 5101W        W69309  10.773  30.983  14.347
 5102W        W69310  43.381   1.316   2.667
 5103W        W69311   5.809  24.723  10.453
 5104W        W69312  12.686  34.973   3.792
 5105W        W69313  21.721  41.416  11.548
 5106W        W69314  30.627  28.007   4.809
 5107W        W69315  10.310   0.401   3.717
 5108W        W69316   1.964  17.643  10.502
 5109W        W69317   9.205  22.142   3.335
 5110W        W69318   1.895  13.163  14.883
 5111W        W69319  35.378  18.240  11.957
 5112W        W69320  15.278  42.459  11.483
 5113W        W69321   8.203  12.687   4.298
 5114W        W69322  14.712  37.555   2.737
 5115W        W69323   8.377  38.440   0.812
 5116W        W69324  31.083  42.803   9.995
 5117W        W69325  28.056  17.585   3.816
 5118W        W69326  36.544  43.380  12.504
 5119W        W69327  24.118   0.751  14.800
 5120W        W69328  34.542  21.659   3.374
 5121W        W69329  17.213  18.546  13.894
 5122W        W69330  35.433   5.227   3.203
 5123W        W69331  38.477  32.535  12.989
 5124W        W69332  16.317   4.701   2.681
 5125W        W69333  42.981  30.153  13.825
 5126W        W69334   1.781   3.799   0.869
 5127W        W69335  37.982  28.152   4.254
 5128W        W69336  29.531  17.206   1.284
 5129W        W69337  36.949  27.024  11.386
 5130W        W69338  43.987   5.207   0.794
 5131W        W69339   8.216  42.441   2.774
 5132W        W69340   5.311  20.737   2.400
 5133W        W69341   9.328   7.232   5.159
 5134W        W69342  24.036  25.580   2.828
 5135W        W69343  42.852  37.963  10.901
 5136W        W69344  14.728  34.093  12.362
 5137W        W69345  12.348  13.753  11.535
 5138W        W69346   2.741  41.021   4.623
 5139W        W69347   8.738  36.527   1.802
 5140W        W69348   5.725  13.303  10.414
 5141W        W69349  27.021  29.608   4.284
 5142W        W69350  39.882  16.651  11.583
 5143W        W69351  27.037  13.328   2.346
 5144W        W69352  25.709  16.195   4.131
 5145W        W69353  37.861  10.831   1.810
 5146W        W69354  44.871  10.353   0.419
 5147W        W69355   2.957  40.816   1.725
 5148W        W69356  31.050  35.380   3.815
 5149W        W69357  27.682  10.678  12.975
 5150W        W69358  23.239  42.423  14.406
 5151W        W69359  26.651   3.746  13.393
 5152W        W69360  32.133  13.181   0.342
 5153W        W69361   7.187   9.834  11.892
 5154W        W69362  33.061  39.959  14.821
 5155W        W69363  35.952  10.641   2.311
 5156W        W69364  28.161  13.306  14.804
 5157W        W69365  19.573  32.938  11.064
 5158W        W69366  34.516  18.231  13.371
 5159W        W69367  22.055   8.681  12.449
 5160W        W69368  23.165  27.154  11.551
 5161W        W69369  20.258   1.414  11.510
 5162W        W69370   7.264  11.721   2.672
 5163W        W69371  42.449   0.353  10.571
 5164W        W69372   2.305  11.799   1.307
 5165W        W69373  19.042  33.574  12.456
 5166W        W69374  38.546  13.814   1.888
 5167W        W69375   0.409   6.704   4.225
 5168W        W69376  33.061  35.897  12.837
 5169W        W69377   0.331  43.848  14.947
 5170W        W69378  20.269  42.445   3.159
 5171W        W69379  27.555  33.471  10.487
 5172W        W69380  23.236   4.763  14.917
 5173W        W69381  19.696   3.319  14.979
 5174W        W69382  34.464  36.903   4.623
 5175W        W69383  26.689  23.723  13.027
 5176W        W69384   0.385  20.120   3.347
 5177W        W69385  22.020  39.462   0.777
 5178W        W69386  34.517  20.547   2.318
 5179W        W69387   7.242  24.039   4.333
 5180W        W69388  41.467   0.385   2.737
 5181W        W69389   4.896  26.558  13.861
 5182W        W69390  16.073  18.199   0.787
 5183W        W69391   5.323   1.377  11.406
 5184W        W69392  28.515  33.941   4.314
 5185W        W69393  26.150  19.732   3.253
 5186W        W69394  30.517   0.899  11.548
 5187W        W69395   1.934  44.364  14.324
 5188W        W69396  43.415  18.100   2.304
 5189W        W69397  10.245  34.898  14.902
 5190W        W69398   7.263  12.663   1.377
 5191W        W69399  34.001  33.898  14.307
 5192W        W69400  20.090  10.774  12.531
 5193W        W69401  20.662  29.987  12.955
 5194W        W69402  33.482  28.665   3.848
 5195W        W69403  21.751  16.631   1.829
 5196W        W69404   5.427   7.225   3.747
 5197W        W69405  35.967  30.519   3.652
 5198W        W69406  21.749   2.288  12.454
 5199W        W69407  26.999   9.178   1.255
 5200W        W69408  11.165  22.733  14.868
 5201W        W69409  35.469  44.000   1.839
 5202W        W69410   2.244   8.705  12.412
 5203W        W69411  43.482  29.430   3.234
 5204W        W69412  27.062   4.877  12.922
 5205W        W69413  30.017  18.684  11.051
 5206W        W69414  20.680  16.611   2.694
 5207W        W69415  19.545  28.136  13.527
 5208W        W69416   4.260  37.966  14.896
 5209W        W69417  10.252  29.476  13.402
 5210W        W69418  40.047  41.325   3.839
 5211W        W69419  11.635   0.268   2.360
 5212W        W69420  27.089  36.372  14.277
 5213W        W69421  24.080  14.164   3.773
 5214W        W69422  37.365  37.388  13.350
 5215W        W69423  14.210   8.705  11.048
 5216W        W69424  19.196   9.848  11.445
 5217W        W69425  42.281  35.966  10.609
 5218W        W69426   1.316  14.806  10.625
 5219W        W69427  38.073  29.172  13.831
 5220W        W69428   8.843   3.316   9.937
 5221W        W69429   8.246  18.186  14.794
 5222W        W69430  31.100  41.916  13.857
 5223W        W69431  29.070   9.837  11.990
 5224W        W69432  38.486  16.218  10.044
 5225W        W69433  29.432  38.067  14.989
 5226W        W69434  30.101  21.634  13.864
 5227W        W69435  25.108  37.394  13.870
 5228W        W69436  10.840  29.930  12.413
 5229W        W69437  39.315  19.203   2.278
 5230W        W69438  32.995  44.485  14.863
 5231W        W69439  38.521  36.526   2.264
 5232W        W69440  29.637   3.863  14.826
 5233W        W69441   6.385  30.606  11.553
 5234W        W69442  28.623  44.274   0.334
 5235W        W69443   1.944  23.508  13.808
 5236W        W69444   5.932  21.723   0.398
 5237W        W69445  44.294  13.337  13.533
 5238W        W69446  28.026  28.944  11.564
 5239W        W69447  19.263  38.917   1.260
 5240W        W69448  23.058   9.717   2.203
 5241W        W69449   5.195  35.535  11.469
 5242W        W69450  19.684  38.904  14.917
 5243W        W69451  37.013   2.294  10.912
 5244W        W69452  20.696   3.325   4.668
 5245W        W69453  14.720  39.884   4.293
 5246W        W69454   5.350  38.514  10.530
 5247W        W69455  29.949  38.348   2.816
 5248W        W69456  38.388  32.430  12.018
 5249W        W69457   0.944   5.709  13.001
 5250W        W69458   5.759  13.703  13.037
 5251W        W69459  42.401   5.873  11.960
 5252W        W69460  35.981  41.880   3.814
 5253W        W69461  25.009  25.557   3.349
 5254W        W69462  18.134   1.244   1.799
 5255W        W69463  22.016   6.805  13.421
 5256W        W69464  42.346  36.963  10.964
 5257W        W69465  33.932   6.886  12.525
 5258W        W69466  14.833  43.967   3.195
 5259W        W69467  28.567  13.116  11.470
 5260W        W69468  23.543  33.622  12.953
 5261W        W69469  23.141  44.001  13.064
 5262W        W69470   9.674  28.042  14.967
 5263W        W69471  24.206  15.099   3.267
 5264W        W69472   7.173   5.253  12.026
 5265W        W69473   9.212  39.455  10.985
 5266W        W69474   1.850  16.737   4.118
 5267W        W69475  25.996  21.531  14.983
 5268W        W69476  12.353  21.535  10.606
 5269W        W69477  24.591  43.962  11.459
 5270W        W69478  44.319  21.574  10.901
 5271W        W69479  29.436  23.608   3.314
 5272W        W69480   1.803   5.242   3.633
 5273W        W69481  18.158  11.314   2.842
 5274W        W69482  11.316  12.652  12.566
 5275W        W69483  40.852  15.131   3.228
 5276W        W69484  20.541  28.939  14.285
 5277W        W69485  26.531  20.121   3.790
 5278W        W69486  33.481   9.339  14.344
 5279W        W69487  42.915  12.808   3.311
 5280W        W69488  35.558   8.685   3.245
 5281W        W69489  23.502  28.053   4.601
 5282W        W69490  12.165  24.661  10.935
 5283W        W69491  17.257  35.857   3.692
 5284W        W69492  17.750  36.962  11.032
 5285W        W69493  33.079   2.243   4.663
 5286W        W69494  14.686  21.229  12.472
 5287W        W69495  23.153  15.088   2.705
 5288W        W69496   4.790  23.676   1.777
 5289W        W69497   7.311  25.700  14.380
 5290W        W69498   3.885  28.568   0.964
 5291W        W69499  12.755   6.704   4.757
 5292W        W69500   6.917  37.361  11.108
 5293W        W69501  17.666  14.712   1.800
 5294W        W69502  35.929  22.036   1.782
 5295W        W69503  13.166   3.324   5.298
 5296W        W69504  36.875   8.226  12.830
 5297W        W69505   5.319  40.800   1.780
 5298W        W69506   0.963  39.325  14.016
 5299W        W69507  21.203   6.891  11.049
 5300W        W69508  24.077  39.010   3.849
 5301W        W69509  29.646   3.949   2.684
 5302W        W69510   8.739   5.227   4.308
 5303W        W69511   4.920  21.037  14.424
 5304W        W69512  43.391  41.998  11.867
 5305W        W69513  25.970  43.979   4.172
 5306W        W69514   5.835  10.754   4.243
 5307W        W69515  36.950  29.494  14.313
 5308W        W69516  15.134  10.140   0.743
 5309W        W69517   1.840  44.365  14.899
 5310W        W69518  43.443  16.177   4.297
 5311W        W69519  31.977  18.606   2.302
 5312W        W69520   6.894   3.344   0.381
 5313W        W69521  21.629  30.608  12.546
 5314W        W69522  18.760   1.265  14.761
 5315W        W69523  29.165  10.186  14.984
 5316W        W69524  34.494  27.107   1.926
 5317W        W69525  28.984   9.201   3.671
 5318W        W69526  23.035  24.229  14.025
 5319W        W69527   1.284  30.963   9.597
 5320W        W69528  21.104  30.425  14.282
 5321W        W69529  43.313  17.199  11.933
 5322W        W69530  16.594  21.684  11.101
 5323W        W69531  10.367  17.588   0.428
 5324W        W69532  27.582  14.828  14.429
 5325W        W69533  40.010   3.242   1.376
 5326W        W69534  24.543  35.527   4.615
 5327W        W69535  17.257   3.416   3.652
 5328W        W69536  44.272  31.955  12.347
 5329W        W69537  41.005  34.588   1.855
 5330W        W69538  18.051  22.155  14.389
 5331W        W69539  13.620  31.098   0.303
 5332W        W69540   1.767   8.668  13.518
 5333W        W69541   3.854   0.320   4.190
 5334W        W69542  35.490  25.660   1.280
 5335W        W69543   1.938  26.491  14.913
 5336W        W69544  16.804  23.234   4.247
 5337W        W69545   8.249  35.384   1.410
 5338W        W69546  40.038   5.741   3.271
 5339W        W69547  16.209   1.816   0.286
 5340W        W69548  31.433   9.391  12.996
 5341W        W69549  36.551  27.029  11.482
 5342W        W69550  38.958  10.382   2.751
 5343W        W69551  25.184  40.396  14.386
 5344W        W69552  30.961   6.328  12.422
 5345W        W69553   0.425  40.319  13.464
 5346W        W69554  29.028  19.538   5.240
 5347W        W69555  43.482  35.852   2.249
 5348W        W69556  11.851  44.759   4.256
 5349W        W69557  19.678  28.628   0.928
 5350W        W69558  33.910   6.761   2.390
 5351W        W69559   4.365  31.477  12.341
 5352W        W69560  40.317  27.555  14.777
 5353W        W69561   4.882  21.633  11.879
 5354W        W69562  32.451  19.742  10.001
 5355W        W69563  26.463   3.907   4.280
 5356W        W69564   0.807  24.567  10.508
 5357W        W69565   2.284  15.632   4.759
 5358W        W69566  34.578  24.674  11.049
 5359W        W69567  10.375  19.624   0.816
 5360W        W69568  33.433  44.434   0.860
 5361W        W69569  30.453   7.216   2.246
 5362W        W69570  24.002  22.147  11.442
 5363W        W69571  34.609  40.918  11.010
 5364W        W69572   4.389  11.754   3.840
 5365W        W69573  23.016  43.932   1.289
 5366W        W69574  13.211  24.630   1.383
 5367W        W69575  11.689  35.046   1.729
 5368W        W69576  37.998  35.926   1.870
 5369W        W69577  24.999   0.925   0.472
 5370W        W69578  10.703  38.533   0.869
 5371W        W69579  38.900  26.701  13.475
 5372W        W69580  14.131  13.292  12.048
 5373W        W69581   6.833  35.467  13.431
 5374W        W69582  40.467  37.896   4.715
 5375W        W69583  12.711  17.736   2.826
 5376W        W69584  10.633   0.956   1.848
 5377W        W69585  22.550  17.286  13.060
 5378W        W69586   8.187   1.733  12.061
 5379W        W69587  33.470  43.851   4.640
 5380W        W69588  14.764  23.577   3.352
 5381W        W69589  14.835  23.670  11.531
 5382W        W69590   2.855  24.158   3.354
 5383W        W69591   2.732   5.813  14.912
 5384W        W69592  27.522  44.412  11.940
 5385W        W69593   7.390  30.434   3.323
 5386W        W69594  14.608  30.160   1.349
 5387W        W69595   9.788   5.197  10.412
 5388W        W69596  12.725  29.542  14.344
 5389W        W69597   8.729   6.687   3.250
 5390W        W69598   1.880  23.701  14.770
 5391W        W69599  25.602  27.597  13.340
 5392W        W69600   9.710  29.997  11.401
 5393W        W69601  32.546  18.242  14.485
 5394W        W69602  32.457   3.398  10.945
 5395W        W69603  42.352  38.413   2.179
 5396W        W69604  31.936  27.138  14.966
 5397W        W69605  11.189  42.780  13.923
 5398W        W69606   5.247  10.656  11.114
 5399W        W69607   8.293   9.240   1.798
 5400W        W69608  18.101   3.365   4.113
 5401W        W69609  36.376  34.370   3.327
 5402W        W69610  34.077  40.879   1.240
 5403W        W69611  26.683  19.094   2.745
 5404W        W69612  28.559  12.656   0.731
 5405W        W69613   4.375  33.922  14.435
 5406W        W69614  29.165  33.066  11.894
 5407W        W69615  21.514   1.745   2.314
 5408W        W69616  30.969   6.843   3.646
 5409W        W69617  25.203  40.399   3.282
 5410W        W69618  11.129  44.773  10.585
 5411W        W69619   7.395   3.809  12.919
 5412W        W69620   6.876  13.726   1.248
 5413W        W69621  35.375  18.236   2.302
 5414W        W69622   9.357  29.986  14.981
 5415W        W69623  36.097  10.841  13.018
 5416W        W69624   0.384   5.195  11.125
 5417W        W69625  17.722  39.836   2.387
 5418W        W69626  25.499   9.885  14.422
 5419W        W69627  24.123  21.250  12.365
 5420W        W69628  18.623  13.812   1.777
 5421W        W69629   6.918   6.238  13.905
 5422W        W69630  19.226  21.586  13.845
 5423W        W69631   2.738  33.617   3.280
 5424W        W69632  21.098  17.557  14.480
 5425W        W69633  30.963  27.087  12.453
 5426W        W69634  33.605  15.722   0.753
 5427W        W69635  24.102  17.206   2.356
 5428W        W69636   9.223  17.573   0.915
 5429W        W69637  18.070  38.337   1.810
 5430W        W69638  36.521  39.052  13.421
 5431W        W69639  15.810  34.095  11.921
 5432W        W69640  17.210  14.624   4.156
 5433W        W69641   6.721   3.749  13.884
 5434W        W69642  33.091  10.217   4.628
 5435W        W69643  39.897  13.679  13.359
 5436W        W69644  35.892  43.274   1.361
 5437W        W69645  27.054  10.306  10.429
 5438W        W69646  12.168  10.283   0.347
 5439W        W69647   8.373  39.036  12.868
 5440W        W69648   9.158  35.540   3.791
 5441W        W69649  38.021  32.953   4.129
 5442W        W69650   0.758  42.836  13.431
 5443W        W69651   7.908  12.304   1.817
 5444W        W69652  30.955  18.680   2.726
 5445W        W69653  10.831  27.003  11.391
 5446W        W69654  23.060  32.052  14.924
 5447W        W69655  24.139  20.198   3.786
 5448W        W69656  16.237  12.222  13.349
 5449W        W69657  24.719  32.952   2.395
 5450W        W69658   3.452  40.858  13.368
 5451W        W69659  27.087  27.080   1.218
 5452W        W69660  34.082  42.428  14.857
 5453W        W69661   8.390  18.789   0.856
 5454W        W69662  42.908  20.080   3.778
 5455W        W69663  29.518  44.840  10.645
 5456W        W69664  18.274  34.046  14.388
 5457W        W69665  25.200  39.985   2.280
 5458W        W69666   3.346  33.490  11.075
 5459W        W69667  29.621  42.284  13.947
 5460W        W69668  40.395   5.805   1.760
 5461W        W69669  39.419  19.601  11.951
 5462W        W69670  41.989  17.618   2.768
 5463W        W69671  29.106   8.161   2.779
 5464W        W69672  24.188  11.152  14.812
 5465W        W69673   0.926   6.702  10.406
 5466W        W69674   6.327  36.455   3.157
 5467W        W69675  26.060  10.877  11.418
 5468W        W69676  44.923  22.223   3.243
 5469W        W69677   6.682  38.502   3.647
 5470W        W69678  13.740  14.239   2.662
 5471W        W69679   6.824  28.147  12.426
 5472W        W69680  44.266  31.410   4.318
 5473W        W69681  42.309  41.857  12.990
 5474W        W69682  26.459  35.526  10.409
 5475W        W69683  39.002  13.155   0.344
 5476W        W69684  31.555  17.655  12.924
 5477W        W69685  37.903  34.088  14.360
 5478W        W69686  39.369  34.906  11.044
 5479W        W69687  24.569  34.380  10.538
 5480W        W69688  37.834   1.975   5.224
 5481W        W69689   3.372   2.881   2.750
 5482W        W69690  26.590  24.085   3.852
 5483W        W69691  17.074  28.480   4.342
 5484W        W69692   5.788  40.397  12.884
 5485W        W69693  23.161  34.925  10.988
 5486W        W69694  42.514   5.288  12.031
 5487W        W69695  30.473  37.418   2.202
 5488W        W69696  28.054  14.699   0.964
 5489W        W69697  12.796   4.370   4.217
 5490W        W69698  13.111  20.693  13.373
 5491W        W69699  25.009  31.432   1.933
 5492W        W69700   3.234  12.310   4.706
 5493W        W69701  30.972  34.534  13.384
 5494W        W69702  42.334   5.428   0.937
 5495W        W69703  27.080  28.532   1.875
 5496W        W69704  31.008   3.826  13.884
 5497W        W69705   4.813   1.769   4.260
 5498W        W69706  25.478  31.126  11.611
 5499W        W69707  42.370   4.886  14.394
 5500W        W69708  11.177  44.952   1.363
 5501W        W69709  43.957  34.983  11.449
 5502W        W69710  22.073   1.743   3.198
 5503W        W69711   1.815   2.448   4.274
 5504W        W69712  16.640  10.299  11.375
 5505W        W69713  24.142  29.547   0.798
 5506W        W69714  41.999   4.802  12.469
 5507W        W69715  35.093  36.550   2.862
 5508W        W69716  22.037  26.078  13.950
 5509W        W69717  15.749  44.969   2.324
 5510W        W69718   9.230   1.903   1.254
 5511W        W69719  34.525  13.666   4.758
 5512W        W69720  32.408  38.869  13.891
 5513W        W69721  44.329  42.840   3.299
 5514W        W69722  44.272   7.406  11.915
 5515W        W69723   7.381   1.797  14.368
 5516W        W69724  44.365  11.320   2.267
 5517W        W69725  43.877  24.991  10.418
 5518W        W69726  31.941  23.192   4.219
 5519W        W69727  38.907  16.232   2.708
 5520W        W69728  38.036   2.385  10.548
 5521W        W69729  12.239  42.863  11.962
 5522W        W69730   1.753   1.287  12.454
 5523W        W69731   9.170  33.936  14.867
 5524W        W69732  14.336  11.864  12.086
 5525W        W69733  18.592  43.349  12.495
 5526W        W69734  17.204  32.937   4.827
 5527W        W69735  25.080  11.775  10.927
 5528W        W69736  37.511  32.988   3.757
 5529W        W69737  29.942  43.422   3.762
 5530W        W69738  20.270   3.933  10.474
 5531W        W69739  14.774  34.976   3.790
 5532W        W69740  42.948  33.516  13.352
 5533W        W69741  22.120   5.401   3.763
 5534W        W69742   8.694  14.224   3.783
 5535W        W69743  44.310  29.973  12.505
 5536W        W69744  21.554  11.824   2.260
 5537W        W69745  43.304   3.766   1.378
 5538W        W69746   8.856  43.931   4.253
 5539W        W69747   7.810  13.786  10.996
 5540W        W69748  11.841  27.075   4.320
 5541W        W69749   3.900  29.024  14.502
 5542W        W69750  32.428  34.093  11.024
 5543W        W69751  37.500  25.577   4.219
 5544W        W69752  35.903  42.855  12.863
 5545W        W69753  38.069  13.702   4.326
 5546W        W69754  28.550   7.289   1.381
 5547W        W69755  13.185  16.223   0.940
 5548W        W69756  31.448  35.369   2.279
 5549W        W69757  31.136  16.796   4.631
 5550W        W69758  18.166  37.536  13.358
 5551W        W69759   0.899  27.137   0.330
 5552W        W69760   1.285  10.373  12.983
 5553W        W69761  34.920  24.160  11.454
 5554W        W69762  37.996  33.459   2.736
 5555W        W69763   1.286   2.828   2.878
 5556W        W69764   3.436  13.767   0.314
 5557W        W69765  31.448  21.603   3.242
 5558W        W69766  37.989  34.576  14.327
 5559W        W69767  44.400  11.300   1.413
 5560W        W69768  18.262   4.211   0.761
 5561W        W69769  12.256   7.729  14.422
 5562W        W69770   5.343  12.841   3.224
 5563W        W69771  30.447   3.294   1.919
 5564W        W69772   6.365  11.307  13.396
 5565W        W69773  39.954  21.693  11.387
 5566W        W69774  20.196  26.088   1.755
 5567W        W69775   7.714  32.530   1.251
 5568W        W69776  31.057   9.714   1.448
 5569W        W69777   0.331  40.540  12.013
 5570W        W69778  16.192  37.375  11.530
 5571W        W69779  29.649  16.193   3.854
 5572W        W69780  17.286  28.145   1.740
 5573W        W69781  38.044   9.645  14.794
 5574W        W69782  24.510   0.394  10.975
 5575W        W69783  33.005  35.098   4.301
 5576W        W69784  24.101  34.966   3.172
 5577W        W69785  38.918   3.340  14.487
 5578W        W69786  40.388  16.136   2.241
 5579W        W69787  16.122  19.541   2.837
 5580W        W69788  10.350   1.756   0.754
 5581W        W69789   5.902  43.406   0.398
 5582W        W69790  30.156  22.043   4.656
 5583W        W69791  20.192  15.169   1.818
 5584W        W69792   7.811  25.530  12.399
 5585W        W69793  21.224  34.883   3.766
 5586W        W69794  18.730  43.290   4.149
 5587W        W69795  42.991  27.948  13.957
 5588W        W69796  23.528  10.257   3.324
 5589W        W69797  15.721  14.818  14.901
 5590W        W69798  11.717   0.889   3.272
 5591W        W69799  19.706  14.232  13.997
 5592W        W69800  41.986   8.201  11.415
 5593W        W69801  38.980  29.146   0.809
 5594W        W69802  39.834   2.916  11.492
 5595W        W69803  10.863  12.204   5.602
 5596W        W69804   6.278  39.387  12.418
 5597W        W69805  43.956   3.925   0.283
 5598W        W69806   5.308   5.285   0.263
 5599W        W69807  33.481   7.398   2.301
 5600W        W69808  28.482  13.221  12.428
 5601W        W69809  13.243  25.994   1.882
 5602W        W69810  11.790  41.449   3.787
 5603W        W69811   1.299  43.334   1.835
 5604W        W69812  29.993  14.172  10.589
 5605W        W69813  28.497  25.518  14.367
 5606W        W69814  29.581  37.943  10.957
 5607W        W69815  22.636   5.796   9.460
 5608W        W69816  43.013  42.001  11.592
 5609W        W69817  33.454   8.357   2.877
 5610W        W69818  13.670  19.178   2.823
 5611W        W69819  13.254  20.602  13.994
 5612W        W69820  10.303  43.412  13.381
 5613W        W69821  25.982  34.008   3.867
 5614W        W69822  44.320  17.217   4.654
 5615W        W69823   3.272   3.237  11.598
 5616W        W69824  18.234  42.414  12.509
 5617W        W69825   4.248  12.709   2.781
 5618W        W69826  22.067   7.871  10.114
 5619W        W69827   9.812  17.619   3.180
 5620W        W69828   6.387  15.768  11.550
 5621W        W69829  24.098  24.540  14.956
 5622W        W69830  19.170   8.823   1.222
 5623W        W69831  14.653  36.081   4.796
 5624W        W69832  29.454  17.174   0.884
 5625W        W69833  29.519  28.573  14.310
 5626W        W69834   2.333  11.345   3.657
 5627W        W69835  37.981  38.476   3.216
 5628W        W69836  38.915   6.244   3.247
 5629W        W69837  27.190  13.689   0.892
 5630W        W69838   3.806  36.022  10.973
 5631W        W69839  10.290  41.324   4.735
 5632W        W69840  43.393  10.703   0.422
 5633W        W69841  36.494   4.709  11.569
 5634W        W69842  28.049  40.998   4.246
 5635W        W69843  38.346  38.974  11.035
 5636W        W69844   3.740  38.418  10.595
 5637W        W69845  36.841   5.781  11.933
 5638W        W69846  33.392   8.278  12.456
 5639W        W69847  18.163  16.797   3.685
 5640W        W69848  17.799  11.218   0.246
 5641W        W69849   5.727  32.037   4.174
 5642W        W69850  26.982  40.449   9.954
 5643W        W69851  44.492  10.337   2.776
 5644W        W69852  43.378  26.064  12.094
 5645W        W69853  15.634   4.220  13.419
 5646W        W69854  12.266  21.661  11.510
 5647W        W69855   0.857   2.406  14.846
 5648W        W69856   6.310  25.567  13.449
 5649W        W69857  12.356  10.184   2.854
 5650W        W69858  44.467  34.591   4.321
 5651W        W69859  24.601  14.770   2.404
 5652W        W69860   3.306  26.696  11.950
 5653W        W69861  31.032   8.299  13.310
 5654W        W69862  40.009  32.425  11.890
 5655W        W69863  26.976  20.605  10.549
 5656W        W69864  30.518  18.066   2.828
 5657W        W69865  14.104   7.781   5.166
 5658W        W69866  17.662  29.020  12.873
 5659W        W69867  25.636   4.840   2.719
 5660W        W69868  25.088  21.620  14.787
 5661W        W69869  30.509   2.396  12.365
 5662W        W69870  10.860   9.309  11.880
 5663W        W69871  13.630  33.885  11.555
 5664W        W69872   5.741  17.749  13.795
 5665W        W69873  42.790   4.350   0.431
 5666W        W69874  40.304  34.378  12.035
 5667W        W69875  36.391  18.192   2.361
 5668W        W69876  12.272   7.875  12.575
 5669W        W69877  13.838  23.225  10.404
 5670W        W69878  15.222  18.114  10.626
 5671W        W69879  25.976  23.548  11.986
 5672W        W69880   4.780   6.197  14.923
 5673W        W69881  23.634  16.785  14.361
 5674W        W69882  31.536  15.084   4.198
 5675W        W69883  10.305  28.602   4.816
 5676W        W69884  42.020  42.792   3.704
 5677W        W69885  18.203  10.250  12.440
 5678W        W69886  29.920   7.316   0.370
 5679W        W69887  29.441  37.060  13.363
 5680W        W69888  32.567   4.893  11.968
 5681W        W69889  14.184   7.861   1.426
 5682W        W69890  41.352  22.169   4.770
 5683W        W69891  41.538  43.895   4.729
 5684W        W69892  10.327  31.053   4.132
 5685W        W69893  39.968   6.356  12.980
 5686W        W69894  25.567  31.936  11.114
 5687W        W69895   5.381   6.852  13.904
 5688W        W69896  16.619  42.430  13.017
 5689W        W69897  38.029  20.084   1.775
 5690W        W69898  38.396  27.601  11.487
 5691W        W69899  20.093   5.353  11.067
 5692W        W69900  35.567  17.682   3.279
 5693W        W69901  44.272  17.183  13.511
 5694W        W69902  37.990  27.091  14.350
 5695W        W69903   2.961   7.798   3.201
 5696W        W69904  11.184  11.253  13.475
 5697W        W69905   9.730  40.428   3.639
 5698W        W69906  10.298   8.858   3.746
 5699W        W69907   9.239  12.135   0.278
 5700W        W69908  25.175  29.461   1.741
 5701W        W69909  31.958  43.838   2.686
 5702W        W69910  21.246  44.882  11.583
 5703W        W69911  44.776  28.545   5.766
 5704W        W69912  39.846   2.876   0.440
 5705W        W69913  35.053   7.330   0.790
 5706W        W69914  25.627  23.069  11.898
 5707W        W69915  31.152  17.762   1.749
 5708W        W69916  23.666  35.591   3.646
 5709W        W69917  40.875  32.580   4.682
 5710W        W69918  44.849  31.003   2.771
 5711W        W69919  41.395  25.551  11.408
 5712W        W69920   2.722   5.361   1.894
 5713W        W69921  29.060  29.100  14.512
 5714W        W69922   6.888  11.727   3.726
 5715W        W69923  27.942  24.095  12.489
 5716W        W69924  31.457  31.953  13.939
 5717W        W69925  31.947  11.629  10.521
 5718W        W69926   4.424  31.902  14.826
 5719W        W69927  34.967   8.183  13.350
 5720W        W69928  14.332   3.765   1.934
 5721W        W69929  13.743   3.799   4.204
 5722W        W69930   5.807   8.169   1.330
 5723W        W69931  13.293   8.667   4.685
 5724W        W69932   7.379   7.910   1.814
 5725W        W69933  21.752  18.720   0.837
 5726W        W69934  34.941  29.447   0.877
 5727W        W69935  15.656   8.405  14.879
 5728W        W69936  41.514   1.247   1.220
 5729W        W69937  23.178   6.812  12.948
 5730W        W69938  23.111  19.704   0.277
 5731W        W69939  30.149  42.983  12.912
 5732W        W69940  28.534  16.310  14.489
 5733W        W69941  27.553  13.701  14.775
 5734W        W69942  17.297  29.474  11.374
 5735W        W69943  12.651  30.419   4.754
 5736W        W69944  32.601  28.976   2.662
 5737W        W69945   4.719   4.939  12.994
 5738W        W69946   0.984  37.437  14.913
 5739W        W69947  17.179  13.828   3.232
 5740W        W69948  18.771  20.268  11.572
 5741W        W69949  43.929  30.087  12.512
 5742W        W69950  13.257   4.706  13.811
 5743W        W69951  44.455  39.381  12.478
 5744W        W69952   2.852   2.321  10.938
 5745W        W69953  24.704  18.057   3.149
 5746W        W69954   2.290   6.915   0.355
 5747W        W69955   3.453  24.981  10.109
 5748W        W69956  17.592  43.941   0.374
 5749W        W69957  27.034  17.142  14.307
 5750W        W69958  43.353  37.529  14.423
 5751W        W69959  16.595  44.809   1.918
 5752W        W69960  32.474  40.982   4.341
 5753W        W69961  40.930  41.812  11.379
 5754W        W69962  34.957  11.778   0.943
 5755W        W69963  29.515  41.292  14.915
 5756W        W69964  41.334  36.575  13.394
 5757W        W69965  21.089   5.745  12.403
 5758W        W69966  36.541   3.398  12.092
 5759W        W69967  14.720  43.303   3.715
 5760W        W69968  17.611  44.395   4.629
 5761W        W69969   2.231  13.202   2.751
 5762W        W69970   0.360  32.632   3.841
 5763W        W69971  40.533  10.792   1.237
 5764W        W69972   0.485   9.239   0.477
 5765W        W69973  34.378  14.337   2.387
 5766W        W69974   0.795  29.624  14.870
 5767W        W69975  39.347  16.608  14.793
 5768W        W69976  25.025  37.079  10.562
 5769W        W69977  11.653  30.437  14.477
 5770W        W69978  35.072  26.028   3.313
 5771W        W69979  37.852  25.162  12.540
 5772W        W69980  42.443   6.391  13.389
 5773W        W69981  38.366  28.146  10.977
 5774W        W69982  31.468   2.406  14.495
 5775W        W69983  30.042   9.755   0.270
 5776W        W69984  40.508  34.990   4.246
 5777W        W69985   2.402  36.441  10.412
 5778W        W69986  15.620  22.031   2.184
 5779W        W69987  43.906   1.345   2.734
 5780W        W69988  27.124  26.683  12.449
 5781W        W69989  12.286  40.923  11.480
 5782W        W69990  24.982  37.917   1.315
 5783W        W69991  42.441  44.008  14.447
 5784W        W69992  10.353  28.664   1.286
 5785W        W69993  43.939  41.941  11.097
 5786W        W69994   5.865  13.224   3.323
 5787W        W69995   2.355  31.541   1.715
 5788W        W69996  41.015  12.163  13.943
 5789W        W69997  20.185  42.406  14.821
 5790W        W69998  21.643   9.659   1.373
 5791W        W69999  14.210  37.015   3.352
 5792W        W70000  44.841  16.801   2.241
 5793W        W70001  37.365  22.652  11.584
 5794W        W70002  14.630  31.418   0.439
 5795W        W70003  44.415  25.587   3.632
 5796W        W70004  19.060  33.062  13.451
 5797W        W70005  40.860   5.335   4.349
 5798W        W70006  25.975  13.170  14.023
 5799W        W70007   7.758  21.085   2.809
 5800W        W70008   8.747  10.878   3.707
 5801W        W70009  23.636   7.904  11.092
 5802W        W70010  28.129   5.909  14.359
 5803W        W70011  43.365   0.257  12.355
 5804W        W70012   5.377  43.283  13.830
 5805W        W70013  34.555  36.548  11.081
 5806W        W70014  38.047  29.968  14.973
 5807W        W70015  27.189  34.075   2.774
 5808W        W70016  34.565  32.031  13.448
 5809W        W70017  20.189  22.534   2.191
 5810W        W70018   2.391  23.551   4.300
 5811W        W70019  23.536  44.924  12.474
 5812W        W70020  42.885   2.349  14.364
 5813W        W70021  28.518  24.993   3.763
 5814W        W70022  30.430   1.372  13.449
 5815W        W70023  23.230  18.108   4.828
 5816W        W70024  26.089  40.950  12.959
 5817W        W70025  21.133  19.251   2.394
 5818W        W70026  41.929   1.410   2.826
 5819W        W70027   2.270  22.075  13.417
 5820W        W70028  32.504   5.721   0.921
 5821W        W70029  36.457  21.236   2.255
 5822W        W70030   7.391   9.310   0.912
 5823W        W70031  32.015   4.718  11.389
 5824W        W70032  21.716  34.430   4.313
 5825W        W70033  15.764  27.579  12.907
 5826W        W70034  37.576  34.004  14.911
 5827W        W70035  32.909  42.011  13.484
 5828W        W70036  36.946  42.407   0.932
 5829W        W70037  37.554  28.982  10.941
 5830W        W70038  31.595  22.183  11.111
 5831W        W70039  40.912  32.895   2.836
 5832W        W70040   3.358  39.908   1.703
 5833W        W70041  44.767   7.357   0.471
 5834W        W70042  33.498  21.605   3.366
 5835W        W70043  42.784  24.601  11.891
 5836W        W70044   7.174  25.560   4.773
 5837W        W70045  27.055  23.092  10.935
 5838W        W70046  36.055  32.448   3.296
 5839W        W70047  16.690  21.224   0.816
 5840W        W70048  14.674   2.801   3.348
 5841W        W70049  27.196  14.645   1.701
 5842W        W70050  17.690  34.509  11.927
 5843W        W70051  17.575   2.296   2.676
 5844W        W70052  13.794  15.147   0.875
 5845W        W70053  37.831   9.388   3.633
 5846W        W70054   0.252  16.580   4.768
 5847W        W70055  12.632  26.186  11.911
 5848W        W70056  43.994  30.020  14.427
 5849W        W70057  12.739  20.529   3.800
 5850W        W70058   1.962  37.945   0.876
 5851W        W70059  12.773  30.514   1.751
 5852W        W70060  42.509  18.644   3.804
 5853W        W70061  44.298  23.170   3.663
 5854W        W70062  25.144  31.460  11.125
 5855W        W70063  17.176  16.199   2.709
 5856W        W70064  29.477  38.466  12.085
 5857W        W70065  37.569   4.286   4.702
 5858W        W70066   6.749   1.884   0.354
 5859W        W70067  20.612  40.055  11.453
 5860W        W70068  23.020  10.315  14.845
 5861W        W70069  22.732  42.794   1.226
 5862W        W70070  11.182   0.344   4.775
 5863W        W70071  10.204  34.871   5.109
 5864W        W70072  11.633  32.520  12.997
 5865W        W70073  26.517   6.744   4.273
 5866W        W70074  28.156  13.220   1.432
 5867W        W70075  42.430  16.793   4.816
 5868W        W70076  16.629  15.186  13.882
 5869W        W70077  44.858  31.151   3.850
 5870W        W70078  12.286  29.434   0.288
 5871W        W70079  42.494   0.761   0.468
 5872W        W70080  15.271  16.154   2.871
 5873W        W70081  43.276  26.470   0.429
 5874W        W70082  42.869   5.295  11.471
 5875W        W70083   4.880   7.287   2.416
 5876W        W70084  27.511  38.959   2.412
 5877W        W70085  18.160  32.528   2.221
 5878W        W70086  27.985  16.800   4.795
 5879W        W70087  21.530  21.262  13.513
 5880W        W70088  19.094  18.577  12.502
 5881W        W70089  30.543   5.380   1.340
 5882W        W70090  40.809  26.041  12.359
 5883W        W70091  19.252  24.597  14.800
 5884W        W70092  33.880  25.972  10.506
 5885W        W70093  39.461  20.544  11.089
 5886W        W70094  14.697  18.786  11.419
 5887W        W70095  31.903  41.449   1.906
 5888W        W70096   3.315   6.275  14.890
 5889W        W70097   8.320   7.258  10.451
 5890W        W70098  23.674  42.333   0.758
 5891W        W70099   2.853  42.987   2.885
 5892W        W70100  44.316  11.699   0.246
 5893W        W70101   7.346  41.916  14.312
 5894W        W70102  13.694   8.258  13.514
 5895W        W70103  44.426   6.242   0.756
 5896W        W70104   6.340  17.190  13.540
 5897W        W70105  38.443   5.231   2.850
 5898W        W70106  43.387   0.494  13.011
 5899W        W70107  44.482   7.272   1.746
 5900W        W70108  43.810  36.439  14.301
 5901W        W70109   6.321  26.579  13.815
 5902W        W70110  24.121   0.975   0.422
 5903W        W70111  24.046   1.811  13.879
 5904W        W70112  14.596  21.204   4.274
 5905W        W70113  21.248  13.170  11.504
 5906W        W70114  25.116  11.775  12.554
 5907W        W70115  18.562   5.224   2.789
 5908W        W70116   4.743  20.709   4.311
 5909W        W70117  28.642  39.944  11.025
 5910W        W70118  14.721  37.964  12.969
 5911W        W70119   4.813  14.122   3.678
 5912W        W70120  37.991  14.774  11.540
 5913W        W70121  15.649   3.827  12.492
 5914W        W70122   2.443   5.891   0.310
 5915W        W70123  38.944  40.833   4.191
 5916W        W70124  21.564  21.168  12.898
 5917W        W70125  41.506   1.376   4.227
 5918W        W70126  33.479  27.512  13.526
 5919W        W70127  17.713  30.548  11.553
 5920W        W70128  17.102   0.822  13.479
 5921W        W70129   2.879  32.464  12.415
 5922W        W70130   0.461  25.172  13.450
 5923W        W70131  16.630  19.680  10.443
 5924W        W70132  34.079  15.305   0.400
 5925W        W70133  19.596  24.043  12.981
 5926W        W70134  22.019  16.287   4.755
 5927W        W70135   4.333   7.768  11.536
 5928W        W70136  30.496  22.655   4.780
 5929W        W70137  23.993  43.366   2.403
 5930W        W70138  14.319  11.815  14.318
 5931W        W70139  17.571  35.037   1.307
 5932W        W70140  44.877   2.729   2.271
 5933W        W70141  15.289  44.415  10.594
 5934W        W70142  11.732  24.708   3.674
 5935W        W70143  17.221  22.080   2.259
 5936W        W70144  24.703   6.699   4.680
 5937W        W70145  39.356  33.497  12.446
 5938W        W70146  20.150  19.182  11.885
 5939W        W70147  43.513  35.485  12.380
 5940W        W70148  23.039  17.559  14.015
 5941W        W70149  38.543  33.034  12.526
 5942W        W70150  33.930  29.971  14.402
 5943W        W70151  25.712  12.348   4.794
 5944W        W70152  10.317  14.765   2.768
 5945W        W70153  31.988  37.994  12.907
 5946W        W70154  24.075  40.374   2.716
 5947W        W70155  13.706   7.307   1.922
 5948W        W70156  42.508  39.458  10.512
 5949W        W70157  25.099  12.789  13.340
 5950W        W70158   1.393   5.222   1.362
 5951W        W70159  32.596  20.045  11.528
 5952W        W70160  11.146   2.852  12.439
 5953W        W70161  16.744  31.083   3.330
 5954W        W70162  41.982  21.683   0.481
 5955W        W70163  29.507  28.184   4.256
 5956W        W70164  15.265  29.036  10.986
 5957W        W70165  12.750  20.074   4.350
 5958W        W70166  39.361  25.134  10.470
 5959W        W70167   8.805  26.591   4.819
 5960W        W70168  17.290   7.370   1.811
 5961W        W70169  10.361   3.929   0.259
 5962W        W70170  11.859  11.718   4.813
 5963W        W70171  42.825  34.083  12.873
 5964W        W70172  36.480  37.401   0.323
 5965W        W70173  34.895  27.596  12.525
 5966W        W70174  20.707  33.912  14.336
 5967W        W70175  37.413   4.765  10.534
 5968W        W70176  12.217  38.529  11.047
 5969W        W70177  34.950  39.517   3.714
 5970W        W70178  42.339  43.788  13.940
 5971W        W70179  24.101  24.129  14.923
 5972W        W70180  10.164  38.964  12.965
 5973W        W70181  23.043   6.836   4.657
 5974W        W70182  31.098   1.402  11.076
 5975W        W70183  19.775  22.519   1.802
 5976W        W70184   2.960  35.359   3.332
 5977W        W70185  15.689  22.640   4.765
 5978W        W70186   6.838   6.331   3.268
 5979W        W70187   4.252  17.599   1.912
 5980W        W70188  10.747  29.020  13.048
 5981W        W70189  34.100  34.074   4.682
 5982W        W70190  17.682   2.820  12.409
 5983W        W70191   6.900  27.558  14.901
 5984W        W70192  20.223  35.507  11.086
 5985W        W70193  21.241  22.138   3.796
 5986W        W70194  44.303  18.244  14.454
 5987W        W70195  34.543  39.406  14.317
 5988W        W70196  26.677  16.266   1.703
 5989W        W70197  22.118   8.265  13.460
 5990W        W70198  33.564  25.155  14.475
 5991W        W70199  30.140  29.013   1.834
 5992W        W70200  11.246  31.103   3.693
 5993W        W70201  41.422  31.611  14.286
 5994W        W70202  42.365  11.262   0.329
 5995W        W70203   9.734   7.667  11.415
 5996W        W70204  33.052  42.298  14.000
 5997W        W70205  16.211  42.800   2.679
 5998W        W70206  39.905   6.866  11.399
 5999W        W70207   7.204  33.395  14.819
 6000W        W70208   5.806  28.613   2.298
 6001W        W70209  30.627  26.049   3.270
 6002W        W70210   9.276  36.943   0.330
 6003W        W70211  34.950  14.309   3.766
 6004W        W70212  11.191  44.341  13.381
 6005W        W70213  24.479  40.962   4.660
 6006W        W70214  12.738  22.700   1.393
 6007W        W70215  20.147  29.666  11.404
 6008W        W70216  18.591  34.036  12.009
 6009W        W70217  12.337  30.449  12.982
 6010W        W70218  25.640  31.593  11.070
 6011W        W70219  13.825  35.960  14.344
 6012W        W70220   3.915   8.659   2.334
 6013W        W70221  20.211  20.258   4.800
 6014W        W70222  21.248  23.047  13.896
 6015W        W70223   1.875  35.429  13.814
 6016W        W70224   0.917  16.656  13.041
 6017W        W70225  23.026   6.825   2.378
 6018W        W70226  40.919   2.750  14.023
 6019W        W70227  37.359  21.529   3.167
 6020W        W70228  26.612  10.748   2.242
 6021W        W70229   1.899  42.872  12.481
 6022W        W70230  39.954  42.853   1.825
 6023W        W70231   3.354   9.771  14.951
 6024W        W70232  10.769  12.652   3.188
 6025W        W70233  26.976   2.935  13.490
 6026W        W70234  38.864  43.404  13.931
 6027W        W70235  43.512   0.767  13.370
 6028W        W70236  43.416  31.953   4.258
 6029W        W70237  40.816  27.060   1.898
 6030W        W70238  28.021  32.002   4.609
 6031W        W70239   5.430   5.847  13.901
 6032W        W70240  16.683  25.566   0.903
 6033W        W70241  35.875   0.473   2.225
 6034W        W70242  11.241  19.177  14.470
 6035W        W70243  21.150  31.077   5.198
 6036W        W70244  35.384   6.380  12.578
 6037W        W70245  31.595  34.509   3.340
 6038W        W70246   8.276  17.245  13.018
 6039W        W70247   6.793  14.300  13.325
 6040W        W70248   7.372  16.717  12.077
 6041W        W70249   9.157  44.757   2.227
 6042W        W70250  40.435  42.999   0.796
 6043W        W70251  21.230  28.532  10.456
 6044W        W70252  35.385  37.002   0.847
 6045W        W70253  43.942  15.288   2.326
 6046W        W70254  28.608  33.037   2.736
 6047W        W70255   6.693   8.164   1.792
 6048W        W70256  18.752  40.998   0.284
 6049W        W70257   6.847  39.485   2.322
 6050W        W70258   6.828  42.017  13.799
 6051W        W70259  40.523  15.266  13.924
 6052W        W70260   8.867  12.183  13.421
 6053W        W70261  26.144  35.384  12.505
 6054W        W70262  10.197  29.109  14.030
 6055W        W70263   2.948  17.072   1.835
 6056W        W70264  19.146   1.838   0.813
 6057W        W70265  16.777   5.812  13.005
 6058W        W70266  28.462  34.953  12.029
 6059W        W70267   6.323  16.205  14.470
 6060W        W70268  11.755  17.113   4.788
 6061W        W70269  21.213  24.060   4.695
 6062W        W70270  10.730  44.910  14.962
 6063W        W70271   1.399   3.434  11.551
 6064W        W70272   5.258  13.337  11.099
 6065W        W70273  33.088  22.165  12.875
 6066W        W70274  22.501   3.794  12.967
 6067W        W70275  43.441   4.414  13.046
 6068W        W70276  14.298  30.013   1.757
 6069W        W70277  27.589  38.020   1.825
 6070W        W70278  17.271  26.507  14.377
 6071W        W70279  24.181  37.568  13.000
 6072W        W70280  29.039   7.234  12.037
 6073W        W70281  27.606  20.666  10.596
 6074W        W70282  25.509  33.465   0.363
 6075W        W70283  22.649  20.270  13.376
 6076W        W70284  29.518  17.126   3.702
 6077W        W70285  30.982  36.004   4.258
 6078W        W70286   0.798  16.150  13.535
 6079W        W70287  34.897  44.820   4.245
 6080W        W70288  39.017   1.974   2.381
 6081W        W70289  32.408   0.951   2.257
 6082W        W70290  40.048  16.707  14.323
 6083W        W70291  38.507   1.733  14.449
 6084W        W70292  44.874  24.605  12.518
 6085W        W70293  10.794  34.889  13.005
 6086W        W70294  10.196  35.570   5.140
 6087W        W70295   9.789   1.762   0.786
 6088W        W70296  28.152  28.639   4.766
 6089W        W70297   4.835  35.903   5.114
 6090W        W70298  15.659  39.325   1.765
 6091W        W70299   0.441  18.608   0.933
 6092W        W70300  31.450  14.592  12.339
 6093W        W70301  21.739  37.515  13.485
 6094W        W70302  35.393  43.390  13.406
 6095W        W70303  26.474  35.009   3.778
 6096W        W70304   9.770  34.410   2.892
 6097W        W70305  39.904  18.660  11.421
 6098W        W70306  26.202   3.854  13.877
 6099W        W70307  29.974  19.194  13.849
 6100W        W70308  41.881  29.593   2.200
 6101W        W70309   0.280  11.863  13.376
 6102W        W70310   5.845   7.319   1.231
 6103W        W70311  28.594  20.674  12.874
 6104W        W70312  38.954  20.743   1.827
 6105W        W70313   9.646  18.665  10.971
 6106W        W70314   4.236  12.737   2.305
 6107W        W70315  22.239   9.347   0.836
 6108W        W70316  38.845  12.168   2.218
 6109W        W70317  24.522  30.425  10.945
 6110W        W70318  24.591  17.784  14.793
 6111W        W70319   1.359  43.910   3.821
 6112W        W70320  24.178  14.606  14.981
 6113W        W70321  24.583  15.665   4.686
 6114W        W70322  38.537  22.243  10.434
 6115W        W70323  24.529  10.831   3.732
 6116W        W70324  37.964  28.466  13.911
 6117W        W70325  37.944   4.314   1.731
 6118W        W70326  26.631   3.440   3.673
 6119W        W70327  25.495  29.668  11.610
 6120W        W70328  14.329  37.867   3.687
 6121W        W70329   8.853  23.152   4.711
 6122W        W70330   8.691  34.946  12.358
 6123W        W70331   2.386  27.192   3.690
 6124W        W70332   2.749  12.261  14.897
 6125W        W70333  26.012  26.071   3.782
 6126W        W70334   3.788   1.445  10.893
 6127W        W70335  42.394   2.763  12.473
 6128W        W70336  33.918   9.330   4.298
 6129W        W70337   4.306  20.152  14.313
 6130W        W70338  21.675  38.398  12.486
 6131W        W70339  12.795   1.894   4.272
 6132W        W70340  34.867  30.939  13.489
 6133W        W70341  22.513   6.805  13.976
 6134W        W70342  30.011  22.628  10.887
 6135W        W70343  16.272  43.952  14.864
 6136W        W70344  20.741  32.897   2.341
 6137W        W70345  15.807  39.463   3.689
 6138W        W70346   6.359   3.338   0.355
 6139W        W70347   7.805   6.199  14.005
 6140W        W70348  44.325  24.677  10.118
 6141W        W70349  42.428  21.172   1.391
 6142W        W70350  24.538  44.347  10.924
 6143W        W70351  23.064   0.415   3.761
 6144W        W70352  35.970  10.665  14.776
 6145W        W70353  36.506  42.985  11.871
 6146W        W70354  21.022   6.406   0.897
 6147W        W70355  28.512  12.338   3.214
 6148W        W70356   7.192   4.756   0.281
 6149W        W70357  13.646  15.092   3.641
 6150W        W70358  43.467  28.951  14.972
 6151W        W70359  37.932  40.544  14.496
 6152W        W70360  40.033  10.164  14.776
 6153W        W70361  41.509  20.160  14.993
 6154W        W70362  15.683  39.447  14.015
 6155W        W70363  22.053   7.788   5.138
 6156W        W70364   6.839   2.331  12.357
 6157W        W70365  38.921  24.018   3.813
 6158W        W70366  34.963   0.291   4.203
 6159W        W70367  44.902  38.891   0.737
 6160W        W70368  33.883  30.117  13.808
 6161W        W70369  41.535   4.331  13.799
 6162W        W70370  27.545   4.713   4.173
 6163W        W70371  26.128  28.156  11.056
 6164W        W70372  35.937   4.214   0.399
 6165W        W70373  34.044  29.528  14.385
 6166W        W70374  30.515  23.727   1.789
 6167W        W70375  44.969  27.567   0.275
 6168W        W70376  12.287  10.371   1.292
 6169W        W70377  29.543  10.760   2.247
 6170W        W70378  30.454  29.048   0.835
 6171W        W70379  37.973  10.308  10.585
 6172W        W70380  11.219  26.570  14.450
 6173W        W70381  36.030  15.120  13.806
 6174W        W70382  11.298  25.580  14.340
 6175W        W70383  14.832   1.955   4.629
 6176W        W70384   1.804  19.712   3.270
 6177W        W70385   2.728   1.426   2.812
 6178W        W70386  41.848  15.171   0.727
 6179W        W70387  18.691  36.904  10.963
 6180W        W70388  19.618  11.294  12.451
 6181W        W70389  18.219  21.247  13.443
 6182W        W70390  19.121  10.246   3.717
 6183W        W70391  33.041  34.896  14.275
 6184W        W70392  26.014   9.310  11.937
 6185W        W70393   6.341   8.872  10.904
 6186W        W70394  31.147   7.842  11.040
 6187W        W70395  12.309  35.853   2.776
 6188W        W70396  10.720  19.660  11.961
 6189W        W70397   2.912  15.690   0.907
 6190W        W70398  11.749  38.484   2.832
 6191W        W70399   8.180   9.148  12.508
 6192W        W70400   8.664  33.945   0.836
 6193W        W70401  29.042  39.913   0.372
 6194W        W70402   9.339  36.871  13.898
 6195W        W70403  37.352  15.744   2.714
 6196W        W70404  37.907  14.097   0.252
 6197W        W70405  37.051  37.927   3.747
 6198W        W70406  29.522   4.880  12.459
 6199W        W70407  15.220   6.333  13.427
 6200W        W70408  22.590  21.734   3.854
 6201W        W70409  42.794  13.661  11.532
 6202W        W70410  34.867  25.141  12.930
 6203W        W70411  19.119   9.801   4.639
 6204W        W70412  41.839  35.931  14.287
 6205W        W70413   7.692  28.980   4.231
 6206W        W70414  29.547  13.766   1.365
 6207W        W70415  21.044  18.775   0.966
 6208W        W70416  14.817  26.066   2.247
 6209W        W70417  21.186  30.153  11.059
 6210W        W70418  37.902   4.698   1.215
 6211W        W70419  32.511  42.930  13.910
 6212W        W70420  26.525   0.856   4.630
 6213W        W70421  23.090   6.870   0.372
 6214W        W70422  33.009  41.311  12.360
 6215W        W70423  22.535  32.410   1.755
 6216W        W70424  24.586  34.097   1.916
 6217W        W70425   5.320  25.530   0.859
 6218W        W70426  19.093   3.439   9.964
 6219W        W70427   1.401  43.501  12.402
 6220W        W70428  42.373  40.812   2.728
 6221W        W70429  44.342  32.994   3.677
 6222W        W70430  31.086  28.058   3.870
 6223W        W70431  10.204  30.541   5.081
 6224W        W70432   5.254  14.752   2.295
 6225W        W70433   8.390  16.674  11.588
 6226W        W70434  41.466  37.412   1.729
 6227W        W70435  21.522   3.398  12.993
 6228W        W70436  22.227  27.589  13.406
 6229W        W70437  30.100   8.219   0.413
 6230W        W70438  31.967  38.333  14.959
 6231W        W70439  33.048  29.047   0.383
 6232W        W70440  44.810  27.513   2.862
 6233W        W70441  36.506  20.672   4.204
 6234W        W70442  39.449  19.277   5.205
 6235W        W70443  18.758  33.448   4.758
 6236W        W70444  11.317  14.766  11.567
 6237W        W70445  39.557  44.493  14.282
 6238W        W70446   7.305  34.006   0.804
 6239W        W70447  35.087   3.855   0.296
 6240W        W70448  44.876  22.606   3.287
 6241W        W70449   8.349  34.911  14.339
 6242W        W70450   0.362  17.257  11.118
 6243W        W70451  12.823  38.474   2.707
 6244W        W70452  34.440  25.561   0.823
 6245W        W70453  34.906  40.512  11.397
 6246W        W70454  39.372   5.396   1.788
 6247W        W70455  26.101   8.171   2.830
 6248W        W70456  29.108  37.019   3.357
 6249W        W70457  27.635  26.577  14.343
 6250W        W70458  33.132  21.650  11.511
 6251W        W70459   4.774  17.691  11.590
 6252W        W70460   6.697  31.553   4.262
 6253W        W70461  31.456  38.471  12.539
 6254W        W70462   5.263  33.439  10.407
 6255W        W70463  35.052  13.808  14.862
 6256W        W70464  32.918  15.134  12.383
 6257W        W70465  28.492  25.201   4.152
 6258W        W70466  16.584  26.981   4.180
 6259W        W70467   2.854  11.154   2.197
 6260W        W70468  25.513  26.063   4.301
 6261W        W70469  16.246   8.354  11.494
 6262W        W70470   9.741  44.478   3.724
 6263W        W70471   5.756   2.766  13.321
 6264W        W70472   4.874  22.072   1.296
 6265W        W70473   7.742  33.040  11.035
 6266W        W70474   1.856   6.231  13.927
 6267W        W70475  36.949  27.539   4.128
 6268W        W70476  43.482  23.093  14.804
 6269W        W70477  11.216  19.702  13.064
 6270W        W70478   3.914  19.667  10.976
 6271W        W70479   3.928  29.445   1.240
 6272W        W70480  14.631  36.893  11.489
 6273W        W70481  12.294   7.191   4.121
 6274W        W70482  29.664   4.434  11.860
 6275W        W70483  39.023  25.007   1.892
 6276W        W70484  12.664  25.534  13.392
 6277W        W70485  19.183  14.775   4.344
 6278W        W70486  38.356  25.712   0.747
 6279W        W70487  45.000  42.499  11.440
 6280W        W70488   1.450  39.321   1.224
 6281W        W70489  19.145   3.949   0.392
 6282W        W70490  24.212   7.903   3.667
 6283W        W70491  20.601   6.367  10.942
 6284W        W70492  42.906  26.474  12.939
 6285W        W70493  27.178  11.169  14.501
 6286W        W70494  33.521  23.696  13.866
 6287W        W70495  16.297  43.009  12.541
 6288W        W70496  43.428  32.983  11.924
 6289W        W70497   3.736  44.486  10.899
 6290W        W70498  33.041  25.972   0.776
 6291W        W70499  23.043   2.319  12.974
 6292W        W70500  33.532  25.657  13.800
 6293W        W70501  20.659  14.800  11.070
 6294W        W70502  22.111  24.596  11.899
 6295W        W70503   4.415   3.754  10.459
 6296W        W70504  41.944  20.539  14.471
 6297W        W70505   1.781  44.843   0.325
 6298W        W70506  41.951   5.922   0.434
 6299W        W70507   9.764  23.195  13.064
 6300W        W70508  37.885  11.150   0.327
 6301W        W70509  42.294   9.816  10.894
 6302W        W70510  22.648  31.908  11.026
 6303W        W70511   6.920  27.977   1.866
 6304W        W70512  35.973  35.954  12.461
 6305W        W70513  16.687   6.881  14.436
 6306W        W70514  30.908  32.094   3.233
 6307W        W70515  30.426  15.238   1.707
 6308W        W70516  32.604  42.815  14.410
 6309W        W70517  15.760   2.923   3.844
 6310W        W70518  41.945  44.420   2.681
 6311W        W70519  25.551  24.505  13.529
 6312W        W70520  18.565  37.572  14.943
 6313W        W70521  44.408  32.120   0.855
 6314W        W70522   2.243   1.472  10.566
 6315W        W70523  43.953   8.724  10.552
 6316W        W70524  25.157   3.423  10.151
 6317W        W70525  35.958   4.789   0.905
 6318W        W70526  43.409   1.937   2.745
 6319W        W70527  40.922  41.522  13.040
 6320W        W70528  31.015  12.166  11.382
 6321W        W70529  22.106  44.330  11.426
 6322W        W70530   6.676  18.121  11.128
 6323W        W70531  23.572  21.678  14.781
 6324W        W70532   7.380  14.311  12.991
 6325W        W70533   3.870  10.853  10.516
 6326W        W70534  36.388  37.055  13.815
 6327W        W70535  38.853  15.292   1.384
 6328W        W70536   1.847  39.421  11.009
 6329W        W70537  33.518   5.736   3.270
 6330W        W70538  11.172  44.803  13.346
 6331W        W70539   8.772  31.550  10.434
 6332W        W70540   3.374  23.528  13.454
 6333W        W70541  27.676  43.410  12.885
 6334W        W70542  15.686  24.583   2.283
 6335W        W70543  17.265   1.930  14.445
 6336W        W70544  40.933  39.422   0.772
 6337W        W70545  44.323   7.308  12.561
 6338W        W70546  14.180   3.757   1.225
 6339W        W70547  29.661  15.234   1.224
 6340W        W70548  16.570  29.566   1.850
 6341W        W70549  41.026   9.280  12.543
 6342W        W70550  17.773  34.915   4.735
 6343W        W70551  12.333  34.994   4.663
 6344W        W70552  42.972  36.353  11.588
 6345W        W70553  15.685  12.767  14.835
 6346W        W70554   6.695  14.284   0.743
 6347W        W70555  35.513   8.715  11.127
 6348W        W70556  16.148  39.521   1.366
 6349W        W70557  16.248   6.377   1.337
 6350W        W70558  28.179  32.898  10.502
 6351W        W70559  33.972  34.938   2.678
 6352W        W70560   8.216  17.694   1.347
 6353W        W70561   6.862   4.357   0.765
 6354W        W70562  16.581  41.377   1.363
 6355W        W70563  15.251  22.516  13.846
 6356W        W70564  11.339  36.885  11.396
 6357W        W70565  40.054  12.714   3.656
 6358W        W70566  21.515   6.319  14.881
 6359W        W70567  33.578  38.906   4.803
 6360W        W70568  30.920  14.596   3.641
 6361W        W70569  37.414   8.695   2.323
 6362W        W70570   1.828   1.444  10.540
 6363W        W70571   0.751  12.725   3.331
 6364W        W70572  38.039   9.659   4.816
 6365W        W70573   2.952  29.616  14.809
 6366W        W70574   0.327   8.873  12.341
 6367W        W70575  10.732  25.191  12.937
 6368W        W70576  40.527  30.961   0.479
 6369W        W70577  32.412   6.298   4.271
 6370W        W70578   1.461   8.788  13.046
 6371W        W70579  26.195  13.735   4.329
 6372W        W70580  22.650  14.313   1.917
 6373W        W70581  43.271   6.239  12.948
 6374W        W70582  25.200   9.787  14.480
 6375W        W70583  23.150  29.108   2.902
 6376W        W70584  13.273  31.951  14.512
 6377W        W70585  32.499   7.806  11.431
 6378W        W70586  14.781  42.820  13.871
 6379W        W70587  44.770  36.453   1.289
 6380W        W70588  14.320  26.104  12.009
 6381W        W70589   6.846   8.867   2.282
 6382W        W70590  10.317  39.021  10.554
 6383W        W70591  38.431   7.357   4.175
 6384W        W70592   9.393  44.983  12.934
 6385W        W70593  39.459  30.139   3.723
 6386W        W70594  37.985   2.884  14.325
 6387W        W70595  26.626  16.079   4.157
 6388W        W70596  20.066  14.761   0.777
 6389W        W70597  35.578  26.970  13.953
 6390W        W70598  23.003   9.176  10.607
 6391W        W70599   6.825  22.505   2.320
 6392W        W70600  27.545  28.007   2.322
 6393W        W70601  28.528   9.332  14.897
 6394W        W70602  31.493   5.844   3.844
 6395W        W70603  15.818  25.644  14.032
 6396W        W70604  39.995  14.213  10.614
 6397W        W70605  39.419  11.259   1.400
 6398W        W70606  42.968   0.281   4.312
 6399W        W70607   2.869  20.667   2.694
 6400W        W70608  12.637  26.151   3.656
 6401W        W70609   9.222  14.166  12.923
 6402W        W70610   0.443   0.391   4.688
 6403W        W70611  21.697  24.671  14.325
 6404W        W70612  17.710  26.086  11.546
 6405W        W70613  25.972   0.349   1.730
 6406W        W70614  35.439  38.450  13.425
 6407W        W70615  11.160  42.382   4.337
 6408W        W70616   3.371  19.239  10.478
 6409W        W70617   5.325  21.201  13.492
 6410W        W70618  29.432  20.086   4.249
 6411W        W70619  23.555  41.504   2.779
 6412W        W70620  39.536   1.239   0.431
 6413W        W70621  20.112  14.212  11.460
 6414W        W70622  41.347   8.825   2.803
 6415W        W70623  36.444   1.884  13.925
 6416W        W70624  40.014  30.638   4.726
 6417W        W70625  31.580  21.119  12.455
 6418W        W70626  43.998  33.992  12.529
 6419W        W70627  41.458  35.095  12.885
 6420W        W70628  17.641  16.308   4.242
 6421W        W70629  37.875  25.546  11.384
 6422W        W70630  40.895  21.147  10.622
 6423W        W70631  23.693   1.291  12.486
 6424W        W70632  42.435  20.143   2.690
 6425W        W70633  16.721  28.184  12.386
 6426W        W70634  32.480   4.403   1.263
 6427W        W70635  38.454   8.850  14.881
 6428W        W70636  28.439  36.911   3.155
 6429W        W70637  29.156  16.192  13.496
 6430W        W70638  15.651   1.415  12.851
 6431W        W70639  31.941  40.835   2.796
 6432W        W70640  17.068  13.228  14.820
 6433W        W70641  33.419   3.890   0.831
 6434W        W70642  41.947  29.563  14.863
 6435W        W70643  32.937  44.770   4.303
 6436W        W70644  20.769  33.611   3.717
 6437W        W70645  35.047  43.924  11.578
 6438W        W70646  39.322  36.473   2.403
 6439W        W70647  32.010   3.352  13.347
 6440W        W70648  19.559  14.133  12.349
 6441W        W70649  30.036  23.563   3.281
 6442W        W70650  31.064  21.079   0.304
 6443W        W70651  11.746  16.636   0.421
 6444W        W70652   6.678  42.440  11.604
 6445W        W70653  44.919   7.838   3.219
 6446W        W70654  37.867  31.101   4.660
 6447W        W70655  41.837  13.201  11.065
 6448W        W70656  16.252  29.658  12.396
 6449W        W70657   6.288   1.424  12.942
 6450W        W70658   4.320  11.801  11.386
 6451W        W70659  38.916  28.039  14.501
 6452W        W70660  35.511  43.954   3.860
 6453W        W70661  17.265  16.715   4.711
 6454W        W70662  21.179  29.619  11.604
 6455W        W70663  16.625  42.418  13.471
 6456W        W70664  17.717   9.194   3.833
 6457W        W70665  18.701  36.976   2.846
 6458W        W70666  34.541  21.681  12.920
 6459W        W70667   1.452  17.567   3.187
 6460W        W70668  27.479  31.147  11.856
 6461W        W70669  31.625  35.890  12.065
 6462W        W70670  31.934  11.147  10.489
 6463W        W70671  20.617  42.428   3.859
 6464W        W70672  39.051  44.414   5.308
 6465W        W70673   8.725  42.936  13.544
 6466W        W70674  14.638  37.022  10.515
 6467W        W70675  33.391  18.091   4.164
 6468W        W70676   1.975  34.544  13.510
 6469W        W70677   1.421  11.708  13.528
 6470W        W70678  30.582   0.820   0.447
 6471W        W70679  41.431  24.209  12.856
 6472W        W70680  41.452  27.572  11.433
 6473W        W70681  16.239  39.382  13.034
 6474W        W70682  10.743  29.662   3.201
 6475W        W70683  11.675   8.877   4.625
 6476W        W70684  39.007  29.947  14.882
 6477W        W70685  40.453   0.443   4.350
 6478W        W70686  33.040  40.798  13.418
 6479W        W70687  23.572  19.609  14.870
 6480W        W70688   3.788  19.571  11.438
 6481W        W70689  19.049  20.153   2.774
 6482W        W70690   4.841  33.523   3.152
 6483W        W70691   7.296  16.208   3.376
 6484W        W70692   9.748  26.645   0.875
 6485W        W70693  40.876  19.040   2.387
 6486W        W70694  37.070   1.396   1.248
 6487W        W70695  31.419  25.966   2.742
 6488W        W70696  20.105  22.065  13.901
 6489W        W70697  24.067  42.903  14.281
 6490W        W70698  11.808  13.284   1.802
 6491W        W70699  13.214  42.998  11.964
 6492W        W70700   4.848  12.193   2.727
 6493W        W70701  26.088   5.807  10.582
 6494W        W70702  11.801  40.852  13.316
 6495W        W70703   0.929  12.235   2.866
 6496W        W70704  30.478  41.949   3.785
 6497W        W70705  18.568  28.590   4.821
 6498W        W70706  26.189  17.244   2.267
 6499W        W70707   9.687  11.129  11.523
 6500W        W70708  42.368   3.947  12.391
 6501W        W70709  16.716  27.570   1.730
 6502W        W70710  19.124   2.428   1.744
 6503W        W70711  26.971  36.906   0.336
 6504W        W70712  23.568  33.003  12.945
 6505W        W70713  38.394  14.677  11.580
 6506W        W70714  36.440  21.109  14.440
 6507W        W70715  28.150  30.610   4.196
 6508W        W70716   1.795  10.870  11.886
 6509W        W70717  37.905  44.966  13.409
 6510W        W70718  24.592  41.861   0.930
 6511W        W70719  29.628  18.150  13.984
 6512W        W70720  21.161  33.421  11.552
 6513W        W70721  31.546  28.594  12.966
 6514W        W70722  40.041  12.824   4.128
 6515W        W70723   4.223  14.188   1.763
 6516W        W70724  24.609  40.042  10.919
 6517W        W70725  26.459   7.194   0.788
 6518W        W70726   4.864   7.175   5.255
 6519W        W70727  16.289  28.068  10.051
 6520W        W70728  43.932  15.280  12.408
 6521W        W70729  24.544   8.301  11.500
 6522W        W70730  16.147   4.878  10.563
 6523W        W70731   7.768  22.607   3.726
 6524W        W70732   0.877  30.972   1.229
 6525W        W70733  27.526  37.086   2.232
 6526W        W70734  43.476  37.492  11.955
 6527W        W70735  19.057  37.885   0.418
 6528W        W70736  43.864  23.588  11.055
 6529W        W70737   7.842  17.683  13.020
 6530W        W70738  14.637  23.003  12.840
 6531W        W70739  11.181  24.207   0.915
 6532W        W70740  25.999  32.116  14.857
 6533W        W70741  31.530   9.244   4.302
 6534W        W70742  42.341  24.993   4.197
 6535W        W70743   2.870  30.032   3.382
 6536W        W70744  32.452  10.273  14.944
 6537W        W70745  10.653  43.508  11.880
 6538W        W70746   3.306  40.467   5.115
 6539W        W70747  21.674  29.461  14.014
 6540W        W70748   3.365  21.714   3.310
 6541W        W70749   1.405  43.445   0.477
 6542W        W70750  34.528  19.728   3.869
 6543W        W70751  14.733   7.892   0.963
 6544W        W70752  11.819   5.896   2.763
 6545W        W70753  41.476  14.766  10.464
 6546W        W70754  23.723  11.685  14.030
 6547W        W70755   4.723   0.835   5.081
 6548W        W70756   5.205  38.541   0.395
 6549W        W70757  29.461  22.075   2.774
 6550W        W70758   1.875  21.608  14.974
 6551W        W70759   7.187   5.409   2.361
 6552W        W70760   6.686  11.868  10.923
 6553W        W70761   7.315  41.836   2.860
 6554W        W70762  18.764  20.213  12.426
 6555W        W70763  14.680  20.586   3.343
 6556W        W70764   6.427   2.373   2.828
 6557W        W70765  32.637  13.745   9.953
 6558W        W70766  16.310  24.995   2.297
 6559W        W70767  15.780  34.472   2.354
 6560W        W70768  39.524  23.082  12.909
 6561W        W70769  34.553   8.671   1.903
 6562W        W70770   4.399  39.549  12.028
 6563W        W70771  15.329  30.131   3.818
 6564W        W70772  42.476  41.009  13.031
 6565W        W70773   4.439  32.058   2.711
 6566W        W70774   1.393  37.978  12.853
 6567W        W70775  18.749  28.548  13.908
 6568W        W70776  14.198  10.715  12.990
 6569W        W70777  31.151  23.510   3.813
 6570W        W70778  25.036  27.526  12.414
 6571W        W70779   1.325  23.995   3.300
 6572W        W70780  17.189  35.949   1.697
 6573W        W70781  27.576  37.569   3.657
 6574W        W70782   2.774   0.905  10.416
 6575W        W70783  17.601  16.675   5.261
 6576W        W70784   7.249  44.300  12.959
 6577W        W70785  13.816   8.888  11.383
 6578W        W70786  23.083   1.745  13.395
 6579W        W70787  38.974   5.788   4.716
 6580W        W70788  33.070  41.510  13.312
 6581W        W70789   6.244  42.853  10.534
 6582W        W70790  36.545  43.914   4.222
 6583W        W70791  33.383  10.207   2.667
 6584W        W70792   8.710  44.367   4.677
 6585W        W70793  32.541  26.530   1.843
 6586W        W70794   4.900  14.834   5.220
 6587W        W70795  11.800   0.307  14.844
 6588W        W70796  20.549  25.149  12.409
 6589W        W70797  35.977  11.815  14.785
 6590W        W70798  16.127  14.280  11.514
 6591W        W70799   7.904  24.977  12.351
 6592W        W70800   6.890   5.843  10.902
 6593W        W70801   2.776  17.108   1.216
 6594W        W70802  10.271  10.704  12.498
 6595W        W70803  24.697  35.066   0.266
 6596W        W70804  40.987  12.277   2.396
 6597W        W70805   9.817   5.917   1.772
 6598W        W70806   3.891  22.706   3.183
 6599W        W70807  36.389  38.402   0.920
 6600W        W70808   8.755  37.561   0.478
 6601W        W70809  18.139  15.260   3.857
 6602W        W70810  11.686  32.442  11.962
 6603W        W70811  16.604  13.198  12.884
 6604W        W70812  14.803  25.040  12.972
 6605W        W70813  32.599  16.769   3.723
 6606W        W70814  24.068  29.971   2.666
 6607W        W70815  22.654  30.627  11.608
 6608W        W70816  10.180  36.570   0.481
 6609W        W70817  41.866  12.721   0.317
 6610W        W70818  23.238  28.442  13.052
 6611W        W70819  13.308  42.892  14.455
 6612W        W70820  31.419  18.202   2.208
 6613W        W70821  18.662  44.361  14.932
 6614W        W70822  25.212   4.331  11.372
 6615W        W70823   5.707   1.930  10.979
 6616W        W70824  40.951  13.137  13.430
 6617W        W70825  36.923  13.746  14.913
 6618W        W70826  34.566  18.706   1.254
 6619W        W70827  27.466  35.387  10.960
 6620W        W70828   9.663  38.822  10.465
 6621W        W70829  21.094  36.999  12.487
 6622W        W70830  20.717  11.241   2.844
 6623W        W70831  27.079   1.746  12.382
 6624W        W70832  18.692  30.422  11.377
 6625W        W70833  10.236  23.659  13.884
 6626W        W70834  34.593  29.066  11.981
 6627W        W70835  18.231  26.089   3.725
 6628W        W70836  15.808   4.337  12.516
 6629W        W70837  34.524  41.312   2.350
 6630W        W70838  26.097  40.021  11.092
 6631W        W70839  38.987   1.748   2.736
 6632W        W70840   0.926  11.830  12.390
 6633W        W70841  11.647   7.305   4.314
 6634W        W70842  15.689  30.944   4.699
 6635W        W70843   4.352  36.923   3.238
 6636W        W70844   3.416  34.431  11.942
 6637W        W70845   7.823  42.385   1.359
 6638W        W70846  39.028  14.278  10.641
 6639W        W70847  15.660   0.964  14.884
 6640W        W70848   7.833  23.070   1.312
 6641W        W70849   4.241  23.538   1.227
 6642W        W70850   8.852  42.934   2.178
 6643W        W70851  28.606   5.296  12.923
 6644W        W70852  36.353   1.804  12.928
 6645W        W70853   5.793  12.290  11.529
 6646W        W70854  20.701  17.684   2.383
 6647W        W70855  12.343  22.202  12.884
 6648W        W70856   2.964   9.249   2.784
 6649W        W70857   0.809  18.599  11.866
 6650W        W70858   6.885  19.620  11.119
 6651W        W70859  20.544  40.539   0.469
 6652W        W70860  40.984  34.996  11.483
 6653W        W70861  35.598  23.106  11.527
 6654W        W70862  33.910  12.149  11.122
 6655W        W70863   7.750  42.945  12.970
 6656W        W70864  26.175   2.809   4.245
 6657W        W70865  13.210  38.025   0.324
 6658W        W70866  23.650  11.226   0.276
 6659W        W70867   3.939  32.141  11.003
 6660W        W70868   1.324  41.843  12.569
 6661W        W70869  17.271   5.765  13.452
 6662W        W70870  37.973  18.195   1.799
 6663W        W70871  29.537  14.821  11.116
 6664W        W70872   6.228  27.559  11.872
 6665W        W70873   9.810  40.898  11.525
 6666W        W70874   3.425   7.297  12.908
 6667W        W70875   2.922  20.526  11.525
 6668W        W70876  32.893  44.348  11.435
 6669W        W70877  12.853  38.013   2.254
 6670W        W70878   7.403  39.909   0.412
 6671W        W70879   4.835  37.372   0.843
 6672W        W70880   8.664  19.131   4.165
 6673W        W70881   3.458  14.263   3.183
 6674W        W70882   9.683  37.080   2.409
 6675W        W70883  12.853   3.714  14.913
 6676W        W70884  21.720  22.020   0.740
 6677W        W70885  31.419  44.421  11.601
 6678W        W70886   8.382  13.792  14.773
 6679W        W70887  42.852  21.585  11.023
 6680W        W70888  31.125  12.174  13.541
 6681W        W70889  31.582   3.895   4.756
 6682W        W70890  14.101  32.095   2.327
 6683W        W70891   8.308  14.665  11.006
 6684W        W70892  21.538  20.609   4.144
 6685W        W70893  42.477  21.721   1.386
 6686W        W70894  25.623   7.189   0.265
 6687W        W70895  33.496  40.441   1.883
 6688W        W70896  10.151   7.729  10.983
 6689W        W70897  33.117  34.016   1.840
 6690W        W70898  39.808  27.147  12.949
 6691W        W70899  25.968  34.448  13.966
 6692W        W70900  22.695  18.128   2.843
 6693W        W70901  19.618  40.493   5.281
 6694W        W70902  28.645  17.289  14.943
 6695W        W70903   9.787  16.685  14.870
 6696W        W70904  24.137  19.232   2.226
 6697W        W70905  28.575  32.617  13.334
 6698W        W70906  43.460  11.682  12.519
 6699W        W70907  17.564  12.658   0.841
 6700W        W70908  36.579  42.942  13.819
 6701W        W70909  28.500  10.317   3.730
 6702W        W70910  17.256   4.235   1.393
 6703W        W70911  23.069  19.709  13.355
 6704W        W70912  25.656  17.279   1.389
 6705W        W70913   9.266  32.969   0.408
 6706W        W70914   0.312   7.192  11.964
 6707W        W70915  28.623  12.694   4.341
 6708W        W70916  18.145  44.806   3.190
 6709W        W70917   6.183   6.825   2.866
 6710W        W70918  26.520   4.906   3.665
 6711W        W70919   3.271  18.670   1.897
 6712W        W70920   0.351  35.953  12.446
 6713W        W70921  35.087   1.282  14.357
 6714W        W70922   1.312  41.471  13.509
 6715W        W70923   3.904  21.086   1.378
 6716W        W70924  13.716   3.860  12.965
 6717W        W70925  16.138   6.239   0.892
 6718W        W70926  40.882  26.543   3.361
 6719W        W70927  31.554  23.001   2.399
 6720W        W70928  20.747  14.253   3.749
 6721W        W70929   2.897   7.200   0.886
 6722W        W70930  28.643   0.875  12.937
 6723W        W70931  27.462  30.098   4.751
 6724W        W70932  41.363  10.865   1.698
 6725W        W70933  33.101  30.043  13.960
 6726W        W70934  33.900  17.577  11.464
 6727W        W70935   2.246   7.213   1.698
 6728W        W70936   0.766  36.888   1.878
 6729W        W70937  20.153   7.273   0.772
 6730W        W70938  15.624  14.654   1.354
 6731W        W70939   5.415  17.272   4.273
 6732W        W70940  31.427  15.782   3.701
 6733W        W70941  36.956  24.573   3.318
 6734W        W70942   8.673  41.822  12.018
 6735W        W70943  40.405  21.250  11.594
 6736W        W70944  43.965  43.377   3.791
 6737W        W70945  43.873  21.039   0.808
 6738W        W70946  12.152  37.343  10.476
 6739W        W70947  41.848  12.808   1.219
 6740W        W70948  17.784  40.821   3.255
 6741W        W70949  17.762  22.049   4.798
 6742W        W70950   0.809  17.264  10.484
 6743W        W70951  22.616  25.693  11.575
 6744W        W70952  36.903  26.041  14.828
 6745W        W70953  32.114  20.531   4.238
 6746W        W70954  13.837  13.756   0.918
 6747W        W70955  25.153  37.562   2.880
 6748W        W70956   0.786   1.370   5.095
 6749W        W70957  14.154  29.161  11.055
 6750W        W70958  33.520  42.439  14.007
 6751W        W70959  10.185  25.527   4.777
 6752W        W70960  42.776  42.321  12.958
 6753W        W70961   6.377   7.403   0.830
 6754W        W70962  23.032   3.309  12.081
 6755W        W70963   0.324   8.265   1.782
 6756W        W70964  16.140  13.628   0.912
 6757W        W70965  11.171  12.265   0.839
 6758W        W70966  12.186  37.836  12.004
 6759W        W70967  18.696   2.454  11.030
 6760W        W70968  34.019  31.613  11.533
 6761W        W70969  29.029  29.484   0.820
 6762W        W70970  29.082  16.696  12.084
 6763W        W70971  33.520  30.141   3.736
 6764W        W70972  15.672  33.917  11.535
 6765W        W70973  25.990  41.885   2.695
 6766W        W70974  12.156  11.785   0.478
 6767W        W70975   5.791  15.281   1.255
 6768W        W70976   9.181   5.377   1.435
 6769W        W70977  22.649  30.588   2.713
 6770W        W70978  15.094  19.120   1.770
 6771W        W70979   9.879  38.905  12.430
 6772W        W70980  41.896  33.052  14.929
 6773W        W70981  26.995   9.296  14.017
 6774W        W70982  24.076  22.184   3.179
 6775W        W70983   4.921  36.510   3.270
 6776W        W70984  40.893   4.846  12.895
 6777W        W70985  17.131  25.007   4.157
 6778W        W70986   0.802   2.324   2.295
 6779W        W70987  29.443   1.854  11.512
 6780W        W70988  35.399  43.934   1.370
 6781W        W70989  21.540  38.976  14.886
 6782W        W70990  12.736  20.676  14.841
 6783W        W70991  30.416  13.265   0.920
 6784W        W70992  37.016  31.006  13.965
 6785W        W70993  42.357  11.254   3.251
 6786W        W70994  10.696  37.501  14.801
 6787W        W70995   4.338   3.419  11.089
 6788W        W70996   4.744  27.625  10.606
 6789W        W70997   4.355  44.915   2.762
 6790W        W70998   5.907  37.384  13.820
 6791W        W70999  35.464   5.806  11.427
 6792W        W71000   8.242   5.396   4.118
 6793W        W71001  15.319   6.679   3.360
 6794W        W71002  17.126   2.443   4.659
 6795W        W71003  26.161  37.888   0.955
 6796W        W71004  10.704  23.671  12.446
 6797W        W71005  19.698  40.360  14.393
 6798W        W71006  40.521  27.471   3.313
 6799W        W71007  44.833  44.472  13.370
 6800W        W71008  22.702   6.208   1.913
 6801W        W71009   5.828  17.630   4.606
 6802W        W71010   9.732  43.404  14.391
 6803W        W71011  26.531  43.414  11.548
 6804W        W71012   4.236  36.525   3.735
 6805W        W71013  35.877  37.082   2.684
 6806W        W71014  24.054   3.732   4.728
 6807W        W71015  23.156  19.101   1.430
 6808W        W71016  30.004  31.130   0.888
 6809W        W71017  16.195   7.255  14.976
 6810W        W71018  20.081  20.229  12.934
 6811W        W71019  35.409  24.527   2.332
 6812W        W71020  25.093  22.604  11.928
 6813W        W71021   6.299  39.037   0.415
 6814W        W71022  18.064  42.001  14.483
 6815W        W71023  21.653  27.077  11.551
 6816W        W71024   1.940  40.311   4.652
 6817W        W71025  17.131  35.000   4.706
 6818W        W71026  18.746   6.859   0.397
 6819W        W71027  23.702  11.158   3.260
 6820W        W71028   8.273  36.534   4.653
 6821W        W71029   1.375  26.045  14.817
 6822W        W71030  39.845  37.507  11.998
 6823W        W71031  31.899  30.933  10.555
 6824W        W71032  16.313  14.604   2.376
 6825W        W71033   7.791  37.406  14.923
 6826W        W71034  41.966  33.060   3.280
 6827W        W71035  25.005  10.200   3.269
 6828W        W71036  32.118  33.502  10.160
 6829W        W71037  25.640  28.463   4.334
 6830W        W71038  28.476  20.258   0.247
 6831W        W71039  15.655  35.892  13.809
 6832W        W71040  29.667  30.937  11.034
 6833W        W71041  31.472  36.932  13.861
 6834W        W71042  15.664  23.659  14.286
 6835W        W71043   6.691  23.726   4.704
 6836W        W71044   1.769   4.773  12.452
 6837W        W71045   2.386  18.692   4.759
 6838W        W71046  19.667  38.402   4.228
 6839W        W71047   8.881   3.366  12.008
 6840W        W71048  20.526  32.526   2.267
 6841W        W71049  42.952  40.426   2.251
 6842W        W71050  34.035  44.843   4.655
 6843W        W71051  35.987  44.503   1.285
 6844W        W71052  43.961   8.284   1.275
 6845W        W71053  28.984  23.084  13.849
 6846W        W71054   9.735  14.699  10.492
 6847W        W71055  26.538  18.076   2.858
 6848W        W71056   9.767  41.958  13.799
 6849W        W71057  41.001  24.219  10.433
 6850W        W71058  32.007  30.643   2.376
 6851W        W71059   0.475   3.826  12.569
 6852W        W71060  18.232   8.273   4.739
 6853W        W71061  22.168  25.519  12.928
 6854W        W71062  20.750  21.137  12.405
 6855W        W71063  39.532  13.637   3.220
 6856W        W71064  33.614  11.707  11.023
 6857W        W71065   3.802  27.494  14.777
 6858W        W71066   1.388  29.459   1.399
 6859W        W71067  21.588  39.981  14.331
 6860W        W71068  11.298  35.373   1.851
 6861W        W71069  14.829  42.481  13.403
 6862W        W71070  37.576  18.755  12.979
 6863W        W71071  20.245  38.438  13.962
 6864W        W71072  29.652  19.566   0.254
 6865W        W71073  34.495  35.081   4.208
 6866W        W71074  30.618  25.579  14.355
 6867W        W71075  11.732  24.619   4.236
 6868W        W71076  20.551  23.085   1.331
 6869W        W71077  40.886  13.296   4.203
 6870W        W71078  38.539  20.562  11.380
 6871W        W71079  22.634   7.227  13.383
 6872W        W71080   3.810  20.754  11.988
 6873W        W71081  19.639  39.512   2.711
 6874W        W71082  30.958   2.896   2.415
 6875W        W71083  24.104  22.211  14.431
 6876W        W71084  10.230   4.270   1.265
 6877W        W71085  24.610   5.220  10.623
 6878W        W71086  32.100  34.967  11.433
 6879W        W71087  13.269  14.194  13.354
 6880W        W71088  23.545  17.697   2.314
 6881W        W71089  36.348  40.959  14.969
 6882W        W71090  40.967  35.398  11.015
 6883W        W71091  11.809  17.121  14.961
 6884W        W71092  15.120  36.549   0.443
 6885W        W71093   4.895  11.228   4.137
 6886W        W71094   8.855   7.860  13.375
 6887W        W71095  38.837  16.078   1.927
 6888W        W71096  27.183  23.043   4.795
 6889W        W71097  40.376  31.629  13.028
 6890W        W71098  21.591  43.310  11.582
 6891W        W71099   9.323   9.666   0.851
 6892W        W71100  26.635  25.038  12.348
 6893W        W71101  11.209  33.483  10.094
 6894W        W71102  20.250   7.749  14.368
 6895W        W71103   4.765   9.733  11.127
 6896W        W71104  28.088  35.406   2.361
 6897W        W71105  41.941  13.338  10.512
 6898W        W71106  42.904  44.374  14.384
 6899W        W71107  13.815   5.821  10.504
 6900W        W71108   1.922   1.455  11.100
 6901W        W71109  38.498   8.864  10.583
 6902W        W71110   0.264   7.299  10.529
 6903W        W71111  15.581   5.710  10.491
 6904W        W71112   7.885  38.551   3.676
 6905W        W71113  15.168  18.107   1.922
 6906W        W71114   8.752  33.017  12.041
 6907W        W71115  29.134  25.542  10.645
 6908W        W71116   7.678  42.370   0.792
 6909W        W71117  16.228  40.043  11.515
 6910W        W71118  36.018  23.138  11.859
 6911W        W71119  21.028   2.278   3.249
 6912W        W71120  13.266  11.769  14.989
 6913W        W71121  24.493  31.037   0.336
 6914W        W71122  38.549  38.851  13.313
 6915W        W71123  36.493   6.342   4.702
 6916W        W71124  12.768  28.546   0.851
 6917W        W71125  35.458  35.512   4.622
 6918W        W71126  36.063  16.307   0.399
 6919W        W71127  31.905   4.288   0.415
 6920W        W71128   8.724   6.696   1.702
 6921W        W71129   7.171  11.643  13.972
 6922W        W71130  40.343   1.431  14.924
 6923W        W71131   7.199  23.011  13.309
 6924W        W71132   4.356  24.704  14.444
 6925W        W71133  44.378   4.731   4.154
 6926W        W71134  18.063  43.974  14.491
 6927W        W71135  20.149  36.864  11.914
 6928W        W71136  14.835  11.295   3.751
 6929W        W71137  13.293  22.569  10.574
 6930W        W71138   6.247  10.374   4.171
 6931W        W71139  21.246  12.613   2.728
 6932W        W71140  34.527  25.532  10.449
 6933W        W71141   7.263   3.749   0.908
 6934W        W71142  21.126  19.100  12.418
 6935W        W71143  42.913  34.576   4.632
 6936W        W71144  28.164  18.633  13.967
 6937W        W71145  15.107  34.960   1.753
 6938W        W71146   1.346  40.313  12.911
 6939W        W71147  10.203  27.522  14.974
 6940W        W71148  34.376  38.997   3.679
 6941W        W71149  28.143   7.677   1.254
 6942W        W71150  19.284  43.794   4.650
 6943W        W71151  41.509  42.914  14.826
 6944W        W71152  26.991  16.079   0.736
 6945W        W71153  36.076   7.245  13.498
 6946W        W71154  29.955  35.893  12.403
 6947W        W71155  31.975  40.475  14.891
 6948W        W71156  41.965  37.079  14.923
 6949W        W71157  44.491  38.882   0.814
 6950W        W71158   7.323  23.583   2.671
 6951W        W71159  38.073  26.609   4.256
 6952W        W71160  37.052  30.509  13.328
 6953W        W71161   6.350   3.878   2.664
 6954W        W71162  28.079  23.016  12.906
 6955W        W71163  10.661  38.836  13.007
 6956W        W71164  29.514   8.369   4.805
 6957W        W71165  42.965  17.667   4.292
 6958W        W71166  27.168   5.236   2.407
 6959W        W71167   4.817   2.952  11.931
 6960W        W71168   4.701  34.023   5.128
 6961W        W71169   9.348   2.270  13.363
 6962W        W71170   4.311  11.287  11.454
 6963W        W71171   9.850  13.649   2.282
 6964W        W71172  17.773  42.013  14.780
 6965W        W71173  37.523  25.645   1.282
 6966W        W71174  32.944   4.700   1.381
 6967W        W71175   1.882   9.651   0.388
 6968W        W71176  34.048   8.777  13.997
 6969W        W71177  32.914  44.008   4.354
 6970W        W71178  29.453  44.329  10.504
 6971W        W71179   2.281   8.716   2.280
 6972W        W71180  39.999  17.209   0.276
 6973W        W71181  17.668  26.071  13.510
 6974W        W71182  34.949  20.045   1.913
 6975W        W71183   6.399  41.025   1.282
 6976W        W71184  39.871  10.284  13.019
 6977W        W71185  23.032  27.458  13.892
 6978W        W71186  32.997  19.204   3.712
 6979W        W71187  43.936   9.688  11.856
 6980W        W71188  37.066   5.240   0.942
 6981W        W71189  21.722   1.768  11.877
 6982W        W71190  25.988  37.408   0.426
 6983W        W71191  10.223  18.639   0.740
 6984W        W71192  20.240   1.297   1.229
 6985W        W71193   9.264  11.230  10.146
 6986W        W71194  26.510  24.623  10.632
 6987W        W71195  32.136  32.520   0.953
 6988W        W71196   0.278  19.165  10.577
 6989W        W71197  42.456   0.928  13.888
 6990W        W71198   7.185   8.350  12.848
 6991W        W71199   7.218  18.052  10.635
 6992W        W71200  31.503  31.569   0.343
 6993W        W71201  44.311   0.830  11.583
 6994W        W71202  17.627   3.731   3.790
 6995W        W71203  19.113  41.398   4.687
 6996W        W71204  14.676   2.466  12.075
 6997W        W71205  20.141  19.572   5.291
 6998W        W71206   3.374  36.857  14.345
 6999W        W71207  32.953   2.405  14.453
 7000W        W71208  19.735  26.474   4.603
 7001W        W71209  43.331  33.013  10.448
 7002W        W71210  44.324  30.016   0.421
 7003W        W71211   1.284  32.551   2.298
 7004W        W71212  33.045  20.572   4.126
 7005W        W71213  31.126  32.111  10.458
 7006W        W71214  43.958   8.742  13.490
 7007W        W71215  44.890  20.053   2.205
 7008W        W71216  17.221   9.832  11.452
 7009W        W71217   1.863  15.318   3.692
 7010W        W71218  16.245  42.517   1.259
 7011W        W71219   7.190  28.510  12.420
 7012W        W71220   0.459   2.740  11.928
 7013W        W71221  13.283   3.916  14.813
 7014W        W71222  21.653   8.864   3.229
 7015W        W71223  31.638  41.848   2.369
 7016W        W71224   7.268   1.892   2.388
 7017W        W71225  17.136  28.063   0.737
 7018W        W71226  23.567  30.555  12.430
 7019W        W71227  27.667  36.442  14.462
 7020W        W71228  15.151  31.117   1.448
 7021W        W71229   4.253  19.624  13.328
 7022W        W71230  21.106  16.263   5.738
 7023W        W71231  23.130  15.096  12.429
 7024W        W71232  40.313  12.326   1.292
 7025W        W71233  34.987  15.281   0.264
 7026W        W71234   4.251  11.265   4.200
 7027W        W71235  42.985  34.975  11.601
 7028W        W71236  22.586   1.907  14.452
 7029W        W71237  44.792  20.523  13.940
 7030W        W71238   6.254   6.233   2.772
 7031W        W71239   7.336  39.542  11.483
 7032W        W71240   8.254   2.357  13.865
 7033W        W71241  43.450  37.031   3.238
 7034W        W71242   4.891  36.570   2.746
 7035W        W71243  13.258  28.000   3.221
 7036W        W71244  27.151  32.129   4.707
 7037W        W71245   9.714  38.360  10.470
 7038W        W71246  43.492   3.396   2.343
 7039W        W71247  27.665   8.691   5.188
 7040W        W71248  42.308  21.650   2.676
 7041W        W71249   3.362  33.884  12.355
 7042W        W71250   6.426  24.161   0.436
 7043W        W71251   2.470  37.930  12.056
 7044W        W71252  20.152   5.291  14.813
 7045W        W71253  11.147  44.912  11.883
 7046W        W71254  41.424   0.751  14.399
 7047W        W71255  15.186  31.578  14.370
 7048W        W71256  29.125  26.197  11.075
 7049W        W71257  38.055  10.674  14.314
 7050W        W71258  43.952  22.710  10.640
 7051W        W71259  44.286  27.664  10.039
 7052W        W71260  10.744  36.089  13.908
 7053W        W71261  16.706  22.119  10.533
 7054W        W71262  43.333  22.161   4.187
 7055W        W71263  15.643   7.742  12.037
 7056W        W71264  19.091  36.050  13.941
 7057W        W71265  41.911  20.032  11.973
 7058W        W71266  19.107  15.607   2.872
 7059W        W71267  12.290   2.759  11.501
 7060W        W71268  31.543  27.049   2.861
 7061W        W71269  44.872  43.395   4.692
 7062W        W71270  11.235  38.032  13.871
 7063W        W71271  32.111  39.830   2.225
 7064W        W71272  26.000  41.876  12.340
 7065W        W71273  10.724   5.717   1.858
 7066W        W71274  23.208   4.713  13.037
 7067W        W71275  15.102  35.418  10.577
 7068W        W71276  31.121  20.733  10.627
 7069W        W71277  30.444  43.334   3.279
 7070W        W71278  36.848   3.914  11.035
 7071W        W71279   6.310  18.723   2.236
 7072W        W71280  37.848  11.682   0.358
 7073W        W71281  30.578   8.257  11.481
 7074W        W71282   0.438  23.230  12.066
 7075W        W71283   6.317  22.683   1.758
 7076W        W71284  10.649  33.622  11.085
 7077W        W71285  15.642  42.286   2.753
 7078W        W71286  37.038   4.305   5.768
 7079W        W71287  31.128  20.585   2.349
 7080W        W71288  22.629   9.677   0.264
 7081W        W71289   8.162  20.155  12.472
 7082W        W71290  29.142  17.124  11.901
 7083W        W71291  14.690   2.318   4.729
 7084W        W71292   9.346  28.984   2.674
 7085W        W71293   3.457  21.072   1.255
 7086W        W71294  36.909   1.749  10.475
 7087W        W71295  13.740  20.743  12.501
 7088W        W71296  21.630  30.070   3.635
 7089W        W71297  18.290  39.328   5.179
 7090W        W71298  35.466  33.526  13.963
 7091W        W71299  20.028  24.486   0.731
 7092W        W71300  41.456  30.961   2.394
 7093W        W71301  31.007  26.087  12.571
 7094W        W71302  27.601  15.733  10.558
 7095W        W71303   6.283  35.923   4.621
 7096W        W71304   3.311  44.760  12.966
 7097W        W71305  40.308   3.933  12.057
 7098W        W71306  25.516   8.854   1.320
 7099W        W71307  43.487  42.448   4.712
 7100W        W71308  17.136  31.994   2.309
 7101W        W71309   9.177  27.558   0.877
 7102W        W71310  32.030  36.578   2.777
 7103W        W71311  28.018  14.264  13.871
 7104W        W71312   0.446  44.406   2.769
 7105W        W71313  37.377  20.226  11.440
 7106W        W71314  22.011  12.254  14.447
 7107W        W71315  21.632   1.452   0.247
 7108W        W71316  14.222   3.892   2.391
 7109W        W71317  16.105  20.570  13.453
 7110W        W71318  25.967  34.877  14.434
 7111W        W71319  27.990  11.705  14.279
 7112W        W71320  13.330  24.175   1.448
 7113W        W71321  15.198   5.254  12.515
 7114W        W71322  10.181  36.517   3.350
 7115W        W71323   4.738  20.126   4.653
 7116W        W71324  43.354  39.460  13.439
 7117W        W71325   3.794  34.925  13.977
 7118W        W71326  33.885   4.365   3.220
 7119W        W71327  34.560   6.826  11.610
 7120W        W71328  13.189  20.641   2.785
 7121W        W71329  14.131  25.055  11.013
 7122W        W71330  27.620  30.470   2.187
 7123W        W71331  13.115   6.230  10.460
 7124W        W71332   8.734  40.860   1.931
 7125W        W71333   3.448   7.803  10.442
 7126W        W71334  33.435  32.935   2.734
 7127W        W71335  36.091  19.204   2.862
 7128W        W71336  31.931  28.095   3.264
 7129W        W71337  37.830  40.917  12.045
 7130W        W71338  35.021   8.774   3.323
 7131W        W71339  39.943  39.403  12.967
 7132W        W71340  14.277  34.087   0.369
 7133W        W71341  42.886  22.602  12.435
 7134W        W71342  30.137  32.602   0.934
 7135W        W71343  21.737   0.874   4.742
 7136W        W71344  39.884  13.642  10.911
 7137W        W71345  38.862  29.665   1.753
 7138W        W71346  25.569   7.372   0.909
 7139W        W71347  36.929  27.686  14.467
 7140W        W71348  24.531  32.553  14.404
 7141W        W71349   8.401  31.136   2.392
 7142W        W71350  14.754   3.828   4.249
 7143W        W71351   1.803   0.414   0.945
 7144W        W71352   7.756   9.785  14.860
 7145W        W71353   9.837  10.265   4.257
 7146W        W71354  40.453  18.633   0.842
 7147W        W71355  21.527  31.518   1.405
 7148W        W71356  19.570   9.760   3.190
 7149W        W71357  28.160  34.603  11.105
 7150W        W71358  33.404  18.785   3.267
 7151W        W71359   9.295  33.012  13.489
 7152W        W71360  10.369   1.893  12.505
 7153W        W71361  28.165  39.883   3.184
 7154W        W71362  13.332  21.668   2.900
 7155W        W71363  11.297  33.439  10.440
 7156W        W71364  20.256   2.470  11.890
 7157W        W71365  12.684   7.284   2.308
 7158W        W71366  11.647  28.957   2.252
 7159W        W71367  14.225   5.748  13.468
 7160W        W71368  16.763   3.338   0.375
 7161W        W71369  27.658  32.445  13.876
 7162W        W71370  29.559  17.669  12.002
 7163W        W71371   0.788  10.267   0.430
 7164W        W71372  44.265  11.179  13.939
 7165W        W71373  10.354  19.100   3.381
 7166W        W71374  16.261  39.929  10.447
 7167W        W71375  17.105  35.532   5.319
 7168W        W71376  12.714  10.877   4.721
 7169W        W71377   8.706  31.105   1.341
 7170W        W71378  42.476  15.700  12.522
 7171W        W71379  11.293   9.746  11.033
 7172W        W71380  16.727  36.992  13.869
 7173W        W71381  43.781  31.046   3.292
 7174W        W71382  14.159   9.772  13.889
 7175W        W71383  19.761   6.392  12.364
 7176W        W71384  23.159  23.180   4.673
 7177W        W71385  28.073  26.012   1.768
 7178W        W71386   1.344  30.443   2.779
 7179W        W71387  28.538  33.565   3.630
 7180W        W71388  40.520  16.164  11.404
 7181W        W71389   1.296  41.472   1.773
 7182W        W71390  20.206  42.338  13.889
 7183W        W71391  23.650  20.137  13.986
 7184W        W71392  14.642  41.020  11.116
 7185W        W71393   2.230  25.123  10.017
 7186W        W71394  29.165  15.312   0.273
 7187W        W71395  22.713  14.126   2.853
 7188W        W71396  38.447  16.156   2.381
 7189W        W71397  21.046  33.129   4.811
 7190W        W71398   4.915  13.693  11.502
 7191W        W71399  34.064  37.574   3.331
 7192W        W71400  37.841   7.847  11.099
 7193W        W71401  21.703  31.977  10.517
 7194W        W71402  10.270  28.166  12.908
 7195W        W71403  30.507  40.029  14.399
 7196W        W71404  31.468   4.448   2.277
 7197W        W71405  31.902  23.707   2.830
 7198W        W71406   2.353  28.997   4.797
 7199W        W71407  13.216  33.505   1.424
 7200W        W71408  43.475  25.184  14.502
 7201W        W71409  12.336  16.127   1.885
 7202W        W71410   4.363  13.726   3.792
 7203W        W71411   2.959   0.752   1.263
 7204W        W71412  24.990  32.141   5.119
 7205W        W71413   2.965  36.367  11.546
 7206W        W71414   0.956  38.506  10.533
 7207W        W71415  38.969  19.732   4.684
 7208W        W71416   5.750  15.224  12.394
 7209W        W71417  37.337   3.946  14.015
 7210W        W71418  10.203   3.898  11.122
 7211W        W71419  26.066   6.410  13.983
 7212W        W71420   6.843  42.859   0.290
 7213W        W71421  25.519  20.081   4.287
 7214W        W71422  30.948  42.451  14.332
 7215W        W71423  36.568  28.114  14.340
 7216W        W71424  38.871  21.093  14.505
 7217W        W71425   2.318  15.217  14.478
 7218W        W71426  25.033  15.118  11.528
 7219W        W71427  39.812  26.671   1.428
 7220W        W71428  44.485  30.454   4.808
 7221W        W71429  11.157  19.243  14.807
 7222W        W71430  36.873  19.690  12.924
 7223W        W71431   7.846  39.389   3.767
 7224W        W71432  27.624   5.922   2.300
 7225W        W71433  10.773  12.705  13.025
 7226W        W71434  22.527  14.620   4.614
 7227W        W71435   0.443  38.995   5.184
 7228W        W71436  15.744  37.394  14.499
 7229W        W71437  41.407  11.829  10.638
 7230W        W71438  27.963  26.480   3.350
 7231W        W71439  19.055  34.470   4.639
 7232W        W71440  43.910  43.889  11.430
 7233W        W71441  28.649   1.942   2.189
 7234W        W71442  44.766  24.617   4.738
 7235W        W71443   4.364  29.156   2.843
 7236W        W71444  30.521  20.181  14.366
 7237W        W71445  13.130  29.957  11.988
 7238W        W71446  35.928  34.531  14.932
 7239W        W71447  43.773  11.209  12.493
 7240W        W71448  35.898  35.494   3.247
 7241W        W71449  33.905  21.513  11.387
 7242W        W71450  42.929  31.005   1.797
 7243W        W71451   5.769   7.798  10.520
 7244W        W71452  34.472  39.967   2.302
 7245W        W71453  16.701   6.255  12.896
 7246W        W71454  15.095  25.113   2.845
 7247W        W71455  38.393  20.106   4.606
 7248W        W71456   3.947  43.275   2.675
 7249W        W71457   8.690  41.012  10.494
 7250W        W71458  20.546  14.793   1.273
 7251W        W71459  20.225   3.386   4.346
 7252W        W71460  42.417  28.579   2.665
 7253W        W71461  32.451  27.087  11.429
 7254W        W71462  40.011  37.854  10.546
 7255W        W71463  41.372  11.718   3.683
 7256W        W71464   1.951  37.382   0.901
 7257W        W71465   8.885  18.166  11.610
 7258W        W71466  30.141  15.292  13.475
 7259W        W71467  33.601   8.716   1.405
 7260W        W71468   3.450   3.443  13.848
 7261W        W71469  13.137  42.901  11.056
 7262W        W71470  35.059  13.153   3.251
 7263W        W71471  19.595  19.762  11.471
 7264W        W71472  37.958  24.182  10.988
 7265W        W71473  24.104   5.820   2.315
 7266W        W71474   1.271  24.141  12.355
 7267W        W71475  22.141  13.817   2.265
 7268W        W71476  31.545  24.157  12.427
 7269W        W71477  18.742  14.202   0.436
 7270W        W71478  41.009   7.293   1.903
 7271W        W71479  32.089  39.383   2.694
 7272W        W71480  27.606  23.142  13.977
 7273W        W71481  29.968   4.261  12.909
 7274W        W71482  18.610  14.703   3.303
 7275W        W71483   1.295  33.564  13.886
 7276W        W71484  24.223  42.892  12.017
 7277W        W71485  20.732   8.765   3.784
 7278W        W71486  29.146  19.050   0.754
 7279W        W71487   8.198  34.053  14.923
 7280W        W71488   3.781  15.300   1.704
 7281W        W71489  36.003  44.765   0.950
 7282W        W71490  35.426  10.685   2.801
 7283W        W71491  24.122  24.705  10.502
 7284W        W71492  25.529  24.981   2.732
 7285W        W71493  29.460  16.134  13.922
 7286W        W71494  12.278   7.362   1.844
 7287W        W71495  32.085   4.853   2.279
 7288W        W71496  18.561   4.848   1.723
 7289W        W71497   5.769  28.951   3.180
 7290W        W71498   6.295  44.463  13.983
 7291W        W71499   6.290  36.521  14.936
 7292W        W71500  13.138  34.899  13.814
 7293W        W71501  33.031  35.362  14.968
 7294W        W71502   0.892  25.165  12.039
 7295W        W71503  32.461  19.757   0.436
 7296W        W71504  30.088  24.141  10.503
 7297W        W71505   2.374  40.925   3.277
 7298W        W71506  28.498  43.428   3.178
 7299W        W71507   5.303   0.881  11.875
 7300W        W71508  26.034  25.072   0.848
 7301W        W71509  20.623  18.651   3.309
 7302W        W71510  37.431   3.274  11.478
 7303W        W71511   7.278  37.429  10.933
 7304W        W71512   7.858  15.672  11.005
 7305W        W71513  22.010   9.868   4.607
 7306W        W71514  39.500  42.835   2.809
 7307W        W71515  17.201  10.669  13.438
 7308W        W71516  35.361  33.446  13.528
 7309W        W71517  32.444  41.787   2.699
 7310W        W71518  38.340  23.152  11.021
 7311W        W71519   1.351  32.569   2.784
 7312W        W71520  44.470  19.067  13.966
 7313W        W71521  12.216   5.834  13.456
 7314W        W71522  39.456  44.484  12.428
 7315W        W71523   0.394  34.050   3.650
 7316W        W71524  26.097  44.825  11.080
 7317W        W71525  30.068  10.863   3.663
 7318W        W71526  23.042  20.057  12.003
 7319W        W71527   5.901  21.646   1.866
 7320W        W71528  13.198  23.598  10.001
 7321W        W71529  24.217  26.689   3.762
 7322W        W71530   6.732  39.834  13.049
 7323W        W71531  41.437  31.430   4.699
 7324W        W71532   4.291   5.369  10.489
 7325W        W71533   8.848  41.528   1.269
 7326W        W71534  10.362  33.596  12.056
 7327W        W71535   6.351   4.886   2.857
 7328W        W71536  28.934  40.319  11.409
 7329W        W71537  27.691  36.451   2.685
 7330W        W71538   8.787  11.210   2.265
 7331W        W71539  42.905   7.873   0.842
 7332W        W71540  27.482   5.905   3.312
 7333W        W71541  15.596  13.803  11.992
 7334W        W71542   5.337  17.671   2.258
 7335W        W71543  37.859  44.865   2.181
 7336W        W71544  37.930  28.126  10.536
 7337W        W71545  25.963   7.290   4.666
 7338W        W71546  39.529  39.549   4.622
 7339W        W71547  38.023  44.887  11.381
 7340W        W71548   1.774  22.996  11.058
 7341W        W71549  30.117   5.883   3.304
 7342W        W71550  24.626  18.198  13.007
 7343W        W71551  23.511  37.563  13.868
 7344W        W71552  25.693  24.602   3.212
 7345W        W71553  32.904  14.318   3.669
 7346W        W71554  40.447  43.299   3.770
 7347W        W71555  44.422  27.678   3.811
 7348W        W71556   6.232  31.630  10.568
 7349W        W71557  28.664  26.600  10.565
 7350W        W71558  36.462  41.503   9.954
 7351W        W71559  23.008  27.644   1.829
 7352W        W71560   4.435  33.449  11.381
 7353W        W71561  18.083  18.691  11.424
 7354W        W71562  36.903  10.706   1.706
 7355W        W71563  32.600  22.185  13.868
 7356W        W71564   1.246   5.832  12.940
 7357W        W71565  36.381  19.151  13.061
 7358W        W71566   8.377  27.948  14.903
 7359W        W71567   1.257  38.947   9.978
 7360W        W71568  23.542   2.866  10.979
 7361W        W71569  14.833  25.191   0.759
 7362W        W71570  19.621   7.769   2.856
 7363W        W71571  44.989  10.222  12.040
 7364W        W71572  36.500  31.967  13.504
 7365W        W71573  14.808  28.125   1.343
 7366W        W71574   3.921  27.061   0.264
 7367W        W71575  14.716   8.813  13.447
 7368W        W71576  22.543   2.781   4.217
 7369W        W71577  24.130   5.806   0.281
 7370W        W71578  22.237  41.960   1.228
 7371W        W71579   0.817  29.584   1.695
 7372W        W71580   8.379   0.412  12.532
 7373W        W71581  33.476   5.316   1.241
 7374W        W71582   4.293  20.587  13.394
 7375W        W71583  40.426  35.044  11.955
 7376W        W71584  31.079  22.592  13.841
 7377W        W71585  34.104  10.679  12.528
 7378W        W71586  35.883   4.255   1.901
 7379W        W71587  22.618  38.827   9.959
 7380W        W71588  12.745  34.898  11.986
 7381W        W71589  35.865  31.563   0.406
 7382W        W71590  12.334   8.360  11.113
 7383W        W71591   7.199  13.239  14.813
 7384W        W71592   6.377  21.098  12.517
 7385W        W71593   6.227   2.396  14.279
 7386W        W71594   5.797  43.839   1.850
 7387W        W71595   3.735  18.242  13.311
 7388W        W71596  12.693  21.668  13.863
 7389W        W71597  23.215  30.588   3.328
 7390W        W71598  35.949  15.732  10.931
 7391W        W71599  35.024  44.984  14.843
 7392W        W71600   0.251  43.480   2.310
 7393W        W71601  36.538  18.258   4.138
 7394W        W71602  17.118  43.369  12.441
 7395W        W71603  17.661  30.658   4.687
 7396W        W71604  18.742  38.329  13.323
 7397W        W71605  12.355  40.503   0.304
 7398W        W71606  16.270  28.587   4.832
 7399W        W71607  28.473  43.512  13.952
 7400W        W71608  34.891  14.641   1.864
 7401W        W71609   6.183  24.094   1.447
 7402W        W71610  44.780  10.162   4.694
 7403W        W71611  20.581  31.483   3.679
 7404W        W71612  36.474  29.992  11.380
 7405W        W71613  12.748  23.157   4.291
 7406W        W71614   7.337  27.992  11.024
 7407W        W71615  36.466  43.770  14.025
 7408W        W71616  34.378  12.346  10.474
 7409W        W71617  29.522   5.195  11.559
 7410W        W71618  36.061  27.110  14.351
 7411W        W71619  24.078  13.715   1.413
 7412W        W71620  32.920  11.133  12.374
 7413W        W71621  17.710  29.489   3.169
 7414W        W71622  44.500  40.394   3.777
 7415W        W71623  25.684  12.686   0.368
 7416W        W71624  24.529   3.390  12.429
 7417W        W71625  12.667  23.650   3.864
 7418W        W71626   6.348  43.498   4.211
 7419W        W71627  41.448  10.780  10.945
 7420W        W71628  34.081  40.997  12.355
 7421W        W71629  15.268   7.851  12.562
 7422W        W71630   5.398  25.538  13.416
 7423W        W71631  11.670  29.108   0.399
 7424W        W71632  22.173  29.566  10.428
 7425W        W71633  27.578   3.406  10.475
 7426W        W71634  37.053  11.325  11.046
 7427W        W71635  23.550  39.036   1.288
 7428W        W71636  12.764  33.521   2.772
 7429W        W71637  11.729  33.614  14.298
 7430W        W71638  42.823  35.532  10.583
 7431W        W71639  27.635  30.959   0.260
 7432W        W71640  25.050  22.555  13.376
 7433W        W71641   8.165   6.288  11.123
 7434W        W71642  36.388  32.467  11.098
 7435W        W71643  37.912  32.609  12.535
 7436W        W71644  19.272  33.015  14.312
 7437W        W71645  16.768  31.013   4.821
 7438W        W71646  23.164  28.479   1.780
 7439W        W71647   0.326  34.994  12.966
 7440W        W71648  37.086   6.246   0.484
 7441W        W71649  38.938   2.783   2.854
 7442W        W71650   8.799  42.923   4.820
 7443W        W71651  15.763  37.516  11.089
 7444W        W71652  10.331  33.611   5.217
 7445W        W71653   7.697  39.907   4.181
 7446W        W71654  38.037  15.658   3.303
 7447W        W71655  19.678  39.435  14.018
 7448W        W71656  16.190  32.448   3.273
 7449W        W71657   5.335  18.159   3.683
 7450W        W71658  22.250  18.564   2.798
 7451W        W71659  10.637   8.749  13.508
 7452W        W71660  31.928  38.022   1.776
 7453W        W71661  41.519   9.383  10.637
 7454W        W71662  24.032  40.958  13.307
 7455W        W71663  13.813   0.802  11.860
 7456W        W71664  20.250  15.777   9.969
 7457W        W71665  28.037  26.117   0.387
 7458W        W71666  17.658   1.856   4.283
 7459W        W71667   3.313  13.803  13.012
 7460W        W71668  26.652   4.330   2.316
 7461W        W71669  23.095  36.985   2.381
 7462W        W71670   2.431   6.320  14.907
 7463W        W71671  41.313  22.738   0.886
 7464W        W71672   8.688   3.342   0.775
 7465W        W71673  13.233  31.061  12.944
 7466W        W71674  34.042   7.762   4.148
 7467W        W71675   8.717  34.080  14.820
 7468W        W71676  39.868  11.817  12.978
 7469W        W71677  39.923  25.199  12.424
 7470W        W71678  44.375  27.645  12.414
 7471W        W71679  32.109  10.809   3.833
 7472W        W71680   4.396  29.524  12.497
 7473W        W71681   7.273  30.634   4.306
 7474W        W71682  32.588   1.465  12.351
 7475W        W71683  43.286   4.873   4.235
 7476W        W71684   1.868  29.437   3.782
 7477W        W71685  20.716  27.155  14.470
 7478W        W71686  10.225   8.256   1.253
 7479W        W71687  43.274  19.268   1.269
 7480W        W71688  43.457   5.837  13.329
 7481W        W71689  19.753   7.267  13.548
 7482W        W71690   4.366  16.678   0.779
 7483W        W71691   2.808   0.953   3.322
 7484W        W71692   8.762  22.722   4.289
 7485W        W71693   3.365  26.137   0.311
 7486W        W71694  19.663  24.632  14.860
 7487W        W71695   6.211  20.535   3.384
 7488W        W71696  20.591  32.037  14.448
 7489W        W71697  13.627   5.388  11.973
 7490W        W71698  35.424  33.967  12.473
 7491W        W71699  19.737  21.712   2.280
 7492W        W71700  14.613   2.820   4.776
 7493W        W71701  37.544  20.062  13.909
 7494W        W71702  40.303   9.252  10.492
 7495W        W71703  11.708  39.987  12.012
 7496W        W71704  38.028  35.581  11.575
 7497W        W71705  42.793  29.527  13.811
 7498W        W71706   5.314   2.228   4.651
 7499W        W71707  27.626   5.859  13.877
 7500W        W71708   8.852  32.110   4.619
 7501W        W71709   5.236  35.513   0.770
 7502W        W71710  40.016  16.082  13.041
 7503W        W71711  25.469   8.777  10.031
 7504W        W71712   5.195  36.875   4.156
 7505W        W71713  27.559   6.724  13.363
 7506W        W71714  40.480   2.399   2.738
 7507W        W71715   4.717  39.333  10.968
 7508W        W71716   3.228   8.735   3.200
 7509W        W71717  33.000  36.591  12.384
 7510W        W71718   4.415  44.944   4.186
 7511W        W71719  12.351  43.005  13.360
 7512W        W71720  10.815  43.458  13.464
 7513W        W71721  22.189   3.771  13.831
 7514W        W71722  41.396  26.951  14.025
 7515W        W71723   5.901   7.388  12.345
 7516W        W71724   9.854  21.187  13.917
 7517W        W71725  12.332  40.856   2.400
 7518W        W71726  10.302  22.672   3.321
 7519W        W71727  24.077   8.320  12.498
 7520W        W71728  27.161  11.200  11.430
 7521W        W71729  37.940  18.713  13.057
 7522W        W71730  42.808  33.613   0.481
 7523W        W71731  35.546  30.063   1.413
 7524W        W71732  16.619  27.969  13.064
 7525W        W71733  32.533  15.780   1.361
 7526W        W71734  10.297  13.281  10.912
 7527W        W71735  37.476  21.594  12.985
 7528W        W71736  44.417   8.865  10.542
 7529W        W71737  43.396  44.913  10.566
 7530W        W71738  16.707  44.833  11.924
 7531W        W71739  13.135  10.353   1.855
 7532W        W71740  38.962  36.407   0.244
 7533W        W71741  42.386   9.302  12.475
 7534W        W71742   2.375  12.612  13.015
 7535W        W71743  12.167   4.409  14.878
 7536W        W71744  30.140   8.272   4.165
 7537W        W71745  40.517  11.350   2.883
 7538W        W71746   6.270   3.731  12.031
 7539W        W71747   2.289  28.593  14.905
 7540W        W71748  41.006  39.326   4.829
 7541W        W71749  37.074  32.557  11.507
 7542W        W71750  40.976  19.107  14.945
 7543W        W71751  24.677  36.999  10.508
 7544W        W71752   3.314  34.433   4.196
 7545W        W71753  15.139  24.094  13.037
 7546W        W71754  44.887   3.836  11.098
 7547W        W71755  44.830   7.317  12.085
 7548W        W71756   5.880  37.567   1.716
 7549W        W71757  25.543  10.835   0.406
 7550W        W71758  17.301  20.145   2.292
 7551W        W71759  14.698  20.237  14.326
 7552W        W71760  27.189  23.622  11.476
 7553W        W71761  34.959  26.521  13.514
 7554W        W71762  42.486   5.402  14.304
 7555W        W71763   5.816  21.553   3.292
 7556W        W71764  38.404  27.043   4.166
 7557W        W71765   9.395  39.388  13.051
 7558W        W71766  34.606  24.018  13.896
 7559W        W71767  37.569  17.796   4.762
 7560W        W71768  38.339  18.744  13.799
 7561W        W71769  40.322  23.624   0.758
 7562W        W71770  11.369  24.551  14.392
 7563W        W71771  28.621  44.831   1.226
 7564W        W71772  29.497  20.693  11.371
 7565W        W71773  30.418  25.188  10.558
 7566W        W71774  38.847  30.413   3.680
 7567W        W71775  21.697  31.905   3.222
 7568W        W71776   6.255  28.550  12.889
 7569W        W71777  37.546  34.923  12.993
 7570W        W71778  29.500  18.227  12.094
 7571W        W71779  40.487  28.962   0.834
 7572W        W71780   1.333  30.952   3.744
 7573W        W71781  42.337   3.821  14.466
 7574W        W71782   7.210  37.913   3.752
 7575W        W71783  22.621  33.496  12.479
 7576W        W71784  22.223  27.181   0.954
 7577W        W71785  43.848  44.429  13.892
 7578W        W71786  31.950  14.770   3.726
 7579W        W71787  18.093  19.209   0.858
 7580W        W71788  43.461  23.671   1.223
 7581W        W71789  12.220  18.771   1.428
 7582W        W71790  17.296   9.225  13.796
 7583W        W71791   8.772  33.945  10.613
 7584W        W71792   0.426  22.667  11.915
 7585W        W71793  24.629  36.353  12.952
 7586W        W71794   1.917   9.335  12.970
 7587W        W71795  26.027   0.975  11.042
 7588W        W71796  35.031  24.649  14.345
 7589W        W71797  30.959  34.392  14.380
 7590W        W71798  13.233  30.926  14.845
 7591W        W71799  11.772  18.585   1.763
 7592W        W71800  17.748  24.633   4.334
 7593W        W71801  37.567  15.805  12.468
 7594W        W71802   0.906  24.696   4.646
 7595W        W71803  15.605  31.418  14.502
 7596W        W71804  35.920   4.334  11.486
 7597W        W71805  15.689  41.483   0.777
 7598W        W71806  17.642  19.221  14.894
 7599W        W71807   7.901  38.975  11.400
 7600W        W71808  12.362  26.204   2.697
 7601W        W71809  27.690  23.573   4.120
 7602W        W71810   8.855  25.596   3.660
 7603W        W71811  29.619  13.609  13.842
 7604W        W71812  15.093  27.124   4.348
 7605W        W71813  44.875  17.166   2.718
 7606W        W71814  19.041  19.158  13.837
 7607W        W71815  32.974  19.236   4.247
 7608W        W71816  39.319   6.409  13.444
 7609W        W71817  43.446  13.666  14.431
 7610W        W71818   9.806   3.433   3.267
 7611W        W71819  31.527   8.365  12.572
 7612W        W71820  39.001   5.687  14.448
 7613W        W71821   5.288  17.715  10.619
 7614W        W71822  16.127  29.501  11.547
 7615W        W71823  30.021  44.487   3.767
 7616W        W71824  36.403  22.643  13.928
 7617W        W71825  18.758  24.176   1.332
 7618W        W71826  10.723  14.618  12.963
 7619W        W71827  34.067  36.841  11.494
 7620W        W71828  22.645  33.492   1.720
 7621W        W71829  24.191  26.956  10.896
 7622W        W71830  17.714  40.029   1.805
 7623W        W71831   3.281  11.283   0.425
 7624W        W71832   9.735  44.768   0.747
 7625W        W71833  13.751   1.874   3.790
 7626W        W71834  10.195  19.050  10.975
 7627W        W71835  44.760  30.022   1.383
 7628W        W71836  23.045  28.021  11.609
 7629W        W71837  42.845  18.664   0.328
 7630W        W71838  39.430  22.037   4.332
 7631W        W71839  25.086  23.007  10.995
 7632W        W71840  15.102  13.241   4.189
 7633W        W71841   5.364   1.289  12.084
 7634W        W71842  40.911  32.566  11.540
 7635W        W71843  28.046  19.642   3.763
 7636W        W71844  15.102  40.395  10.493
 7637W        W71845   7.878   2.830   0.311
 7638W        W71846   2.274  15.121  13.958
 7639W        W71847  42.428  29.622   1.445
 7640W        W71848  39.921   0.353   0.920
 7641W        W71849  19.267   8.221  10.557
 7642W        W71850  44.383   0.365   2.348
 7643W        W71851   6.295  32.589  13.940
 7644W        W71852  13.227   8.289  12.579
 7645W        W71853  43.768  36.961  13.031
 7646W        W71854  14.250  40.012   3.174
 7647W        W71855  17.218  37.978  14.771
 7648W        W71856  13.613  22.695  11.495
 7649W        W71857  16.585  16.711  11.486
 7650W        W71858  18.249  12.828   0.830
 7651W        W71859  12.804  25.215   0.315
 7652W        W71860   6.374   2.345   2.212
 7653W        W71861  31.498  13.217   3.236
 7654W        W71862   8.402  12.737  13.955
 7655W        W71863  20.595  19.600  10.923
 7656W        W71864  29.512  32.954   4.310
 7657W        W71865  13.337  10.852  14.981
 7658W        W71866  32.928  42.956   1.815
 7659W        W71867  26.630  18.556   1.721
 7660W        W71868  27.520   9.839   3.793
 7661W        W71869  32.114   6.739  11.974
 7662W        W71870  17.642  32.974   0.338
 7663W        W71871  21.150   8.687  12.518
 7664W        W71872  25.541  25.115   0.878
 7665W        W71873  11.751  38.984   2.417
 7666W        W71874  10.725  39.988  14.324
 7667W        W71875  18.733  31.632  11.498
 7668W        W71876  38.957  38.071   1.875
 7669W        W71877  24.642   5.322  13.373
 7670W        W71878  44.897  25.703   3.264
 7671W        W71879  15.619  29.084   0.257
 7672W        W71880   1.841  22.513  11.489
 7673W        W71881  34.377  30.964  10.434
 7674W        W71882  40.954  26.617  14.837
 7675W        W71883  26.105  33.507   1.430
 7676W        W71884   1.887  42.012  13.059
 7677W        W71885  10.865  15.685   0.264
 7678W        W71886  14.162  30.556   3.796
 7679W        W71887  18.722  23.576   3.220
 7680W        W71888   5.811  44.937   1.797
 7681W        W71889  38.073  23.054   1.824
 7682W        W71890   6.373  18.622   4.270
 7683W        W71891  11.334  38.998  14.434
 7684W        W71892  10.867   2.257  13.978
 7685W        W71893  39.979  43.812  11.925
 7686W        W71894   9.309  28.043  11.880
 7687W        W71895  36.041  31.035   2.263
 7688W        W71896  18.722  39.443   0.947
 7689W        W71897  33.480  11.178  11.016
 7690W        W71898  29.592  41.793   0.807
 7691W        W71899  38.001  11.304  14.806
 7692W        W71900  10.710  39.322   2.690
 7693W        W71901  21.619  21.116  13.951
 7694W        W71902  31.618  21.592   2.338
 7695W        W71903  26.610  12.181   4.204
 7696W        W71904  15.112   8.869  11.060
 7697W        W71905   9.724   7.397  12.847
 7698W        W71906  29.950   2.316   4.824
 7699W        W71907  32.511   5.839   1.801
 7700W        W71908  20.539   9.845   1.366
 7701W        W71909  21.660  17.306   0.820
 7702W        W71910  31.099  28.528  11.481
 7703W        W71911  35.597   3.764  10.891
 7704W        W71912   4.818  24.613   0.394
 7705W        W71913  20.206   2.901   1.372
 7706W        W71914  35.029  14.274  14.489
 7707W        W71915  11.857  15.817  13.368
 7708W        W71916  31.590   7.190  13.321
 7709W        W71917  11.135  33.973  12.854
 7710W        W71918   4.765  15.672   0.872
 7711W        W71919  21.122  30.654   0.258
 7712W        W71920  38.021   4.822   4.268
 7713W        W71921  14.265  16.277   1.827
 7714W        W71922  25.044  22.210   3.315
 7715W        W71923  38.339  13.706   2.415
 7716W        W71924  39.476  14.196  12.374
 7717W        W71925  22.674  40.842   3.742
 7718W        W71926  15.692  13.813   0.918
 7719W        W71927  39.885  11.374  14.904
 7720W        W71928  25.101  38.899  12.928
 7721W        W71929  16.808  15.327  12.418
 7722W        W71930  21.541  44.442   3.342
 7723W        W71931  28.173   5.809  11.879
 7724W        W71932   8.344  24.211   0.277
 7725W        W71933  17.743  34.532  11.095
 7726W        W71934  31.410   6.204   3.852
 7727W        W71935   2.331  11.184  12.878
 7728W        W71936   8.893  19.095   4.724
 7729W        W71937  35.087  19.602  14.008
 7730W        W71938  44.827  40.878  14.415
 7731W        W71939  40.385   3.341   1.450
 7732W        W71940   0.944   4.251   5.617
 7733W        W71941  44.975  23.495   0.827
 7734W        W71942  22.172   7.346   3.298
 7735W        W71943  35.927  27.500  13.061
 7736W        W71944   7.196  40.970   2.323
 7737W        W71945  16.202   7.236   1.225
 7738W        W71946  29.503   0.441   2.352
 7739W        W71947  43.013  23.099  14.926
 7740W        W71948  11.661  43.329  10.553
 7741W        W71949  27.603  31.905  14.022
 7742W        W71950  21.170  32.468  14.994
 7743W        W71951  41.816  19.700   3.680
 7744W        W71952  22.552  34.476   3.352
 7745W        W71953  30.541  13.244   5.219
 7746W        W71954  29.514   4.405   1.835
 7747W        W71955  33.404  25.620  12.086
 7748W        W71956  28.011  18.137  14.811
 7749W        W71957  20.229  30.005  12.439
 7750W        W71958  25.621   1.744   3.687
 7751W        W71959  11.323  32.046  10.495
 7752W        W71960  26.002  17.700   4.777
 7753W        W71961  35.941  24.528   2.689
 7754W        W71962  20.167  19.198   4.794
 7755W        W71963  30.488   9.857   2.699
 7756W        W71964   4.827   0.302  13.326
 7757W        W71965  17.278   6.918   2.178
 7758W        W71966  44.825  41.980   4.784
 7759W        W71967  15.619  19.708  12.917
 7760W        W71968  23.509   2.944  13.897
 7761W        W71969  36.998  19.670   4.299
 7762W        W71970  13.171  20.662  11.590
 7763W        W71971  13.763  34.511   1.709
 7764W        W71972  14.620  25.558  14.001
 7765W        W71973  22.653  42.967   3.836
 7766W        W71974  44.465  39.958  12.038
 7767W        W71975  19.163  22.118  13.968
 7768W        W71976  20.091   6.829   0.939
 7769W        W71977  42.446  40.008   3.317
 7770W        W71978  39.996  15.769  10.516
 7771W        W71979  29.951  40.966   4.615
 7772W        W71980  35.089  20.767  14.432
 7773W        W71981  38.920  39.902  14.354
 7774W        W71982  17.195   3.422   0.432
 7775W        W71983  15.787  13.666  14.837
 7776W        W71984   4.705  24.093   1.296
 7777W        W71985  14.788  12.279   1.759
 7778W        W71986  39.843  16.763   0.242
 7779W        W71987   6.857   8.751  13.866
 7780W        W71988  12.153   9.777   0.330
 7781W        W71989  22.738   2.379  14.967
 7782W        W71990  35.368  12.757  11.915
 7783W        W71991   0.914   8.867  13.845
 7784W        W71992  27.631  34.488  10.611
 7785W        W71993  10.140  31.922  14.904
 7786W        W71994  29.004   0.908  13.420
 7787W        W71995  15.175  43.817  10.580
 7788W        W71996  16.104  34.877  13.023
 7789W        W71997  32.433  27.998   4.185
 7790W        W71998   4.245  12.164  12.398
 7791W        W71999  28.549  36.939  12.035
 7792W        W72000  20.635  29.069   3.679
 7793W        W72001  10.769   2.417  10.948
 7794W        W72002  11.311  22.629  11.971
 7795W        W72003  13.275  35.880   0.964
 7796W        W72004  31.053  33.467   0.419
 7797W        W72005  13.712   8.780  13.017
 7798W        W72006   1.742  23.223  12.548
 7799W        W72007  11.363  31.628   3.630
 7800W        W72008  44.485   0.357   3.785
 7801W        W72009   9.271  13.205   3.367
 7802W        W72010  41.915  25.092  14.014
 7803W        W72011  18.113  17.161  11.463
 7804W        W72012  12.825  22.216  13.536
 7805W        W72013  43.374   5.329  13.904
 7806W        W72014  27.004  29.057  14.380
 7807W        W72015  14.677  12.805  12.066
 7808W        W72016  35.993  34.073  12.432
 7809W        W72017  39.826  42.489  12.927
 7810W        W72018  29.134   8.213   0.270
 7811W        W72019  34.071  34.542  14.939
 7812W        W72020  40.467   9.373  12.559
 7813W        W72021   1.382  24.977   3.247
 7814W        W72022  26.649  17.302  11.959
 7815W        W72023  37.944  11.767  10.617
 7816W        W72024  17.283  17.709   1.878
 7817W        W72025  16.180  39.400  13.466
 7818W        W72026  23.541  13.326   1.722
 7819W        W72027  23.716   1.451   1.843
 7820W        W72028   7.219  29.052  10.629
 7821W        W72029  32.500  17.769   0.836
 7822W        W72030  20.605  42.484   4.638
 7823W        W72031  41.412  28.119  12.021
 7824W        W72032   6.186  16.272  13.495
 7825W        W72033  23.543  30.163  10.462
 7826W        W72034  23.135  32.390   3.682
 7827W        W72035  39.027  36.858   0.342
 7828W        W72036  10.223  26.635   0.911
 7829W        W72037  23.550  20.563   1.356
 7830W        W72038  25.685  18.608   1.837
 7831W        W72039  15.124   4.908   4.672
 7832W        W72040  16.291  25.689  10.546
 7833W        W72041  43.938   8.361   4.166
 7834W        W72042  31.130  32.430   2.355
 7835W        W72043  43.318  43.959   1.250
 7836W        W72044  11.302  44.281   4.172
 7837W        W72045  19.689   6.711  11.097
 7838W        W72046  20.218  32.549   4.622
 7839W        W72047   4.862  10.759   3.253
 7840W        W72048  27.111  31.469   1.868
 7841W        W72049   0.972  16.727  13.924
 7842W        W72050  25.673  14.817  12.906
 7843W        W72051  30.002   7.409  13.936
 7844W        W72052  12.124   8.736  10.989
 7845W        W72053  41.903  17.112  14.436
 7846W        W72054  37.337  34.393   1.698
 7847W        W72055  15.789  10.699  12.081
 7848W        W72056  30.959  34.441   0.891
 7849W        W72057   2.239  15.122   4.154
 7850W        W72058  17.184  30.627   4.724
 7851W        W72059   0.845  23.605  11.910
 7852W        W72060  13.300  38.540   2.417
 7853W        W72061  29.484  14.749   0.307
 7854W        W72062  26.139  37.847   3.726
 7855W        W72063  21.102  41.483   2.394
 7856W        W72064  12.848  42.868  14.959
 7857W        W72065   6.808   1.281   0.359
 7858W        W72066  35.973  38.057  11.473
 7859W        W72067  10.156   6.794   3.642
 7860W        W72068  24.669  24.687  13.373
 7861W        W72069   6.296  22.115  11.069
 7862W        W72070  21.044  33.050  12.424
 7863W        W72071   6.290  44.842  14.325
 7864W        W72072   0.377  44.465   1.910
 7865W        W72073   2.771  15.670   3.216
 7866W        W72074  27.115  35.384  11.923
 7867W        W72075  20.197   8.208   0.786
 7868W        W72076  44.761  18.667  13.357
 7869W        W72077  20.647  25.688   4.637
 7870W        W72078  44.863  23.162   0.775
 7871W        W72079  18.051  29.442   1.245
 7872W        W72080  17.096  29.603   0.936
 7873W        W72081  22.028  21.571  13.891
 7874W        W72082   6.204  12.797   3.201
 7875W        W72083  43.467  23.555  14.467
 7876W        W72084  44.784   0.793   1.273
 7877W        W72085   7.215  20.648  12.369
 7878W        W72086  42.313  12.801  12.491
 7879W        W72087  17.736   8.748   4.694
 7880W        W72088   5.819  19.607   0.784
 7881W        W72089   2.943  35.067  12.953
 7882W        W72090  39.992  28.104  12.445
 7883W        W72091  39.010   6.741  12.395
 7884W        W72092  29.525  28.000  12.017
 7885W        W72093  29.962  27.625  12.033
 7886W        W72094   2.920   0.435  12.913
 7887W        W72095   1.936   3.406   4.145
 7888W        W72096  13.757  32.953  14.302
 7889W        W72097  44.505  38.911   3.285
 7890W        W72098  42.381  29.448   4.787
 7891W        W72099  34.097  13.124   1.431
 7892W        W72100   4.280  34.444   3.165
 7893W        W72101  28.036  34.081   4.619
 7894W        W72102   0.476  32.560  14.866
 7895W        W72103   7.801  34.031  11.922
 7896W        W72104   3.386   1.746  13.412
 7897W        W72105  38.894  10.765  12.580
 7898W        W72106  26.090   2.808  10.556
 7899W        W72107   8.228  34.024   0.778
 7900W        W72108   1.310   6.303   3.147
 7901W        W72109   3.359  37.071   3.374
 7902W        W72110  43.981  17.213   1.769
 7903W        W72111  15.766   9.658   2.262
 7904W        W72112  30.650   1.478  11.039
 7905W        W72113  40.420  37.964   3.700
 7906W        W72114  29.920  22.217  14.999
 7907W        W72115   6.776  37.922   0.788
 7908W        W72116  29.171  35.565  10.498
 7909W        W72117   3.729  42.372  10.912
 7910W        W72118   7.252  10.191   1.754
 7911W        W72119   0.868  40.354   3.212
 7912W        W72120  20.699  44.297  12.362
 7913W        W72121   2.906  29.097   0.859
 7914W        W72122  34.944  10.777  11.505
 7915W        W72123  38.003  18.085  10.045
 7916W        W72124  17.760  44.502  11.516
 7917W        W72125  41.995   5.823  10.491
 7918W        W72126   5.266  15.220  14.276
 7919W        W72127  25.617  32.463  13.026
 7920W        W72128  42.338  41.928  11.464
 7921W        W72129  22.583  24.642   0.348
 7922W        W72130  26.993  31.905   1.705
 7923W        W72131   0.380  15.213   3.836
 7924W        W72132  31.497  14.184   0.766
 7925W        W72133   1.467  43.877  10.512
 7926W        W72134   0.364  26.088  12.457
 7927W        W72135   8.832  44.392   3.227
 7928W        W72136   0.394  10.826  11.898
 7929W        W72137  37.992   0.293  10.613
 7930W        W72138   8.707  37.504   5.316
 7931W        W72139   2.228  42.429   1.746
 7932W        W72140  31.495  10.188  14.459
 7933W        W72141  39.484  15.811   1.409
 7934W        W72142  31.411  37.570  14.029
 7935W        W72143  25.625  16.116  14.331
 7936W        W72144   3.383  33.115  11.869
 7937W        W72145   7.251  12.359   4.138
 7938W        W72146   5.263  42.314  14.986
 7939W        W72147  15.793  16.239   1.799
 7940W        W72148  16.675  27.143  13.044
 7941W        W72149  34.608  31.123   0.409
 7942W        W72150  31.930  14.697   0.352
 7943W        W72151   0.784  15.812  14.323
 7944W        W72152  14.115  35.018  10.517
 7945W        W72153   8.835  42.817   4.183
 7946W        W72154  30.486  24.497  13.936
 7947W        W72155  10.303  34.076  11.973
 7948W        W72156  33.552  19.145   1.890
 7949W        W72157  34.532  16.220  10.439
 7950W        W72158  27.034  37.352  10.123
 7951W        W72159  33.014  12.743  12.938
 7952W        W72160  42.411   3.907  11.592
 7953W        W72161   0.873  13.221   1.851
 7954W        W72162  37.830  39.988   0.764
 7955W        W72163  43.771  35.885   3.785
 7956W        W72164   4.892  33.502   1.845
 7957W        W72165  34.102  39.827  11.876
 7958W        W72166  36.981  44.966   4.131
 7959W        W72167  29.635  32.486   3.284
 7960W        W72168  38.077   6.191   4.269
 7961W        W72169  35.036  11.284   2.391
 7962W        W72170  39.450  19.187   4.274
 7963W        W72171  10.770  16.647   3.816
 7964W        W72172  18.058   7.709  14.331
 7965W        W72173  39.881  22.747  10.479
 7966W        W72174  28.052  31.525   2.697
 7967W        W72175  22.158  37.029   3.173
 7968W        W72176  43.867  14.179  12.518
 7969W        W72177  15.663   9.186   1.352
 7970W        W72178  33.003  36.397   3.736
 7971W        W72179  11.330  19.626  14.465
 7972W        W72180  14.674  14.717  12.856
 7973W        W72181   3.718   1.332   3.369
 7974W        W72182   8.247   3.284  12.997
 7975W        W72183  19.134  41.038  13.914
 7976W        W72184  24.230  34.920   2.293
 7977W        W72185  30.941   4.919   1.418
 7978W        W72186  21.568  32.004   1.241
 7979W        W72187  43.287  11.707   1.439
 7980W        W72188   3.839  11.631  10.893
 7981W        W72189   0.480  21.576  10.588
 7982W        W72190  37.035  35.919   4.645
 7983W        W72191  31.635  14.133   0.430
 7984W        W72192  27.106  40.989   3.262
 7985W        W72193  20.727  16.271   3.243
 7986W        W72194   7.849   6.350   0.889
 7987W        W72195   5.774  30.992  12.511
 7988W        W72196  12.749  19.095   2.328
 7989W        W72197   2.762  42.288  10.892
 7990W        W72198  33.539  42.888   9.947
 7991W        W72199  26.457   4.863   3.243
 7992W        W72200  10.146  15.240  14.343
 7993W        W72201  35.005  29.643  10.587
 7994W        W72202  35.032  13.254  11.435
 7995W        W72203  34.494   0.783  13.809
 7996W        W72204  37.998   1.732   1.357
 7997W        W72205  24.148  37.550  11.374
 7998W        W72206  37.374  18.591  14.979
 7999W        W72207  28.999   6.755  14.408
 8000W        W72208  13.323  30.653   2.415
 8001W        W72209  26.972  11.238  11.996
 8002W        W72210   1.407   4.746   5.206
 8003W        W72211  33.036  36.993   1.391
 8004W        W72212  15.631  33.942  12.428
 8005W        W72213  39.855  38.499   3.325
 8006W        W72214   9.811  16.684   3.650
 8007W        W72215  36.512  42.422  14.936
 8008W        W72216  44.864  34.431   2.327
 8009W        W72217  20.125  32.901  14.816
 8010W        W72218  34.370  39.555  11.539
 8011W        W72219  18.051  18.132   0.842
 8012W        W72220  22.701   7.200  14.873
 8013W        W72221   4.917  18.603  13.859
 8014W        W72222  32.401   2.759  12.883
 8015W        W72223   5.298  21.068  11.517
 8016W        W72224  43.947  25.113   2.353
 8017W        W72225  36.918  44.321   3.731
 8018W        W72226  25.091  14.184   2.876
 8019W        W72227   2.857  39.872   2.325
 8020W        W72228  36.919  40.422  10.627
 8021W        W72229  39.418  25.580  12.879
 8022W        W72230   4.765   5.244   0.420
 8023W        W72231  40.503  43.800   2.208
 8024W        W72232  35.953  14.271  12.094
 8025W        W72233  25.486  30.156  11.908
 8026W        W72234  17.155  38.415  13.919
 8027W        W72235  19.663  19.534   1.922
 8028W        W72236  26.626  36.882  12.432
 8029W        W72237   1.877  15.601  10.082
 8030W        W72238  42.327   2.322   2.742
 8031W        W72239  39.006  31.589   4.700
 8032W        W72240  15.626  42.831   2.846
 8033W        W72241  28.074   1.828  13.800
 8034W        W72242  39.374  25.101  14.938
 8035W        W72243  34.979  13.636  13.345
 8036W        W72244  14.830  10.192  12.823
 8037W        W72245  42.390  15.279   3.756
 8038W        W72246  25.656  13.633  11.458
 8039W        W72247  44.913   8.770   3.221
 8040W        W72248  10.695  24.176  12.463
 8041W        W72249  12.347   4.854   3.372
 8042W        W72250  17.079  21.702   0.456
 8043W        W72251  30.519   8.869   3.234
 8044W        W72252   9.201   5.890  14.949
 8045W        W72253  24.106  37.476   1.887
 8046W        W72254   7.841   2.468   1.697
 8047W        W72255  28.546  16.619  13.492
 8048W        W72256  36.394   8.314   1.232
 8049W        W72257  13.186  24.090   0.922
 8050W        W72258   7.296  33.947   0.380
 8051W        W72259  10.849  30.004  10.583
 8052W        W72260  15.288   9.673   4.747
 8053W        W72261  37.538  36.065  11.588
 8054W        W72262  35.989  39.415  10.923
 8055W        W72263   0.926  29.645  10.605
 8056W        W72264  40.039   6.858  12.079
 8057W        W72265  19.771  19.593   2.779
 8058W        W72266  11.328  16.120  12.437
 8059W        W72267  27.033  25.053  14.300
 8060W        W72268  20.761  15.166   4.279
 8061W        W72269  38.946  41.787  10.553
 8062W        W72270  16.593  18.664  11.023
 8063W        W72271  37.413  11.336   2.326
 8064W        W72272   4.363  26.177  11.606
 8065W        W72273  43.775  15.657  13.021
 8066W        W72274  35.507  22.041   2.413
 8067W        W72275   4.795  40.532   1.711
 8068W        W72276  43.400  19.726   2.209
 8069W        W72277  40.995  25.128  12.086
 8070W        W72278  23.185  24.060   1.713
 8071W        W72279  41.791  33.577  14.901
 8072W        W72280  13.708  29.548   3.193
 8073W        W72281  30.591   2.401  13.893
 8074W        W72282  10.350  28.059   5.149
 8075W        W72283  30.428   5.783  11.610
 8076W        W72284  28.487  26.026  10.417
 8077W        W72285  39.872  38.966  10.889
 8078W        W72286   2.824  11.158   3.817
 8079W        W72287  23.646  30.974   4.706
 8080W        W72288  42.302   6.864   1.785
 8081W        W72289  14.650  16.582  10.446
 8082W        W72290  29.974  29.660  14.400
 8083W        W72291   3.422  18.241   4.232
 8084W        W72292   3.803  26.483  13.057
 8085W        W72293  18.057  12.336   2.261
 8086W        W72294  13.808   4.292  13.894
 8087W        W72295  33.544  35.917   2.800
 8088W        W72296  36.348  13.210   3.855
 8089W        W72297  37.576  21.557  10.471
 8090W        W72298  31.526  32.129   3.795
 8091W        W72299  32.454  33.109   2.335
 8092W        W72300  40.494   1.328   2.724
 8093W        W72301  28.167   7.824   0.305
 8094W        W72302  34.098   4.228   4.832
 8095W        W72303   3.778  35.566   4.673
 8096W        W72304  22.014  33.981  13.983
 8097W        W72305   2.384  20.055  11.018
 8098W        W72306  26.662  18.116   4.836
 8099W        W72307  17.758  32.475   0.452
 8100W        W72308  23.186  21.615   0.884
 8101W        W72309   5.739  33.055   4.739
 8102W        W72310  34.988  27.615   0.849
 8103W        W72311   5.318  22.168   4.748
 8104W        W72312   4.782  44.407  14.407
 8105W        W72313  34.042  39.333   3.820
 8106W        W72314   2.767   4.264   5.721
 8107W        W72315   9.330  19.637   2.361
 8108W        W72316   9.191  29.995   2.864
 8109W        W72317  30.602  14.673   4.615
 8110W        W72318  35.880  28.963   0.855
 8111W        W72319  22.132  42.905   3.855
 8112W        W72320  40.472  21.123   1.330
 8113W        W72321   5.196   1.941  11.528
 8114W        W72322  34.902  17.180  12.084
 8115W        W72323  38.940  10.775  13.547
 8116W        W72324  28.019   1.451   0.414
 8117W        W72325  25.502  21.748  12.851
 8118W        W72326   4.779  22.056   4.786
 8119W        W72327   8.818  30.971  13.841
 8120W        W72328   0.262  22.656   1.436
 8121W        W72329  38.555  13.261  11.012
 8122W        W72330  32.618  21.054   2.276
 8123W        W72331  27.944  42.888  10.996
 8124W        W72332  15.680  43.281  13.014
 8125W        W72333  16.086   2.791  12.860
 8126W        W72334  31.475  32.099  13.017
 8127W        W72335  39.916   3.836  10.896
 8128W        W72336  21.147  40.310   0.876
 8129W        W72337  42.980   0.250   9.953
 8130W        W72338  38.518   9.387   3.380
 8131W        W72339  31.028  27.618  13.992
 8132W        W72340  41.418  33.955   4.122
 8133W        W72341  23.574  25.061  14.019
 8134W        W72342   6.336  34.489  13.321
 8135W        W72343  10.713  14.212   2.852
 8136W        W72344  30.625   9.811   3.833
 8137W        W72345  20.621  32.942   3.202
 8138W        W72346   8.858  10.247  14.790
 8139W        W72347   6.838  20.759  13.060
 8140W        W72348   4.437  37.039  11.936
 8141W        W72349   8.705  39.437  11.969
 8142W        W72350  33.903   8.894   2.752
 8143W        W72351  34.952  25.633   3.727
 8144W        W72352  20.139   3.352   3.729
 8145W        W72353   0.264  40.508  13.915
 8146W        W72354  11.281  33.886  11.554
 8147W        W72355  32.949   6.373   2.222
 8148W        W72356  12.260  19.167  11.945
 8149W        W72357   8.162  19.647   3.215
 8150W        W72358  23.999  35.523  14.896
 8151W        W72359   4.354   7.307  11.043
 8152W        W72360  38.908  31.930  10.017
 8153W        W72361  25.704  35.859  14.802
 8154W        W72362   8.217  18.783   2.222
 8155W        W72363  38.995  18.221  12.981
 8156W        W72364  23.675   5.270   4.117
 8157W        W72365   3.791  35.413  14.404
 8158W        W72366  44.953  23.145   4.163
 8159W        W72367   3.891  23.093   1.337
 8160W        W72368  39.025  14.711  11.508
 8161W        W72369  43.795   6.863  13.395
 8162W        W72370  26.492  31.122  13.898
 8163W        W72371  42.863  27.125   3.673
 8164W        W72372  33.128  33.915  10.975
 8165W        W72373  10.742  39.424   0.341
 8166W        W72374  42.452  38.930  13.794
 8167W        W72375  11.342  34.936   4.796
 8168W        W72376  34.038  25.018  13.433
 8169W        W72377  26.667  35.463   2.389
 8170W        W72378  14.162  16.648  12.844
 8171W        W72379  38.060  19.567  14.282
 8172W        W72380  35.591   4.413   0.394
 8173W        W72381  42.359  36.488   1.807
 8174W        W72382   1.921  27.680   2.403
 8175W        W72383  42.337  20.210  12.928
 8176W        W72384  21.598  36.924  13.538
 8177W        W72385  21.107  24.550   4.159
 8178W        W72386  17.067   1.393   3.648
 8179W        W72387   2.388  10.266   4.604
 8180W        W72388  14.121  42.999  11.538
 8181W        W72389  34.097   5.819   3.333
 8182W        W72390  21.581  33.063   3.760
 8183W        W72391  44.977   6.385   0.754
 8184W        W72392  39.318  17.726   4.145
 8185W        W72393   4.448  29.926   0.911
 8186W        W72394   4.325  14.270  14.030
 8187W        W72395  33.998  22.181   2.261
 8188W        W72396  41.013   7.386   2.814
 8189W        W72397  11.341  21.747   1.773
 8190W        W72398  21.218   1.251  12.018
 8191W        W72399  38.070  23.075  11.481
 8192W        W72400   7.847  27.461  14.508
 8193W        W72401  21.614  32.481  14.834
 8194W        W72402   4.233  44.417  12.934
 8195W        W72403  28.027  34.595   3.809
 8196W        W72404  33.544  16.270   4.302
 8197W        W72405  44.787  40.879   3.338
 8198W        W72406   5.345  24.629  11.077
 8199W        W72407  34.010  26.144  14.393
 8200W        W72408   3.310  37.407   2.863
 8201W        W72409  11.341  27.132   1.827
 8202W        W72410  34.505  39.027   2.791
 8203W        W72411  34.908  15.195  12.522
 8204W        W72412  44.420  40.540  14.803
 8205W        W72413  27.530  27.560  12.012
 8206W        W72414  41.323   5.822   1.739
 8207W        W72415  18.131  29.617  10.939
 8208W        W72416  33.469   8.801   0.470
 8209W        W72417   9.163  36.011   3.866
 8210W        W72418  28.643  41.969  11.082
 8211W        W72419  12.194  44.402   2.291
 8212W        W72420  19.154  34.019  13.848
 8213W        W72421  32.551  32.518   0.740
 8214W        W72422  37.033  40.354  12.828
 8215W        W72423  10.849  28.626  11.535
 8216W        W72424  30.107  24.486  14.282
 8217W        W72425  14.824  27.488   3.370
 8218W        W72426  36.973  29.602  14.835
 8219W        W72427  38.943  20.071  13.421
 8220W        W72428  21.657  27.683  12.475
 8221W        W72429  43.770  38.044  12.894
 8222W        W72430  21.054  29.448   0.267
 8223W        W72431  39.425   8.828  14.975
 8224W        W72432  15.814  13.614  13.489
 8225W        W72433   1.843  30.084   4.684
 8226W        W72434  25.478  42.851   5.245
 8227W        W72435  32.431  28.582   4.678
 8228W        W72436  25.105  37.578  10.947
 8229W        W72437   5.782  28.514  11.925
 8230W        W72438  36.883  36.075  10.556
 8231W        W72439  31.447  14.676  12.018
 8232W        W72440  25.152  17.294   1.277
 8233W        W72441  35.104  20.527  13.484
 8234W        W72442  44.389   3.752  13.006
 8235W        W72443  10.761   6.229  13.990
 8236W        W72444  30.503  22.121  10.476
 8237W        W72445  18.590  28.063   0.258
 8238W        W72446  25.682  13.267  14.421
 8239W        W72447   0.908  19.215  13.512
 8240W        W72448  29.660   6.183  13.910
 8241W        W72449  21.234  35.888   1.226
 8242W        W72450  42.840  34.423   1.906
 8243W        W72451  42.986  21.123   2.710
 8244W        W72452  43.828  33.591  11.384
 8245W        W72453  26.655  25.579  10.615
 8246W        W72454  18.678  21.097  11.999
 8247W        W72455  12.854  35.414   4.182
 8248W        W72456  20.717   7.786  14.301
 8249W        W72457  44.300   3.722   2.851
 8250W        W72458   7.407  29.460  13.026
 8251W        W72459  19.128   0.900   2.206
 8252W        W72460   2.928  33.521   4.197
 8253W        W72461   5.382  25.518   1.382
 8254W        W72462  22.081  38.357   0.858
 8255W        W72463  44.394  17.242   2.308
 8256W        W72464  13.801  39.902  12.882
 8257W        W72465  44.772   1.332   4.228
 8258W        W72466  26.466  37.450  14.402
 8259W        W72467  21.106   2.237   2.822
 8260W        W72468   6.384   8.867  14.967
 8261W        W72469  36.566  20.029  12.063
 8262W        W72470  39.427  20.615   0.942
 8263W        W72471  41.451  25.504  10.534
 8264W        W72472   0.883  16.649   4.645
 8265W        W72473   7.796  40.984   2.815
 8266W        W72474  34.871  18.259   2.257
 8267W        W72475  26.986   3.880   0.395
 8268W        W72476  25.635   7.223  11.981
 8269W        W72477  11.245  30.997   1.884
 8270W        W72478   5.854  12.828  13.423
 8271W        W72479   7.327  12.160   3.824
 8272W        W72480  18.779  42.464  10.467
 8273W        W72481   6.394  35.583  10.058
 8274W        W72482   2.941  12.323   3.781
 8275W        W72483  30.642   0.960  13.859
 8276W        W72484  38.326  38.460  12.006
 8277W        W72485  33.951  33.563  13.372
 8278W        W72486  40.506  38.546  10.535
 8279W        W72487   4.701   7.395   0.300
 8280W        W72488  30.047  26.192   2.267
 8281W        W72489  36.491   5.796  11.505
 8282W        W72490  14.720  30.147  10.916
 8283W        W72491   2.379  37.345   2.304
 8284W        W72492  19.285  30.588  13.828
 8285W        W72493  44.766  21.709   2.255
 8286W        W72494  44.260  17.176   3.826
 8287W        W72495  25.558  44.387   0.739
 8288W        W72496  13.260   3.238   0.790
 8289W        W72497  37.950   4.709   1.702
 8290W        W72498  41.042  33.387  14.024
 8291W        W72499   3.881  36.960   4.215
 8292W        W72500   6.396  22.574   3.702
 8293W        W72501  17.130  43.831   1.385
 8294W        W72502  39.022  28.530   4.779
 8295W        W72503   5.256   2.265  11.566
 8296W        W72504  34.060  41.294   1.786
 8297W        W72505  34.874  14.187  10.152
 8298W        W72506   7.733   2.819  13.961
 8299W        W72507  33.097  17.126   2.783
 8300W        W72508   6.683  11.238   0.820
 8301W        W72509  26.025   0.981   2.820
 8302W        W72510  43.463  26.200  14.950
 8303W        W72511  16.751   2.411   2.282
 8304W        W72512  31.632  26.594   2.898
 8305W        W72513  41.850   6.243   5.090
 8306W        W72514  29.108   8.875  10.938
 8307W        W72515  42.425  36.977  14.942
 8308W        W72516  16.142  26.664  10.451
 8309W        W72517  21.712  10.144  13.337
 8310W        W72518   5.815  44.295  11.974
 8311W        W72519  40.521  10.797  11.478
 8312W        W72520  36.403  17.758   2.839
 8313W        W72521  30.122  16.316  12.891
 8314W        W72522   7.889  43.361   4.264
 8315W        W72523  29.596  18.276   1.748
 8316W        W72524  22.506  44.918   2.710
 8317W        W72525  23.134  28.159  12.831
 8318W        W72526  31.511  34.532   4.764
 8319W        W72527  18.745  22.530   0.463
 8320W        W72528  14.199   2.457  12.505
 8321W        W72529  11.821  23.690   4.714
 8322W        W72530  43.462  37.940   2.360
 8323W        W72531   6.913  28.531   3.187
 8324W        W72532  21.123  40.834   3.796
 8325W        W72533  35.558  24.209  12.407
 8326W        W72534  29.561  12.225   3.227
 8327W        W72535  31.027  33.999   1.868
 8328W        W72536  36.854   0.980   4.778
 8329W        W72537   3.316   7.814   0.349
 8330W        W72538  22.098  34.924  13.476
 8331W        W72539  28.509  26.703   0.395
 8332W        W72540   1.837   6.210   0.809
 8333W        W72541  24.151  26.627  10.634
 8334W        W72542  44.404  39.851   5.238
 8335W        W72543  43.347  29.543  12.991
 8336W        W72544  35.867   7.328  13.867
 8337W        W72545  19.609   0.320  10.556
 8338W        W72546  37.497  37.982   3.377
 8339W        W72547  42.372   6.368   4.754
 8340W        W72548   9.785   4.883   3.187
 8341W        W72549  37.854  42.851   2.199
 8342W        W72550  22.674  25.644   9.959
 8343W        W72551  31.518  34.554  14.920
 8344W        W72552  32.565  23.051  13.947
 8345W        W72553  44.465  11.811  12.017
 8346W        W72554  13.817  10.796   2.736
 8347W        W72555  10.867  17.676   4.144
 8348W        W72556  38.041  17.590   1.789
 8349W        W72557  44.854  25.662  14.930
 8350W        W72558  36.387   7.753   0.397
 8351W        W72559  20.602  37.387   1.790
 8352W        W72560   1.289  26.047   3.351
 8353W        W72561   1.465  34.511  11.445
 8354W        W72562  24.537  42.841   1.842
 8355W        W72563  42.848  11.695   0.280
 8356W        W72564  39.861  13.773  11.411
 8357W        W72565  10.873  34.100  11.900
 8358W        W72566  31.501   2.276   0.402
 8359W        W72567  23.022  40.854   0.885
 8360W        W72568  26.141   8.852   4.697
 8361W        W72569   6.213  29.484   4.601
 8362W        W72570   8.871  44.863  12.985
 8363W        W72571  37.867  37.921  11.918
 8364W        W72572  10.249  43.960  14.388
 8365W        W72573  12.244  43.924   2.792
 8366W        W72574  13.343   3.361  12.878
 8367W        W72575  34.908  20.041   3.774
 8368W        W72576  29.423  16.637   3.679
 8369W        W72577  25.965   8.703  11.584
 8370W        W72578  14.267  26.994  10.521
 8371W        W72579  23.657  33.986   3.237
 8372W        W72580  26.137  34.436   3.826
 8373W        W72581  17.635  26.092   4.286
 8374W        W72582  14.106  27.181  14.882
 8375W        W72583   9.664  11.250  14.393
 8376W        W72584   2.818  19.263   0.782
 8377W        W72585  35.947  39.914  14.799
 8378W        W72586  39.026  13.652   0.910
 8379W        W72587  29.167  33.008   0.856
 8380W        W72588  29.933  14.219  14.840
 8381W        W72589  30.474   8.251  10.611
 8382W        W72590   6.737  10.200   4.150
 8383W        W72591  34.440  15.156  14.496
 8384W        W72592  24.540   0.484   3.843
 8385W        W72593  19.540   1.819   2.325
 8386W        W72594   2.907  43.353  13.487
 8387W        W72595  24.558  31.439  11.471
 8388W        W72596  33.928  23.036   3.373
 8389W        W72597   9.704  12.750   1.763
 8390W        W72598  17.569  35.361   4.687
 8391W        W72599   3.897  14.690  10.441
 8392W        W72600   9.831   1.312   1.893
 8393W        W72601  38.857  38.901   4.764
 8394W        W72602   7.400  37.086   3.720
 8395W        W72603   1.308  25.565   1.782
 8396W        W72604  31.968  30.965   2.278
 8397W        W72605  18.643  12.730  13.320
 8398W        W72606  26.595  19.615  11.506
 8399W        W72607  26.199  43.879   4.637
 8400W        W72608  11.355   8.390   0.898
 8401W        W72609  34.108   7.300  12.850
 8402W        W72610  42.954   3.925   2.740
 8403W        W72611  31.934  43.346   0.296
 8404W        W72612  34.530  44.859  11.453
 8405W        W72613  36.092  18.578  11.382
 8406W        W72614  41.333   3.423  14.823
 8407W        W72615  22.030  43.014  10.937
 8408W        W72616  39.833   1.335   9.492
 8409W        W72617  37.985   6.698  14.326
 8410W        W72618  19.667  32.570  11.909
 8411W        W72619  32.402  13.271   1.782
 8412W        W72620  41.024  36.988  13.059
 8413W        W72621  29.442  32.497  14.027
 8414W        W72622  16.643  30.145   4.665
 8415W        W72623  33.601  22.073  14.975
 8416W        W72624  17.743  10.240   0.259
 8417W        W72625  39.046  17.223   5.696
 8418W        W72626  36.435   5.257  12.398
 8419W        W72627  42.909  37.446  10.593
 8420W        W72628  38.989  28.511   1.441
 8421W        W72629   4.207   6.882   3.348
 8422W        W72630  24.016  26.957   0.890
 8423W        W72631  36.570  12.202   1.823
 8424W        W72632  39.444   2.343  12.919
 8425W        W72633  43.486   3.318  10.896
 8426W        W72634  25.067  25.611   4.685
 8427W        W72635  26.016  40.911  11.472
 8428W        W72636   0.916  28.037   0.242
 8429W        W72637  39.460   4.427   1.309
 8430W        W72638  36.460  13.152   0.394
 8431W        W72639  13.135  18.785   0.326
 8432W        W72640  11.314   6.686   2.352
 8433W        W72641   5.394  23.093   2.357
 8434W        W72642   9.315  40.476  10.030
 8435W        W72643  41.537   1.468   2.195
 8436W        W72644   9.808  43.002   5.153
 8437W        W72645   5.228  17.648   0.769
 8438W        W72646  37.562  26.104  11.477
 8439W        W72647  41.413   0.430  12.504
 8440W        W72648  40.460  35.855  10.585
 8441W        W72649  15.792   9.343   4.723
 8442W        W72650  35.444  36.495   3.824
 8443W        W72651  14.647  13.670   2.188
 8444W        W72652  10.331  20.585  13.918
 8445W        W72653  35.991  24.982   2.874
 8446W        W72654   0.275   0.925  13.354
 8447W        W72655  41.408   1.859   2.403
 8448W        W72656   3.739  18.747   2.766
 8449W        W72657   3.311  25.037  11.958
 8450W        W72658  44.968   2.385   0.793
 8451W        W72659  34.900   8.303   3.361
 8452W        W72660  18.610  38.571  11.382
 8453W        W72661  31.444  31.602   0.929
 8454W        W72662  44.934   6.820  12.537
 8455W        W72663  36.393   8.807  10.117
 8456W        W72664  22.106  29.079   3.852
 8457W        W72665  25.687  24.129  14.516
 8458W        W72666   6.774   6.756  14.027
 8459W        W72667  30.603  39.829  12.852
 8460W        W72668  21.607  35.077   1.324
 8461W        W72669  31.563  42.430   1.283
 8462W        W72670   5.288  25.577  11.980
 8463W        W72671  14.131  36.433   1.832
 8464W        W72672  37.992  21.517  12.540
 8465W        W72673   3.221  22.007  14.826
 8466W        W72674  43.287  33.905   0.292
 8467W        W72675   3.938   0.896   0.737
 8468W        W72676   3.414  12.357   0.855
 8469W        W72677  36.380  20.198  13.014
 8470W        W72678   9.754  26.953   2.343
 8471W        W72679  32.624  18.683   1.359
 8472W        W72680  42.917  13.333   0.431
 8473W        W72681  29.026  20.545   1.284
 8474W        W72682  15.607   3.394   1.710
 8475W        W72683  13.789  14.332  11.064
 8476W        W72684  20.186  27.067  11.879
 8477W        W72685  19.165  34.596   4.154
 8478W        W72686  18.290   2.275  13.457
 8479W        W72687  11.812  24.011  10.896
 8480W        W72688  27.973  18.267   4.675
 8481W        W72689  42.468  28.138  12.030
 8482W        W72690  18.621  43.911   1.224
 8483W        W72691  15.664  18.633   4.807
 8484W        W72692  13.749  42.384  14.880
 8485W        W72693   2.379  12.344   0.812
 8486W        W72694   6.701  43.297  13.933
 8487W        W72695   4.784  25.533  14.417
 8488W        W72696  38.339  14.146   0.276
 8489W        W72697  33.417  38.051  12.962
 8490W        W72698  24.123  27.643  12.999
 8491W        W72699  41.975   1.790   4.192
 8492W        W72700  13.216   1.731   2.270
 8493W        W72701  23.173  29.964  11.492
 8494W        W72702   9.357  32.569   1.319
 8495W        W72703  27.149  23.108  10.599
 8496W        W72704  38.563  40.894   1.417
 8497W        W72705  11.837  10.143   3.364
 8498W        W72706  42.911  21.754   0.307
 8499W        W72707  23.512  41.365  13.333
 8500W        W72708  21.733   5.696  12.990
 8501W        W72709  32.536  23.020   0.274
 8502W        W72710   6.388  39.840   0.356
 8503W        W72711  31.002  13.789   2.331
 8504W        W72712  16.160   9.330  10.639
 8505W        W72713  23.602  25.100   1.910
 8506W        W72714  17.778  17.248   3.324
 8507W        W72715   0.828  13.711   0.868
 8508W        W72716  37.893  17.696  11.891
 8509W        W72717  15.733  23.714  12.027
 8510W        W72718   3.904  44.470  12.967
 8511W        W72719   2.949  39.839   3.655
 8512W        W72720  33.625  13.210  11.053
 8513W        W72721   9.197  32.983  14.453
 8514W        W72722  28.157  18.600   2.223
 8515W        W72723  44.471   6.251  12.063
 8516W        W72724   2.233  32.589   3.267
 8517W        W72725   4.424  13.193  13.911
 8518W        W72726  13.629  27.595   3.147
 8519W        W72727   2.804   8.795   3.708
 8520W        W72728   0.432   1.732  14.456
 8521W        W72729  10.311  37.036   4.696
 8522W        W72730  26.565  24.491   1.821
 8523W        W72731  32.001  32.465  13.464
 8524W        W72732  11.214   3.379  12.510
 8525W        W72733   9.279  31.455   2.716
 8526W        W72734   4.744  28.486   3.354
 8527W        W72735  34.553  35.436  14.364
 8528W        W72736  24.707  11.848  12.494
 8529W        W72737  12.340  27.125   3.223
 8530W        W72738   0.436  29.045   4.235
 8531W        W72739  29.005   8.294   4.166
 8532W        W72740  26.517  37.439  11.127
 8533W        W72741  13.160   6.341  12.860
 8534W        W72742  40.022   6.736  14.311
 8535W        W72743  17.203   9.724   2.414
 8536W        W72744   3.807  17.152  10.512
 8537W        W72745  14.315  19.101   3.297
 8538W        W72746  24.126  21.193   4.209
 8539W        W72747   5.248   3.777   4.770
 8540W        W72748  15.603  26.077   4.242
 8541W        W72749  23.647  26.676  10.459
 8542W        W72750  38.357  34.014  12.088
 8543W        W72751  11.665   9.701   1.384
 8544W        W72752  29.931  34.060   1.297
 8545W        W72753   6.225  12.154  14.855
 8546W        W72754   9.692  24.724  13.325
 8547W        W72755  10.154   5.788   0.791
 8548W        W72756  10.233   8.232   2.757
 8549W        W72757  42.426   7.891  11.479
 8550W        W72758  26.070  22.726  12.375
 8551W        W72759  43.401  26.491   1.697
 8552W        W72760   6.771  44.343   4.646
 8553W        W72761   9.242  38.486   4.237
 8554W        W72762  14.219  27.054  12.395
 8555W        W72763  41.949  26.164   0.341
 8556W        W72764  20.036  33.984  13.011
 8557W        W72765   5.207  20.113   0.338
 8558W        W72766  16.271  16.301   0.448
 8559W        W72767  21.541  40.943  12.346
 8560W        W72768  22.608   5.703   5.171
 8561W        W72769  16.749  27.524   1.355
 8562W        W72770  32.141   4.400  11.115
 8563W        W72771  13.631  40.870   4.721
 8564W        W72772  17.686  15.660   2.779
 8565W        W72773  43.313   1.400   2.322
 8566W        W72774  24.632  10.662  13.876
 8567W        W72775   7.365  18.275  11.124
 8568W        W72776  35.859   0.354   1.264
 8569W        W72777   7.901  40.928   4.343
 8570W        W72778  23.717  15.302  12.570
 8571W        W72779  32.002   1.739   0.330
 8572W        W72780  39.488  31.021   0.456
 8573W        W72781  15.203  39.367  13.468
 8574W        W72782  35.397   6.407   2.326
 8575W        W72783  40.507  30.042   4.256
 8576W        W72784  33.966  11.716  11.016
 8577W        W72785   2.801   1.308  11.954
 8578W        W72786  37.510  34.405   4.629
 8579W        W72787  17.193  14.800  14.965
 8580W        W72788  37.970  17.265  13.899
 8581W        W72789   3.720   1.857  10.567
 8582W        W72790  33.926  11.679   4.207
 8583W        W72791  43.508   4.383  11.107
 8584W        W72792   4.382  12.226  14.284
 8585W        W72793   8.304   4.211  10.541
 8586W        W72794  36.423   7.687   2.741
 8587W        W72795  16.624  22.241   4.711
 8588W        W72796  41.492   1.290  14.384
 8589W        W72797  38.481  44.852   1.737
 8590W        W72798   3.923  24.688  13.807
 8591W        W72799  44.819  29.583   2.233
 8592W        W72800  29.059  33.466  10.612
 8593W        W72801  16.660  27.524  10.590
 8594W        W72802  13.818  13.235   3.838
 8595W        W72803   3.277  34.566  13.875
 8596W        W72804  39.823   4.354   4.225
 8597W        W72805   6.307   9.158   2.901
 8598W        W72806  14.674  30.546   2.786
 8599W        W72807   4.373   9.363   3.248
 8600W        W72808  16.237  37.515   0.863
 8601W        W72809  29.079   4.301   3.260
 8602W        W72810  39.425  23.139   3.177
 8603W        W72811  10.740   0.811   1.354
 8604W        W72812  16.120  13.188   0.960
 8605W        W72813  32.896  15.702   1.715
 8606W        W72814  24.481   2.950   1.702
 8607W        W72815   4.369  32.496   0.467
 8608W        W72816  25.680  21.600  12.036
 8609W        W72817   4.898  18.716  12.036
 8610W        W72818   8.831   8.682  12.496
 8611W        W72819  30.522   8.404   3.870
 8612W        W72820  44.293  21.019  10.109
 8613W        W72821  36.393  13.643   0.419
 8614W        W72822  21.221   2.286  13.336
 8615W        W72823  27.074  22.572  12.449
 8616W        W72824  24.510  20.740  10.427
 8617W        W72825  38.021   0.420  11.917
 8618W        W72826  36.467  13.656   0.749
 8619W        W72827  43.393  10.765   3.681
 8620W        W72828   6.883  30.913  10.467
 8621W        W72829  38.834  17.079   2.322
 8622W        W72830   3.399  32.487   3.857
 8623W        W72831  37.060   8.843   3.265
 8624W        W72832   5.752  26.492  11.882
 8625W        W72833  44.288  23.062   1.876
 8626W        W72834  34.887  31.637  13.449
 8627W        W72835  22.532  28.659  14.788
 8628W        W72836   1.809  21.236   2.346
 8629W        W72837  31.410  20.042  11.044
 8630W        W72838  38.954   4.917  11.084
 8631W        W72839  21.171  27.067  13.871
 8632W        W72840   7.878  12.302  10.439
 8633W        W72841   7.816   8.864  13.330
 8634W        W72842  32.088  14.293   4.243
 8635W        W72843  44.330  26.471   4.613
 8636W        W72844  13.151  31.108  12.386
 8637W        W72845  13.835  16.313  14.919
 8638W        W72846   7.833   9.676  10.999
 8639W        W72847   8.271   7.714  12.980
 8640W        W72848  27.493  40.542  14.506
 8641W        W72849  25.047   9.875  14.828
 8642W        W72850   4.412   6.862   2.713
 8643W        W72851  37.961   2.307  11.939
 8644W        W72852  43.366  29.454  11.866
 8645W        W72853  25.151   1.247   2.896
 8646W        W72854  26.064   2.370  14.394
 8647W        W72855  13.237  19.238  13.009
 8648W        W72856  17.106  36.361  11.880
 8649W        W72857  31.468  37.028  12.492
 8650W        W72858   3.408  26.184   4.631
 8651W        W72859   6.275  18.561   4.638
 8652W        W72860  34.936  28.081  10.492
 8653W        W72861   7.404  13.248  11.977
 8654W        W72862  15.762   3.872   2.310
 8655W        W72863  39.961   4.236  10.450
 8656W        W72864   1.737  42.022  14.468
 8657W        W72865  30.000  30.075   4.688
 8658W        W72866   9.314  29.017   3.808
 8659W        W72867   1.820  23.575  11.073
 8660W        W72868  16.225  38.041  10.958
 8661W        W72869  17.768  38.380   2.383
 8662W        W72870  10.771  31.909   1.253
 8663W        W72871   7.229  44.371   2.728
 8664W        W72872  43.958  31.544  11.002
 8665W        W72873  19.637  14.095   1.338
 8666W        W72874  30.090  35.016   2.724
 8667W        W72875   8.387  43.497  14.772
 8668W        W72876  13.277   8.837   1.756
 8669W        W72877  39.905  29.963  12.392
 8670W        W72878  23.665  42.942   1.910
 8671W        W72879  32.533  38.409   0.907
 8672W        W72880  34.021  25.091   1.889
 8673W        W72881  33.060  22.560  13.314
 8674W        W72882  12.322  39.435  11.920
 8675W        W72883  21.227  15.098   9.980
 8676W        W72884  40.304  27.976   3.756
 8677W        W72885  25.975   9.859   1.732
 8678W        W72886  39.448  11.348   2.704
 8679W        W72887  42.350  10.818  12.481
 8680W        W72888  32.127  15.303   0.926
 8681W        W72889  21.648  24.497   1.347
 8682W        W72890  33.915   2.821  11.057
 8683W        W72891  23.578  14.237  13.945
 8684W        W72892   1.828  13.631  10.991
 8685W        W72893  30.581  10.201   2.284
 8686W        W72894  44.884  35.934  12.858
 8687W        W72895   3.728  44.330   3.173
 8688W        W72896  10.828  17.770   2.412
 8689W        W72897  24.197  11.745  12.469
 8690W        W72898  42.943  29.451   1.826
 8691W        W72899  15.701   2.756  14.868
 8692W        W72900   5.375  20.076  13.794
 8693W        W72901  28.998  39.432   2.362
 8694W        W72902   0.326   4.252  13.410
 8695W        W72903  17.072  30.582  14.890
 8696W        W72904  13.318  37.579   3.230
 8697W        W72905   2.835  12.637   3.750
 8698W        W72906   1.857   2.469   1.839
 8699W        W72907  30.474  10.681  14.449
 8700W        W72908  44.811  38.362   0.411
 8701W        W72909  24.219   1.738   3.683
 8702W        W72910  21.615  19.578  10.506
 8703W        W72911  37.411   7.285   1.931
 8704W        W72912  26.009  33.892   4.763
 8705W        W72913  15.237  39.982   3.742
 8706W        W72914  30.615  39.880  12.349
 8707W        W72915  31.139  24.487   3.815
 8708W        W72916  36.526  17.184   9.971
 8709W        W72917  36.930  43.924   3.764
 8710W        W72918   8.760   7.835   2.787
 8711W        W72919  36.551  44.489  11.574
 8712W        W72920  27.479  30.967  10.943
 8713W        W72921  31.622  23.175   2.697
 8714W        W72922  35.525   1.847  14.932
 8715W        W72923  28.552  13.831   4.175
 8716W        W72924  30.095  43.412   3.253
 8717W        W72925  40.480  22.516  13.392
 8718W        W72926  20.191   1.918  11.057
 8719W        W72927  19.067   2.454  11.446
 8720W        W72928  36.408  28.150  11.977
 8721W        W72929  37.028  25.688  12.361
 8722W        W72930   1.742  34.962   1.754
 8723W        W72931  22.618   7.240   5.161
 8724W        W72932  17.631  35.084  10.582
 8725W        W72933  14.217  18.762  13.390
 8726W        W72934  39.001  44.992  13.310
 8727W        W72935  36.416   2.251  11.988
 8728W        W72936  41.313  22.238  10.458
 8729W        W72937  25.616  10.722   4.157
 8730W        W72938  34.871  23.013   2.803
 8731W        W72939   4.861  24.055   3.230
 8732W        W72940  14.155  17.677  13.548
 8733W        W72941  32.972   8.678   0.761
 8734W        W72942  37.889  42.945   2.702
 8735W        W72943   0.877  39.999  14.367
 8736W        W72944   6.841  30.044  12.898
 8737W        W72945  31.137  24.698   4.650
 8738W        W72946  35.906   1.317  11.907
 8739W        W72947   1.868   7.703  12.921
 8740W        W72948   3.297  14.779  12.578
 8741W        W72949  14.633  38.044  12.533
 8742W        W72950  23.027  26.694  10.417
 8743W        W72951   1.412  38.838   0.948
 8744W        W72952   5.308  22.147   2.673
 8745W        W72953  19.755  19.279   2.851
 8746W        W72954   2.363  35.979  13.387
 8747W        W72955  29.582   3.903   1.276
 8748W        W72956  23.629  38.438   2.312
 8749W        W72957   2.764  19.580   1.396
 8750W        W72958  10.150  33.989  14.984
 8751W        W72959  27.025  42.998  11.493
 8752W        W72960  35.455  29.987   0.251
 8753W        W72961  21.747   3.424   4.263
 8754W        W72962  15.097  28.524  10.458
 8755W        W72963  35.373  29.530   1.410
 8756W        W72964  11.737  32.025   0.357
 8757W        W72965   2.903  27.483   3.805
 8758W        W72966  35.376  11.161   1.278
 8759W        W72967  25.615   6.722  12.940
 8760W        W72968  39.855   3.929   1.853
 8761W        W72969  27.140  14.608   0.919
 8762W        W72970  36.935  24.592  10.559
 8763W        W72971  36.920  19.285  11.937
 8764W        W72972   7.800  15.590   5.137
 8765W        W72973  15.637  21.079  13.497
 8766W        W72974  31.460  23.233  10.427
 8767W        W72975  31.642  43.875   2.407
 8768W        W72976   2.873   2.371   5.134
 8769W        W72977  34.865   4.324  11.915
 8770W        W72978  32.964  13.842  13.441
 8771W        W72979  22.552  17.674  11.918
 8772W        W72980  32.066  20.062  14.940
 8773W        W72981  11.740  39.917  14.973
 8774W        W72982  37.971   3.891  12.504
 8775W        W72983   1.731  27.592  14.798
 8776W        W72984   2.407   4.716  13.962
 8777W        W72985  25.494   0.335   2.345
 8778W        W72986   5.866  37.511   2.781
 8779W        W72987  43.305  44.334  10.961
 8780W        W72988  21.653   2.886  10.923
 8781W        W72989  26.685  42.916   4.648
 8782W        W72990  24.528  32.088   4.627
 8783W        W72991  21.087  36.467   1.722
 8784W        W72992  26.985  19.277   3.261
 8785W        W72993  34.507   9.704  10.449
 8786W        W72994   5.431  34.382   0.876
 8787W        W72995  26.691  11.697  14.957
 8788W        W72996  31.989   2.309  10.983
 8789W        W72997  32.990  33.957   4.673
 8790W        W72998  30.569   6.227  12.965
 8791W        W72999  31.997  27.650   3.743
 8792W        W73000   4.837   3.900  13.933
 8793W        W73001  23.233   7.758  13.502
 8794W        W73002  13.729  22.171  14.402
 8795W        W73003  44.293  26.953  11.051
 8796W        W73004  24.139   2.461   0.451
 8797W        W73005  14.123  34.443   2.814
 8798W        W73006  31.121   0.356  13.833
 8799W        W73007  17.742  39.949   0.923
 8800W        W73008  19.764  21.719   2.869
 8801W        W73009  25.603  32.429   3.751
 8802W        W73010   1.850   1.308  13.458
 8803W        W73011   7.321   0.390   2.280
 8804W        W73012  20.615  28.965   1.440
 8805W        W73013  33.960  31.496   4.808
 8806W        W73014  30.636  18.683   0.481
 8807W        W73015  19.205   1.314  14.294
 8808W        W73016   7.821   8.818   2.866
 8809W        W73017  31.519  32.010  14.438
 8810W        W73018  10.675  36.562   4.747
 8811W        W73019  42.919  22.505   0.828
 8812W        W73020   2.416  28.155  10.098
 8813W        W73021  37.984  19.186   5.210
 8814W        W73022  36.444  42.810   1.231
 8815W        W73023   6.826  11.635  12.507
 8816W        W73024  23.706  16.187   3.822
 8817W        W73025  44.003  25.216  14.864
 8818W        W73026  42.930  13.673   0.364
 8819W        W73027  16.776   9.880   1.815
 8820W        W73028   2.805  16.708  14.809
 8821W        W73029  33.511   1.872   3.308
 8822W        W73030  16.082  42.349  12.860
 8823W        W73031  18.583  42.780  13.056
 8824W        W73032  41.011  13.159  12.885
 8825W        W73033  14.765   0.847  14.953
 8826W        W73034  22.553  25.033  13.804
 8827W        W73035  29.973  36.568   4.161
 8828W        W73036  44.949  16.159  11.389
 8829W        W73037  35.471  25.682  12.007
 8830W        W73038   2.354  41.824  14.505
 8831W        W73039  25.618  33.422  10.467
 8832W        W73040  19.646  27.512  14.998
 8833W        W73041  37.994  10.733   2.786
 8834W        W73042  16.172  37.082  13.829
 8835W        W73043  36.446  10.226   2.377
 8836W        W73044  31.928  28.617  11.458
 8837W        W73045  15.111  23.644  14.006
 8838W        W73046  39.344   7.825  12.546
 8839W        W73047  15.160  12.785   2.361
 8840W        W73048  20.105  44.826  12.527
 8841W        W73049  36.904  31.080   3.772
 8842W        W73050  30.444  40.510  14.498
 8843W        W73051   7.859  15.729  11.941
 8844W        W73052  11.673  32.410   3.708
 8845W        W73053   0.442   7.741  12.959
 8846W        W73054  27.590  22.586   2.746
 8847W        W73055   8.785  43.273   1.324
 8848W        W73056  31.008  29.976  11.977
 8849W        W73057   8.278   1.842  11.503
 8850W        W73058  42.807  33.996  14.506
 8851W        W73059  36.500  20.038  14.838
 8852W        W73060  39.901  33.880  13.545
 8853W        W73061  19.084  28.659  12.014
 8854W        W73062  31.935   9.281  10.602
 8855W        W73063  36.877   2.779  11.378
 8856W        W73064  29.465  25.519   2.850
 8857W        W73065  40.913  14.211   2.269
 8858W        W73066   2.725  19.257   3.198
 8859W        W73067   0.283  10.726   3.252
 8860W        W73068   9.285  15.732  12.478
 8861W        W73069  42.891  36.846  14.825
 8862W        W73070  23.705  17.126   0.385
 8863W        W73071  42.895   9.241   1.786
 8864W        W73072  34.588  41.041   3.715
 8865W        W73073  23.722  19.727   2.278
 8866W        W73074  35.462  43.481   0.761
 8867W        W73075  34.603  19.129  12.916
 8868W        W73076  39.434  33.936   0.876
 8869W        W73077  42.870  36.887  14.277
 8870W        W73078   3.734   1.819   4.236
 8871W        W73079   2.380   8.759   4.280
 8872W        W73080  15.809  44.465   5.302
 8873W        W73081  38.440  42.932  10.146
 8874W        W73082   2.843  39.038  13.400
 8875W        W73083   1.821  10.173   4.684
 8876W        W73084  13.161   5.828  11.373
 8877W        W73085  36.897  40.887  14.797
 8878W        W73086  10.876  41.440   1.406
 8879W        W73087  22.248  16.099   0.386
 8880W        W73088  16.661  11.636  13.866
 8881W        W73089  34.592  15.608  12.421
 8882W        W73090   3.318  18.677  13.417
 8883W        W73091  38.008   8.220   0.784
 8884W        W73092   0.460   4.845   3.290
 8885W        W73093  35.881  13.158  12.058
 8886W        W73094  34.921  17.143   4.354
 8887W        W73095  15.737  42.335   3.672
 8888W        W73096   3.836  17.195   2.405
 8889W        W73097   9.796   4.297   2.366
 8890W        W73098   9.717   7.686   3.156
 8891W        W73099  39.317  34.066  14.981
 8892W        W73100   1.382   6.208   1.790
 8893W        W73101  13.819  29.017  12.870
 8894W        W73102   9.834  12.307   0.268
 8895W        W73103  38.384   4.383   0.359
 8896W        W73104   9.290  28.079   2.890
 8897W        W73105  27.090  24.975   1.755
 8898W        W73106   9.714  37.017   4.622
 8899W        W73107  35.407   0.347  13.042
 8900W        W73108  40.433  39.032   1.805
 8901W        W73109  12.206  10.209   2.194
 8902W        W73110  18.745  38.550   1.337
 8903W        W73111  15.189  14.629  14.778
 8904W        W73112  37.034  41.294  13.416
 8905W        W73113  14.748  41.975  13.933
 8906W        W73114  40.360  15.245  12.571
 8907W        W73115   1.897   0.834  13.369
 8908W        W73116  22.189   6.216  13.998
 8909W        W73117  32.563   5.886  14.929
 8910W        W73118  43.472  13.170   2.251
 8911W        W73119   6.793   2.785   3.698
 8912W        W73120  37.081  31.603   2.277
 8913W        W73121  40.470  16.618  13.401
 8914W        W73122  43.312  34.390  11.937
 8915W        W73123  32.021   0.892   2.406
 8916W        W73124   2.309  24.171  10.608
 8917W        W73125  36.351  39.327   3.244
 8918W        W73126  14.764  32.068   2.205
 8919W        W73127   7.705  27.582   2.903
 8920W        W73128  24.045  41.892  11.107
 8921W        W73129  19.277  22.679   0.246
 8922W        W73130  38.903  34.387   3.293
 8923W        W73131  21.069  18.174   5.237
 8924W        W73132  13.684  44.972  13.466
 8925W        W73133   7.774   2.723  11.108
 8926W        W73134   7.382  10.189   4.649
 8927W        W73135  27.048  31.974  14.859
 8928W        W73136   2.920  10.383   1.717
 8929W        W73137   2.958  25.147   0.799
 8930W        W73138  22.592  10.145   0.267
 8931W        W73139  29.471   3.327  10.045
 8932W        W73140  35.078  11.185  13.816
 8933W        W73141  24.170  15.132  13.438
 8934W        W73142  36.858  43.411   4.217
 8935W        W73143  24.111  14.330   0.842
 8936W        W73144  19.649  21.531  12.532
 8937W        W73145  32.101  19.157   3.772
 8938W        W73146  16.748  26.098  13.845
 8939W        W73147  32.417  38.540  11.123
 8940W        W73148  25.021  28.120  10.600
 8941W        W73149  42.338  27.961   1.393
 8942W        W73150  40.496   9.767  12.385
 8943W        W73151  20.143   8.336  11.073
 8944W        W73152  25.594  36.447  12.014
 8945W        W73153  23.532  24.159  13.878
 8946W        W73154  12.745  27.606  14.765
 8947W        W73155  34.919  19.125   2.764
 8948W        W73156  36.084   2.301   1.857
 8949W        W73157  12.725  23.549  10.463
 8950W        W73158  31.927  22.595   2.690
 8951W        W73159   0.397  15.714  11.504
 8952W        W73160  18.138  19.223  14.293
 8953W        W73161  36.438  27.955   2.704
 8954W        W73162   8.218   0.756  13.489
 8955W        W73163   2.726  11.627   2.197
 8956W        W73164  22.559   8.899  12.836
 8957W        W73165  43.423  26.642   3.208
 8958W        W73166  18.144  37.941  12.051
 8959W        W73167  37.955  25.703   3.783
 8960W        W73168  29.529  25.497   4.187
 8961W        W73169  41.432  40.049   4.186
 8962W        W73170  28.051  43.495   2.882
 8963W        W73171  18.131  22.018   0.830
 8964W        W73172   0.935  44.491  14.473
 8965W        W73173  20.132  38.914   5.173
 8966W        W73174  37.389   1.803   2.699
 8967W        W73175  34.450   5.928  11.493
 8968W        W73176  23.070  30.488  13.967
 8969W        W73177  23.076  10.688  12.871
 8970W        W73178   7.391  43.463  10.550
 8971W        W73179  34.994  23.147  11.917
 8972W        W73180   6.240  16.634  11.882
 8973W        W73181   6.311   7.682  15.000
 8974W        W73182  36.065  30.477   3.290
 8975W        W73183  34.002  10.786   3.748
 8976W        W73184   5.371  44.270  14.016
 8977W        W73185   3.881  16.682  11.032
 8978W        W73186  16.299  19.670   1.394
 8979W        W73187  35.988  23.665   4.335
 8980W        W73188  27.546  10.373   1.448
 8981W        W73189   1.859   9.780  14.450
 8982W        W73190  22.605  30.642   4.118
 8983W        W73191  24.094  23.124   4.332
 8984W        W73192  23.037  16.614   0.384
 8985W        W73193  18.123  40.510  14.901
 8986W        W73194   0.873  37.491   2.249
 8987W        W73195  29.535  29.003   2.356
 8988W        W73196  27.165  44.840   4.310
 8989W        W73197  40.030  36.522   1.886
 8990W        W73198  27.139  44.910  14.994
 8991W        W73199  41.436  40.941   1.401
 8992W        W73200  39.025  19.285  11.093
 8993W        W73201  33.490  40.352  12.445
 8994W        W73202   6.785  44.776   4.797
 8995W        W73203  39.943  39.947   1.769
 8996W        W73204   4.427  30.632   4.740
 8997W        W73205   3.896  42.524  12.926
 8998W        W73206  27.518  23.136   1.751
 8999W        W73207  15.725  31.465  11.548
 9000W        W73208  24.040  40.026   0.727
 9001W        W73209  27.097  11.867  13.376
 9002W        W73210  25.674  42.025  13.543
 9003W        W73211   3.749   4.842   4.182
 9004W        W73212  13.706  34.073   0.733
 9005W        W73213  39.528  35.008  12.931
 9006W        W73214   8.290  37.040   4.764
 9007W        W73215  24.026  16.247   4.298
 9008W        W73216  39.957  31.577  13.407
 9009W        W73217   8.274  21.616  10.533
 9010W        W73218  26.597  38.027  14.449
 9011W        W73219  22.183   8.328   1.217
 9012W        W73220  19.212   2.933  13.030
 9013W        W73221  22.527  38.843   1.412
 9014W        W73222  25.979  36.511  11.958
 9015W        W73223  29.477  25.015  11.072
 9016W        W73224   6.773  38.862  13.544
 9017W        W73225  36.432  16.755   0.275
 9018W        W73226  38.825  21.637  12.957
 9019W        W73227  37.943  43.013  14.277
 9020W        W73228   2.392   5.256  13.010
 9021W        W73229  37.400  15.301  13.526
 9022W        W73230   4.892   5.405  10.603
 9023W        W73231  32.512   6.730   1.908
 9024W        W73232  28.983  31.507   0.753
 9025W        W73233  42.350  33.093  12.538
 9026W        W73234  17.678  17.067   5.277
 9027W        W73235  26.140  41.355  14.506
 9028W        W73236  24.161  43.466   0.470
 9029W        W73237   4.387  43.283   0.262
 9030W        W73238  11.259  10.219  14.835
 9031W        W73239  32.023  38.041   4.803
 9032W        W73240  39.473  32.419  13.462
 9033W        W73241  18.779  34.067   2.831
 9034W        W73242   3.892  44.862  10.513
 9035W        W73243  43.369  14.679  11.548
 9036W        W73244  42.361  40.319  13.846
 9037W        W73245  33.588  30.127   2.704
 9038W        W73246   4.724  14.128  14.945
 9039W        W73247  12.160   7.332  10.581
 9040W        W73248  33.997   9.885   1.402
 9041W        W73249  42.788   2.428  12.096
 9042W        W73250  24.014   7.864   0.456
 9043W        W73251  35.604  18.747   2.663
 9044W        W73252  11.778  20.216   0.728
 9045W        W73253  21.160  43.785  13.909
 9046W        W73254  15.257  11.815  12.874
 9047W        W73255  14.605  42.962  13.456
 9048W        W73256  44.982   1.835  12.485
 9049W        W73257  14.718  16.608  10.897
 9050W        W73258  10.197   2.956  14.302
 9051W        W73259  29.068  31.140   3.697
 9052W        W73260  16.273  19.537  13.024
 9053W        W73261   9.888  43.311   3.277
 9054W        W73262   2.335  37.534   1.891
 9055W        W73263  25.116  28.029  13.414
 9056W        W73264  40.992  15.778  13.435
 9057W        W73265  21.115  28.050   5.242
 9058W        W73266  44.846  18.763  14.009
 9059W        W73267  30.028  10.823   4.628
 9060W        W73268   0.832  36.926   2.739
 9061W        W73269  41.311  15.695  11.479
 9062W        W73270  34.060  28.141  11.080
 9063W        W73271   2.272  25.053   4.784
 9064W        W73272  41.917  18.583   4.791
 9065W        W73273  44.272  26.049  11.856
 9066W        W73274  35.092   7.228   4.750
 9067W        W73275  40.035  24.220   0.470
 9068W        W73276  21.513  18.250  12.349
 9069W        W73277  25.557  21.067  10.972
 9070W        W73278  23.156   3.728  12.563
 9071W        W73279  35.585  27.960   0.390
 9072W        W73280   7.395  12.154   2.183
 9073W        W73281  24.067   7.416   4.152
 9074W        W73282  12.778  29.961   4.244
 9075W        W73283  14.695  35.980   1.316
 9076W        W73284   9.695   9.321   3.781
 9077W        W73285  14.143  30.456  14.275
 9078W        W73286  34.091   3.246  12.882
 9079W        W73287  13.649  34.989  11.451
 9080W        W73288  24.524  13.149  11.993
 9081W        W73289  34.051   3.939   2.899
 9082W        W73290  44.798  34.480   1.411
 9083W        W73291   3.866   9.687   0.918
 9084W        W73292  21.673   8.849  12.856
 9085W        W73293  22.105  13.127   3.299
 9086W        W73294  36.403  13.185  10.480
 9087W        W73295   8.381  13.130   9.463
 9088W        W73296  38.852  11.661   3.701
 9089W        W73297   2.738  13.228   2.852
 9090W        W73298   9.754  13.623   1.259
 9091W        W73299  35.034  30.148   3.756
 9092W        W73300  30.942  19.267   1.328
 9093W        W73301   5.248   3.805   3.850
 9094W        W73302   1.254  43.420   2.763
 9095W        W73303   5.279   0.450   1.340
 9096W        W73304  41.533   1.443  13.879
 9097W        W73305   6.387  14.336  14.376
 9098W        W73306  43.797  22.588   3.245
 9099W        W73307  13.262   6.839  14.997
 9100W        W73308  21.586  32.394   2.253
 9101W        W73309  40.509  27.476   1.735
 9102W        W73310  20.667  25.109   1.430
 9103W        W73311  34.590  32.483  10.954
 9104W        W73312   7.325  15.127  13.431
 9105W        W73313  11.764  34.397  14.849
 9106W        W73314   3.439   9.714   3.364
 9107W        W73315  32.104  24.982   1.748
 9108W        W73316  43.291  15.743   2.416
 9109W        W73317   1.740  29.149  10.470
 9110W        W73318   1.750  14.590  12.954
 9111W        W73319  15.715  28.586   3.815
 9112W        W73320  44.493  28.961  12.033
 9113W        W73321   0.857   0.881  11.594
 9114W        W73322  18.202  19.698  10.453
 9115W        W73323  25.561  11.840  10.946
 9116W        W73324  40.395  27.680   0.269
 9117W        W73325   3.885  24.080  12.397
 9118W        W73326  34.999  39.053   1.280
 9119W        W73327  21.579  29.042   3.681
 9120W        W73328  27.095  37.468   3.667
 9121W        W73329  43.912  24.634  11.381
 9122W        W73330  26.591  34.499  14.816
 9123W        W73331  38.063  36.462  12.525
 9124W        W73332   1.416  24.213  11.882
 9125W        W73333  41.956  41.523   4.656
 9126W        W73334  23.550  17.233   1.374
 9127W        W73335  35.106  35.100  11.115
 9128W        W73336  40.331  11.776   2.418
 9129W        W73337  18.656   8.350  11.875
 9130W        W73338   9.213  36.359   1.369
 9131W        W73339   2.427  36.536   2.860
 9132W        W73340  15.647  41.022   3.799
 9133W        W73341   0.937   5.249  10.115
 9134W        W73342  13.151  22.011  13.021
 9135W        W73343   8.689  23.229  14.322
 9136W        W73344  28.549  28.935  11.947
 9137W        W73345   4.215  20.071   0.254
 9138W        W73346  39.860  42.434   3.819
 9139W        W73347   3.886  44.312   4.690
 9140W        W73348  38.061  10.290   4.123
 9141W        W73349  31.140   2.818   0.949
 9142W        W73350   9.786   5.757  11.103
 9143W        W73351  11.245  26.555   2.298
 9144W        W73352  31.456  22.239   2.787
 9145W        W73353  16.678  35.368   1.297
 9146W        W73354  35.504  43.350   2.689
 9147W        W73355  22.671  43.321  13.840
 9148W        W73356   9.883  13.745  13.476
 9149W        W73357  16.572  24.093  10.466
 9150W        W73358  28.085  21.542   4.685
 9151W        W73359   7.238  11.834  11.576
 9152W        W73360  16.157  28.169  12.364
 9153W        W73361  26.517  33.546  10.909
 9154W        W73362  13.627  20.526   4.706
 9155W        W73363  22.128  15.161   2.355
 9156W        W73364   2.915   5.872  10.591
 9157W        W73365  11.216   0.345   4.338
 9158W        W73366  21.605  39.421  12.522
 9159W        W73367  19.575  15.802  11.911
 9160W        W73368  38.998  24.073  14.297
 9161W        W73369   8.233  14.735   1.708
 9162W        W73370  13.278  11.177   0.917
 9163W        W73371   8.208  30.070   0.778
 9164W        W73372  43.275   6.909  12.969
 9165W        W73373   8.177  13.255  13.035
 9166W        W73374  41.790  17.261   5.193
 9167W        W73375  26.574  32.499   0.795
 9168W        W73376   4.934  10.377  11.101
 9169W        W73377   7.791  21.677  12.478
 9170W        W73378  40.900  43.299   1.447
 9171W        W73379  29.142  18.100   1.738
 9172W        W73380  32.959  34.070   2.382
 9173W        W73381   8.840  15.591  12.512
 9174W        W73382   4.818  36.965  14.826
 9175W        W73383  24.191  42.807   2.756
 9176W        W73384  42.809  36.936  13.895
 9177W        W73385   4.755  12.621   2.900
 9178W        W73386  33.941  20.644   3.643
 9179W        W73387  32.138   8.395   3.664
 9180W        W73388  38.542   4.726   0.411
 9181W        W73389  44.935  24.656  11.043
 9182W        W73390   6.285  42.829   4.733
 9183W        W73391  29.513  42.359  12.560
 9184W        W73392  43.947  21.682   1.324
 9185W        W73393  13.252  44.889   2.186
 9186W        W73394  15.590   8.685  10.963
 9187W        W73395  34.070  33.953   0.958
 9188W        W73396  18.656  30.051   1.917
 9189W        W73397   5.435  15.288  12.864
 9190W        W73398  43.965  12.197  13.032
 9191W        W73399  31.406  21.744  14.032
 9192W        W73400  35.023  12.696  12.507
 9193W        W73401   6.275   6.766   1.822
 9194W        W73402  31.982  44.763  13.795
 9195W        W73403   7.814  24.579  14.450
 9196W        W73404  41.841   8.719  14.303
 9197W        W73405  33.405  44.975   0.397
 9198W        W73406  10.689  26.547   2.348
 9199W        W73407  32.947   3.830   2.239
 9200W        W73408  34.526   9.157  11.548
 9201W        W73409  35.922  25.695   3.720
 9202W        W73410   4.714  40.535   0.317
 9203W        W73411  26.574   7.218   1.702
 9204W        W73412   4.336  23.578  12.542
 9205W        W73413  43.293   7.709  12.939
 9206W        W73414  27.088  10.208   1.374
 9207W        W73415  44.404  10.839   1.870
 9208W        W73416  27.060   0.907  11.120
 9209W        W73417   5.697  29.428  13.422
 9210W        W73418  29.629   9.224   2.249
 9211W        W73419  16.165   0.978   2.759
 9212W        W73420  36.011  23.096  13.991
 9213W        W73421  28.101  19.592  13.010
 9214W        W73422  23.688   8.740  11.612
 9215W        W73423  26.041   1.957  10.412
 9216W        W73424   9.879  10.237  12.983
 9217W        W73425  28.999  12.611  11.524
 9218W        W73426  37.860  23.040   4.789
 9219W        W73427   7.752   0.305   4.217
 9220W        W73428  23.661  42.499  10.483
 9221W        W73429  34.572  27.084  12.512
 9222W        W73430  27.104   1.745   3.155
 9223W        W73431   1.928  20.209   2.383
 9224W        W73432  23.075  10.691   1.340
 9225W        W73433  21.232  33.405   2.848
 9226W        W73434  14.171   3.733  11.421
 9227W        W73435  26.133  29.998  11.078
 9228W        W73436  26.499  31.974   3.802
 9229W        W73437  24.207  11.206   2.195
 9230W        W73438   4.726   2.836  10.516
 9231W        W73439  12.820  29.447  12.998
 9232W        W73440  14.146   5.327  13.485
 9233W        W73441  12.737  12.624   1.358
 9234W        W73442  42.951   3.880   3.792
 9235W        W73443  40.051  10.838  13.307
 9236W        W73444  42.484  41.330  10.910
 9237W        W73445  28.674  29.089  13.410
 9238W        W73446   6.890  28.989  10.895
 9239W        W73447  36.543   3.953  12.448
 9240W        W73448  19.638   3.285   4.631
 9241W        W73449   6.421  38.463  12.880
 9242W        W73450  43.274  28.957   4.757
 9243W        W73451  14.731  25.039  13.974
 9244W        W73452  13.777  30.051   4.782
 9245W        W73453  20.085   4.867  10.946
 9246W        W73454   4.801  35.436   5.141
 9247W        W73455  35.045   8.234   0.804
 9248W        W73456  22.217  24.542  13.961
 9249W        W73457  19.659  29.511  11.484
 9250W        W73458  10.725   6.415   0.730
 9251W        W73459  11.372  25.668   1.934
 9252W        W73460   0.759  14.642  12.086
 9253W        W73461  27.036  26.039  13.865
 9254W        W73462   3.825  12.117   1.861
 9255W        W73463   1.438   3.911   3.694
 9256W        W73464   3.709  20.611   2.267
 9257W        W73465  40.048  19.779   1.766
 9258W        W73466  43.923  23.676   1.934
 9259W        W73467  22.665   9.169   3.759
 9260W        W73468  25.037  18.676  14.975
 9261W        W73469  27.680  41.845   1.332
 9262W        W73470  10.361  18.286  13.857
 9263W        W73471  38.479  17.206  13.473
 9264W        W73472  44.453  13.197   1.792
 9265W        W73473  30.553  22.210  14.279
 9266W        W73474  18.608  34.385  11.444
 9267W        W73475   7.378  25.972   3.332
 9268W        W73476  32.478  11.352   0.852
 9269W        W73477  44.957   9.243   3.774
 9270W        W73478  42.904   3.793  14.492
 9271W        W73479   2.239  33.625  12.972
 9272W        W73480  33.089   2.936   0.829
 9273W        W73481  10.268  34.929   2.757
 9274W        W73482   1.375  15.679  14.497
 9275W        W73483  19.710  38.915   0.966
 9276W        W73484  28.556  18.171   2.411
 9277W        W73485  35.005  16.672  13.824
 9278W        W73486   7.775  40.351   1.436
 9279W        W73487   6.265  36.030  12.418
 9280W        W73488  17.604  13.677   1.878
 9281W        W73489  41.407  44.932   1.897
 9282W        W73490  25.995  20.193  14.286
 9283W        W73491   6.800  30.526  14.373
 9284W        W73492  17.280  30.582  11.953
 9285W        W73493  20.664  44.779   2.676
 9286W        W73494   4.253  21.089  11.457
 9287W        W73495  18.583  20.141   4.787
 9288W        W73496  12.662  28.598   3.729
 9289W        W73497  28.053  40.374   2.704
 9290W        W73498   2.413   3.850  13.982
 9291W        W73499  26.078  37.065  14.983
 9292W        W73500   2.341  42.833   2.359
 9293W        W73501  22.715   9.172   0.446
 9294W        W73502  10.378  28.438  14.876
 9295W        W73503  26.965  33.457   3.788
 9296W        W73504  20.655  15.670   4.815
 9297W        W73505  13.175  31.520  12.852
 9298W        W73506  31.442  44.902   0.295
 9299W        W73507   1.901  31.940  13.334
 9300W        W73508  35.431  24.977  12.348
 9301W        W73509  37.373   1.944  13.509
 9302W        W73510  43.457  21.647  12.869
 9303W        W73511  42.346   6.736   0.253
 9304W        W73512  28.982  23.095   0.471
 9305W        W73513  37.993  39.040   1.918
 9306W        W73514  25.096   6.243  12.394
 9307W        W73515  41.000   5.908  14.842
 9308W        W73516   9.736  20.649   3.172
 9309W        W73517  19.179  26.489   1.918
 9310W        W73518   7.296  10.195  14.954
 9311W        W73519  33.972  41.981   1.830
 9312W        W73520  10.320  33.573   0.409
 9313W        W73521  15.285   3.348  10.943
 9314W        W73522  40.949   2.734  12.342
 9315W        W73523  33.593   5.926  13.851
 9316W        W73524  21.179  28.017  14.948
 9317W        W73525  40.836   1.288  11.974
 9318W        W73526  21.143  25.068   3.247
 9319W        W73527   2.266  11.131  14.821
 9320W        W73528  20.126   2.400  12.406
 9321W        W73529   1.473  44.764   2.703
 9322W        W73530  25.113  15.729   4.320
 9323W        W73531  39.028  15.744  13.912
 9324W        W73532  42.386  21.724  14.393
 9325W        W73533  26.637  24.048   3.277
 9326W        W73534   9.220   7.821  11.513
 9327W        W73535   2.446  10.771   0.471
 9328W        W73536  32.961  38.063  13.942
 9329W        W73537  33.053   1.476   3.354
 9330W        W73538  22.527   1.908  12.371
 9331W        W73539   1.314  36.845   4.240
 9332W        W73540  18.058  21.164  10.492
 9333W        W73541  40.829  17.668  13.414
 9334W        W73542  42.027  17.188  12.373
 9335W        W73543   0.797  26.661  11.960
 9336W        W73544  26.661  14.647  11.488
 9337W        W73545  29.957  26.964   2.679
 9338W        W73546  43.277   7.698  14.773
 9339W        W73547  37.544  36.031   0.264
 9340W        W73548  35.989   7.708  14.479
 9341W        W73549  15.108  28.153   4.181
 9342W        W73550  37.856  41.490  13.865
 9343W        W73551  35.083  19.249   4.679
 9344W        W73552  21.051  24.541   1.258
 9345W        W73553  21.139  34.959   0.821
 9346W        W73554  42.941  16.749   4.655
 9347W        W73555  27.549  42.430   2.334
 9348W        W73556   4.701  39.035   3.778
 9349W        W73557  40.928  16.619   5.104
 9350W        W73558   8.729   6.805   2.253
 9351W        W73559  30.934  38.430  14.514
 9352W        W73560  40.399   1.793  11.465
 9353W        W73561  43.482   8.403  13.311
 9354W        W73562  10.227  42.893   5.138
 9355W        W73563  30.004   8.378   0.734
 9356W        W73564  12.678  25.011  14.404
 9357W        W73565   9.188  37.341   4.123
 9358W        W73566  27.540   1.924   0.898
 9359W        W73567  25.585  14.702  13.308
 9360W        W73568  25.016  40.392  13.510
 9361W        W73569  24.065  13.307  13.859
 9362W        W73570   0.944  31.063   9.580
 9363W        W73571  13.814  39.495  14.799
 9364W        W73572  33.061  34.877   3.653
 9365W        W73573  29.117  13.283   2.296
 9366W        W73574  41.893   5.397  12.425
 9367W        W73575  42.876  13.298   4.606
 9368W        W73576   5.288  37.405  13.373
 9369W        W73577  32.091  19.546  11.038
 9370W        W73578   8.833   8.399  13.321
 9371W        W73579   8.326   9.647  14.853
 9372W        W73580   8.849  14.793  14.959
 9373W        W73581  34.556  35.539   2.291
 9374W        W73582  20.064  10.377   1.357
 9375W        W73583  11.721  32.072  11.929
 9376W        W73584  39.013  26.547   5.208
 9377W        W73585  38.512  39.356  14.502
 9378W        W73586  11.682  26.008  11.117
 9379W        W73587   3.265  14.636  12.900
 9380W        W73588  12.343  18.203   1.449
 9381W        W73589  30.637  26.023  10.455
 9382W        W73590   0.819   8.775   3.793
 9383W        W73591   0.802  12.819  11.014
 9384W        W73592   5.851   8.660  12.905
 9385W        W73593  37.405  31.930   4.734
 9386W        W73594  29.617  23.137  11.037
 9387W        W73595  43.363  35.509  11.471
 9388W        W73596  40.407   2.779   1.916
 9389W        W73597  24.187  16.280  10.478
 9390W        W73598  42.999  16.624  13.311
 9391W        W73599  12.237   4.291  12.854
 9392W        W73600   9.694   7.216  10.426
 9393W        W73601  21.219  40.499   4.185
 9394W        W73602   8.381  17.177   3.281
 9395W        W73603  18.261  40.497  10.066
 9396W        W73604  19.646   6.823  14.484
 9397W        W73605  20.566  28.178  11.551
 9398W        W73606   7.229  26.498  12.561
 9399W        W73607  10.734  41.346  12.888
 9400W        W73608   7.892  27.037  10.943
 9401W        W73609  33.996   5.713   3.685
 9402W        W73610  40.532  22.055  11.520
 9403W        W73611   8.733  20.102   2.704
 9404W        W73612   8.301  43.945   4.197
 9405W        W73613  18.263  10.733   1.739
 9406W        W73614  40.848  40.497  13.350
 9407W        W73615   6.891  19.047  11.431
 9408W        W73616  33.406  17.714  14.020
 9409W        W73617  34.915  30.090  10.452
 9410W        W73618  32.442  17.098  11.455
 9411W        W73619  30.947  18.132  11.998
 9412W        W73620  25.629  29.983   2.795
 9413W        W73621  38.495  28.095   4.694
 9414W        W73622  34.414  34.933  14.507
 9415W        W73623  29.061  24.077   1.397
 9416W        W73624  11.867  35.060   3.371
 9417W        W73625   1.743   7.817   5.174
 9418W        W73626  34.508  20.135   1.265
 9419W        W73627  11.625  40.343   5.321
 9420W        W73628  25.686  16.091   1.427
 9421W        W73629  43.406  24.997  10.434
 9422W        W73630  44.305   1.854   1.339
 9423W        W73631  40.009  31.921  14.986
 9424W        W73632   9.658  35.038   1.353
 9425W        W73633  33.409  27.187   3.210
 9426W        W73634  39.958  20.107  13.543
 9427W        W73635  34.453  36.493   0.320
 9428W        W73636  11.780  27.942   1.448
 9429W        W73637  34.989   3.445  10.078
 9430W        W73638   7.692  28.150   2.795
 9431W        W73639  43.409  35.468   2.182
 9432W        W73640  37.408  30.019   1.796
 9433W        W73641  35.918  43.457  13.400
 9434W        W73642  33.947  42.389  13.877
 9435W        W73643  11.698  22.651   3.239
 9436W        W73644  32.458  44.296   0.859
 9437W        W73645  32.001  25.575   4.115
 9438W        W73646  15.161  40.952  10.410
 9439W        W73647  11.633   1.849  13.020
 9440W        W73648  37.979  35.383  12.432
 9441W        W73649  44.310  43.772   5.224
 9442W        W73650  25.516   6.413  11.864
 9443W        W73651  33.115  10.855   0.797
 9444W        W73652  30.995   5.382  11.503
 9445W        W73653   1.902  27.624   3.824
 9446W        W73654  31.026   1.477  11.934
 9447W        W73655  11.292   6.358   2.826
 9448W        W73656  25.649  23.126  14.778
 9449W        W73657   8.205  37.998   0.254
 9450W        W73658  27.549   6.312   3.748
 9451W        W73659  36.859  39.529  11.969
 9452W        W73660  25.217  20.732  10.630
 9453W        W73661  10.784  21.093  12.412
 9454W        W73662   0.415  40.338  14.404
 9455W        W73663  10.786  43.436  14.315
 9456W        W73664  30.506  11.135  10.917
 9457W        W73665  10.808   6.197  10.016
 9458W        W73666   4.276   8.787   2.356
 9459W        W73667  16.677  26.655  11.516
 9460W        W73668  19.142  11.354  14.990
 9461W        W73669   9.346  24.045  10.626
 9462W        W73670  11.178  44.785   4.774
 9463W        W73671   0.895   2.837   2.768
 9464W        W73672  42.807  12.345  14.444
 9465W        W73673  12.714   4.309  11.517
 9466W        W73674   4.833  40.841   2.826
 9467W        W73675  42.970  29.456   5.284
 9468W        W73676  24.182   7.348  13.400
 9469W        W73677   7.362   6.748   4.644
 9470W        W73678  11.300  39.063  10.916
 9471W        W73679   3.323   0.801   1.780
 9472W        W73680  16.593  22.182  11.056
 9473W        W73681   4.351  11.219   3.225
 9474W        W73682  39.912  12.641   1.766
 9475W        W73683   6.790  11.629  11.889
 9476W        W73684   0.781   0.311   2.675
 9477W        W73685   5.288  40.040  13.950
 9478W        W73686  33.897  16.736  14.894
 9479W        W73687  15.799   2.340   3.744
 9480W        W73688   4.226  39.049   0.758
 9481W        W73689  26.679  22.152  12.952
 9482W        W73690  24.677  23.103   3.655
 9483W        W73691   4.363  40.949  14.282
 9484W        W73692  40.864  14.762  11.992
 9485W        W73693  43.811   6.903   3.739
 9486W        W73694  10.220  39.500  13.822
 9487W        W73695  22.066  26.183  14.448
 9488W        W73696  23.134  26.691  11.492
 9489W        W73697  37.847  26.157  12.551
 9490W        W73698   5.722  30.114   4.716
 9491W        W73699  24.069  25.714   1.446
 9492W        W73700  35.560  17.088   0.910
 9493W        W73701  35.488   2.380   0.954
 9494W        W73702  40.389  44.486   4.713
 9495W        W73703  44.977  34.590  11.910
 9496W        W73704  43.930  43.850   4.271
 9497W        W73705  13.624  16.590  12.354
 9498W        W73706  21.549  20.221  12.897
 9499W        W73707  18.667  42.945   1.299
 9500W        W73708  39.423  36.081  11.111
 9501W        W73709  13.731  17.154   1.411
 9502W        W73710  25.186  32.116  14.995
 9503W        W73711  33.442  11.741   1.891
 9504W        W73712  34.917  23.072  14.379
 9505W        W73713  16.200  27.124   2.846
 9506W        W73714   5.837  22.044  11.055
 9507W        W73715  14.674  32.599  11.460
 9508W        W73716  12.830   7.901  10.474
 9509W        W73717  27.173  31.077   1.376
 9510W        W73718  36.566   0.884  13.889
 9511W        W73719   2.360   2.309  12.505
 9512W        W73720  19.618  13.831   4.278
 9513W        W73721  11.225  17.715   1.817
 9514W        W73722  25.986   4.389  13.911
 9515W        W73723  24.622  24.128  13.435
 9516W        W73724  22.650  37.988   0.774
 9517W        W73725  20.537   6.190   4.224
 9518W        W73726  18.088   1.757   2.859
 9519W        W73727  15.676   8.326  11.481
 9520W        W73728  36.549  24.624  13.376
 9521W        W73729  28.650  28.668   3.741
 9522W        W73730  38.932  40.383  12.340
 9523W        W73731   5.422   8.851   4.659
 9524W        W73732  30.555  26.049   1.779
 9525W        W73733   8.685  41.331   4.640
 9526W        W73734  11.148  23.705  11.020
 9527W        W73735  41.026  34.482  13.005
 9528W        W73736   0.469  41.478   1.875
 9529W        W73737   0.390  37.886   0.420
 9530W        W73738   4.420  26.151  13.866
 9531W        W73739   7.676  44.827  12.569
 9532W        W73740  42.495   8.852  12.903
 9533W        W73741   7.265  42.424   0.894
 9534W        W73742  20.550  16.738  12.476
 9535W        W73743  25.576  31.445  13.330
 9536W        W73744  39.978  14.667  14.002
 9537W        W73745   3.727   9.306  12.907
 9538W        W73746  18.101   8.770   5.754
 9539W        W73747   7.717  15.121  11.068
 9540W        W73748  13.256  33.977   3.707
 9541W        W73749   6.402   0.801   0.765
 9542W        W73750  26.997  32.506  14.960
 9543W        W73751  32.597  27.621  11.960
 9544W        W73752  23.511   1.743  11.899
 9545W        W73753  12.686  29.622   4.348
 9546W        W73754  37.401  11.210   3.800
 9547W        W73755  36.997  19.755   5.117
 9548W        W73756  14.743  15.109  14.883
 9549W        W73757   0.295  41.021  12.037
 9550W        W73758  14.733   5.307   2.315
 9551W        W73759   0.751   5.424   1.740
 9552W        W73760  26.158  14.187  10.934
 9553W        W73761  15.190  39.907  13.347
 9554W        W73762  33.506  19.620   3.706
 9555W        W73763  19.703  38.830  12.545
 9556W        W73764  39.849  22.681  13.901
 9557W        W73765  26.107  17.790  11.036
 9558W        W73766   1.789  26.576  13.538
 9559W        W73767  27.020  12.204   4.834
 9560W        W73768   8.785  42.289  12.424
 9561W        W73769  20.270  28.573   1.421
 9562W        W73770   5.303  24.581   0.478
 9563W        W73771  26.548  20.721   4.675
 9564W        W73772   7.790  31.647  13.956
 9565W        W73773  13.773  22.122   0.806
 9566W        W73774  14.147  41.358   3.327
 9567W        W73775  37.336  35.372   3.202
 9568W        W73776  24.638  29.546   3.352
 9569W        W73777  13.733  30.064  12.356
 9570W        W73778   7.698  25.983   0.405
 9571W        W73779  31.548  29.009  10.575
 9572W        W73780  32.632  39.905   4.281
 9573W        W73781  19.276  11.656  12.891
 9574W        W73782  28.489   7.202   2.315
 9575W        W73783  36.422  19.540   2.323
 9576W        W73784  11.795  36.552  13.054
 9577W        W73785   3.909  26.598   0.360
 9578W        W73786  37.364  38.392   0.442
 9579W        W73787  11.829  37.022  11.968
 9580W        W73788  34.560  27.564  13.026
 9581W        W73789  10.713  11.792   0.415
 9582W        W73790  21.241   3.359   5.176
 9583W        W73791   6.853  13.135  14.762
 9584W        W73792   4.221   5.714   3.164
 9585W        W73793  26.471  10.156  10.150
 9586W        W73794  16.813  24.696  10.407
 9587W        W73795  41.868  41.425   2.702
 9588W        W73796  29.076   1.945  14.502
 9589W        W73797  24.070   2.455  12.845
 9590W        W73798  36.925   8.315  10.601
 9591W        W73799  29.146  29.096   4.162
 9592W        W73800  16.304   5.743  13.342
 9593W        W73801  34.097  31.553  12.963
 9594W        W73802   1.280  18.776   1.212
 9595W        W73803  35.497  43.431  13.934
 9596W        W73804  27.182  32.517  11.917
 9597W        W73805  30.105  20.211  11.419
 9598W        W73806   0.421   0.942   2.698
 9599W        W73807  17.718  25.167  13.046
 9600W        W73808  13.746  35.994  12.578
 9601W        W73809  43.508   5.754  14.507
 9602W        W73810  19.607  21.176  12.464
 9603W        W73811  31.021   4.932  11.466
 9604W        W73812  37.504   4.441  12.086
 9605W        W73813   6.753  24.488  11.442
 9606W        W73814   4.353  34.063  11.433
 9607W        W73815  39.544  38.891  14.330
 9608W        W73816   8.219  10.140   2.712
 9609W        W73817   2.722  44.776   0.420
 9610W        W73818  20.567  17.792   4.729
 9611W        W73819  37.444  13.243   3.251
 9612W        W73820  37.881  12.770   4.679
 9613W        W73821  29.156  26.074   4.753
 9614W        W73822  12.724  27.019   0.935
 9615W        W73823  27.624  12.760   1.855
 9616W        W73824  34.989  24.703  12.342
 9617W        W73825   6.245  15.084   4.656
 9618W        W73826   5.237  42.010   4.813
 9619W        W73827  35.066   2.830  13.978
 9620W        W73828  42.515  22.065   2.284
 9621W        W73829  13.317  40.002  12.397
 9622W        W73830  38.445  29.120  13.316
 9623W        W73831   0.400   3.303   3.764
 9624W        W73832  40.957   0.467  14.764
 9625W        W73833   6.318  32.083  14.474
 9626W        W73834   5.319  30.028  12.451
 9627W        W73835  12.176   4.436   1.722
 9628W        W73836  33.465   1.881  10.484
 9629W        W73837  20.571   6.815  12.424
 9630W        W73838   5.233   3.242  14.458
 9631W        W73839  26.010  35.864   0.371
 9632W        W73840  41.043   7.844   1.869
 9633W        W73841   3.882  23.650   1.428
 9634W        W73842  24.538  20.041  12.395
 9635W        W73843  22.029   3.265   4.735
 9636W        W73844   0.374  37.489   0.905
 9637W        W73845  25.021  26.470  10.951
 9638W        W73846  13.742  22.744  12.529
 9639W        W73847  36.911   0.888   1.834
 9640W        W73848  29.556  13.208  13.533
 9641W        W73849  20.567   0.440   2.862
 9642W        W73850  37.341  40.904   0.378
 9643W        W73851   4.851  37.975   0.469
 9644W        W73852  11.720   5.367  14.886
 9645W        W73853  29.511   9.736  11.519
 9646W        W73854  34.101  29.647  12.416
 9647W        W73855  25.176   1.402   1.255
 9648W        W73856  43.500  35.399   4.125
 9649W        W73857  41.831  10.678  11.494
 9650W        W73858  27.540  42.804  14.785
 9651W        W73859   8.331  37.549   1.376
 9652W        W73860  32.003   7.743  12.445
 9653W        W73861  32.942  44.371   3.813
 9654W        W73862  37.010  19.539   3.156
 9655W        W73863  36.055  13.754  11.876
 9656W        W73864  19.099   8.239  14.466
 9657W        W73865   1.953  21.602  12.902
 9658W        W73866  22.699  36.432   0.272
 9659W        W73867   2.341  42.979   9.956
 9660W        W73868  30.640  13.126   3.286
 9661W        W73869   1.401  20.573  13.342
 9662W        W73870   5.823   4.380  14.820
 9663W        W73871  15.673   9.244   4.258
 9664W        W73872  14.156  35.930   1.867
 9665W        W73873  28.574  31.934   2.762
 9666W        W73874  22.149  35.448   4.335
 9667W        W73875  13.114  42.953   0.480
 9668W        W73876  41.324   6.889   4.690
 9669W        W73877  42.345  24.617   1.855
 9670W        W73878  25.672  18.155   1.813
 9671W        W73879  32.052  11.687  14.360
 9672W        W73880  33.085  37.855  14.313
 9673W        W73881   8.320  29.158   2.888
 9674W        W73882  11.673  32.637  13.812
 9675W        W73883  36.880   1.749  10.983
 9676W        W73884  21.234   4.279  11.612
 9677W        W73885  43.015  14.130  13.536
 9678W        W73886   3.812  11.855   4.681
 9679W        W73887  43.316   9.175   4.236
 9680W        W73888   4.232  43.441  12.371
 9681W        W73889  33.065  21.096   9.965
 9682W        W73890   5.787  31.949  13.409
 9683W        W73891  14.253  30.460   0.950
 9684W        W73892   4.421  16.276   1.831
 9685W        W73893   0.925  11.831   2.794
 9686W        W73894  42.924  32.989  13.836
 9687W        W73895   8.272   3.941   0.321
 9688W        W73896  34.573   5.229   3.675
 9689W        W73897   9.692   8.232  11.086
 9690W        W73898  42.391  37.518   0.483
 9691W        W73899   8.298  44.450   4.317
 9692W        W73900  42.871   2.399   2.357
 9693W        W73901  34.557   8.293  13.916
 9694W        W73902   9.169   7.381  11.093
 9695W        W73903  26.985   8.872  10.955
 9696W        W73904   8.742  28.443  12.526
 9697W        W73905  39.461  39.823  14.370
 9698W        W73906  34.401  25.019   0.343
 9699W        W73907  44.504  26.618  12.936
 9700W        W73908  30.148  16.204  11.568
 9701W        W73909  19.096  19.133   1.285
 9702W        W73910  31.995   8.707   0.793
 9703W        W73911   5.246  27.610  13.469
 9704W        W73912  26.552  18.705   3.818
 9705W        W73913   0.847  36.886  11.505
 9706W        W73914  23.151  36.408   0.916
 9707W        W73915  28.607  20.042  13.990
 9708W        W73916  17.734  42.017  12.429
 9709W        W73917  21.544  43.875  10.416
 9710W        W73918  13.602  25.986   1.287
 9711W        W73919  19.760  11.199   1.331
 9712W        W73920   0.394  42.371  10.948
 9713W        W73921  37.477  19.693   3.707
 9714W        W73922   2.879  23.216  14.827
 9715W        W73923  43.950  21.241   2.816
 9716W        W73924  27.633  33.415  11.534
 9717W        W73925  16.168  27.555  13.402
 9718W        W73926  18.252  25.665  11.858
 9719W        W73927   9.346  28.468  13.945
 9720W        W73928  33.510   3.251  13.470
 9721W        W73929  31.585  29.539   1.740
 9722W        W73930   5.209   2.766   2.372
 9723W        W73931   4.295   3.344   3.801
 9724W        W73932  37.021  39.834  12.897
 9725W        W73933  23.534   6.232   0.398
 9726W        W73934  21.645   1.897   1.913
 9727W        W73935  23.174  42.862  13.520
 9728W        W73936  29.953  11.263   1.705
 9729W        W73937  21.591  30.574   0.353
 9730W        W73938  18.720   1.741  12.442
 9731W        W73939   9.220  13.139   3.826
 9732W        W73940  22.707  34.969   5.096
 9733W        W73941  41.296   5.201   1.320
 9734W        W73942  41.501   1.302  12.504
 9735W        W73943  36.916  13.825   3.187
 9736W        W73944   8.325  31.503   3.863
 9737W        W73945   6.727   4.255   3.222
 9738W        W73946  16.671  34.499   3.363
 9739W        W73947   0.478  15.227   0.283
 9740W        W73948  12.232  35.855  10.593
 9741W        W73949  18.175  11.625   3.378
 9742W        W73950  38.985  36.905  14.375
 9743W        W73951  38.073  14.734  10.643
 9744W        W73952   7.814  15.636  14.325
 9745W        W73953  42.852  25.574   1.299
 9746W        W73954  16.267  17.692  11.958
 9747W        W73955   8.858  37.429  12.378
 9748W        W73956   2.723  27.019  10.585
 9749W        W73957  10.799  25.658   3.658
 9750W        W73958   2.887  13.797   4.165
 9751W        W73959  22.110   1.781  11.931
 9752W        W73960  44.473  20.036  10.478
 9753W        W73961   9.820  16.640  13.518
 9754W        W73962  32.518  37.420  12.826
 9755W        W73963  43.395  40.503  11.428
 9756W        W73964  21.612  13.723  13.423
 9757W        W73965  28.027  27.595   0.815
 9758W        W73966  32.127  38.450   1.871
 9759W        W73967  30.428  29.968   4.655
 9760W        W73968   1.460  34.904  13.428
 9761W        W73969  42.506  30.067  14.774
 9762W        W73970  38.973  37.007  11.996
 9763W        W73971  44.423  36.972  12.544
 9764W        W73972   0.391  14.652   1.281
 9765W        W73973  29.570  24.225   1.424
 9766W        W73974  25.171  11.847   4.662
 9767W        W73975   7.350  27.465  13.987
 9768W        W73976  38.959  13.842   4.638
 9769W        W73977  36.561   3.928  10.601
 9770W        W73978  39.500  17.252   5.736
 9771W        W73979  34.470  35.962  12.828
 9772W        W73980  39.331  38.341  13.967
 9773W        W73981   4.894  44.371  13.880
 9774W        W73982   9.841   1.788  10.495
 9775W        W73983   3.341  42.820  14.291
 9776W        W73984  23.083  25.651   4.159
 9777W        W73985  43.341  20.536   2.838
 9778W        W73986  10.842  21.154  14.989
 9779W        W73987  42.842  18.749   5.318
 9780W        W73988   2.862  19.070  13.373
 9781W        W73989  10.725   7.844   4.209
 9782W        W73990  24.682  33.481   3.148
 9783W        W73991  10.314   4.813  13.442
 9784W        W73992  30.576  22.629   4.135
 9785W        W73993   3.819  44.849   2.294
 9786W        W73994  36.940  44.984  14.495
 9787W        W73995  11.305  17.699   0.780
 9788W        W73996  19.605  37.024   5.213
 9789W        W73997  18.712  37.530  13.865
 9790W        W73998  36.936  24.528   1.247
 9791W        W73999   6.327  22.081   1.886
 9792W        W74000  27.634  12.290  10.613
 9793W        W74001  35.942   3.394  11.405
 9794W        W74002  42.926  35.957  10.935
 9795W        W74003  18.265  23.671  11.060
 9796W        W74004  21.708  11.153   1.263
 9797W        W74005  39.460  32.116   2.832
 9798W        W74006  31.558  19.699  14.986
 9799W        W74007  38.429  26.544   4.148
 9800W        W74008   2.253  23.166  13.519
 9801W        W74009   0.470  29.139   1.288
 9802W        W74010  25.009  36.944   1.409
 9803W        W74011  17.245  30.648   1.228
 9804W        W74012   1.342  12.763   1.298
 9805W        W74013  18.729   0.848  11.610
 9806W        W74014  29.056  40.389   0.841
 9807W        W74015  42.805  17.184  13.978
 9808W        W74016  43.288  44.485  12.991
 9809W        W74017  41.789  15.329  12.823
 9810W        W74018  32.952  35.375  10.542
 9811W        W74019  22.543  22.675  10.930
 9812W        W74020  14.167  15.168  12.036
 9813W        W74021  11.141  36.902  13.868
 9814W        W74022  30.443  40.366  12.445
 9815W        W74023  17.178   4.749   1.299
 9816W        W74024  15.596  13.129  13.469
 9817W        W74025   5.337   8.301  14.346
 9818W        W74026  29.051  32.130   0.310
 9819W        W74027  40.425  43.811   0.923
 9820W        W74028   4.434  44.767   0.752
 9821W        W74029  13.616   3.288   0.464
 9822W        W74030  35.393   1.804   1.407
 9823W        W74031  21.083  34.437   2.691
 9824W        W74032   4.217  12.241   0.727
 9825W        W74033  31.566  28.182   1.291
 9826W        W74034   8.226  18.736  12.935
 9827W        W74035  36.033   5.797   3.685
 9828W        W74036  35.542   3.272  13.328
 9829W        W74037   4.242  15.310  13.864
 9830W        W74038  14.780  20.623  11.384
 9831W        W74039  41.024   4.270  11.990
 9832W        W74040  44.763  41.860   3.272
 9833W        W74041  13.636   7.234  14.286
 9834W        W74042  21.111   7.394  12.921
 9835W        W74043  35.479  20.530   4.634
 9836W        W74044  28.153   3.833  11.918
 9837W        W74045  12.658  19.160  13.907
 9838W        W74046  42.775  21.708   5.311
 9839W        W74047   6.720  29.510   0.811
 9840W        W74048  39.863  19.167  12.914
 9841W        W74049  26.030  26.109   0.405
 9842W        W74050  27.659  20.184   4.759
 9843W        W74051   8.805  27.967  12.380
 9844W        W74052   3.385  28.137   0.350
 9845W        W74053  37.916  44.371   0.727
 9846W        W74054  30.083   8.405   2.331
 9847W        W74055   3.892  19.760  14.966
 9848W        W74056  11.782  29.087   9.949
 9849W        W74057   6.831   4.726  11.916
 9850W        W74058  18.214  15.724   1.763
 9851W        W74059  14.258  36.449  14.921
 9852W        W74060  36.385   0.909  12.906
 9853W        W74061  38.418  36.015  14.418
 9854W        W74062  29.138  13.604  14.472
 9855W        W74063  12.301   1.293  12.906
 9856W        W74064   3.829  42.341   0.787
 9857W        W74065  18.666  16.759   3.660
 9858W        W74066  13.249  20.117   4.642
 9859W        W74067   3.938  16.653  14.952
 9860W        W74068  18.608  38.567   2.252
 9861W        W74069   7.846  18.678   1.890
 9862W        W74070  44.305   3.892  14.375
 9863W        W74071   8.170  33.980   3.837
 9864W        W74072  33.486  33.025  14.841
 9865W        W74073   4.285   1.855   0.903
 9866W        W74074  23.136  22.157   3.314
 9867W        W74075   0.275  33.115  12.897
 9868W        W74076  22.716  17.156  14.780
 9869W        W74077  11.302  24.698   3.781
 9870W        W74078  18.172  11.339   2.376
 9871W        W74079  28.460   7.350   1.838
 9872W        W74080  20.703  26.671   2.850
 9873W        W74081  22.030  36.850  13.540
 9874W        W74082  44.981   5.206  12.428
 9875W        W74083   3.729  18.545  13.794
 9876W        W74084  16.705  29.557  12.831
 9877W        W74085   5.276  42.955   2.188
 9878W        W74086  23.124  29.133   3.330
 9879W        W74087   8.728  35.473  13.340
 9880W        W74088  41.797  14.326  10.989
 9881W        W74089  17.628  38.513   3.302
 9882W        W74090   3.326  17.289   2.839
 9883W        W74091  26.495  22.195  10.089
 9884W        W74092  42.471  31.144   4.673
 9885W        W74093  18.599  18.097   2.349
 9886W        W74094  15.584   8.853  11.528
 9887W        W74095  20.223   8.704  14.852
 9888W        W74096   4.846  29.105   3.347
 9889W        W74097  31.148   8.244  14.997
 9890W        W74098  16.236  31.114  13.324
 9891W        W74099  20.085  31.123  13.482
 9892W        W74100  29.134   9.242  12.990
 9893W        W74101   5.326   4.236  11.574
 9894W        W74102  17.708  39.417   9.534
 9895W        W74103  19.043  41.445   4.327
 9896W        W74104  27.021  19.279  14.394
 9897W        W74105  13.289  10.853  13.346
 9898W        W74106  36.579  37.523  14.013
 9899W        W74107  32.534  12.341   1.296
 9900W        W74108  26.568  24.171  10.620
 9901W        W74109  42.307  27.148   4.619
 9902W        W74110  33.538  24.184  13.409
 9903W        W74111  40.907  30.558   4.250
 9904W        W74112  30.492  36.580   1.345
 9905W        W74113  44.774  11.275  10.915
 9906W        W74114  24.151  15.168   0.322
 9907W        W74115   9.301  26.467  14.787
 9908W        W74116  16.639  20.567   3.272
 9909W        W74117  27.132  10.705  13.864
 9910W        W74118  20.106   7.370   3.725
 9911W        W74119   4.904  30.158   4.712
 9912W        W74120  26.681  34.035  13.377
 9913W        W74121  24.707   7.834  14.919
 9914W        W74122  35.997  14.337   1.779
 9915W        W74123  23.496  40.483  14.379
 9916W        W74124  11.156  24.040  14.514
 9917W        W74125  24.594   8.706   1.433
 9918W        W74126  11.206  38.932   1.216
 9919W        W74127   9.663  43.400  12.913
 9920W        W74128  40.313  42.346  11.070
 9921W        W74129  27.636  20.621  11.525
 9922W        W74130  15.244  35.464  11.879
 9923W        W74131   7.331   5.416  11.007
 9924W        W74132   3.855   9.779  11.568
 9925W        W74133  40.976  15.613   4.605
 9926W        W74134  37.504  26.640  10.134
 9927W        W74135  10.269  19.632  13.827
 9928W        W74136  44.375  26.472   0.747
 9929W        W74137  41.988   0.431  12.357
 9930W        W74138  26.103   4.364   4.349
 9931W        W74139  14.601  14.286   2.350
 9932W        W74140  23.700  24.172  12.962
 9933W        W74141  43.978  25.558  14.290
 9934W        W74142  22.222   7.733   1.898
 9935W        W74143  36.006  18.572   0.274
 9936W        W74144  16.622  36.932  11.003
 9937W        W74145  38.921  11.223   2.269
 9938W        W74146  13.820  30.997   3.366
 9939W        W74147  14.141  31.406  11.030
 9940W        W74148  44.995  40.881  10.601
 9941W        W74149   5.322  29.103   3.377
 9942W        W74150  23.098  23.491  13.517
 9943W        W74151  14.589  17.731  13.939
 9944W        W74152  12.336   6.747  13.962
 9945W        W74153  26.661  11.213   1.866
 9946W        W74154  12.338  12.642   4.114
 9947W        W74155   4.345  30.580  13.004
 9948W        W74156  23.689  19.641   0.913
 9949W        W74157  28.975   7.703   4.697
 9950W        W74158  23.037   6.403   1.316
 9951W        W74159  41.367  23.169   0.475
 9952W        W74160  27.469  15.634  12.078
 9953W        W74161  43.328  12.169   1.446
 9954W        W74162  30.963  20.616   0.966
 9955W        W74163  18.667  26.653  11.985
 9956W        W74164   4.853  32.480   4.138
 9957W        W74165  31.022  21.046  10.499
 9958W        W74166  34.613  16.609   2.793
 9959W        W74167  17.760  14.308  14.890
 9960W        W74168   0.745  43.889  14.459
 9961W        W74169  39.430  33.904   4.792
 9962W        W74170  30.577  28.471  12.352
 9963W        W74171  18.593  34.388   0.388
 9964W        W74172  22.645   3.411  10.097
 9965W        W74173  25.645  24.178  11.516
 9966W        W74174   1.474  41.942  13.920
 9967W        W74175  30.146  40.402  12.948
 9968W        W74176  33.459   0.922   3.238
 9969W        W74177   3.344  16.667   3.358
 9970W        W74178  28.607  10.288  10.592
 9971W        W74179  28.139  39.836   0.738
 9972W        W74180  39.499   7.847  14.488
 9973W        W74181   4.355  39.440   1.720
 9974W        W74182  12.708   4.415   0.844
 9975W        W74183  17.225   3.286   4.744
 9976W        W74184  33.978  13.713   4.813
 9977W        W74185  19.635  25.141   0.478
 9978W        W74186  11.733  25.050  13.542
 9979W        W74187   5.223  10.719  14.310
 9980W        W74188   1.869   4.935   0.314
 9981W        W74189  22.160  33.123   0.446
 9982W        W74190  37.941   3.723   0.788
 9983W        W74191  28.008  30.551  10.592
 9984W        W74192  29.585  28.654   4.213
 9985W        W74193  17.075  20.735   1.411
 9986W        W74194   5.805  40.798   4.183
 9987W        W74195  16.582   6.717  12.849
 9988W        W74196   5.827  37.893  12.086
 9989W        W74197  41.492   9.371   1.927
 9990W        W74198   9.653  32.037  12.389
 9991W        W74199   4.899  26.047   4.786
 9992W        W74200  38.435  26.015  11.610
 9993W        W74201  35.091  19.737   0.450
 9994W        W74202  44.338  32.602   4.609
 9995W        W74203  20.663  33.567  10.583
 9996W        W74204  42.361  39.541   3.196
 9997W        W74205  40.035  16.218  11.994
 9998W        W74206  44.450  24.559   1.861
 9999W        W74207   4.900   0.871   4.114
10000W        W74208  27.056   6.274  10.408
10001W        W74209  18.246   5.747  10.053
10002W        W74210   4.443  33.406  10.490
10003W        W74211   3.381  23.513  11.880
10004W        W74212  26.068  20.711   3.231
10005W        W74213  15.621   7.264   4.779
10006W        W74214   2.759   2.851   0.317
10007W        W74215  43.438   8.192   3.638
10008W        W74216  32.577  32.455  11.897
10009W        W74217  22.660  15.707  14.418
10010W        W74218  27.455  14.124  10.117
10011W        W74219   8.181  41.370   4.813
10012W        W74220  22.150  27.517   1.275
10013W        W74221   9.751   4.800  10.523
10014W        W74222  25.000   8.737  12.497
10015W        W74223   2.416  35.083  10.931
10016W        W74224  27.141  33.496  12.571
10017W        W74225  44.862   7.673  11.084
10018W        W74226  26.613   0.831  12.023
10019W        W74227  20.573  16.308   1.879
10020W        W74228  14.231  29.484   5.305
10021W        W74229   1.764   1.374   4.266
10022W        W74230  17.668  16.216   4.659
10023W        W74231   2.288  31.043  11.045
10024W        W74232  31.589  10.249   3.217
10025W        W74233  11.341   6.405  11.443
10026W        W74234  41.382  34.031   0.374
10027W        W74235  19.204  39.844   1.903
10028W        W74236  27.990  36.037   4.282
10029W        W74237  43.317   0.978   1.227
10030W        W74238  28.118   4.713  14.867
10031W        W74239  10.349  29.079  12.974
10032W        W74240  41.035  12.847  13.869
10033W        W74241   6.679  23.021   4.145
10034W        W74242  21.544  11.762  11.976
10035W        W74243  27.498  32.472  11.073
10036W        W74244  13.669  42.305  12.891
10037W        W74245  11.692  40.430   4.123
10038W        W74246  19.725   8.805  12.924
10039W        W74247  43.423  12.675   2.219
10040W        W74248  36.080  16.570   1.829
10041W        W74249  36.542  21.059  10.109
10042W        W74250   8.203  40.359  14.024
10043W        W74251  22.611  27.971  12.472
10044W        W74252  43.479  27.452   3.366
10045W        W74253  18.574  35.926  12.475
10046W        W74254  39.885  19.767  10.889
10047W        W74255  44.894  44.500  13.995
10048W        W74256  26.501  38.361   9.929
10049W        W74257  26.527  40.543   0.457
10050W        W74258  15.733  17.302   0.347
10051W        W74259  13.762  31.535  11.981
10052W        W74260   8.192  41.390  12.025
10053W        W74261  30.055  44.441   0.268
10054W        W74262  19.538  31.995   4.259
10055W        W74263  33.445  29.661  13.416
10056W        W74264  14.828   6.283   1.263
10057W        W74265  10.252  23.631   4.161
10058W        W74266  27.566  26.612  12.884
10059W        W74267  20.767   8.205  13.917
10060W        W74268  17.604  33.430   2.303
10061W        W74269   0.458   7.860   0.923
10062W        W74270   9.385  37.986   4.197
10063W        W74271  18.654  23.033   3.772
10064W        W74272  30.521   5.725   1.321
10065W        W74273  27.957  39.327  13.334
10066W        W74274   8.174  37.003  14.974
10067W        W74275  24.575  19.614  12.391
10068W        W74276  10.765  14.137  13.362
10069W        W74277   8.373  15.141  12.404
10070W        W74278  33.933  23.175   3.656
10071W        W74279   5.743   3.321  10.565
10072W        W74280   4.788   4.378   3.832
10073W        W74281  41.300   1.848  13.055
10074W        W74282  25.070  10.146  10.067
10075W        W74283  37.480   8.895  14.902
10076W        W74284  30.006   8.321   2.902
10077W        W74285   2.245  17.182  10.003
10078W        W74286  19.773  25.145   2.217
10079W        W74287  39.934  14.101  12.892
10080W        W74288  10.192  10.651   3.223
10081W        W74289  26.206  35.503   3.320
10082W        W74290  13.216  33.574  13.450
10083W        W74291   8.306  42.998  14.937
10084W        W74292  21.141  25.188   2.199
10085W        W74293  33.129  32.061  14.331
10086W        W74294  35.577   7.331  14.493
10087W        W74295  32.097  31.482  10.958
10088W        W74296  13.709  16.622   0.341
10089W        W74297  25.989  31.081   4.661
10090W        W74298  12.121   7.175  12.522
10091W        W74299  32.473  20.678  10.973
10092W        W74300  18.624   3.292   3.356
10093W        W74301  20.104  32.116  12.065
10094W        W74302   7.263   8.740  13.378
10095W        W74303  18.634  16.599  11.924
10096W        W74304  10.265  16.284   1.922
10097W        W74305   0.912   0.898  13.946
10098W        W74306  17.234  13.209  10.497
10099W        W74307  16.286  28.570  14.422
10100W        W74308  11.229  19.680   1.719
10101W        W74309   8.256  12.333   5.201
10102W        W74310  31.493  42.891   4.252
10103W        W74311  32.418  20.580  11.591
10104W        W74312  43.911  29.604   0.403
10105W        W74313  36.573  39.469  14.307
10106W        W74314  13.211  28.493   0.834
10107W        W74315   9.768  38.554  13.933
10108W        W74316   4.225  19.752   0.361
10109W        W74317  15.795  43.905   0.873
10110W        W74318  44.414  20.245   5.278
10111W        W74319  36.994  39.521  11.596
10112W        W74320   7.768  35.394   2.782
10113W        W74321  11.248  19.774   0.935
10114W        W74322  21.616   4.234  14.888
10115W        W74323  27.655   1.430   2.836
10116W        W74324   6.407  30.978   4.613
10117W        W74325  20.705  18.065   2.310
10118W        W74326  35.056  40.428  14.312
10119W        W74327  44.793  22.730  12.453
10120W        W74328  28.055  19.542  10.022
10121W        W74329  38.869  43.280   4.826
10122W        W74330  44.435   8.759   4.713
10123W        W74331  40.430  21.521   5.161
10124W        W74332  22.090  33.963  14.985
10125W        W74333  40.352  29.588   5.283
10126W        W74334  23.036  33.045   0.297
10127W        W74335  34.061   2.457  10.911
10128W        W74336   2.853  33.886  10.453
10129W        W74337  25.606  12.683  13.407
10130W        W74338  17.745  39.360  13.826
10131W        W74339   7.405  22.017   3.218
10132W        W74340  39.385  21.139  10.562
10133W        W74341   7.382  20.239  12.080
10134W        W74342   6.391  38.869   3.365
10135W        W74343  34.562   1.800   2.888
10136W        W74344  21.726  33.932  13.423
10137W        W74345  21.047  19.560  11.465
10138W        W74346  44.003  39.474   0.741
10139W        W74347  31.509  37.565   2.690
10140W        W74348   2.455  17.079  10.506
10141W        W74349  12.649  42.794   3.272
10142W        W74350   7.318   1.272   2.873
10143W        W74351  32.633  32.057  11.430
10144W        W74352   0.263  26.694  14.846
10145W        W74353  43.368  18.677  14.021
10146W        W74354   1.307  19.711   2.258
10147W        W74355  35.900  30.015  12.954
10148W        W74356   1.467   5.310  14.824
10149W        W74357   2.294  28.158   3.272
10150W        W74358  30.569  44.806  10.412
10151W        W74359  31.977   1.960   1.934
10152W        W74360   9.367  19.705  11.396
10153W        W74361  36.461  37.340   3.328
10154W        W74362  24.539  17.107   4.225
10155W        W74363  33.113   2.865   4.170
10156W        W74364  10.290  26.592   4.776
10157W        W74365   2.734  15.305  13.858
10158W        W74366  42.970   0.988  10.631
10159W        W74367  37.006  12.815  12.825
10160W        W74368   0.819  17.756  14.508
10161W        W74369  27.497  21.595  14.299
10162W        W74370   5.888  16.209   2.861
10163W        W74371  34.874  42.499   4.644
10164W        W74372  12.232  42.361  10.581
10165W        W74373  14.707  36.355   0.776
10166W        W74374  10.191  27.650  14.433
10167W        W74375  37.010  27.014   1.805
10168W        W74376  42.473  37.506  13.048
10169W        W74377  32.902   3.409   2.685
10170W        W74378  29.170  31.568  13.005
10171W        W74379  26.055   1.954   1.760
10172W        W74380  21.744  29.663  14.857
10173W        W74381  10.184  24.076  10.558
10174W        W74382   9.836  16.198  10.888
10175W        W74383  30.504  18.568  11.902
10176W        W74384  22.661  38.055   2.223
10177W        W74385  30.618  25.579   3.340
10178W        W74386   8.769  42.463   1.331
10179W        W74387  18.615   8.300  10.578
10180W        W74388   9.249  39.835   3.159
10181W        W74389  11.723   4.801  11.932
10182W        W74390   5.752  34.027  14.773
10183W        W74391  28.565  37.573  12.825
10184W        W74392  37.866  37.924  10.950
10185W        W74393  17.206  39.348  14.931
10186W        W74394  44.311  29.018   0.948
10187W        W74395   8.330  22.662   4.265
10188W        W74396  16.757  15.786   3.763
10189W        W74397  44.424  30.910  12.495
10190W        W74398  36.989  33.921   1.786
10191W        W74399   4.906  35.912  11.596
10192W        W74400   8.300  21.541   3.353
10193W        W74401  34.116  20.671   3.349
10194W        W74402  43.381  29.003  13.996
10195W        W74403   8.405  15.232   0.875
10196W        W74404  12.755  44.968  12.546
10197W        W74405  15.091  17.735   3.789
10198W        W74406  19.546  42.925   2.784
10199W        W74407  25.008  42.311  13.848
10200W        W74408   6.867   1.790   2.882
10201W        W74409  42.981  24.528  13.384
10202W        W74410   7.178   4.243  11.499
10203W        W74411  20.266   7.778  11.483
10204W        W74412  32.066  36.499  11.040
10205W        W74413  38.347  38.861   1.876
10206W        W74414  30.490  19.682   2.403
10207W        W74415   1.904  14.165  10.483
10208W        W74416   7.315  19.599  10.504
10209W        W74417  10.161  27.051  14.012
10210W        W74418  31.627  37.053   1.358
10211W        W74419  27.093  10.769  13.405
10212W        W74420  40.515  37.014  12.401
10213W        W74421  11.268  22.103   4.302
10214W        W74422   1.732  17.279   1.729
10215W        W74423  37.866  12.353  13.837
10216W        W74424  12.278  14.256   5.303
10217W        W74425  12.360  23.096  13.907
10218W        W74426   7.361   1.879  10.558
10219W        W74427  40.825  34.583  13.519
10220W        W74428  30.577  19.081   0.419
10221W        W74429  17.232  42.783  11.560
10222W        W74430  13.268  25.699  11.067
10223W        W74431  18.158  30.164  11.470
10224W        W74432  36.567  18.153  10.930
10225W        W74433  23.655  16.736   0.731
10226W        W74434  26.074  17.160  10.645
10227W        W74435  34.402  30.953   1.331
10228W        W74436  44.948   5.911   4.194
10229W        W74437  13.636   9.230   1.355
10230W        W74438  32.065  43.271  10.901
10231W        W74439  10.697  36.545   0.332
10232W        W74440   4.382   2.740  11.879
10233W        W74441  42.496   6.255   1.357
10234W        W74442  21.167  28.629  14.341
10235W        W74443  25.022  44.311   3.695
10236W        W74444   3.351  24.161   2.287
10237W        W74445   7.844  30.062  14.923
10238W        W74446   4.808   8.379   4.332
10239W        W74447  21.191   0.961   3.224
10240W        W74448  30.471  19.146   4.293
10241W        W74449  19.752  29.958  11.084
10242W        W74450  26.160  32.988  11.075
10243W        W74451   4.385  18.199   4.184
10244W        W74452  35.904   6.262   0.799
10245W        W74453  30.133  21.185   0.749
10246W        W74454  14.815  30.949  10.435
10247W        W74455  25.496  33.448   4.597
10248W        W74456   0.325  25.977   1.369
10249W        W74457  10.172  44.826   1.232
10250W        W74458  27.015  26.543   3.759
10251W        W74459  23.056  23.176  11.055
10252W        W74460  34.921  36.973   0.264
10253W        W74461   4.418  40.547   2.308
10254W        W74462  22.741   5.370   0.938
10255W        W74463   8.753  11.160   0.267
10256W        W74464  19.223   6.409  12.090
10257W        W74465  44.365   2.957   1.233
10258W        W74466  36.555  22.025   1.254
10259W        W74467  20.135  23.691  11.969
10260W        W74468  42.022  28.499  13.530
10261W        W74469  12.656  44.838  13.512
10262W        W74470  36.571  39.529  10.501
10263W        W74471  12.621   4.729  11.426
10264W        W74472  23.640   4.420   2.899
10265W        W74473  32.554  38.347   1.375
10266W        W74474  29.934  13.143   0.829
10267W        W74475  38.532   6.420   4.212
10268W        W74476  44.401  42.460   0.956
10269W        W74477  10.284  21.606  11.926
10270W        W74478  31.543  11.675   2.381
10271W        W74479  38.898  27.995  12.077
10272W        W74480  39.386  40.825   2.359
10273W        W74481  14.250  11.700  12.569
10274W        W74482   1.743  17.290   3.229
10275W        W74483  20.241  40.535  10.635
10276W        W74484   1.920  14.311  14.452
10277W        W74485  26.631  44.443   3.687
10278W        W74486  12.734  39.903  11.602
10279W        W74487   3.847  11.364  14.384
10280W        W74488   4.917  44.505  11.866
10281W        W74489  14.337  32.491  12.834
10282W        W74490  11.822  35.961   2.417
10283W        W74491  44.903   3.743  10.620
10284W        W74492   4.425  44.265  13.441
10285W        W74493  44.777  18.790   4.265
10286W        W74494  41.491  14.138   4.779
10287W        W74495   6.837  13.754  12.497
10288W        W74496  15.149  42.391   1.734
10289W        W74497  29.632  31.552  11.890
10290W        W74498  37.947  40.547  11.925
10291W        W74499  33.457  39.007  11.517
10292W        W74500   7.326  11.635   2.205
10293W        W74501  29.531  27.107  14.915
10294W        W74502  25.617  36.921  14.323
10295W        W74503   7.805  40.016  12.918
10296W        W74504   6.800  34.522   1.755
10297W        W74505  22.248  13.792  12.979
10298W        W74506   4.841  12.119   3.685
10299W        W74507  32.067   2.471   3.270
10300W        W74508   2.857  18.136  12.548
10301W        W74509  32.481   3.288   1.761
10302W        W74510  14.229  26.131   4.291
10303W        W74511   8.280   7.846  14.987
10304W        W74512  30.429  22.180   3.653
10305W        W74513   8.687  21.563  11.457
10306W        W74514  23.682   5.405  13.520
10307W        W74515  43.370   9.379  12.391
10308W        W74516  17.132  39.512  11.858
10309W        W74517  17.781  39.898  12.995
10310W        W74518  26.545  22.503   2.357
10311W        W74519  10.712  22.038  11.430
10312W        W74520  43.831  32.930   2.758
10313W        W74521  26.114  13.301   2.749
10314W        W74522   8.253  10.382   0.778
10315W        W74523   9.177  34.058   0.905
10316W        W74524  12.117  26.979   4.196
10317W        W74525  32.609  30.048   4.343
10318W        W74526   8.741  16.619   4.248
10319W        W74527  16.673  26.545   3.749
10320W        W74528  13.267   7.744  13.357
10321W        W74529  15.178  30.155  13.448
10322W        W74530   3.922  21.165   3.383
10323W        W74531   8.226  40.369  13.026
10324W        W74532  36.434  15.607  10.087
10325W        W74533   0.349   6.191   0.962
10326W        W74534  19.197  24.513  13.936
10327W        W74535  42.490   4.383  12.415
10328W        W74536   9.696  36.084   1.274
10329W        W74537  37.505   0.844   0.380
10330W        W74538  18.632  20.762   4.187
10331W        W74539  15.697  40.431  11.998
10332W        W74540  32.957   7.877   4.702
10333W        W74541  19.731   5.371   4.207
10334W        W74542  41.387  44.462   3.223
10335W        W74543  12.787  18.779   1.452
10336W        W74544  38.907  24.488  10.910
10337W        W74545   6.385  16.148   3.771
10338W        W74546  40.003  36.437  14.973
10339W        W74547  32.960  37.418   3.666
10340W        W74548  28.628  27.942   3.321
10341W        W74549  31.531  43.009  11.985
10342W        W74550  37.065   2.727  10.935
10343W        W74551  41.353   4.266  10.526
10344W        W74552  22.680  16.177   3.749
10345W        W74553  17.706   5.328  14.832
10346W        W74554  12.210  20.062  10.994
10347W        W74555  42.333  14.216  13.794
10348W        W74556  22.556   2.730   3.344
10349W        W74557  22.187  11.809   3.737
10350W        W74558  14.303  36.887   1.789
10351W        W74559  15.822  15.682   2.864
10352W        W74560   6.364   1.848  11.378
10353W        W74561  35.852  24.487   1.901
10354W        W74562  15.160  18.773   0.907
10355W        W74563  37.029  25.193   3.173
10356W        W74564  25.569  40.405   0.799
10357W        W74565  33.127  26.083  13.809
10358W        W74566  39.998   1.389  14.307
10359W        W74567  43.936  41.939  10.485
10360W        W74568  17.605  14.298   2.244
10361W        W74569   1.355  42.956   4.330
10362W        W74570  25.030  36.459   5.253
10363W        W74571  23.563  18.770   0.920
10364W        W74572  16.639  37.399   2.689
10365W        W74573   7.849  34.469   2.185
10366W        W74574  31.490   5.378   2.341
10367W        W74575  11.253   3.946   2.855
10368W        W74576   4.732   1.336   1.352
10369W        W74577  21.200  15.581  13.003
10370W        W74578   2.321  13.166   1.235
10371W        W74579  21.692  38.331   1.259
10372W        W74580   5.741  43.353  14.384
10373W        W74581  28.654  32.095  13.507
10374W        W74582   2.383  43.332  11.103
10375W        W74583  31.957   0.766  12.886
10376W        W74584   8.837   0.850  13.418
10377W        W74585  36.508  14.269   5.273
10378W        W74586  34.924   4.306  14.800
10379W        W74587  31.039   7.857   3.767
10380W        W74588   5.226  18.668   4.256
10381W        W74589  14.749  28.482   3.700
10382W        W74590  12.623  16.247   4.646
10383W        W74591  12.174  28.174  12.996
10384W        W74592  16.653  30.457  14.500
10385W        W74593  25.149  13.270   1.309
10386W        W74594  42.027  14.258  12.455
10387W        W74595  43.935  35.058  13.795
10388W        W74596  35.481   1.967   2.222
10389W        W74597  37.951  26.556  12.892
10390W        W74598  23.192  29.025  13.442
10391W        W74599  36.515   5.782   4.192
10392W        W74600  28.153  11.187  13.852
10393W        W74601  17.271  38.381   2.205
10394W        W74602  21.596   2.409  10.478
10395W        W74603  33.021  14.800  12.520
10396W        W74604  30.626  29.488  10.621
10397W        W74605  43.877  16.604   2.177
10398W        W74606  29.920   4.291  10.499
10399W        W74607  30.521  26.484   5.300
10400W        W74608   7.792  32.469  12.871
10401W        W74609   1.963  24.974   1.783
10402W        W74610  10.227  11.180   2.374
10403W        W74611  34.025  30.659   4.269
10404W        W74612  22.232  13.817  11.578
10405W        W74613  16.705   7.185  12.028
10406W        W74614  19.205  21.033  14.321
10407W        W74615  25.676  27.196  12.408
10408W        W74616  14.684  33.109  10.583
10409W        W74617  42.366   6.347  14.850
10410W        W74618  18.053  44.884   4.831
10411W        W74619  43.388  33.453  14.318
10412W        W74620  15.662   5.721   2.243
10413W        W74621   6.770  17.161  11.441
10414W        W74622   7.897  25.136   1.217
10415W        W74623  34.380  39.027  13.002
10416W        W74624   1.918  38.532  13.063
10417W        W74625   7.754  10.140   1.298
10418W        W74626  27.629   0.963  13.802
10419W        W74627   8.661  34.591  13.026
10420W        W74628  38.552  25.571  11.889
10421W        W74629   7.405  10.259  13.056
10422W        W74630   9.796  35.471  12.553
10423W        W74631  11.685  43.019   2.280
10424W        W74632  29.968   5.912   1.727
10425W        W74633  42.022   8.203  13.008
10426W        W74634  23.540  35.474  14.839
10427W        W74635   8.756  37.006  11.090
10428W        W74636  10.764   8.841   0.417
10429W        W74637  17.783  27.982   3.718
10430W        W74638  38.030  43.852  13.336
10431W        W74639  25.489  11.786   2.390
10432W        W74640  22.042  33.408   4.228
10433W        W74641  31.621  28.951  13.307
10434W        W74642  22.577   4.775  11.977
10435W        W74643  40.979  14.269   3.378
10436W        W74644  40.316  42.347  14.354
10437W        W74645  40.947  41.364  12.440
10438W        W74646  10.674   3.278  14.841
10439W        W74647  40.929  42.947   0.334
10440W        W74648   4.935  31.152  13.822
10441W        W74649  32.131  30.492  12.563
10442W        W74650  24.193   7.215  11.554
10443W        W74651   7.332  41.959  12.975
10444W        W74652  12.198  11.328  10.948
10445W        W74653   0.475  42.908   1.903
10446W        W74654  16.704  42.388  11.043
10447W        W74655  25.032  11.201  11.952
10448W        W74656  13.827  19.589  12.477
10449W        W74657  32.059  41.884  12.867
10450W        W74658  28.658  29.455   4.132
10451W        W74659  17.701  32.521   2.878
10452W        W74660   8.676  42.016   5.179
10453W        W74661  39.400   7.202   2.366
10454W        W74662  30.916  19.138  13.852
10455W        W74663  28.532  21.053   1.412
10456W        W74664  34.594  13.166  13.943
10457W        W74665   8.213  28.461  11.036
10458W        W74666  33.399  26.546   0.418
10459W        W74667  23.617  35.988  13.475
10460W        W74668   5.371  18.049   0.308
10461W        W74669  16.706  12.835   1.257
10462W        W74670   7.821  40.879  10.524
10463W        W74671   3.222  11.696  12.550
10464W        W74672   5.341   8.299   3.163
10465W        W74673  12.355  13.250   1.311
10466W        W74674  36.557  29.549  10.520
10467W        W74675   4.348  43.824   4.750
10468W        W74676  22.239  15.309   2.668
10469W        W74677  10.724  34.017  14.356
10470W        W74678  36.920  42.992   2.714
10471W        W74679  12.834   2.773   2.715
10472W        W74680  40.414  13.846   0.465
10473W        W74681  39.415  34.423   2.340
10474W        W74682  30.652   3.419  10.952
10475W        W74683  16.739  41.926  13.052
10476W        W74684  28.980  32.087  10.523
10477W        W74685   6.356   1.903  14.315
10478W        W74686  29.634   1.458   2.185
10479W        W74687   3.309  40.477  14.811
10480W        W74688  11.792  40.461  11.094
10481W        W74689  35.893  36.856  11.955
10482W        W74690   2.250  35.022   0.952
10483W        W74691  14.807  27.518   2.849
10484W        W74692  29.512  29.552   2.802
10485W        W74693  14.774   5.272   1.882
10486W        W74694   1.969  17.197   3.679
10487W        W74695   9.327  37.378  11.407
10488W        W74696  16.100  12.201  11.423
10489W        W74697  32.599  12.846   2.346
10490W        W74698  27.542  29.161  11.013
10491W        W74699   7.205   6.287   3.653
10492W        W74700  12.355  22.100   1.433
10493W        W74701  12.287   4.337   2.694
10494W        W74702  26.521  15.709   4.668
10495W        W74703  30.498  11.344  14.329
10496W        W74704   2.366   3.243   4.209
10497W        W74705   1.297   4.876   1.793
10498W        W74706   4.434  29.477   2.219
10499W        W74707  17.711   0.859   0.738
10500W        W74708  19.057  37.050  11.568
10501W        W74709  27.180   2.733   2.218
10502W        W74710  23.534  26.958   0.827
10503W        W74711  10.163  29.132   1.229
10504W        W74712  18.113  26.696  10.922
10505W        W74713  34.038   3.931  11.943
10506W        W74714  29.102  29.433   4.620
10507W        W74715  34.106  21.245  14.361
10508W        W74716  44.844   6.216  14.856
10509W        W74717  36.977  12.686   1.796
10510W        W74718  35.994   4.424  13.311
10511W        W74719   2.761  34.948   0.787
10512W        W74720  32.143  26.161  13.487
10513W        W74721  44.954  36.988  14.824
10514W        W74722  35.925  36.349  11.868
10515W        W74723  27.183  11.797   0.883
10516W        W74724  17.692  21.756  13.359
10517W        W74725   3.817  40.936   3.669
10518W        W74726   2.770  10.247  12.453
10519W        W74727  15.253  15.289   0.862
10520W        W74728  38.458   1.778  10.488
10521W        W74729  42.805  35.522  12.842
10522W        W74730  17.177   8.822   3.638
10523W        W74731  38.356  27.956  12.933
10524W        W74732  43.931  35.431  11.542
10525W        W74733  42.471  36.043   4.597
10526W        W74734   0.826  19.128   4.767
10527W        W74735  32.932  13.147   1.791
10528W        W74736  23.676  37.538  14.499
10529W        W74737  20.591   0.838   3.326
10530W        W74738  32.597  30.954  13.956
10531W        W74739  16.567  39.425   1.223
10532W        W74740  44.468  32.417  13.429
10533W        W74741  10.750  15.326   3.865
10534W        W74742  43.778  33.441  12.458
10535W        W74743   4.899  34.993  11.374
10536W        W74744   6.759  21.196  10.982
10537W        W74745   3.824   4.387   2.213
10538W        W74746  33.037   1.457   4.317
10539W        W74747   5.352  11.668   2.265
10540W        W74748  17.747  36.411   3.381
10541W        W74749  27.192   7.894  14.328
10542W        W74750  25.538  35.086   3.714
10543W        W74751  36.355   8.288   2.324
10544W        W74752   7.346  30.468  12.382
10545W        W74753  27.492  34.466  14.466
10546W        W74754  24.681  34.583   3.865
10547W        W74755  33.446  42.329   5.251
10548W        W74756  42.415  29.536   0.813
10549W        W74757  44.436   0.455  13.807
10550W        W74758   2.907  30.120   0.899
10551W        W74759  37.021  28.590  11.083
10552W        W74760  22.182  30.012  14.304
10553W        W74761  27.953   2.413   4.713
10554W        W74762  24.715  33.604  14.864
10555W        W74763  26.017  41.840   0.275
10556W        W74764   5.371   9.313   0.305
10557W        W74765  36.947  18.650   1.246
10558W        W74766  21.735   8.883  12.572
10559W        W74767  35.365  16.698   2.279
10560W        W74768   3.868   4.273  11.371
10561W        W74769  15.101  19.768  11.906
10562W        W74770   5.199  29.595  10.145
10563W        W74771  36.575  38.973   9.947
10564W        W74772  31.646   6.815  11.925
10565W        W74773  36.533  37.514  10.978
10566W        W74774  14.134  32.436   0.820
10567W        W74775  13.736  13.792  11.600
10568W        W74776  30.508  11.832   0.817
10569W        W74777  44.399   2.439   2.678
10570W        W74778  44.499  23.154  12.867
10571W        W74779  37.432  31.431  14.873
10572W        W74780   6.757  44.422   2.819
10573W        W74781  40.527  36.928   1.435
10574W        W74782  28.599  27.570   0.726
10575W        W74783   4.940  21.089  13.497
10576W        W74784   2.935  13.163  14.391
10577W        W74785  39.448  31.127  14.420
10578W        W74786  43.009   1.944   3.154
10579W        W74787  31.544   2.452   3.739
10580W        W74788  31.134  16.575  14.476
10581W        W74789  25.573   7.294  13.934
10582W        W74790  21.735  34.954  14.992
10583W        W74791  27.585  20.524   0.350
10584W        W74792  42.813   1.253  11.383
10585W        W74793  43.983  17.112   4.300
10586W        W74794  30.497   8.840  11.373
10587W        W74795   0.797  44.291   2.810
10588W        W74796  33.961  33.921   4.266
10589W        W74797  18.668  42.954   4.629
10590W        W74798  41.892  32.470   0.434
10591W        W74799  15.634  26.532  14.769
10592W        W74800   8.754  35.967   0.316
10593W        W74801  15.220  16.106   2.196
10594W        W74802  10.344  25.099   2.301
10595W        W74803  40.029  18.292  13.809
10596W        W74804  26.669  42.362  14.477
10597W        W74805  31.624   6.275   0.330
10598W        W74806  28.086  25.120   2.662
10599W        W74807  44.440  20.731  14.840
10600W        W74808  26.992   1.732  13.018
10601W        W74809  33.420   3.383  12.467
10602W        W74810  18.720  32.118  13.827
10603W        W74811  17.256  28.161   5.134
10604W        W74812  26.088  34.490   0.919
10605W        W74813  26.140  33.937   2.322
10606W        W74814  44.504   0.430   4.233
10607W        W74815  15.789  14.157  12.989
10608W        W74816  29.134  12.251   1.419
10609W        W74817  25.159  25.978   2.812
10610W        W74818  24.031  20.105  14.007
10611W        W74819  30.492   8.897   1.227
10612W        W74820   0.350  15.778  14.973
10613W        W74821  33.898  37.988   2.685
10614W        W74822   5.408  34.397  14.866
10615W        W74823  17.172  34.995   3.633
10616W        W74824  28.084  28.565   2.874
10617W        W74825  17.678   3.419  11.592
10618W        W74826   4.860   1.263  11.061
10619W        W74827   2.438  44.352  11.552
10620W        W74828  13.682  21.057  13.036
10621W        W74829  29.496  40.325   3.360
10622W        W74830  10.221  11.166   5.690
10623W        W74831  19.552  17.718  11.921
10624W        W74832  11.130  32.401   4.159
10625W        W74833  44.356  31.954   5.593
10626W        W74834  33.451   5.235   2.374
10627W        W74835  17.762   0.275   4.137
10628W        W74836  33.535  18.286   5.133
10629W        W74837   8.222   0.424   4.207
10630W        W74838  42.480   5.896  14.768
10631W        W74839  32.047  31.532  12.447
10632W        W74840  28.458  41.788  11.471
10633W        W74841  26.595  31.549  14.970
10634W        W74842   4.442  41.797  13.964
10635W        W74843  40.823  23.180  13.868
10636W        W74844  40.017  35.405   4.708
10637W        W74845  13.634  26.496  12.555
10638W        W74846  13.263  39.464  14.873
10639W        W74847   7.718  30.964   3.641
10640W        W74848  39.540   0.803  14.491
10641W        W74849  31.524  16.788   2.811
10642W        W74850   0.339  34.539  14.012
10643W        W74851   4.344   0.371   4.173
10644W        W74852  36.045  20.215  14.860
10645W        W74853  31.611  33.041  14.297
10646W        W74854   6.199  10.764  13.441
10647W        W74855   7.726  12.695   4.144
10648W        W74856   1.738  27.970   2.275
10649W        W74857  28.135  28.992   1.320
10650W        W74858  39.998  42.879   3.730
10651W        W74859   7.751  31.550   3.823
10652W        W74860  28.614  26.466   4.726
10653W        W74861  38.937  32.059   1.442
10654W        W74862  25.006   5.394  11.499
10655W        W74863  10.305  23.541   3.286
10656W        W74864  20.061   0.888  12.910
10657W        W74865  34.450  36.499  14.442
10658W        W74866  22.244   9.660   1.754
10659W        W74867  39.978  28.436   1.895
10660W        W74868  13.788  29.556  12.994
10661W        W74869  21.616  21.638   0.767
10662W        W74870  30.966  22.555   0.891
10663W        W74871   0.348  23.227   0.403
10664W        W74872  44.461  40.329  13.329
10665W        W74873  42.311   2.421   3.239
10666W        W74874  42.316  31.125  13.388
10667W        W74875  39.012  26.067   2.341
10668W        W74876  42.889  21.090   0.739
10669W        W74877  33.937  30.944  11.516
10670W        W74878  21.078  11.704  11.086
10671W        W74879  29.582   5.422  13.884
10672W        W74880  42.943   8.771  14.437
10673W        W74881   1.285  21.018  13.898
10674W        W74882  25.585  36.881  14.998
10675W        W74883  20.106  20.684   4.653
10676W        W74884  34.416  33.092   0.411
10677W        W74885  10.643  23.191  14.962
10678W        W74886   2.434  11.807  14.792
10679W        W74887  13.656  23.024   1.321
10680W        W74888  17.586  41.975   0.784
10681W        W74889  23.538  13.734   4.349
10682W        W74890  39.322  44.935   4.241
10683W        W74891  25.185   1.910   2.862
10684W        W74892  11.302  28.937  13.826
10685W        W74893  16.281  21.251   2.295
10686W        W74894   5.357  37.550  14.859
10687W        W74895  37.566  18.571  10.642
10688W        W74896  30.619  40.050  13.460
10689W        W74897   3.814  33.394  14.976
10690W        W74898   9.290   6.271   0.876
10691W        W74899  13.642  38.521  12.006
10692W        W74900  12.131  43.470  11.471
10693W        W74901   5.230   5.711  12.966
10694W        W74902  36.449  40.504   3.299
10695W        W74903  30.647  25.508  10.942
10696W        W74904  40.392   7.222  14.471
10697W        W74905  43.285  14.741  12.571
10698W        W74906   6.286  21.576  10.572
10699W        W74907  42.468   1.816   3.786
10700W        W74908  27.669  18.259  12.989
10701W        W74909  19.245   5.927   2.702
10702W        W74910  13.732  29.943  10.442
10703W        W74911  25.190  18.063  11.456
10704W        W74912  26.538  28.002  14.369
10705W        W74913  19.131   4.384   3.670
10706W        W74914  10.711   6.757  13.310
10707W        W74915   0.744  42.031  10.552
10708W        W74916  22.068  18.555  14.772
10709W        W74917  26.466  15.128  11.032
10710W        W74918  26.061  39.423  12.558
10711W        W74919  33.419  37.435   1.900
10712W        W74920  17.168  14.323   1.926
10713W        W74921  27.174  24.620   4.322
10714W        W74922  20.701  18.673   4.126
10715W        W74923  10.707   0.320  13.311
10716W        W74924   0.372  35.451  13.933
10717W        W74925   0.905  23.155  12.047
10718W        W74926   8.710  39.487   2.746
10719W        W74927  21.116  22.584  10.888
10720W        W74928   8.699  32.564  13.381
10721W        W74929  30.459  37.520   4.627
10722W        W74930  44.780  28.952   4.231
10723W        W74931  26.616  17.129  11.537
10724W        W74932   7.321   9.153   2.379
10725W        W74933  19.273  26.687   0.770
10726W        W74934  12.287  41.001  12.478
10727W        W74935  25.601  20.578   3.160
10728W        W74936  13.329   4.923   3.149
10729W        W74937  44.899  29.598  12.062
10730W        W74938   6.312   0.852  13.047
10731W        W74939  12.146  39.920  13.472
10732W        W74940   5.234   8.768   1.221
10733W        W74941  13.160  30.649  10.570
10734W        W74942  31.450  40.957   1.351
10735W        W74943   3.390   4.426   9.607
10736W        W74944  10.809   8.878   1.413
10737W        W74945   7.392   6.428  11.043
10738W        W74946  16.116   1.937  11.966
10739W        W74947   8.785  32.413  12.971
10740W        W74948  42.344  32.578   3.634
10741W        W74949  18.188  41.331   4.625
10742W        W74950  30.931  36.065   4.729
10743W        W74951  43.358  11.662  14.376
10744W        W74952  33.928  14.302   4.184
10745W        W74953  41.934  36.980  11.472
10746W        W74954   1.892  20.171   1.393
10747W        W74955  29.172  22.202   1.732
10748W        W74956  26.171  19.555  12.378
10749W        W74957  42.841   5.709   0.774
10750W        W74958  42.374   6.833   2.756
10751W        W74959  32.571  37.906  13.014
10752W        W74960  34.874  31.624   1.366
10753W        W74961   0.745   4.342  11.397
10754W        W74962  34.558   3.775  11.413
10755W        W74963  39.882  14.647   1.708
10756W        W74964   7.410   2.400   0.482
10757W        W74965  12.701  29.034  10.457
10758W        W74966  23.694  35.381   1.321
10759W        W74967  31.551  29.011   2.717
10760W        W74968   7.286   5.361   3.279
10761W        W74969   3.946   5.344  14.449
10762W        W74970  30.021  24.675  10.967
10763W        W74971   3.255  17.132  12.843
10764W        W74972  12.812  20.160  13.793
10765W        W74973  38.969  12.244  10.538
10766W        W74974  44.373  38.021   2.363
10767W        W74975  11.192  40.957   4.648
10768W        W74976  35.572  34.890   1.916
10769W        W74977  24.078  41.991  14.505
10770W        W74978  40.994  35.948   4.609
10771W        W74979  44.874   6.845   2.382
10772W        W74980  11.199  36.586  10.979
10773W        W74981  24.497  17.302  12.979
10774W        W74982  27.026   4.413   2.407
10775W        W74983  10.189  36.077  12.520
10776W        W74984  36.424  18.231  11.502
10777W        W74985  23.104  37.481   1.837
10778W        W74986  17.721  30.560   3.804
10779W        W74987  25.020  23.127  13.928
10780W        W74988  44.961   0.960  12.368
10781W        W74989   7.816   3.393   4.791
10782W        W74990  15.612  13.316  14.483
10783W        W74991  43.424  37.466   2.735
10784W        W74992  29.667  41.961  13.869
10785W        W74993  22.593  42.980  12.368
10786W        W74994  20.109  36.589   2.792
10787W        W74995  21.187  33.933   3.803
10788W        W74996  17.735  23.618  11.057
10789W        W74997  32.562  14.745  10.941
10790W        W74998  27.123  12.637  12.869
10791W        W74999  28.503  19.691   0.781
10792W        W75000  19.574   0.427   1.359
10793W        W75001   3.766   2.770   4.113
10794W        W75002  29.014  14.120   1.891
10795W        W75003   2.944  22.120  14.418
10796W        W75004  20.609  31.979   0.800
10797W        W75005   7.677  43.497  14.759
10798W        W75006  17.596  28.949  13.837
10799W        W75007  22.039   5.233  10.501
10800W        W75008  36.585  30.454  13.909
10801W        W75009  33.395  22.517  10.534
10802W        W75010  15.751  18.673   1.772
10803W        W75011  18.157   2.798   4.259
10804W        W75012   0.367  33.060   1.283
10805W        W75013  40.355   1.953   0.318
10806W        W75014  28.103  37.418   4.227
10807W        W75015  22.090  28.008   0.440
10808W        W75016  21.021  14.299   3.707
10809W        W75017   5.705   6.922   3.386
10810W        W75018  40.958  15.771   2.762
10811W        W75019  19.606  42.303  14.319
10812W        W75020  38.534  31.558  13.387
10813W        W75021  31.540   5.759   0.469
10814W        W75022  17.686  20.724  14.953
10815W        W75023  32.457   6.413   3.648
10816W        W75024  43.449  33.095   2.882
10817W        W75025  18.554  31.515   3.849
10818W        W75026  24.622  28.464   4.176
10819W        W75027  31.903   7.372  13.809
10820W        W75028  22.063  28.047  13.839
10821W        W75029  35.906  19.779  14.292
10822W        W75030  31.930  27.612  14.488
10823W        W75031   5.263  41.941  13.535
10824W        W75032  32.432  15.292   4.331
10825W        W75033  20.633  30.588   0.924
10826W        W75034   8.361  28.939  12.433
10827W        W75035  23.665  29.107   0.422
10828W        W75036  28.036  31.131  13.522
10829W        W75037   6.683  40.455   2.849
10830W        W75038  37.449  42.999   9.961
10831W        W75039  36.991  28.522   4.230
10832W        W75040   0.282  28.502   2.836
10833W        W75041  15.227   4.413   3.790
10834W        W75042   8.731  39.043   1.379
10835W        W75043  43.819  25.168  11.927
10836W        W75044   2.845   0.431   1.315
10837W        W75045  23.563  42.295   2.812
10838W        W75046  13.198  37.837   0.762
10839W        W75047  36.512  21.758  10.973
10840W        W75048  33.543  13.338   3.680
10841W        W75049  40.825   7.731  11.446
10842W        W75050   9.168   4.838   3.367
10843W        W75051  43.022  37.047  12.468
10844W        W75052   4.215   8.163   4.631
10845W        W75053  37.886   8.730   3.183
10846W        W75054  44.481  12.785  14.976
10847W        W75055  32.921  39.552  14.005
10848W        W75056  34.593  18.607  10.632
10849W        W75057  21.670  32.521   0.392
10850W        W75058  35.947  36.075   4.637
10851W        W75059   9.327   7.820  13.409
10852W        W75060  16.177  38.827   4.303
10853W        W75061   1.815  30.416   3.231
10854W        W75062   0.434  16.595  13.399
10855W        W75063   4.801  38.530   3.840
10856W        W75064  20.247   7.377  10.587
10857W        W75065   4.794  36.435   2.228
10858W        W75066   5.258  44.271   3.678
10859W        W75067  31.141   1.965   1.906
10860W        W75068  43.780  11.782  14.777
10861W        W75069  22.683  22.732   1.294
10862W        W75070  14.765  39.956  11.980
10863W        W75071   1.967  42.804  13.794
10864W        W75072   2.804  33.917  14.463
10865W        W75073  36.095  18.079   0.872
10866W        W75074  36.440  36.991  10.564
10867W        W75075  44.966  33.939   2.383
10868W        W75076  21.204  23.106   1.370
10869W        W75077  15.677  39.044   3.367
10870W        W75078   5.925  41.024  11.992
10871W        W75079  35.424  33.010   0.411
10872W        W75080  15.629  12.267   4.342
10873W        W75081  14.795   6.410  13.929
10874W        W75082  36.527   8.774   0.793
10875W        W75083  17.769   5.300   3.775
10876W        W75084  27.495  22.181   4.200
10877W        W75085   2.842  17.617   3.289
10878W        W75086  15.608   0.248   4.123
10879W        W75087  28.112   7.229   0.258
10880W        W75088  33.620  32.630   1.331
10881W        W75089  24.167   9.823  14.391
10882W        W75090  34.064  32.440  14.812
10883W        W75091  10.835  41.969   0.324
10884W        W75092   1.950  10.187   1.354
10885W        W75093   8.701  26.028   4.725
10886W        W75094  18.175  31.946  11.394
10887W        W75095  22.055  39.533  14.907
10888W        W75096  23.688   1.395   0.342
10889W        W75097  34.880   6.395  12.575
10890W        W75098  11.315  30.157  12.509
10891W        W75099   6.326   2.281  12.885
10892W        W75100   1.411  32.528   5.105
10893W        W75101  28.648   9.211   4.155
10894W        W75102  22.085   5.794   2.796
10895W        W75103  29.438  41.421   9.961
10896W        W75104   2.423  12.212   4.616
10897W        W75105  40.038  41.900  11.574
10898W        W75106  21.748   9.318  13.887
10899W        W75107  21.046  12.833  12.548
10900W        W75108  13.603  23.658  13.823
10901W        W75109  43.898  36.394   0.834
10902W        W75110  31.083   8.870   0.374
10903W        W75111  18.117  25.965   4.233
10904W        W75112  37.337   2.776  12.384
10905W        W75113  15.099  22.555  12.072
10906W        W75114  13.220  11.137   2.384
10907W        W75115  29.566  26.076  11.105
10908W        W75116  37.521  13.244   1.256
10909W        W75117  29.043  34.572   2.367
10910W        W75118  17.072  10.844   4.708
10911W        W75119   8.222  39.003   3.169
10912W        W75120  19.698  14.660  13.422
10913W        W75121  12.208   4.829  12.880
10914W        W75122  28.602  37.020  11.084
10915W        W75123  30.137  15.815  13.434
10916W        W75124  35.456   5.287  14.976
10917W        W75125  30.953  34.428   4.696
10918W        W75126   0.748  32.485   1.230
10919W        W75127  30.072  31.489   2.296
10920W        W75128  30.061   6.684   2.353
10921W        W75129   0.258   2.940   3.263
10922W        W75130  36.506  14.257   1.753
10923W        W75131  39.825  18.075   4.269
10924W        W75132  26.071  13.625   0.906
10925W        W75133  31.604   1.887  12.838
10926W        W75134   8.660  29.073   1.754
10927W        W75135  28.079  30.519   0.750
10928W        W75136  24.688  21.186  14.760
10929W        W75137  12.209  20.752  11.402
10930W        W75138  43.272  14.225   0.314
10931W        W75139   9.162  18.173  10.450
10932W        W75140  41.373   7.893   5.094
10933W        W75141  40.346   8.737  13.981
10934W        W75142  21.567  26.569   2.876
10935W        W75143  22.017  43.822   3.706
10936W        W75144  20.694  25.658   1.697
10937W        W75145  42.880  41.006  14.317
10938W        W75146  38.330  26.175   1.724
10939W        W75147  28.656   7.175  10.943
10940W        W75148  14.743  37.053  14.950
10941W        W75149   3.257  22.154  13.818
10942W        W75150  29.164  40.446  10.631
10943W        W75151  27.015  30.911  10.483
10944W        W75152  36.059  32.393  12.520
10945W        W75153  12.149  26.698  14.911
10946W        W75154  40.392  12.852   0.830
10947W        W75155   8.851  13.278   0.735
10948W        W75156  29.428  38.928   3.730
10949W        W75157  19.700  24.594  13.380
10950W        W75158  13.320  29.585  12.824
10951W        W75159  21.084  33.948  13.480
10952W        W75160  30.548   1.786   1.702
10953W        W75161   1.932   4.743   1.285
10954W        W75162  14.154  32.613   4.175
10955W        W75163  20.050   9.201   4.836
10956W        W75164  28.438  22.618   2.791
10957W        W75165  38.967  14.211  11.968
10958W        W75166  29.579  30.440  14.331
10959W        W75167   4.901  44.985   3.687
10960W        W75168  35.455  20.262   3.777
10961W        W75169  15.789  37.446   0.818
10962W        W75170   5.875   9.172  11.094
10963W        W75171  32.603  13.330  14.507
10964W        W75172  35.059  32.586  13.383
10965W        W75173  11.172   6.916  10.539
10966W        W75174  25.484  26.671  11.505
10967W        W75175  18.692   2.774  12.445
10968W        W75176  11.671  28.049  11.381
10969W        W75177  13.618  14.778   3.862
10970W        W75178  31.903  31.562   0.746
10971W        W75179   4.209  12.760   3.798
10972W        W75180  29.024  35.384   3.253
10973W        W75181  40.358  42.291   0.250
10974W        W75182  11.350  36.022  12.416
10975W        W75183   9.679   6.275  13.857
10976W        W75184  26.502  30.610   2.794
10977W        W75185  31.565   1.290  12.533
10978W        W75186  12.208  40.836  12.931
10979W        W75187  32.525  17.596  12.436
10980W        W75188  42.800  11.142  10.054
10981W        W75189  35.432  13.680   1.260
10982W        W75190  43.466  36.522  14.981
10983W        W75191   4.715   0.347  14.320
10984W        W75192  39.916  29.588   2.329
10985W        W75193   1.896  38.974   4.172
10986W        W75194  11.200   6.813   4.130
10987W        W75195  17.597   3.733   2.285
10988W        W75196   1.287  35.091  14.440
10989W        W75197   6.352  30.572   0.343
10990W        W75198  38.520  21.075  10.052
10991W        W75199  40.803   5.358  11.127
10992W        W75200  26.599   4.239   1.374
10993W        W75201  30.509  38.415  11.599
10994W        W75202  16.807   9.310  12.375
10995W        W75203  42.324   1.922   3.382
10996W        W75204   5.841  24.041   1.857
10997W        W75205  14.270  37.085   4.622
10998W        W75206  26.558  33.936   0.384
10999W        W75207  15.736  37.357   1.356
11000W        W75208   9.177  20.137   0.803
11001W        W75209  35.457  44.847   4.767
11002W        W75210   1.427  20.635   4.122
11003W        W75211  38.927   9.688   1.754
11004W        W75212   7.721   2.360  12.567
11005W        W75213  18.559  37.835  11.038
11006W        W75214  42.861  20.203   4.665
11007W        W75215  39.505  44.860   0.420
11008W        W75216  29.111  35.396   4.193
11009W        W75217  15.239  37.896   1.427
11010W        W75218  27.040  12.653  10.971
11011W        W75219  36.544  40.837   1.750
11012W        W75220  14.145  26.087   3.372
11013W        W75221   4.888   3.832   3.374
11014W        W75222  34.458  22.244  11.402
11015W        W75223  14.615  29.573   4.327
11016W        W75224  20.708  20.233  10.518
11017W        W75225  43.886  23.037   1.842
11018W        W75226  42.960  27.632  12.566
11019W        W75227  16.276  21.244   3.179
11020W        W75228   6.189  26.481   0.940
11021W        W75229  17.231  36.905   9.563
11022W        W75230  33.458  21.587  13.458
11023W        W75231   3.408   6.214   3.740
11024W        W75232  40.496  17.713   0.959
11025W        W75233  40.838   4.762  14.800
11026W        W75234  36.486  21.625   2.328
11027W        W75235  44.978  11.366  11.901
11028W        W75236  33.107  43.323   2.746
11029W        W75237  40.447   5.838  10.998
11030W        W75238  40.333  39.938   2.255
11031W        W75239  29.060  21.094   0.950
11032W        W75240  18.223  17.248  14.412
11033W        W75241   2.471  32.050   0.421
11034W        W75242  19.653  42.010   0.729
11035W        W75243  39.015  32.595   2.262
11036W        W75244   8.387   3.833  13.963
11037W        W75245  18.054   4.365   1.884
11038W        W75246  21.684   7.206  10.498
11039W        W75247   2.863   0.328   4.624
11040W        W75248   3.829   6.859  14.313
11041W        W75249   8.324   8.696   0.301
11042W        W75250  22.634  39.364   0.898
11043W        W75251  28.576   0.317  11.539
11044W        W75252  38.950  33.604   4.711
11045W        W75253  38.346  28.644   0.940
11046W        W75254   6.294   7.779   4.342
11047W        W75255   5.895  40.841  14.791
11048W        W75256  25.089  24.710   4.161
11049W        W75257  41.519  17.796  14.930
11050W        W75258  30.514  13.702  12.983
11051W        W75259  10.781  40.938   0.730
11052W        W75260  22.015  27.949  13.310
11053W        W75261  12.242  39.353   3.785
11054W        W75262  43.819  44.875  14.872
11055W        W75263  19.683  11.258  13.975
11056W        W75264   3.784  13.268   0.897
11057W        W75265  11.697  30.121   4.280
11058W        W75266  32.521   6.201   1.791
11059W        W75267   5.761  21.196   9.979
11060W        W75268  20.619  15.658  13.521
11061W        W75269  37.544  29.630   4.838
11062W        W75270  28.065  24.682   1.772
11063W        W75271  34.008   1.353  12.066
11064W        W75272   9.771  28.063   1.766
11065W        W75273  16.632  40.847  12.961
11066W        W75274   6.264  30.465  14.955
11067W        W75275   1.238  10.860   4.807
11068W        W75276  19.046  41.307  12.435
11069W        W75277  24.105   8.329  13.989
11070W        W75278  18.186  42.940   4.662
11071W        W75279   2.368  34.546   2.273
11072W        W75280  35.950  14.251   3.821
11073W        W75281   8.276  18.200  14.422
11074W        W75282  12.210  32.399  12.916
11075W        W75283  27.056   3.767   2.789
11076W        W75284  42.485   6.314  12.932
11077W        W75285  22.237  26.963   1.356
11078W        W75286   9.354  13.779  14.442
11079W        W75287  15.287  41.479   3.819
11080W        W75288   9.795  13.712  14.454
11081W        W75289  23.714   3.258   2.214
11082W        W75290  11.186   9.166  11.882
11083W        W75291  20.261  31.010  13.990
11084W        W75292   7.779  30.606   5.317
11085W        W75293  26.487   6.833   2.872
11086W        W75294  28.035   7.184   3.193
11087W        W75295  14.253   4.354  12.542
11088W        W75296   3.379   7.322  12.438
11089W        W75297   0.452  32.633   4.752
11090W        W75298  17.244  30.590  10.079
11091W        W75299  41.465  12.350  14.970
11092W        W75300  18.607   4.272  14.317
11093W        W75301  28.067  36.008  12.015
11094W        W75302   2.333  35.961  13.828
11095W        W75303   3.435  31.056  11.383
11096W        W75304  19.044   5.405   2.299
11097W        W75305  32.036   6.208  11.935
11098W        W75306   1.380   8.759   1.435
11099W        W75307   2.380  34.075  14.988
11100W        W75308  20.225   8.812   1.868
11101W        W75309  23.730  18.139  10.900
11102W        W75310  32.404  15.150  14.356
11103W        W75311   8.661  30.008   2.778
11104W        W75312  28.051  20.180   2.751
11105W        W75313  18.120   6.206  11.980
11106W        W75314  36.851  31.946   9.930
11107W        W75315  32.031  24.679  14.509
11108W        W75316  16.677  16.252  13.017
11109W        W75317  11.302  44.486   3.350
11110W        W75318  37.576  40.012  12.527
11111W        W75319   7.731  38.037  13.981
11112W        W75320  31.562  41.852  11.608
11113W        W75321  35.895  10.162  12.418
11114W        W75322  27.967  12.296  10.093
11115W        W75323  14.693   8.899   5.307
11116W        W75324   7.888   9.245  10.897
11117W        W75325   6.424   9.239  11.399
11118W        W75326   3.248  33.911   4.287
11119W        W75327  23.507  17.080   2.207
11120W        W75328  44.463  38.025  12.037
11121W        W75329  43.304  21.678  11.513
11122W        W75330   0.395  21.588  10.938
11123W        W75331  21.548  39.058   1.325
11124W        W75332  33.025  37.877  12.828
11125W        W75333  37.454  12.278   1.347
11126W        W75334  36.028  15.274   2.749
11127W        W75335  17.643  13.315  14.994
11128W        W75336  37.062  14.203   5.178
11129W        W75337  40.961  18.752   1.349
11130W        W75338   3.382  32.064   5.177
11131W        W75339  36.573   9.754   0.728
11132W        W75340  37.455  38.508   3.366
11133W        W75341  20.744  31.491   1.844
11134W        W75342   9.248  42.924   0.321
11135W        W75343   3.218  19.679   0.303
11136W        W75344  27.113  20.269  11.501
11137W        W75345  16.768  10.835  14.349
11138W        W75346  20.740   3.732  11.428
11139W        W75347  33.588  10.644  11.435
11140W        W75348  42.295  18.098  11.385
11141W        W75349   5.420  37.407  10.948
11142W        W75350   6.323   0.459  13.433
11143W        W75351  37.424  43.509  12.576
11144W        W75352  28.180   0.938  10.140
11145W        W75353   8.292   2.772  13.390
11146W        W75354   5.833  41.302   1.382
11147W        W75355   7.801  21.667  11.903
11148W        W75356   0.908  20.568   4.264
11149W        W75357  42.814   0.361   0.262
11150W        W75358  30.414  30.993  13.487
11151W        W75359  10.681  20.734  14.979
11152W        W75360  35.050  22.577   3.263
11153W        W75361  18.138  11.731  14.959
11154W        W75362  28.158   2.409   1.792
11155W        W75363  37.532  43.902  10.480
11156W        W75364  18.561  22.153   1.787
11157W        W75365  22.197  13.218   0.730
11158W        W75366  12.628  22.092  13.803
11159W        W75367  23.687  28.518   2.208
11160W        W75368  32.424  29.091  11.524
11161W        W75369  27.024  17.688   2.842
11162W        W75370  36.931  42.338   1.751
11163W        W75371  43.993  14.129   4.261
11164W        W75372  10.198  19.568   2.758
11165W        W75373  36.503  23.666  10.040
11166W        W75374  20.245  33.970   2.305
11167W        W75375  31.537  35.034  13.438
11168W        W75376  20.759  39.876  12.072
11169W        W75377  15.221  28.013  13.940
11170W        W75378  19.057   9.338  14.464
11171W        W75379  38.873   0.914   0.847
11172W        W75380  21.149  44.976  11.010
11173W        W75381  15.115  33.577   0.353
11174W        W75382  35.931  21.736   1.756
11175W        W75383  30.160  27.605   2.190
11176W        W75384  13.118  13.807  14.894
11177W        W75385  30.482  34.907   2.358
11178W        W75386   6.827  36.868   0.817
11179W        W75387  21.736  21.083  11.971
11180W        W75388   5.752  12.219   4.336
11181W        W75389  19.071   1.273  13.983
11182W        W75390  26.517   9.300   0.341
11183W        W75391  21.647  26.537   0.299
11184W        W75392  17.644  44.358  14.434
11185W        W75393  15.793  29.669   5.285
11186W        W75394  22.725  20.743   1.229
11187W        W75395  11.718  43.391  10.906
11188W        W75396  18.719  35.461  12.526
11189W        W75397   9.665  39.344  11.919
11190W        W75398  18.567  28.022   4.795
11191W        W75399  25.656  15.780  10.490
11192W        W75400   9.749  42.396  14.761
11193W        W75401  24.534  11.215   3.281
11194W        W75402   9.344  10.708   0.936
11195W        W75403  29.139  34.962   2.224
11196W        W75404  10.357  16.737   3.748
11197W        W75405   7.215  42.486   3.766
11198W        W75406  15.685  43.430   2.739
11199W        W75407  13.177  41.330  12.422
11200W        W75408  11.335   9.783   2.376
11201W        W75409   2.467  17.719  10.929
11202W        W75410   3.404  19.282  10.945
11203W        W75411  21.137  13.765  10.441
11204W        W75412  36.081  35.094  13.039
11205W        W75413  15.207  24.993  10.899
11206W        W75414  40.512   3.891  12.449
11207W        W75415  29.043  32.517   0.873
11208W        W75416   3.404   3.721   1.833
11209W        W75417  40.876  38.956  13.971
11210W        W75418  35.503  40.352  10.575
11211W        W75419  16.091  20.707   3.793
11212W        W75420  17.126  41.829   0.310
11213W        W75421   4.320  38.949   4.740
11214W        W75422  24.089  42.780  13.900
11215W        W75423  12.195   8.676   3.790
11216W        W75424   3.367  40.799  11.013
11217W        W75425  27.046  32.914   1.916
11218W        W75426  36.469   6.742  12.347
11219W        W75427  29.574  18.779   2.754
11220W        W75428  40.535  25.541  10.437
11221W        W75429  16.237   3.749  11.504
11222W        W75430  15.784  29.938   4.646
11223W        W75431  37.406  40.529  11.582
11224W        W75432  12.349   9.763   2.182
11225W        W75433   0.753   9.270  12.961
11226W        W75434  17.125  21.202   3.315
11227W        W75435   0.811   2.720  11.996
11228W        W75436  10.749   1.324  13.061
11229W        W75437  40.048  34.371   2.684
11230W        W75438  17.289  14.687   3.838
11231W        W75439  11.847  41.033   4.759
11232W        W75440  21.691  32.107   4.117
11233W        W75441  41.439   9.815  13.331
11234W        W75442  17.257  20.260  10.562
11235W        W75443   4.214  11.847   2.262
11236W        W75444  42.390  11.725   2.311
11237W        W75445  33.084   3.921  12.435
11238W        W75446  10.231  42.456   4.822
11239W        W75447  39.932   9.312   1.758
11240W        W75448  19.711  24.016   0.282
11241W        W75449  12.116  40.050  11.592
11242W        W75450  17.799  39.322   0.282
11243W        W75451   2.879  39.488  12.845
11244W        W75452  30.511   7.336  13.337
11245W        W75453  29.665   8.277   0.874
11246W        W75454  17.152  19.208   3.819
11247W        W75455  19.622  33.095   1.248
11248W        W75456   8.369  44.470  10.606
11249W        W75457   2.759  31.439   5.688
11250W        W75458   6.774  34.573   2.227
11251W        W75459  28.960  10.265  11.968
11252W        W75460  18.653   3.785  14.429
11253W        W75461  22.034  21.216  10.517
11254W        W75462   7.907   2.940  14.921
11255W        W75463  38.531   8.677   3.689
11256W        W75464  24.117  34.949  14.979
11257W        W75465  27.553  26.087  10.536
11258W        W75466   9.702  14.286  13.342
11259W        W75467   3.361  25.008  12.442
11260W        W75468  36.894  40.414   4.234
11261W        W75469  15.292  19.167  11.933
11262W        W75470  11.282  14.128   1.280
11263W        W75471  12.190  16.667  14.854
11264W        W75472  23.108  17.701   2.390
11265W        W75473  32.412  15.790   5.590
11266W        W75474  36.091  43.944  13.413
11267W        W75475   7.307   1.930   0.397
11268W        W75476  43.330  32.594  12.959
11269W        W75477  28.516  16.202  13.391
11270W        W75478  34.027  39.910   3.183
11271W        W75479   0.322  28.656  12.513
11272W        W75480  40.016  16.256   3.190
11273W        W75481   4.837   8.323  10.632
11274W        W75482  28.538   1.445  11.500
11275W        W75483  33.520  38.070  14.479
11276W        W75484  18.588  43.898   0.770
11277W        W75485  27.495  39.481  10.502
11278W        W75486  28.949  20.711   0.348
11279W        W75487  11.764  10.867   4.615
11280W        W75488   1.806   5.356   1.708
11281W        W75489   1.478  21.511  13.919
11282W        W75490  31.025  38.552   0.306
11283W        W75491   6.864   8.693  12.980
11284W        W75492   1.254  39.822  11.371
11285W        W75493  42.887  34.886   5.184
11286W        W75494  36.966  32.011   4.235
11287W        W75495  38.434  28.625  10.937
11288W        W75496  19.619  40.519   1.849
11289W        W75497   2.757  14.185   1.397
11290W        W75498  30.564  16.648  11.989
11291W        W75499   2.953  41.041  10.450
11292W        W75500  26.642  34.425  14.372
11293W        W75501  23.161  35.896  14.396
11294W        W75502  21.702   5.777  10.477
11295W        W75503   0.829  27.074  13.826
11296W        W75504  25.055  37.506  12.357
11297W        W75505  12.354  33.921   1.269
11298W        W75506   4.231   7.182   4.706
11299W        W75507   7.828  14.729   3.647
11300W        W75508   6.735  25.596  12.008
11301W        W75509  40.483  11.293  13.920
11302W        W75510   0.355  44.502   3.306
11303W        W75511  31.905   7.884  13.982
11304W        W75512  15.647  34.039  11.111
11305W        W75513   8.674  12.766   0.764
11306W        W75514   0.388  19.200   0.822
11307W        W75515  24.012   4.737   9.924
11308W        W75516   4.411  43.768  11.890
11309W        W75517  32.084  22.710   3.695
11310W        W75518  37.960   8.795   3.723
11311W        W75519  10.771  24.696  12.479
11312W        W75520  36.476  37.979  14.461
11313W        W75521   9.181  12.184  10.578
11314W        W75522  10.266  43.796   0.276
11315W        W75523   6.248  23.586   2.718
11316W        W75524  11.258   2.830  11.418
11317W        W75525  29.466  31.068  11.953
11318W        W75526  32.607  21.216  13.052
11319W        W75527  43.802  11.844  11.905
11320W        W75528  19.726   6.873   0.315
11321W        W75529  27.584  39.885   3.149
11322W        W75530  10.242  40.995   2.719
11323W        W75531  18.683   5.696   3.212
11324W        W75532  36.956  26.534  12.949
11325W        W75533  39.439   6.246   0.805
11326W        W75534  32.025  42.011   2.735
11327W        W75535   0.747  34.065   2.695
11328W        W75536  36.356  28.523   2.792
11329W        W75537  11.258  31.935   1.362
11330W        W75538  30.922  11.713   1.729
11331W        W75539  23.197  35.359  12.985
11332W        W75540  29.541  40.910  14.437
11333W        W75541  39.420  31.975  12.518
11334W        W75542   6.833  13.237   0.295
11335W        W75543   2.364  16.621   4.761
11336W        W75544  33.946   0.408   4.236
11337W        W75545  41.794   0.374   3.859
11338W        W75546  42.806  34.072  13.962
11339W        W75547  32.898  21.156  12.981
11340W        W75548  11.783  23.025   1.302
11341W        W75549  12.816  29.161   3.229
11342W        W75550   0.408  40.544   4.225
11343W        W75551  29.118  18.227  14.030
11344W        W75552  32.121  42.501   0.742
11345W        W75553   8.733  35.060   1.791
11346W        W75554  26.535  25.585  14.878
11347W        W75555   8.297  39.330   2.859
11348W        W75556  25.203  19.732   1.716
11349W        W75557   6.256  13.320   3.331
11350W        W75558  23.561   9.762  14.419
11351W        W75559   7.894   5.767  14.892
11352W        W75560  21.709   9.835   1.803
11353W        W75561   2.725   8.169   4.610
11354W        W75562   8.841  16.720   3.825
11355W        W75563  38.047  16.613  13.347
11356W        W75564  18.609   1.924   5.212
11357W        W75565  33.001  13.646   2.246
11358W        W75566  41.507   3.432  11.488
11359W        W75567  15.784  25.203   3.232
11360W        W75568  22.014  41.477   0.744
11361W        W75569   4.253  27.565  10.517
11362W        W75570  35.055  43.795  12.079
11363W        W75571  37.533  33.466   5.150
11364W        W75572  40.416  18.679   1.910
11365W        W75573   5.313  12.358   0.847
11366W        W75574   4.725   7.680   1.326
11367W        W75575  15.741  29.102   2.755
11368W        W75576   8.674   2.319  13.907
11369W        W75577  28.652   9.308   0.936
11370W        W75578  20.533  21.549   3.846
11371W        W75579   8.900  20.532   3.156
11372W        W75580  12.848  26.540  13.981
11373W        W75581   2.875  29.941   4.611
11374W        W75582  11.787  25.989   4.678
11375W        W75583   2.451  19.722  11.428
11376W        W75584   6.336  24.209  13.424
11377W        W75585  38.027  42.392  14.306
11378W        W75586   4.211  41.399  13.822
11379W        W75587  22.160   5.925  13.041
11380W        W75588  16.729   8.367  11.984
11381W        W75589  31.463  12.624  12.546
11382W        W75590  28.114  28.147   1.363
11383W        W75591   9.671  36.498   4.825
11384W        W75592  29.657  10.770  13.807
11385W        W75593  11.784  24.189   2.889
11386W        W75594  20.683   5.907   4.346
11387W        W75595  37.524  28.134  14.297
11388W        W75596  20.191  38.827   4.281
11389W        W75597  16.598  22.544  13.992
11390W        W75598  13.266  11.804   4.332
11391W        W75599  35.468   3.912   4.832
11392W        W75600  39.368   9.175  11.374
11393W        W75601  18.640  15.581   3.170
11394W        W75602  14.188  15.140   4.744
11395W        W75603  27.486  12.728   2.357
11396W        W75604   5.698  36.060  13.911
11397W        W75605   8.700  17.080  11.068
11398W        W75606  42.857  35.587   2.332
11399W        W75607  19.163  28.014   3.330
11400W        W75608  36.538  21.563  14.880
11401W        W75609  15.147  10.770   1.317
11402W        W75610  42.820  43.452  10.909
11403W        W75611  20.714   7.306   2.677
11404W        W75612   2.427  30.470  14.803
11405W        W75613  40.861  26.040   0.459
11406W        W75614  11.293  38.457   4.785
11407W        W75615  39.902  19.235  14.358
11408W        W75616  34.511  37.495   3.170
11409W        W75617  38.877  15.662  11.453
11410W        W75618  11.800  22.565  10.617
11411W        W75619  19.779  37.394   1.814
11412W        W75620  32.084  27.184   2.391
11413W        W75621  17.660  30.914   4.779
11414W        W75622   9.379   4.930  10.633
11415W        W75623   1.811  25.089   0.964
11416W        W75624  11.864  26.979   1.258
11417W        W75625  36.874  42.338   4.160
11418W        W75626  35.528   3.944  12.345
11419W        W75627  36.948   6.836   4.792
11420W        W75628  38.470   1.433  11.383
11421W        W75629   8.739  19.047   3.174
11422W        W75630  43.398  40.366  13.837
11423W        W75631  22.066  26.182  10.542
11424W        W75632  16.165  20.062   0.953
11425W        W75633  15.173  30.482   0.281
11426W        W75634  43.811   5.925   3.288
11427W        W75635  24.663   0.806   0.959
11428W        W75636  43.811   9.286   3.770
11429W        W75637   2.848  32.413  13.837
11430W        W75638  19.585  29.632   5.193
11431W        W75639  21.720   6.217   1.273
11432W        W75640   0.430  44.963   3.247
11433W        W75641  20.655  44.845   4.709
11434W        W75642  44.798  29.048  10.966
11435W        W75643  31.039  36.957  14.489
11436W        W75644  32.464  13.252   2.880
11437W        W75645  36.956   8.262   1.782
11438W        W75646  30.613   6.754   1.920
11439W        W75647   8.859  25.093  14.765
11440W        W75648  28.187  17.161   3.227
11441W        W75649   4.911  25.584  13.841
11442W        W75650   4.356  32.545   3.252
11443W        W75651   4.722  41.034  11.456
11444W        W75652   7.689  13.612   2.335
11445W        W75653  37.358  26.474  11.017
11446W        W75654   7.833  16.317   4.180
11447W        W75655  42.283  38.869  13.051
11448W        W75656   5.773  38.023   2.199
11449W        W75657   7.202   9.778  13.439
11450W        W75658  30.994  30.951   3.665
11451W        W75659   2.432   5.209   1.303
11452W        W75660  43.445  12.237   2.380
11453W        W75661  24.164  39.882  13.360
11454W        W75662  42.496   2.287   4.147
11455W        W75663  23.727   1.413   2.689
11456W        W75664  12.152  34.540   2.775
11457W        W75665  19.726  27.188   3.376
11458W        W75666  32.087   8.241  13.374
11459W        W75667   9.886   7.713   2.857
11460W        W75668  23.163  40.409   3.803
11461W        W75669  22.517  22.190  12.860
11462W        W75670  24.708  21.529  14.437
11463W        W75671  39.994  29.644  13.880
11464W        W75672  20.604  15.667  12.440
11465W        W75673   1.770  42.479   1.835
11466W        W75674  40.432  22.544  11.901
11467W        W75675  41.389   8.275   2.802
11468W        W75676  43.926  44.482  11.536
11469W        W75677  16.712   0.370  10.575
11470W        W75678  39.066   1.898   1.407
11471W        W75679  35.494  14.163   4.622
11472W        W75680  40.938  24.537   4.261
11473W        W75681  44.480  32.525   0.259
11474W        W75682  17.714  17.567   0.824
11475W        W75683  16.299  24.525   1.231
11476W        W75684   2.239  26.204   2.380
11477W        W75685  20.747  36.901   3.232
11478W        W75686   4.257   6.413   2.725
11479W        W75687  30.533  28.081   1.228
11480W        W75688  16.723  23.989  11.020
11481W        W75689  36.953  34.499   3.265
11482W        W75690  24.146  26.693  14.324
11483W        W75691  15.281  10.214  11.500
11484W        W75692   4.824  44.384  11.607
11485W        W75693   3.357  27.165  11.474
11486W        W75694  24.560  31.493   1.387
11487W        W75695   6.914  25.969   0.892
11488W        W75696  14.215  40.040  13.873
11489W        W75697  22.008  13.192   4.267
11490W        W75698  24.590   9.800  13.965
11491W        W75699   4.884  44.376   4.228
11492W        W75700  21.174  31.941   0.918
11493W        W75701  13.120   4.403  11.928
11494W        W75702   8.664  18.775   3.232
11495W        W75703  13.191  34.903   3.851
11496W        W75704  15.266  44.776  12.488
11497W        W75705  44.305  18.089   0.291
11498W        W75706  27.004  22.706  14.502
11499W        W75707  26.081  16.095   3.858
11500W        W75708  15.124   4.769  11.389
11501W        W75709  24.014  17.132  11.030
11502W        W75710  38.976  11.313  12.371
11503W        W75711  31.587   1.341  12.824
11504W        W75712   2.810  15.665  14.917
11505W        W75713  32.635  40.808  12.440
11506W        W75714   7.347  33.976  13.907
11507W        W75715   4.372  32.572  10.524
11508W        W75716  30.612  31.465  13.934
11509W        W75717  25.545  13.683   3.828
11510W        W75718   2.442   1.429   3.382
11511W        W75719  23.154  23.522   4.309
11512W        W75720   0.288  17.303   0.343
11513W        W75721  36.543   3.338  14.464
11514W        W75722  11.769  30.506   3.329
11515W        W75723  35.455  38.361  13.035
11516W        W75724  35.481  27.055  13.444
11517W        W75725  16.255  14.744  14.278
11518W        W75726  16.287   5.791   2.762
11519W        W75727  38.910  14.832   3.337
11520W        W75728  15.211  43.455   1.372
11521W        W75729  39.560  24.164  13.037
11522W        W75730   8.227  39.487  11.392
11523W        W75731  10.296  41.327   0.319
11524W        W75732   6.229  14.259   1.780
11525W        W75733   3.835  21.604   2.834
11526W        W75734  10.205  43.469  12.082
11527W        W75735  43.858  18.689  13.387
11528W        W75736  19.625  42.961   3.282
11529W        W75737  32.436  17.744   1.254
11530W        W75738  14.684  44.311  13.798
11531W        W75739  28.672  20.059   1.784
11532W        W75740  23.028  38.876   3.702
11533W        W75741  40.416  26.976  10.588
11534W        W75742  23.206  33.512  11.404
11535W        W75743   9.786  27.674  11.010
11536W        W75744  13.662  21.532  13.063
11537W        W75745  41.296  24.077  11.412
11538W        W75746  14.810  31.115   1.831
11539W        W75747  27.047  24.510   0.957
11540W        W75748  41.828  18.116   0.773
11541W        W75749   3.307  23.701   4.621
11542W        W75750   9.386  34.595  12.558
11543W        W75751  37.017  38.978   2.774
11544W        W75752  21.074   6.909  14.299
11545W        W75753   6.793   1.950   3.775
11546W        W75754  18.782  31.149  13.988
11547W        W75755  10.862  42.782  12.045
11548W        W75756  44.338  37.366   4.739
11549W        W75757  28.131  44.295  14.967
11550W        W75758  36.984  11.302   1.400
11551W        W75759  29.986   9.283  11.450
11552W        W75760  32.983  35.039   4.616
11553W        W75761   0.943  42.450   2.785
11554W        W75762  35.410  12.288   3.259
11555W        W75763  21.112   3.412   1.381
11556W        W75764  40.822  20.659  11.583
11557W        W75765   1.907  16.666   3.319
11558W        W75766  23.652  38.065  11.945
11559W        W75767  42.780  10.353  12.826
11560W        W75768   9.348  32.514  10.901
11561W        W75769  31.643  36.500  13.375
11562W        W75770  23.660  22.099  11.484
11563W        W75771  38.034  23.205   2.310
11564W        W75772  35.917   6.753  10.437
11565W        W75773  22.172  14.665  13.892
11566W        W75774  44.405  43.895  13.034
11567W        W75775  43.795  36.891   3.746
11568W        W75776   8.776  32.938   1.241
11569W        W75777   0.938  15.728  11.084
11570W        W75778  27.672   5.740  14.293
11571W        W75779  18.697   3.831  12.948
11572W        W75780  15.745   5.313   2.851
11573W        W75781  39.819   1.353  13.372
11574W        W75782  42.417  38.063  11.596
11575W        W75783  30.487   1.941   2.853
11576W        W75784  29.516   4.851   0.269
11577W        W75785  26.641  36.403  10.617
11578W        W75786   6.297  25.178  12.064
11579W        W75787  17.092  18.604   2.674
11580W        W75788  22.565  26.207   0.748
11581W        W75789  31.038  38.470  11.584
11582W        W75790  38.505   5.327   5.084
11583W        W75791  37.892   1.818  10.038
11584W        W75792  14.285  35.899   0.416
11585W        W75793  24.113  13.263  11.025
11586W        W75794  21.736  11.181   3.826
11587W        W75795   4.433  44.771  14.373
11588W        W75796   2.928   1.784  10.958
11589W        W75797   9.759   3.867   3.641
11590W        W75798  31.124  39.022   5.297
11591W        W75799   0.779  33.423  10.037
11592W        W75800  31.537  43.341   2.204
11593W        W75801  18.572  15.809   2.320
11594W        W75802  19.051  24.043  12.409
11595W        W75803  19.685  13.686   2.698
11596W        W75804  23.666  34.089   0.947
11597W        W75805  37.544  31.588  10.128
11598W        W75806  21.612  18.659   2.294
11599W        W75807   6.697  36.400  10.498
11600W        W75808  19.635   4.881   9.514
11601W        W75809  36.593   1.933   2.839
11602W        W75810  28.675   7.795  10.532
11603W        W75811  32.542  42.845   2.261
11604W        W75812   8.838  44.949   2.721
11605W        W75813   9.165  44.838  12.394
11606W        W75814  43.450  34.019  13.447
11607W        W75815  42.932  11.857  14.341
11608W        W75816  23.986  29.037  10.512
11609W        W75817  16.581  39.916   2.390
11610W        W75818  21.524  25.020   4.630
11611W        W75819  14.153  24.479  11.889
11612W        W75820  26.168  44.788   2.294
11613W        W75821  17.647   5.739   1.337
11614W        W75822   1.799  28.636  13.059
11615W        W75823  43.485  12.647   4.206
11616W        W75824  44.367  35.545   0.445
11617W        W75825  18.669  27.599   3.301
11618W        W75826   2.310  38.977   0.253
11619W        W75827   3.342  27.492   2.238
11620W        W75828  10.769   8.868   2.324
11621W        W75829   1.456  13.830  11.379
11622W        W75830  40.815  41.403   2.816
11623W        W75831  31.495  24.638   2.746
11624W        W75832  23.123  37.007   4.250
11625W        W75833  19.062  19.755  14.997
11626W        W75834   9.848  27.989   2.313
11627W        W75835  38.448  37.938  11.949
11628W        W75836   6.782   3.222  10.441
11629W        W75837  31.477  14.825   0.933
11630W        W75838  42.420   1.833  11.942
11631W        W75839  43.493   1.427  13.393
11632W        W75840   7.855   5.239   1.912
11633W        W75841  41.968  13.720  12.417
11634W        W75842  25.015  16.115  10.975
11635W        W75843  12.711  35.572  14.502
11636W        W75844  30.635   4.216   2.310
11637W        W75845  41.357  44.759   4.250
11638W        W75846  24.524  41.004   3.806
11639W        W75847  31.574  29.015   0.888
11640W        W75848  23.514  43.339   0.802
11641W        W75849  23.229  32.919   1.436
11642W        W75850  44.000   0.315   1.782
11643W        W75851   8.735   0.770  11.042
11644W        W75852   8.752   7.850   4.750
11645W        W75853  24.132  40.424   0.904
11646W        W75854   1.769  26.667  11.999
11647W        W75855  30.110  17.177  11.116
11648W        W75856  44.397  26.980  12.883
11649W        W75857  17.757   9.306  14.469
11650W        W75858  12.667   1.898   4.653
11651W        W75859  33.047  22.586   1.876
11652W        W75860   8.217  23.202   4.189
11653W        W75861   1.835  26.976  12.981
11654W        W75862  10.156  29.647  14.922
11655W        W75863  23.104  29.982  12.472
11656W        W75864  14.647  25.134  10.964
11657W        W75865   6.876  39.890   1.346
11658W        W75866   9.194   7.216  13.324
11659W        W75867   1.957  41.997  14.844
11660W        W75868  43.973  42.902   4.257
11661W        W75869  21.713   3.865  11.499
11662W        W75870  36.098  16.697  11.868
11663W        W75871  29.052   1.412  10.586
11664W        W75872  30.071  44.344   3.258
11665W        W75873  19.620  10.636  13.501
11666W        W75874  16.239  20.605   4.794
11667W        W75875  30.935  26.557  10.554
11668W        W75876   9.153  32.468  10.432
11669W        W75877   0.744   3.768   0.376
11670W        W75878  29.486   6.798   1.857
11671W        W75879  15.725  16.187  11.123
11672W        W75880  39.813   2.809  10.142
11673W        W75881  19.686  37.536   2.275
11674W        W75882  23.158   8.250   9.536
11675W        W75883  36.859  13.829   4.354
11676W        W75884  41.491  38.422   4.657
11677W        W75885  27.540   6.323   2.861
11678W        W75886  42.452  10.715  11.994
11679W        W75887  29.976  44.987   4.694
11680W        W75888  39.951  27.503   2.393
11681W        W75889  30.437   5.839   1.864
11682W        W75890   0.458  13.310   4.629
11683W        W75891   6.228  27.965   5.313
11684W        W75892  21.068   6.205  13.495
11685W        W75893  22.217  28.969  11.009
11686W        W75894  11.342  18.232  12.044
11687W        W75895  33.072  40.975   1.817
11688W        W75896  28.573  19.567   4.238
11689W        W75897  12.142  31.403   3.188
11690W        W75898   6.412   5.345  11.463
11691W        W75899  22.143  29.538   1.340
11692W        W75900  34.587  12.229   2.717
11693W        W75901  44.408  22.699  14.429
11694W        W75902  26.992   5.325   0.739
11695W        W75903  23.231  14.186   4.136
11696W        W75904  35.538   9.151  10.642
11697W        W75905   7.273  21.228   0.968
11698W        W75906  44.312  16.156  10.598
11699W        W75907  11.731   1.313  10.534
11700W        W75908   4.271  27.040   1.823
11701W        W75909   8.860  22.094   3.666
11702W        W75910  23.719  22.177  11.118
11703W        W75911   9.749  43.988   4.773
11704W        W75912  41.516  33.026   0.481
11705W        W75913  43.004  24.230  10.951
11706W        W75914  27.193  16.722   0.371
11707W        W75915   8.294  43.861  11.428
11708W        W75916  18.288   0.455   0.345
11709W        W75917  33.465  27.090   0.739
11710W        W75918  18.699  31.003   1.317
11711W        W75919  14.683  39.840   0.325
11712W        W75920  29.482  14.147   4.821
11713W        W75921  21.090  34.448   1.344
11714W        W75922  26.039  37.551   2.679
11715W        W75923  19.621   8.655   2.874
11716W        W75924  21.242  21.075   4.625
11717W        W75925   5.332  25.998  11.897
11718W        W75926  42.852   1.860  13.044
11719W        W75927  32.546  21.695   2.354
11720W        W75928  26.622  32.006   0.858
11721W        W75929  32.491   0.870  14.000
11722W        W75930  12.320  22.714  11.020
11723W        W75931  15.603  12.288   2.215
11724W        W75932  21.049  42.290   0.257
11725W        W75933  33.548  40.411   3.649
11726W        W75934  32.998  15.094  14.398
11727W        W75935  33.912  43.299  14.005
11728W        W75936  43.782  12.725  11.046
11729W        W75937  19.182  27.995   4.280
11730W        W75938  30.635  13.698  13.351
11731W        W75939  15.254  10.833  14.837
11732W        W75940  12.804  16.807  11.512
11733W        W75941  13.260  15.683   1.784
11734W        W75942  25.990  23.022  10.453
11735W        W75943  27.145   0.911  11.470
11736W        W75944   7.817  33.607  14.294
11737W        W75945  39.859  42.010  14.954
11738W        W75946  35.049  21.046   1.866
11739W        W75947   0.957  15.633  14.861
11740W        W75948  32.935  36.355   1.713
11741W        W75949  21.079  39.881  13.414
11742W        W75950  32.436  24.537   4.271
11743W        W75951   9.794  28.468  13.882
11744W        W75952  28.617  28.947   3.695
11745W        W75953   7.768  11.281   2.894
11746W        W75954  28.441  18.117   4.237
11747W        W75955  22.585  31.917  14.392
11748W        W75956   4.756  12.183   0.472
11749W        W75957  30.450   9.848  12.937
11750W        W75958  32.004  32.077  12.475
11751W        W75959  43.881   5.878  14.912
11752W        W75960   9.857  21.549  11.060
11753W        W75961   3.891  11.142   2.697
11754W        W75962  41.529  27.623  14.772
11755W        W75963  42.481   1.906   1.227
11756W        W75964  43.329   1.376  12.397
11757W        W75965  44.414  41.415   2.751
11758W        W75966   7.820   6.376   3.194
11759W        W75967  44.957  21.584   1.877
11760W        W75968   6.709   5.209  13.509
11761W        W75969   8.734  40.474   1.287
11762W        W75970  44.860  41.389  10.957
11763W        W75971  25.148  39.952  12.976
11764W        W75972  22.738  35.536   2.849
11765W        W75973  14.201   1.307   2.317
11766W        W75974  40.010   2.831   2.375
11767W        W75975  44.835  15.716   1.353
11768W        W75976   7.179   4.922   4.250
11769W        W75977   3.263  38.876  10.576
11770W        W75978  10.379  21.689   2.348
11771W        W75979  30.997  37.408  11.511
11772W        W75980   0.873  13.227  11.470
11773W        W75981  41.943  41.449   5.131
11774W        W75982  42.496  41.011   3.311
11775W        W75983  30.064  24.196  12.939
11776W        W75984  29.537   4.907   4.116
11777W        W75985  39.529   7.722   4.339
11778W        W75986  43.930  27.023   1.770
11779W        W75987  31.573   8.856   3.660
11780W        W75988  27.517  16.602  14.382
11781W        W75989  39.035  39.494   0.922
11782W        W75990   9.290  17.685   2.846
11783W        W75991  22.129   4.928  13.926
11784W        W75992  39.065  23.069  14.016
11785W        W75993  31.469  16.171   2.197
11786W        W75994   3.240   8.282  12.076
11787W        W75995  17.628  42.352   3.276
11788W        W75996  14.787  19.157   2.357
11789W        W75997  22.157   1.266  11.017
11790W        W75998  21.244  40.479  13.343
11791W        W75999  33.040  31.007  13.932
11792W        W76000  33.453   4.228   3.223
11793W        W76001   9.341  12.283   2.872
11794W        W76002  13.337  30.059  13.950
11795W        W76003  37.544  23.558  11.011
11796W        W76004  36.872  20.193  10.954
11797W        W76005  30.575  11.842  10.642
11798W        W76006   0.267  20.558   4.281
11799W        W76007   0.479  40.951  11.396
11800W        W76008  19.673  29.508  14.307
11801W        W76009  11.826  19.238  14.482
11802W        W76010  15.315  16.102  14.865
11803W        W76011   2.966  38.345  13.537
11804W        W76012  31.968  39.381   3.379
11805W        W76013  31.488  22.018   1.848
11806W        W76014  39.968  36.908   2.778
11807W        W76015  17.241  34.962   9.935
11808W        W76016  29.513  23.013   1.698
11809W        W76017  21.198  17.649  11.012
11810W        W76018  19.212  40.366  12.570
11811W        W76019  22.503  23.678   2.823
11812W        W76020   7.334  13.615  11.040
11813W        W76021   4.743   9.758  13.372
11814W        W76022  39.407  21.084  14.354
11815W        W76023  24.230  28.639  13.892
11816W        W76024   5.383  24.613  12.525
11817W        W76025  42.854  29.515  13.313
11818W        W76026   2.961  31.588   4.779
11819W        W76027  31.559  29.440   2.302
11820W        W76028  26.027  22.629   3.862
11821W        W76029  37.570  21.514   1.742
11822W        W76030  22.092  22.029  11.456
11823W        W76031  18.649  26.977   0.896
11824W        W76032   4.870  27.155   1.800
11825W        W76033  27.958  31.547   3.362
11826W        W76034   0.844  20.576   0.370
11827W        W76035  19.047  12.710   4.325
11828W        W76036  34.932  12.640   1.341
11829W        W76037  33.509   0.273  14.849
11830W        W76038  18.081  21.261   0.910
11831W        W76039  21.091  34.471  13.361
11832W        W76040   3.736  33.550   2.889
11833W        W76041   5.881  28.480  14.014
11834W        W76042  36.475  44.833  14.941
11835W        W76043  19.138   3.413   1.279
11836W        W76044  38.043  13.200   0.910
11837W        W76045  30.457  27.186  12.519
11838W        W76046  24.093  31.095   2.358
11839W        W76047  19.762  29.052  10.946
11840W        W76048  26.476  32.446  14.455
11841W        W76049  28.569   6.405   0.736
11842W        W76050  18.166  11.296   4.749
11843W        W76051   7.310  22.215   2.218
11844W        W76052  25.994   5.903  11.930
11845W        W76053  19.276  28.963  13.960
11846W        W76054   1.791  27.134  14.963
11847W        W76055  11.363   0.358   2.361
11848W        W76056  39.523  18.266   0.439
11849W        W76057  44.764  25.613  12.565
11850W        W76058  23.126   3.389  13.932
11851W        W76059  10.660  27.548   0.778
11852W        W76060   1.792  34.024   1.287
11853W        W76061  19.169  23.004  14.979
11854W        W76062  34.041  14.704  14.295
11855W        W76063  38.942  11.357   0.762
11856W        W76064   3.425  39.556  12.343
11857W        W76065  26.180  34.934  12.058
11858W        W76066  35.402   3.217   4.687
11859W        W76067   2.780  25.698   0.481
11860W        W76068  31.590  17.236   3.382
11861W        W76069   0.352  14.296   0.795
11862W        W76070   5.335  33.932   1.839
11863W        W76071  16.103  27.015  14.805
11864W        W76072  21.577  12.769   1.890
11865W        W76073   2.247  24.698   4.217
11866W        W76074   7.749   7.772  13.507
11867W        W76075  36.867  28.990  14.904
11868W        W76076  41.906  10.362  12.985
11869W        W76077  20.766  44.466  11.902
11870W        W76078  12.150  38.415  14.354
11871W        W76079   3.865  10.214  12.973
11872W        W76080  40.475  35.402   1.884
11873W        W76081  35.855  26.201  13.535
11874W        W76082   0.828  29.922  14.513
11875W        W76083   1.397  22.737   4.348
11876W        W76084  26.492  41.453   0.463
11877W        W76085  33.967  34.094  11.433
11878W        W76086  36.919   8.266  13.369
11879W        W76087  32.525  33.450   4.831
11880W        W76088  35.931  17.090  10.408
11881W        W76089   8.352   4.791  12.899
11882W        W76090  31.994  16.160   5.281
11883W        W76091   7.684   3.378   0.858
11884W        W76092   3.429   5.782   2.359
11885W        W76093   0.799   7.362  13.053
11886W        W76094   0.888   2.821   4.790
11887W        W76095  37.849  37.531   0.452
11888W        W76096  19.192  30.953   4.759
11889W        W76097   0.916  14.588  10.624
11890W        W76098  36.919  18.675  10.946
11891W        W76099   3.815  28.558  12.530
11892W        W76100  42.960   9.840   4.314
11893W        W76101  35.515  12.769  10.934
11894W        W76102  19.703   4.738  12.371
11895W        W76103   5.314  23.606  11.505
11896W        W76104  13.114  42.346  10.537
11897W        W76105  21.017  28.586   2.321
11898W        W76106  29.003  10.239  14.408
11899W        W76107  38.387  17.084   0.731
11900W        W76108  31.990   9.836  13.430
11901W        W76109  21.060   2.734   2.663
11902W        W76110  22.721  21.554   3.248
11903W        W76111  18.161  40.533   3.333
11904W        W76112  29.584   8.371  14.445
11905W        W76113   5.753  21.186  11.546
11906W        W76114  30.950  22.574  10.123
11907W        W76115  27.587   5.397  12.340
11908W        W76116  13.831  37.378  11.516
11909W        W76117  42.308  42.824   0.819
11910W        W76118  19.204  16.597   3.777
11911W        W76119  38.994   1.830  11.608
11912W        W76120   2.379  25.563  13.322
11913W        W76121  21.541   5.807   1.299
11914W        W76122  35.084  40.023  14.284
11915W        W76123  29.590  12.795  10.455
11916W        W76124  31.080   5.931  13.035
11917W        W76125  25.117   5.729   0.440
11918W        W76126  19.761   6.684  12.353
11919W        W76127  14.739   7.390   0.963
11920W        W76128   6.837  33.417   2.836
11921W        W76129   3.328  38.057   3.670
11922W        W76130  41.002  32.552  13.938
11923W        W76131  26.076  13.723  14.781
11924W        W76132  20.076   7.878   2.187
11925W        W76133  18.791  29.559   1.866
11926W        W76134  29.041  24.024  14.379
11927W        W76135  33.490  33.063   3.374
11928W        W76136  36.941  31.906   0.410
11929W        W76137  17.303  10.648   0.790
11930W        W76138  40.431  37.896  14.967
11931W        W76139  13.265   6.294  11.473
11932W        W76140   9.679  33.405   2.419
11933W        W76141  37.458   3.901   2.212
11934W        W76142  20.691  34.522  14.866
11935W        W76143   7.258   4.420   3.651
11936W        W76144  37.538  14.223   4.824
11937W        W76145  21.215  19.573   3.241
11938W        W76146  44.328  15.198   5.185
11939W        W76147  10.706  33.055  14.500
11940W        W76148  27.528  17.694  11.040
11941W        W76149  29.112  36.548  12.011
11942W        W76150  38.523  37.542   1.805
11943W        W76151  31.486  42.440   3.369
11944W        W76152   1.752   8.689  10.611
11945W        W76153  30.518  33.958  14.282
11946W        W76154  18.181  23.090   1.449
11947W        W76155  25.604  38.885  13.497
11948W        W76156   3.347  24.526   4.731
11949W        W76157  24.550  27.466  12.514
11950W        W76158  10.654  15.600   2.240
11951W        W76159  21.175  32.603   2.668
11952W        W76160   3.404  20.643   3.693
11953W        W76161  15.277   4.316   2.716
11954W        W76162  36.970   4.435   2.771
11955W        W76163  12.235  44.792   1.868
11956W        W76164  28.930  35.389  12.369
11957W        W76165  37.380  12.209  11.919
11958W        W76166  41.350  42.914  11.897
11959W        W76167   8.229  17.093   2.891
11960W        W76168  44.326  17.303   4.304
11961W        W76169  32.497   5.880  11.965
11962W        W76170   8.197  10.691   0.728
11963W        W76171  13.132  35.599   2.195
11964W        W76172  11.168  41.988  12.047
11965W        W76173  31.513  24.506  14.302
11966W        W76174  37.837  41.442  11.932
11967W        W76175  15.694   5.267  12.886
11968W        W76176  39.849  18.738   3.708
11969W        W76177  32.015  36.942  11.397
11970W        W76178  32.504  19.042  13.378
11971W        W76179  14.719  16.181   1.318
11972W        W76180  41.496  16.191  13.546
11973W        W76181  29.657  34.991   2.849
11974W        W76182   1.807  13.345  13.854
11975W        W76183  40.016  23.232  11.876
11976W        W76184  14.609  37.570   2.278
11977W        W76185  43.455  15.581   2.790
11978W        W76186   9.643   1.356  11.010
11979W        W76187  13.703   2.957  13.910
11980W        W76188  21.128  33.011   3.820
11981W        W76189  41.863  44.311   3.193
11982W        W76190   6.827  37.439  11.550
11983W        W76191  13.315  40.026  10.115
11984W        W76192  42.330  30.088  10.427
11985W        W76193   1.449  19.158   0.880
11986W        W76194   6.264  35.597  13.044
11987W        W76195  34.096   3.458   0.918
11988W        W76196  37.888  36.979   0.274
11989W        W76197  40.819  12.217   4.746
11990W        W76198  23.154  36.467   3.676
11991W        W76199  16.774   7.379  13.841
11992W        W76200  38.827  42.512   1.450
11993W        W76201  40.508  22.554  10.987
11994W        W76202  24.128  28.030  13.374
11995W        W76203  21.632   5.402  14.826
11996W        W76204   9.230  24.069   2.703
11997W        W76205  25.001  40.312   1.934
11998W        W76206  30.134  30.445  12.377
11999W        W76207  26.554   7.333   4.333
12000W        W76208  11.764   5.793   0.351
12001W        W76209  26.066  27.452   3.733
12002W        W76210  40.807   1.963   5.316
12003W        W76211  10.632  25.651   2.775
12004W        W76212  14.685  27.064   4.692
12005W        W76213  43.922  18.227  10.464
12006W        W76214  27.580  10.361  11.040
12007W        W76215  34.391  24.985  13.983
12008W        W76216  36.050   2.406  14.444
12009W        W76217   7.833  23.211   3.864
12010W        W76218   7.784  43.381   0.371
12011W        W76219  15.231   4.743   2.307
12012W        W76220  24.517  14.798  11.447
12013W        W76221  36.547   7.696   4.189
12014W        W76222  35.031  26.150  13.007
12015W        W76223  24.725  20.072  14.333
12016W        W76224  35.001  20.529  10.969
12017W        W76225  19.589   2.753   4.814
12018W        W76226  20.034  39.935  12.961
12019W        W76227  33.922  32.068   1.392
12020W        W76228  32.427   6.253   1.440
12021W        W76229   5.818  17.306   0.458
12022W        W76230   5.898   5.839  11.029
12023W        W76231  16.693  24.197   4.119
12024W        W76232  33.620  43.009   2.662
12025W        W76233  29.600  11.179   3.321
12026W        W76234  36.539  12.146   4.806
12027W        W76235  25.141  32.525   0.310
12028W        W76236   5.922   1.241  14.385
12029W        W76237  40.320  32.063   2.815
12030W        W76238  25.979  21.218   0.752
12031W        W76239  23.561  41.975  14.488
12032W        W76240  32.130   2.370  10.478
12033W        W76241   4.318   7.678   1.270
12034W        W76242  25.174  44.503   3.336
12035W        W76243  19.617  33.433  14.853
12036W        W76244  22.199  22.213  12.078
12037W        W76245  43.358   9.823   3.661
12038W        W76246  22.067  15.300  14.005
12039W        W76247  10.783   0.384  13.836
12040W        W76248  29.923  20.232   3.277
12041W        W76249  39.027  14.270   2.236
12042W        W76250   6.319  36.089   0.388
12043W        W76251  41.942  12.360  11.088
12044W        W76252  16.201  25.625   0.432
12045W        W76253  31.001  33.561  14.502
12046W        W76254  35.096  32.140  13.539
12047W        W76255   8.185   3.362   1.778
12048W        W76256  36.010  26.088  13.862
12049W        W76257  43.339  21.695   0.942
12050W        W76258  39.935  25.530   2.669
12051W        W76259  18.753   9.301   5.299
12052W        W76260  26.007  24.224   2.708
12053W        W76261   2.330  29.558  12.878
12054W        W76262  35.588   7.873  11.986
12055W        W76263   6.211  20.234   3.858
12056W        W76264  43.402  20.757   1.444
12057W        W76265  17.701  27.184  10.474
12058W        W76266   8.883  11.699   2.396
12059W        W76267  20.570  11.764  14.980
12060W        W76268  30.513  39.409   4.630
12061W        W76269  43.498   8.714  14.439
12062W        W76270   5.365  16.232  11.977
12063W        W76271  39.860   0.344  10.600
12064W        W76272  26.516   4.359   3.843
12065W        W76273  13.780  43.311   4.631
12066W        W76274  33.481  25.980  14.325
12067W        W76275  31.585  33.477  10.505
12068W        W76276  24.046  24.106  10.629
12069W        W76277  32.392   3.317   1.313
12070W        W76278  44.447   0.465  10.451
12071W        W76279  33.022  18.219  12.035
12072W        W76280  41.417  10.310  11.015
12073W        W76281  33.453  11.301  11.569
12074W        W76282  25.003   9.830  13.988
12075W        W76283   6.680  11.823   0.932
12076W        W76284  37.388  44.923   0.842
12077W        W76285   1.893   1.253   1.839
12078W        W76286  40.014  40.819  13.982
12079W        W76287  19.643  41.018  13.425
12080W        W76288  40.995  36.018  12.449
12081W        W76289  19.156  21.617   2.182
12082W        W76290  39.973  20.193   3.191
12083W        W76291  28.156  16.313  12.012
12084W        W76292  25.152  23.520  12.486
12085W        W76293  28.171  16.670   2.253
12086W        W76294   3.445  14.129   2.244
12087W        W76295  18.285  16.791  13.963
12088W        W76296   1.754   1.953   0.429
12089W        W76297  14.736  36.977   1.807
12090W        W76298  41.005  20.076  14.347
12091W        W76299  43.010  31.448   1.330
12092W        W76300  42.287   4.230  11.883
12093W        W76301  29.539  22.089  14.303
12094W        W76302  11.690  32.482  10.598
12095W        W76303  11.839  35.012  11.537
12096W        W76304  42.436  29.609   3.254
12097W        W76305  39.313  26.973   4.725
12098W        W76306  14.696  23.679   0.425
12099W        W76307   9.710  22.597   3.640
12100W        W76308  42.856  23.629  14.443
12101W        W76309   3.357   2.752  12.920
12102W        W76310  20.527  19.180  10.510
12103W        W76311   3.818  36.532   4.254
12104W        W76312  13.745  33.433   1.883
12105W        W76313  12.767  28.548   1.228
12106W        W76314  37.076  11.279   2.673
12107W        W76315  13.235   2.449  11.434
12108W        W76316  11.230  31.590  13.386
12109W        W76317  38.517  36.064   1.223
12110W        W76318  14.789  10.710   0.729
12111W        W76319  30.452  35.433  14.449
12112W        W76320  31.942  38.037  14.027
12113W        W76321  20.559  29.512  12.905
12114W        W76322  32.001   9.286  13.401
12115W        W76323   8.658  43.812   4.751
12116W        W76324  20.753  35.889   4.619
12117W        W76325  15.292  26.618   1.239
12118W        W76326  10.177   0.852   5.205
12119W        W76327  12.650  23.109   1.390
12120W        W76328  37.023  43.927  11.050
12121W        W76329   1.408  12.280  10.587
12122W        W76330   3.811  42.483  14.336
12123W        W76331  43.447  26.485  14.409
12124W        W76332  42.030  35.030  13.446
12125W        W76333  29.949  40.448  11.431
12126W        W76334   2.904  23.238  11.964
12127W        W76335  21.251  34.372  10.530
12128W        W76336  33.004  11.742  11.933
12129W        W76337  10.839   0.279  11.418
12130W        W76338   4.733   6.298   0.810
12131W        W76339  42.787  10.278   2.355
12132W        W76340  13.629  24.148  10.949
12133W        W76341  17.155  32.946   3.226
12134W        W76342  27.950   0.920  12.086
12135W        W76343   2.450  24.544   0.863
12136W        W76344   0.398  31.471   4.155
12137W        W76345  29.918  13.825   3.664
12138W        W76346  38.947  35.493   2.895
12139W        W76347  10.289   7.281   0.809
12140W        W76348   4.839  44.922  14.384
12141W        W76349  29.574  15.238  11.998
12142W        W76350  10.843  32.499   4.157
12143W        W76351  15.688  19.122  12.441
12144W        W76352  10.327  20.615   4.741
12145W        W76353  34.383  27.554   2.245
12146W        W76354  39.378  34.613   4.304
12147W        W76355   6.196  24.165   2.786
12148W        W76356  10.206  29.943   4.808
12149W        W76357  25.047  10.634   3.761
12150W        W76358  40.353  44.453   3.830
12151W        W76359  10.288  21.075  14.923
12152W        W76360  29.949  25.640   0.921
12153W        W76361  16.221  24.587   2.265
12154W        W76362  13.643  38.912   4.262
12155W        W76363   1.792  35.408   2.756
12156W        W76364   1.826  44.410   3.169
12157W        W76365  15.578  35.007  14.452
12158W        W76366  27.494  14.250  12.852
12159W        W76367  14.589  13.228  11.528
12160W        W76368  42.491  14.724   4.232
12161W        W76369  30.965  39.560  11.022
12162W        W76370  39.546  29.029   2.391
12163W        W76371  25.600  23.047   3.697
12164W        W76372   8.787  18.596  12.354
12165W        W76373  40.951  22.227   1.443
12166W        W76374  10.700  10.191  13.533
12167W        W76375   0.316  27.463  12.452
12168W        W76376  37.409  43.013  10.628
12169W        W76377   2.330  32.001  10.426
12170W        W76378  41.789  29.486   3.192
12171W        W76379   2.820  36.856  11.578
12172W        W76380   2.834   0.899   2.675
12173W        W76381  17.127  12.186  12.884
12174W        W76382  35.440  35.861   0.896
12175W        W76383  19.718  22.166  12.565
12176W        W76384  24.687  40.336  14.985
12177W        W76385  44.870  19.720   1.767
12178W        W76386  36.386  37.957   3.779
12179W        W76387  44.293  12.803   0.437
12180W        W76388  37.526   3.894   4.169
12181W        W76389   1.735   2.860   2.250
12182W        W76390  33.418  21.127  10.518
12183W        W76391  24.017   3.344  12.078
12184W        W76392   6.713  44.852  11.977
12185W        W76393  10.861   7.839  12.440
12186W        W76394  31.607   3.328   2.321
12187W        W76395  25.152   4.855  14.840
12188W        W76396   3.236   2.227   4.668
12189W        W76397  28.980  37.533   2.346
12190W        W76398  24.691  31.089   2.690
12191W        W76399   8.348  12.243  14.334
12192W        W76400   2.745   2.271   4.604
12193W        W76401  21.640  44.338   2.874
12194W        W76402  20.264  20.631  13.840
12195W        W76403   0.967  28.162   3.687
12196W        W76404  36.372  40.821   0.413
12197W        W76405  38.029  20.243  10.630
12198W        W76406   6.680   2.745  12.474
12199W        W76407   3.845  35.022   0.420
12200W        W76408   4.445  38.936  11.566
12201W        W76409   6.356  43.386  10.489
12202W        W76410  14.107  38.023   3.157
12203W        W76411  37.461   6.189   1.350
12204W        W76412  11.741  29.487  11.883
12205W        W76413  35.017  38.054   3.832
12206W        W76414  12.834  19.738   4.669
12207W        W76415   6.318  41.036   3.373
12208W        W76416  43.288  22.173  14.986
12209W        W76417   8.254  41.789   0.853
12210W        W76418  25.605  20.191  10.564
12211W        W76419  17.649   0.831   3.345
12212W        W76420  27.088  32.451  13.352
12213W        W76421   9.342   5.769   3.732
12214W        W76422   9.316  18.614  14.954
12215W        W76423  31.025  20.144   2.699
12216W        W76424  34.533   5.393   3.361
12217W        W76425  43.009  42.333  11.903
12218W        W76426  12.355  31.592  14.805
12219W        W76427  19.731  41.485  11.397
12220W        W76428   8.195   8.405  10.982
12221W        W76429  29.919   8.751   3.703
12222W        W76430  24.043  16.649   3.181
12223W        W76431  19.691  14.678  14.971
12224W        W76432   5.423  40.027   1.335
12225W        W76433  19.181  19.564  14.504
12226W        W76434   1.840   0.781  13.965
12227W        W76435  19.147  19.689   4.661
12228W        W76436   0.287  13.830  11.949
12229W        W76437  31.995   5.353   5.091
12230W        W76438   4.351  20.580  14.993
12231W        W76439  23.727  16.315   4.195
12232W        W76440  27.964  12.327  13.863
12233W        W76441  29.140   4.815  12.047
12234W        W76442  39.934  44.753   3.165
12235W        W76443  38.068  42.986  12.577
12236W        W76444   2.945  39.332   1.788
12237W        W76445  20.744  13.717  14.800
12238W        W76446   3.892   1.894   2.847
12239W        W76447  23.170  41.970   2.859
12240W        W76448  19.152  36.874   3.746
12241W        W76449   5.249  22.251   2.282
12242W        W76450  32.976   3.745  11.075
12243W        W76451  16.284  10.700  11.551
12244W        W76452  24.203  38.399   1.439
12245W        W76453   3.244  32.516  10.633
12246W        W76454  13.840  16.086   4.247
12247W        W76455  30.999   0.790   3.789
12248W        W76456  19.759   5.259   0.301
12249W        W76457   9.822   4.442   4.760
12250W        W76458  15.169  14.825   3.778
12251W        W76459  14.282  38.823  11.876
12252W        W76460   4.238   8.870  12.912
12253W        W76461  21.063  10.351  13.453
12254W        W76462  11.234  34.417  10.946
12255W        W76463   9.776   5.309  14.458
12256W        W76464  22.249  30.619   3.849
12257W        W76465  29.669  35.921   4.324
12258W        W76466  23.502  30.554  14.293
12259W        W76467  22.035  12.329  12.833
12260W        W76468  40.927   1.256   3.719
12261W        W76469  22.602   1.356  14.899
12262W        W76470  16.188  33.880   1.889
12263W        W76471  26.145  18.713  13.958
12264W        W76472  44.858   7.415  14.847
12265W        W76473  36.074  20.158   4.692
12266W        W76474   6.337  26.588   4.211
12267W        W76475   7.668  22.077   4.226
12268W        W76476  13.818  36.991  12.549
12269W        W76477  26.551  24.197  14.404
12270W        W76478  23.615  25.693   1.444
12271W        W76479  10.329  33.455  11.577
12272W        W76480   7.180  39.825  14.294
12273W        W76481   2.800  12.785  11.041
12274W        W76482  24.555  37.909  12.081
12275W        W76483  37.493  27.983   4.824
12276W        W76484  35.389  27.458   3.383
12277W        W76485  19.150   6.219   3.319
12278W        W76486  18.184  17.771  12.574
12279W        W76487   2.829  10.375  12.972
12280W        W76488   3.413   3.367   4.197
12281W        W76489  39.954  37.564  14.473
12282W        W76490  26.678   4.315   4.281
12283W        W76491  16.602   9.149  13.864
12284W        W76492  14.132  37.385  12.550
12285W        W76493   4.317  30.594   0.878
12286W        W76494  17.124  10.850   1.717
12287W        W76495  42.313   3.945  10.134
12288W        W76496  21.184   5.239  11.577
12289W        W76497   2.256  37.051   2.262
12290W        W76498  13.282  28.087  13.500
12291W        W76499  33.060  43.390   2.293
12292W        W76500  33.994  36.379  12.427
12293W        W76501  16.222  21.233  12.925
12294W        W76502  32.445  26.560   1.351
12295W        W76503  37.890  21.204  11.453
12296W        W76504   1.241  29.102  14.288
12297W        W76505  23.187  11.178   2.800
12298W        W76506  31.974   0.884   5.202
12299W        W76507  28.159  26.518   2.878
12300W        W76508  40.969  16.126  14.476
12301W        W76509   1.890  43.938   1.436
12302W        W76510  38.564  38.387  14.922
12303W        W76511  25.151   6.326   1.926
12304W        W76512  19.620  34.063   2.695
12305W        W76513  36.092   1.952   4.289
12306W        W76514  40.377  34.499   4.265
12307W        W76515  39.510   1.390  11.567
12308W        W76516  14.119  31.037   4.145
12309W        W76517  16.299   5.223   1.856
12310W        W76518  14.623   0.299  12.835
12311W        W76519  20.238  15.154  12.959
12312W        W76520   2.419   4.917  12.442
12313W        W76521   7.411  11.623   3.659
12314W        W76522  23.183  37.057  13.016
12315W        W76523  41.022  18.063  13.401
12316W        W76524  42.293  34.489   0.301
12317W        W76525  43.847   2.368   1.391
12318W        W76526   2.780  37.485   0.857
12319W        W76527   4.910  31.644  14.439
12320W        W76528  28.645  34.920   3.176
12321W        W76529   9.813  15.631  11.463
12322W        W76530   2.813  37.529  11.470
12323W        W76531  17.654  29.424   2.683
12324W        W76532  20.692  36.354   3.771
12325W        W76533  31.102  20.634   3.333
12326W        W76534  38.050  22.162   3.214
12327W        W76535  27.170   4.915  12.544
12328W        W76536  29.007  44.305   2.708
12329W        W76537  44.862  27.108  13.317
12330W        W76538  13.346  14.235   1.790
12331W        W76539   6.200   0.427   4.135
12332W        W76540  28.935   2.345   3.365
12333W        W76541  12.850  35.864   0.326
12334W        W76542   5.786  40.408  11.537
12335W        W76543   4.715  30.087  14.484
12336W        W76544   8.391  18.129   1.224
12337W        W76545   1.859  35.443   1.783
12338W        W76546   1.357  43.300  10.989
12339W        W76547  15.257   3.329   0.909
12340W        W76548  35.867   7.323  12.849
12341W        W76549  25.522  40.418  12.498
12342W        W76550  41.311  30.578  12.057
12343W        W76551  24.184  35.470   3.230
12344W        W76552  11.286  13.755  12.901
12345W        W76553  10.186  15.205   4.651
12346W        W76554   2.233  38.486  12.402
12347W        W76555  33.949  23.620  14.451
12348W        W76556  35.445  17.772   3.665
12349W        W76557  42.360   4.212  10.998
12350W        W76558  17.716  14.156  12.515
12351W        W76559  19.681  10.232  10.438
12352W        W76560  24.990  41.905   2.272
12353W        W76561  25.180  25.583   3.865
12354W        W76562   5.844  15.606   0.754
12355W        W76563  42.940  40.975   0.823
12356W        W76564  40.967  18.631  11.476
12357W        W76565  19.727  38.991  11.592
12358W        W76566   2.336  25.986  13.947
12359W        W76567  19.130  32.083   3.164
12360W        W76568  39.449   1.308  11.109
12361W        W76569  25.989  19.191   3.266
12362W        W76570  40.034  16.702  13.420
12363W        W76571  31.568  13.664  11.373
12364W        W76572   0.451  42.412  13.954
12365W        W76573  12.686  39.893   2.400
12366W        W76574  30.150   8.249   1.848
12367W        W76575  11.271  27.087   4.173
12368W        W76576  30.007  15.809  12.910
12369W        W76577  28.147  23.555  12.386
12370W        W76578  26.561  27.537   4.221
12371W        W76579  10.357  38.513   4.303
12372W        W76580  17.236  12.849   9.975
12373W        W76581  15.653  15.306  11.543
12374W        W76582  27.190  25.977   3.705
12375W        W76583   6.402  10.266   3.700
12376W        W76584  39.410  35.546   4.184
12377W        W76585  11.206  20.111   4.653
12378W        W76586  42.298  23.716   0.828
12379W        W76587  11.292  36.584  12.870
12380W        W76588  22.102   7.845  13.491
12381W        W76589  29.124  27.455  11.006
12382W        W76590  15.280  14.147   1.351
12383W        W76591  15.085  28.509  11.516
12384W        W76592  18.681  20.219   4.166
12385W        W76593  13.643  16.284  10.531
12386W        W76594   1.402  35.360   3.334
12387W        W76595  43.951  24.207  11.501
12388W        W76596   2.228  14.268   2.712
12389W        W76597  24.538  42.775   2.763
12390W        W76598  17.155  15.246   0.418
12391W        W76599  29.040   5.397  11.048
12392W        W76600  34.096  11.205  12.552
12393W        W76601  29.600  39.410  14.802
12394W        W76602  19.051  35.039   0.279
12395W        W76603  12.677  18.773  10.889
12396W        W76604  32.441  13.293  12.935
12397W        W76605  33.437  44.791   4.725
12398W        W76606   6.323   9.744  11.467
12399W        W76607  16.805   0.749   2.758
12400W        W76608   4.242  34.040  11.860
12401W        W76609  42.285  27.064   2.267
12402W        W76610  43.841  26.662   2.235
12403W        W76611  16.601  22.192  14.024
12404W        W76612  26.980  13.339   4.325
12405W        W76613  44.758  28.958  14.802
12406W        W76614   3.263  25.706   0.419
12407W        W76615   6.720  19.077  10.499
12408W        W76616  41.368  23.079   3.863
12409W        W76617   0.891  10.839  12.856
12410W        W76618  22.679   7.350   2.322
12411W        W76619  34.884  37.379  13.320
12412W        W76620  31.542  28.096   0.854
12413W        W76621  37.341  22.525  13.400
12414W        W76622  38.972  24.176   2.854
12415W        W76623  32.551  12.738  14.017
12416W        W76624  17.573  20.733   4.131
12417W        W76625  29.486  13.794  12.491
12418W        W76626  19.158  27.582  14.499
12419W        W76627  34.028  15.240  14.489
12420W        W76628   0.803  30.014   2.870
12421W        W76629  11.326  28.516   3.870
12422W        W76630  33.424  10.686  10.915
12423W        W76631  42.327  34.503  12.514
12424W        W76632  35.401  29.031   4.267
12425W        W76633  43.461  16.156   2.751
12426W        W76634  35.473  26.687   5.200
12427W        W76635   2.882  12.317  13.895
12428W        W76636   5.327   9.236   4.271
12429W        W76637  13.599   9.707   3.864
12430W        W76638  27.971  21.665   0.313
12431W        W76639  28.667  15.648   5.754
12432W        W76640  32.913  43.323  11.895
12433W        W76641   1.341  33.485   5.577
12434W        W76642   4.797  39.399   4.613
12435W        W76643  16.134  39.863   4.641
12436W        W76644  27.637  16.790   3.831
12437W        W76645  18.053  24.061  12.020
12438W        W76646  36.503   2.456  13.476
12439W        W76647  27.980  35.878   2.665
12440W        W76648  16.216   8.673  12.405
12441W        W76649   2.433  11.312   0.271
12442W        W76650  25.549  31.984   4.834
12443W        W76651   5.400  39.322  12.396
12444W        W76652  17.269  25.695  11.006
12445W        W76653  19.671  20.552  13.405
12446W        W76654  19.608  38.404   3.723
12447W        W76655   6.395  21.159   0.831
12448W        W76656  42.395  29.082   4.601
12449W        W76657  15.809  43.480   4.295
12450W        W76658  30.016  40.945  11.947
12451W        W76659  21.048   8.276   4.155
12452W        W76660  25.584  39.842   3.870
12453W        W76661   5.322   9.358  14.514
12454W        W76662  43.004  30.955  14.898
12455W        W76663  44.340  20.119   1.933
12456W        W76664   6.683   5.253   1.324
12457W        W76665  17.174   0.335   4.756
12458W        W76666  19.249  23.067   2.710
12459W        W76667  28.637  30.982   2.199
12460W        W76668  43.954   3.334   0.326
12461W        W76669  19.751  24.149  10.539
12462W        W76670  40.445  24.203  12.495
12463W        W76671   0.889  31.018   2.350
12464W        W76672  22.528   5.296  12.011
12465W        W76673  20.097  30.635   0.260
12466W        W76674  29.639  41.339   0.405
12467W        W76675   8.191  33.526  11.599
12468W        W76676  16.684   0.286   1.435
12469W        W76677  22.691  34.549  13.013
12470W        W76678  19.535  27.984   5.111
12471W        W76679  39.901  41.009  13.527
12472W        W76680  19.077   3.260   0.360
12473W        W76681  10.792  15.163   9.662
12474W        W76682  20.658  16.310   5.226
12475W        W76683  40.456  15.656  10.102
12476W        W76684  12.615  14.676   2.797
12477W        W76685   3.808  15.642   1.317
12478W        W76686  40.023  28.168   3.760
12479W        W76687  20.131   5.321  12.891
12480W        W76688  26.096  37.947  12.531
12481W        W76689   6.887   9.706  13.954
12482W        W76690  41.536   5.305   4.611
12483W        W76691  35.377  22.052   3.246
12484W        W76692   9.254   1.831  11.558
12485W        W76693  13.146  31.896  11.416
12486W        W76694  38.457  25.612   1.709
12487W        W76695  24.671  39.355  10.558
12488W        W76696   2.457  29.129  11.406
12489W        W76697  31.431  37.338  12.531
12490W        W76698  36.976  26.065   0.732
12491W        W76699  41.530  21.194  11.547
12492W        W76700  16.609  41.832  13.974
12493W        W76701  32.919  15.177  10.993
12494W        W76702   3.271   8.362   1.737
12495W        W76703  16.159  27.640   4.202
12496W        W76704  37.016  11.363  11.558
12497W        W76705  12.228  30.573   2.293
12498W        W76706  38.531   6.793   1.416
12499W        W76707  39.955  26.015  12.962
12500W        W76708  30.938  11.197  11.045
12501W        W76709   2.423  40.054   1.305
12502W        W76710  30.507  28.633  10.625
12503W        W76711  32.438  27.977  11.971
12504W        W76712  38.375  15.637   3.697
12505W        W76713   3.851  33.595   1.780
12506W        W76714   4.794   2.417   5.107
12507W        W76715  33.062  18.683  13.002
12508W        W76716  28.507  23.072  12.566
12509W        W76717   1.812  13.810   1.360
12510W        W76718  43.325  33.895  11.436
12511W        W76719  21.141  13.309   1.379
12512W        W76720  38.454  35.546  14.434
12513W        W76721  34.912  22.103  12.358
12514W        W76722  39.444   7.313   2.772
12515W        W76723  27.114  41.030   4.659
12516W        W76724  42.493  20.108  11.127
12517W        W76725   5.281  29.471  10.645
12518W        W76726  24.503  17.290  14.315
12519W        W76727  39.044  37.895  13.795
12520W        W76728  13.767  34.036  12.021
12521W        W76729  12.165  23.723  12.914
12522W        W76730  41.997   5.292  10.441
12523W        W76731  39.328  27.455   1.254
12524W        W76732  32.914  32.052   2.765
12525W        W76733  29.146  26.082  11.901
12526W        W76734   5.738   1.412   0.767
12527W        W76735  26.082  20.650  13.415
12528W        W76736  34.107   3.338   4.685
12529W        W76737  37.518  26.500  12.541
12530W        W76738  10.696  24.228  13.864
12531W        W76739  38.350   1.447   2.210
12532W        W76740  20.583  31.035   4.608
12533W        W76741   6.360   9.168  11.937
12534W        W76742  38.329  30.580   2.352
12535W        W76743   4.247  21.206   3.822
12536W        W76744  43.293  19.768   1.217
12537W        W76745  22.217  22.507  12.965
12538W        W76746   3.849  30.967   4.689
12539W        W76747  29.102  16.636   0.930
12540W        W76748  18.686   9.838  13.797
12541W        W76749  15.230  29.624   3.219
12542W        W76750  23.992  28.982  14.912
12543W        W76751   0.876  28.941   2.327
12544W        W76752  22.557  38.334   0.919
12545W        W76753   6.677  44.492   0.279
12546W        W76754   5.823  22.139  11.449
12547W        W76755  28.004  18.149  11.898
12548W        W76756   3.306  30.124   3.820
12549W        W76757  26.038  14.115   3.656
12550W        W76758   2.279  17.297   0.882
12551W        W76759   9.777  24.519   1.849
12552W        W76760   7.864  38.523  14.859
12553W        W76761  22.576   6.795   4.280
12554W        W76762   4.281   4.346   0.930
12555W        W76763  27.040  22.182   1.428
12556W        W76764   5.418  23.629  14.984
12557W        W76765  19.061   8.369  14.991
12558W        W76766  32.404  38.396  13.988
12559W        W76767  17.724  21.553  11.065
12560W        W76768  34.449  35.864   2.676
12561W        W76769  40.460   1.282   9.931
12562W        W76770  33.393   2.931  11.883
12563W        W76771   8.382   8.298  10.569
12564W        W76772  11.696  29.521   1.212
12565W        W76773  35.856  30.590  10.424
12566W        W76774  30.155   4.255   0.775
12567W        W76775  35.576  29.645  14.799
12568W        W76776  19.636  25.074  13.030
12569W        W76777  23.122  24.114  14.912
12570W        W76778  35.417  23.548  11.371
12571W        W76779  38.330  29.158   0.423
12572W        W76780   5.872  12.610   1.373
12573W        W76781  43.883  27.663  13.818
12574W        W76782  31.136  43.419  11.516
12575W        W76783  41.494  35.033   2.335
12576W        W76784   0.792  23.165   3.380
12577W        W76785  36.443  39.026  12.965
12578W        W76786   2.382   6.321   1.211
12579W        W76787  22.693  14.271   4.668
12580W        W76788  31.586  36.030  13.829
12581W        W76789  16.127  13.698  12.341
12582W        W76790  11.258  38.540   0.432
12583W        W76791   1.867  43.407   4.244
12584W        W76792  36.543  30.115   1.841
12585W        W76793  35.976   3.214  14.918
12586W        W76794   9.887  34.441  11.123
12587W        W76795  34.490  34.401  11.406
12588W        W76796  24.087  31.137   1.698
12589W        W76797  36.082   7.698   4.192
12590W        W76798  37.956   1.250   4.120
12591W        W76799   2.442  21.180  10.486
12592W        W76800  12.211  32.446  13.436
12593W        W76801  10.305  14.797   0.793
12594W        W76802  36.849  13.766   2.350
12595W        W76803  44.304  41.385  13.314
12596W        W76804   1.868  42.304  11.591
12597W        W76805  36.025  21.239   2.214
12598W        W76806  32.951  10.378  10.553
12599W        W76807  10.744  34.116   0.872
12600W        W76808  24.069   9.866  11.112
12601W        W76809  15.310   0.950  12.834
12602W        W76810  16.770  35.969   4.833
12603W        W76811  34.914  30.076  14.448
12604W        W76812  41.469  39.409  14.457
12605W        W76813   0.284  23.233  14.880
12606W        W76814  26.065  20.194  13.424
12607W        W76815  41.956  17.140   0.403
12608W        W76816   4.327   1.928  14.937
12609W        W76817   6.829  33.508  11.900
12610W        W76818   7.861  30.641   0.436
12611W        W76819  24.615  19.727   3.159
12612W        W76820  40.537   9.764  11.445
12613W        W76821  12.667   4.447  11.097
12614W        W76822   6.899  38.924   0.245
12615W        W76823   2.397   6.703   4.333
12616W        W76824   0.259   6.347  12.510
12617W        W76825  44.938  19.544  10.951
12618W        W76826  34.063  17.095   3.327
12619W        W76827  17.598  11.286   3.147
12620W        W76828  12.280  43.468  14.900
12621W        W76829  16.250   2.265   3.699
12622W        W76830  18.733  23.688  12.492
12623W        W76831  28.093  28.932  12.415
12624W        W76832  19.183   2.916  13.979
12625W        W76833  31.055  19.660   4.757
12626W        W76834  11.134  36.414  14.780
12627W        W76835  33.616   0.755   2.271
12628W        W76836  11.653   3.279  14.299
12629W        W76837  39.048  43.815   0.266
12630W        W76838  43.766  35.987  13.388
12631W        W76839  12.256  15.161   3.792
12632W        W76840  15.196   8.839   2.386
12633W        W76841  35.412  20.029  11.505
12634W        W76842  19.722   9.393   4.773
12635W        W76843   7.820  35.033  11.108
12636W        W76844  36.925  11.845   0.339
12637W        W76845  20.725  35.491  12.972
12638W        W76846   4.372  24.693   0.430
12639W        W76847   1.405  40.381   3.808
12640W        W76848  22.645   5.380   4.290
12641W        W76849  39.939  40.993   4.765
12642W        W76850  32.923  13.304  14.004
12643W        W76851  44.914  44.776   2.896
12644W        W76852  12.243  43.823  10.586
12645W        W76853  11.285  32.970   1.694
12646W        W76854   2.400   6.414   3.634
12647W        W76855  20.727  14.831  13.951
12648W        W76856   7.891  43.480   2.390
12649W        W76857   6.364  33.586  12.096
12650W        W76858  44.787   6.249   3.724
12651W        W76859  34.980  29.494  11.538
12652W        W76860   3.281   0.893   0.776
12653W        W76861  31.933  22.067  13.508
12654W        W76862  37.991  14.798   2.368
12655W        W76863  21.263  10.858  13.328
12656W        W76864  23.007  44.941   3.150
12657W        W76865  33.949  33.494   2.233
12658W        W76866  21.118   3.930   2.780
12659W        W76867  35.947  26.640  12.938
12660W        W76868  43.454   8.743   4.187
12661W        W76869  35.969   0.950   2.694
12662W        W76870  34.931  34.472   2.229
12663W        W76871  14.161  18.218  12.545
12664W        W76872  20.534  36.963   1.259
12665W        W76873  27.519  33.542   1.409
12666W        W76874  24.096   1.799   1.780
12667W        W76875   0.466   5.387  13.428
12668W        W76876  10.851  14.610   5.732
12669W        W76877  14.247  23.626   4.181
12670W        W76878  30.966  37.427  13.373
12671W        W76879  17.610   9.210  13.878
12672W        W76880  12.826  11.290   1.822
12673W        W76881  22.010  43.827   1.875
12674W        W76882   1.343  31.009   2.762
12675W        W76883   1.782  42.994   2.898
12676W        W76884  16.695   5.283   3.166
12677W        W76885   4.919  10.298  14.801
12678W        W76886   9.868  13.272   0.409
12679W        W76887  23.081  41.339  13.867
12680W        W76888  21.634  26.061  14.449
12681W        W76889  13.738  10.275   0.786
12682W        W76890   9.338  19.728  12.951
12683W        W76891   0.338  32.424  11.984
12684W        W76892   4.856  25.681   4.640
12685W        W76893   1.844   4.374  12.011
12686W        W76894  31.092  33.607   1.697
12687W        W76895  12.736  43.279   0.824
12688W        W76896  13.783  40.531  10.425
12689W        W76897   3.711  42.788   3.202
12690W        W76898  39.477  43.360  12.937
12691W        W76899  37.947   3.743  14.474
12692W        W76900   9.820  28.104  11.493
12693W        W76901  42.378  34.510  14.413
12694W        W76902  18.733  32.991   4.206
12695W        W76903  28.968  40.989   2.180
12696W        W76904  30.120  18.787  12.962
12697W        W76905  23.508   9.801  12.824
12698W        W76906   3.853  32.108  10.501
12699W        W76907   6.346  38.997  14.841
12700W        W76908  44.371  17.067   2.889
12701W        W76909  15.815  28.550   2.329
12702W        W76910  36.843  28.437   4.726
12703W        W76911  39.914  33.897  14.307
12704W        W76912  15.689  42.465  12.424
12705W        W76913   9.205  38.540   2.860
12706W        W76914  10.233  34.052  13.371
12707W        W76915  21.087  17.284   2.294
12708W        W76916  33.476  34.565   1.709
12709W        W76917  25.622  17.153   4.712
12710W        W76918  37.480  29.519  14.490
12711W        W76919  14.665  44.281  12.935
12712W        W76920  23.602   9.722   3.303
12713W        W76921  43.379   3.252  10.557
12714W        W76922  43.401  29.660   1.443
12715W        W76923   4.836  39.043  13.460
12716W        W76924  14.673   0.494  10.585
12717W        W76925  33.559  23.008  14.011
12718W        W76926  27.979   8.248   0.267
12719W        W76927  40.482  43.462  12.076
12720W        W76928  24.481  39.043   2.373
12721W        W76929   4.371  44.491   2.190
12722W        W76930  33.018  23.201   4.191
12723W        W76931  16.096  34.936   2.751
12724W        W76932  32.426  37.900  14.000
12725W        W76933   2.937   4.828   2.721
12726W        W76934  21.648  37.503  14.801
12727W        W76935  44.982  34.534   3.310
12728W        W76936  31.124  39.432   2.340
12729W        W76937  10.362  29.984   2.249
12730W        W76938  29.117  10.778  14.980
12731W        W76939  36.380   2.892   2.192
12732W        W76940   0.356   2.428  11.981
12733W        W76941  10.281  41.323   3.676
12734W        W76942  10.732  27.467  14.359
12735W        W76943  36.484  44.292  14.004
12736W        W76944  14.109   4.332  13.411
12737W        W76945  19.770   2.363  12.902
12738W        W76946  35.604   9.684  12.096
12739W        W76947  20.126  44.272   1.741
12740W        W76948  14.781  23.996  12.074
12741W        W76949  25.613  17.689  13.882
12742W        W76950  34.120  18.208   2.380
12743W        W76951  36.554  34.395  11.503
12744W        W76952  20.052  36.878   2.684
12745W        W76953   2.279   2.869  13.860
12746W        W76954  44.346  24.619   2.377
12747W        W76955  39.010   1.277  13.930
12748W        W76956  30.626  10.795  13.878
12749W        W76957  24.716   2.780  11.061
12750W        W76958  29.123   8.207  12.986
12751W        W76959   0.986  16.675   3.280
12752W        W76960  28.056   1.425  11.003
12753W        W76961  27.688   8.791   1.373
12754W        W76962  16.121  20.135   3.289
12755W        W76963   9.699  19.663  11.994
12756W        W76964  19.252   6.280   1.340
12757W        W76965   8.716  16.264   0.354
12758W        W76966  15.258  18.596  14.411
12759W        W76967  19.086   3.822   9.608
12760W        W76968   5.851  25.623   1.822
12761W        W76969  40.314  41.948   0.876
12762W        W76970  30.932  13.196   4.264
12763W        W76971  16.608  28.529  14.874
12764W        W76972  37.365  25.963   2.375
12765W        W76973  34.864  28.098  13.886
12766W        W76974   1.964  16.721  13.980
12767W        W76975  18.229  35.866   1.423
12768W        W76976  26.663  33.028   2.857
12769W        W76977   7.674  14.749  11.432
12770W        W76978  40.404  39.505  11.452
12771W        W76979   7.709  20.598  12.964
12772W        W76980  36.928  26.123   1.724
12773W        W76981   7.873   7.711  10.582
12774W        W76982  38.050   5.368   4.631
12775W        W76983  17.125  31.405   3.791
12776W        W76984  28.141   8.815   2.377
12777W        W76985   5.391  15.172   3.825
12778W        W76986  41.430  34.460   0.295
12779W        W76987  24.095  41.538   0.447
12780W        W76988  26.462   7.743   0.273
12781W        W76989  15.197  43.987   4.202
12782W        W76990  22.558   9.659   0.885
12783W        W76991   8.806  25.533   4.117
12784W        W76992  34.980  20.094  14.476
12785W        W76993  14.252  30.514   0.407
12786W        W76994  33.952   5.853   2.287
12787W        W76995  23.699  41.523   0.938
12788W        W76996  36.428  37.966   4.322
12789W        W76997  10.253  35.076  10.444
12790W        W76998   4.883   9.277  11.124
12791W        W76999   6.806   1.459   1.221
12792W        W77000  43.461  28.112   1.335
12793W        W77001  18.163  14.242   3.222
12794W        W77002  17.622  36.352   9.632
12795W        W77003  19.775  38.903   4.320
12796W        W77004  14.818  20.262  13.917
12797W        W77005   5.912   7.400  13.329
12798W        W77006  30.963  27.941  10.942
12799W        W77007  10.785  14.662   0.288
12800W        W77008  33.436  38.026   4.821
12801W        W77009  30.936  22.583   3.383
12802W        W77010   1.869  40.374  11.002
12803W        W77011  37.085   7.902  10.911
12804W        W77012  17.625  38.905   2.185
12805W        W77013  42.945   7.301  11.526
12806W        W77014  27.593  38.959   3.221
12807W        W77015  44.348   2.933   1.775
12808W        W77016  42.841  39.412   1.297
12809W        W77017  41.319   2.913  13.408
12810W        W77018  13.233  29.058   5.286
12811W        W77019  10.234   2.739   4.175
12812W        W77020   5.383  12.695   0.803
12813W        W77021   7.215  38.969  14.018
12814W        W77022  41.961  11.660  10.986
12815W        W77023  20.169  31.954  12.398
12816W        W77024  39.041   6.266  11.529
12817W        W77025  30.152  42.400  12.342
12818W        W77026  20.053  30.149  14.890
12819W        W77027  17.071  27.147  13.826
12820W        W77028   5.899  11.176  11.508
12821W        W77029  41.330  33.993  12.436
12822W        W77030  26.530  26.104   1.872
12823W        W77031  13.797  21.120  13.840
12824W        W77032   3.709  15.678  13.324
12825W        W77033   0.338  21.618  12.827
12826W        W77034  22.191   5.922   0.370
12827W        W77035  27.962  29.023   1.834
12828W        W77036  40.418  15.682   0.929
12829W        W77037  28.951  21.695  13.809
12830W        W77038  33.467  32.431   4.634
12831W        W77039  11.285  19.695  10.545
12832W        W77040  13.686  34.590   1.386
12833W        W77041  26.594   5.389   4.240
12834W        W77042  36.462  34.923   0.285
12835W        W77043  18.672   3.843  13.831
12836W        W77044   2.766  24.003   1.433
12837W        W77045  24.005  43.892  14.841
12838W        W77046  32.508  25.680   2.744
12839W        W77047   8.348  17.240  13.530
12840W        W77048  28.014  15.216  10.987
12841W        W77049   8.354  26.101   3.175
12842W        W77050  13.623  34.469  13.908
12843W        W77051  31.033   9.357  10.988
12844W        W77052  44.364  33.014   5.177
12845W        W77053  14.835  25.582   3.244
12846W        W77054  43.402  18.650   1.297
12847W        W77055  27.086  24.193  13.472
12848W        W77056  12.317  43.901   4.658
12849W        W77057  16.623  31.946  13.414
12850W        W77058   6.698   3.243   4.193
12851W        W77059  19.597  40.486   4.195
12852W        W77060  44.279  29.663  13.524
12853W        W77061  36.410  33.110  14.795
12854W        W77062  34.416  22.576   0.269
12855W        W77063   6.292  22.233   4.706
12856W        W77064  20.587  15.694   3.384
12857W        W77065   4.703  15.141  12.013
12858W        W77066   6.753  20.052   3.161
12859W        W77067  16.154  22.707  10.950
12860W        W77068   9.347  36.905  12.829
12861W        W77069  39.913   4.849   3.167
12862W        W77070   5.382   8.372   2.891
12863W        W77071  28.050   0.900   4.134
12864W        W77072   5.265   2.780  10.606
12865W        W77073  38.520   8.861  12.380
12866W        W77074  44.949  27.496  10.454
12867W        W77075   3.257  18.149  14.854
12868W        W77076   9.293  42.941   3.860
12869W        W77077  36.439  44.880   0.308
12870W        W77078  26.456  34.923  14.863
12871W        W77079  38.943  31.487   2.708
12872W        W77080  28.654  20.540   3.237
12873W        W77081  32.587  24.598  11.917
12874W        W77082  12.822   1.937   2.687
12875W        W77083  44.298  42.960   1.305
12876W        W77084  12.767  30.012  12.954
12877W        W77085  35.492   4.308  11.069
12878W        W77086  15.269  44.396   4.702
12879W        W77087  25.512  20.716  12.378
12880W        W77088  43.376  23.629   2.833
12881W        W77089  39.371  25.518   0.938
12882W        W77090  15.147  15.793   1.443
12883W        W77091  13.769  33.957  14.944
12884W        W77092  26.077  44.938   4.819
12885W        W77093  32.953  18.157  14.494
12886W        W77094  27.604  28.012  13.453
12887W        W77095  26.456  10.146   3.165
12888W        W77096  25.534  23.229   1.694
12889W        W77097  26.489  29.174   3.650
12890W        W77098  41.521  43.396   0.914
12891W        W77099  31.921  14.209   0.429
12892W        W77100  41.844  28.443   1.787
12893W        W77101  38.005  19.779  12.031
12894W        W77102  31.084  13.637  13.463
12895W        W77103  28.651  18.706  12.030
12896W        W77104  18.088  11.653  12.990
12897W        W77105  17.298  32.501   3.285
12898W        W77106   9.243  38.048  11.594
12899W        W77107  26.160  12.731   3.630
12900W        W77108  27.131  29.624   2.395
12901W        W77109  18.626  36.370  10.611
12902W        W77110   6.363  10.807  10.132
12903W        W77111  18.692  21.743  10.605
12904W        W77112  19.581  31.905  13.906
12905W        W77113  27.588  20.271   0.295
12906W        W77114  27.523  20.201   2.279
12907W        W77115  32.136  23.087   0.944
12908W        W77116   7.295  20.120   3.146
12909W        W77117  14.308  10.821   1.314
12910W        W77118  42.333  15.604  13.426
12911W        W77119   8.229   0.915   3.204
12912W        W77120  26.638  28.089   0.779
12913W        W77121  39.030  35.861  12.996
12914W        W77122  32.913  18.124   3.292
12915W        W77123  16.582  15.305  11.540
12916W        W77124   8.839   9.201   0.730
12917W        W77125   9.816   9.216  10.908
12918W        W77126  18.563  42.510  14.854
12919W        W77127  41.434  38.062  13.527
12920W        W77128  38.537   4.356   2.188
12921W        W77129   5.917   2.262   2.196
12922W        W77130  29.530  18.196  10.160
12923W        W77131  14.333  24.536  12.476
12924W        W77132  14.815  36.845   0.347
12925W        W77133  37.385  14.119  11.468
12926W        W77134  44.395  20.712   1.753
12927W        W77135  40.952  41.813   2.290
12928W        W77136  37.367  23.562  10.527
12929W        W77137  36.415  19.282  13.968
12930W        W77138   4.448  29.551  11.602
12931W        W77139  13.692  44.965   4.297
12932W        W77140   5.884   8.688  12.510
12933W        W77141  12.766   8.816  12.876
12934W        W77142  41.428  33.934   2.693
12935W        W77143  40.869  36.428  12.537
12936W        W77144   8.359  37.056  13.851
12937W        W77145   0.298  43.906  11.547
12938W        W77146  38.075   1.740   3.327
12939W        W77147  23.005   5.310  10.449
12940W        W77148  25.037  23.224   2.284
12941W        W77149  30.454  19.722  10.887
12942W        W77150  11.732  40.426   1.239
12943W        W77151   6.884   6.788   0.861
12944W        W77152  21.614  21.642  14.886
12945W        W77153  32.417  34.492  14.509
12946W        W77154  41.370  21.036  14.917
12947W        W77155  28.480  37.445   1.392
12948W        W77156  28.572   0.795  10.548
12949W        W77157  34.909  32.513   0.320
12950W        W77158  42.004  10.839  11.858
12951W        W77159   2.372  19.750   4.132
12952W        W77160  22.520  28.533  10.443
12953W        W77161  14.822  41.917   3.262
12954W        W77162  38.451  29.566  12.445
12955W        W77163  28.161   7.727  13.064
12956W        W77164  29.638  25.105  10.617
12957W        W77165  22.222   3.775   2.902
12958W        W77166  40.928   2.791  11.384
12959W        W77167   4.411  17.257   2.873
12960W        W77168  12.121  16.686   1.877
12961W        W77169  17.746  16.718   2.745
12962W        W77170  40.361  32.512  13.440
12963W        W77171   9.689  21.623  11.857
12964W        W77172  10.327   7.706   3.841
12965W        W77173  10.284  29.089  10.574
12966W        W77174  22.503  21.083   3.818
12967W        W77175  16.800  15.678  12.850
12968W        W77176  10.694  15.654   3.185
12969W        W77177  28.467  21.132  12.562
12970W        W77178  34.936  23.632   1.791
12971W        W77179  36.966  40.802  11.992
12972W        W77180  33.106  27.096  11.002
12973W        W77181  43.430  22.662   3.303
12974W        W77182  20.101   0.971   2.297
12975W        W77183   9.150  40.474   0.353
12976W        W77184  17.556   3.769  13.846
12977W        W77185   7.766  12.723  14.932
12978W        W77186  27.578  27.105   2.378
12979W        W77187  29.570   8.277  10.456
12980W        W77188  20.164  39.033   4.774
12981W        W77189  11.298   2.877  12.087
12982W        W77190  28.060  34.581   1.759
12983W        W77191  30.081  37.912   2.664
12984W        W77192  26.595  11.648   3.741
12985W        W77193  24.154  39.038   1.809
12986W        W77194   2.857   4.848  13.462
12987W        W77195  42.965  21.548   3.678
12988W        W77196  11.830  25.116   2.750
12989W        W77197  21.231  33.575   3.332
12990W        W77198   5.319   9.668  14.981
12991W        W77199  28.939   4.812  12.450
12992W        W77200   1.759   7.325  14.405
12993W        W77201  35.489  27.168  11.999
12994W        W77202  38.363   1.869  14.023
12995W        W77203   3.226  27.519  10.156
12996W        W77204  30.634  22.214   0.935
12997W        W77205  11.266  42.319  14.009
12998W        W77206  44.851   2.933   1.438
12999W        W77207   9.307  39.019   4.691
13000W        W77208  14.727   0.817   2.796
13001W        W77209  24.074  35.867   9.976
13002W        W77210   7.760  32.927   1.239
13003W        W77211  12.263   7.894   4.273
13004W        W77212  36.482  40.366  10.486
13005W        W77213   7.385  43.815  13.005
13006W        W77214  10.204  19.743  12.941
13007W        W77215   0.928  31.960  10.416
13008W        W77216  19.195  32.952  10.533
13009W        W77217  34.523  39.846  11.395
13010W        W77218  26.978  22.999   2.726
13011W        W77219   3.229   2.396  11.393
13012W        W77220  44.939  14.337   0.756
13013W        W77221  34.072  26.460  12.989
13014W        W77222   6.404  11.761  14.823
13015W        W77223  35.504  34.899  12.373
13016W        W77224  17.228  18.225  12.344
13017W        W77225  22.602   6.878  12.420
13018W        W77226  16.112  31.106   1.790
13019W        W77227  11.210  24.187   4.291
13020W        W77228  28.096  25.129  13.962
13021W        W77229  17.629  21.212  12.056
13022W        W77230  32.994  37.075   0.397
13023W        W77231  30.911  14.604  11.585
13024W        W77232  11.682   8.659   2.863
13025W        W77233  33.500  24.509   4.814
13026W        W77234  19.622   5.733   4.250
13027W        W77235  28.595  38.387  13.326
13028W        W77236  34.891  22.055   0.291
13029W        W77237   4.783   8.301  13.363
13030W        W77238  23.725  35.393   1.915
13031W        W77239  33.025   2.232   1.435
13032W        W77240   2.866  40.423  13.893
13033W        W77241   1.431  30.089  11.924
13034W        W77242  16.615  18.599   0.315
13035W        W77243  14.239  13.212  11.563
13036W        W77244  32.424  15.790   3.292
13037W        W77245  31.526   8.176   0.787
13038W        W77246  36.027  40.455  14.446
13039W        W77247  29.454  23.114   2.246
13040W        W77248  21.213  26.579  14.876
13041W        W77249  20.187  34.410   0.771
13042W        W77250   2.772  23.526   3.193
13043W        W77251   6.398  32.134   3.764
13044W        W77252   1.330   7.337   4.750
13045W        W77253  32.926   4.908   3.630
13046W        W77254  34.444  28.501  14.030
13047W        W77255  27.500  12.647  14.320
13048W        W77256  23.229  18.126   5.143
13049W        W77257  24.479  13.269   1.427
13050W        W77258   1.240  43.822   4.688
13051W        W77259   6.232  25.978   3.793
13052W        W77260   9.688   4.384  14.946
13053W        W77261  21.024  10.200  11.371
13054W        W77262  23.615  19.232   1.428
13055W        W77263  17.255  22.671  13.977
13056W        W77264   1.366   5.439   1.863
13057W        W77265  18.229   5.376  12.884
13058W        W77266  35.489  21.230   2.244
13059W        W77267  16.153  29.508  11.928
13060W        W77268   3.844   7.903  10.534
13061W        W77269  28.181  14.304  14.373
13062W        W77270   5.395   1.896  13.048
13063W        W77271  17.569  40.952   4.347
13064W        W77272  11.692  22.013   0.346
13065W        W77273  37.457  26.207   2.733
13066W        W77274  33.566  32.470   0.729
13067W        W77275   0.300  39.961  14.026
13068W        W77276  33.951  21.158   2.222
13069W        W77277  16.163   6.209  13.062
13070W        W77278  17.251  33.580   3.237
13071W        W77279   6.819   8.690   0.251
13072W        W77280  21.716  31.063   4.274
13073W        W77281  14.127  14.151   4.672
13074W        W77282  21.683   4.326  10.453
13075W        W77283  30.992  10.639   1.933
13076W        W77284  31.583  20.260  12.928
13077W        W77285   5.700  34.000  13.425
13078W        W77286  13.651  22.211  13.542
13079W        W77287   3.257  36.896  10.963
13080W        W77288   4.715   3.830   4.163
13081W        W77289  11.670  33.497   9.954
13082W        W77290  17.181  43.418   2.371
13083W        W77291  35.370  29.570  13.444
13084W        W77292   8.890  17.797  10.974
13085W        W77293  13.722  36.407  12.497
13086W        W77294  32.535  37.998   4.737
13087W        W77295  18.229  29.425  11.886
13088W        W77296  44.331   8.243   4.733
13089W        W77297  12.335  18.143   4.671
13090W        W77298  35.602  35.593  13.965
13091W        W77299  22.236  34.615   4.328
13092W        W77300   8.745  38.468  12.402
13093W        W77301  15.188  44.890   1.910
13094W        W77302  20.575  41.015   3.846
13095W        W77303  35.862  38.384   0.739
13096W        W77304  37.960  32.448  14.929
13097W        W77305  34.907  31.907  13.845
13098W        W77306   1.799   2.464   0.403
13099W        W77307   8.364   1.431  10.478
13100W        W77308   5.924  23.111   3.308
13101W        W77309  34.935  16.719  12.346
13102W        W77310  37.081  43.995   0.946
13103W        W77311  25.664   2.758   4.141
13104W        W77312   0.480  27.080  13.395
13105W        W77313  14.608   3.217  12.969
13106W        W77314  33.446  33.414   0.371
13107W        W77315  33.532  19.770  10.940
13108W        W77316  12.194   7.819   0.252
13109W        W77317  31.919  12.757  10.947
13110W        W77318  11.201  27.487   1.406
13111W        W77319  12.752  22.598  13.440
13112W        W77320  21.149   0.441   1.806
13113W        W77321   0.312  42.856  10.985
13114W        W77322  26.995  13.837  11.921
13115W        W77323   5.859  25.474  14.985
13116W        W77324   1.974   9.754   3.291
13117W        W77325  38.839  22.213   0.361
13118W        W77326  37.377  27.970   2.268
13119W        W77327  37.836   8.278   4.219
13120W        W77328  13.240  28.964   3.630
13121W        W77329  40.391  17.143  14.864
13122W        W77330  15.680  40.308   1.328
13123W        W77331  27.109  19.778   1.889
13124W        W77332   4.312  34.975   4.630
13125W        W77333  21.105  13.298  14.421
13126W        W77334  38.524  31.034  14.414
13127W        W77335  44.373  24.211   2.681
13128W        W77336  27.642  35.469   0.431
13129W        W77337  13.107  17.571   4.688
13130W        W77338   5.198  24.179  14.425
13131W        W77339  10.752  24.112  10.451
13132W        W77340   8.372  38.940  13.539
13133W        W77341  15.743  40.511   1.848
13134W        W77342   6.323  40.035  14.291
13135W        W77343  35.065  14.668   3.205
13136W        W77344  38.343   1.351   1.835
13137W        W77345  38.492   4.875  12.541
13138W        W77346   8.678  37.027  12.562
13139W        W77347   9.224  31.406  10.525
13140W        W77348  10.838   7.770   2.298
13141W        W77349  21.520  30.447   1.900
13142W        W77350   6.211  38.546  11.527
13143W        W77351   5.263  33.399  13.533
13144W        W77352  44.357  17.085  11.569
13145W        W77353  34.423  40.802  12.880
13146W        W77354  10.857  37.865  10.503
13147W        W77355  30.986  36.406  14.288
13148W        W77356  37.949  14.682  13.962
13149W        W77357  15.723   6.744   4.354
13150W        W77358  24.682  27.961   0.296
13151W        W77359  41.034  34.118  13.989
13152W        W77360  29.497  23.010   1.278
13153W        W77361   9.680  24.067   0.368
13154W        W77362  18.570  11.140   3.638
13155W        W77363  23.538   6.873   4.625
13156W        W77364  36.972  34.493  14.862
13157W        W77365  37.440  33.048   2.184
13158W        W77366  29.925  31.468  10.410
13159W        W77367  34.069  33.066  14.500
13160W        W77368   1.483  13.155   0.346
13161W        W77369  25.632  18.072   1.338
13162W        W77370   6.697  28.041  11.613
13163W        W77371  15.594  36.006  12.906
13164W        W77372  37.416  11.327   1.357
13165W        W77373  15.189  36.980   0.418
13166W        W77374  18.235  36.919   1.818
13167W        W77375  27.598  41.812   4.836
13168W        W77376  14.645  29.026   0.405
13169W        W77377   5.320   0.912   1.256
13170W        W77378  28.557  10.365  13.921
13171W        W77379  44.405  36.590   0.767
13172W        W77380  30.025  34.912  12.832
13173W        W77381  42.471  19.052  12.041
13174W        W77382   7.828  14.290  10.534
13175W        W77383  16.604  11.220   3.206
13176W        W77384   4.736   7.280   0.895
13177W        W77385  14.669  37.968  14.951
13178W        W77386  42.440   5.792   0.857
13179W        W77387  22.709  31.072   2.184
13180W        W77388   5.818  17.183  11.582
13181W        W77389  18.248  31.565   3.833
13182W        W77390  39.388   1.735   0.449
13183W        W77391  35.890  24.156   2.676
13184W        W77392  35.960   9.792  13.529
13185W        W77393  24.051  40.370  10.129
13186W        W77394  41.368  15.135   2.198
13187W        W77395  29.039   4.296   1.752
13188W        W77396  15.325  10.319   3.853
13189W        W77397  31.945  40.479  12.024
13190W        W77398  31.543  14.236  12.936
13191W        W77399  23.546  23.202  14.294
13192W        W77400  23.648  28.514  10.639
13193W        W77401  34.393  31.604   1.775
13194W        W77402   3.397  13.180  13.055
13195W        W77403  28.076   6.266   0.299
13196W        W77404  12.752  25.599  11.411
13197W        W77405  13.239  43.397  14.002
13198W        W77406   6.245  10.291   3.281
13199W        W77407  44.306  27.963   2.414
13200W        W77408   3.812  42.882  10.443
13201W        W77409  36.574  36.570  11.945
13202W        W77410  33.113  38.072   0.305
13203W        W77411  11.184  36.997   2.804
13204W        W77412  29.617  39.007   9.985
13205W        W77413  28.613  44.990   3.237
13206W        W77414  34.927  30.436  13.941
13207W        W77415   3.218  16.105  12.962
13208W        W77416  28.465  26.042   2.853
13209W        W77417  34.584  43.301   4.189
13210W        W77418  25.589  32.569  13.793
13211W        W77419  30.504  12.846  11.011
13212W        W77420  28.673  18.130   2.900
13213W        W77421  31.068  27.477  11.017
13214W        W77422  14.186  13.187  12.845
13215W        W77423  19.652  17.304   2.798
13216W        W77424  42.376  38.377   4.658
13217W        W77425  17.110  16.664  13.400
13218W        W77426  43.314  13.178   2.702
13219W        W77427  12.728  10.753   4.332
13220W        W77428   9.274  16.681   1.760
13221W        W77429  21.703   1.390  11.599
13222W        W77430   7.360  16.160   0.850
13223W        W77431  33.453  11.310   4.706
13224W        W77432  27.460  44.972   0.327
13225W        W77433  38.428   6.729  13.896
13226W        W77434  28.550   7.771   3.268
13227W        W77435  19.740  41.382   3.750
13228W        W77436   8.690   0.791   1.732
13229W        W77437  34.404  13.214  10.502
13230W        W77438   7.834  27.961   0.453
13231W        W77439  28.949   1.463  12.858
13232W        W77440  17.198   2.390  14.919
13233W        W77441  15.809  32.942   4.801
13234W        W77442  39.423  42.965  10.417
13235W        W77443  12.678  24.483   1.423
13236W        W77444  20.577  13.291  12.544
13237W        W77445  14.291  16.611   0.443
13238W        W77446  21.105  32.625   3.810
13239W        W77447  42.296   3.780  13.957
13240W        W77448  23.667  23.132  13.423
13241W        W77449  20.071  39.355   4.821
13242W        W77450   8.878  12.228   0.894
13243W        W77451  39.386  19.618   3.798
13244W        W77452  13.764  38.056  13.504
13245W        W77453  38.343   8.357   1.244
13246W        W77454   9.175  25.079  14.389
13247W        W77455  22.163   4.282   4.282
13248W        W77456   5.214  21.027  14.339
13249W        W77457  34.531  37.835   0.320
13250W        W77458   5.399   9.264  13.051
13251W        W77459  36.969   7.842  11.975
13252W        W77460  37.558  36.937  14.944
13253W        W77461  32.488  42.019  10.946
13254W        W77462  39.943   0.302   1.306
13255W        W77463  38.875  26.206   0.868
13256W        W77464  37.430   9.874  13.394
13257W        W77465   8.799  27.950   0.331
13258W        W77466  16.575   3.732   2.782
13259W        W77467  13.832  42.522  13.541
13260W        W77468  38.560   9.343  11.424
13261W        W77469  33.484  12.630   5.128
13262W        W77470  12.621  10.162  12.823
13263W        W77471   8.270   5.310  11.045
13264W        W77472   3.218  28.484  14.868
13265W        W77473  27.544  38.554   0.729
13266W        W77474  10.152  40.529   2.773
13267W        W77475  27.067  34.560  12.401
13268W        W77476  31.046   0.466  14.835
13269W        W77477  35.079   9.677  12.501
13270W        W77478  19.722  31.911   3.182
13271W        W77479  35.006   6.376  13.317
13272W        W77480  21.551  36.405   3.717
13273W        W77481  27.588  38.562   1.449
13274W        W77482  33.993  43.993   3.709
13275W        W77483  34.097  41.797  13.998
13276W        W77484   0.945  36.960   4.647
13277W        W77485  42.472   5.775  13.530
13278W        W77486   9.234  21.599  11.927
13279W        W77487   5.282  15.290  10.473
13280W        W77488  26.965  26.700  10.084
13281W        W77489  44.304  21.648   4.613
13282W        W77490  19.667   5.870  11.595
13283W        W77491  21.589  31.516   3.680
13284W        W77492  21.085   9.334   2.252
13285W        W77493  13.227  28.595  14.277
13286W        W77494  21.165  22.604   3.239
13287W        W77495  10.664  39.854  14.952
13288W        W77496  31.993   1.430  11.544
13289W        W77497  41.954  29.448  11.116
13290W        W77498  35.363   9.230   2.859
13291W        W77499  27.489   0.858   4.192
13292W        W77500  21.241  14.706   4.316
13293W        W77501  39.956  32.528  13.454
13294W        W77502  18.261  33.577  11.576
13295W        W77503  41.387  30.112  13.039
13296W        W77504  18.271  27.616  11.506
13297W        W77505  33.097  31.098  14.979
13298W        W77506  21.570  15.729   0.460
13299W        W77507  43.819  15.793  13.522
13300W        W77508  44.835  17.147  14.789
13301W        W77509  27.503  38.468  14.494
13302W        W77510  14.297  41.892   2.204
13303W        W77511  26.609   3.450  11.045
13304W        W77512   6.387  32.076   1.851
13305W        W77513   9.651  44.973   0.403
13306W        W77514  18.162  14.629  14.320
13307W        W77515  42.804  25.208   0.435
13308W        W77516  15.602  24.659   2.818
13309W        W77517  41.296  23.500   2.731
13310W        W77518  34.505  27.977  12.979
13311W        W77519   3.400  26.961  14.451
13312W        W77520   5.271  29.118  14.810
13313W        W77521   8.296  21.189   2.212
13314W        W77522   6.295  34.508  14.851
13315W        W77523  27.148  30.953   3.760
13316W        W77524   2.273   8.762  13.798
13317W        W77525  15.723  41.301  12.089
13318W        W77526   1.457   4.773  11.010
13319W        W77527  37.573  36.538   4.266
13320W        W77528  37.989  34.079  13.499
13321W        W77529  21.668   3.746   4.684
13322W        W77530  25.506  16.097   2.673
13323W        W77531   1.756   0.397   3.730
13324W        W77532   8.163  24.687   0.814
13325W        W77533  23.717  22.192   1.414
13326W        W77534  37.420   9.864   4.635
13327W        W77535  41.872   2.761   1.915
13328W        W77536  13.755  33.063  10.432
13329W        W77537   6.815  12.229   2.407
13330W        W77538   4.942   5.292  12.438
13331W        W77539  34.883  36.421   1.267
13332W        W77540  29.964  13.648   4.828
13333W        W77541  12.340  44.278  13.874
13334W        W77542  35.422  33.981  11.106
13335W        W77543  39.840  17.261  11.460
13336W        W77544  30.125   9.839  13.930
13337W        W77545   4.329  17.688  11.969
13338W        W77546  12.130  38.914   0.828
13339W        W77547  36.979  29.141   4.167
13340W        W77548   4.706  16.146  10.962
13341W        W77549  28.168  12.791   2.858
13342W        W77550  34.552   2.296   1.233
13343W        W77551  18.590  33.504  13.981
13344W        W77552  11.849  41.434  11.105
13345W        W77553  17.159   4.438   2.385
13346W        W77554  35.567  25.092   1.929
13347W        W77555  16.698  17.773   3.632
13348W        W77556  28.119  34.086  11.027
13349W        W77557   2.368  17.263   1.902
13350W        W77558  38.023  28.136  12.572
13351W        W77559  40.880  24.589   3.151
13352W        W77560   0.979   5.307  14.827
13353W        W77561  12.815  30.531   0.356
13354W        W77562  18.605  31.014   2.881
13355W        W77563   4.306  24.712  10.629
13356W        W77564  37.946  44.432  11.085
13357W        W77565  10.798  34.947  13.844
13358W        W77566   9.798  41.359   2.231
13359W        W77567  21.220   7.688   1.303
13360W        W77568  19.069  10.382  12.828
13361W        W77569  14.136  19.118  14.504
13362W        W77570  23.220  37.881   4.290
13363W        W77571  27.079  39.401   2.822
13364W        W77572  34.501  31.471  11.023
13365W        W77573  40.499  31.912   2.275
13366W        W77574  26.122  41.493  12.032
13367W        W77575   7.891  31.150   4.771
13368W        W77576  22.081  30.033  11.909
13369W        W77577  16.713  28.183  11.063
13370W        W77578  21.142  42.781  14.010
13371W        W77579  36.358  13.123   2.867
13372W        W77580  31.896  23.533  10.061
13373W        W77581  20.108  26.457   2.782
13374W        W77582  37.406   9.358  13.897
13375W        W77583  34.935  18.125   3.774
13376W        W77584  21.746  16.713   3.181
13377W        W77585  25.098  33.578   1.798
13378W        W77586  16.095  21.188  14.858
13379W        W77587  22.031  34.936   4.773
13380W        W77588  13.226  33.454   2.838
13381W        W77589   9.807  12.712  11.475
13382W        W77590  28.592  28.041   2.186
13383W        W77591  25.642  33.516   2.317
13384W        W77592  43.385   7.701  10.482
13385W        W77593  16.127  43.953   1.793
13386W        W77594  24.669  42.460  12.870
13387W        W77595  32.426  44.797   1.446
13388W        W77596  41.313  25.478  13.391
13389W        W77597   7.385   8.669  14.416
13390W        W77598   5.868   6.224  14.329
13391W        W77599  44.001  19.193  13.425
13392W        W77600  15.620  20.199   0.824
13393W        W77601  20.082  28.586   3.839
13394W        W77602   4.305  11.865   4.670
13395W        W77603  27.960  22.715   4.760
13396W        W77604  42.957   9.849   0.252
13397W        W77605  10.747  11.176  10.611
13398W        W77606  30.104  31.154  12.928
13399W        W77607  24.087  30.043   0.480
13400W        W77608  19.122   3.308   3.317
13401W        W77609  19.569  34.382  14.962
13402W        W77610  42.519  40.810   0.254
13403W        W77611  13.600  40.948  10.480
13404W        W77612   3.857   4.372   4.632
13405W        W77613  17.145  41.346  11.957
13406W        W77614   2.452  40.433  12.997
13407W        W77615  16.645  43.844  13.047
13408W        W77616  10.649  34.021  10.937
13409W        W77617  14.134  17.152   4.304
13410W        W77618  28.056  30.517   4.621
13411W        W77619  31.132  12.170  13.942
13412W        W77620  43.309  42.831   4.650
13413W        W77621  20.263  26.003  14.018
13414W        W77622  27.066  27.451  10.436
13415W        W77623  18.285  32.496   1.711
13416W        W77624  37.841  37.087   3.704
13417W        W77625  23.021  34.506   4.317
13418W        W77626  11.348  42.492   1.887
13419W        W77627  25.970  34.516  11.443
13420W        W77628  21.694  13.801   0.794
13421W        W77629  34.493  30.128  11.954
13422W        W77630  43.817  25.077  11.521
13423W        W77631  35.900  13.764  14.475
13424W        W77632  23.496  15.143   2.214
13425W        W77633  44.487  19.647   3.345
13426W        W77634   6.240  33.427   3.178
13427W        W77635  13.313  11.644  13.307
13428W        W77636  24.672  26.052  12.898
13429W        W77637  33.968  37.402  14.891
13430W        W77638   6.784  23.079  13.006
13431W        W77639  18.283  23.644   2.285
13432W        W77640  27.672  20.061  13.452
13433W        W77641  11.340  21.746   2.840
13434W        W77642   7.213  20.163   0.457
13435W        W77643  35.097   7.861  10.939
13436W        W77644  44.902  20.076  13.900
13437W        W77645  24.554  35.591  11.507
13438W        W77646   8.209  14.722  13.542
13439W        W77647  17.612  42.969  11.908
13440W        W77648   6.284   3.734  12.349
13441W        W77649  25.188  15.778   0.484
13442W        W77650   6.201  43.366  12.346
13443W        W77651  23.069   1.311   0.834
13444W        W77652   8.874  17.183  13.058
13445W        W77653  23.695  12.313   3.818
13446W        W77654  20.245  34.388  14.465
13447W        W77655   7.678  24.162  10.919
13448W        W77656  44.408  21.548  10.414
13449W        W77657  20.625  20.112   1.250
13450W        W77658  31.942  10.734  14.918
13451W        W77659  22.713  13.117  10.426
13452W        W77660   1.732  16.267  12.930
13453W        W77661  26.688   7.866  13.933
13454W        W77662  10.305  26.026  13.063
13455W        W77663  33.405  24.610   0.398
13456W        W77664  41.391  41.477   1.387
13457W        W77665  11.693  25.681   1.422
13458W        W77666  11.207  27.074   1.358
13459W        W77667  42.819  28.952  11.117
13460W        W77668  23.517  18.148   1.741
13461W        W77669  17.183  19.231  14.376
13462W        W77670  17.728  10.272   1.415
13463W        W77671   9.666  24.153   4.185
13464W        W77672  27.640  12.832   0.402
13465W        W77673  17.565  12.236  13.933
13466W        W77674  14.112  30.962   5.315
13467W        W77675  23.020  35.980  11.588
13468W        W77676  28.004  40.859   3.203
13469W        W77677  39.460  21.168   1.391
13470W        W77678   9.816  10.146  14.777
13471W        W77679  38.393  14.319   3.200
13472W        W77680  30.474  26.656  12.518
13473W        W77681  43.802   1.822  12.853
13474W        W77682  29.165  40.454   4.634
13475W        W77683  17.115   4.319  14.017
13476W        W77684  32.107  12.732  10.492
13477W        W77685  31.016  42.016  13.370
13478W        W77686  36.087  14.301   0.330
13479W        W77687  28.954  10.284   1.375
13480W        W77688  15.265  30.511   2.237
13481W        W77689   4.737  23.720   2.226
13482W        W77690   5.706  22.099   0.452
13483W        W77691  43.502  20.593   2.337
13484W        W77692  26.175  23.489   0.791
13485W        W77693  21.108  33.928  14.781
13486W        W77694  25.186  10.816   0.756
13487W        W77695  34.587  26.571   2.378
13488W        W77696  44.862   6.752  14.935
13489W        W77697   2.357  40.510  12.381
13490W        W77698  17.177   5.427  13.800
13491W        W77699   7.261  15.698  10.497
13492W        W77700  17.122  37.381  11.006
13493W        W77701  43.794  41.349   3.365
13494W        W77702  39.332  27.156  14.825
13495W        W77703  17.777  10.209   4.743
13496W        W77704   8.319   6.739  12.012
13497W        W77705  27.039  32.013  11.127
13498W        W77706  31.079  17.592   5.101
13499W        W77707  27.625  43.291   4.779
13500W        W77708   7.674  29.937   1.237
13501W        W77709   0.780  37.555   5.116
13502W        W77710  11.156   5.891   2.249
13503W        W77711  17.230  17.262   4.249
13504W        W77712  21.021  26.000   2.828
13505W        W77713   5.745  13.834  12.380
13506W        W77714  17.617  40.539   1.829
13507W        W77715   3.886  34.900   3.723
13508W        W77716  42.446   1.342   2.282
13509W        W77717   5.846  42.847   2.741
13510W        W77718  30.977  40.022  11.966
13511W        W77719  42.807   7.246   1.827
13512W        W77720  24.062  25.974  13.519
13513W        W77721   8.740  16.101   1.273
13514W        W77722  44.487  36.966   9.946
13515W        W77723  11.729  16.649  14.359
13516W        W77724  21.706  36.433  12.093
13517W        W77725  42.026  44.797  10.436
13518W        W77726  38.467  37.388  12.419
13519W        W77727   7.730  22.132   1.419
13520W        W77728  20.652  29.626  14.887
13521W        W77729   1.971  40.938  11.500
13522W        W77730  38.061  29.424  12.951
13523W        W77731  21.262  22.514   5.194
13524W        W77732  25.157  32.409   1.722
13525W        W77733  11.682  37.487  10.131
13526W        W77734  16.096  24.569   1.916
13527W        W77735  37.549   5.243  12.534
13528W        W77736   3.390  17.271   2.305
13529W        W77737  22.203   9.807   2.790
13530W        W77738  43.812  18.733  14.302
13531W        W77739  10.217   5.691   0.440
13532W        W77740  14.821  32.051  12.360
13533W        W77741  34.425  24.686  14.765
13534W        W77742  38.939  13.806   3.350
13535W        W77743   3.801  37.908   3.816
13536W        W77744  28.937  25.182  14.924
13537W        W77745  42.414  38.048  13.308
13538W        W77746  30.140  14.144   1.227
13539W        W77747  12.643  37.580  13.485
13540W        W77748  11.239  16.276   4.803
13541W        W77749  29.155  27.958   2.259
13542W        W77750   5.689   8.319  11.984
13543W        W77751   7.677   8.270   2.741
13544W        W77752  29.602  19.047  14.325
13545W        W77753  16.072   3.458   1.347
13546W        W77754  18.190  30.620  12.051
13547W        W77755  29.508   4.434  12.570
13548W        W77756  40.959   1.430   4.224
13549W        W77757  28.034  10.835   2.663
13550W        W77758  18.149  11.629  10.635
13551W        W77759  13.651  14.660   1.357
13552W        W77760   4.350  13.633   2.185
13553W        W77761  29.988  17.730   0.335
13554W        W77762  33.069  14.633   4.268
13555W        W77763  31.078  18.655  13.923
13556W        W77764  12.806  34.483  12.930
13557W        W77765  36.493   0.263   2.391
13558W        W77766  14.162  35.453   3.214
13559W        W77767   6.309  26.073  14.770
13560W        W77768  18.199   4.789   1.264
13561W        W77769   1.848   6.904  10.538
13562W        W77770  39.351  19.055  11.424
13563W        W77771   3.724  35.015  10.573
13564W        W77772  39.370  33.467   4.713
13565W        W77773  20.116  36.387  10.607
13566W        W77774  42.442  24.627  14.340
13567W        W77775   5.265  33.623  11.890
13568W        W77776  25.652  27.556   1.930
13569W        W77777  38.882  39.446  13.021
13570W        W77778  12.321  27.191  10.407
13571W        W77779   7.332  30.580   0.919
13572W        W77780  43.943  35.431   0.730
13573W        W77781  26.041  35.864  12.933
13574W        W77782   1.837  10.263   3.770
13575W        W77783  28.514  28.997   4.240
13576W        W77784  39.060  13.784   1.832
13577W        W77785  28.985  29.435  11.492
13578W        W77786  14.739  23.534  10.061
13579W        W77787  19.213  42.328   4.290
13580W        W77788   9.841  41.427   1.379
13581W        W77789  11.763  33.098  10.406
13582W        W77790   5.823  41.835   0.346
13583W        W77791  15.621  37.082  13.309
13584W        W77792  42.521  38.519  13.854
13585W        W77793  34.958  35.101   4.726
13586W        W77794  28.509   7.714   0.861
13587W        W77795  19.554  44.334  12.939
13588W        W77796  22.246  38.049   3.340
13589W        W77797  14.209  22.639   2.378
13590W        W77798  12.731  20.116   2.869
13591W        W77799  14.734   8.840  14.322
13592W        W77800  19.561  10.179  11.066
13593W        W77801  20.243  37.841   2.888
13594W        W77802  13.771  22.155   3.348
13595W        W77803  18.123  12.681   4.800
13596W        W77804   0.815   4.807   2.779
13597W        W77805   5.911  34.057   0.302
13598W        W77806   7.298  13.824  13.063
13599W        W77807  34.927  14.283   1.777
13600W        W77808  26.583  18.076  13.536
13601W        W77809  18.611  18.115   5.223
13602W        W77810  40.045   5.754  12.848
13603W        W77811  27.491  43.919  13.902
13604W        W77812  24.001  28.545  10.573
13605W        W77813  39.045  38.424   4.256
13606W        W77814  10.323  28.934   0.962
13607W        W77815  21.164  24.185   1.447
13608W        W77816  24.200  40.312   3.376
13609W        W77817  29.933   0.455   2.407
13610W        W77818  44.434  44.377  14.414
13611W        W77819   3.716   3.391  11.085
13612W        W77820  33.898  32.980   4.618
13613W        W77821  43.859  31.951  12.532
13614W        W77822  15.789  24.093  11.483
13615W        W77823   3.884   8.278   2.208
13616W        W77824  18.103  22.156   3.703
13617W        W77825  10.248  43.002  10.112
13618W        W77826  11.293   2.412   4.319
13619W        W77827  17.793  14.800  12.065
13620W        W77828   3.914  40.467   3.836
13621W        W77829  18.208   5.733   2.348
13622W        W77830   6.378  38.074  13.795
13623W        W77831  16.584  13.204  11.114
13624W        W77832  32.946  30.621  13.528
13625W        W77833  12.845  22.539   5.138
13626W        W77834   1.746  16.313   2.812
13627W        W77835   2.757  33.945   2.846
13628W        W77836   3.329  23.508   3.648
13629W        W77837  22.502  24.487   0.916
13630W        W77838   9.324  17.212   2.262
13631W        W77839  10.729  35.396   3.343
13632W        W77840  13.721   4.328  13.014
13633W        W77841  11.255  28.947  14.924
13634W        W77842  24.657  22.572   3.260
13635W        W77843  33.481  10.712  14.332
13636W        W77844  14.799   5.800   3.248
13637W        W77845  33.477  14.806   5.212
13638W        W77846  27.104  17.111   3.296
13639W        W77847  42.918  12.715   4.598
13640W        W77848  31.471  36.450  12.514
13641W        W77849  19.096  34.059   0.805
13642W        W77850  26.147  29.606  11.442
13643W        W77851  38.026  31.037   1.284
13644W        W77852  43.351  40.800  10.973
13645W        W77853   5.770   6.916   4.716
13646W        W77854  41.873  17.794  14.427
13647W        W77855  37.028  41.385   0.917
13648W        W77856  43.489  22.718  11.885
13649W        W77857  31.942   0.313  14.389
13650W        W77858   3.849   4.411  13.480
13651W        W77859  27.081  14.826  14.868
13652W        W77860  11.860   2.779  14.299
13653W        W77861   4.716   4.422   2.191
13654W        W77862   2.802  29.591   2.847
13655W        W77863  18.261  27.079  11.011
13656W        W77864  15.146  33.457   9.935
13657W        W77865  27.634  32.545   3.659
13658W        W77866  24.054  11.347   0.312
13659W        W77867   4.882  43.979   1.809
13660W        W77868  40.925  11.273   0.883
13661W        W77869  10.339  43.410  11.069
13662W        W77870  13.169  36.879   1.792
13663W        W77871  41.443  24.578   3.188
13664W        W77872  35.447  42.491  13.360
13665W        W77873  28.588  22.135  12.437
13666W        W77874  23.727   1.766   1.370
13667W        W77875  39.392   4.913  12.012
13668W        W77876   2.433   5.905   2.227
13669W        W77877  22.218   0.390   0.360
13670W        W77878   0.429  22.633  12.503
13671W        W77879  37.972   6.390   3.719
13672W        W77880   8.384  22.540   2.672
13673W        W77881  28.942   3.871  14.996
13674W        W77882  40.323  14.288   1.816
13675W        W77883   5.252  43.453  13.330
13676W        W77884  36.028  16.725  11.121
13677W        W77885  32.078   2.904  11.380
13678W        W77886  20.718  22.074  11.471
13679W        W77887  43.810  21.574   4.670
13680W        W77888  28.078  36.073  13.348
13681W        W77889  22.018   3.741   1.369
13682W        W77890   8.743  32.459   0.748
13683W        W77891  23.230   9.348   2.780
13684W        W77892   4.930  42.834  14.859
13685W        W77893  30.461  44.853   2.395
13686W        W77894   6.190   1.752  10.939
13687W        W77895  26.591  12.644  14.831
13688W        W77896  19.537   9.374  11.076
13689W        W77897   1.240   5.242  10.150
13690W        W77898  11.661   2.785   0.434
13691W        W77899  28.572  36.468   0.957
13692W        W77900  17.781  28.632   3.644
13693W        W77901  29.041   0.396  14.016
13694W        W77902   6.339  26.694   1.741
13695W        W77903  20.639  25.647  11.447
13696W        W77904   5.390  11.150   0.778
13697W        W77905  37.460  38.931   1.371
13698W        W77906  12.635  30.530  12.825
13699W        W77907   6.183  39.819  11.378
13700W        W77908  41.434   0.303  12.046
13701W        W77909  21.134  27.468  14.865
13702W        W77910  21.157   4.432   0.817
13703W        W77911  27.456  32.042   4.338
13704W        W77912  25.981   6.923   4.678
13705W        W77913  14.208   4.724  14.765
13706W        W77914  41.292  32.555   3.191
13707W        W77915  11.726  23.587   2.807
13708W        W77916  13.786  18.069  13.015
13709W        W77917  32.520  15.791   3.777
13710W        W77918  39.978   7.415  13.805
13711W        W77919  34.521  17.201   3.747
13712W        W77920  16.213  15.142   2.748
13713W        W77921   6.796  32.439   2.830
13714W        W77922   8.379  12.190  10.146
13715W        W77923  34.405  10.291   2.890
13716W        W77924  34.080  34.027   2.711
13717W        W77925  22.550   6.886   5.265
13718W        W77926  41.861   1.964   1.866
13719W        W77927  13.606  16.075   4.669
13720W        W77928  35.989   4.804   0.324
13721W        W77929  24.033  18.068  12.470
13722W        W77930  30.423   9.272  13.336
13723W        W77931  16.162  16.739   2.806
13724W        W77932  37.524  24.627   3.204
13725W        W77933  40.822  24.484  14.842
13726W        W77934  26.465  12.743   3.337
13727W        W77935  32.605  12.301   3.292
13728W        W77936  28.023  43.298  11.979
13729W        W77937   4.342  44.949   3.310
13730W        W77938  28.129   7.714   4.734
13731W        W77939  34.470   0.273   1.379
13732W        W77940  27.195  42.830  13.462
13733W        W77941  11.258  19.283   3.228
13734W        W77942   4.887  42.865   3.314
13735W        W77943  36.572  16.164   2.752
13736W        W77944  29.580   9.165   4.635
13737W        W77945  36.885  36.083  14.281
13738W        W77946  23.594  11.261   1.868
13739W        W77947  36.863  18.276  14.890
13740W        W77948   8.395  28.594  14.793
13741W        W77949  28.644  14.751   2.783
13742W        W77950  33.383   6.713  11.555
13743W        W77951  14.610  17.621  10.971
13744W        W77952  34.516  13.216   0.458
13745W        W77953   3.355  35.363  10.420
13746W        W77954  17.712  14.138   4.838
13747W        W77955  38.054  37.041  10.405
13748W        W77956   1.316  43.355   3.646
13749W        W77957  23.577  29.470  12.921
13750W        W77958  29.553  37.898  14.482
13751W        W77959  17.784  29.535   0.895
13752W        W77960   5.757  25.711   4.809
13753W        W77961   3.758  44.912   3.199
13754W        W77962  16.812  34.592   0.766
13755W        W77963  42.013  10.226  13.848
13756W        W77964   7.880  44.328   4.731
13757W        W77965  27.035  25.517  14.025
13758W        W77966  21.621  27.068   1.214
13759W        W77967  23.132  29.959  10.972
13760W        W77968  36.517  34.470   1.811
13761W        W77969  31.567   6.389  11.964
13762W        W77970  13.213  36.430  11.451
13763W        W77971  15.600  24.548  13.062
13764W        W77972  40.338  24.009   3.818
13765W        W77973   7.177  29.559   4.242
13766W        W77974  12.811  40.856   3.787
13767W        W77975  42.979  26.513   2.753
13768W        W77976   8.862   7.378   3.768
13769W        W77977  24.623  41.292  12.977
13770W        W77978  32.121  28.975   2.351
13771W        W77979  11.679   0.986   4.151
13772W        W77980  40.409   4.900   4.218
13773W        W77981   2.806   0.976   1.743
13774W        W77982   1.253  32.079   3.693
13775W        W77983   2.454  36.856  14.985
13776W        W77984  29.940  22.210   1.809
13777W        W77985   5.730  33.054  13.037
13778W        W77986  34.387  17.681  14.803
13779W        W77987   3.381  32.428   0.846
13780W        W77988  21.640   3.953   0.397
13781W        W77989  11.202  13.207   1.393
13782W        W77990   4.912  25.038   0.784
13783W        W77991  37.405  19.275  14.320
13784W        W77992   8.234  40.549   4.617
13785W        W77993  29.102  31.590   2.838
13786W        W77994  18.197  18.204  10.602
13787W        W77995   4.292  35.868  11.009
13788W        W77996  35.026  36.039  14.427
13789W        W77997  42.347  39.332   0.421
13790W        W77998  40.996  23.631   1.379
13791W        W77999  25.529  26.000  10.959
13792W        W78000  23.719  18.289  14.935
13793W        W78001  37.409  20.731   2.183
13794W        W78002  32.992  33.570  11.472
13795W        W78003  20.759   0.298  13.968
13796W        W78004  37.848  10.380   1.888
13797W        W78005  30.159   7.395  14.298
13798W        W78006  29.480  33.004  12.518
13799W        W78007  27.082   4.432  13.520
13800W        W78008   4.840   4.921   5.228
13801W        W78009  44.755  20.157   4.352
13802W        W78010  44.911   6.721  11.030
13803W        W78011   0.483   3.928  11.123
13804W        W78012   9.879  19.043  10.610
13805W        W78013  43.394   2.326   5.286
13806W        W78014   3.390  31.603   2.291
13807W        W78015  11.635  29.488   4.779
13808W        W78016  24.115  13.741  12.416
13809W        W78017  13.791  26.636  11.581
13810W        W78018  36.368  41.914  11.945
13811W        W78019  40.460  29.060  12.482
13812W        W78020  38.373  37.932  11.494
13813W        W78021  20.623  38.568   1.443
13814W        W78022  35.044  17.099   0.779
13815W        W78023  19.592  10.175   4.134
13816W        W78024  26.994  44.969  12.447
13817W        W78025  20.246  13.748   2.343
13818W        W78026  25.666  31.608   0.287
13819W        W78027  38.347  14.124  11.064
13820W        W78028   1.958   1.794   2.316
13821W        W78029   8.657  42.414   0.459
13822W        W78030  30.438  31.146  12.543
13823W        W78031  27.170  24.656   3.291
13824W        W78032  38.456  17.261  11.449
13825W        W78033  21.105  43.424   2.896
13826W        W78034  40.431  43.269  14.287
13827W        W78035  15.683  39.514  14.836
13828W        W78036  39.048  28.590   2.267
13829W        W78037  44.894  16.803  13.393
13830W        W78038   3.450  32.497   3.348
13831W        W78039  23.150  13.262  13.884
13832W        W78040  32.620  39.873  13.464
13833W        W78041  35.066  11.776   1.422
13834W        W78042  37.561  38.461  10.936
13835W        W78043  15.198  34.086  13.510
13836W        W78044  24.696   6.282   0.351
13837W        W78045  11.246  23.209  13.866
13838W        W78046   1.453  12.793  12.016
13839W        W78047  35.419  32.569   3.201
13840W        W78048  31.071   5.934   0.369
13841W        W78049  33.525  32.079  11.379
13842W        W78050  20.199  27.577   2.743
13843W        W78051  22.024  38.407   2.407
13844W        W78052  28.968  37.534  13.997
13845W        W78053   8.838  34.443   2.307
13846W        W78054  41.923  25.623  11.564
13847W        W78055   0.368  36.003   2.823
13848W        W78056  34.547  15.162  11.472
13849W        W78057  16.746  33.474  11.548
13850W        W78058   3.415  19.104   2.312
13851W        W78059   6.206  14.701   0.734
13852W        W78060   5.867  33.075  13.501
13853W        W78061   5.325  35.021  14.491
13854W        W78062  26.966  25.017  10.478
13855W        W78063  31.076   0.324  10.436
13856W        W78064  23.659  18.113  11.862
13857W        W78065   6.370  10.666  10.917
13858W        W78066  27.541  32.117   1.768
13859W        W78067   6.750  34.561   3.688
13860W        W78068  42.986  38.020  14.482
13861W        W78069  21.728   7.335   5.096
13862W        W78070  13.738  20.585   2.235
13863W        W78071  29.572  12.221   4.117
13864W        W78072  29.925  14.131  12.849
13865W        W78073  31.048  43.803   2.366
13866W        W78074  24.191  31.479  10.904
13867W        W78075  28.637  31.559  14.515
13868W        W78076  27.661  24.694  13.427
13869W        W78077  25.508  18.654  14.919
13870W        W78078  30.525  30.617  10.938
13871W        W78079   6.303  12.351   2.738
13872W        W78080  20.690   3.425   0.427
13873W        W78081  41.463  34.433  12.497
13874W        W78082  32.544  21.677  11.043
13875W        W78083  16.749  10.825  13.863
13876W        W78084  37.430  38.917  12.477
13877W        W78085  28.096  16.274  14.835
13878W        W78086  11.653  31.914   3.156
13879W        W78087  44.392  39.939  14.004
13880W        W78088  13.169  10.224  10.008
13881W        W78089  22.096  10.251   1.285
13882W        W78090   8.263   6.779  14.766
13883W        W78091  37.531  40.436   4.276
13884W        W78092   5.263   9.190  13.412
13885W        W78093  37.562  40.396   1.315
13886W        W78094  30.600   8.719   1.703
13887W        W78095   5.903   9.818  14.494
13888W        W78096  44.992  42.456   3.761
13889W        W78097   6.828  13.322   1.425
13890W        W78098  14.293  24.134   2.181
13891W        W78099   5.770  41.910  13.490
13892W        W78100  43.485  28.013   0.271
13893W        W78101   1.924  31.576   5.317
13894W        W78102  34.093  41.316   3.146
13895W        W78103  18.750  21.240  12.503
13896W        W78104   5.332  31.561   0.439
13897W        W78105  41.449  38.968   3.802
13898W        W78106   4.319  22.577  11.490
13899W        W78107   3.873  41.883  10.628
13900W        W78108  17.103  43.003   9.953
13901W        W78109  26.094  17.081   3.762
13902W        W78110  23.574  28.629  13.331
13903W        W78111  25.484   5.422  13.046
13904W        W78112  32.478  10.181   4.294
13905W        W78113   1.437  21.261  12.377
13906W        W78114  21.119  35.937   4.734
13907W        W78115  43.384  19.251  14.801
13908W        W78116   1.764  18.167  11.971
13909W        W78117  39.845  29.512   1.833
13910W        W78118  36.447  29.545  13.537
13911W        W78119   6.814  36.038   2.860
13912W        W78120  30.499  18.266  13.011
13913W        W78121  16.805  36.422   1.270
13914W        W78122  18.160   0.347   1.821
13915W        W78123  20.036  19.258   4.238
13916W        W78124  30.107  39.870   0.384
13917W        W78125  41.302  15.212  12.944
13918W        W78126   8.703  23.112   0.336
13919W        W78127  27.569  22.221  10.541
13920W        W78128  12.736  14.240  11.990
13921W        W78129   2.887   5.328   0.407
13922W        W78130  28.122   6.918   4.763
13923W        W78131  42.341  18.590   2.740
13924W        W78132   9.254  28.586   1.406
13925W        W78133  28.521  26.976  13.378
13926W        W78134  18.229  44.781  14.886
13927W        W78135  10.766  40.530  11.469
13928W        W78136  16.688  17.651  12.023
13929W        W78137  15.666  41.873   5.296
13930W        W78138  18.660  29.625  13.023
13931W        W78139  43.440  38.352   3.781
13932W        W78140  38.056   0.438   2.822
13933W        W78141  33.571  33.538  14.449
13934W        W78142   9.297  12.309   4.330
13935W        W78143   4.769   1.762   2.682
13936W        W78144  16.627  10.700   2.191
13937W        W78145  41.037  40.964   2.851
13938W        W78146   9.808  10.823   4.300
13939W        W78147   7.848  29.645   4.830
13940W        W78148   7.293   1.785  14.835
13941W        W78149   5.868  28.059  12.022
13942W        W78150  37.011  44.823  11.580
13943W        W78151  28.544  38.999  13.934
13944W        W78152  10.256  31.556  13.950
13945W        W78153  14.107  32.405  13.883
13946W        W78154  34.924  36.876   2.718
13947W        W78155  17.114  41.521   0.890
13948W        W78156  27.579  14.149  14.919
13949W        W78157  26.669   6.425   1.406
13950W        W78158  20.726  33.473   0.789
13951W        W78159  15.766   9.655   3.257
13952W        W78160  29.954  12.286   1.770
13953W        W78161  14.775   0.420  13.999
13954W        W78162  12.614   3.793  11.983
13955W        W78163  20.239  18.699  12.350
13956W        W78164  25.714  29.991  14.490
13957W        W78165  29.934  35.490   4.695
13958W        W78166  41.516   5.720  12.925
13959W        W78167  13.785  33.385  14.276
13960W        W78168   5.927  10.879   2.386
13961W        W78169  13.142  13.296   0.254
13962W        W78170  19.763  44.433   4.282
13963W        W78171  26.535  40.035  10.427
13964W        W78172  13.195  30.103  10.472
13965W        W78173   2.409  32.020  14.786
13966W        W78174  41.497  10.331  14.377
13967W        W78175  15.256   5.811   1.320
13968W        W78176   1.961  13.276   0.774
13969W        W78177  21.094  36.960   1.419
13970W        W78178  38.363  26.185   2.811
13971W        W78179  11.328   7.277   1.353
13972W        W78180  36.909  21.574  14.021
13973W        W78181  23.710  41.930   4.188
13974W        W78182  10.365  44.399   4.298
13975W        W78183   7.688   6.327   0.403
13976W        W78184  16.645  12.183  13.891
13977W        W78185   4.933  17.298   4.177
13978W        W78186   4.358  38.376   1.838
13979W        W78187   9.255   5.199  11.935
13980W        W78188   4.388  36.967   4.603
13981W        W78189   0.321  34.909  13.954
13982W        W78190  33.970  41.456  12.838
13983W        W78191   2.733  11.236  14.985
13984W        W78192   0.443  27.510  14.837
13985W        W78193  24.583  44.290  12.894
13986W        W78194  17.087  32.105  10.597
13987W        W78195   9.248  37.496  12.830
13988W        W78196  18.234  26.507  10.628
13989W        W78197  39.865  26.141  13.843
13990W        W78198  28.539   8.681   1.437
13991W        W78199  42.028  15.702   2.315
13992W        W78200  27.576  16.225  10.972
13993W        W78201  27.571  36.884  11.048
13994W        W78202  25.057  36.040  12.072
13995W        W78203  27.057  10.215  11.381
13996W        W78204   0.959  24.149   4.308
13997W        W78205  23.704  44.363   2.838
13998W        W78206  23.018   3.908  13.804
13999W        W78207  21.108  25.147  13.039
14000W        W78208  21.589   6.194  11.890
14001W        W78209  40.970  27.089  14.318
14002W        W78210  20.220  33.428  10.421
14003W        W78211   4.785  31.589   3.386
14004W        W78212  34.381  35.438  11.548
14005W        W78213   0.355  19.611  14.319
14006W        W78214  33.547  33.061   1.403
14007W        W78215   8.223  14.656   1.324
14008W        W78216   3.223  22.603   0.965
14009W        W78217  17.720  40.900  10.059
14010W        W78218  10.203  31.021   3.695
14011W        W78219   2.384   1.943   2.271
14012W        W78220  10.276   0.851  10.419
14013W        W78221  11.727  17.799  10.587
14014W        W78222  23.117  12.837  11.960
14015W        W78223  27.166  31.516   4.283
14016W        W78224  18.637  13.701  14.915
14017W        W78225   7.790  28.642   1.358
14018W        W78226  25.081  14.747   4.272
14019W        W78227  11.267  24.724  13.543
14020W        W78228  14.825   1.241  14.514
14021W        W78229   4.352  34.407   2.181
14022W        W78230   5.926   7.700  13.318
14023W        W78231  12.192  13.316  13.512
14024W        W78232  42.499  44.880   3.751
14025W        W78233  14.290  11.818   2.379
14026W        W78234   6.731  43.419   2.178
14027W        W78235  16.270  28.992   4.736
14028W        W78236  30.539  27.147  14.884
14029W        W78237  43.323   8.382   4.680
14030W        W78238  21.602  15.294  13.817
14031W        W78239  16.717  34.883   2.417
14032W        W78240   4.435  16.658   4.606
14033W        W78241  32.041   2.366   4.624
14034W        W78242  21.243  14.218  14.943
14035W        W78243   7.770  41.327  11.997
14036W        W78244  27.688   5.723   0.258
14037W        W78245   2.832  26.182  12.397
14038W        W78246  20.146   0.398  10.897
14039W        W78247  24.099  29.585   2.837
14040W        W78248  31.485   5.906  12.052
14041W        W78249  39.907  22.533   0.413
14042W        W78250  38.515  24.185   3.710
14043W        W78251  27.103   9.881   1.428
14044W        W78252  33.491  29.443   4.739
14045W        W78253  16.604  40.366  12.362
14046W        W78254  37.088  14.825   4.731
14047W        W78255   5.208  23.532   4.197
14048W        W78256  38.862  26.165   3.273
14049W        W78257   6.831  19.211  14.500
14050W        W78258  37.359   0.488   1.824
14051W        W78259   6.798  17.235  13.455
14052W        W78260   1.317  26.593  12.873
14053W        W78261  27.650  42.446  12.012
14054W        W78262   1.353  15.207   1.922
14055W        W78263  14.604  19.041   3.173
14056W        W78264   9.346  35.394   0.315
14057W        W78265  36.421  12.633  10.530
14058W        W78266  16.587  17.250   0.414
14059W        W78267  17.289  37.939   4.316
14060W        W78268  25.026   1.399  13.540
14061W        W78269  23.104  18.579  12.895
14062W        W78270  23.708  13.146  11.612
14063W        W78271  13.822  12.176  12.068
14064W        W78272  37.557   3.345   3.300
14065W        W78273   7.219  16.222   2.284
14066W        W78274  43.293   2.229  11.113
14067W        W78275   3.331  23.495  14.301
14068W        W78276  39.056   4.415  13.966
14069W        W78277   9.157  10.767   3.173
14070W        W78278  17.302   8.264   3.255
14071W        W78279  14.759  39.413  13.827
14072W        W78280   0.776  41.515  11.595
14073W        W78281  39.541  33.883  12.006
14074W        W78282  39.983  26.030   0.250
14075W        W78283  26.557  44.755  10.472
14076W        W78284   6.681  41.857   1.214
14077W        W78285  34.079  16.248  14.341
14078W        W78286  22.545   5.827   2.335
14079W        W78287  26.462  15.226   4.331
14080W        W78288  36.960  34.545   2.680
14081W        W78289   0.477  34.003  13.313
14082W        W78290  28.592  18.234   0.257
14083W        W78291  11.821  25.524  10.955
14084W        W78292  32.039  39.370   0.352
14085W        W78293   7.322  38.911   0.437
14086W        W78294  31.917  28.978  10.100
14087W        W78295   2.955  30.513   3.775
14088W        W78296   1.828  43.918  14.020
14089W        W78297  20.181  11.141   4.828
14090W        W78298  25.212  16.242  13.930
14091W        W78299  41.000  29.124   2.343
14092W        W78300   2.311  10.331   0.351
14093W        W78301  34.562  34.998  13.019
14094W        W78302  40.833  19.598   4.117
14095W        W78303  40.395  19.112  11.385
14096W        W78304  37.048  28.489   0.841
14097W        W78305  12.821  37.970   4.270
14098W        W78306   1.418  14.617  14.436
14099W        W78307  22.043  21.577   2.725
14100W        W78308  35.509  39.375   1.814
14101W        W78309  42.453  13.711  12.833
14102W        W78310  30.139  35.039  14.976
14103W        W78311  17.654   5.223   5.179
14104W        W78312   5.224  35.603  12.921
14105W        W78313  11.329  27.042   0.901
14106W        W78314  35.002  16.265  12.019
14107W        W78315   8.161   9.819   1.770
14108W        W78316  26.081  42.794  13.961
14109W        W78317  20.713  13.805  10.448
14110W        W78318  33.562  15.193  13.000
14111W        W78319  35.099  41.847   1.754
14112W        W78320  19.225  42.896  12.501
14113W        W78321  40.929  16.705   4.285
14114W        W78322  32.138  42.282   3.761
14115W        W78323  42.793  26.529  11.895
14116W        W78324   4.902  20.117  11.378
14117W        W78325  14.118   0.430   0.785
14118W        W78326  12.643  16.631   1.857
14119W        W78327  14.612  44.856  12.409
14120W        W78328   6.870  12.674  14.446
14121W        W78329  32.414  44.754  10.936
14122W        W78330  22.026  44.890   3.227
14123W        W78331  10.306  30.164  10.957
14124W        W78332  41.315  38.454  13.342
14125W        W78333  32.088  13.762   1.414
14126W        W78334  37.010   7.181   4.742
14127W        W78335  11.164  24.583  10.529
14128W        W78336  21.517   8.305  10.613
14129W        W78337   5.401  21.085   1.260
14130W        W78338  38.454  24.506  12.372
14131W        W78339   5.368   9.764   3.184
14132W        W78340  34.873  14.656  13.406
14133W        W78341  24.530   4.815  11.610
14134W        W78342   5.273  12.262   4.692
14135W        W78343   0.493  41.031  10.589
14136W        W78344  31.956   3.404   4.305
14137W        W78345  17.248  23.607   2.240
14138W        W78346  27.510  35.581   1.748
14139W        W78347  40.025  11.748   4.188
14140W        W78348   0.471  20.145   4.612
14141W        W78349  43.481  39.364   0.768
14142W        W78350   7.788  21.619   0.253
14143W        W78351  30.025  27.120  13.940
14144W        W78352  21.698  10.299  11.374
14145W        W78353  20.721  15.242   1.404
14146W        W78354   1.392  40.486  11.606
14147W        W78355  44.782  11.221  12.367
14148W        W78356  14.711  20.562   2.286
14149W        W78357  24.209   9.304   1.296
14150W        W78358  34.604  18.584   1.934
14151W        W78359  41.902  16.278   4.144
14152W        W78360   7.409  20.759  14.322
14153W        W78361  22.246   9.351  11.422
14154W        W78362  18.076   9.757   3.665
14155W        W78363  13.717  12.233   1.826
14156W        W78364  38.474  42.793   4.301
14157W        W78365  35.583  24.171   4.602
14158W        W78366  24.113   2.868  13.478
14159W        W78367  43.408  44.428   4.673
14160W        W78368  29.945   6.897  14.437
14161W        W78369   2.837   4.764  11.512
14162W        W78370  30.987  44.963   4.693
14163W        W78371  41.806  24.075   4.666
14164W        W78372  12.210  35.032   0.264
14165W        W78373  10.164  24.596   3.168
14166W        W78374  19.237  22.043   4.277
14167W        W78375  35.938  20.194   4.327
14168W        W78376   2.791  23.736  14.817
14169W        W78377  23.558  24.679   4.676
14170W        W78378  38.845   5.401   3.696
14171W        W78379  31.054  44.356   2.719
14172W        W78380  12.674  32.020  10.600
14173W        W78381  18.096  23.216  10.564
14174W        W78382  39.490  30.639  11.958
14175W        W78383  43.820  37.524  14.452
14176W        W78384  20.669  20.667   1.873
14177W        W78385  30.079  21.242  13.316
14178W        W78386  16.792  27.959  13.821
14179W        W78387  14.679   6.256  10.594
14180W        W78388  23.711  42.468  12.451
14181W        W78389  42.825   0.275   1.416
14182W        W78390  41.891  15.252  10.940
14183W        W78391  44.787  11.245  14.866
14184W        W78392  36.054  28.468   0.835
14185W        W78393  13.301  21.629  11.525
14186W        W78394   4.812  35.908  11.051
14187W        W78395  20.643  32.080   5.169
14188W        W78396  15.135  11.839   4.303
14189W        W78397  26.681   9.259  14.026
14190W        W78398  32.392  12.627   0.259
14191W        W78399   5.293  21.710  14.918
14192W        W78400  41.913  40.811   1.863
14193W        W78401   7.380  34.460  14.865
14194W        W78402  29.918   1.354  14.005
14195W        W78403  38.044  26.700  10.524
14196W        W78404  39.841   7.871  11.589
14197W        W78405   6.744   3.877   0.261
14198W        W78406  42.505   8.693   1.833
14199W        W78407   1.792  40.303  13.895
14200W        W78408  18.553  42.333   2.226
14201W        W78409  35.051  20.732   3.330
14202W        W78410  16.192  20.606  13.025
14203W        W78411  10.162  13.315  14.474
14204W        W78412   6.801   2.956   0.443
14205W        W78413  14.717  38.471  12.430
14206W        W78414  11.252  39.875   3.795
14207W        W78415  41.323  39.387  10.640
14208W        W78416   8.675  36.984  10.576
14209W        W78417   2.798  13.300  13.000
14210W        W78418  36.018  17.124   3.806
14211W        W78419  15.187  20.525   0.958
14212W        W78420   7.186  20.743   4.730
14213W        W78421   2.939  33.508  10.407
14214W        W78422  29.117   8.218   1.222
14215W        W78423  24.672  44.382  11.870
14216W        W78424   3.401   2.408  14.428
14217W        W78425   4.299   1.310  12.544
14218W        W78426   3.338   4.871  10.643
14219W        W78427  39.815  19.711   4.318
14220W        W78428  34.443  15.107   1.378
14221W        W78429   3.332   1.450  11.855
14222W        W78430  40.367   5.760  14.011
14223W        W78431   8.818  38.345   2.326
14224W        W78432  32.919   6.686   2.401
14225W        W78433   0.336  38.866   2.371
14226W        W78434   7.222   6.268   1.794
14227W        W78435  39.374  43.442  10.923
14228W        W78436  17.794  24.629   1.212
14229W        W78437  12.264  19.100  10.580
14230W        W78438  28.625  19.613   3.826
14231W        W78439  34.985  35.855   5.271
14232W        W78440   1.450  40.372   3.237
14233W        W78441  25.623   3.244   3.688
14234W        W78442  39.904   8.700   4.640
14235W        W78443  28.609  44.973  13.310
14236W        W78444  36.027  25.177   0.365
14237W        W78445  19.139  26.168  12.986
14238W        W78446  42.913  19.253  11.461
14239W        W78447  43.412  32.091   2.230
14240W        W78448  42.814   2.371   9.622
14241W        W78449  39.005  28.024   9.947
14242W        W78450  23.215  17.662  11.046
14243W        W78451   5.914  35.927  13.488
14244W        W78452  41.794  22.161   4.178
14245W        W78453  38.324  34.502  13.356
14246W        W78454  16.748  25.065   2.673
14247W        W78455  25.993  39.446  13.489
14248W        W78456  15.185  34.028   2.836
14249W        W78457  33.004  16.097  11.437
14250W        W78458  41.960   0.810   9.949
14251W        W78459  11.751   3.388  13.916
14252W        W78460  11.708  21.712   4.294
14253W        W78461  11.724  21.017   3.650
14254W        W78462  16.795  33.995   0.810
14255W        W78463   1.867  41.390  11.416
14256W        W78464  31.946   0.360  10.505
14257W        W78465   3.286  25.635  13.044
14258W        W78466  27.591   2.755   2.874
14259W        W78467  12.850   3.765   1.852
14260W        W78468   6.792  35.543  10.991
14261W        W78469  42.021  34.092  12.945
14262W        W78470  35.023  33.046  12.911
14263W        W78471  42.306  16.622  12.418
14264W        W78472  12.670  31.140  13.911
14265W        W78473   6.409  21.565   2.234
14266W        W78474  11.643  37.523   2.299
14267W        W78475  22.672  22.184  12.405
14268W        W78476  30.967   5.768   4.206
14269W        W78477  30.972  12.629  10.600
14270W        W78478  40.055  44.288   2.816
14271W        W78479   2.845  38.534   4.349
14272W        W78480  18.763   7.850   0.727
14273W        W78481   5.819  32.101  14.896
14274W        W78482  27.581  20.115   2.778
14275W        W78483  43.896  33.046  14.321
14276W        W78484   4.326  41.860   3.359
14277W        W78485  35.102   5.719  11.949
14278W        W78486  44.442   6.294  11.046
14279W        W78487  21.250  44.398  11.885
14280W        W78488  38.443  44.903  14.506
14281W        W78489  31.115  41.493  11.913
14282W        W78490  34.935  33.477   3.272
14283W        W78491  25.484  23.709  14.845
14284W        W78492  33.606   6.845  13.320
14285W        W78493  35.973  29.175  12.044
14286W        W78494   8.830  13.733   0.280
14287W        W78495  14.606  36.092  10.974
14288W        W78496   8.318  21.597  14.032
14289W        W78497  24.017  42.877  12.441
14290W        W78498  42.405   4.899   2.219
14291W        W78499  44.260  31.403  13.502
14292W        W78500  11.848  25.502   4.183
14293W        W78501  39.933  27.038  11.113
14294W        W78502   5.270  30.635  14.933
14295W        W78503  27.148   0.865   1.767
14296W        W78504  24.095   9.700  12.078
14297W        W78505  30.635  22.201  13.380
14298W        W78506  41.401  33.066  13.046
14299W        W78507   7.906  21.545  14.393
14300W        W78508  29.520  32.974  12.890
14301W        W78509  18.258  26.493   0.959
14302W        W78510  15.619  29.120  11.903
14303W        W78511  33.534  43.417   4.267
14304W        W78512  43.460  16.795  14.777
14305W        W78513  24.143  12.233   0.250
14306W        W78514  21.151  39.901  12.031
14307W        W78515  26.090  24.048   0.814
14308W        W78516  36.983  18.716   2.737
14309W        W78517   9.303  18.699  12.086
14310W        W78518   4.360   6.803   0.840
14311W        W78519   4.857  16.583  13.949
14312W        W78520  19.273   8.349  11.445
14313W        W78521   0.417   8.262   1.397
14314W        W78522  20.709  34.923   2.278
14315W        W78523  25.607  42.962  12.069
14316W        W78524  30.089  32.133  11.536
14317W        W78525  11.708  26.018   4.306
14318W        W78526  40.028  18.220  13.447
14319W        W78527   7.181   5.838  14.307
14320W        W78528  27.945  10.307   5.295
14321W        W78529  28.537  19.623   3.250
14322W        W78530  22.664  40.023   0.338
14323W        W78531   2.280  38.362   1.789
14324W        W78532  34.577  20.527   2.882
14325W        W78533  31.043   7.715  10.570
14326W        W78534   2.461  11.339  11.080
14327W        W78535   0.747  43.013   4.743
14328W        W78536  32.600  36.072  14.970
14329W        W78537   3.305  29.554   3.157
14330W        W78538   1.863   8.774  14.889
14331W        W78539  23.041  30.023  14.493
14332W        W78540  15.227  19.069   1.294
14333W        W78541  44.310   6.816  10.556
14334W        W78542   2.851  37.948   4.732
14335W        W78543  38.883  31.626   1.451
14336W        W78544   2.437  31.433   3.796
14337W        W78545  29.657   4.793   0.901
14338W        W78546  44.869  40.960   2.890
14339W        W78547  30.577  15.142  12.028
14340W        W78548  18.692  34.943   1.222
14341W        W78549  44.815  13.254   3.160
14342W        W78550  35.024   2.421  12.355
14343W        W78551  10.184  24.622   2.825
14344W        W78552  30.471  38.049   0.290
14345W        W78553   2.752  11.855   3.853
14346W        W78554  19.127   6.778   2.332
14347W        W78555  42.369  28.493  13.838
14348W        W78556  26.461   6.906   0.914
14349W        W78557  30.006  37.509   2.356
14350W        W78558   3.830  39.999   3.833
14351W        W78559  38.835  21.084   3.686
14352W        W78560  33.875  24.180   3.165
14353W        W78561  21.029  35.948   0.277
14354W        W78562  17.738  32.980   4.757
14355W        W78563  24.154   9.228   4.214
14356W        W78564   2.770  35.404  13.490
14357W        W78565   8.331  17.192   1.214
14358W        W78566  26.637  12.783  10.915
14359W        W78567   3.943  38.064  12.086
14360W        W78568  14.716  18.063  13.541
14361W        W78569  36.886  22.688  13.030
14362W        W78570  24.564  43.947   1.355
14363W        W78571  10.154  28.463  10.546
14364W        W78572  36.907  19.102  12.541
14365W        W78573   6.307  42.456  12.524
14366W        W78574  38.515  13.247   2.322
14367W        W78575   9.160   7.301   4.248
14368W        W78576  43.498  36.949  10.433
14369W        W78577   7.260  15.323  12.069
14370W        W78578  42.998  13.281   1.220
14371W        W78579  30.498  25.156   4.270
14372W        W78580  29.525  42.885  10.621
14373W        W78581  43.490  37.081   4.240
14374W        W78582  21.582  11.279  14.418
14375W        W78583  21.047  17.182  13.485
14376W        W78584   4.773  19.165  10.645
14377W        W78585  32.122  37.947  11.987
14378W        W78586   2.401  28.531   1.925
14379W        W78587  16.752  15.162   2.903
14380W        W78588  20.699  14.194   1.341
14381W        W78589   5.932   1.324   2.342
14382W        W78590  35.560  30.995  11.456
14383W        W78591  17.184   9.251   2.311
14384W        W78592  20.091  40.872  14.500
14385W        W78593  20.146  36.536  10.899
14386W        W78594  33.426  21.570   0.331
14387W        W78595  24.221  19.711  14.338
14388W        W78596  34.891  34.107   4.670
14389W        W78597   5.823  14.206  12.341
14390W        W78598  15.183  36.552   4.832
14391W        W78599  14.694  24.099  11.467
14392W        W78600  25.593  33.623  12.051
14393W        W78601  11.716  38.477   0.254
14394W        W78602  24.008  11.828   3.672
14395W        W78603   5.852   9.231  10.495
14396W        W78604  10.671  20.762   4.153
14397W        W78605  43.480  42.930   3.634
14398W        W78606   6.202   3.257   1.363
14399W        W78607  36.412  27.459   3.646
14400W        W78608   3.765  15.293   4.614
14401W        W78609  40.434  26.052   1.879
14402W        W78610  43.323   0.299   2.665
14403W        W78611  37.556   7.740  12.823
14404W        W78612  38.502  16.101   0.300
14405W        W78613   0.458  17.171  13.830
14406W        W78614  39.012  14.595  13.455
14407W        W78615  12.204   7.332  12.907
14408W        W78616  26.095   0.308  10.408
14409W        W78617  16.096  35.017   0.817
14410W        W78618   8.187  13.798  11.067
14411W        W78619  17.169  21.149   0.753
14412W        W78620  32.578  36.896  14.350
14413W        W78621  38.901  44.423  11.381
14414W        W78622  42.887   4.769   2.867
14415W        W78623   9.168  30.496  10.514
14416W        W78624   8.726  13.254  14.009
14417W        W78625  30.020  37.852  14.825
14418W        W78626   1.884  16.098   1.222
14419W        W78627   4.360  41.508   3.827
14420W        W78628  21.114  36.592   2.342
14421W        W78629  21.625  25.096   1.265
14422W        W78630   1.888  17.589   3.324
14423W        W78631  25.030  11.853  12.989
14424W        W78632  20.232  15.157   5.580
14425W        W78633  44.938   7.799  12.562
14426W        W78634  35.886   4.926  13.519
14427W        W78635  12.664   6.824   3.255
14428W        W78636   3.935  21.639  11.568
14429W        W78637   0.393   0.778  13.056
14430W        W78638  22.652  35.550   1.224
14431W        W78639  20.142  24.605   3.652
14432W        W78640  21.645   7.907  14.775
14433W        W78641   1.842   3.240  11.960
14434W        W78642  11.299  28.532  12.491
14435W        W78643  40.380  26.024  10.514
14436W        W78644  19.160  37.393  13.350
14437W        W78645  18.260  11.203  11.937
14438W        W78646   3.436  15.617  11.039
14439W        W78647  26.089  13.796  12.934
14440W        W78648  35.861  10.253  13.005
14441W        W78649  35.517  32.519  13.916
14442W        W78650  27.655  23.647  11.524
14443W        W78651  22.195  24.994   3.698
14444W        W78652  11.135   1.887  10.607
14445W        W78653  32.013  44.774   3.368
14446W        W78654  40.994  15.228  12.345
14447W        W78655  29.626   6.754  14.391
14448W        W78656  24.667   4.285  12.924
14449W        W78657   3.734  16.653  10.595
14450W        W78658  32.968  15.241  12.087
14451W        W78659  26.062  36.094   2.240
14452W        W78660   0.779   0.742   0.441
14453W        W78661  13.312  18.101  12.975
14454W        W78662  22.248  41.953   4.127
14455W        W78663  34.398  10.354   4.641
14456W        W78664   2.325   1.424  13.031
14457W        W78665   9.371  42.318   1.369
14458W        W78666  18.215   2.773   1.880
14459W        W78667  10.682  21.115  10.156
14460W        W78668   4.884  43.817  14.847
14461W        W78669  35.530  35.572   0.364
14462W        W78670  11.362  42.479   1.361
14463W        W78671   2.458  43.878  14.926
14464W        W78672  22.208  22.053   0.288
14465W        W78673  34.961  35.471  11.040
14466W        W78674  29.473   4.814   3.270
14467W        W78675   3.913  26.049   4.636
14468W        W78676  34.051  43.274  13.331
14469W        W78677  31.014  18.642   3.846
14470W        W78678  30.083  14.712  13.358
14471W        W78679   1.854   7.735   2.791
14472W        W78680   2.857   2.919  11.528
14473W        W78681   7.779  11.725   3.700
14474W        W78682  25.187   8.805  11.509
14475W        W78683  24.076   3.724  14.293
14476W        W78684  35.859  15.270   3.192
14477W        W78685  32.035   5.438   3.193
14478W        W78686  43.814   3.225  10.569
14479W        W78687  25.013  16.620   4.778
14480W        W78688  41.945  17.111   1.777
14481W        W78689   3.316  31.137  14.431
14482W        W78690  11.347   9.651  13.493
14483W        W78691  37.076   0.314  10.991
14484W        W78692  10.345   2.434  13.901
14485W        W78693   9.248  39.505   1.836
14486W        W78694  17.109   8.871   0.839
14487W        W78695  26.562  35.990  12.845
14488W        W78696  40.440   5.804   4.285
14489W        W78697  13.729  42.416   4.715
14490W        W78698   0.756   1.900  12.072
14491W        W78699  44.938  21.203   9.928
14492W        W78700   3.244   2.368   4.319
14493W        W78701  26.046  13.231  10.431
14494W        W78702  12.801  38.913  10.900
14495W        W78703  41.396  32.118   4.818
14496W        W78704   1.259  36.387   3.833
14497W        W78705  29.985  13.258  14.309
14498W        W78706  39.396   7.847  13.545
14499W        W78707  33.031  26.500   4.799
14500W        W78708  20.059  22.547  14.926
14501W        W78709  32.078  31.954  14.889
14502W        W78710   8.206   3.452  12.435
14503W        W78711  43.974  10.381   2.395
14504W        W78712   3.451  42.329  13.476
14505W        W78713  23.166  22.585  11.064
14506W        W78714   1.479  12.266   0.769
14507W        W78715   0.977  33.436   1.281
14508W        W78716   3.218   9.724   4.321
14509W        W78717   0.963  37.079  10.541
14510W        W78718   8.231  23.674  11.444
14511W        W78719  40.945  42.874  10.489
14512W        W78720  14.228  39.532  13.466
14513W        W78721   9.866  11.854  13.892
14514W        W78722   8.782  39.822   3.701
14515W        W78723  19.579  31.512  13.332
14516W        W78724  23.152  33.565   1.239
14517W        W78725  35.066  40.049  12.470
14518W        W78726   4.241   9.190  10.890
14519W        W78727  30.974  31.433   0.958
14520W        W78728  34.446  25.629  14.973
14521W        W78729   3.233  16.632  12.501
14522W        W78730  11.278  22.210  14.450
14523W        W78731  43.479  26.079  12.549
14524W        W78732  32.565  14.603   2.288
14525W        W78733  13.649  21.538   2.389
14526W        W78734  23.013  31.112   4.248
14527W        W78735   7.789  31.472  14.502
14528W        W78736  39.877   1.761  10.096
14529W        W78737   6.816   3.332   2.826
14530W        W78738   8.680  13.796  13.890
14531W        W78739  32.902   9.191   3.226
14532W        W78740  34.567  17.167  10.559
14533W        W78741  35.452  27.161  14.358
14534W        W78742  36.513   6.348  14.914
14535W        W78743  40.443   4.940  11.000
14536W        W78744   6.310  42.318   3.734
14537W        W78745  16.237  31.004   2.344
14538W        W78746  16.257  30.039  11.530
14539W        W78747  20.158  12.129  11.984
14540W        W78748  25.060  14.143  13.377
14541W        W78749  20.750  19.541   3.167
14542W        W78750  32.482  33.486   4.327
14543W        W78751  19.120  24.981   1.273
14544W        W78752  19.114  31.944  11.859
14545W        W78753  43.326  24.652  10.452
14546W        W78754   8.859  29.129   0.345
14547W        W78755  10.215   7.365  11.926
14548W        W78756  31.401  24.604   1.836
14549W        W78757  25.166   3.258  14.352
14550W        W78758  42.324  40.914  14.464
14551W        W78759  23.653  25.190   0.860
14552W        W78760  33.875  15.716  10.013
14553W        W78761   5.261  27.471   2.715
14554W        W78762  31.544  37.911  13.820
14555W        W78763  39.519   8.322   2.893
14556W        W78764  13.828  35.084  12.012
14557W        W78765  20.600  16.194   0.434
14558W        W78766  15.233  35.519  14.823
14559W        W78767  26.061  24.132   4.212
14560W        W78768   8.895  36.053   3.765
14561W        W78769  42.869  31.647  10.545
14562W        W78770  37.901  11.658   4.638
14563W        W78771   9.382   2.471  11.952
14564W        W78772  15.659  23.092   0.454
14565W        W78773  14.324  21.557  11.482
14566W        W78774   5.892  22.039  13.975
14567W        W78775  35.513  32.404  13.318
14568W        W78776  38.981   4.320  14.299
14569W        W78777  22.184  20.586  12.852
14570W        W78778  35.577  11.671   2.829
14571W        W78779  42.958  14.296  14.879
14572W        W78780   4.810  39.925   1.322
14573W        W78781  37.033  27.668   2.224
14574W        W78782  24.198  39.418  13.338
14575W        W78783  27.984  31.619   4.245
14576W        W78784   0.896  39.415   1.783
14577W        W78785  43.423  10.788  13.046
14578W        W78786  44.358   6.787  14.812
14579W        W78787  15.657   6.805  14.347
14580W        W78788  29.167  24.114   3.838
14581W        W78789  25.048   8.223   2.231
14582W        W78790  13.767  25.214   3.237
14583W        W78791   9.195  34.385  14.405
14584W        W78792   8.326   1.356  11.956
14585W        W78793  34.928  44.935   1.797
14586W        W78794  10.271  36.079  11.509
14587W        W78795   7.756  28.510   0.434
14588W        W78796  12.329  11.742   1.724
14589W        W78797  21.565  44.451   0.340
14590W        W78798   6.804   2.898  11.010
14591W        W78799  14.591  22.501  12.368
14592W        W78800  35.930   1.902  12.357
14593W        W78801   9.744   9.164   0.467
14594W        W78802  12.697  27.098  14.343
14595W        W78803  25.698  35.602   0.242
14596W        W78804   1.940  28.495   2.223
14597W        W78805  35.033  32.916  11.024
14598W        W78806   5.399  15.599  13.526
14599W        W78807  28.557  27.491  13.546
14600W        W78808  29.086  26.460   2.195
14601W        W78809  18.725  11.637   5.157
14602W        W78810  25.594   7.683  12.440
14603W        W78811  25.111  15.221   2.869
14604W        W78812  34.418   7.208  10.446
14605W        W78813   6.301  27.176   4.812
14606W        W78814   5.323  31.457  12.352
14607W        W78815  32.634   2.279   2.203
14608W        W78816  17.147   4.249  11.994
14609W        W78817  29.470  13.250  12.981
14610W        W78818  22.595   5.704   4.791
14611W        W78819   9.234  42.910  12.410
14612W        W78820   8.700  22.069   4.779
14613W        W78821  25.500  11.670   1.350
14614W        W78822  18.597  30.967   1.769
14615W        W78823  23.041  26.458   1.331
14616W        W78824  22.166  29.048   1.774
14617W        W78825  14.249  43.445  14.922
14618W        W78826   6.817  15.675   9.999
14619W        W78827  20.208  43.876   4.825
14620W        W78828  34.924  25.658  14.816
14621W        W78829  12.839   6.749  12.904
14622W        W78830   9.773   4.747  14.443
14623W        W78831  15.296  41.369   1.746
14624W        W78832   8.334  11.194  13.521
14625W        W78833  24.038  40.361   1.875
14626W        W78834  35.034  19.278   0.276
14627W        W78835   6.414  29.112  10.019
14628W        W78836   9.787  28.435   4.786
14629W        W78837  27.487  23.159  12.930
14630W        W78838  36.924  19.076  13.919
14631W        W78839  37.963   1.868   0.803
14632W        W78840  14.783   0.269   2.280
14633W        W78841  25.074  23.181   4.225
14634W        W78842   9.350  22.635   2.800
14635W        W78843  22.512   8.896   1.251
14636W        W78844   5.732   6.767   0.416
14637W        W78845  13.838  34.509   3.197
14638W        W78846   5.432  36.569  14.989
14639W        W78847  40.348  16.811   0.941
14640W        W78848  30.973  33.926  13.951
14641W        W78849  40.997  10.809   0.821
14642W        W78850  39.016  26.565   2.851
14643W        W78851  35.378  36.851   4.353
14644W        W78852   7.757   9.170  13.394
14645W        W78853  11.701  18.600   0.949
14646W        W78854  43.963  34.120   2.361
14647W        W78855  21.723  12.669  11.493
14648W        W78856  34.923  32.556   4.211
14649W        W78857  13.256  31.490  13.466
14650W        W78858  12.690  33.104   4.737
14651W        W78859  15.117   9.663  14.460
14652W        W78860  26.631  18.117   1.899
14653W        W78861   2.293  16.581  13.506
14654W        W78862  10.665   6.822  12.825
14655W        W78863  10.319   3.434   4.690
14656W        W78864   0.399  13.308   3.839
14657W        W78865  34.891  20.235   1.444
14658W        W78866  22.069  24.194   2.714
14659W        W78867  38.329  42.437  12.513
14660W        W78868  23.207  16.184   1.445
14661W        W78869  24.017  23.538  11.536
14662W        W78870   4.347  32.026   3.279
14663W        W78871  16.798  39.439   0.737
14664W        W78872  17.597  17.592   3.729
14665W        W78873  31.627  39.048  10.971
14666W        W78874  13.625  33.907   0.242
14667W        W78875  14.314  18.293  11.521
14668W        W78876  26.685  42.016  11.072
14669W        W78877   8.262   9.859   0.476
14670W        W78878  38.398   3.416   0.260
14671W        W78879  13.125  17.264   0.444
14672W        W78880   2.283  24.170   1.811
14673W        W78881  36.462  26.165  13.867
14674W        W78882  12.310  37.375  12.081
14675W        W78883  42.357  27.084   2.757
14676W        W78884  14.609  25.516  11.010
14677W        W78885  40.499  14.161  12.982
14678W        W78886  39.457   8.860  13.489
14679W        W78887  33.914  20.749  11.575
14680W        W78888  40.946   7.900   0.788
14681W        W78889  33.572  22.078  10.962
14682W        W78890  30.547   1.881   2.378
14683W        W78891  26.689  29.000   1.758
14684W        W78892  38.429  42.842  12.473
14685W        W78893  21.739   4.810   1.902
14686W        W78894  42.896  20.601  12.086
14687W        W78895  20.168  28.485  13.006
14688W        W78896  22.072  21.208  13.838
14689W        W78897  17.615  24.201   1.874
14690W        W78898  24.600  23.216  10.586
14691W        W78899  41.957  18.703  13.932
14692W        W78900   5.206  34.569   3.149
14693W        W78901   1.833   2.456  13.983
14694W        W78902  38.423  15.795   0.288
14695W        W78903  38.868  32.620  14.449
14696W        W78904  12.201  12.635  11.980
14697W        W78905  22.712  10.196   4.349
14698W        W78906   7.388  18.156  14.374
14699W        W78907   5.804  30.458  12.961
14700W        W78908  40.439  34.007  14.360
14701W        W78909  19.092  36.476   4.716
14702W        W78910  30.593  21.194   1.919
14703W        W78911  10.699   5.336  12.565
14704W        W78912  13.206  30.489   1.831
14705W        W78913  21.256  23.706  11.432
14706W        W78914  35.878  30.090  12.390
14707W        W78915   4.206  20.538  12.573
14708W        W78916   7.726   0.963   3.248
14709W        W78917  29.666  29.455   1.306
14710W        W78918  42.356  14.189   0.474
14711W        W78919   1.739  25.526  13.451
14712W        W78920  41.961  34.029   4.618
14713W        W78921  13.192  25.635   2.399
14714W        W78922   9.205  27.059   3.166
14715W        W78923  26.141  11.798  12.394
14716W        W78924  18.089  38.819   0.326
14717W        W78925   2.832  10.731   0.942
14718W        W78926  28.561   6.846   2.746
14719W        W78927  15.751  17.730   3.836
14720W        W78928  43.356  43.505  13.384
14721W        W78929  36.052  42.814   4.770
14722W        W78930  12.246  34.505  14.828
14723W        W78931  34.047  26.061   4.745
14724W        W78932  28.561  43.395  14.763
14725W        W78933  22.715  32.013  10.438
14726W        W78934  18.197  14.709   1.307
14727W        W78935   9.307   0.824   3.746
14728W        W78936   7.736  18.785  11.587
14729W        W78937  44.364  33.387   4.158
14730W        W78938  41.408  28.652   0.892
14731W        W78939  44.917  16.100  13.464
14732W        W78940  25.479  14.287   2.836
14733W        W78941  30.575  33.052  13.426
14734W        W78942  21.567  28.978  14.395
14735W        W78943  35.477  37.367   4.136
14736W        W78944   8.366  13.810  12.518
14737W        W78945  18.116  36.467   4.142
14738W        W78946  25.184  15.790   3.794
14739W        W78947  44.932  34.534  14.494
14740W        W78948  34.911  23.004   2.256
14741W        W78949  22.623  19.664   4.140
14742W        W78950  34.039   5.341  12.430
14743W        W78951  42.844  12.174  11.882
14744W        W78952   3.777  10.791  12.832
14745W        W78953  20.120  27.038   0.848
14746W        W78954   8.190  10.677   4.261
14747W        W78955   6.873  12.622  11.485
14748W        W78956  28.073  28.476  13.490
14749W        W78957  40.832  23.666  11.472
14750W        W78958   5.863  32.618  13.443
14751W        W78959  16.740   0.986   1.781
14752W        W78960  20.244  32.482  14.872
14753W        W78961  15.717  28.938   0.959
14754W        W78962  33.419   5.433   3.375
14755W        W78963  13.798  11.700   3.727
14756W        W78964   9.886  20.101   0.765
14757W        W78965  30.003  22.723  13.950
14758W        W78966   0.260   7.413   3.808
14759W        W78967  38.056  21.630  14.911
14760W        W78968  30.997  15.824   9.984
14761W        W78969   9.784  12.195   9.609
14762W        W78970  35.423   7.848  13.807
14763W        W78971   3.840  24.499  11.111
14764W        W78972  44.962  40.464   2.203
14765W        W78973   9.235  23.031  13.808
14766W        W78974  22.570   9.260   2.847
14767W        W78975  25.170  31.123   4.147
14768W        W78976  10.173   2.890   1.414
14769W        W78977  38.512  27.008   1.896
14770W        W78978  40.422  22.626   0.828
14771W        W78979  24.706  21.540   1.222
14772W        W78980   3.380  12.354  10.582
14773W        W78981  24.659  13.709   2.676
14774W        W78982  39.901  15.245  13.382
14775W        W78983   8.403  25.099  12.456
14776W        W78984  34.027  24.223   0.758
14777W        W78985  33.595  31.424  14.783
14778W        W78986  20.723  19.597   3.808
14779W        W78987  14.321  43.774   2.288
14780W        W78988   2.462  10.233   3.291
14781W        W78989  36.495  11.335  12.954
14782W        W78990  12.298   7.256  14.465
14783W        W78991  33.971   7.381   3.200
14784W        W78992   8.291  10.354   1.274
14785W        W78993  24.053  23.005  14.805
14786W        W78994  28.141  44.460   3.154
14787W        W78995  38.964  12.854  11.044
14788W        W78996  40.505   5.217  14.974
14789W        W78997  24.056  42.909   1.249
14790W        W78998  26.643  27.122  14.766
14791W        W78999  43.958  24.693  14.510
14792W        W79000  43.311  43.863  10.482
14793W        W79001  22.998   2.241   2.326
14794W        W79002  39.052  28.026   3.810
14795W        W79003  41.901  10.709  14.353
14796W        W79004  34.055  28.129  12.996
14797W        W79005  21.196  19.163  11.010
14798W        W79006  19.634  41.314  14.817
14799W        W79007  13.772  16.123   3.202
14800W        W79008  39.516  29.610  13.529
14801W        W79009  17.782   1.976   2.894
14802W        W79010  33.080  33.420  12.560
14803W        W79011   3.875  34.498   3.805
14804W        W79012  31.120  27.009   0.807
14805W        W79013  29.632  25.137  11.387
14806W        W79014   7.287  36.445   1.747
14807W        W79015  28.165  21.572   3.209
14808W        W79016  27.538  18.707   3.313
14809W        W79017  29.087  36.000   1.388
14810W        W79018   8.392   8.343  11.467
14811W        W79019  34.502  16.604  11.476
14812W        W79020   0.843  22.157   4.783
14813W        W79021  29.647  14.153  13.488
14814W        W79022  34.001  21.043  12.355
14815W        W79023  32.520  15.103   0.850
14816W        W79024  20.626   7.879   2.326
14817W        W79025   8.859  11.694   3.281
14818W        W79026  43.457  13.822  13.029
14819W        W79027  20.536  21.514   3.158
14820W        W79028  42.294  40.044  11.105
14821W        W79029   3.919  14.602   1.439
14822W        W79030  25.698   5.347  13.808
14823W        W79031  36.545  27.615   0.342
14824W        W79032  12.802  28.042   0.352
14825W        W79033  19.557  13.149   2.297
14826W        W79034  42.479  33.557  14.309
14827W        W79035   5.209  10.714   0.912
14828W        W79036   8.162  29.981  10.452
14829W        W79037   9.754  35.512  13.818
14830W        W79038  39.381  44.440   1.777
14831W        W79039  10.686  16.167  13.023
14832W        W79040  13.611  14.784  11.029
14833W        W79041   0.454  23.714  14.422
14834W        W79042  14.684  35.067   1.389
14835W        W79043  36.902  14.757  11.944
14836W        W79044   0.348  13.287  10.975
14837W        W79045  17.585  43.782  12.071
14838W        W79046  32.918  34.976   3.258
14839W        W79047   7.375  33.588  12.932
14840W        W79048  33.088   8.298   3.351
14841W        W79049  25.477  13.132   0.832
14842W        W79050  17.749  31.566   4.672
14843W        W79051  11.698  32.483   0.414
14844W        W79052   5.412  39.337  13.818
14845W        W79053   5.925   9.708   3.828
14846W        W79054  29.928  36.947  10.898
14847W        W79055  44.886  23.016  11.607
14848W        W79056  35.592  32.558  12.074
14849W        W79057  41.406  11.864   3.234
14850W        W79058  11.197  26.562   5.316
14851W        W79059   8.846  19.734   1.890
14852W        W79060  28.021  24.604   0.961
14853W        W79061  22.691  13.740  14.297
14854W        W79062  15.160  32.028  13.838
14855W        W79063  11.271  27.575   0.917
14856W        W79064  36.055   1.732   3.365
14857W        W79065   6.868  31.077   0.907
14858W        W79066  33.429  28.018   3.360
14859W        W79067  23.097  26.685   0.320
14860W        W79068  31.464   8.346   1.877
14861W        W79069  32.493   3.859  13.479
14862W        W79070  38.366  12.309   0.939
14863W        W79071  37.867  41.423   5.160
14864W        W79072  29.435  14.100  11.887
14865W        W79073  14.715  34.958  14.809
14866W        W79074  43.945  19.684  10.642
14867W        W79075  19.065  10.223   2.320
14868W        W79076   8.194  38.452  10.453
14869W        W79077  34.466  40.347   0.306
14870W        W79078  39.901  38.502   1.278
14871W        W79079   0.381  41.370  13.051
14872W        W79080  31.580  34.970  13.804
14873W        W79081   9.647  16.304  11.468
14874W        W79082  26.177   4.214   3.213
14875W        W79083   4.904   9.174  13.398
14876W        W79084  31.896  16.312   0.912
14877W        W79085  11.840  43.364   2.310
14878W        W79086  38.978  16.734   4.303
14879W        W79087  17.262   8.846   4.798
14880W        W79088   4.875  17.665   1.231
14881W        W79089   0.806  29.552  13.369
14882W        W79090  43.863  14.720  11.126
14883W        W79091   0.342   6.254   2.302
14884W        W79092  17.605  19.740  10.634
14885W        W79093  30.465  43.922   3.676
14886W        W79094   7.862  14.109   2.218
14887W        W79095  16.082  27.987  11.515
14888W        W79096  22.719   9.735  10.616
14889W        W79097  42.310  43.419   2.403
14890W        W79098   4.419  30.434  10.526
14891W        W79099   0.742   6.761   2.743
14892W        W79100   0.878  38.499  14.308
14893W        W79101  40.414  21.095  10.951
14894W        W79102  22.133  42.840  13.044
14895W        W79103  35.536  19.131  14.290
14896W        W79104  27.150  35.394   0.767
14897W        W79105  43.922  20.650  11.573
14898W        W79106   4.430  24.037   0.364
14899W        W79107  35.548   0.833   1.337
14900W        W79108   0.836   0.765  12.474
14901W        W79109  25.048  17.654   4.252
14902W        W79110   5.393  30.519   0.916
14903W        W79111   2.785  27.160   1.738
14904W        W79112   2.777  21.712   3.301
14905W        W79113  35.382  28.051  13.939
14906W        W79114   0.826  27.962   4.616
14907W        W79115  30.972   4.794  13.365
14908W        W79116  14.266   8.835   2.336
14909W        W79117  43.376  13.659   1.337
14910W        W79118  24.498  43.815  12.456
14911W        W79119  36.883  13.297   0.915
14912W        W79120  35.969  41.339  14.961
14913W        W79121  26.699  23.512  11.495
14914W        W79122  40.969  21.060   3.316
14915W        W79123  34.441  37.927   3.845
14916W        W79124  17.218  25.502  12.440
14917W        W79125   2.867  33.029   1.882
14918W        W79126  20.152  41.800  13.029
14919W        W79127  15.246  37.379  14.816
14920W        W79128  40.935   9.748  11.938
14921W        W79129  15.578  23.156  14.443
14922W        W79130  10.325  30.921  12.494
14923W        W79131  30.468  29.940   2.292
14924W        W79132   7.253  21.633  11.010
14925W        W79133  10.819  44.831   2.773
14926W        W79134  32.613  24.125  12.038
14927W        W79135   2.299  12.333  12.537
14928W        W79136  26.990   7.889   2.855
14929W        W79137  12.224   1.788   3.364
14930W        W79138  21.149   8.811  13.895
14931W        W79139  19.668  37.031  10.120
14932W        W79140   1.431  35.459   1.395
14933W        W79141  10.159  17.696   4.260
14934W        W79142  35.985   1.337   0.730
14935W        W79143  21.694  16.181   3.810
14936W        W79144  31.025  13.724  11.008
14937W        W79145  10.673  36.088   5.226
14938W        W79146  37.976  34.066   1.785
14939W        W79147   5.239  14.095   3.324
14940W        W79148  30.572  40.996   2.342
14941W        W79149  10.857  12.687   2.353
14942W        W79150  40.390  11.750  14.988
14943W        W79151  11.317  43.276   0.259
14944W        W79152  32.130  40.993  12.016
14945W        W79153   3.275   9.256   3.341
14946W        W79154   6.685  33.908  11.463
14947W        W79155   1.902  31.423  10.507
14948W        W79156  37.344  10.819  14.277
14949W        W79157  44.849  17.199  11.420
14950W        W79158  40.844  40.404  10.976
14951W        W79159   5.344   4.233   1.401
14952W        W79160   0.937  10.336   0.859
14953W        W79161  30.503  23.107  13.034
14954W        W79162  40.977  38.870   0.820
14955W        W79163  11.656  13.235  13.004
14956W        W79164  40.512  21.596   2.281
14957W        W79165  25.675  10.319   2.350
14958W        W79166  17.115  16.793   0.781
14959W        W79167   6.833   9.290   0.918
14960W        W79168  40.030  37.905  12.879
14961W        W79169  12.148  11.637   5.173
14962W        W79170  41.367  30.642   4.123
14963W        W79171  30.528   4.816   1.811
14964W        W79172  38.836  28.052  11.070
14965W        W79173   5.359  37.919   2.770
14966W        W79174  36.010  41.952   1.226
14967W        W79175  31.054  24.627   1.740
14968W        W79176   6.358  25.089  11.037
14969W        W79177  41.941  21.613   2.284
14970W        W79178   5.422  38.019   3.830
14971W        W79179  37.015   7.704   3.165
14972W        W79180  30.941  35.456  14.492
14973W        W79181  26.533   4.888  14.393
14974W        W79182  20.220  32.962  13.806
14975W        W79183  39.485  24.174   1.448
14976W        W79184  42.401  13.648  10.999
14977W        W79185  10.683  41.526  12.055
14978W        W79186  17.748   4.243  12.875
14979W        W79187   6.282  39.046  13.880
14980W        W79188  35.544  30.523   2.834
14981W        W79189  23.698   0.327  11.397
14982W        W79190  31.002  18.164  14.320
14983W        W79191   5.749  18.185   0.302
14984W        W79192   9.852   7.229   1.388
14985W        W79193  31.514  33.130   3.186
14986W        W79194   4.761  21.686   0.845
14987W        W79195  38.485  14.321  13.791
14988W        W79196   6.293   1.375   0.777
14989W        W79197  11.168  27.487  14.275
14990W        W79198  40.864  13.793  11.076
14991W        W79199  23.678  34.601   0.478
14992W        W79200  32.484  15.090   2.783
14993W        W79201  16.781  26.541   0.355
14994W        W79202  32.908  36.041  13.984
14995W        W79203   3.306  31.542  12.506
14996W        W79204  24.080  42.937  12.975
14997W        W79205  36.476   0.284  12.348
14998W        W79206   0.335  34.449   3.681
14999W        W79207  28.633  10.323   0.847
15000W        W79208  19.656  26.135   4.282
15001W        W79209  21.598  25.515  11.005
15002W        W79210  27.670  41.827   0.374
15003W        W79211  22.600  24.002   2.228
15004W        W79212  15.616  31.937  13.323
15005W        W79213  31.048  41.293  12.346
15006W        W79214   0.949  17.641  12.450
15007W        W79215  27.114  10.679  11.379
15008W        W79216   3.774   1.470   2.762
15009W        W79217  30.157  17.752   3.808
15010W        W79218   3.745  12.833  12.527
15011W        W79219  28.957  28.451  13.310
15012W        W79220  14.647  25.966   4.310
15013W        W79221  12.630  35.962   4.651
15014W        W79222   4.796   0.979   2.293
15015W        W79223   6.785   7.672   2.299
15016W        W79224  24.182  37.557   2.296
15017W        W79225   0.831  11.863  10.928
15018W        W79226   1.366  21.559  12.027
15019W        W79227   8.243  15.619  11.887
15020W        W79228  20.148  14.205  13.307
15021W        W79229  16.768  36.028  14.790
15022W        W79230  42.514  13.235   4.761
15023W        W79231  28.625  31.067   4.753
15024W        W79232  12.296  31.519  12.962
15025W        W79233   2.766  36.901  12.909
15026W        W79234  37.973   2.310  10.008
15027W        W79235  36.571  10.236  14.364
15028W        W79236  17.161  24.197   2.403
15029W        W79237  37.415  44.379  14.961
15030W        W79238  33.393   4.298   1.819
15031W        W79239  41.909  43.904  13.508
15032W        W79240   9.742  27.626   2.734
15033W        W79241  23.534  31.926  12.387
15034W        W79242  28.529  25.206   2.401
15035W        W79243  44.890  32.000   0.805
15036W        W79244   1.736  43.339  13.052
15037W        W79245  15.726  31.431  12.386
15038W        W79246  33.432   7.690  11.090
15039W        W79247  44.864  38.464   2.879
15040W        W79248  13.231   6.890   1.357
15041W        W79249  43.855  14.747   3.857
15042W        W79250  28.528  28.156   4.674
15043W        W79251  41.419  24.687   0.836
15044W        W79252  23.527  42.874  13.849
15045W        W79253  43.840  11.631   0.759
15046W        W79254  41.999  10.748   0.432
15047W        W79255  30.143  13.230   3.793
15048W        W79256   2.350  37.047   4.693
15049W        W79257  27.138  23.999   0.417
15050W        W79258  29.444  12.770   3.835
15051W        W79259  37.027  28.504  12.954
15052W        W79260  36.481  22.140   4.115
15053W        W79261   0.402   3.861  12.859
15054W        W79262  17.073  21.221  14.510
15055W        W79263  28.667  41.020  11.032
15056W        W79264   1.780  26.532   5.308
15057W        W79265  27.168  22.600  14.801
15058W        W79266  44.438   3.779   4.233
15059W        W79267  20.198  35.485  12.892
15060W        W79268  13.299  14.724   3.374
15061W        W79269  16.198  29.076  13.903
15062W        W79270  28.976  41.801   1.246
15063W        W79271  29.134   3.409  12.944
15064W        W79272  17.272  25.973   1.238
15065W        W79273  27.067  27.942  14.353
15066W        W79274  41.308  32.933   4.339
15067W        W79275   1.786  15.674  12.861
15068W        W79276   6.249   8.665   3.834
15069W        W79277   8.371  18.125   3.374
15070W        W79278  10.293   4.827  12.039
15071W        W79279  20.723  32.535   3.676
15072W        W79280  11.819   8.295  13.545
15073W        W79281  43.954  21.067  11.567
15074W        W79282  12.352  36.485   0.462
15075W        W79283  33.435  40.896   3.854
15076W        W79284   6.192  22.737  12.344
15077W        W79285  11.155  25.583  12.976
15078W        W79286  26.686   0.256   1.440
15079W        W79287  15.199  30.070   1.871
15080W        W79288  31.988  12.327   1.906
15081W        W79289   0.490   3.300  13.516
15082W        W79290   0.414  30.107   0.793
15083W        W79291  28.571  14.198   0.888
15084W        W79292   9.696  34.390  14.992
15085W        W79293  24.668  34.449  14.895
15086W        W79294  28.160  16.588   5.655
15087W        W79295  34.015  31.039  10.958
15088W        W79296   7.394  42.511   4.793
15089W        W79297  15.678   7.769  10.938
15090W        W79298  27.500   9.717  10.558
15091W        W79299  12.673  40.478   5.291
15092W        W79300  14.136   0.805  12.972
15093W        W79301  40.474  25.117   5.312
15094W        W79302  24.174  41.835  10.579
15095W        W79303  38.826  30.636  11.871
15096W        W79304  24.091  33.452  12.897
15097W        W79305   0.788  31.647   0.965
15098W        W79306  21.126   8.736   0.954
15099W        W79307   3.870   2.846  14.494
15100W        W79308  37.460  28.554  13.840
15101W        W79309  24.700  37.358  12.912
15102W        W79310  42.030  42.411   3.752
15103W        W79311  22.135   7.357  14.341
15104W        W79312  29.997  25.599  12.003
15105W        W79313  21.538  37.568   3.678
15106W        W79314  16.631  11.654   4.181
15107W        W79315  18.629  30.653  13.868
15108W        W79316  30.467  15.181  14.825
15109W        W79317  17.625  20.193   1.882
15110W        W79318  27.942  19.623  14.974
15111W        W79319   5.752  13.245  12.537
15112W        W79320  10.784  33.403   3.631
15113W        W79321  26.557  28.540  13.058
15114W        W79322  25.105  34.979   5.081
15115W        W79323   0.923  19.683   3.325
15116W        W79324   1.872   3.815  12.542
15117W        W79325  35.963  33.123  11.495
15118W        W79326  16.224   5.410   2.356
15119W        W79327  43.809  15.162   0.810
15120W        W79328   6.794  13.694   4.738
15121W        W79329   8.701  15.104   3.670
15122W        W79330  30.012   6.397   4.157
15123W        W79331  32.082  18.068   4.660
15124W        W79332  38.843  23.594  13.008
15125W        W79333  42.484   1.820  10.067
15126W        W79334  10.792  20.613   0.385
15127W        W79335  34.614   8.384   1.909
15128W        W79336  20.219  37.065   1.872
15129W        W79337  20.204  14.096   1.224
15130W        W79338   9.270  29.092  14.943
15131W        W79339  11.364   6.690   1.706
15132W        W79340  41.389  32.107  10.926
15133W        W79341  36.541  34.106   4.261
15134W        W79342  17.771  31.517  11.450
15135W        W79343  34.592  17.188   4.157
15136W        W79344  22.703  42.317   4.198
15137W        W79345  25.620  19.145  12.074
15138W        W79346  29.113  34.429   0.754
15139W        W79347  11.764   7.181   3.212
15140W        W79348  16.683  31.638   1.387
15141W        W79349  25.640  26.180   2.877
15142W        W79350   8.758   1.402   1.267
15143W        W79351  35.414   1.388  14.504
15144W        W79352  12.289  33.510  12.053
15145W        W79353  36.854  32.507  13.928
15146W        W79354  34.023  15.130  11.383
15147W        W79355  39.524  37.068   1.867
15148W        W79356   8.809  35.968   0.941
15149W        W79357   9.745  13.206  14.031
15150W        W79358   9.703  42.315   3.180
15151W        W79359  39.424  28.605  12.515
15152W        W79360  22.224   9.228   3.854
15153W        W79361  29.456  35.595   1.311
15154W        W79362  39.391  32.986  14.031
15155W        W79363  19.131   0.950   1.878
15156W        W79364  42.878  44.800  11.119
15157W        W79365  23.145  21.107  13.038
15158W        W79366  14.151  34.568  11.046
15159W        W79367  35.004  27.499  11.544
15160W        W79368  12.174   1.323   4.823
15161W        W79369  38.025  20.073  13.961
15162W        W79370  40.452   5.323  12.460
15163W        W79371   5.717  30.656  11.391
15164W        W79372   8.343  28.669  13.018
15165W        W79373   8.867   1.421   4.240
15166W        W79374  25.016   4.288   1.741
15167W        W79375  43.951  41.908  14.430
15168W        W79376  10.772  25.046  12.394
15169W        W79377  36.980  12.854   0.475
15170W        W79378  11.137  26.530  10.618
15171W        W79379  27.566   9.256  14.023
15172W        W79380  13.789  14.310   1.395
15173W        W79381  17.667  37.846  11.033
15174W        W79382  40.311  10.871   3.825
15175W        W79383  40.437   4.925   3.349
15176W        W79384  20.148  17.122   1.772
15177W        W79385   9.648  30.109   1.395
15178W        W79386  26.638  19.534   9.972
15179W        W79387  11.214  25.695  11.502
15180W        W79388  32.119  36.543   0.420
15181W        W79389  31.990  27.638   1.772
15182W        W79390  19.039  39.516  13.904
15183W        W79391  25.477  43.809  11.927
15184W        W79392  12.745  40.850  14.466
15185W        W79393  27.644   9.392  13.427
15186W        W79394  38.470  23.520  10.634
15187W        W79395  43.816  26.992  10.457
15188W        W79396   0.356  39.394  10.437
15189W        W79397   6.746  33.122   3.331
15190W        W79398   4.263  42.475   1.779
15191W        W79399  22.024  34.392   1.813
15192W        W79400  33.124  43.987   2.711
15193W        W79401  11.739  44.388  11.496
15194W        W79402  18.279  27.132  14.385
15195W        W79403   0.408  42.927  11.470
15196W        W79404  29.618  20.200   3.709
15197W        W79405  42.342   8.778   3.831
15198W        W79406   4.770  30.580   3.153
15199W        W79407  36.576  18.621  14.877
15200W        W79408  16.751  13.623  13.321
15201W        W79409   9.648  12.754   3.300
15202W        W79410  38.536  25.541  13.430
15203W        W79411  15.744  42.296   1.786
15204W        W79412  38.452  27.114   2.664
15205W        W79413   7.189  17.111  12.549
15206W        W79414  40.409   0.859  10.157
15207W        W79415   9.368  20.754   1.379
15208W        W79416  36.009   1.374  10.508
15209W        W79417   4.388   6.270  12.836
15210W        W79418  13.348  33.879  14.516
15211W        W79419  18.244  31.094   0.292
15212W        W79420  31.009  42.952   2.196
15213W        W79421  38.414  42.503   3.815
15214W        W79422  18.583   0.948  13.967
15215W        W79423  17.658  44.374  11.085
15216W        W79424  20.253  28.158   1.770
15217W        W79425  26.959  35.990  11.504
15218W        W79426  43.896  25.147  13.939
15219W        W79427  20.270  12.733   2.690
15220W        W79428  40.341  35.594   4.648
15221W        W79429  23.565  31.466   0.461
15222W        W79430  11.665  25.537  13.456
15223W        W79431   2.872   7.271  12.517
15224W        W79432  21.544   2.906   2.304
15225W        W79433  22.734  44.761  14.914
15226W        W79434  15.580  24.494  13.422
15227W        W79435  37.530  19.061   0.879
15228W        W79436  15.728  25.038  12.879
15229W        W79437  10.647  38.890   4.747
15230W        W79438  32.054  44.897  14.466
15231W        W79439  30.142  17.662   3.358
15232W        W79440  28.131  23.029  11.589
15233W        W79441  35.878  10.359   2.362
15234W        W79442  21.725  36.032   4.194
15235W        W79443   6.759  26.649  12.443
15236W        W79444  24.588   3.321  11.035
15237W        W79445  44.854  43.346  14.786
15238W        W79446   4.886   0.762  12.424
15239W        W79447  43.362  34.930   2.767
15240W        W79448   3.455  33.988  11.977
15241W        W79449  34.382   3.400  10.417
15242W        W79450  40.853  18.554  10.999
15243W        W79451  19.257  24.617  13.544
15244W        W79452   0.912   5.397  11.532
15245W        W79453  35.438  42.319   2.415
15246W        W79454  27.547  27.678  12.883
15247W        W79455   7.727   4.903   4.792
15248W        W79456   5.860  25.124   1.697
15249W        W79457   2.800  16.113  12.866
15250W        W79458  27.144  34.951  10.574
15251W        W79459  16.781  19.637  12.041
15252W        W79460   2.401  21.177  14.341
15253W        W79461  22.549  26.018   4.260
15254W        W79462  11.286  26.617   1.894
15255W        W79463  42.027  25.689   2.263
15256W        W79464  38.882  22.550   0.283
15257W        W79465  40.548  18.783   4.819
15258W        W79466  44.453   7.382  14.316
15259W        W79467  21.563  40.536  14.805
15260W        W79468  43.880   7.324   1.266
15261W        W79469  30.544  35.886  14.477
15262W        W79470  20.612  10.754   3.845
15263W        W79471  11.853   4.311  13.986
15264W        W79472  21.153   6.887   3.787
15265W        W79473  29.511   4.856  11.913
15266W        W79474  42.518  39.363  12.928
15267W        W79475  26.073  31.406  14.448
15268W        W79476  27.543  21.075  12.360
15269W        W79477  44.772  10.338  13.003
15270W        W79478   0.468  42.523   1.863
15271W        W79479   6.278  36.852  14.808
15272W        W79480  10.857  30.650   4.758
15273W        W79481  33.520  34.110   2.803
15274W        W79482  40.980  19.176  13.879
15275W        W79483  32.551   1.824  13.313
15276W        W79484   3.261  11.246   2.762
15277W        W79485  37.414   4.838   1.809
15278W        W79486  12.788  13.137  11.434
15279W        W79487  43.994   4.855   2.709
15280W        W79488  38.966  30.147   1.891
15281W        W79489  21.595  27.125  11.999
15282W        W79490   5.209  40.388  12.495
15283W        W79491  31.507  34.541  13.378
15284W        W79492  19.539  42.319   4.297
15285W        W79493  17.667  31.108  12.882
15286W        W79494  10.223   8.236  13.878
15287W        W79495  19.685   3.926  10.507
15288W        W79496  18.639  11.758  11.002
15289W        W79497  29.453   0.392  11.487
15290W        W79498  18.691  11.262  11.393
15291W        W79499   3.238  21.021   4.806
15292W        W79500  17.619   3.855  14.805
15293W        W79501  25.479  39.504   2.408
15294W        W79502  13.142  35.880  10.923
15295W        W79503  25.172  13.280  12.901
15296W        W79504  18.163  11.319  11.374
15297W        W79505   5.232  12.220   3.640
15298W        W79506  39.344  28.977  13.800
15299W        W79507  26.592   4.897  11.521
15300W        W79508  34.614  27.515   0.390
15301W        W79509   9.156  36.479   3.230
15302W        W79510  29.931   4.856  14.893
15303W        W79511  29.161   3.367  11.923
15304W        W79512  14.230   3.951  11.025
15305W        W79513  13.741  11.825   2.186
15306W        W79514  28.986  30.455  10.956
15307W        W79515  20.032   9.748   0.929
15308W        W79516  33.069  14.335   3.167
15309W        W79517  43.463  30.982   3.839
15310W        W79518  42.837  10.299   4.624
15311W        W79519  16.742  14.717  12.836
15312W        W79520  24.107  34.457   3.274
15313W        W79521   2.471  33.461  13.998
15314W        W79522   6.844  33.445   3.714
15315W        W79523  33.431   4.319   2.877
15316W        W79524  13.733   2.367   2.893
15317W        W79525   6.693  27.527   2.414
15318W        W79526  19.269  25.092   3.781
15319W        W79527  44.979  22.578   0.954
15320W        W79528  41.506  14.610  11.981
15321W        W79529  33.913   6.420  11.865
15322W        W79530  38.439   9.811   2.777
15323W        W79531  37.373  36.511  12.511
15324W        W79532  39.454  22.209  10.560
15325W        W79533   3.306  20.163   1.789
15326W        W79534  42.978  36.892  10.073
15327W        W79535  19.213   4.922  14.473
15328W        W79536   2.267  16.131  10.598
15329W        W79537  15.655  21.548   4.817
15330W        W79538  27.123   2.233  11.923
15331W        W79539  19.170   3.766  11.063
15332W        W79540  13.224   9.150  10.987
15333W        W79541  44.928   8.214   4.210
15334W        W79542  18.288  16.795   0.948
15335W        W79543  34.064   4.827  13.375
15336W        W79544  22.147  23.014  13.465
15337W        W79545  24.069   9.755   3.699
15338W        W79546  26.080  35.436   0.864
15339W        W79547  27.583  30.487   4.797
15340W        W79548  10.766  14.266  11.069
15341W        W79549  43.924   6.352   0.964
15342W        W79550  35.894  34.603  13.917
15343W        W79551  39.814  20.139  13.803
15344W        W79552  23.111  13.746  14.281
15345W        W79553  12.783  36.387  14.801
15346W        W79554  43.792  33.002   5.097
15347W        W79555  31.948  21.617   4.701
15348W        W79556  22.998  29.077   1.899
15349W        W79557  35.964  42.902   0.304
15350W        W79558   4.258  32.929  10.956
15351W        W79559  22.214  15.811   4.730
15352W        W79560  43.422  17.792   0.964
15353W        W79561  11.188  44.883  13.864
15354W        W79562  33.072  41.846   4.259
15355W        W79563  40.358  41.791  10.594
15356W        W79564  18.216  36.554   5.285
15357W        W79565  42.852  24.992  13.435
15358W        W79566  35.572  43.274   2.409
15359W        W79567   3.343  13.829  13.413
15360W        W79568  16.584  15.220  13.017
15361W        W79569  44.986   9.853  13.432
15362W        W79570  23.714   2.857   1.864
15363W        W79571  42.372  40.892   1.238
15364W        W79572  12.142  43.971  12.483
15365W        W79573  32.495  11.641  13.323
15366W        W79574   8.323  14.283   0.269
15367W        W79575   8.279  20.267   2.314
15368W        W79576   0.760  14.637   1.307
15369W        W79577  26.017  42.849   2.788
15370W        W79578  14.834  24.551   4.637
15371W        W79579  36.033  39.457   0.388
15372W        W79580  35.362  22.726  12.960
15373W        W79581  14.324  23.641   3.263
15374W        W79582  37.339  39.821  12.004
15375W        W79583  24.037  18.728  13.449
15376W        W79584  28.059  26.666   3.717
15377W        W79585  12.692   0.905   4.288
15378W        W79586  27.032  30.981  11.112
15379W        W79587  14.280  35.442   1.795
15380W        W79588  38.995  38.002   1.260
15381W        W79589  32.583  43.869   0.793
15382W        W79590  27.194  39.814   0.324
15383W        W79591   6.374  27.549   1.755
15384W        W79592  42.789  41.404   1.254
15385W        W79593  24.187  18.079   5.097
15386W        W79594  25.562   2.226   4.665
15387W        W79595  42.890  30.070  14.445
15388W        W79596   1.824   8.260  12.017
15389W        W79597  14.133   1.871  14.933
15390W        W79598  17.157  13.797  13.520
15391W        W79599  29.493  21.263  13.312
15392W        W79600  27.578  30.435   0.360
15393W        W79601   9.326  15.137   4.310
15394W        W79602  24.508  44.816   1.414
15395W        W79603  11.262   1.329   3.188
15396W        W79604  41.831  40.355   3.867
15397W        W79605  24.188  16.269  13.525
15398W        W79606  25.053  26.624   3.704
15399W        W79607  42.868  17.067  11.391
15400W        W79608   8.279  42.022  12.477
15401W        W79609  21.227  17.077   4.284
15402W        W79610  15.163  40.313   2.179
15403W        W79611  41.932  10.730  11.093
15404W        W79612  22.224  18.677  14.299
15405W        W79613  20.275  24.535  10.475
15406W        W79614   8.375  11.728  11.575
15407W        W79615  30.040  21.543   1.258
15408W        W79616   8.207  19.260  14.912
15409W        W79617   3.900  19.748   2.793
15410W        W79618  37.035  32.888   2.294
15411W        W79619   1.466  10.632  12.895
15412W        W79620  18.598  30.959  12.054
15413W        W79621   8.710  30.959  12.068
15414W        W79622  14.591  20.063   2.779
15415W        W79623   2.252  38.921  10.931
15416W        W79624  31.107   5.225  13.522
15417W        W79625  24.690  41.941  13.872
15418W        W79626  33.609  29.514   3.765
15419W        W79627   1.460   2.421  14.008
15420W        W79628  28.106  26.182  14.456
15421W        W79629  31.602  44.958  12.572
15422W        W79630   0.921  10.854  11.402
15423W        W79631   9.857  39.437   2.393
15424W        W79632  35.517   9.798   0.273
15425W        W79633  13.185  23.615  10.591
15426W        W79634  15.630  15.768  11.479
15427W        W79635  13.273  39.817  14.951
15428W        W79636  37.565  13.667  11.584
15429W        W79637  42.973   6.917   1.430
15430W        W79638  15.617  35.105  12.829
15431W        W79639  31.537  31.569  13.032
15432W        W79640  31.480   5.404   3.320
15433W        W79641   8.802  35.426   3.797
15434W        W79642  44.262  39.316  13.942
15435W        W79643  31.048  21.040  14.323
15436W        W79644  12.731  18.590  13.987
15437W        W79645  36.963  15.586  10.437
15438W        W79646  14.715  30.588   1.897
15439W        W79647  32.459  11.847   2.688
15440W        W79648  41.789  21.696  11.501
15441W        W79649  16.265  21.257  11.446
15442W        W79650  32.634  20.761   3.655
15443W        W79651  14.674  12.788   0.860
15444W        W79652  10.762   6.787   2.198
15445W        W79653  13.219  33.906  14.767
15446W        W79654  23.587  11.221   1.259
15447W        W79655  21.638  26.499  13.871
15448W        W79656  13.348  20.675  14.507
15449W        W79657  11.799   8.668   0.276
15450W        W79658  29.540   1.788  13.308
15451W        W79659  10.684  42.822  14.434
15452W        W79660  40.406  35.513  13.015
15453W        W79661  18.575   9.687   3.269
15454W        W79662   5.889  42.988   0.862
15455W        W79663  44.340  42.900   2.414
15456W        W79664  21.650  37.994   2.318
15457W        W79665  12.288  37.023   0.309
15458W        W79666  34.463  11.261  11.493
15459W        W79667  16.659  26.186   4.297
15460W        W79668   8.299  23.731  12.958
15461W        W79669  41.964  16.261   3.303
15462W        W79670  15.223  22.010   2.821
15463W        W79671  44.874  17.607   1.392
15464W        W79672  36.951  16.181  14.897
15465W        W79673  14.597   4.272   2.180
15466W        W79674  25.498  26.979  13.002
15467W        W79675   0.291  25.123   0.469
15468W        W79676  33.974  26.560  13.966
15469W        W79677  39.862  15.142   3.358
15470W        W79678  39.943  19.111   1.711
15471W        W79679  35.574  32.983   3.712
15472W        W79680   5.804  43.813   0.956
15473W        W79681  14.648  37.970  11.903
15474W        W79682  44.765  24.992  14.837
15475W        W79683  43.977  32.007   0.939
15476W        W79684  21.125  29.493  14.495
15477W        W79685  44.397  10.252  10.511
15478W        W79686  41.952  34.009  11.598
15479W        W79687  18.235  14.226  14.895
15480W        W79688  42.029  39.442  14.904
15481W        W79689  10.740  32.082   4.210
15482W        W79690  33.997   6.346  11.087
15483W        W79691  24.651  11.700   0.769
15484W        W79692  39.049   3.216   0.414
15485W        W79693  14.250  31.590  11.449
15486W        W79694  13.141  39.408  14.477
15487W        W79695  37.481  20.178  12.849
15488W        W79696  37.054  43.311   1.797
15489W        W79697  42.976  41.476   4.303
15490W        W79698  11.277  37.387  12.884
15491W        W79699  18.666   0.911   0.966
15492W        W79700  39.508   5.357   4.670
15493W        W79701  14.261  10.156  14.317
15494W        W79702  15.675  42.328  13.037
15495W        W79703  27.493   8.746  14.397
15496W        W79704  15.680  18.289   1.843
15497W        W79705  29.602   3.226  11.427
15498W        W79706  33.886  18.770  14.482
15499W        W79707  41.420  15.161   4.321
15500W        W79708  39.835  40.877  11.937
15501W        W79709  36.074  21.215   0.325
15502W        W79710  40.512  38.838   0.787
15503W        W79711  37.081  14.646   1.296
15504W        W79712   8.265  26.463   4.619
15505W        W79713   8.732  27.193  14.962
15506W        W79714  29.537  35.982   3.313
15507W        W79715  39.558  31.081  12.486
15508W        W79716  10.703   1.803  13.337
15509W        W79717  27.448  13.149   0.291
15510W        W79718  26.554  31.111   1.794
15511W        W79719  43.382   3.873  13.337
15512W        W79720   9.723  38.916  12.015
15513W        W79721  43.005  44.505  12.483
15514W        W79722  33.399   2.937   2.404
15515W        W79723  25.682  20.567  12.995
15516W        W79724  31.132   9.658  11.534
15517W        W79725   5.901  19.280   1.309
15518W        W79726  11.625   2.397  13.888
15519W        W79727  21.242  18.056   2.691
15520W        W79728  37.474  23.688   0.919
15521W        W79729   0.878  14.323   2.894
15522W        W79730  38.024  15.604   0.775
15523W        W79731   6.825  26.459   2.361
15524W        W79732   4.757  14.626   0.282
15525W        W79733  24.040  43.913   1.271
15526W        W79734  18.614  26.678   4.210
15527W        W79735  19.057  12.118   0.385
15528W        W79736  23.728  26.036  12.957
15529W        W79737  32.998  16.766  10.025
15530W        W79738   8.765   8.669   4.142
15531W        W79739   6.387   9.852  13.844
15532W        W79740  13.328  38.451   3.334
15533W        W79741  40.458  10.782  14.994
15534W        W79742  27.537   4.290  11.026
15535W        W79743  39.444  26.540  13.497
15536W        W79744  26.543  39.320   4.353
15537W        W79745  13.631   5.428   3.806
15538W        W79746  42.788  18.659   5.750
15539W        W79747  38.407  28.092   0.808
15540W        W79748   2.402  28.001   0.266
15541W        W79749  35.473   0.931   2.690
15542W        W79750  24.224  23.519  12.524
15543W        W79751   1.852  27.474   1.346
15544W        W79752  11.309  44.418   2.715
15545W        W79753  21.096  37.903   4.777
15546W        W79754  38.929  33.874   4.654
15547W        W79755  14.642  10.150  11.526
15548W        W79756   0.279  31.502  12.876
15549W        W79757   3.895  33.412  10.613
15550W        W79758   2.432  30.586  10.447
15551W        W79759  21.603  24.572   0.796
15552W        W79760  32.401  39.915   5.284
15553W        W79761   8.338  23.504  13.936
15554W        W79762  23.136  29.475  12.034
15555W        W79763  16.726  39.476   3.249
15556W        W79764  13.340   7.678  11.483
15557W        W79765  42.947  23.583  13.829
15558W        W79766  22.568  43.340  12.042
15559W        W79767  16.622  32.942   2.235
15560W        W79768  13.741   6.232  12.841
15561W        W79769  33.527  20.755  13.995
15562W        W79770  42.381  31.630   1.748
15563W        W79771  21.214  16.124   3.161
15564W        W79772  33.978  44.326   2.283
15565W        W79773   6.359  44.950   3.358
15566W        W79774  33.566  42.487   0.893
15567W        W79775  21.080   0.448  11.001
15568W        W79776  22.715  10.169   3.843
15569W        W79777  39.381  37.850  10.599
15570W        W79778  27.006  17.065   1.918
15571W        W79779   6.334  14.626  13.876
15572W        W79780  34.493   1.815  11.585
15573W        W79781  29.536  44.279  14.342
15574W        W79782  23.219  20.696  12.882
15575W        W79783   8.712  15.111  14.347
15576W        W79784  39.824  13.806   3.789
15577W        W79785  40.944  18.176   3.716
15578W        W79786  13.279  28.468  14.018
15579W        W79787   1.955  12.340   0.285
15580W        W79788  34.534  12.198   4.326
15581W        W79789  21.122  35.963   1.929
15582W        W79790  19.566   2.770  13.493
15583W        W79791  35.601   2.750   1.854
15584W        W79792  13.716   1.258  14.483
15585W        W79793  17.065  30.653  13.476
15586W        W79794  19.186   7.808   2.256
15587W        W79795  20.143  36.007   1.881
15588W        W79796  40.505  13.637  13.465
15589W        W79797  38.482  16.224  10.903
15590W        W79798  31.134  12.706  14.868
15591W        W79799  19.630  39.048  13.032
15592W        W79800  22.694   5.243  13.371
15593W        W79801  11.750  10.376  13.947
15594W        W79802  12.170  36.522  14.949
15595W        W79803  38.903   4.769   2.710
15596W        W79804   1.881  25.644  11.580
15597W        W79805  14.689  25.164   0.297
15598W        W79806  23.564  35.518  14.004
15599W        W79807  35.372  34.035  11.406
15600W        W79808  17.778  10.876  12.378
15601W        W79809   6.240  38.424   4.626
15602W        W79810  34.590   7.873   4.214
15603W        W79811  21.124   5.342   5.303
15604W        W79812  27.073  11.151  12.942
15605W        W79813  18.250  32.938   4.824
15606W        W79814   9.244  13.688  14.864
15607W        W79815  34.479  31.000  13.970
15608W        W79816  14.593   1.410  12.839
15609W        W79817  29.577  22.098  13.891
15610W        W79818  24.510  32.000  11.891
15611W        W79819  36.350   3.917   0.879
15612W        W79820  21.189  34.607  14.306
15613W        W79821  13.182   9.656  11.086
15614W        W79822  23.012  44.898  13.475
15615W        W79823   2.247   6.243  11.564
15616W        W79824  16.106  29.068  13.516
15617W        W79825  28.575  35.559  12.950
15618W        W79826  11.759  19.672   0.962
15619W        W79827  38.911   7.725  11.382
15620W        W79828  27.084  36.484   0.932
15621W        W79829   4.399  18.559  13.014
15622W        W79830  11.177   2.952  10.449
15623W        W79831  26.680  30.640   3.268
15624W        W79832  15.085  33.024   3.687
15625W        W79833  14.289  12.725  10.914
15626W        W79834  34.590  17.624   3.361
15627W        W79835  10.782  42.024  10.529
15628W        W79836  43.357  18.593  11.058
15629W        W79837  12.297  11.281  14.945
15630W        W79838  21.596  33.086  11.527
15631W        W79839  42.293  32.074  12.869
15632W        W79840   3.255  44.770  11.407
15633W        W79841  25.125  31.513  12.356
15634W        W79842  38.821  32.510  12.570
15635W        W79843  44.976  28.571   1.328
15636W        W79844   0.416  25.653  12.498
15637W        W79845   0.375  28.040  11.035
15638W        W79846  33.895  27.688   1.906
15639W        W79847  40.895   9.385  14.451
15640W        W79848   5.884  23.727   4.684
15641W        W79849  40.363  18.763  10.523
15642W        W79850  10.711  11.362  11.921
15643W        W79851  38.018  26.197  12.052
15644W        W79852  12.736  10.317   1.436
15645W        W79853  24.073   4.917  13.503
15646W        W79854  42.792  37.030   2.773
15647W        W79855  30.578  18.577  14.283
15648W        W79856  23.112  21.072  11.927
15649W        W79857   2.791  20.659  10.517
15650W        W79858  36.573  43.449  12.893
15651W        W79859  44.403  38.941   5.105
15652W        W79860  26.190  41.310   4.143
15653W        W79861  36.094   8.867   3.858
15654W        W79862  43.393  43.463  10.457
15655W        W79863  15.112  24.592  11.863
15656W        W79864   4.738   3.886   3.655
15657W        W79865  10.262   2.950  14.949
15658W        W79866  17.064  26.003  14.770
15659W        W79867  16.645   0.267   2.272
15660W        W79868  10.832  37.880   2.790
15661W        W79869  16.813  14.589  13.358
15662W        W79870  34.391  17.593   1.752
15663W        W79871  28.980  29.967   1.782
15664W        W79872  31.419  24.591   3.730
15665W        W79873  31.531  44.895  10.501
15666W        W79874   8.307  33.436  12.573
15667W        W79875  44.799  36.060   5.736
15668W        W79876  30.455   5.721   0.742
15669W        W79877   9.757  29.145   1.281
15670W        W79878  24.601  25.093  12.386
15671W        W79879   5.211  39.017   3.220
15672W        W79880  29.493  30.080   0.386
15673W        W79881  12.809  16.581   2.221
15674W        W79882  37.038   6.380  10.636
15675W        W79883   8.667  38.894   2.721
15676W        W79884  43.303  22.062  11.496
15677W        W79885  10.279  31.630  10.987
15678W        W79886   3.879  18.224  14.288
15679W        W79887  26.026   3.809  11.371
15680W        W79888  23.531  31.017  13.518
15681W        W79889   6.229  19.688  11.535
15682W        W79890  38.561  42.917   1.334
15683W        W79891  44.357   2.955  14.308
15684W        W79892  13.164  21.091   3.199
15685W        W79893  42.790  44.495   0.810
15686W        W79894  12.626  20.124   0.290
15687W        W79895  27.624  30.054  12.016
15688W        W79896  16.116   5.838   3.356
15689W        W79897  14.638  16.640   4.804
15690W        W79898  22.625  14.797   1.851
15691W        W79899  36.956   5.283  11.121
15692W        W79900  42.512  42.916  11.028
15693W        W79901  22.209   1.250  10.444
15694W        W79902  12.314  26.616   0.311
15695W        W79903  20.675  41.342  13.793
15696W        W79904  25.610  36.860  10.930
15697W        W79905  10.801  17.161  14.347
15698W        W79906  35.552  14.281   4.326
15699W        W79907  16.591  35.870   1.288
15700W        W79908  24.134   0.351  13.966
15701W        W79909   2.448  21.042   1.766
15702W        W79910  37.902   1.774  13.883
15703W        W79911  20.070  21.099   1.868
15704W        W79912  25.636  17.657  14.805
15705W        W79913  32.058  14.174  12.081
15706W        W79914  12.684  23.678   4.712
15707W        W79915  15.154   4.844  13.363
15708W        W79916   7.859  39.443   4.778
15709W        W79917  27.973  20.744  10.594
15710W        W79918   7.742  41.921  11.439
15711W        W79919  10.378  11.777   0.259
15712W        W79920  24.187  22.508  13.983
15713W        W79921  12.806  24.084  11.891
15714W        W79922  41.330  24.122  10.606
15715W        W79923   5.375  24.021   3.667
15716W        W79924  31.578  25.194  14.409
15717W        W79925   8.689   2.744  12.025
15718W        W79926  22.575  20.179   0.278
15719W        W79927  33.526  40.982   2.271
15720W        W79928  26.044  28.439  11.601
15721W        W79929  36.018  25.591   2.821
15722W        W79930  43.434  30.128  11.563
15723W        W79931  13.214  24.141   2.243
15724W        W79932  16.589  42.310   3.769
15725W        W79933  29.929   8.690  10.960
15726W        W79934  24.068  32.130  11.446
15727W        W79935  41.021  44.301  11.375
15728W        W79936  11.666   8.883  10.547
15729W        W79937  43.305  12.208  14.014
15730W        W79938  21.150  28.066  13.540
15731W        W79939  33.425  37.516   2.674
15732W        W79940  27.096  41.526   2.666
15733W        W79941   2.865  18.266  10.584
15734W        W79942   9.185   8.376   1.856
15735W        W79943  11.321  16.759   2.662
15736W        W79944   7.775   6.278   1.900
15737W        W79945  31.622  42.986  10.573
15738W        W79946  44.370   5.931   4.273
15739W        W79947   6.797  10.227  14.796
15740W        W79948  37.520  15.250   1.369
15741W        W79949   7.298  36.428  13.858
15742W        W79950  37.372   5.809  13.544
15743W        W79951  27.030   3.780   3.277
15744W        W79952  38.398   2.866   1.818
15745W        W79953  29.959   1.410   3.655
15746W        W79954  40.994  38.033  10.568
15747W        W79955  20.714  13.835   0.867
15748W        W79956  10.287  33.885   0.251
15749W        W79957  31.526   1.333   2.799
15750W        W79958  34.935  37.947   4.616
15751W        W79959  33.599  38.381   3.198
15752W        W79960  27.065  17.216   1.319
15753W        W79961  34.955  40.016   4.137
15754W        W79962  35.952  19.732   0.347
15755W        W79963  18.253   9.152  11.063
15756W        W79964  34.445  21.156   0.455
15757W        W79965  19.132  36.493   3.270
15758W        W79966  30.659  35.417   3.316
15759W        W79967  41.927   4.344   3.164
15760W        W79968  13.728  32.432  14.916
15761W        W79969  27.484   4.759  11.048
15762W        W79970  23.229   8.840  12.996
15763W        W79971  34.025  19.672  10.404
15764W        W79972  11.222  36.485  11.483
15765W        W79973  44.933  13.183   2.381
15766W        W79974  18.114  32.101  14.296
15767W        W79975   3.918  40.805   0.841
15768W        W79976  21.515  27.945   4.326
15769W        W79977  37.495   0.314  11.557
15770W        W79978  42.449  13.824  13.974
15771W        W79979  26.962   4.359  12.379
15772W        W79980  11.807  37.864  13.430
15773W        W79981   6.227  41.846  13.807
15774W        W79982   6.776  19.678  13.827
15775W        W79983   5.696  41.033  12.842
15776W        W79984  12.345  19.070   0.279
15777W        W79985  31.574  31.951  11.127
15778W        W79986  16.184  26.598   2.372
15779W        W79987  29.101  43.814   1.896
15780W        W79988  31.541   3.342  12.994
15781W        W79989  35.548  27.649  10.511
15782W        W79990  43.512  14.773  14.507
15783W        W79991  40.549  39.819  12.943
15784W        W79992  41.030   9.320   2.723
15785W        W79993  26.137   1.741   3.351
15786W        W79994  42.499   3.858  10.536
15787W        W79995  23.654  17.233  14.822
15788W        W79996  42.903  19.257   3.732
15789W        W79997   8.180  19.054   1.891
15790W        W79998  40.882   1.837  13.947
15791W        W79999  27.675  36.895  14.930
15792W        W80000   8.662  12.130  14.385
15793W        W80001  14.785  39.328  13.486
15794W        W80002  12.629   4.875  13.972
15795W        W80003  24.152  12.698  13.973
15796W        W80004  31.952  22.514  10.589
15797W        W80005   0.815   6.196   0.947
15798W        W80006  21.144  22.100   4.195
15799W        W80007  33.985  21.589   4.673
15800W        W80008  40.031   8.851  11.411
15801W        W80009   0.988  30.497  10.915
15802W        W80010   1.736  28.637   1.439
15803W        W80011  29.019   6.214   1.419
15804W        W80012  14.601  25.044  11.934
15805W        W80013   2.308   6.293  10.590
15806W        W80014  12.747  37.389  13.797
15807W        W80015   0.772  25.641  11.576
15808W        W80016  42.393  12.327   3.386
15809W        W80017  38.972  20.696   3.359
15810W        W80018   3.772  23.017  13.429
15811W        W80019  12.627  10.335   3.655
15812W        W80020  13.214  23.717   0.248
15813W        W80021   3.392   1.903  10.641
15814W        W80022   1.260  14.244  10.947
15815W        W80023  28.154  42.788  14.398
15816W        W80024   2.735  13.348   4.252
15817W        W80025  23.531  34.989   1.413
15818W        W80026  11.142  33.474  14.303
15819W        W80027  36.459  17.714   0.279
15820W        W80028  41.874  43.341  14.846
15821W        W80029  24.086  12.834   3.669
15822W        W80030  17.079   9.745   1.745
15823W        W80031  11.639  26.520   1.272
15824W        W80032  13.254  33.992   0.821
15825W        W80033  33.447  15.107  14.303
15826W        W80034  33.913  24.108   4.281
15827W        W80035  31.580  43.959   0.272
15828W        W80036  25.967  39.872  14.364
15829W        W80037  25.596  35.101   2.187
15830W        W80038  23.556   4.259  13.369
15831W        W80039  16.288   8.244  13.866
15832W        W80040  35.443  22.099  12.953
15833W        W80041  14.253  44.760   4.190
15834W        W80042   2.966  11.743  14.011
15835W        W80043  25.502  12.126   2.724
15836W        W80044  19.263  25.080  10.892
15837W        W80045  26.693   2.949   0.745
15838W        W80046  39.036  33.043  10.932
15839W        W80047  37.923  40.409   1.282
15840W        W80048  11.366  42.502  14.768
15841W        W80049  32.628   1.907   2.419
15842W        W80050  13.304  13.640   2.322
15843W        W80051   7.189  25.177  11.406
15844W        W80052   5.279  13.315   4.665
15845W        W80053  33.589  20.239   4.682
15846W        W80054  13.771  21.522  10.535
15847W        W80055  21.518  44.461  12.526
15848W        W80056  23.511   3.758  13.403
15849W        W80057  42.023  22.119  10.597
15850W        W80058  17.210  34.973  13.333
15851W        W80059  22.534  21.089  13.399
15852W        W80060  14.156  34.035   0.914
15853W        W80061   2.353  20.147  11.405
15854W        W80062  22.682  44.488  11.071
15855W        W80063   9.698  37.943   3.196
15856W        W80064  13.243  31.634  10.623
15857W        W80065   8.217  21.069  14.843
15858W        W80066  13.657  25.693   2.411
15859W        W80067  37.345   2.420   5.256
15860W        W80068  44.326  31.021   2.303
15861W        W80069  42.296  13.310  13.053
15862W        W80070  38.890   8.687   0.479
15863W        W80071  28.078  37.418   4.780
15864W        W80072  14.698  21.093   3.713
15865W        W80073  20.110   2.436   3.354
15866W        W80074  17.778  35.420   9.933
15867W        W80075  32.453   4.935  14.845
15868W        W80076  44.994  15.317   3.260
15869W        W80077  20.569  25.499  11.946
15870W        W80078  31.954   8.171  10.435
15871W        W80079  35.978  43.977  11.545
15872W        W80080  14.284  44.937  12.549
15873W        W80081   7.226  44.375   4.821
15874W        W80082  10.859  14.120   1.768
15875W        W80083  15.781  34.106   3.284
15876W        W80084  44.783   4.865  11.015
15877W        W80085  39.853  33.520   0.829
15878W        W80086  37.988  29.972   3.661
15879W        W80087  13.718  31.963  14.876
15880W        W80088   7.204  14.731   3.206
15881W        W80089  10.681  27.151   1.273
15882W        W80090  15.719  38.009   2.337
15883W        W80091  38.030  14.299   5.309
15884W        W80092   0.845   3.923  11.926
15885W        W80093  38.994   0.346  14.995
15886W        W80094  25.698  27.468  13.912
15887W        W80095  41.308  12.680   2.785
15888W        W80096  40.904  32.970   1.391
15889W        W80097  19.758  30.504   2.702
15890W        W80098  42.944  30.620  12.474
15891W        W80099  13.231  43.841  11.968
15892W        W80100   8.663  40.050  12.846
15893W        W80101  24.073   9.382  12.034
15894W        W80102  33.514  14.105   3.861
15895W        W80103  15.191  30.561  11.609
15896W        W80104  27.665  35.551  14.470
15897W        W80105  18.727  19.070  13.022
15898W        W80106  43.976  18.635  12.563
15899W        W80107  26.526  33.416  10.427
15900W        W80108   0.484  24.488   1.374
15901W        W80109   5.825  30.974   3.334
15902W        W80110  31.402  18.164   9.447
15903W        W80111   4.803  41.892  13.932
15904W        W80112  19.068  16.740   4.209
15905W        W80113  37.440  37.851  12.479
15906W        W80114  37.425   1.791   3.282
15907W        W80115  34.564  13.265  11.547
15908W        W80116   2.952  39.039   3.717
15909W        W80117   5.370  40.930  13.866
15910W        W80118  27.446  14.659  11.436
15911W        W80119  37.859  11.775  13.813
15912W        W80120  27.668   6.225   1.434
15913W        W80121   2.452  32.456   4.805
15914W        W80122  16.111  16.110   0.933
15915W        W80123  23.536  41.834  10.467
15916W        W80124  19.582  37.433   0.291
15917W        W80125  22.165  15.687   2.811
15918W        W80126  38.056  43.365  11.963
15919W        W80127  20.182  31.125   3.860
15920W        W80128   7.201  13.349  10.987
15921W        W80129  30.507  22.667   3.693
15922W        W80130  10.800  42.826   4.347
15923W        W80131  42.960   8.229  10.917
15924W        W80132   6.883  16.079   3.804
15925W        W80133  19.063  18.748  10.424
15926W        W80134  31.434  24.051  11.080
15927W        W80135  19.619  23.101  10.996
15928W        W80136   7.778  12.822  11.070
15929W        W80137  37.497  35.994  14.998
15930W        W80138  38.020  18.769  14.411
15931W        W80139  39.394  18.084   0.774
15932W        W80140  15.154  35.524  11.121
15933W        W80141   0.936  17.070  14.014
15934W        W80142   6.684  25.553   3.185
15935W        W80143   6.875  17.759  10.519
15936W        W80144  39.969  36.518   3.764
15937W        W80145  11.212  42.896   0.770
15938W        W80146   2.873  28.641   3.655
15939W        W80147  28.438   3.280  13.470
15940W        W80148   1.804  16.215   0.927
15941W        W80149  24.148   6.381   0.374
15942W        W80150  26.584  20.760  12.855
15943W        W80151  31.909  22.721   0.422
15944W        W80152  34.589  44.893   3.674
15945W        W80153  36.015   0.850  13.319
15946W        W80154  23.112  31.154  12.385
15947W        W80155   9.376  28.533   2.826
15948W        W80156   4.391   3.804   4.795
15949W        W80157  44.980  44.350  13.020
15950W        W80158   9.158  43.004  10.448
15951W        W80159  23.585  27.472   4.705
15952W        W80160  10.273  20.663  14.425
15953W        W80161   3.930  41.426  10.422
15954W        W80162   9.378  40.448   4.633
15955W        W80163  20.155  28.075   0.478
15956W        W80164  23.184  32.409  13.341
15957W        W80165  34.515  32.080   2.353
15958W        W80166  40.363  30.583  12.908
15959W        W80167  12.679  33.461   1.806
15960W        W80168   7.821  20.161   3.354
15961W        W80169  42.831   8.756   0.343
15962W        W80170   0.434  11.193  11.457
15963W        W80171  10.281   8.851   5.110
15964W        W80172  34.961  16.737  13.391
15965W        W80173  39.953  31.573  14.474
15966W        W80174  15.284   8.272   4.186
15967W        W80175  12.793  26.502   4.207
15968W        W80176  11.126  35.517  11.406
15969W        W80177  16.145  24.003   4.770
15970W        W80178  43.288   1.290   4.806
15971W        W80179   4.822   8.352  12.513
15972W        W80180  32.467  32.051  12.914
15973W        W80181  13.637  12.652   3.251
15974W        W80182  23.237  35.532  11.089
15975W        W80183   4.314  29.451   0.821
15976W        W80184   3.294  24.187  14.434
15977W        W80185  27.676   7.251  12.079
15978W        W80186  24.688  14.658  10.526
15979W        W80187   4.235  26.165   0.444
15980W        W80188   3.942  22.062   0.459
15981W        W80189   3.346  35.587   2.359
15982W        W80190  30.641  44.406   0.433
15983W        W80191  16.316   9.180   3.349
15984W        W80192  26.562  25.514   3.268
15985W        W80193  44.280   5.398  11.964
15986W        W80194  26.658  10.785   1.879
15987W        W80195  20.658  30.134  11.409
15988W        W80196  24.226  13.226   1.706
15989W        W80197  41.389  20.150  13.032
15990W        W80198   5.902  27.477   2.414
15991W        W80199  28.990   7.804  12.876
15992W        W80200  15.234  32.990   0.466
15993W        W80201  23.150  22.184   0.311
15994W        W80202  43.411  39.385   1.917
15995W        W80203  41.872  22.729   2.823
15996W        W80204   3.863   8.388   0.813
15997W        W80205  24.990  18.757   0.922
15998W        W80206  19.249  24.087  13.389
15999W        W80207  32.398  11.792  10.520
16000W        W80208  12.310  37.832  14.435
16001W        W80209  18.748  21.695   4.711
16002W        W80210   5.808  17.167  13.462
16003W        W80211   2.410  43.475  13.445
16004W        W80212  16.188   7.226  10.933
16005W        W80213   0.322   3.853   1.451
16006W        W80214   4.758  43.302  10.993
16007W        W80215   3.955  43.880  13.054
16008W        W80216  30.453   2.901   4.129
16009W        W80217  38.833  22.199   3.672
16010W        W80218  37.073   8.681   4.224
16011W        W80219  11.788  31.613   0.735
16012W        W80220  21.136  29.149   0.262
16013W        W80221   5.281  34.464   4.300
16014W        W80222  23.203  33.883  12.436
16015W        W80223  31.577   3.366   1.265
16016W        W80224  25.612  22.631   0.767
16017W        W80225  19.215  24.594   2.209
16018W        W80226  41.945  42.464  11.438
16019W        W80227  20.720  34.381  14.411
16020W        W80228  43.270  18.120  13.356
16021W        W80229  20.545  22.718   3.632
16022W        W80230  29.501  39.517   4.763
16023W        W80231  18.629  10.836   4.691
16024W        W80232  19.712  11.213  10.547
16025W        W80233   7.874  29.474   3.161
16026W        W80234  26.683   9.715  11.499
16027W        W80235   6.875  33.518  11.063
16028W        W80236  33.007  17.292   4.702
16029W        W80237  42.868  20.652   2.768
16030W        W80238  21.573  12.655  12.560
16031W        W80239  23.091  16.715   5.296
16032W        W80240  23.025  31.916  14.340
16033W        W80241  23.177  15.200  13.946
16034W        W80242  23.161  24.168  11.923
16035W        W80243  14.141  33.557  13.534
16036W        W80244  14.297  19.749   2.283
16037W        W80245  26.045  32.975   4.613
16038W        W80246  11.159  26.579  12.381
16039W        W80247  23.555  10.720  10.592
16040W        W80248  42.900  43.284   0.459
16041W        W80249  22.068  17.565  14.797
16042W        W80250  44.350  31.569   3.168
16043W        W80251   0.267  32.557   0.954
16044W        W80252  26.697  28.475  10.624
16045W        W80253  29.501  23.154  13.465
16046W        W80254   3.362  30.618  13.856
16047W        W80255  41.015  44.389  11.019
16048W        W80256  17.110   5.700   5.109
16049W        W80257  10.707  34.484   0.864
16050W        W80258  36.471  30.464   3.213
16051W        W80259   4.330  43.835   2.720
16052W        W80260   7.863   1.936  12.422
16053W        W80261  37.838  11.211   1.287
16054W        W80262  15.318   9.777   3.837
16055W        W80263  10.233  38.540   5.202
16056W        W80264  22.100  32.487  10.954
16057W        W80265   8.684  16.717   4.786
16058W        W80266  13.216  18.262   4.268
16059W        W80267  23.128  35.987  13.394
16060W        W80268  21.546  21.137   4.637
16061W        W80269   5.390  23.497  13.969
16062W        W80270  34.965  26.029   3.734
16063W        W80271  41.406  40.418   0.870
16064W        W80272  35.479  18.237  13.044
16065W        W80273  33.975  14.648  12.968
16066W        W80274  19.260  19.185   4.674
16067W        W80275  31.034   1.428  13.903
16068W        W80276   9.359  31.579   3.347
16069W        W80277   9.215  40.821   4.645
16070W        W80278  22.695  42.850  14.443
16071W        W80279   0.937  30.071   3.682
16072W        W80280  36.031  28.983   2.662
16073W        W80281  31.080  42.867   0.796
16074W        W80282  42.009  40.946  13.545
16075W        W80283  22.056   1.388   0.937
16076W        W80284  37.335  26.972   4.152
16077W        W80285  23.196  44.367   2.802
16078W        W80286  22.181   4.919   1.370
16079W        W80287  33.471  22.680  12.395
16080W        W80288   9.235  14.626  11.605
16081W        W80289  26.204  42.512   4.698
16082W        W80290   7.748  37.947  10.954
16083W        W80291  38.430  35.878  10.631
16084W        W80292   6.736  34.372   4.159
16085W        W80293  11.761   7.791  14.800
16086W        W80294  29.568  34.873   1.323
16087W        W80295  35.855   4.822  13.922
16088W        W80296  35.365   4.914  12.359
16089W        W80297  24.155  35.883  14.768
16090W        W80298  34.541  27.991   3.246
16091W        W80299  20.647  32.110   1.804
16092W        W80300   7.378   8.201   4.641
16093W        W80301  17.640  34.953  12.343
16094W        W80302  44.402   7.315   2.663
16095W        W80303  18.190  29.621  14.310
16096W        W80304  37.064   7.359  13.439
16097W        W80305  32.924  19.099  14.450
16098W        W80306  38.338  31.154  14.862
16099W        W80307  36.075   5.300  13.443
16100W        W80308  17.577  12.817  11.953
16101W        W80309  27.631   2.736   3.725
16102W        W80310   4.367  26.611   3.732
16103W        W80311  29.956  39.342  11.092
16104W        W80312   8.260   1.786   2.231
16105W        W80313  37.068   5.399   4.615
16106W        W80314  10.174  15.176  11.037
16107W        W80315  17.109  34.065   2.780
16108W        W80316  29.074  11.307   1.317
16109W        W80317   0.444   0.914   0.296
16110W        W80318  40.015  34.907   3.269
16111W        W80319   9.264  39.400   4.598
16112W        W80320  37.385  18.596   5.316
16113W        W80321  41.978  44.370  12.072
16114W        W80322  22.687  15.255   3.865
16115W        W80323  39.880  44.323   4.752
16116W        W80324  15.736  10.738   3.168
16117W        W80325  32.494   2.403   3.707
16118W        W80326   3.364  36.514   5.181
16119W        W80327  17.100  13.619   1.792
16120W        W80328  32.586   2.380  12.442
16121W        W80329  20.686  39.372  12.361
16122W        W80330  41.843  21.644  12.434
16123W        W80331   7.342  15.632  11.507
16124W        W80332  30.003  34.572  12.070
16125W        W80333  30.534  24.998  12.424
16126W        W80334  39.894  32.057  12.516
16127W        W80335   2.330  18.584   2.418
16128W        W80336  16.776  39.066   4.180
16129W        W80337  42.322  23.662  13.796
16130W        W80338  38.553  24.097   1.246
16131W        W80339  10.282  19.572  11.871
16132W        W80340   1.922  34.079   1.898
16133W        W80341  12.294  26.117   3.282
16134W        W80342  16.122  31.135   2.824
16135W        W80343  34.923  15.322   2.385
16136W        W80344   6.908  11.336  12.989
16137W        W80345  31.421  34.865   4.312
16138W        W80346  17.183  35.486  12.471
16139W        W80347  34.018  36.936   4.229
16140W        W80348  23.503   3.219  13.016
16141W        W80349  28.106   4.302  14.842
16142W        W80350  39.955  32.432   2.350
16143W        W80351  39.504   3.932   1.771
16144W        W80352  34.052  25.710   1.342
16145W        W80353  24.984  16.740  10.575
16146W        W80354  32.026  15.328  12.954
16147W        W80355  11.638  29.667   3.641
16148W        W80356  25.079  29.024   4.313
16149W        W80357   3.882  26.062   0.411
16150W        W80358   0.419  10.207  13.375
16151W        W80359   6.387  29.174  13.823
16152W        W80360   8.173  32.485   1.839
16153W        W80361  24.495  17.773  12.899
16154W        W80362  37.454  34.011   4.777
16155W        W80363  13.601   4.276   4.773
16156W        W80364  43.931   6.239  10.446
16157W        W80365  28.992  32.611  13.018
16158W        W80366  32.059  11.223  14.461
16159W        W80367  11.768  30.471   5.281
16160W        W80368   0.305   2.861   1.757
16161W        W80369   3.867  33.598   0.754
16162W        W80370  42.445   3.947  13.311
16163W        W80371  40.921  30.614   3.799
16164W        W80372  18.657  27.589   1.316
16165W        W80373  37.357  14.191   3.766
16166W        W80374  37.502  31.115  14.393
16167W        W80375  41.413  36.986   4.759
16168W        W80376  35.940   4.712   1.424
16169W        W80377  12.297   2.870   0.408
16170W        W80378   8.293  30.123   3.785
16171W        W80379  35.918  29.556  11.030
16172W        W80380  42.285  44.419   1.757
16173W        W80381  21.685  25.710   2.881
16174W        W80382  24.028   8.387  14.503
16175W        W80383  15.305  21.737  12.916
16176W        W80384  13.619  24.047  13.950
16177W        W80385  19.098  30.448   1.388
16178W        W80386  18.179  36.998  10.097
16179W        W80387  36.513   5.302   3.273
16180W        W80388  43.346  35.042  10.513
16181W        W80389  30.475  34.120  13.540
16182W        W80390  19.648  35.576   4.686
16183W        W80391  19.118  36.089   1.727
16184W        W80392  37.923   1.379  12.965
16185W        W80393  40.957  32.527   3.789
16186W        W80394   4.373  21.546   3.687
16187W        W80395  24.069   6.407   4.803
16188W        W80396   1.422  25.675   1.245
16189W        W80397   5.268   9.193   1.357
16190W        W80398   1.909  26.592   3.293
16191W        W80399  32.110  44.871  11.889
16192W        W80400  42.998  14.650   1.244
16193W        W80401  37.025  31.074  11.413
16194W        W80402  15.127  12.147   0.890
16195W        W80403  30.554  12.306  11.870
16196W        W80404  44.888  16.722   1.430
16197W        W80405  40.504   0.431  10.618
16198W        W80406  39.946  30.621   2.816
16199W        W80407  31.939  42.031  10.548
16200W        W80408  38.990  11.696  10.545
16201W        W80409   0.286   4.733  12.383
16202W        W80410  40.013  30.607   0.401
16203W        W80411  32.035  30.161   2.397
16204W        W80412  23.160  13.176  11.412
16205W        W80413  37.970  11.314  13.460
16206W        W80414  19.271  18.243  11.017
16207W        W80415  28.505  38.871   1.448
16208W        W80416  31.153  43.817   4.124
16209W        W80417  32.457  25.655  12.393
16210W        W80418  10.814  19.668  13.377
16211W        W80419  43.819   6.226   3.160
16212W        W80420  18.128  14.286  13.866
16213W        W80421  34.118  33.978   3.801
16214W        W80422  43.443  15.229   0.946
16215W        W80423   3.734  18.050   0.781
16216W        W80424   1.924  32.931  12.971
16217W        W80425  15.088  22.541   0.963
16218W        W80426  18.252  18.746   2.821
16219W        W80427  30.606  11.697   3.313
16220W        W80428  16.092  15.087  10.469
16221W        W80429  32.124   4.391  14.980
16222W        W80430  26.008  17.644  10.579
16223W        W80431  30.454  12.656  14.338
16224W        W80432  12.261  16.781   3.282
16225W        W80433   0.763   8.779   4.795
16226W        W80434  27.990  37.447  14.992
16227W        W80435  21.260   5.865   0.249
16228W        W80436  32.489  35.099   4.167
16229W        W80437  21.701  29.982  11.379
16230W        W80438  20.142  38.955   9.989
16231W        W80439  34.059  24.156  13.993
16232W        W80440  11.225  31.549  11.920
16233W        W80441   9.199  14.594  14.383
16234W        W80442   2.363  14.808   3.860
16235W        W80443  40.486  25.213   0.907
16236W        W80444  38.957  18.561  10.142
16237W        W80445  37.395  16.178  14.437
16238W        W80446   4.804  13.611  14.930
16239W        W80447  11.799  37.894   2.726
16240W        W80448  11.784  21.748   0.449
16241W        W80449   4.334  11.144   0.873
16242W        W80450   3.439  15.179  12.836
16243W        W80451  18.739  28.056   2.364
16244W        W80452  39.419  13.670  12.444
16245W        W80453   1.845  21.725  11.021
16246W        W80454  28.165  38.436   0.397
16247W        W80455  36.046  29.659  13.517
16248W        W80456  38.855   0.865   2.795
16249W        W80457  35.072   8.660  11.104
16250W        W80458   5.253  38.965   3.789
16251W        W80459   3.216  14.669   3.234
16252W        W80460  14.175  19.228   3.648
16253W        W80461  33.520  37.568  10.978
16254W        W80462  15.113  40.502   1.871
16255W        W80463  41.462  43.790   1.395
16256W        W80464  10.140   8.861   1.337
16257W        W80465  37.539  22.634   5.153
16258W        W80466  10.203   1.920  13.977
16259W        W80467   8.829  12.211   1.804
16260W        W80468   2.284  34.887  12.051
16261W        W80469  43.951  20.155  10.972
16262W        W80470  39.409  14.821   0.343
16263W        W80471  27.977  23.503   2.340
16264W        W80472  11.355   0.845  14.440
16265W        W80473   7.807   4.301  14.500
16266W        W80474  37.511  38.423  10.438
16267W        W80475  17.663  16.793  11.867
16268W        W80476  14.689  27.982   2.193
16269W        W80477  14.172  22.139   1.324
16270W        W80478  18.164  32.016   4.763
16271W        W80479  15.821  34.541   1.361
16272W        W80480  28.581  21.172  14.967
16273W        W80481  39.934  30.435  13.059
16274W        W80482   3.772   8.895  14.011
16275W        W80483  24.538   6.792  13.847
16276W        W80484  13.162  35.553   1.332
16277W        W80485  37.872  29.919  12.966
16278W        W80486   4.801  29.571  11.450
16279W        W80487  38.873  26.675  13.937
16280W        W80488  12.649  29.525  14.864
16281W        W80489  28.133  44.314  11.999
16282W        W80490  41.528  27.111   0.389
16283W        W80491  20.041   4.812   4.339
16284W        W80492  43.456  34.933  14.908
16285W        W80493  31.904   2.893   2.347
16286W        W80494  41.798  23.489   2.286
16287W        W80495  34.995   5.200   2.821
16288W        W80496  35.065  31.625  12.841
16289W        W80497  41.390  32.127  11.568
16290W        W80498  42.524  22.037   3.827
16291W        W80499  32.467  27.976  12.515
16292W        W80500  10.837  25.029  11.455
16293W        W80501   9.669   0.426  13.957
16294W        W80502   7.298   0.329  11.867
16295W        W80503   8.898  17.136  10.509
16296W        W80504  28.626   6.409   3.321
16297W        W80505  31.144  19.164   2.835
16298W        W80506  38.428   1.434  11.914
16299W        W80507  14.628  18.603  13.020
16300W        W80508  15.689  38.063   4.346
16301W        W80509  24.482   4.216  12.444
16302W        W80510   2.285  27.459   0.907
16303W        W80511  25.031  28.518   0.868
16304W        W80512  11.803   5.416   1.806
16305W        W80513  15.702   6.357  11.412
16306W        W80514  21.649  37.551  14.445
16307W        W80515  32.517  20.655  13.939
16308W        W80516  15.083  16.288  11.946
16309W        W80517  31.084  33.032  12.977
16310W        W80518  25.632  39.497   4.147
16311W        W80519  25.614   2.845   4.802
16312W        W80520  10.723   3.215  14.423
16313W        W80521  42.812  37.893   4.832
16314W        W80522  37.833  17.644   9.646
16315W        W80523  30.468  30.915  14.363
16316W        W80524  41.833  14.138   3.869
16317W        W80525  31.603  28.458   3.642
16318W        W80526  19.266  10.282   3.169
16319W        W80527  18.163   7.859  11.953
16320W        W80528  37.848  28.537   2.791
16321W        W80529  33.490  21.735   2.801
16322W        W80530  34.949  16.243   1.783
16323W        W80531  33.507  20.593   0.764
16324W        W80532  30.528  22.535  12.426
16325W        W80533  24.620  14.316   3.735
16326W        W80534  11.704  38.015   0.314
16327W        W80535  42.021  15.310   2.400
16328W        W80536   0.250  13.623   3.689
16329W        W80537   5.831  23.224   1.247
16330W        W80538  34.428  29.565   1.854
16331W        W80539  18.275  27.960  14.928
16332W        W80540  32.614   9.670  12.947
16333W        W80541   3.328  31.538   2.671
16334W        W80542  16.079  34.374   1.813
16335W        W80543  21.573  20.206  11.565
16336W        W80544   5.425   0.248   4.810
16337W        W80545  42.389  41.373  12.383
16338W        W80546  44.959  26.174  14.988
16339W        W80547  25.510  16.154   0.309
16340W        W80548   4.262   1.460   1.717
16341W        W80549  21.120  14.624   1.246
16342W        W80550   4.759   1.352   0.301
16343W        W80551  44.918  42.007   1.728
16344W        W80552   3.811  18.134  12.341
16345W        W80553  18.670   8.888  13.933
16346W        W80554  17.582  16.809  10.129
16347W        W80555  19.181  21.542  11.128
16348W        W80556   2.822  44.336  10.421
16349W        W80557   7.777  15.648  11.475
16350W        W80558  24.196  13.315   5.131
16351W        W80559  42.913  42.844   1.713
16352W        W80560   7.708  15.638   1.750
16353W        W80561   2.375   0.988   0.729
16354W        W80562  22.554   1.287  11.093
16355W        W80563  33.049  34.034   3.267
16356W        W80564  13.713  32.104   2.800
16357W        W80565  25.530   3.340  13.458
16358W        W80566  42.312  17.274   4.838
16359W        W80567  16.186   9.773   0.377
16360W        W80568  29.105  12.242  11.374
16361W        W80569   6.257   0.466   0.749
16362W        W80570  10.836  18.658  12.536
16363W        W80571  25.161  17.606   1.854
16364W        W80572   0.764  23.002   0.429
16365W        W80573  42.995  25.484   3.264
16366W        W80574  39.891  17.580   2.372
16367W        W80575  23.127  31.978   0.342
16368W        W80576  43.422  38.963   9.929
16369W        W80577  18.100  28.052   2.403
16370W        W80578   2.402  30.039   0.397
16371W        W80579  17.065  33.069   0.744
16372W        W80580  17.171  42.373   4.772
16373W        W80581  17.235   7.278   2.684
16374W        W80582   8.275   6.677  11.110
16375W        W80583  19.138  38.937  12.881
16376W        W80584  18.767  29.923  14.873
16377W        W80585  36.386  33.418  11.604
16378W        W80586  33.603  27.572  14.791
16379W        W80587  39.064  33.022   4.717
16380W        W80588  44.896  37.027  10.609
16381W        W80589  37.922  26.698  11.865
16382W        W80590   1.975   5.777  11.451
16383W        W80591  31.613  23.202  12.443
16384W        W80592  20.135  21.633   4.323
16385W        W80593  13.611  10.229  13.510
16386W        W80594  13.761  31.935   0.810
16387W        W80595  44.455  11.848   4.216
16388W        W80596  24.534  13.680   3.277
16389W        W80597   4.801  17.202  14.836
16390W        W80598  29.055  15.133   3.818
16391W        W80599  27.468  23.491   1.877
16392W        W80600   1.318   6.367  11.942
16393W        W80601  37.478  16.788  14.364
16394W        W80602  34.119   7.669  14.867
16395W        W80603  25.045   1.863   0.854
16396W        W80604  19.755  18.160  11.463
16397W        W80605  16.574  29.013  11.933
16398W        W80606  29.662  24.978   1.744
16399W        W80607  31.438  23.161  14.478
16400W        W80608   5.824  35.401  14.504
16401W        W80609  14.699  40.312   4.650
16402W        W80610  33.016  32.437   4.157
16403W        W80611  11.770  33.531   3.350
16404W        W80612  34.120  20.233   4.334
16405W        W80613  37.504  23.609  13.882
16406W        W80614   3.454  23.569  12.960
16407W        W80615   9.204  12.297  12.055
16408W        W80616  18.603  41.370  14.301
16409W        W80617  11.653   2.451  11.421
16410W        W80618  11.153   9.659  12.876
16411W        W80619  43.970   7.890  13.025
16412W        W80620  10.273  30.965   2.348
16413W        W80621   5.730  33.618   1.242
16414W        W80622  33.461  37.377  14.392
16415W        W80623   7.878  10.241  12.522
16416W        W80624   6.260   0.371  11.496
16417W        W80625  30.064   9.320   2.379
16418W        W80626  29.959  28.524  13.872
16419W        W80627  40.031  21.653   5.200
16420W        W80628   1.828  22.667  11.868
16421W        W80629  11.249  37.911  10.514
16422W        W80630  18.732  13.306  14.469
16423W        W80631  26.112  11.281   1.799
16424W        W80632   8.821  23.023  12.509
16425W        W80633   8.314   9.791  13.984
16426W        W80634  37.058  13.315   2.290
16427W        W80635  27.667   6.711  13.993
16428W        W80636  37.453  41.992   0.808
16429W        W80637   6.260  21.044   2.694
16430W        W80638  28.546  32.097  14.376
16431W        W80639  10.183  20.640  14.946
16432W        W80640   0.760  15.120   3.328
16433W        W80641  40.321   5.816  10.630
16434W        W80642  42.486  22.159   1.720
16435W        W80643   2.400  35.962   2.674
16436W        W80644  22.743  19.658  11.481
16437W        W80645  40.412  20.556  12.355
16438W        W80646   9.740  38.049   0.255
16439W        W80647   4.415  18.592  12.469
16440W        W80648   1.437  25.505   2.256
16441W        W80649   8.770  41.343   1.842
16442W        W80650  13.226  15.783   1.342
16443W        W80651   5.369  29.491   4.225
16444W        W80652  44.335  12.329  13.895
16445W        W80653  42.019  23.057  13.351
16446W        W80654   4.380  12.694  11.397
16447W        W80655  17.159  23.698  10.948
16448W        W80656  19.650  39.416  12.498
16449W        W80657  18.662  17.746   0.263
16450W        W80658  26.534  26.703   9.982
16451W        W80659  41.951   5.281   5.242
16452W        W80660  40.864  14.106   0.321
16453W        W80661  42.366   9.756   0.787
16454W        W80662  27.534   6.813   3.167
16455W        W80663   0.484  16.163  13.307
16456W        W80664  21.674  15.805   4.772
16457W        W80665   4.913  29.656   3.209
16458W        W80666   0.293  36.981  12.853
16459W        W80667  42.302   5.822   2.404
16460W        W80668  44.336  13.667   4.738
16461W        W80669  16.109  17.154  10.626
16462W        W80670  19.160  41.039  13.037
16463W        W80671  26.201  44.847   1.217
16464W        W80672  34.546  28.671   0.755
16465W        W80673  21.118  19.565   1.726
16466W        W80674   8.215  38.550  13.847
16467W        W80675  32.940   2.852  14.793
16468W        W80676  35.855  40.423  10.601
16469W        W80677  33.622  26.035  11.557
16470W        W80678  33.427   0.808  10.968
16471W        W80679  26.187  21.136  13.385
16472W        W80680  38.561  11.332  12.512
16473W        W80681   0.935  44.890   3.680
16474W        W80682  14.736  29.152   1.841
16475W        W80683  31.410  27.504   4.740
16476W        W80684  23.202  38.403   4.342
16477W        W80685  10.733  28.133  12.371
16478W        W80686  19.126  34.498  14.364
16479W        W80687  42.895   0.430  12.435
16480W        W80688  27.522  10.205  10.482
16481W        W80689  23.070  43.385  11.478
16482W        W80690   9.684  13.663  14.881
16483W        W80691  36.519  32.912   0.730
16484W        W80692  17.180  25.995  11.107
16485W        W80693  32.423  31.100   0.388
16486W        W80694  38.484  37.449  13.510
16487W        W80695  24.155   0.922  14.324
16488W        W80696  40.002  32.429  13.848
16489W        W80697  32.976  44.928   0.736
16490W        W80698  34.439  16.157   4.597
16491W        W80699  43.924   0.758   4.122
16492W        W80700   8.863   7.687   0.458
16493W        W80701   4.362  24.222  14.447
16494W        W80702  38.941  43.475  13.036
16495W        W80703  37.883  40.530  11.494
16496W        W80704  17.273   9.351   3.238
16497W        W80705  13.691  23.497  13.024
16498W        W80706  29.097  23.676   0.339
16499W        W80707  31.608  23.691  11.512
16500W        W80708  15.741   4.290  11.883
16501W        W80709  12.294  25.207  10.940
16502W        W80710  15.115  20.669   2.415
16503W        W80711  15.585  40.330  14.854
16504W        W80712  38.536  28.984  14.968
16505W        W80713  13.138   3.355  10.501
16506W        W80714  43.772  40.850   4.722
16507W        W80715  30.957  12.206   2.209
16508W        W80716  18.699  41.930   1.294
16509W        W80717  32.501  38.076  11.025
16510W        W80718   8.827   3.221   0.315
16511W        W80719  21.730  37.908  11.586
16512W        W80720   7.267   1.752  12.409
16513W        W80721  39.856   2.443   4.601
16514W        W80722   1.906  15.097  11.382
16515W        W80723  22.599  41.896  12.457
16516W        W80724   4.238  18.066   3.732
16517W        W80725  28.642  38.890  13.427
16518W        W80726  28.627  42.926   0.434
16519W        W80727   9.823   2.244   0.246
16520W        W80728  34.404  22.598  12.993
16521W        W80729  30.909  33.080   2.324
16522W        W80730   0.804  36.473   2.713
16523W        W80731  16.121   0.775   0.262
16524W        W80732  31.948   6.220  11.442
16525W        W80733  31.005  21.247   2.270
16526W        W80734  17.575  39.448   2.409
16527W        W80735  30.968  11.208  14.891
16528W        W80736  27.528  40.501  13.918
16529W        W80737  34.904  25.112   1.856
16530W        W80738  11.322  15.178   1.729
16531W        W80739  16.597   6.779   4.835
16532W        W80740   1.914   3.450  12.912
16533W        W80741  38.447  43.304  11.864
16534W        W80742  23.666  27.512  13.964
16535W        W80743  34.992  28.504   3.721
16536W        W80744  28.487  24.570   4.671
16537W        W80745  31.094  37.488  12.466
16538W        W80746   8.859   2.365  12.447
16539W        W80747   5.737  19.049   0.468
16540W        W80748  40.024  21.174   0.302
16541W        W80749  38.493   3.860  14.331
16542W        W80750  10.367  11.635   9.535
16543W        W80751  30.057  26.110  14.379
16544W        W80752   1.845   1.361  10.140
16545W        W80753  33.003  26.971   3.319
16546W        W80754  34.592   1.933   4.247
16547W        W80755  34.044  24.224  11.058
16548W        W80756  39.412   0.771  13.875
16549W        W80757  21.655   3.760   1.277
16550W        W80758  15.182   8.177   2.187
16551W        W80759  14.759   5.216  10.891
16552W        W80760   0.333  28.054   5.109
16553W        W80761  33.932  24.026  12.402
16554W        W80762  18.242  34.440  14.015
16555W        W80763  29.590  19.607  13.506
16556W        W80764  35.970  34.005  13.510
16557W        W80765  37.932  20.166   4.605
16558W        W80766  19.229   3.346  14.884
16559W        W80767  27.035  36.912   2.811
16560W        W80768  29.517   2.963   0.244
16561W        W80769  33.094   9.162   2.253
16562W        W80770  44.270  17.679   5.147
16563W        W80771  12.672   9.789  12.369
16564W        W80772  21.018  13.607   4.283
16565W        W80773  43.409  28.518  11.001
16566W        W80774  27.187  21.741  14.953
16567W        W80775  41.991  22.577   3.725
16568W        W80776  35.967   7.338  14.824
16569W        W80777   9.354  22.632  10.081
16570W        W80778  16.754  38.570   0.759
16571W        W80779   0.788  17.710   0.936
16572W        W80780  34.083   8.770  13.375
16573W        W80781   7.806  28.617   0.914
16574W        W80782  44.924  35.542   2.769
16575W        W80783   9.291  23.214  13.022
16576W        W80784  13.196  15.820  10.611
16577W        W80785  35.362  44.940  12.944
16578W        W80786   1.369  27.067   3.681
16579W        W80787  16.219  15.086  14.376
16580W        W80788   8.189  18.258  13.378
16581W        W80789   8.794  40.817  12.050
16582W        W80790   1.422  27.687   3.265
16583W        W80791  11.343  16.073  11.056
16584W        W80792  21.051   3.833   0.383
16585W        W80793  43.449  44.278   4.287
16586W        W80794  35.887   0.837  10.565
16587W        W80795  39.420  18.263  14.998
16588W        W80796  14.681   3.262  14.332
16589W        W80797  40.494  31.067  11.925
16590W        W80798  30.005  14.324  14.479
16591W        W80799  36.908  32.415  11.002
16592W        W80800   5.730   0.428   1.753
16593W        W80801  35.906   4.414   4.642
16594W        W80802  20.224  12.667  13.039
16595W        W80803  12.291  16.229  10.541
16596W        W80804  12.653  31.415   0.808
16597W        W80805  34.868  14.828   4.219
16598W        W80806  24.091  30.024  10.598
16599W        W80807   9.752  26.053  12.464
16600W        W80808   2.232   2.882  12.381
16601W        W80809  40.433  29.585   3.342
16602W        W80810  10.668  26.519  12.948
16603W        W80811  42.791   3.938   2.366
16604W        W80812   4.278  15.765   0.356
16605W        W80813  32.622  16.168   4.324
16606W        W80814  15.219  27.134  13.538
16607W        W80815  19.276  41.925   1.881
16608W        W80816  24.618  17.659  11.936
16609W        W80817  39.899  15.189   4.240
16610W        W80818  17.241  41.954  14.475
16611W        W80819  21.683  33.128   2.293
16612W        W80820   8.265  23.231   4.793
16613W        W80821  24.713  44.446   3.277
16614W        W80822  27.690   6.333  12.982
16615W        W80823  30.500   7.748  11.608
16616W        W80824  15.783  21.154   0.267
16617W        W80825  27.513  12.118   3.729
16618W        W80826  28.517  20.148   4.114
16619W        W80827  11.270  42.914   3.788
16620W        W80828  13.268  19.069   2.394
16621W        W80829  14.704  19.176   1.448
16622W        W80830  15.680  35.043   2.809
16623W        W80831   9.800  17.099   1.915
16624W        W80832  39.038  27.687   3.749
16625W        W80833  13.731  13.192  13.923
16626W        W80834  16.109   4.240   3.802
16627W        W80835  30.978  15.202  14.308
16628W        W80836  18.169  10.812  13.372
16629W        W80837  37.032  42.392  14.298
16630W        W80838  12.351  28.157  14.881
16631W        W80839   7.175  37.019  11.589
16632W        W80840   9.829  24.084  11.451
16633W        W80841  38.345  27.604   3.759
16634W        W80842  27.685  23.514   3.757
16635W        W80843  30.542  44.988   1.329
16636W        W80844  44.979  36.519   0.762
16637W        W80845  12.213  28.109  11.468
16638W        W80846  17.775   2.893   4.229
16639W        W80847   5.405   3.790   0.322
16640W        W80848  13.165  24.606   0.299
16641W        W80849  36.907  10.651  13.959
16642W        W80850  35.000  15.122   1.391
16643W        W80851  17.784  24.507  12.836
16644W        W80852  41.901   1.731  10.478
16645W        W80853  18.158   3.366   4.797
16646W        W80854  13.723  21.738   0.938
16647W        W80855  21.222  26.150   0.421
16648W        W80856  18.729  27.179  11.960
16649W        W80857  10.145  22.502   0.930
16650W        W80858  28.511  31.503  12.085
16651W        W80859  43.287  28.135   3.264
16652W        W80860  14.621  10.166  10.057
16653W        W80861  39.553  34.555  13.505
16654W        W80862  30.586   7.841   2.889
16655W        W80863  38.967   5.820  12.063
16656W        W80864  18.056  33.915  13.502
16657W        W80865  10.265   1.263   1.239
16658W        W80866   2.426  28.526   0.861
16659W        W80867  29.452  35.876  11.592
16660W        W80868  23.710  18.115   2.691
16661W        W80869  41.355  29.921   3.166
16662W        W80870  32.134  24.181   0.845
16663W        W80871  41.024  38.479  10.941
16664W        W80872  40.022   4.330   0.766
16665W        W80873  41.419   2.842   3.774
16666W        W80874  36.897   2.260  12.471
16667W        W80875  12.780  21.537   4.634
16668W        W80876   8.222  27.661  14.474
16669W        W80877   9.819  26.533   0.331
16670W        W80878   6.428   1.937  12.405
16671W        W80879  30.504   3.380   3.799
16672W        W80880  30.990  11.370   2.298
16673W        W80881  20.554   1.467   3.320
16674W        W80882  19.763  11.345  11.878
16675W        W80883   2.875   9.661  12.382
16676W        W80884   2.234  17.743   3.352
16677W        W80885  19.605  29.139  14.992
16678W        W80886   1.366  29.469  11.088
16679W        W80887  29.446  34.531  12.403
16680W        W80888  11.302   3.910   4.295
16681W        W80889  42.524   1.919  11.111
16682W        W80890  35.376  38.511  11.595
16683W        W80891   3.381  24.199  13.816
16684W        W80892  17.765  26.977  10.941
16685W        W80893  27.122  35.073  11.122
16686W        W80894  27.637  39.557   0.247
16687W        W80895  13.286  29.487  13.970
16688W        W80896   9.886  16.085  14.320
16689W        W80897  24.487  28.037  14.964
16690W        W80898  24.086  24.630  12.035
16691W        W80899  15.770  27.058  10.897
16692W        W80900  30.498  30.576   2.770
16693W        W80901   3.282  26.108  11.064
16694W        W80902  19.283   2.820  14.995
16695W        W80903  12.217  33.062   0.737
16696W        W80904  36.859  32.981  10.625
16697W        W80905  27.196  29.570   0.902
16698W        W80906  25.562  28.014   3.318
16699W        W80907  10.760   0.826  13.871
16700W        W80908  24.229  42.430   4.626
16701W        W80909  32.519  44.500  14.954
16702W        W80910  34.608  23.600  13.893
16703W        W80911  30.587  24.031  11.438
16704W        W80912  39.484  12.137   4.269
16705W        W80913  32.619  42.883   0.874
16706W        W80914  12.308  42.009   0.738
16707W        W80915  35.021  44.845  13.884
16708W        W80916  16.168   1.943  10.634
16709W        W80917  25.187  16.273  14.332
16710W        W80918  11.691  25.566   4.696
16711W        W80919  15.793   3.434  10.952
16712W        W80920  16.147  28.483  11.393
16713W        W80921  43.845  39.825  14.425
16714W        W80922  36.965  40.339  11.008
16715W        W80923  26.648  14.106  10.489
16716W        W80924   6.422   5.823  10.137
16717W        W80925  29.598  24.581   4.808
16718W        W80926  36.056  40.839   4.838
16719W        W80927  21.755  16.273   1.418
16720W        W80928  44.945  38.567   4.661
16721W        W80929   3.886  41.422   4.263
16722W        W80930  24.563   6.275   1.888
16723W        W80931  31.567  29.472  14.866
16724W        W80932  15.153  12.788  12.473
16725W        W80933  34.500  32.134  12.846
16726W        W80934  25.134  24.512  12.381
16727W        W80935  40.371  13.133  10.605
16728W        W80936  15.173   2.273  12.564
16729W        W80937  34.864  22.116  11.475
16730W        W80938  40.436  23.677  11.516
16731W        W80939  26.555  21.110  12.067
16732W        W80940  43.486   3.401  13.368
16733W        W80941  36.882  40.876  11.385
16734W        W80942  38.464  30.658   3.261
16735W        W80943  15.159  28.143   4.757
16736W        W80944  14.101   9.321  14.450
16737W        W80945  10.749  36.584  12.954
16738W        W80946  21.077  28.955   2.355
16739W        W80947   3.380  12.241   2.794
16740W        W80948  19.114  42.469  11.936
16741W        W80949  32.442  29.613   3.731
16742W        W80950  43.772  38.519   3.674
16743W        W80951  44.996  36.417  10.125
16744W        W80952  24.114  18.780  11.566
16745W        W80953  15.609  30.470  11.976
16746W        W80954   0.808   8.864  11.900
16747W        W80955  43.287  26.615  13.376
16748W        W80956  13.612  29.963   3.220
16749W        W80957   2.927  28.672  10.914
16750W        W80958  14.608  30.579  12.512
16751W        W80959  44.321  33.077  12.477
16752W        W80960  36.480  33.888  14.284
16753W        W80961  34.904   9.166  13.043
16754W        W80962  31.997   1.744   3.835
16755W        W80963  24.072   1.806   4.829
16756W        W80964   1.320  36.854  14.898
16757W        W80965   9.827  27.992  12.458
16758W        W80966   6.295  20.766  13.467
16759W        W80967  14.815  26.569   4.722
16760W        W80968  24.081  22.716   1.275
16761W        W80969  12.167  42.475  14.466
16762W        W80970  38.984   3.863  14.773
16763W        W80971  14.282   3.245  11.957
16764W        W80972  17.262  44.375   5.296
16765W        W80973  14.619  22.055  13.023
16766W        W80974   0.357  36.433   3.714
16767W        W80975   5.294   5.331  10.575
16768W        W80976  33.516   8.327  11.094
16769W        W80977  23.097  39.934   4.718
16770W        W80978  31.107  43.966  12.059
16771W        W80979  28.540  17.569  11.925
16772W        W80980  17.300  14.105   5.209
16773W        W80981   2.343  16.277   1.230
16774W        W80982  19.572  28.954   1.826
16775W        W80983  13.287   9.829   1.358
16776W        W80984  13.304  37.051  13.414
16777W        W80985  22.058  37.074   0.909
16778W        W80986  30.053  37.354   2.802
16779W        W80987  16.811  14.729   1.439
16780W        W80988  25.170  41.479   3.752
16781W        W80989   6.698   2.370  11.071
16782W        W80990   9.872  40.952  13.981
16783W        W80991  42.947   7.743   3.232
16784W        W80992  44.931   0.256  14.905
16785W        W80993   3.817  43.812  13.453
16786W        W80994  43.006   9.791   2.850
16787W        W80995  39.876  33.461   2.274
16788W        W80996  21.641   7.256   3.351
16789W        W80997  36.947  35.535  11.995
16790W        W80998   0.389  17.557   0.395
16791W        W80999  39.410  15.669   3.350
16792W        W81000  23.657  30.549   1.933
16793W        W81001  29.006  39.317  11.924
16794W        W81002   6.798   1.434   4.628
16795W        W81003  35.373   9.171  14.794
16796W        W81004  35.880  25.058   4.727
16797W        W81005  13.323  31.970  14.778
16798W        W81006  31.610  44.344  10.570
16799W        W81007  33.410  40.428   2.781
16800W        W81008  24.686  41.024   3.334
16801W        W81009  25.087  33.026   2.214
16802W        W81010   7.410  44.336  11.873
16803W        W81011  27.453   9.393  10.530
16804W        W81012  44.487  12.350  14.881
16805W        W81013  11.152  40.376   0.468
16806W        W81014  31.450  29.069   4.643
16807W        W81015  17.258  28.961   2.351
16808W        W81016  20.039  33.590   1.809
16809W        W81017  15.608   7.370  11.891
16810W        W81018  37.529  30.619  13.523
16811W        W81019   6.741  34.923   4.187
16812W        W81020   1.314   0.306  10.979
16813W        W81021   7.687  23.053  12.865
16814W        W81022  11.177  39.345   3.320
16815W        W81023   4.905  13.807   0.401
16816W        W81024  30.990  13.824  10.630
16817W        W81025   0.795  31.953   3.683
16818W        W81026  41.806   0.981   3.307
16819W        W81027  39.484  27.156   2.740
16820W        W81028   0.327  30.960  12.863
16821W        W81029   8.725   7.225   0.842
16822W        W81030  32.048  35.859   0.286
16823W        W81031  44.935  13.632   1.359
16824W        W81032  12.198  10.802   4.765
16825W        W81033  31.101  33.959  14.905
16826W        W81034  34.457  13.112  14.885
16827W        W81035  11.765   0.886   0.757
16828W        W81036  13.145  11.217  11.420
16829W        W81037  26.461  16.577  11.984
16830W        W81038  14.817  14.103  13.339
16831W        W81039  40.461  42.934  13.864
16832W        W81040  37.356  28.119   3.792
16833W        W81041  33.123   7.276   2.714
16834W        W81042  17.067  31.986   4.304
16835W        W81043  28.585  44.280  10.491
16836W        W81044  12.711  25.674   2.745
16837W        W81045  41.991  31.098   4.154
16838W        W81046  33.453  38.070  10.547
16839W        W81047  38.952  19.753  14.800
16840W        W81048   6.226   2.800  12.061
16841W        W81049  37.947  21.204   4.172
16842W        W81050  18.660  41.890  12.350
16843W        W81051  24.193   5.310  14.832
16844W        W81052  30.122  17.165   0.314
16845W        W81053   3.363  21.661  12.095
16846W        W81054   4.210  12.804   3.338
16847W        W81055  17.700  13.177   0.255
16848W        W81056  30.504   3.380   2.676
16849W        W81057  16.088   1.392   0.823
16850W        W81058   6.323  42.943   0.873
16851W        W81059  34.528  11.197   3.748
16852W        W81060  39.381  28.631   2.742
16853W        W81061  40.542  43.291  11.071
16854W        W81062  29.070  28.534   0.811
16855W        W81063  26.538  37.913   2.900
16856W        W81064  17.579  40.389   2.230
16857W        W81065  25.475  24.593  12.347
16858W        W81066   6.830  43.870  11.554
16859W        W81067   1.933   5.263   4.184
16860W        W81068   3.740  15.175   0.844
16861W        W81069  11.741  23.153  10.971
16862W        W81070  12.162   6.319  10.460
16863W        W81071  30.153   8.730   1.302
16864W        W81072   1.433  33.993   1.211
16865W        W81073   9.317  41.808  12.420
16866W        W81074   4.881   3.897  11.919
16867W        W81075  32.011  37.492   4.673
16868W        W81076  40.894  24.583   2.398
16869W        W81077  31.607   5.852   2.817
16870W        W81078  44.950  27.972  14.870
16871W        W81079  40.378  39.842   2.695
16872W        W81080   6.731  39.419   1.361
16873W        W81081  34.977  36.861   1.399
16874W        W81082   5.394   2.777   0.913
16875W        W81083  20.128  35.911  13.824
16876W        W81084   9.867  24.170   0.916
16877W        W81085  34.023  36.960  14.306
16878W        W81086  43.314  11.726  10.511
16879W        W81087  14.271   0.341   4.154
16880W        W81088  29.027  37.984  10.470
16881W        W81089  30.533  19.740  12.368
16882W        W81090  31.465   4.314   0.756
16883W        W81091   3.358  13.765  11.557
16884W        W81092  28.117  28.076  14.018
16885W        W81093  29.445  39.844  12.832
16886W        W81094  29.540  25.076  14.809
16887W        W81095  31.507  13.293   2.762
16888W        W81096   0.824  16.084  11.984
16889W        W81097  24.149   1.854   5.285
16890W        W81098  28.081  41.389  14.809
16891W        W81099  34.030   0.328  12.384
16892W        W81100  41.413   2.356   2.854
16893W        W81101   1.364  44.803   0.852
16894W        W81102   7.866  18.200  11.051
16895W        W81103  28.120  25.508  13.536
16896W        W81104  15.641  10.197  10.931
16897W        W81105  12.362  38.503  12.926
16898W        W81106  21.024  36.935   2.830
16899W        W81107  12.719  18.247  10.937
16900W        W81108   4.403  37.890  13.958
16901W        W81109  33.938  13.691  14.338
16902W        W81110   2.280  24.141   0.352
16903W        W81111  34.009  41.003  13.048
16904W        W81112  37.076  29.500   0.447
16905W        W81113  39.429  43.930  14.917
16906W        W81114  20.712  41.943   0.767
16907W        W81115  28.020   8.726   5.279
16908W        W81116  10.138  25.540   0.913
16909W        W81117  34.460  23.153   2.262
16910W        W81118   4.706  38.430   0.947
16911W        W81119  15.099  11.833   0.746
16912W        W81120  35.517  42.798   2.222
16913W        W81121  15.108   5.244   3.775
16914W        W81122  11.290  18.244   0.914
16915W        W81123  42.808  17.152   9.491
16916W        W81124  26.004  15.290  11.467
16917W        W81125  39.376  43.776   2.806
16918W        W81126  14.159  19.045   0.357
16919W        W81127  27.570  14.281  11.010
16920W        W81128  15.676  14.740  12.492
16921W        W81129   3.412  32.965  12.477
16922W        W81130  12.116   6.919   0.778
16923W        W81131   3.411   6.255   2.742
16924W        W81132  28.663  29.926  10.555
16925W        W81133   6.224  21.110   3.699
16926W        W81134  13.283  24.500   3.828
16927W        W81135  30.564  21.077   3.190
16928W        W81136  16.269  41.882  12.889
16929W        W81137   0.804  33.985   4.311
16930W        W81138  43.802  20.744   3.147
16931W        W81139  12.726  32.888   3.847
16932W        W81140  16.572   7.211  13.328
16933W        W81141  26.602  17.277  13.828
16934W        W81142   2.410   1.967  12.879
16935W        W81143  23.596  12.750  12.070
16936W        W81144  12.212  27.563  14.810
16937W        W81145   9.196  13.213  14.897
16938W        W81146   3.823  16.211   2.275
16939W        W81147  39.972  16.708  10.541
16940W        W81148  21.208   5.376   4.214
16941W        W81149  32.988  27.027   2.402
16942W        W81150  22.018  14.206  14.421
16943W        W81151  44.323   0.462   3.320
16944W        W81152  18.248  40.381  10.541
16945W        W81153  40.338   9.735   4.184
16946W        W81154  22.135  14.278  14.030
16947W        W81155  31.610  14.180  11.908
16948W        W81156  24.140  28.956   3.696
16949W        W81157  44.986  36.498  13.539
16950W        W81158  32.607  17.073  14.471
16951W        W81159  18.277  13.681   4.801
16952W        W81160   2.963  21.731   2.711
16953W        W81161   0.424   6.313  14.810
16954W        W81162   8.206  38.404  11.961
16955W        W81163   3.900  26.531  11.540
16956W        W81164  12.780  15.694  13.461
16957W        W81165  26.503   8.253   4.768
16958W        W81166  34.951   8.822  11.473
16959W        W81167   0.969  11.735  12.953
16960W        W81168  32.900  13.691   2.704
16961W        W81169  15.099  23.020  11.390
16962W        W81170  29.068  30.096   1.447
16963W        W81171  11.299   5.350  14.405
16964W        W81172  44.423   3.446  13.889
16965W        W81173  18.767  10.878   1.226
16966W        W81174  31.643   1.957  11.378
16967W        W81175  18.587  39.020  14.913
16968W        W81176  40.419  14.210   3.831
16969W        W81177   1.830   3.843  12.892
16970W        W81178   4.705  44.417  14.786
16971W        W81179  17.070   2.323   0.899
16972W        W81180  38.393   9.860  14.911
16973W        W81181  25.713  35.477   1.319
16974W        W81182   6.694  18.682  14.488
16975W        W81183  17.700   0.798  13.955
16976W        W81184  36.006  32.981  12.000
16977W        W81185  26.596  13.754  10.588
16978W        W81186  41.467  25.116   2.338
16979W        W81187  38.901  15.128   0.429
16980W        W81188   1.366  17.114  12.069
16981W        W81189  21.047  26.634   1.218
16982W        W81190   2.950   2.859   3.327
16983W        W81191  21.196   5.321   3.233
16984W        W81192  17.241  43.834  10.527
16985W        W81193  17.240  39.404  12.473
16986W        W81194   5.931  37.851  14.841
16987W        W81195  40.356  36.017   3.332
16988W        W81196  40.304  16.763   5.157
16989W        W81197  11.775  24.163   0.402
16990W        W81198  17.087  23.124   0.931
16991W        W81199  42.937  17.256  14.770
16992W        W81200  25.676   3.894   0.913
16993W        W81201  35.409   9.652   3.157
16994W        W81202  29.610  26.160   1.240
16995W        W81203  22.158  36.528   1.904
16996W        W81204  22.107  22.618  12.032
16997W        W81205  22.102  27.964   1.896
16998W        W81206  32.574  21.549   3.187
16999W        W81207   7.669  40.974   1.839
17000W        W81208  43.007   8.353  13.459
17001W        W81209  38.964  15.734   0.337
17002W        W81210  31.142  37.339   4.323
17003W        W81211  22.148  34.877  14.844
17004W        W81212   7.396  15.182   4.252
17005W        W81213  11.746  21.668  14.770
17006W        W81214   5.777  22.110   3.852
17007W        W81215  31.435  39.948   0.464
17008W        W81216  13.750  25.214  10.459
17009W        W81217   4.365   1.300  11.520
17010W        W81218  37.561  29.987   3.862
17011W        W81219  26.057   6.805  10.898
17012W        W81220   0.952  30.604  14.799
17013W        W81221   4.864  12.750   3.235
17014W        W81222   6.371  44.288   0.958
17015W        W81223  34.425   3.349   0.798
17016W        W81224   0.823  38.887   1.210
17017W        W81225   0.441  10.858   4.238
17018W        W81226  37.072  16.178   1.228
17019W        W81227  11.715  26.690   0.338
17020W        W81228  24.717  26.481   4.140
17021W        W81229  40.427   7.814  11.456
17022W        W81230  20.719  36.452  11.038
17023W        W81231  22.643  43.858  11.054
17024W        W81232  23.503  10.300  10.520
17025W        W81233   0.320  37.405   1.915
17026W        W81234  23.677  43.370  10.605
17027W        W81235   0.878  29.628   3.739
17028W        W81236  23.005  44.788  11.593
17029W        W81237  12.283  29.965  12.948
17030W        W81238   5.278  39.970   0.273
17031W        W81239  43.350   7.213  14.336
17032W        W81240   3.242   1.975   5.133
17033W        W81241  33.059   1.335   0.944
17034W        W81242  28.444  20.192   3.693
17035W        W81243  22.007  21.606   4.824
17036W        W81244  31.019  23.067   1.883
17037W        W81245  28.166  40.305   9.936
17038W        W81246  12.289  11.198  10.406
17039W        W81247   2.829  32.969   4.298
17040W        W81248  16.702   9.672   4.166
17041W        W81249  24.151   7.188   3.859
17042W        W81250  14.124  17.563   0.327
17043W        W81251   8.256  16.209  11.397
17044W        W81252  28.070  20.193   0.924
17045W        W81253  33.492  43.930  12.017
17046W        W81254  29.107   4.865  12.856
17047W        W81255   0.447   1.248  10.644
17048W        W81256  19.552  18.645   3.860
17049W        W81257  16.217  10.698   1.428
17050W        W81258  29.658  39.342   1.366
17051W        W81259  23.714  26.031  12.064
17052W        W81260  36.493  36.048  11.981
17053W        W81261   6.740  27.531   3.250
17054W        W81262   9.156  39.859   0.934
17055W        W81263  43.934  15.801  11.086
17056W        W81264   8.276  40.885  14.017
17057W        W81265  41.502   3.802   9.491
17058W        W81266  22.713  25.066  12.921
17059W        W81267  42.801  36.522   4.135
17060W        W81268  41.442  33.078   4.805
17061W        W81269  44.907  14.751   2.415
17062W        W81270   4.784  18.287  13.053
17063W        W81271  28.447  34.490   3.238
17064W        W81272  43.498   9.712  13.330
17065W        W81273  22.060   1.377  13.392
17066W        W81274   1.289   0.387   3.666
17067W        W81275  26.015  44.289  11.558
17068W        W81276  23.698  15.680  11.877
17069W        W81277  40.883  42.990  13.908
17070W        W81278  22.587  10.342  11.873
17071W        W81279  27.532  15.226   0.816
17072W        W81280  22.179  29.616   3.768
17073W        W81281  24.577  12.187   2.675
17074W        W81282  13.287  10.192   2.668
17075W        W81283   9.739   4.223   4.203
17076W        W81284  42.913  10.154   5.245
17077W        W81285   0.894  40.818   1.805
17078W        W81286  40.527   3.414  14.817
17079W        W81287  27.978  29.084   3.775
17080W        W81288   8.327   5.816  13.041
17081W        W81289  20.196   5.760  11.915
17082W        W81290   3.892  12.272   0.433
17083W        W81291  43.874  16.606   4.826
17084W        W81292   4.715   0.826  13.380
17085W        W81293   4.320   7.404   1.706
17086W        W81294  12.682  22.708   3.213
17087W        W81295  21.055   9.677   0.484
17088W        W81296   6.288   0.255  10.915
17089W        W81297   2.960  20.195   3.326
17090W        W81298   9.667  23.718   0.904
17091W        W81299  34.885  17.689   2.726
17092W        W81300  23.202  37.992   4.618
17093W        W81301  13.182  19.165   4.816
17094W        W81302  17.656  37.336   4.152
17095W        W81303   2.368  23.574   5.119
17096W        W81304  17.176  41.874  10.914
17097W        W81305   8.299  21.686   4.290
17098W        W81306   7.171  39.975  14.919
17099W        W81307  11.670  11.170   1.822
17100W        W81308  41.354   1.878  14.849
17101W        W81309   4.408  36.958  13.460
17102W        W81310  40.936  22.521  12.946
17103W        W81311  15.793  37.469  13.377
17104W        W81312   3.365  36.056   3.839
17105W        W81313  12.186  39.978  14.485
17106W        W81314  12.359  27.625   2.262
17107W        W81315  10.173  15.204  10.528
17108W        W81316  17.794   1.327  13.491
17109W        W81317  23.203  44.388  12.031
17110W        W81318  27.032  12.126  10.517
17111W        W81319  29.501  42.971   1.435
17112W        W81320  16.744  28.982   0.769
17113W        W81321  26.698  20.769   1.707
17114W        W81322  10.873  39.554  13.827
17115W        W81323  16.670   6.877  11.050
17116W        W81324   6.411   0.914  10.410
17117W        W81325  12.220  31.645   0.374
17118W        W81326  11.762  44.406   4.116
17119W        W81327  19.575  17.732   2.890
17120W        W81328  42.387  19.249   2.201
17121W        W81329   2.382  44.754  11.953
17122W        W81330  24.643  36.553  11.519
17123W        W81331  15.597  33.415  13.816
17124W        W81332  11.690  42.839   3.153
17125W        W81333  11.290  43.855  14.448
17126W        W81334  31.076  26.675  12.500
17127W        W81335  29.086   1.387  11.425
17128W        W81336  35.468  24.570   4.159
17129W        W81337  37.543  43.872  12.009
17130W        W81338  36.038  35.091  13.823
17131W        W81339  27.568  43.999  12.431
17132W        W81340  21.175  43.857  12.845
17133W        W81341  31.506   1.955   1.825
17134W        W81342   0.789  16.672  14.378
17135W        W81343  36.542   7.760   1.311
17136W        W81344  21.620   0.752  11.595
17137W        W81345   6.358  27.548  10.944
17138W        W81346  34.479  44.825   1.374
17139W        W81347  26.165  21.523   4.762
17140W        W81348   3.298  43.396  10.622
17141W        W81349  15.807  11.141  11.892
17142W        W81350  40.916  19.680  13.436
17143W        W81351  24.710  34.891   2.809
17144W        W81352  36.081  35.892  14.028
17145W        W81353  38.502  37.956   2.768
17146W        W81354   9.888  18.259  11.441
17147W        W81355   8.363  24.222   3.633
17148W        W81356  34.917  15.800   3.777
17149W        W81357   4.776  13.168  11.524
17150W        W81358  32.517   3.357  13.449
17151W        W81359  39.428  31.912   2.192
17152W        W81360   5.234   3.318   5.321
17153W        W81361  43.846  20.576  13.348
17154W        W81362  10.321  35.504  14.819
17155W        W81363   9.251   0.428  11.858
17156W        W81364  11.270   1.743   2.817
17157W        W81365  35.367  16.696  13.817
17158W        W81366  21.089  23.722  13.382
17159W        W81367  20.744  21.727   4.627
17160W        W81368  29.147  39.809   2.894
17161W        W81369  25.088  11.262  11.011
17162W        W81370  16.725  18.149   1.863
17163W        W81371  43.939   8.836  12.869
17164W        W81372  42.302  22.612   1.285
17165W        W81373   6.767  43.407   4.640
17166W        W81374  30.909  39.055   4.173
17167W        W81375   5.279  37.057  13.793
17168W        W81376  44.974  27.115   1.833
17169W        W81377  18.622  21.616   0.256
17170W        W81378  21.240  11.654   2.407
17171W        W81379  43.280  14.635   1.748
17172W        W81380   9.380  10.304   3.866
17173W        W81381  41.512  35.043  11.111
17174W        W81382  31.148  28.651  13.461
17175W        W81383  14.204  43.360   5.278
17176W        W81384   1.397  25.179   2.374
17177W        W81385  38.028  28.130   0.345
17178W        W81386  19.090  27.060   1.828
17179W        W81387  39.022   3.260   0.942
17180W        W81388  13.340  43.940   3.825
17181W        W81389  34.418  25.974   2.901
17182W        W81390   8.777  14.101   4.761
17183W        W81391  40.841  39.336  10.446
17184W        W81392  31.902  18.142   2.864
17185W        W81393  30.440  40.853  13.346
17186W        W81394  29.646  12.127  13.793
17187W        W81395  17.769  29.483   3.647
17188W        W81396  32.438  30.441  10.586
17189W        W81397   4.902  23.726   2.851
17190W        W81398  10.140   2.851  11.075
17191W        W81399  27.197  37.880  12.887
17192W        W81400  34.444   4.850   1.834
17193W        W81401   5.815  16.710   3.698
17194W        W81402   7.232  38.925  14.847
17195W        W81403  14.119  28.163  11.993
17196W        W81404   4.229  42.510   3.332
17197W        W81405  29.168  16.632  13.359
17198W        W81406  15.097  16.799  13.046
17199W        W81407  39.435  13.170  11.468
17200W        W81408  15.707  44.880   2.692
17201W        W81409  22.226  35.860  12.077
17202W        W81410   1.274  15.148  12.911
17203W        W81411  22.534  14.737   3.181
17204W        W81412   4.820  21.728   3.368
17205W        W81413  30.022  25.559   4.219
17206W        W81414  41.396   0.352   3.203
17207W        W81415  18.683   5.806  13.503
17208W        W81416  33.401  16.279   0.843
17209W        W81417  14.139  15.792  12.934
17210W        W81418   1.251  40.348   2.262
17211W        W81419  21.206  23.626   3.686
17212W        W81420  30.036  37.083   4.743
17213W        W81421   4.419  25.651  10.527
17214W        W81422   5.381   5.891  12.422
17215W        W81423  42.488  38.411   1.312
17216W        W81424  31.912  36.916  11.000
17217W        W81425  22.739   4.828  13.064
17218W        W81426  30.636  19.109  12.380
17219W        W81427  43.463  17.216   0.269
17220W        W81428  13.617  11.683   0.821
17221W        W81429  36.481   3.370   1.369
17222W        W81430  36.936  43.962   2.350
17223W        W81431   5.374  11.344  14.499
17224W        W81432  20.526   9.317   2.669
17225W        W81433  10.761  11.721  11.546
17226W        W81434  41.350  19.576   0.928
17227W        W81435  42.835  36.498   4.763
17228W        W81436  24.058  28.112   0.732
17229W        W81437  14.719  25.202   3.806
17230W        W81438  35.523  38.978   3.778
17231W        W81439   8.306  44.388   4.801
17232W        W81440   4.784  38.990   3.145
17233W        W81441  32.585   9.177  12.349
17234W        W81442  29.125  15.190  11.117
17235W        W81443  44.007   2.463   4.173
17236W        W81444  24.221   2.881   0.875
17237W        W81445  13.183  13.323  11.969
17238W        W81446  36.393   2.354   2.685
17239W        W81447   5.381  21.545  13.405
17240W        W81448  21.224  44.912   3.787
17241W        W81449  28.130   0.980   1.795
17242W        W81450  36.465  19.224  12.031
17243W        W81451  33.415   5.803  14.515
17244W        W81452  14.298  20.202  13.978
17245W        W81453  30.990  28.088  11.516
17246W        W81454  21.639  26.066  13.337
17247W        W81455  37.353  17.240  12.978
17248W        W81456  38.382  37.060  13.035
17249W        W81457  18.070  23.498   0.427
17250W        W81458  33.457  26.159   3.779
17251W        W81459  35.366  21.695  11.002
17252W        W81460  25.512   2.397   3.777
17253W        W81461  33.942  20.168   2.347
17254W        W81462  32.887   3.357  14.896
17255W        W81463  10.261   0.255  13.959
17256W        W81464  26.958  23.065   1.240
17257W        W81465  20.583  29.480   2.410
17258W        W81466  28.152  32.915  12.055
17259W        W81467   0.352   2.395  13.020
17260W        W81468  34.107  20.194  13.475
17261W        W81469  28.621  25.971  14.440
17262W        W81470  25.528  15.309   3.674
17263W        W81471  19.688  25.568  10.602
17264W        W81472  26.585  42.323   3.179
17265W        W81473  21.225  29.480   2.405
17266W        W81474   0.310  36.908   1.782
17267W        W81475  19.558   7.252   2.776
17268W        W81476  11.144  32.889  11.373
17269W        W81477  24.512   6.769  12.515
17270W        W81478  13.184   0.304   2.380
17271W        W81479  38.068  32.066  11.121
17272W        W81480   4.446  35.048   1.372
17273W        W81481   6.260   8.171   2.791
17274W        W81482  44.386  43.380   2.383
17275W        W81483   5.290   3.902   2.874
17276W        W81484  23.228  10.232   3.200
17277W        W81485  17.725  35.524   2.282
17278W        W81486   9.720  22.687   1.762
17279W        W81487  11.304  15.721   4.326
17280W        W81488   4.370  30.511  14.779
17281W        W81489  18.121  31.540  12.363
17282W        W81490  32.015  20.118   1.881
17283W        W81491  19.125  39.884   4.293
17284W        W81492   6.415  40.012  11.929
17285W        W81493  27.450   4.338  13.407
17286W        W81494  23.669  19.644  11.533
17287W        W81495  32.408   7.221  11.128
17288W        W81496  11.777  18.155  13.321
17289W        W81497  15.724  12.133   0.394
17290W        W81498  44.477   3.411   1.871
17291W        W81499  14.249  16.643   3.709
17292W        W81500  40.400  29.016  14.345
17293W        W81501  23.691  43.866   0.800
17294W        W81502  34.407   8.819   4.647
17295W        W81503  40.332   6.346   3.331
17296W        W81504  30.059  11.657  10.556
17297W        W81505  41.396  16.137  11.554
17298W        W81506  31.049  34.504  14.984
17299W        W81507   6.803  22.225   3.710
17300W        W81508   0.903  31.977   4.795
17301W        W81509  13.735  37.453  13.447
17302W        W81510  17.670  38.906  12.015
17303W        W81511  43.510  17.657  13.458
17304W        W81512  38.982  44.790   3.165
17305W        W81513  42.934  29.970  10.960
17306W        W81514  10.723  41.354  12.388
17307W        W81515  21.518  26.495   4.797
17308W        W81516   0.404  35.096   4.283
17309W        W81517   2.866  38.423   1.409
17310W        W81518  28.161  35.961   4.630
17311W        W81519  41.938  30.137   1.850
17312W        W81520   2.755   6.863  10.504
17313W        W81521  42.346  22.604  13.383
17314W        W81522  18.069  16.270  13.056
17315W        W81523  16.628  12.769  11.485
17316W        W81524   8.745  19.212   1.421
17317W        W81525  44.961   1.845  13.893
17318W        W81526  34.887  21.067   3.781
17319W        W81527  13.180  34.614   0.942
17320W        W81528  34.578  40.374  14.916
17321W        W81529  10.861  28.634   3.183
17322W        W81530   5.906   5.312   4.820
17323W        W81531  44.411  35.935  11.098
17324W        W81532  44.279  44.280  13.384
17325W        W81533  18.275   6.350  13.372
17326W        W81534  43.858  22.200  14.462
17327W        W81535  35.515  36.859   3.190
17328W        W81536  15.323  12.116   0.298
17329W        W81537  37.942  32.002   2.308
17330W        W81538   2.938  18.097  11.602
17331W        W81539   1.444  13.257  14.963
17332W        W81540  27.076  15.189  12.412
17333W        W81541   7.835  38.909  14.301
17334W        W81542   6.888  21.633   1.338
17335W        W81543  41.393  14.238  14.401
17336W        W81544  35.465  33.569   4.114
17337W        W81545  41.423  23.088   2.302
17338W        W81546   8.212  18.639  13.957
17339W        W81547  19.755  14.737   4.748
17340W        W81548  11.860  35.566  11.949
17341W        W81549   1.483   1.863   1.730
17342W        W81550  12.220  24.673  12.432
17343W        W81551   9.746  44.799   2.324
17344W        W81552  18.628  37.549  12.465
17345W        W81553  31.069  39.467  13.495
17346W        W81554  12.179  24.571   1.876
17347W        W81555  43.810  39.380  11.869
17348W        W81556   4.889  35.010   1.420
17349W        W81557  21.233  10.229   1.777
17350W        W81558   1.275  44.001   3.326
17351W        W81559   5.742  44.792  12.081
17352W        W81560  19.572  34.103  14.512
17353W        W81561  17.602  17.287   1.796
17354W        W81562  22.734  15.185   5.177
17355W        W81563  37.934  36.930  13.837
17356W        W81564  37.952  39.032  10.973
17357W        W81565   9.256  16.605   3.373
17358W        W81566  10.833  17.558  12.869
17359W        W81567   9.202  39.047   4.279
17360W        W81568  17.625   5.819   2.784
17361W        W81569  44.784   2.387   1.742
17362W        W81570  40.974  26.953   0.757
17363W        W81571  41.372   0.919  12.016
17364W        W81572   1.378  39.041   1.770
17365W        W81573   0.444   8.213  13.035
17366W        W81574  12.243  15.588   2.761
17367W        W81575  44.887  43.342   1.274
17368W        W81576  40.885  19.559   0.935
17369W        W81577   8.806  15.219   4.605
17370W        W81578   1.921  15.672   3.252
17371W        W81579  33.580  10.309   2.243
17372W        W81580  10.638   4.389   0.349
17373W        W81581   2.431  27.070  10.520
17374W        W81582  38.511  14.788   3.696
17375W        W81583  19.588  33.110  14.479
17376W        W81584  11.680  11.345   4.265
17377W        W81585  27.160  38.017  14.349
17378W        W81586  18.738  37.952   1.896
17379W        W81587  33.918  29.093   4.145
17380W        W81588   3.767  36.410  11.015
17381W        W81589   8.718  26.997  11.013
17382W        W81590  19.110  43.382   3.215
17383W        W81591   6.708  43.838   0.435
17384W        W81592  44.443  27.108   1.863
17385W        W81593  20.181  23.547  13.885
17386W        W81594   9.379  38.072   0.817
17387W        W81595  43.460  25.631   3.374
17388W        W81596   4.917  16.788   2.841
17389W        W81597  28.997   3.877  11.525
17390W        W81598  12.746   7.235  14.957
17391W        W81599  21.599  18.289  12.875
17392W        W81600  20.744  41.331   0.456
17393W        W81601   4.930  26.696   1.386
17394W        W81602   7.830  10.353   1.834
17395W        W81603  30.602  28.949   2.416
17396W        W81604  29.628   3.397   1.827
17397W        W81605  17.651  24.522   1.728
17398W        W81606  24.044   3.229  13.052
17399W        W81607  43.005  36.915   1.891
17400W        W81608  28.668  33.948   0.911
17401W        W81609  11.670   7.855   4.830
17402W        W81610   0.762   4.879   4.631
17403W        W81611  22.567  11.229   4.836
17404W        W81612  34.488  37.958   1.365
17405W        W81613  42.009  42.935  13.339
17406W        W81614  23.595  18.559   1.901
17407W        W81615  21.062  43.416  14.987
17408W        W81616  17.731  20.185  13.457
17409W        W81617  33.968  40.456   2.325
17410W        W81618  41.438  42.016  10.522
17411W        W81619  32.441  41.010  10.980
17412W        W81620  20.712  33.052   4.835
17413W        W81621  15.787   5.807  12.096
17414W        W81622  41.955  24.701   3.732
17415W        W81623  20.261  36.372  13.343
17416W        W81624   6.220   0.433   3.233
17417W        W81625   6.294  40.845   0.854
17418W        W81626   5.826  24.673  12.364
17419W        W81627   0.294  22.719   2.179
17420W        W81628  12.751  30.161  13.915
17421W        W81629  31.057  25.030  11.527
17422W        W81630  17.578   1.834  14.499
17423W        W81631   3.388  15.754   3.728
17424W        W81632  40.354  37.083   2.243
17425W        W81633  33.516  15.281   1.242
17426W        W81634  23.228   4.941   1.826
17427W        W81635  42.502  37.017  13.422
17428W        W81636  37.935   2.392   0.455
17429W        W81637  34.579  33.922  10.463
17430W        W81638  28.953  41.937  10.990
17431W        W81639  19.676  23.598   0.266
17432W        W81640  18.172  43.282  12.423
17433W        W81641  28.473   0.788   3.645
17434W        W81642  31.644  36.010  11.415
17435W        W81643   9.169  15.718   1.898
17436W        W81644  30.108  35.448   2.719
17437W        W81645  19.042  16.792   0.406
17438W        W81646   7.754  20.641  12.004
17439W        W81647  33.455  14.126  10.097
17440W        W81648  29.474  42.481   4.717
17441W        W81649  28.576  33.891  13.052
17442W        W81650  16.262  39.492   1.757
17443W        W81651  44.925  15.620  11.562
17444W        W81652  39.440  27.469   2.686
17445W        W81653  27.674   5.730  14.906
17446W        W81654  39.345  29.949  14.316
17447W        W81655  16.734  33.952   0.406
17448W        W81656   2.812   0.945   2.287
17449W        W81657  39.441   9.176  14.844
17450W        W81658  26.512  14.218  10.900
17451W        W81659   5.840  41.042   1.894
17452W        W81660  10.751   5.886   1.343
17453W        W81661  30.462  26.529   2.368
17454W        W81662   2.275   1.934  11.899
17455W        W81663  11.182  44.850  12.387
17456W        W81664  15.285  29.648   1.417
17457W        W81665   9.820  31.458   0.908
17458W        W81666  28.951  39.407   2.666
17459W        W81667  12.629  22.022   0.419
17460W        W81668   0.377  21.257  13.839
17461W        W81669  33.472  40.444   4.338
17462W        W81670   7.191  38.326  10.987
17463W        W81671   7.283  32.943   0.909
17464W        W81672  43.335  42.792  12.462
17465W        W81673  26.134  34.418   1.400
17466W        W81674  13.722  40.829  11.486
17467W        W81675  44.358   4.438  13.910
17468W        W81676   1.957  35.408   1.214
17469W        W81677  10.759  43.862  12.525
17470W        W81678   6.409  33.548  11.413
17471W        W81679  29.554  19.048   4.669
17472W        W81680  13.664  16.109  14.493
17473W        W81681  38.948   9.213  12.030
17474W        W81682  42.312  40.960  13.431
17475W        W81683  38.852   0.419  12.048
17476W        W81684  29.958   7.729   2.816
17477W        W81685  31.459  17.174   5.307
17478W        W81686  21.671   5.253   1.818
17479W        W81687  42.495  15.625   1.214
17480W        W81688  13.645  26.207  14.011
17481W        W81689  19.556  19.537   4.206
17482W        W81690  27.064   0.419  14.308
17483W        W81691   4.745  30.077  14.865
17484W        W81692  11.851   4.373  11.512
17485W        W81693   1.414  11.773  14.344
17486W        W81694   5.754   7.415   0.279
17487W        W81695  22.709  15.270   4.183
17488W        W81696  38.001  28.677  12.886
17489W        W81697   3.784  10.812  12.037
17490W        W81698  16.086   0.468  14.418
17491W        W81699  21.208  30.124   0.418
17492W        W81700  18.270   0.866   2.229
17493W        W81701  19.709  23.174   4.216
17494W        W81702  24.195  15.264   1.905
17495W        W81703   9.190  12.837  13.870
17496W        W81704  36.399  18.724   2.664
17497W        W81705  25.662  43.467  10.486
17498W        W81706  25.202  35.438  10.636
17499W        W81707  15.224   5.411   1.412
17500W        W81708   3.827  34.912   4.741
17501W        W81709   2.402  29.532   4.271
17502W        W81710   9.853  33.431  10.607
17503W        W81711   8.695   4.788  14.301
17504W        W81712  22.705  29.110   3.714
17505W        W81713  39.896   7.209  13.320
17506W        W81714  14.173  26.649   1.908
17507W        W81715  24.608  10.276   0.301
17508W        W81716  14.636  34.540  10.939
17509W        W81717  17.117  15.328  13.438
17510W        W81718  13.617  25.643   3.682
17511W        W81719  14.828  15.200  14.362
17512W        W81720   2.756  26.479   2.889
17513W        W81721   6.295  37.068   4.124
17514W        W81722   2.906   7.695  10.536
17515W        W81723  23.649  24.523   3.845
17516W        W81724  29.559   8.778   9.962
17517W        W81725  44.297  15.817   2.365
17518W        W81726  13.758  13.168  14.844
17519W        W81727  27.189  19.660  10.632
17520W        W81728  37.896   0.393   2.252
17521W        W81729   3.776   2.833   2.672
17522W        W81730  24.107   1.942  10.441
17523W        W81731  27.672  33.936   1.859
17524W        W81732  43.844  35.869   2.390
17525W        W81733  23.645  44.273  10.904
17526W        W81734  41.328  15.737   2.387
17527W        W81735  25.206  20.136   0.940
17528W        W81736  20.172  31.556  12.929
17529W        W81737  34.024  24.708  13.992
17530W        W81738  24.185  43.385  11.954
17531W        W81739  27.659  25.178   1.824
17532W        W81740  17.122  13.671   4.273
17533W        W81741  35.426  14.735  10.959
17534W        W81742  10.847  43.767   0.370
17535W        W81743   4.782  12.850  13.463
17536W        W81744  36.490  22.664  14.970
17537W        W81745  25.537  25.004   5.160
17538W        W81746  19.150  30.913  13.016
17539W        W81747   2.816   3.225   3.262
17540W        W81748  14.111  42.441  12.873
17541W        W81749  36.511  17.259   0.326
17542W        W81750   5.225   7.713  10.635
17543W        W81751  32.969  44.501   4.322
17544W        W81752  11.193  13.305  12.031
17545W        W81753  18.209  43.318  13.357
17546W        W81754  25.507   7.248   2.303
17547W        W81755  20.717   2.336   1.293
17548W        W81756  19.061  15.159   1.397
17549W        W81757   2.280  32.046  10.015
17550W        W81758  13.160  24.129  13.979
17551W        W81759  23.229   7.668  10.553
17552W        W81760  30.471   9.751  11.491
17553W        W81761  17.788  40.334  13.544
17554W        W81762   4.257  22.117  10.577
17555W        W81763   7.342  34.872   0.331
17556W        W81764  26.532  27.527   1.289
17557W        W81765  28.441  38.546  11.871
17558W        W81766  17.698   1.313  14.415
17559W        W81767  18.296   9.735  10.517
17560W        W81768   8.375  13.297  13.930
17561W        W81769  26.039  18.737  11.429
17562W        W81770  11.153  26.468   2.743
17563W        W81771   1.273  40.035  10.565
17564W        W81772   8.723   5.262   0.463
17565W        W81773  14.811  11.804   3.734
17566W        W81774   4.298   2.738   2.860
17567W        W81775   8.864  17.125   3.688
17568W        W81776  23.044  39.357   1.929
17569W        W81777  10.705  19.728   3.630
17570W        W81778  23.241  14.672   1.310
17571W        W81779   8.897  27.640   4.629
17572W        W81780  30.570  15.594  11.079
17573W        W81781  23.709  32.994  13.950
17574W        W81782  40.823  25.074   3.825
17575W        W81783  16.753  38.034   1.733
17576W        W81784  10.690   6.871  10.634
17577W        W81785  38.050   7.867   1.400
17578W        W81786  19.123  20.710   0.787
17579W        W81787  12.695  30.479  11.070
17580W        W81788  30.089  29.116  14.471
17581W        W81789  39.337  23.553  13.038
17582W        W81790  42.919  11.329  13.382
17583W        W81791   6.225  17.087  14.020
17584W        W81792  25.546   1.386   2.399
17585W        W81793  12.622  32.898   0.932
17586W        W81794  35.515   3.355  14.424
17587W        W81795  35.952  24.135   1.352
17588W        W81796  10.265  19.655   2.222
17589W        W81797  13.186   9.758  14.491
17590W        W81798   5.852  10.255   1.358
17591W        W81799  31.629  12.783   2.206
17592W        W81800  42.441  16.792   4.303
17593W        W81801  40.917   2.283   3.261
17594W        W81802  23.196  12.204  10.530
17595W        W81803   6.781  44.872  13.446
17596W        W81804  24.162  39.433   4.218
17597W        W81805  16.656   4.267   0.874
17598W        W81806   5.359  43.461  11.449
17599W        W81807   1.387   4.259  10.117
17600W        W81808   1.290  26.970  14.964
17601W        W81809  40.036  29.461  12.480
17602W        W81810  23.592   2.842  12.999
17603W        W81811  36.897  23.193  14.287
17604W        W81812  44.901  28.641  13.535
17605W        W81813  17.199   7.832  12.824
17606W        W81814  42.910   5.699  14.391
17607W        W81815  44.451  20.234   3.715
17608W        W81816  43.017  11.799  14.797
17609W        W81817  20.610  22.079   2.270
17610W        W81818  13.773  39.023  11.003
17611W        W81819  40.441  28.977   1.293
17612W        W81820   5.794  38.026  12.352
17613W        W81821  28.972  40.917  11.448
17614W        W81822  35.104  12.267   3.323
17615W        W81823  20.270  36.393  14.317
17616W        W81824  27.612  35.391   3.788
17617W        W81825  25.478  39.942  12.864
17618W        W81826  17.228   7.354  10.076
17619W        W81827   2.941  31.998   0.442
17620W        W81828  36.919   2.268   3.350
17621W        W81829  30.931  28.099   4.610
17622W        W81830   7.682  31.437   4.285
17623W        W81831  19.663   1.405  11.889
17624W        W81832  11.749   4.847  14.298
17625W        W81833  22.225  28.626  14.313
17626W        W81834  27.616  32.439   4.307
17627W        W81835   1.364  24.701   2.894
17628W        W81836  36.572   8.399   0.379
17629W        W81837  21.540  43.340  12.975
17630W        W81838  16.250  40.499   2.849
17631W        W81839  25.159  22.549   1.796
17632W        W81840  42.473   1.332  10.132
17633W        W81841  12.786  40.861   3.327
17634W        W81842  13.773  35.882  11.430
17635W        W81843  19.579  21.222   5.122
17636W        W81844  12.855  19.611   0.775
17637W        W81845  25.564   5.845  14.906
17638W        W81846  34.087  17.674   1.891
17639W        W81847  39.976  31.922   3.147
17640W        W81848   2.370  33.108   0.910
17641W        W81849   9.885  42.372   2.248
17642W        W81850  22.541  29.563   2.313
17643W        W81851  18.159  30.535   3.160
17644W        W81852   0.830   9.359  13.920
17645W        W81853   7.314  36.003  11.394
17646W        W81854  14.637  39.815  14.336
17647W        W81855  23.214  25.474  10.558
17648W        W81856  27.089  15.105  11.938
17649W        W81857  44.847  38.355   4.301
17650W        W81858  11.692   1.752   1.378
17651W        W81859  11.655  34.399   0.927
17652W        W81860  16.686   4.404   1.416
17653W        W81861  19.186  27.449  13.791
17654W        W81862  21.020  39.965   4.119
17655W        W81863  40.879  29.561  13.906
17656W        W81864  11.857  18.156   3.379
17657W        W81865   6.214  43.958  11.916
17658W        W81866  39.532  41.415   4.641
17659W        W81867  44.753  42.011  11.957
17660W        W81868  43.978  13.344  12.443
17661W        W81869   4.801  24.495   3.314
17662W        W81870  43.512   9.878  12.427
17663W        W81871  29.639   3.898  11.383
17664W        W81872  19.687  27.004  12.828
17665W        W81873  19.721   3.340   0.291
17666W        W81874  33.088  44.852  12.865
17667W        W81875  13.234  42.928   5.090
17668W        W81876  35.003  23.496   0.317
17669W        W81877  27.532  11.717  13.308
17670W        W81878  34.969   8.269  11.034
17671W        W81879  25.524  17.192   2.776
17672W        W81880  39.017  38.987   3.665
17673W        W81881  15.638   2.403   1.887
17674W        W81882   6.394   3.315   3.316
17675W        W81883   4.869   4.293  11.107
17676W        W81884   0.978  15.696  11.893
17677W        W81885  11.211   8.807  13.892
17678W        W81886  19.635  27.628  12.478
17679W        W81887   8.846   4.938  10.410
17680W        W81888  20.703  34.008   0.817
17681W        W81889  20.750  11.812   1.893
17682W        W81890  28.179  31.076   0.449
17683W        W81891  37.976  29.122   4.319
17684W        W81892  34.031  29.933  12.916
17685W        W81893  42.403   0.255   0.945
17686W        W81894  13.772   2.302  11.934
17687W        W81895  34.050  19.098  10.519
17688W        W81896  29.483  15.708  12.466
17689W        W81897  20.048  43.475  11.058
17690W        W81898  11.324  19.582   1.396
17691W        W81899  31.943  19.207   1.740
17692W        W81900  20.236  40.851  12.907
17693W        W81901   0.297  32.906   0.952
17694W        W81902   0.438  35.986  14.423
17695W        W81903  37.405   9.778   1.707
17696W        W81904  26.554  43.836   3.819
17697W        W81905  44.417  23.080  14.315
17698W        W81906  30.135  28.009  14.293
17699W        W81907   3.723  13.140  11.463
17700W        W81908  32.548  20.099   4.678
17701W        W81909  32.612  37.559   0.307
17702W        W81910  36.456  33.619  11.080
17703W        W81911  26.004  29.001  11.448
17704W        W81912   5.347  15.295   4.126
17705W        W81913   9.359   5.903  10.996
17706W        W81914   1.947   9.376   0.475
17707W        W81915   1.338  42.986  12.957
17708W        W81916  32.061  32.582   1.420
17709W        W81917  45.000  14.779   4.613
17710W        W81918   3.831  36.080   0.920
17711W        W81919  18.579  27.567  10.422
17712W        W81920   1.392  37.917  14.856
17713W        W81921  10.258  34.018   3.266
17714W        W81922  21.595  26.595   2.190
17715W        W81923  12.143  29.985   4.320
17716W        W81924  38.459  33.900  10.637
17717W        W81925   8.880  40.513   3.225
17718W        W81926  22.060   4.392  13.359
17719W        W81927   4.704  11.722   4.820
17720W        W81928  12.236  25.163   1.431
17721W        W81929  30.469  43.272  14.377
17722W        W81930   6.791  43.765  13.480
17723W        W81931  40.923  44.352   0.279
17724W        W81932  37.452   9.216   4.747
17725W        W81933   6.272  12.712   4.724
17726W        W81934  35.602  10.656   4.276
17727W        W81935  39.955  34.493   4.319
17728W        W81936  36.530  30.487  14.418
17729W        W81937  20.695   1.420  13.935
17730W        W81938  15.718  41.334  10.131
17731W        W81939  14.813  35.011  10.419
17732W        W81940  40.439  43.449  12.992
17733W        W81941  28.134  25.077  14.825
17734W        W81942  43.873  39.427  10.531
17735W        W81943  23.985  14.252  13.893
17736W        W81944   1.944   7.884   2.336
17737W        W81945  39.324  41.430  13.522
17738W        W81946  27.997  40.383  12.384
17739W        W81947  35.900  22.128   2.776
17740W        W81948  11.764  14.755  10.636
17741W        W81949  40.405   1.754  13.865
17742W        W81950  13.290   6.802  14.310
17743W        W81951   6.206  29.057  10.425
17744W        W81952  37.536  20.635  14.418
17745W        W81953  13.625   6.901   0.849
17746W        W81954   0.850  22.105  13.310
17747W        W81955  37.516  19.051   3.752
17748W        W81956  18.283  23.028  11.952
17749W        W81957   2.374   7.271  14.923
17750W        W81958  28.639  11.819   1.826
17751W        W81959  39.049   6.291   4.740
17752W        W81960  43.973  28.139   1.306
17753W        W81961  32.908  16.136  13.500
17754W        W81962  38.437  30.532  14.946
17755W        W81963  22.617  36.502   2.822
17756W        W81964  19.146  16.751   3.323
17757W        W81965  12.748  34.952  11.100
17758W        W81966  10.668  34.911  14.513
17759W        W81967   2.894  23.194  10.557
17760W        W81968  28.637  29.023  14.759
17761W        W81969  35.360  16.692  14.475
17762W        W81970  26.558  24.102  12.927
17763W        W81971  21.670  35.494  12.022
17764W        W81972  41.878  27.505   1.928
17765W        W81973  20.233  23.083   4.241
17766W        W81974  29.966   0.306  14.945
17767W        W81975  20.676  24.090  12.906
17768W        W81976  19.637  21.224   1.931
17769W        W81977  14.251   5.698   2.312
17770W        W81978   5.928   0.481   0.458
17771W        W81979  43.955  25.982   3.300
17772W        W81980  28.067  32.550  14.476
17773W        W81981  32.594  14.256   4.772
17774W        W81982  25.684  29.583  12.496
17775W        W81983   1.239  22.010   4.191
17776W        W81984  40.443   9.284   0.896
17777W        W81985   5.301  43.905  13.805
17778W        W81986  31.509  34.054  11.026
17779W        W81987  44.461  38.469  14.324
17780W        W81988  31.423  27.464  11.107
17781W        W81989   8.371  26.471   3.835
17782W        W81990  44.289  21.137  13.314
17783W        W81991   9.687   3.743   0.415
17784W        W81992  40.917   0.980  11.048
17785W        W81993  42.361  38.910   4.762
17786W        W81994  21.124  39.530   4.122
17787W        W81995  25.611  25.986  14.812
17788W        W81996  21.529  20.207   4.239
17789W        W81997  23.073  23.547   2.204
17790W        W81998   1.472  12.826   3.154
17791W        W81999  10.732  30.488   1.220
17792W        W82000  23.712  16.808  10.637
17793W        W82001  43.016  18.694   1.371
17794W        W82002  32.941  40.868  12.827
17795W        W82003  19.073  41.440   0.383
17796W        W82004  12.856  21.561  12.423
17797W        W82005   2.881  14.298   1.911
17798W        W82006  38.872  31.959  14.793
17799W        W82007  35.459   2.399   3.711
17800W        W82008  29.484  21.598  14.903
17801W        W82009  25.554  24.674  14.487
17802W        W82010  27.503  42.985   1.850
17803W        W82011  31.035  10.254   0.793
17804W        W82012   4.412  10.648   0.259
17805W        W82013  20.269  14.096   4.331
17806W        W82014  22.735  22.021   3.652
17807W        W82015  32.104  24.112  13.336
17808W        W82016  12.634  26.198  13.002
17809W        W82017   8.274  42.287   1.716
17810W        W82018  14.319  17.710  11.975
17811W        W82019  31.019  28.162   0.475
17812W        W82020   8.767  23.030   2.407
17813W        W82021  29.965  27.004   2.290
17814W        W82022   0.414  24.710   3.856
17815W        W82023  39.370  17.072   1.854
17816W        W82024   5.845  29.446  14.304
17817W        W82025  10.633  40.981  13.953
17818W        W82026  25.687   5.788   3.705
17819W        W82027  24.542   8.826   2.662
17820W        W82028  31.520  13.181  13.887
17821W        W82029  18.179  37.454  12.830
17822W        W82030  22.742  19.197  11.898
17823W        W82031  13.341  42.332   2.363
17824W        W82032  26.464  31.990   4.304
17825W        W82033  14.168  23.730  13.961
17826W        W82034  34.515   1.400  12.863
17827W        W82035   9.663  42.786   3.370
17828W        W82036  44.924  39.853  11.958
17829W        W82037  11.681  19.166   0.748
17830W        W82038  11.290  21.235   0.934
17831W        W82039   7.262  16.648  10.430
17832W        W82040  18.115  42.465   0.927
17833W        W82041  10.663  25.482   1.932
17834W        W82042  22.519  40.432  10.507
17835W        W82043   3.846  36.457  10.428
17836W        W82044   6.745  25.173  12.861
17837W        W82045  30.011   0.317  12.053
17838W        W82046   1.749  21.080   2.770
17839W        W82047  35.878  28.599   3.700
17840W        W82048  19.580  32.419   0.467
17841W        W82049  16.261  19.653  14.022
17842W        W82050   4.349  23.176  14.503
17843W        W82051  33.580  35.560  10.090
17844W        W82052  30.102  20.181  10.468
17845W        W82053   0.321  44.943  14.314
17846W        W82054  25.971   2.874  12.386
17847W        W82055  31.415  17.613  10.490
17848W        W82056  23.212  42.916  11.973
17849W        W82057   5.208  22.241   1.811
17850W        W82058  19.101  12.356  13.524
17851W        W82059   2.819  40.009  12.949
17852W        W82060  25.564   0.917   0.832
17853W        W82061  30.911   3.441  11.039
17854W        W82062   4.384   9.737   4.233
17855W        W82063  29.995  39.837   1.735
17856W        W82064  35.981  17.133   0.331
17857W        W82065  21.713  41.421  14.856
17858W        W82066   8.869  17.785   3.636
17859W        W82067   5.868  32.910   1.832
17860W        W82068  43.815   9.393   0.280
17861W        W82069  13.820  36.856  12.027
17862W        W82070   4.329  12.197  11.068
17863W        W82071  18.067  43.880  12.394
17864W        W82072   6.759  32.905  13.471
17865W        W82073  36.376  19.710   2.802
17866W        W82074  24.225  29.638   1.796
17867W        W82075  28.578   8.658   1.866
17868W        W82076  44.959  28.630   3.360
17869W        W82077  44.926  19.225  10.627
17870W        W82078  13.135  36.434  11.089
17871W        W82079  36.490  32.465   4.611
17872W        W82080  19.769  18.207   3.681
17873W        W82081  14.693   0.981  12.500
17874W        W82082   7.687  17.181  14.476
17875W        W82083  16.712  40.859  12.007
17876W        W82084  16.085  12.668   1.242
17877W        W82085  12.338  38.480   4.222
17878W        W82086  42.866  25.610  12.021
17879W        W82087  10.297  11.765  10.623
17880W        W82088  18.576  37.389   4.225
17881W        W82089  41.948  16.605   4.648
17882W        W82090  31.479  13.191  12.529
17883W        W82091  27.016  12.697  12.426
17884W        W82092   5.800   7.738   0.739
17885W        W82093   7.207   8.324   3.321
17886W        W82094  23.085  18.278  10.459
17887W        W82095  17.268  19.259   4.251
17888W        W82096  39.911  26.029   0.810
17889W        W82097   6.271  42.817   2.205
17890W        W82098   1.481   4.857   9.947
17891W        W82099  27.020  27.123   0.297
17892W        W82100   0.810  25.049   2.873
17893W        W82101   9.255  41.526  10.605
17894W        W82102  16.263   2.419   2.795
17895W        W82103  36.497   3.954  13.347
17896W        W82104  31.941  18.579  11.969
17897W        W82105  39.001  27.063   1.341
17898W        W82106  13.627   6.720  13.445
17899W        W82107  18.704  20.537  10.943
17900W        W82108  32.000  23.680   4.801
17901W        W82109  10.199   1.253  13.325
17902W        W82110  31.496  37.393  11.420
17903W        W82111  34.610  24.083   0.901
17904W        W82112  26.176  26.472   2.335
17905W        W82113  24.483  23.202   0.345
17906W        W82114   6.772  29.547   3.765
17907W        W82115  28.539  12.805   2.872
17908W        W82116  13.675  27.189   1.851
17909W        W82117  14.793  32.114   3.220
17910W        W82118  26.616  30.501  12.348
17911W        W82119  28.487  17.069  10.599
17912W        W82120  35.020  11.709  13.970
17913W        W82121   8.688  43.893   2.734
17914W        W82122  13.600  43.491  10.609
17915W        W82123   6.295   1.439   3.228
17916W        W82124  36.916  25.977  12.474
17917W        W82125  13.760  10.360  10.447
17918W        W82126   3.896  28.671   1.215
17919W        W82127  42.819  25.014  13.801
17920W        W82128  39.486   0.367  12.091
17921W        W82129   8.698  29.157  12.018
17922W        W82130  14.115  12.837   0.466
17923W        W82131  42.856  20.101   0.427
17924W        W82132  15.735   6.824  14.789
17925W        W82133  43.838  22.657  14.512
17926W        W82134  30.065  24.172   3.821
17927W        W82135  29.975  18.766  12.529
17928W        W82136   3.842   2.778   1.908
17929W        W82137  35.450  23.202   1.865
17930W        W82138  37.448  19.542  14.945
17931W        W82139  34.119  16.804   1.229
17932W        W82140  26.101  14.307   0.855
17933W        W82141  20.186  37.389   4.798
17934W        W82142  38.412  11.675   2.400
17935W        W82143  33.093  12.315   1.812
17936W        W82144  15.100  25.177  14.427
17937W        W82145  29.596  33.622  12.362
17938W        W82146  32.918  16.585  13.998
17939W        W82147  28.062  35.432  13.370
17940W        W82148  17.621  43.316   2.235
17941W        W82149  20.754  12.702   2.900
17942W        W82150  11.682  38.478  11.950
17943W        W82151  41.902  29.973  13.029
17944W        W82152  30.641  35.446   1.233
17945W        W82153  36.063  16.659  10.613
17946W        W82154  18.750  32.937  13.406
17947W        W82155  27.132  13.113  11.544
17948W        W82156   7.283   6.833  11.925
17949W        W82157  18.090   6.420   1.711
17950W        W82158  27.175  15.666  13.506
17951W        W82159  41.347  11.325  11.458
17952W        W82160  30.069  28.958   0.400
17953W        W82161  16.580  34.558  11.016
17954W        W82162  10.371  35.861   4.229
17955W        W82163  27.534  26.698   0.342
17956W        W82164   1.328  18.244  13.834
17957W        W82165   5.929   5.313   1.405
17958W        W82166  44.883   5.922   2.287
17959W        W82167  29.650  35.461   3.285
17960W        W82168   6.719   2.320   2.363
17961W        W82169   2.268  31.438  10.500
17962W        W82170  39.388  19.058   3.709
17963W        W82171  35.594  33.065   3.238
17964W        W82172  43.335   2.899   2.285
17965W        W82173  36.467  34.111  13.519
17966W        W82174  17.118  37.021   5.613
17967W        W82175   0.946  41.327   1.401
17968W        W82176   7.355  34.386  13.008
17969W        W82177  28.601  42.318  14.361
17970W        W82178  29.020  19.713  14.411
17971W        W82179  36.458  39.516   1.358
17972W        W82180  23.545  30.924  14.467
17973W        W82181  39.952  21.177  12.072
17974W        W82182   2.352  10.840  12.058
17975W        W82183   5.193  37.029  14.388
17976W        W82184  34.899  30.656   1.869
17977W        W82185   3.451  15.307  13.391
17978W        W82186   7.357  20.563  10.612
17979W        W82187  34.884   3.310  13.888
17980W        W82188  13.107   7.361  10.588
17981W        W82189  34.437  23.581  11.559
17982W        W82190  18.596  14.739  13.960
17983W        W82191   6.395  11.733  12.049
17984W        W82192  34.481  17.269  11.942
17985W        W82193  43.485  21.617   3.285
17986W        W82194  32.119   4.862  12.049
17987W        W82195   1.885  16.723   4.705
17988W        W82196  15.658  41.506   1.706
17989W        W82197  35.001  37.478   5.267
17990W        W82198  20.263  29.053  14.020
17991W        W82199   0.822  30.589   4.120
17992W        W82200  40.390   5.248  11.417
17993W        W82201  39.454  30.543  12.372
17994W        W82202  11.668  23.686   9.937
17995W        W82203   1.283  36.064   3.839
17996W        W82204  32.904  25.633   3.704
17997W        W82205   6.797  27.109   3.681
17998W        W82206  39.501  38.945   0.887
17999W        W82207  27.059  35.031  12.431
18000W        W82208  32.397   4.283   0.819
18001W        W82209  11.640  39.974   1.732
18002W        W82210  14.686  15.202   1.365
18003W        W82211  32.393  14.157   4.224
18004W        W82212  11.276  37.379   0.932
18005W        W82213  19.052   9.360  11.566
18006W        W82214   4.753  19.619  14.490
18007W        W82215  29.045  40.537   3.158
18008W        W82216   0.819  30.524   1.883
18009W        W82217  36.398  13.647  13.359
18010W        W82218  35.105   1.880  13.061
18011W        W82219  19.594  39.058   2.837
18012W        W82220  42.353   2.251   1.923
18013W        W82221  35.543  43.352  12.422
18014W        W82222  15.703  30.015   2.883
18015W        W82223  40.892  39.956   3.868
18016W        W82224  35.886   9.162  11.028
18017W        W82225  22.685  40.407   3.359
18018W        W82226  42.948  33.546  12.434
18019W        W82227  15.656  24.567   1.830
18020W        W82228  24.183  40.415   4.207
18021W        W82229  31.595   0.955  12.456
18022W        W82230  10.213  33.495  12.944
18023W        W82231  17.213   3.720  13.539
18024W        W82232   7.241  26.124   1.445
18025W        W82233   9.726  15.780   5.612
18026W        W82234  44.295  14.108   1.728
18027W        W82235  39.556  34.519  12.845
18028W        W82236  40.000  20.108   3.700
18029W        W82237  31.432  11.651   2.757
18030W        W82238   6.850  36.491   2.226
18031W        W82239  39.016  15.725  14.292
18032W        W82240  28.646  32.392  11.604
18033W        W82241   0.462  12.712   4.252
18034W        W82242  10.330   1.815   0.384
18035W        W82243  43.505  39.931   0.397
18036W        W82244   7.211  31.923   4.324
18037W        W82245  11.208   3.289   4.826
18038W        W82246  24.982  35.023   3.226
18039W        W82247  18.602   4.804  14.807
18040W        W82248  41.821  12.747  12.394
18041W        W82249  24.601  18.110  10.468
18042W        W82250  16.713  20.764  12.531
18043W        W82251  12.238  37.918   4.639
18044W        W82252  25.126  25.575  10.970
18045W        W82253  41.467   4.902   2.826
18046W        W82254  43.767  32.954  12.394
18047W        W82255   7.173  24.677   3.183
18048W        W82256  23.691  17.131  10.054
18049W        W82257  40.856  40.876   4.634
18050W        W82258  19.075  25.660   4.633
18051W        W82259   5.868  37.997   1.399
18052W        W82260  39.417  23.686  11.452
18053W        W82261  38.903  20.134   2.734
18054W        W82262  33.043  21.717   4.646
18055W        W82263   5.365  30.096   1.444
18056W        W82264  32.395  28.466  14.342
18057W        W82265  16.087  35.090  14.401
18058W        W82266  40.865  13.344  14.759
18059W        W82267   2.756  41.906   1.835
18060W        W82268  43.836  21.022   3.270
18061W        W82269  39.948   1.238  13.035
18062W        W82270  10.245  20.146  13.861
18063W        W82271  21.148  29.485  13.380
18064W        W82272  21.156  29.112  13.912
18065W        W82273  30.147   8.311  11.416
18066W        W82274  16.806  40.915  11.107
18067W        W82275  38.927   3.828   3.660
18068W        W82276  14.151  21.235   4.632
18069W        W82277  32.923   8.315  12.884
18070W        W82278   2.787   5.196   4.209
18071W        W82279  31.492  20.600  12.506
18072W        W82280   8.698  18.602   4.622
18073W        W82281  34.575   4.928   1.424
18074W        W82282   2.943   2.323   3.290
18075W        W82283  13.279   0.963   2.321
18076W        W82284  24.542  22.219   1.275
18077W        W82285   9.384  30.990   2.219
18078W        W82286   9.366  14.707  10.479
18079W        W82287  37.491  29.582   3.689
18080W        W82288   7.787  19.280   3.173
18081W        W82289  25.700  31.633   1.909
18082W        W82290   1.866  28.153   2.700
18083W        W82291  19.207   9.757  13.318
18084W        W82292  20.053   4.284  14.957
18085W        W82293  13.349  22.594  13.510
18086W        W82294   7.683  41.343   1.754
18087W        W82295  20.669  20.724  11.568
18088W        W82296  15.630  18.205   2.361
18089W        W82297  36.537  10.141   2.670
18090W        W82298  40.965  39.900  14.514
18091W        W82299  20.042   7.300  14.909
18092W        W82300  23.506  10.754   3.166
18093W        W82301  16.128  32.136  13.528
18094W        W82302  12.695   7.803  13.795
18095W        W82303  21.112   0.259   9.920
18096W        W82304   0.968  17.774   1.221
18097W        W82305  17.136  17.261   3.377
18098W        W82306  42.520  19.257   4.321
18099W        W82307  30.120  38.013  13.418
18100W        W82308  34.547  33.576  12.856
18101W        W82309  32.464  22.213   1.811
18102W        W82310  43.506  20.066   9.988
18103W        W82311  14.589   6.220  11.987
18104W        W82312  32.010  33.535   0.392
18105W        W82313  43.878   8.397  13.924
18106W        W82314  43.929  38.357   4.695
18107W        W82315   4.384  34.524   1.418
18108W        W82316  28.122   5.827  12.415
18109W        W82317  24.048   2.804  12.868
18110W        W82318  39.920   6.709  10.580
18111W        W82319  13.223  41.017  13.944
18112W        W82320  39.060  15.099  11.587
18113W        W82321  23.070   0.960  10.516
18114W        W82322  44.454  29.668   1.342
18115W        W82323  25.124   8.261   4.737
18116W        W82324   3.741   1.816  13.347
18117W        W82325  37.339  20.190  12.349
18118W        W82326  25.111  12.349   0.859
18119W        W82327  35.358  26.974  10.566
18120W        W82328   4.347  24.179   3.790
18121W        W82329  44.497  29.154  12.564
18122W        W82330  14.651  37.423  10.065
18123W        W82331  12.323  13.647  14.792
18124W        W82332  44.971   2.734  14.280
18125W        W82333  22.112  33.543  14.461
18126W        W82334  44.382  38.998  10.528
18127W        W82335  22.556  24.623  12.845
18128W        W82336  20.139  40.545   9.950
18129W        W82337  22.575  31.901   1.837
18130W        W82338  39.938  32.914   4.780
18131W        W82339  44.499  43.370   1.815
18132W        W82340  41.899  29.078   2.377
18133W        W82341  12.158   5.195   4.312
18134W        W82342  35.091  31.150   4.832
18135W        W82343   4.302  32.599  12.968
18136W        W82344  16.289  33.075  14.423
18137W        W82345  12.195   6.232   0.465
18138W        W82346  43.382   7.791  11.480
18139W        W82347  43.020  18.220   5.108
18140W        W82348   8.306  32.106   3.305
18141W        W82349   2.836   5.279   3.730
18142W        W82350  19.754  23.672  11.580
18143W        W82351  32.015  43.333   2.187
18144W        W82352   1.477  24.567   4.221
18145W        W82353  18.160  10.370   4.144
18146W        W82354   0.883  36.554  12.087
18147W        W82355  39.924   3.894   4.786
18148W        W82356  40.053  36.465   3.257
18149W        W82357  33.392  44.853  12.392
18150W        W82358  29.022  41.878  12.045
18151W        W82359  31.485  41.373  11.572
18152W        W82360  18.548  33.876  10.626
18153W        W82361   6.908  38.980   3.147
18154W        W82362   5.920  10.249  11.901
18155W        W82363  22.065   1.383   3.327
18156W        W82364  18.644  11.846   0.893
18157W        W82365  29.426  28.933  10.508
18158W        W82366  21.746   3.310   0.863
18159W        W82367  19.165  15.117  14.813
18160W        W82368  40.490  17.221   1.793
18161W        W82369  19.052  29.983  12.992
18162W        W82370  41.893  41.471   3.832
18163W        W82371  43.905  24.480  14.973
18164W        W82372  39.409  12.779   2.240
18165W        W82373  41.036  22.626  13.948
18166W        W82374  18.751  36.931   4.199
18167W        W82375  37.084  30.041   0.813
18168W        W82376  10.168   0.430   2.851
18169W        W82377  20.089  42.487   0.844
18170W        W82378  10.378  40.519   3.639
18171W        W82379   3.432  35.916   1.797
18172W        W82380  30.426  19.737   1.918
18173W        W82381   4.734   5.291  10.932
18174W        W82382  39.506  10.816   0.419
18175W        W82383   6.376  25.047  14.025
18176W        W82384  36.042  33.428  14.962
18177W        W82385  26.146  13.663   3.659
18178W        W82386  33.445  31.630   1.399
18179W        W82387  13.249  11.316  10.088
18180W        W82388  33.433  29.012   1.816
18181W        W82389  43.988  35.011   9.507
18182W        W82390  21.216  25.162   0.439
18183W        W82391  25.580   3.443   0.460
18184W        W82392  24.095   5.818  11.550
18185W        W82393  26.576   9.667  13.911
18186W        W82394  43.438  35.905  10.556
18187W        W82395   3.791  29.951  12.846
18188W        W82396  14.197   8.751   3.707
18189W        W82397  32.997  39.378   2.723
18190W        W82398   9.207   2.273   4.123
18191W        W82399  21.726  13.821  13.995
18192W        W82400   3.459   2.275  11.876
18193W        W82401  20.117  44.434  14.845
18194W        W82402  19.724  15.244   1.330
18195W        W82403   0.376   3.260   9.531
18196W        W82404  33.567  27.136  12.005
18197W        W82405  37.852  37.486  13.510
18198W        W82406  35.065   9.256   4.218
18199W        W82407  30.647  22.053  14.021
18200W        W82408  25.061  30.933   0.759
18201W        W82409  42.776  31.913   1.340
18202W        W82410  26.625  42.444   4.318
18203W        W82411  34.479  22.078   0.446
18204W        W82412  22.528  19.664  14.406
18205W        W82413  37.060  44.369  14.502
18206W        W82414  42.466  24.481  12.052
18207W        W82415  38.035   8.736   0.269
18208W        W82416   8.376   5.283  12.352
18209W        W82417  30.623  11.235  12.346
18210W        W82418   2.893  21.686  10.512
18211W        W82419  18.600   2.779  14.887
18212W        W82420  10.214  30.590   3.666
18213W        W82421  10.155  26.098  14.780
18214W        W82422  37.482   7.195   4.812
18215W        W82423  37.503  16.149   0.741
18216W        W82424  11.743   9.301  10.529
18217W        W82425  43.950  25.583   3.699
18218W        W82426  33.510   2.445   4.127
18219W        W82427   9.271  29.482   3.687
18220W        W82428  23.223  22.662  10.563
18221W        W82429  33.953   7.223  14.916
18222W        W82430  43.370  37.996  11.861
18223W        W82431  29.634  39.558  13.935
18224W        W82432  20.602   6.773  13.948
18225W        W82433  29.554  36.940  11.466
18226W        W82434   8.773   4.387  10.608
18227W        W82435  23.532  31.061  11.865
18228W        W82436  24.659   2.949   4.682
18229W        W82437  40.430  34.572  10.926
18230W        W82438   3.312  18.242  11.983
18231W        W82439  35.933  18.066   2.740
18232W        W82440  16.144  20.079   1.754
18233W        W82441  30.495  14.220  11.896
18234W        W82442  17.167  26.159   2.875
18235W        W82443  12.691  36.380   2.255
18236W        W82444   6.836  15.132   1.782
18237W        W82445  43.371  19.116   3.247
18238W        W82446  43.923   8.396  12.000
18239W        W82447  21.109   4.747   4.178
18240W        W82448  30.127  27.962   0.758
18241W        W82449  18.163  39.346  10.477
18242W        W82450  37.070  35.473  14.329
18243W        W82451  40.510  38.340   1.838
18244W        W82452  24.555  11.710  12.870
18245W        W82453  43.833  17.739   0.729
18246W        W82454  29.473  33.924  11.437
18247W        W82455  12.620  15.735   2.699
18248W        W82456  26.099  10.803  10.576
18249W        W82457  31.564   1.295  11.376
18250W        W82458  27.591  11.742  14.022
18251W        W82459  25.621  18.748   3.200
18252W        W82460  23.226  35.970  10.909
18253W        W82461  18.170  36.029   3.754
18254W        W82462  23.133   3.268   1.856
18255W        W82463  44.927   1.839  11.992
18256W        W82464  25.025  15.594   1.775
18257W        W82465  24.096  29.525  14.293
18258W        W82466  33.122  41.965   0.783
18259W        W82467  23.039  23.175   2.356
18260W        W82468  33.882  27.096   1.745
18261W        W82469  20.720  42.991  12.359
18262W        W82470   8.332   3.291   3.385
18263W        W82471  14.591  37.349   4.139
18264W        W82472  26.458  23.007  12.441
18265W        W82473  36.897  12.347   1.438
18266W        W82474  41.508  34.552  12.946
18267W        W82475  32.588  22.534  11.469
18268W        W82476  29.074  35.561   0.286
18269W        W82477   9.678   4.706   4.830
18270W        W82478  26.077  42.413  14.392
18271W        W82479  42.858  22.106   9.922
18272W        W82480   1.914  34.949  11.920
18273W        W82481  13.636   5.221   1.248
18274W        W82482  22.013  44.937   1.384
18275W        W82483  10.319  42.979  14.475
18276W        W82484   3.886  39.043  10.058
18277W        W82485  12.241  13.255   3.840
18278W        W82486   6.358  20.591  13.032
18279W        W82487  19.275  20.754  14.281
18280W        W82488  29.088  38.978   1.809
18281W        W82489  14.242   6.857   3.793
18282W        W82490  32.580   8.401   4.204
18283W        W82491  29.488  14.111   3.292
18284W        W82492  40.017  23.191   0.265
18285W        W82493  41.316  12.323  13.914
18286W        W82494  34.000  44.903  12.459
18287W        W82495  34.987   7.909  12.546
18288W        W82496  23.519  14.819  10.935
18289W        W82497  29.447  32.999   0.290
18290W        W82498  24.501  13.803   1.278
18291W        W82499   4.447   0.986  10.629
18292W        W82500  24.630  30.440   3.863
18293W        W82501  19.074   4.212   0.337
18294W        W82502   8.833   9.871   2.879
18295W        W82503   9.304   3.870   3.222
18296W        W82504  24.561  22.696  13.810
18297W        W82505  26.989  21.074   2.750
18298W        W82506  35.048  31.450   4.182
18299W        W82507   9.735  27.088  10.923
18300W        W82508  23.505  24.705  11.519
18301W        W82509  40.461  23.058  10.536
18302W        W82510  21.027   4.765   0.279
18303W        W82511   7.192   6.874  13.325
18304W        W82512   6.257   8.723   1.404
18305W        W82513  34.453  40.543   1.336
18306W        W82514  24.008   8.196   3.674
18307W        W82515  31.023  32.132   0.856
18308W        W82516  35.089   3.775   4.777
18309W        W82517   3.878  35.584  10.911
18310W        W82518  28.969  20.215  12.832
18311W        W82519   7.791  43.855   3.200
18312W        W82520  18.598  12.807  10.087
18313W        W82521  15.123  16.727   2.314
18314W        W82522  26.519  11.746  11.104
18315W        W82523  34.036  44.822  10.461
18316W        W82524  23.989  44.464   2.685
18317W        W82525   7.793  10.292  10.542
18318W        W82526  40.961  29.964  14.899
18319W        W82527   5.367  29.525  12.561
18320W        W82528  11.148  44.946  11.474
18321W        W82529  43.445  26.489   2.239
18322W        W82530  40.542  31.611  11.490
18323W        W82531   1.350   0.977   4.796
18324W        W82532  10.661  12.807   1.279
18325W        W82533  13.272  11.346   2.871
18326W        W82534   2.286  22.568   4.762
18327W        W82535  41.038  18.240  12.505
18328W        W82536  38.406  15.126  14.947
18329W        W82537  28.507   6.388  11.415
18330W        W82538   3.233  12.784   1.210
18331W        W82539  27.540  20.188  11.585
18332W        W82540  12.741  36.447  10.478
18333W        W82541  27.086  21.118   2.341
18334W        W82542   6.900  32.104   3.184
18335W        W82543  31.543  30.481   4.746
18336W        W82544  25.586   8.204   3.374
18337W        W82545  35.491  40.379  11.066
18338W        W82546  37.926  15.698  14.961
18339W        W82547  21.690  31.619  11.095
18340W        W82548  21.163  40.337   5.272
18341W        W82549  28.075  23.614  10.644
18342W        W82550  16.656  37.509   3.295
18343W        W82551  39.877   2.915   3.281
18344W        W82552  17.107  41.908  10.512
18345W        W82553   2.282  34.535   1.443
18346W        W82554  37.067  42.965   3.823
18347W        W82555  27.616  12.701  11.918
18348W        W82556   7.884  31.144   0.786
18349W        W82557  36.051  39.495  11.552
18350W        W82558  17.215  16.086  12.036
18351W        W82559  16.098  41.021   2.220
18352W        W82560  20.150  44.442  10.023
18353W        W82561  42.345   4.388   0.929
18354W        W82562  36.592  36.967  11.431
18355W        W82563  29.563  43.446   0.338
18356W        W82564   9.770  38.824   0.355
18357W        W82565   3.291  20.637  11.034
18358W        W82566  38.416  35.022   2.774
18359W        W82567  25.999   2.239  12.978
18360W        W82568  30.492  30.032  14.986
18361W        W82569   4.240   3.833   2.408
18362W        W82570  16.697   8.308   3.638
18363W        W82571  12.265  19.685  10.928
18364W        W82572  35.003  38.830  11.015
18365W        W82573  16.077  19.584  12.493
18366W        W82574   5.916  35.998  14.459
18367W        W82575  23.656  40.512  12.990
18368W        W82576   8.873  39.886  10.926
18369W        W82577  32.630  14.255   3.859
18370W        W82578  25.074  13.168  14.344
18371W        W82579   2.897  36.999   3.366
18372W        W82580  32.974   5.324   4.752
18373W        W82581   4.751  11.352  14.434
18374W        W82582  11.708   1.429   1.853
18375W        W82583  22.618  31.475  12.557
18376W        W82584  42.953   9.176  14.275
18377W        W82585  16.147  27.456  14.279
18378W        W82586  13.109   4.337   0.746
18379W        W82587  26.995  11.274   2.750
18380W        W82588  29.159  12.825  12.828
18381W        W82589  38.941  39.819   0.933
18382W        W82590  42.914  15.257   1.251
18383W        W82591  42.814  17.753   1.787
18384W        W82592  34.086   0.955   2.350
18385W        W82593  44.972  40.340   3.836
18386W        W82594  42.418  16.695  14.008
18387W        W82595  41.938  16.130   2.857
18388W        W82596  44.400  34.513   0.752
18389W        W82597   5.313  31.900   5.194
18390W        W82598  15.173  21.711   0.391
18391W        W82599  40.028  19.592  13.396
18392W        W82600  24.502  39.365   3.633
18393W        W82601  42.976   3.399   1.695
18394W        W82602  17.773  17.750  12.865
18395W        W82603   7.245  24.646  12.963
18396W        W82604  40.836  12.250  11.462
18397W        W82605  27.061  43.946  14.857
18398W        W82606  14.158  15.274  11.070
18399W        W82607   4.449  30.106  14.379
18400W        W82608  21.185  35.567  11.975
18401W        W82609  10.308  13.247  11.958
18402W        W82610  14.264   7.814  11.984
18403W        W82611  17.660  15.107  10.944
18404W        W82612  29.438  44.267  10.151
18405W        W82613  41.404  30.506  11.006
18406W        W82614  36.570   7.904   4.607
18407W        W82615   9.723  42.860   4.186
18408W        W82616   7.337  13.138  10.021
18409W        W82617  27.678   0.856   1.780
18410W        W82618  20.632  40.349  11.568
18411W        W82619  22.555   5.797   1.293
18412W        W82620  44.867  31.125  10.983
18413W        W82621  14.148  38.455   2.304
18414W        W82622  15.093  22.194   1.338
18415W        W82623  10.778   2.903  12.893
18416W        W82624  36.906  12.170   0.811
18417W        W82625   0.875  18.768  14.788
18418W        W82626  29.150  13.204  10.419
18419W        W82627  11.321  27.500   3.377
18420W        W82628  28.168   1.868   4.258
18421W        W82629   5.832  19.118   4.121
18422W        W82630  29.026  14.781   1.394
18423W        W82631  31.534  17.066   1.263
18424W        W82632  36.006  19.671  13.812
18425W        W82633  14.703   2.253  14.920
18426W        W82634  24.006  20.048  12.881
18427W        W82635   2.743  24.042  10.957
18428W        W82636   6.188  36.403  10.637
18429W        W82637  36.441  31.016   1.703
18430W        W82638  20.228  22.101  12.415
18431W        W82639  28.006   7.734   3.783
18432W        W82640  11.645   5.860  13.882
18433W        W82641   3.354   6.879   2.716
18434W        W82642  36.451  43.944   0.831
18435W        W82643  27.034  21.098  10.423
18436W        W82644   3.335  35.476  11.391
18437W        W82645  41.995  28.673   3.269
18438W        W82646  34.007  14.175  10.058
18439W        W82647   8.795  44.757   2.250
18440W        W82648  16.744  36.952   9.613
18441W        W82649  44.765  37.473  11.123
18442W        W82650   6.890   0.915   2.806
18443W        W82651  33.611  17.648  12.886
18444W        W82652  33.405  21.749  11.598
18445W        W82653  33.513   9.677   0.251
18446W        W82654  33.622  26.558   2.302
18447W        W82655  41.988  27.534  12.892
18448W        W82656  44.393  16.690   2.672
18449W        W82657  31.414   9.245  14.886
18450W        W82658  28.998  11.207  13.511
18451W        W82659   3.827   8.379  13.872
18452W        W82660  43.864   7.849   3.243
18453W        W82661   7.825   4.780   0.734
18454W        W82662  35.934  41.436   3.343
18455W        W82663   5.729   6.902  10.978
18456W        W82664  22.241  42.430   3.178
18457W        W82665  15.676  22.699   4.167
18458W        W82666   3.889  12.631  10.413
18459W        W82667  39.539  15.236  13.804
18460W        W82668   7.296  20.142  13.051
18461W        W82669  32.111  38.444  11.116
18462W        W82670   5.923  15.650   1.430
18463W        W82671  29.581  12.853  12.825
18464W        W82672  36.547  11.626   4.165
18465W        W82673  42.301  41.374   1.854
18466W        W82674   2.792   3.938  13.936
18467W        W82675  31.087  31.453  11.419
18468W        W82676  31.956  40.532   2.340
18469W        W82677   6.719  41.002  14.957
18470W        W82678  10.244  28.094   0.828
18471W        W82679  21.529  28.662   2.260
18472W        W82680   4.387  17.293   1.304
18473W        W82681  12.208  26.050  14.332
18474W        W82682   9.269   9.324   3.171
18475W        W82683  41.980  25.077   4.640
18476W        W82684  39.866  12.211   4.205
18477W        W82685  25.484  34.051   0.293
18478W        W82686  20.126  10.283   3.200
18479W        W82687   0.861  27.152  11.584
18480W        W82688   7.771  25.187   0.846
18481W        W82689  28.010  16.796  13.433
18482W        W82690  44.887   6.806  14.514
18483W        W82691  41.013   3.419  11.003
18484W        W82692  11.171  17.078  14.350
18485W        W82693  37.933   6.692  13.343
18486W        W82694   6.238   8.352  13.495
18487W        W82695  41.416   6.835   4.285
18488W        W82696  14.276  15.656  11.971
18489W        W82697  34.583   8.310   0.333
18490W        W82698  19.269  31.976  14.884
18491W        W82699   5.690  29.501   0.265
18492W        W82700  29.041   5.882   4.719
18493W        W82701  26.016  43.360   1.263
18494W        W82702  32.554  22.112   3.330
18495W        W82703   0.451  22.576   2.758
18496W        W82704  35.097  21.179  12.950
18497W        W82705  17.556  12.260   2.413
18498W        W82706  29.440  32.626  12.416
18499W        W82707  44.495  36.488   4.736
18500W        W82708  40.908  42.394  11.937
18501W        W82709  44.491  15.754  13.925
18502W        W82710   7.347  42.006   1.826
18503W        W82711  14.639   5.276  13.536
18504W        W82712  24.494  33.624  14.320
18505W        W82713  32.017  27.055  10.892
18506W        W82714  39.957  35.563   1.441
18507W        W82715  16.093  23.129  10.616
18508W        W82716  40.323  28.455  12.027
18509W        W82717   2.870  17.592  14.467
18510W        W82718  33.470  35.869  13.860
18511W        W82719  16.221  23.491  14.824
18512W        W82720  12.203  43.779   1.750
18513W        W82721  23.124  33.463   4.350
18514W        W82722  15.721  12.681   1.379
18515W        W82723  26.627  21.520   2.275
18516W        W82724  17.623  31.964  13.953
18517W        W82725  18.130   2.749   0.755
18518W        W82726   6.856  38.473  14.397
18519W        W82727  15.762  11.687  12.901
18520W        W82728  42.892  20.046  13.880
18521W        W82729  32.416  30.461  13.932
18522W        W82730  23.671  13.171  14.889
18523W        W82731  12.828  30.108   1.898
18524W        W82732  39.843  42.439   0.814
18525W        W82733  11.810   1.870  12.495
18526W        W82734  43.470  23.057   3.371
18527W        W82735  29.102  27.113  13.917
18528W        W82736  14.228   6.261   5.248
18529W        W82737  28.028  19.215   2.262
18530W        W82738   2.856  16.766  12.485
18531W        W82739  36.570   9.793  13.450
18532W        W82740   3.333   7.413  14.776
18533W        W82741   6.338   0.399   3.836
18534W        W82742  20.641  19.720  12.365
18535W        W82743  42.829  24.121  11.983
18536W        W82744  22.022  39.491  10.904
18537W        W82745  34.920   7.813   1.904
18538W        W82746  27.132  42.894   2.879
18539W        W82747  10.821  25.690  14.471
18540W        W82748   7.388  33.969   2.745
18541W        W82749  22.605  30.543  13.333
18542W        W82750  21.735  20.132   5.304
18543W        W82751   3.384  38.909  14.408
18544W        W82752  14.813  18.109  14.888
18545W        W82753   7.780  44.276  12.439
18546W        W82754  42.810   3.459   0.787
18547W        W82755  30.635   3.270  13.801
18548W        W82756  38.022  29.089  10.912
18549W        W82757  18.581  43.992  11.862
18550W        W82758  12.260   7.741  11.869
18551W        W82759   4.746  30.104  11.505
18552W        W82760  31.913  29.975  13.866
18553W        W82761   8.677  26.160   3.269
18554W        W82762  30.565  44.293  13.544
18555W        W82763   0.483  35.462   0.735
18556W        W82764  15.786  32.424  13.321
18557W        W82765  19.258  39.349   1.287
18558W        W82766   5.914  20.198   2.759
18559W        W82767  21.728  13.601  12.922
18560W        W82768  10.809  30.952  11.458
18561W        W82769   2.729  18.088   0.437
18562W        W82770  24.111  20.158  14.511
18563W        W82771  41.315  21.091   3.264
18564W        W82772   2.813  11.729  12.426
18565W        W82773  17.744   2.753  14.842
18566W        W82774  37.547  14.300   2.704
18567W        W82775   8.223  42.465   3.806
18568W        W82776  21.041  36.394  13.465
18569W        W82777   3.297  15.175  12.029
18570W        W82778  19.151   4.915   2.720
18571W        W82779  37.455  25.503   0.815
18572W        W82780   8.838  44.837   0.960
18573W        W82781  15.083  23.160   0.811
18574W        W82782  24.510  14.754  12.043
18575W        W82783  28.544  18.150  12.048
18576W        W82784  27.057  25.533   2.310
18577W        W82785  17.274  33.540  13.049
18578W        W82786  21.615   6.855   2.339
18579W        W82787   7.182  20.683  10.945
18580W        W82788  13.700  14.165  11.425
18581W        W82789  41.799  23.588   4.267
18582W        W82790  18.179   6.284   0.924
18583W        W82791   0.931   4.376   1.912
18584W        W82792   0.852  18.085   4.677
18585W        W82793  19.683   2.722  13.987
18586W        W82794  30.447  17.162   4.165
18587W        W82795   1.296   0.943  13.967
18588W        W82796  12.329   3.844   3.743
18589W        W82797  32.043  11.854   5.155
18590W        W82798  43.771   8.680  11.608
18591W        W82799  28.527  36.395  14.374
18592W        W82800  13.181  29.953   4.772
18593W        W82801  37.918  26.069   3.680
18594W        W82802   0.447  10.244  13.031
18595W        W82803  26.458  43.493  13.524
18596W        W82804  14.640  15.805  10.931
18597W        W82805  38.859  17.236  11.001
18598W        W82806  18.761  16.705   4.748
18599W        W82807  41.429  18.195  13.409
18600W        W82808  37.965  29.439   3.330
18601W        W82809  12.348   4.292   3.633
18602W        W82810   2.895  13.737  14.839
18603W        W82811  20.661   0.769  10.594
18604W        W82812  44.771  15.117   1.917
18605W        W82813  33.403  31.587   1.805
18606W        W82814  15.320   8.870   4.788
18607W        W82815  11.751  24.620  14.987
18608W        W82816  31.631  32.394   2.259
18609W        W82817  10.194  44.411   0.728
18610W        W82818   0.379  27.988  14.943
18611W        W82819  33.481   4.944  10.549
18612W        W82820  19.064  36.347   0.921
18613W        W82821   7.278  26.987   3.802
18614W        W82822  40.905  13.293   3.235
18615W        W82823  27.150  44.884   1.331
18616W        W82824  10.149   7.883   5.192
18617W        W82825  36.489  15.715  14.922
18618W        W82826  15.615  36.842  12.412
18619W        W82827  31.088  27.453  12.555
18620W        W82828  43.382  40.876  12.580
18621W        W82829  26.962  13.732   2.671
18622W        W82830   2.751  33.926  12.453
18623W        W82831  25.541   8.259   1.888
18624W        W82832   5.401  26.601  10.121
18625W        W82833  21.684   3.935  14.988
18626W        W82834  33.472  14.654   3.359
18627W        W82835   9.816   7.216   3.839
18628W        W82836  42.914  36.477  12.469
18629W        W82837  11.319  31.144  14.842
18630W        W82838  16.100   7.286  14.427
18631W        W82839  29.082  15.205   2.182
18632W        W82840  17.295  25.063   3.265
18633W        W82841  16.083   1.275  10.564
18634W        W82842  43.505  41.982   0.860
18635W        W82843  16.812  18.142  14.291
18636W        W82844   0.850  20.666   2.664
18637W        W82845  41.846   8.888  13.500
18638W        W82846  25.059  40.870   3.856
18639W        W82847  10.197  33.001   1.366
18640W        W82848  38.325  40.414   3.328
18641W        W82849  41.906   2.448   0.362
18642W        W82850   0.287  10.228  10.097
18643W        W82851  13.139  39.356   3.239
18644W        W82852  33.057  42.388   3.847
18645W        W82853  13.821  10.799  14.910
18646W        W82854  18.083   8.808  14.500
18647W        W82855   0.955   3.263   1.902
18648W        W82856  15.589  27.572   3.314
18649W        W82857  34.951  43.340   0.432
18650W        W82858  17.197  38.938  12.008
18651W        W82859   0.307  27.068  11.454
18652W        W82860  29.141  28.081  13.062
18653W        W82861  38.563  26.536  14.413
18654W        W82862   2.460   1.816   9.620
18655W        W82863  22.700  22.211   0.357
18656W        W82864  28.502  17.251   1.243
18657W        W82865  18.637   3.785   1.257
18658W        W82866  15.329  15.707   4.824
18659W        W82867  30.091   2.826  12.545
18660W        W82868  24.981   5.345   1.328
18661W        W82869  19.217  44.343  14.881
18662W        W82870   3.874  41.514   1.295
18663W        W82871  11.677  22.721   9.992
18664W        W82872  34.914  32.971  14.827
18665W        W82873  14.232  30.027  13.368
18666W        W82874  37.937  13.791  14.897
18667W        W82875  44.960  19.535   3.291
18668W        W82876  40.841  14.212  12.580
18669W        W82877  20.762   8.685  12.056
18670W        W82878   9.668  11.337  10.441
18671W        W82879  16.616  30.475  10.637
18672W        W82880   1.751  29.090   4.342
18673W        W82881  10.188   5.750  10.544
18674W        W82882  26.538   7.263  12.544
18675W        W82883  10.789   1.337   1.900
18676W        W82884  38.528  39.496  12.531
18677W        W82885  36.949  28.010   1.232
18678W        W82886  19.619  36.468   1.871
18679W        W82887  43.515  29.922  14.899
18680W        W82888  36.943  35.855  13.858
18681W        W82889  20.212  10.797  13.975
18682W        W82890  12.171   6.882   1.412
18683W        W82891   3.734  21.735  11.103
18684W        W82892   8.179  40.422   3.694
18685W        W82893  28.534  13.816   1.851
18686W        W82894  33.064   1.806   1.710
18687W        W82895  16.134   8.896  11.104
18688W        W82896  43.825  39.988   0.912
18689W        W82897  26.553  36.399   4.759
18690W        W82898  34.052  21.641  14.941
18691W        W82899  30.090  36.486   1.377
18692W        W82900  23.191  15.176  13.056
18693W        W82901  43.009  31.102   0.792
18694W        W82902  30.492  22.717  14.999
18695W        W82903  28.454  34.988  10.587
18696W        W82904  35.362   5.376   1.868
18697W        W82905  41.510  25.996  14.837
18698W        W82906  37.007  38.488   2.824
18699W        W82907  13.769   4.280  14.865
18700W        W82908  36.904  38.446   1.291
18701W        W82909  21.199  10.844  13.961
18702W        W82910  34.099  32.063   4.174
18703W        W82911  19.192  11.326   2.885
18704W        W82912  21.621  13.303   3.369
18705W        W82913  30.056   0.813   3.641
18706W        W82914  42.518   2.337   0.942
18707W        W82915  20.644  31.955  11.005
18708W        W82916  23.591  26.465  12.352
18709W        W82917  12.765  23.499   2.882
18710W        W82918   8.369  28.659  11.486
18711W        W82919  23.712  41.386   4.733
18712W        W82920  34.100   4.357  11.420
18713W        W82921  33.585  41.019  11.991
18714W        W82922   6.818  44.966   1.225
18715W        W82923  30.955  28.665  12.344
18716W        W82924  43.386  10.716  13.822
18717W        W82925  23.545   2.802  13.354
18718W        W82926   8.281  43.874   2.853
18719W        W82927   9.287  19.088  14.938
18720W        W82928  18.559   7.173  13.489
18721W        W82929  40.533  14.769  13.337
18722W        W82930  10.242  21.147   0.396
18723W        W82931  31.066  20.617   1.275
18724W        W82932  10.208   0.450  11.913
18725W        W82933  39.409  28.594   0.335
18726W        W82934  26.468  33.598  12.545
18727W        W82935  13.795  26.679   2.876
18728W        W82936  23.207  34.881  11.412
18729W        W82937  28.605  21.758  10.546
18730W        W82938  16.674  12.251  14.952
18731W        W82939   3.797  23.731  11.907
18732W        W82940  29.499  13.634  13.488
18733W        W82941   8.891  17.766   4.231
18734W        W82942   1.474  32.946  14.424
18735W        W82943  43.300  17.165   3.818
18736W        W82944  11.812   4.343  11.935
18737W        W82945   5.754   4.339   4.152
18738W        W82946  43.360  12.142  12.581
18739W        W82947  44.259  43.876   1.340
18740W        W82948  29.114  11.339  10.957
18741W        W82949  28.043  16.280  11.549
18742W        W82950   2.741   4.243   2.303
18743W        W82951   4.333  32.012  14.375
18744W        W82952   5.859  18.785   4.615
18745W        W82953  14.136  31.418  11.907
18746W        W82954  25.483   4.729   2.413
18747W        W82955  37.569   3.724   1.859
18748W        W82956  35.525  29.125   0.482
18749W        W82957  15.817  17.719   1.712
18750W        W82958  23.017  42.854   1.913
18751W        W82959  19.052  32.584   1.705
18752W        W82960   7.792  19.228  12.458
18753W        W82961   2.735  20.592  14.372
18754W        W82962  38.545  19.049   0.907
18755W        W82963   3.308  35.366  12.092
18756W        W82964  12.715  27.640   1.903
18757W        W82965  11.352   9.864   3.197
18758W        W82966  36.373  40.045  10.443
18759W        W82967  37.927   3.301   5.654
18760W        W82968   0.789  40.979  11.498
18761W        W82969  42.402  17.786   0.285
18762W        W82970  40.838  10.225  14.284
18763W        W82971  42.404  17.279   2.413
18764W        W82972  39.941   3.420  13.479
18765W        W82973  17.588  19.269   0.779
18766W        W82974  41.444   0.458  14.515
18767W        W82975   5.699   8.751   0.954
18768W        W82976  33.576  23.589  10.613
18769W        W82977  29.503  32.485  10.636
18770W        W82978  36.536  11.370  11.606
18771W        W82979   6.388  32.538  10.545
18772W        W82980  30.125  28.149  13.886
18773W        W82981  10.846  24.023  14.451
18774W        W82982   8.230  10.316  11.489
18775W        W82983  19.698  41.513   3.158
18776W        W82984  26.565  29.583   0.750
18777W        W82985  25.687  10.802   1.778
18778W        W82986  26.668  36.438  11.986
18779W        W82987   5.211  11.736  10.894
18780W        W82988   4.874   1.933   2.234
18781W        W82989  37.336  15.750   0.432
18782W        W82990  19.082   0.869  14.312
18783W        W82991  44.890   1.299  10.024
18784W        W82992   9.336  29.453  12.574
18785W        W82993  40.432  39.419  13.985
18786W        W82994  39.387   6.212  10.412
18787W        W82995  30.547  31.090  11.094
18788W        W82996  40.480  21.580  13.329
18789W        W82997   2.793  32.138  11.414
18790W        W82998  40.908  20.693  14.778
18791W        W82999  29.005  24.577  11.036
18792W        W83000   1.413  37.549   4.639
18793W        W83001  41.492  15.749  10.628
18794W        W83002   0.907  23.143  14.992
18795W        W83003  12.319  29.946   2.716
18796W        W83004  15.581   6.850  11.918
18797W        W83005  16.236  11.181  12.919
18798W        W83006  26.698  21.634   3.742
18799W        W83007  15.203  41.927  13.994
18800W        W83008  25.593  18.685   0.448
18801W        W83009   3.438  21.141   5.237
18802W        W83010  32.600   9.754   2.721
18803W        W83011   7.295  28.997  13.901
18804W        W83012  16.596  43.986   2.664
18805W        W83013   7.399  40.013  12.457
18806W        W83014   5.280  39.869  11.979
18807W        W83015   7.673  42.916  11.078
18808W        W83016  31.476   6.800  12.488
18809W        W83017  32.132  18.217   3.337
18810W        W83018   9.233  29.055  12.041
18811W        W83019   0.332  14.673  14.316
18812W        W83020  20.628  18.148   1.431
18813W        W83021  28.127   3.307  12.031
18814W        W83022  37.456  17.758  10.543
18815W        W83023  17.233  27.148   3.779
18816W        W83024  21.173  44.838  12.846
18817W        W83025  37.429  42.339  12.517
18818W        W83026   1.244   1.949  13.351
18819W        W83027  22.212  16.316  11.934
18820W        W83028  10.779  40.962  12.383
18821W        W83029  42.316  16.079   0.958
18822W        W83030   4.873  15.218   1.918
18823W        W83031  17.594   1.927   4.808
18824W        W83032  44.758  37.522   0.397
18825W        W83033  42.921  24.139  14.777
18826W        W83034  14.218   3.240   3.656
18827W        W83035  10.849  24.097  14.883
18828W        W83036  12.722  30.920   3.633
18829W        W83037  10.302  37.578  11.111
18830W        W83038   0.824  34.078   0.430
18831W        W83039  36.400  41.954   3.699
18832W        W83040  28.122   3.395  12.488
18833W        W83041  22.232  43.020   0.424
18834W        W83042  35.031  42.451   2.779
18835W        W83043  12.700   5.688   2.395
18836W        W83044   2.904   3.276   4.688
18837W        W83045  22.135  37.513  13.532
18838W        W83046  24.565   1.847   3.184
18839W        W83047  33.080  32.925  10.454
18840W        W83048  33.977  22.010  12.839
18841W        W83049  14.147  28.129  12.507
18842W        W83050  11.802  11.130  13.986
18843W        W83051  30.972  32.609   2.711
18844W        W83052  30.104  22.545   0.773
18845W        W83053  14.628   6.910   3.666
18846W        W83054  22.234  19.077  11.035
18847W        W83055  10.672  34.563   3.678
18848W        W83056  11.624  16.636   2.793
18849W        W83057  13.345  44.819   1.253
18850W        W83058  43.990  25.089  13.461
18851W        W83059  34.976  42.870   1.322
18852W        W83060   9.192  15.692   0.824
18853W        W83061  23.618  34.511  14.403
18854W        W83062   7.376  32.023   4.727
18855W        W83063  28.641  10.220   1.699
18856W        W83064   6.745  38.048   2.307
18857W        W83065  37.534  37.935   1.893
18858W        W83066  35.481  30.561  14.299
18859W        W83067  17.202  23.589  11.495
18860W        W83068  10.355   6.322   4.816
18861W        W83069   6.912   6.730  12.535
18862W        W83070   8.318  30.419   4.216
18863W        W83071   5.861  32.906   0.825
18864W        W83072  25.195   9.258   0.281
18865W        W83073  10.179  21.548   1.210
18866W        W83074  20.558  43.818   1.874
18867W        W83075  22.127   3.726  14.993
18868W        W83076  39.039  43.445  14.280
18869W        W83077  23.599  39.017   0.874
18870W        W83078   1.396  11.192   0.819
18871W        W83079  39.483  38.485   3.255
18872W        W83080   7.813  37.356   5.114
18873W        W83081   8.897  13.603  14.928
18874W        W83082  17.724   6.303  14.931
18875W        W83083  44.363   2.354   4.246
18876W        W83084  12.202  16.720  12.080
18877W        W83085  24.504  13.337  11.613
18878W        W83086  18.256  20.569   1.910
18879W        W83087  40.527  16.241   0.356
18880W        W83088   5.221  26.612  11.105
18881W        W83089  24.190  33.408  12.469
18882W        W83090  40.870   6.199  10.485
18883W        W83091   4.706  26.497   3.839
18884W        W83092   8.189  34.975  11.526
18885W        W83093  22.049  26.494  13.931
18886W        W83094   5.263   4.398  13.859
18887W        W83095  33.544   2.882   3.834
18888W        W83096   4.817  21.044   0.243
18889W        W83097  23.022  13.823   4.754
18890W        W83098  44.888  42.816  14.761
18891W        W83099   8.188  41.465   3.659
18892W        W83100  39.969  23.161   3.347
18893W        W83101  15.632   3.769  10.589
18894W        W83102   4.215  15.644  14.433
18895W        W83103  34.003   2.373   1.338
18896W        W83104  27.465  32.634   4.657
18897W        W83105   6.873  21.735   4.794
18898W        W83106  43.824  37.470  10.894
18899W        W83107  33.131   6.243  14.023
18900W        W83108  17.640  43.966  13.000
18901W        W83109  23.235  14.200  11.503
18902W        W83110  31.626  28.653   3.274
18903W        W83111   0.304  33.403   9.590
18904W        W83112  14.647  29.979   2.840
18905W        W83113  21.170  12.824   1.885
18906W        W83114  14.324  43.332   1.389
18907W        W83115  33.570  37.495   0.292
18908W        W83116   8.278  32.578  11.924
18909W        W83117  22.006  25.045   0.378
18910W        W83118  44.911  43.451   3.309
18911W        W83119  12.307  11.800  13.434
18912W        W83120  25.099  17.788   2.363
18913W        W83121  27.537  14.614  10.998
18914W        W83122  40.002  38.888   4.351
18915W        W83123  40.012  10.235  11.549
18916W        W83124  36.348  36.368  10.644
18917W        W83125  40.983  39.861  13.359
18918W        W83126  24.689  34.046  12.878
18919W        W83127   6.183  29.935  11.598
18920W        W83128  25.602  18.549  11.047
18921W        W83129  10.772   7.814  13.309
18922W        W83130  26.469  21.193  13.967
18923W        W83131   7.781  34.971  12.443
18924W        W83132  39.522  36.921   2.322
18925W        W83133  38.843  17.241   4.152
18926W        W83134  18.677  31.626   3.282
18927W        W83135  38.551  10.866  14.814
18928W        W83136   9.294  20.566  11.583
18929W        W83137   9.175  39.939  10.487
18930W        W83138  32.440  22.035   3.706
18931W        W83139  18.722   9.835   4.785
18932W        W83140  29.609   6.208  11.478
18933W        W83141  13.699   4.868   2.323
18934W        W83142  28.522  19.610  11.507
18935W        W83143  42.908  38.539  13.919
18936W        W83144  19.743   3.726   2.180
18937W        W83145   4.900   2.379   3.263
18938W        W83146   8.178  22.048   2.311
18939W        W83147  35.930   0.489  13.459
18940W        W83148  20.102  40.394   4.627
18941W        W83149  14.740  25.584   0.928
18942W        W83150   2.936  10.194   4.600
18943W        W83151  10.334   6.792  10.962
18944W        W83152  28.591  23.577   1.804
18945W        W83153  41.296  41.426   2.283
18946W        W83154  26.654   6.390   3.222
18947W        W83155  28.120  24.564  14.402
18948W        W83156   5.237  36.848   1.924
18949W        W83157   0.954   2.430   3.749
18950W        W83158  28.180  34.434  10.569
18951W        W83159  44.414   9.665  13.059
18952W        W83160   4.771  43.344   1.714
18953W        W83161  11.245  25.547  13.419
18954W        W83162  40.346  26.525   4.213
18955W        W83163  42.957  25.655   2.703
18956W        W83164   8.860   0.839   0.814
18957W        W83165  29.595  43.771  11.894
18958W        W83166  19.186   1.734  12.094
18959W        W83167  21.521  20.753  12.394
18960W        W83168  33.623   6.874   2.775
18961W        W83169  22.613  29.556  12.557
18962W        W83170  23.101  12.793   0.254
18963W        W83171  10.236   2.743   0.289
18964W        W83172   2.855   0.962   0.420
18965W        W83173  29.114  13.612  13.546
18966W        W83174  25.641  33.392   2.789
18967W        W83175  41.977  29.072  12.061
18968W        W83176  44.836  33.891  11.876
18969W        W83177  32.942  37.533  10.443
18970W        W83178  43.962  25.039   0.880
18971W        W83179  35.604   8.294   2.875
18972W        W83180   1.973   0.896  11.529
18973W        W83181   5.760  36.938   2.346
18974W        W83182  16.255   3.910   1.866
18975W        W83183   8.848  23.599  14.959
18976W        W83184  27.618  32.916  12.077
18977W        W83185  11.722  38.025   1.293
18978W        W83186   8.335  16.088  14.296
18979W        W83187  14.225   5.920   1.868
18980W        W83188  12.632   9.882   0.734
18981W        W83189  25.032  22.689   1.232
18982W        W83190  26.965  17.247  11.980
18983W        W83191  24.622  33.438   0.262
18984W        W83192  43.811  33.923  11.433
18985W        W83193  33.600  26.979   4.182
18986W        W83194   6.382  44.365  10.109
18987W        W83195  23.153   8.692   4.143
18988W        W83196  32.571  12.847   3.787
18989W        W83197  25.150  37.846   2.701
18990W        W83198   1.856  11.369  13.887
18991W        W83199   1.976  14.649  14.369
18992W        W83200  25.674  36.025   4.151
18993W        W83201  21.092  44.489   4.777
18994W        W83202  44.362  17.268  12.537
18995W        W83203  21.244  37.341  12.460
18996W        W83204   2.429  30.102  14.837
18997W        W83205   9.676   3.735  13.946
18998W        W83206  30.477   9.788   1.730
18999W        W83207  11.209   4.253   4.699
19000W        W83208  32.441  42.344   4.344
19001W        W83209  24.524  17.758   1.697
19002W        W83210   9.335  27.521  13.447
19003W        W83211  27.500   2.834  11.498
19004W        W83212  34.008  30.058   2.357
19005W        W83213  37.440  25.493  12.388
19006W        W83214  43.002  27.501   0.932
19007W        W83215  37.391   6.890  14.468
19008W        W83216  13.678  34.415   4.150
19009W        W83217  22.015  28.592  12.017
19010W        W83218  14.642  43.930  10.590
19011W        W83219  38.333   2.391   1.259
19012W        W83220  20.650  26.155   4.199
19013W        W83221  34.020  41.534  12.394
19014W        W83222  43.487  22.546  13.013
19015W        W83223  43.926   6.394  11.606
19016W        W83224  24.646  42.806  14.366
19017W        W83225  22.064  21.238  12.470
19018W        W83226   1.339  11.161  13.849
19019W        W83227  24.488   6.343  13.408
19020W        W83228  43.464  13.162  10.457
19021W        W83229  34.104  11.688  12.003
19022W        W83230  22.516   8.672  11.601
19023W        W83231  30.004  44.458   9.933
19024W        W83232  26.611  26.058  11.903
19025W        W83233  20.241  20.731  11.582
19026W        W83234  22.008  14.618   1.319
19027W        W83235  37.904   8.793  12.429
19028W        W83236  36.009  32.464   0.452
19029W        W83237  11.735  41.468   0.825
19030W        W83238  22.608  22.720   5.287
19031W        W83239   5.361  40.020   3.712
19032W        W83240  44.355  13.300   2.224
19033W        W83241  25.584  22.182   2.694
19034W        W83242  21.628  23.580   3.830
19035W        W83243  26.516  38.473  11.042
19036W        W83244  20.124  20.765  14.952
19037W        W83245  33.028  36.970   0.952
19038W        W83246  44.811   7.311  13.365
19039W        W83247  38.537   5.839   0.343
19040W        W83248  32.958  28.595  11.906
19041W        W83249  10.712   4.855   4.723
19042W        W83250  16.135  28.955  11.979
19043W        W83251  34.902  41.434  10.938
19044W        W83252  12.167  29.576   1.220
19045W        W83253  44.004  14.607   2.373
19046W        W83254  14.649  24.486   1.857
19047W        W83255   0.989   3.832   4.163
19048W        W83256  39.468  37.474  14.789
19049W        W83257  14.811  32.972   2.406
19050W        W83258  28.473  39.930   2.287
19051W        W83259  30.131  35.866  11.906
19052W        W83260  35.905   9.384   1.323
19053W        W83261  12.293  32.633   4.812
19054W        W83262   5.274  43.008  13.831
19055W        W83263  28.969   8.217  14.277
19056W        W83264  10.321  32.414  10.898
19057W        W83265  24.975  21.532   2.880
19058W        W83266   9.654  10.769   3.219
19059W        W83267  38.486  36.072   3.173
19060W        W83268  26.576  43.370  12.873
19061W        W83269  11.665   3.296   4.822
19062W        W83270  12.702  15.198   3.267
19063W        W83271  11.302  16.110   3.254
19064W        W83272   2.929  29.657   3.332
19065W        W83273  39.387  39.906  12.093
19066W        W83274  32.080  22.184  13.794
19067W        W83275  29.628  26.638   4.752
19068W        W83276   5.377  24.127  11.452
19069W        W83277  18.111  37.435   3.260
19070W        W83278  35.085   1.854  10.922
19071W        W83279   7.350  30.547  11.426
19072W        W83280  30.608  13.143  10.035
19073W        W83281   8.206  43.007   2.889
19074W        W83282  27.458   9.850   0.367
19075W        W83283  39.491  38.848   1.852
19076W        W83284   2.297  33.614   3.246
19077W        W83285   6.840  42.781  12.091
19078W        W83286  10.295  10.274  13.053
19079W        W83287   0.267  32.600  14.445
19080W        W83288  30.591  17.234   5.607
19081W        W83289  17.091  34.458   0.875
19082W        W83290  28.526  23.640  14.794
19083W        W83291  28.456  37.976   1.739
19084W        W83292   9.230  40.807   2.319
19085W        W83293  24.171  25.476  14.457
19086W        W83294  36.000  28.044  14.413
19087W        W83295  39.881  25.062   1.421
19088W        W83296  15.311  43.300   3.715
19089W        W83297   6.773  42.286   4.290
19090W        W83298  31.489  35.068  14.299
19091W        W83299  28.090  41.841   4.629
19092W        W83300   7.299  35.395   0.322
19093W        W83301  27.983  44.782   1.264
19094W        W83302  42.506  19.626   2.812
19095W        W83303  38.980  24.723   4.200
19096W        W83304  21.660   4.730  14.933
19097W        W83305  37.082  18.577   1.759
19098W        W83306  19.102   9.741   3.261
19099W        W83307  44.460  43.361   4.678
19100W        W83308   1.840  23.171   3.232
19101W        W83309  37.403  22.077  14.410
19102W        W83310   1.858   9.669  13.410
19103W        W83311  28.633  32.586   3.651
19104W        W83312  13.622  37.338  14.882
19105W        W83313  40.331  44.001   0.286
19106W        W83314   7.775   4.204  12.022
19107W        W83315  35.449  17.084   3.703
19108W        W83316   3.851  36.555  11.465
19109W        W83317  37.570  35.989   0.798
19110W        W83318  23.008  19.161  14.340
19111W        W83319   7.731  22.684  10.062
19112W        W83320  28.654  41.927   3.654
19113W        W83321   6.774   9.888   1.336
19114W        W83322  11.813  38.858  11.975
19115W        W83323  35.873  41.853  10.594
19116W        W83324  18.190  20.759   0.829
19117W        W83325  24.583  10.147  10.469
19118W        W83326  20.621  24.568   2.864
19119W        W83327   8.265  17.128   3.666
19120W        W83328  44.963  38.054   1.860
19121W        W83329  29.953  12.744  10.443
19122W        W83330  16.132  21.093   4.240
19123W        W83331  19.152  30.140   3.865
19124W        W83332  32.992   3.245  13.993
19125W        W83333  38.043  21.050   1.438
19126W        W83334   6.335   2.275   1.925
19127W        W83335  18.277  12.805  12.545
19128W        W83336  24.571  27.101  12.392
19129W        W83337  24.210  10.282   2.679
19130W        W83338  16.112  21.159  12.000
19131W        W83339   1.465  37.407  14.857
19132W        W83340  36.015  31.985  11.102
19133W        W83341  36.085   0.796  14.896
19134W        W83342  22.110  42.363  11.414
19135W        W83343  33.082  34.076  12.477
19136W        W83344   3.718  29.001  10.468
19137W        W83345   3.260  41.806  10.530
19138W        W83346  39.498  33.488   1.418
19139W        W83347   0.921  36.845  12.982
19140W        W83348  35.946   7.376  10.923
19141W        W83349  39.853   7.368  12.398
19142W        W83350   8.690  10.692   2.316
19143W        W83351  19.671  33.509   2.725
19144W        W83352  21.739  43.278   2.278
19145W        W83353  22.698  24.590   1.359
19146W        W83354  21.600  43.819  11.017
19147W        W83355   1.960  26.180   3.260
19148W        W83356  43.373  30.014   1.912
19149W        W83357  44.764  31.016  11.918
19150W        W83358  44.502  41.313  13.909
19151W        W83359   2.822   0.441  11.587
19152W        W83360  22.199  19.077  12.966
19153W        W83361  40.893  41.936  10.607
19154W        W83362  39.509  21.529   0.284
19155W        W83363   3.809  31.977   1.903
19156W        W83364  42.471  27.945  10.560
19157W        W83365  32.137  12.156  14.912
19158W        W83366  28.510   3.757  14.399
19159W        W83367   5.344  33.449  13.794
19160W        W83368  25.616  32.901  13.953
19161W        W83369  25.145  15.691   3.356
19162W        W83370  23.063  23.591   3.779
19163W        W83371  42.835  37.483   5.091
19164W        W83372   3.258  22.734  10.465
19165W        W83373   3.292  42.794   2.350
19166W        W83374   5.923   1.820   2.810
19167W        W83375  13.691   2.245  14.775
19168W        W83376  16.240  41.016  10.534
19169W        W83377   2.439  13.332  11.919
19170W        W83378  25.618   0.379   4.345
19171W        W83379  43.962  21.088  14.875
19172W        W83380  17.179  40.043   3.718
19173W        W83381  12.768  37.937  12.057
19174W        W83382   2.883  36.483   4.260
19175W        W83383  13.312   0.370   4.715
19176W        W83384  39.496   6.762   1.308
19177W        W83385  16.179  27.985   1.279
19178W        W83386   2.828   9.647  14.490
19179W        W83387  17.182  44.455  13.016
19180W        W83388  25.091  29.519   4.331
19181W        W83389  36.931   9.151  14.002
19182W        W83390  38.447  10.649   1.910
19183W        W83391  20.626  17.078  11.999
19184W        W83392  16.728  17.289  10.584
19185W        W83393  34.047  21.700   0.880
19186W        W83394  10.865  44.948  13.526
19187W        W83395  38.552  32.392   3.312
19188W        W83396  12.329  38.333  14.781
19189W        W83397  33.500  24.545   4.281
19190W        W83398   0.451  38.056   1.429
19191W        W83399  36.585  19.201   2.344
19192W        W83400  26.203  39.966  11.934
19193W        W83401  13.219  28.016  14.005
19194W        W83402  23.571  31.569   2.838
19195W        W83403   0.868  11.255   4.331
19196W        W83404  37.936  42.913  13.417
19197W        W83405  28.181  33.588  12.038
19198W        W83406  24.658  37.064   4.833
19199W        W83407  17.567   8.671  12.077
19200W        W83408  41.423   6.787   0.470
19201W        W83409  13.242  30.950  10.404
19202W        W83410  14.114  24.089   1.367
19203W        W83411  32.582  11.199  14.309
19204W        W83412  31.440  18.710   4.318
19205W        W83413   3.339  28.063  14.976
19206W        W83414  19.577  36.393   2.847
19207W        W83415  34.505   3.826   0.482
19208W        W83416  40.516   2.385   4.286
19209W        W83417  41.900  27.111  12.946
19210W        W83418  30.523  17.710   4.116
19211W        W83419   0.984  26.179  10.523
19212W        W83420  11.754  16.702  13.987
19213W        W83421   2.901  23.055  12.938
19214W        W83422  14.111  33.561   0.747
19215W        W83423   1.821  40.931  12.875
19216W        W83424   0.989   3.390  13.466
19217W        W83425  16.101  14.179   3.309
19218W        W83426  18.107  41.345   0.900
19219W        W83427  29.954   0.945  12.923
19220W        W83428   0.286  29.074  12.056
19221W        W83429  39.009  14.224  14.905
19222W        W83430   8.376  10.207   3.311
19223W        W83431  19.635   0.803  11.584
19224W        W83432  37.402   1.787   4.678
19225W        W83433  15.683  44.504   0.347
19226W        W83434  40.325   3.737   3.656
19227W        W83435  30.956  29.638   4.706
19228W        W83436  19.654  18.122  13.947
19229W        W83437  28.560  16.284   5.648
19230W        W83438  21.194  24.213   3.758
19231W        W83439  41.909   3.240   2.369
19232W        W83440   7.817  13.109  10.614
19233W        W83441  17.648  36.011   2.334
19234W        W83442  25.603  27.575  12.003
19235W        W83443  25.491  14.202   5.108
19236W        W83444  22.061   7.703   4.637
19237W        W83445  34.480   8.377  10.471
19238W        W83446  44.392  38.561   2.821
19239W        W83447   8.750  17.259   4.171
19240W        W83448  36.532  37.546   1.882
19241W        W83449  33.092  16.256  12.973
19242W        W83450  22.697  15.139   2.770
19243W        W83451  29.011  22.058   0.245
19244W        W83452  38.982  16.110  12.439
19245W        W83453  10.785  13.690   2.247
19246W        W83454  27.176  16.732   2.369
19247W        W83455  15.131  29.022  12.041
19248W        W83456   3.427  30.500  14.767
19249W        W83457  17.773  14.126   3.670
19250W        W83458  23.022  30.109   2.257
19251W        W83459  23.725  39.368   4.139
19252W        W83460  40.941  20.732   1.772
19253W        W83461  22.693  41.019   1.392
19254W        W83462   5.930  13.307   3.727
19255W        W83463   6.918  26.550   4.198
19256W        W83464   5.902  20.062   1.919
19257W        W83465  25.184   1.405   4.125
19258W        W83466  42.410  44.796   0.244
19259W        W83467  28.614  37.938   4.716
19260W        W83468  24.654  10.759   0.385
19261W        W83469  39.468  21.573  12.542
19262W        W83470  23.071  37.883  14.418
19263W        W83471   3.785  31.102  10.406
19264W        W83472  39.971   9.251   2.222
19265W        W83473  13.624  10.769   4.815
19266W        W83474  13.308  18.140   9.955
19267W        W83475   2.736  19.756   4.702
19268W        W83476  44.970  43.327   0.754
19269W        W83477  17.187  24.491   4.245
19270W        W83478  12.361  40.948  11.080
19271W        W83479   6.376   1.819   2.219
19272W        W83480  40.441  44.284  12.979
19273W        W83481  22.107  30.496   4.212
19274W        W83482  36.038  24.041  14.493
19275W        W83483  40.868  15.679  14.012
19276W        W83484  16.316   2.354  11.994
19277W        W83485  36.999  41.990   3.858
19278W        W83486  28.652  12.744  12.498
19279W        W83487  21.086  40.972   5.139
19280W        W83488  32.422  15.224  13.874
19281W        W83489  16.782  33.550  11.859
19282W        W83490  11.782  11.793   3.772
19283W        W83491  12.733  10.168  12.550
19284W        W83492  30.040  10.252   0.884
19285W        W83493  30.961  32.959  14.329
19286W        W83494  43.503  44.954   4.731
19287W        W83495  31.426  25.100  13.351
19288W        W83496   2.302  24.570   4.598
19289W        W83497  17.098  29.426   2.389
19290W        W83498  33.991  11.210  11.495
19291W        W83499  39.485  15.143  14.806
19292W        W83500  27.581  11.621  14.403
19293W        W83501  38.549   1.410  14.441
19294W        W83502  38.486  33.100   0.759
19295W        W83503  21.633   6.749   4.325
19296W        W83504  32.526  17.630   5.236
19297W        W83505   0.844  42.418  10.535
19298W        W83506  34.995  14.629  11.054
19299W        W83507  29.941  18.260   2.711
19300W        W83508  43.351   5.279  14.888
19301W        W83509  23.221  13.635   1.276
19302W        W83510  29.514  44.465  12.478
19303W        W83511  35.567  33.009  13.806
19304W        W83512  21.523  11.856   1.924
19305W        W83513  17.086  28.613  11.598
19306W        W83514  17.563   7.863   4.635
19307W        W83515  38.479  24.189   3.177
19308W        W83516  35.506  23.655   0.824
19309W        W83517  35.013  31.614  12.495
19310W        W83518  43.377   3.274   0.387
19311W        W83519  21.248  33.601   3.703
19312W        W83520  28.458  21.756  12.871
19313W        W83521  30.092  21.217  10.560
19314W        W83522  40.909   0.865  13.445
19315W        W83523   9.771  34.593  14.446
19316W        W83524   0.824  32.409  14.362
19317W        W83525  10.870   7.235   4.632
19318W        W83526  44.779  11.866   4.812
19319W        W83527  35.897  32.425   3.692
19320W        W83528  20.211  42.796  14.991
19321W        W83529   0.766   5.914   4.806
19322W        W83530  34.891  10.170  13.851
19323W        W83531  16.688  32.134   4.837
19324W        W83532   5.433  18.170   2.742
19325W        W83533  41.511  20.210  11.008
19326W        W83534  24.163  15.686  14.478
19327W        W83535  15.311  42.424   0.452
19328W        W83536  42.328   6.838  14.792
19329W        W83537  44.355  43.907  10.135
19330W        W83538  27.003  25.613   4.206
19331W        W83539  14.149  44.467   1.278
19332W        W83540   2.382   6.348  14.010
19333W        W83541  30.928  12.758   4.251
19334W        W83542  14.835  13.280  13.510
19335W        W83543  26.496   3.919   2.211
19336W        W83544  25.474  36.494   1.264
19337W        W83545  33.941   6.328   3.266
19338W        W83546  12.732  30.550   2.816
19339W        W83547   0.825  22.009  14.423
19340W        W83548  21.608  19.067  11.482
19341W        W83549   8.782  39.537  13.511
19342W        W83550   9.690  36.078   2.664
19343W        W83551  37.029  38.043   2.701
19344W        W83552  29.945  33.130  12.985
19345W        W83553  35.600   8.688  12.051
19346W        W83554  26.575   7.342  13.545
19347W        W83555  20.565  29.937   0.316
19348W        W83556  24.069  30.930   4.118
19349W        W83557  20.265  37.035  14.991
19350W        W83558   7.850  12.187  11.588
19351W        W83559  20.621  18.565   0.914
19352W        W83560  31.056  22.089   1.339
19353W        W83561  39.494  19.227   3.227
19354W        W83562  11.234  18.121  11.610
19355W        W83563   6.253  38.458   3.828
19356W        W83564  15.285   2.415  14.865
19357W        W83565  22.164   0.310  13.318
19358W        W83566   4.756   7.293   4.722
19359W        W83567   9.392  17.068  10.483
19360W        W83568   4.938  15.639  14.861
19361W        W83569  34.082  31.998  14.772
19362W        W83570  10.725  15.117  13.422
19363W        W83571   4.383  19.123  12.418
19364W        W83572  39.343   6.320   2.337
19365W        W83573  31.582  28.038   2.783
19366W        W83574  24.694   6.420  10.611
19367W        W83575   2.723  41.426  13.374
19368W        W83576  30.045   0.947   1.326
19369W        W83577  21.665   1.795   5.174
19370W        W83578  23.121  20.148   4.679
19371W        W83579  17.754  17.653  11.551
19372W        W83580  36.965  24.170   4.217
19373W        W83581  29.154  41.354  13.032
19374W        W83582   9.764   2.780   2.330
19375W        W83583   5.880   1.950  14.381
19376W        W83584  38.464  43.284   4.768
19377W        W83585  14.641  41.005  12.570
19378W        W83586   0.481   4.839  11.044
19379W        W83587  10.304  12.742  13.481
19380W        W83588  27.605  37.972   3.734
19381W        W83589  35.462  36.098   1.398
19382W        W83590   6.210  35.396   3.805
19383W        W83591  29.495  35.018  10.904
19384W        W83592  36.956  30.923  14.297
19385W        W83593  22.135  10.729  11.948
19386W        W83594  14.251  21.111  11.944
19387W        W83595  13.757  29.651   2.371
19388W        W83596  23.024  22.229   4.145
19389W        W83597  43.347  30.446   2.744
19390W        W83598  34.394  25.023   3.174
19391W        W83599   8.659  36.878   2.212
19392W        W83600  11.678  10.189  12.912
19393W        W83601  10.694  38.363   0.263
19394W        W83602  29.069  28.049   2.898
19395W        W83603  15.223  11.772   4.660
19396W        W83604  12.840  34.989   0.886
19397W        W83605  20.185  40.970   2.332
19398W        W83606   4.343   0.895   4.259
19399W        W83607  21.154  14.277  11.982
19400W        W83608  21.239   8.776   3.867
19401W        W83609  39.358  20.087   4.773
19402W        W83610   6.798  35.977  12.047
19403W        W83611   4.381  33.435  12.903
19404W        W83612  22.514   3.792  11.422
19405W        W83613  22.637  31.006  10.952
19406W        W83614  22.108   6.182   5.226
19407W        W83615  32.016  31.963   3.799
19408W        W83616   5.694   5.869   3.306
19409W        W83617  31.517  41.535   4.349
19410W        W83618  41.499  16.605  12.435
19411W        W83619  35.051  37.480   1.210
19412W        W83620   2.393  18.106   4.244
19413W        W83621  22.137  16.621  14.434
19414W        W83622  36.565   7.299  11.558
19415W        W83623  36.477  16.234  12.006
19416W        W83624  41.426  29.524  14.984
19417W        W83625  20.618  21.068   1.896
19418W        W83626  28.519  39.362   2.709
19419W        W83627  21.692   3.883  10.506
19420W        W83628  29.980   6.258   3.660
19421W        W83629  36.067  44.502  13.997
19422W        W83630  28.990  11.701  12.026
19423W        W83631   0.755  41.496   0.401
19424W        W83632  37.455  32.494   1.720
19425W        W83633  17.235  30.995   1.232
19426W        W83634  29.150  19.124  11.057
19427W        W83635  35.529  16.701  11.937
19428W        W83636  15.197  32.059  14.787
19429W        W83637  26.964  21.263   3.159
19430W        W83638   4.321  40.335   3.159
19431W        W83639  33.444  40.823  14.851
19432W        W83640  44.356   8.877  12.053
19433W        W83641  18.195  42.995   3.303
19434W        W83642  42.876  13.608   2.715
19435W        W83643  36.968   7.215   3.664
19436W        W83644  10.823  38.028   0.429
19437W        W83645  34.519  32.510   1.445
19438W        W83646   5.422  36.846  10.461
19439W        W83647   1.811  41.492   1.264
19440W        W83648  20.549  38.508   2.399
19441W        W83649   2.739  27.538   1.291
19442W        W83650  20.141  28.097   0.823
19443W        W83651  38.982   0.981  11.504
19444W        W83652  31.552  13.120  14.318
19445W        W83653  29.440   5.388  12.395
19446W        W83654  11.641  41.887   1.347
19447W        W83655  13.316  11.828  10.009
19448W        W83656  37.882  35.374  12.985
19449W        W83657   6.383  16.670  11.066
19450W        W83658   1.947  31.131   3.257
19451W        W83659  14.606  35.493  12.422
19452W        W83660  10.179  14.208   3.727
19453W        W83661   9.314  38.363  13.371
19454W        W83662   8.359  10.856   0.396
19455W        W83663  30.016  19.171   2.899
19456W        W83664   2.472  37.472  13.477
19457W        W83665  33.995  25.095  14.001
19458W        W83666  31.556  43.894   1.321
19459W        W83667  10.818  15.145   5.216
19460W        W83668  36.865  30.157   2.250
19461W        W83669   9.794   5.404   0.249
19462W        W83670  35.067  14.181  13.052
19463W        W83671  24.983  35.974  10.989
19464W        W83672  37.424  30.153  12.571
19465W        W83673  22.037  16.715   3.740
19466W        W83674  24.081  26.574   1.740
19467W        W83675  29.963  27.516  12.827
19468W        W83676  10.204   4.392  11.029
19469W        W83677  16.616  29.591  14.988
19470W        W83678   7.198  13.344  13.018
19471W        W83679  44.841  22.034   4.828
19472W        W83680  19.559  30.589  13.327
19473W        W83681  41.442  40.331   3.223
19474W        W83682  26.648  13.268   3.700
19475W        W83683  25.562   7.275  11.501
19476W        W83684  22.724  40.376   4.287
19477W        W83685  30.589  42.013  12.371
19478W        W83686  36.411  16.809  10.576
19479W        W83687  35.854  37.475   5.096
19480W        W83688  33.598  37.563  14.803
19481W        W83689  12.128  17.751  12.880
19482W        W83690  19.764  42.291  10.588
19483W        W83691  23.058  17.149  12.940
19484W        W83692  19.674  33.464  10.631
19485W        W83693  38.903  35.584  12.420
19486W        W83694  16.670  12.849  14.791
19487W        W83695  40.346  41.796  12.367
19488W        W83696  15.163  31.554   1.832
19489W        W83697  22.114  43.274  13.538
19490W        W83698  38.969   3.411  13.543
19491W        W83699  28.627  29.060  14.014
19492W        W83700   1.364   4.333  14.363
19493W        W83701  24.193   2.897   2.186
19494W        W83702  30.573  15.151   4.266
19495W        W83703   9.175  34.091   2.769
19496W        W83704  23.503   4.436  11.874
19497W        W83705   3.248  42.412   2.799
19498W        W83706   6.325   3.820   3.686
19499W        W83707  41.446  41.447   4.265
19500W        W83708  19.538   2.933   1.298
19501W        W83709  34.863  38.383  13.316
19502W        W83710  25.696  29.922  12.509
19503W        W83711  42.505   9.362  13.033
19504W        W83712   5.246  12.140   1.933
19505W        W83713   0.956  37.435  13.841
19506W        W83714  33.892  32.008   2.903
19507W        W83715  11.255   8.312   1.898
19508W        W83716   6.728  40.834   0.831
19509W        W83717  12.314  32.039  11.406
19510W        W83718   9.768  40.878  14.886
19511W        W83719  43.498  25.111  11.055
19512W        W83720  35.369  10.153   0.436
19513W        W83721  35.442   9.788  13.406
19514W        W83722  17.624   7.670   3.244
19515W        W83723  22.025  43.995  10.469
19516W        W83724  40.439  22.097  14.794
19517W        W83725  44.963  44.795   0.328
19518W        W83726  25.026  40.505   0.823
19519W        W83727   6.849  22.681   1.851
19520W        W83728  11.835  20.193   4.669
19521W        W83729  27.683   1.833  13.946
19522W        W83730   8.392  23.640   4.249
19523W        W83731  30.025  12.236  10.888
19524W        W83732  23.694  26.201   4.703
19525W        W83733  39.467   6.259   4.211
19526W        W83734   1.891  17.568  12.850
19527W        W83735  41.883  35.591  14.334
19528W        W83736  14.304  25.604  12.474
19529W        W83737   1.471  36.962  12.520
19530W        W83738  39.984  38.409  11.970
19531W        W83739  30.533  15.224  11.080
19532W        W83740  42.392   2.721   1.792
19533W        W83741   7.808   2.466   3.814
19534W        W83742  24.491   8.656   4.339
19535W        W83743   1.305  37.883   5.235
19536W        W83744  30.028  17.219   3.287
19537W        W83745  24.012   2.242   3.314
19538W        W83746  18.195  18.662   4.666
19539W        W83747  41.479  19.752  13.956
19540W        W83748  42.377  27.448  14.889
19541W        W83749  13.798  31.487  13.433
19542W        W83750  11.215  36.092  12.075
19543W        W83751  30.990   6.239  10.436
19544W        W83752  36.402  32.527  14.917
19545W        W83753   6.814  29.992   4.172
19546W        W83754  42.497  33.065  13.965
19547W        W83755  12.161  36.956  10.981
19548W        W83756   6.405  35.441  11.533
19549W        W83757  34.507   5.908  13.465
19550W        W83758  30.427  11.833   4.139
19551W        W83759   1.258  10.225  11.873
19552W        W83760  41.323  30.141   0.303
19553W        W83761  36.903   1.401  11.402
19554W        W83762   6.352  10.230  14.488
19555W        W83763  32.011  41.386  12.911
19556W        W83764  42.815  33.986   3.257
19557W        W83765  10.365   8.337   3.746
19558W        W83766  41.400  44.359  10.561
19559W        W83767  24.053  38.949  10.069
19560W        W83768  22.089  37.876   4.757
19561W        W83769  34.022  22.055  12.387
19562W        W83770  26.626  30.097   0.442
19563W        W83771  23.514  38.933  13.362
19564W        W83772  29.535  34.052  13.339
19565W        W83773  32.951   9.860  10.417
19566W        W83774  40.912  36.963   0.831
19567W        W83775  31.477  31.466  11.862
19568W        W83776  16.116   4.299  11.969
19569W        W83777  44.753  11.805   3.629
19570W        W83778  44.450  32.519  14.000
19571W        W83779  40.867   7.751  12.006
19572W        W83780  17.648  23.509  14.470
19573W        W83781  16.245  37.071   0.770
19574W        W83782   7.840  37.413   1.922
19575W        W83783  10.671   5.260   2.271
19576W        W83784  17.227  29.451   5.275
19577W        W83785   6.837  31.629   4.604
19578W        W83786   4.266  43.514  13.954
19579W        W83787  35.585  32.472   1.774
19580W        W83788   8.898  35.955  12.357
19581W        W83789   3.757  16.585   0.307
19582W        W83790  33.379  18.274   0.741
19583W        W83791  12.322  39.887   1.820
19584W        W83792  23.509  40.521  13.469
19585W        W83793  43.307  12.236  10.543
19586W        W83794  33.424  17.172  14.857
19587W        W83795  26.574  13.162   4.787
19588W        W83796  31.634  43.876  12.850
19589W        W83797  24.614   3.315   4.802
19590W        W83798  36.384  17.276   5.100
19591W        W83799   9.289  27.614   4.684
19592W        W83800  26.122  30.009  13.064
19593W        W83801  33.009  24.137   3.148
19594W        W83802  23.656   1.867   3.376
19595W        W83803  34.576  14.684  11.560
19596W        W83804   5.232  35.471  14.976
19597W        W83805   4.942  37.392  13.943
19598W        W83806  14.176  31.975   4.125
19599W        W83807   8.228  11.829  12.391
19600W        W83808  26.033   3.257   0.830
19601W        W83809  22.155  13.330  12.390
19602W        W83810  38.026   6.210  11.908
19603W        W83811  25.977   6.740   3.677
19604W        W83812  35.563  24.110  11.540
19605W        W83813  37.471  24.707  14.284
19606W        W83814  34.957  36.066  10.569
19607W        W83815  44.420  39.554  14.839
19608W        W83816   5.434   0.440  10.562
19609W        W83817  15.177  16.288   0.769
19610W        W83818  38.005   8.336  14.023
19611W        W83819   1.371  14.196   1.219
19612W        W83820  28.988  12.791  11.001
19613W        W83821  29.002   4.280   4.228
19614W        W83822  23.178  37.068   1.700
19615W        W83823  11.191  24.581  12.467
19616W        W83824   0.293   1.934   4.251
19617W        W83825   8.793  38.453  13.853
19618W        W83826  42.804  11.293   1.847
19619W        W83827   0.763  32.113  13.515
19620W        W83828  44.908   0.892   2.404
19621W        W83829  31.011  32.442  14.487
19622W        W83830  41.788  14.660   0.846
19623W        W83831   3.440  18.659   0.849
19624W        W83832   3.776   2.731   3.351
19625W        W83833  19.665  37.907   0.772
19626W        W83834   6.348  41.421   3.188
19627W        W83835   3.359  43.488  12.962
19628W        W83836  22.711   6.209   2.683
19629W        W83837   2.261  40.513  10.968
19630W        W83838   3.777  29.563  13.915
19631W        W83839  13.146  35.569  11.102
19632W        W83840  24.593  15.742  11.017
19633W        W83841  22.201  40.869  13.444
19634W        W83842  30.912  25.027  10.995
19635W        W83843  24.716  25.639   0.828
19636W        W83844  14.231  41.384  13.805
19637W        W83845  36.531   2.290  12.534
19638W        W83846   0.385  24.049   4.288
19639W        W83847   2.842  24.507  11.463
19640W        W83848  15.795   6.776   4.775
19641W        W83849  12.359   5.798  11.943
19642W        W83850  42.494  24.607  12.409
19643W        W83851   3.312  12.705  14.359
19644W        W83852  19.732   2.813   0.903
19645W        W83853  20.093  35.980   0.276
19646W        W83854  10.377   9.865  14.770
19647W        W83855  31.079   3.737   4.334
19648W        W83856  28.100   4.794  11.011
19649W        W83857  10.229  23.174   2.387
19650W        W83858  11.725  23.495  12.880
19651W        W83859  38.977  41.446   2.262
19652W        W83860  40.934  14.659   2.413
19653W        W83861  35.921  41.373  10.909
19654W        W83862  26.601  15.705   1.750
19655W        W83863  39.557  12.269  12.016
19656W        W83864  34.424   9.327  14.422
19657W        W83865  11.758  40.489   2.371
19658W        W83866  42.499  42.925   1.827
19659W        W83867  36.844  14.728  11.112
19660W        W83868  22.551  34.495  10.408
19661W        W83869  43.784  36.368   5.290
19662W        W83870   7.897  37.521   0.418
19663W        W83871  34.063  27.024   3.632
19664W        W83872  23.606  14.255  11.451
19665W        W83873  24.491  44.983  13.053
19666W        W83874  10.681  38.911   3.319
19667W        W83875  42.479  26.164  11.400
19668W        W83876   6.228  14.228  10.579
19669W        W83877  17.710  32.132   1.313
19670W        W83878  24.488  41.458   0.288
19671W        W83879  30.508  12.652  12.006
19672W        W83880  12.210  27.584  10.949
19673W        W83881  30.498  16.077  11.004
19674W        W83882  39.481  12.286   1.308
19675W        W83883  24.628  26.162   0.760
19676W        W83884  24.001   3.916   1.238
19677W        W83885  16.263  35.403  12.572
19678W        W83886   1.258  17.719   1.925
19679W        W83887  44.934  43.422   1.872
19680W        W83888  32.566   4.298   1.822
19681W        W83889  21.621  38.554   1.790
19682W        W83890  24.100  44.425   2.213
19683W        W83891  30.077  29.459  13.818
19684W        W83892   0.849  36.380   3.354
19685W        W83893  15.728   2.406   4.724
19686W        W83894  15.742  32.954   3.751
19687W        W83895  19.173  15.260   2.364
19688W        W83896   3.747  25.135   3.649
19689W        W83897  10.231  37.970   4.218
19690W        W83898   2.872   1.292  11.384
19691W        W83899  13.780  10.372  11.868
19692W        W83900  19.566   7.723   0.300
19693W        W83901  24.715  35.441  12.397
19694W        W83902  12.803  23.177  11.111
19695W        W83903   3.741  41.880  13.414
19696W        W83904  20.048  42.513   1.252
19697W        W83905   5.757   3.745   1.263
19698W        W83906   1.424  11.164  13.378
19699W        W83907  23.556  28.631  12.839
19700W        W83908   4.813  40.462  12.514
19701W        W83909  27.522  23.508  13.383
19702W        W83910  37.896  38.398   2.329
19703W        W83911  25.639  14.706   3.290
19704W        W83912   5.357  43.855  12.862
19705W        W83913  21.679  30.006  10.546
19706W        W83914   3.314  26.551   0.734
19707W        W83915  40.896  29.560   0.869
19708W        W83916   4.811  15.670  13.429
19709W        W83917   9.697  40.492  10.462
19710W        W83918  20.041   5.394  13.479
19711W        W83919   3.955  12.289   1.264
19712W        W83920  17.128  21.608  12.541
19713W        W83921  23.142   1.363   0.342
19714W        W83922  29.508  29.633  13.463
19715W        W83923   3.340  42.000   2.756
19716W        W83924   8.747   9.843   0.323
19717W        W83925  29.014   6.351  13.064
19718W        W83926  39.419  18.566  11.537
19719W        W83927  23.164  43.351   1.337
19720W        W83928  40.432  25.527   1.787
19721W        W83929   2.739  34.017  13.984
19722W        W83930   0.395  42.433  13.040
19723W        W83931  38.545  17.107  10.073
19724W        W83932  14.257   6.260   3.219
19725W        W83933   3.794   6.883   2.799
19726W        W83934  44.868  42.489  14.504
19727W        W83935  28.165  13.279  13.046
19728W        W83936  21.062   7.837   4.304
19729W        W83937  15.119  24.228  10.424
19730W        W83938   8.752  20.555  13.326
19731W        W83939  17.192  34.480   2.358
19732W        W83940  31.439  17.665   5.747
19733W        W83941  40.309   7.350   4.759
19734W        W83942   3.829  29.167   1.420
19735W        W83943  16.188  14.123  10.954
19736W        W83944  16.229  37.980  14.800
19737W        W83945  33.913   2.784  13.061
19738W        W83946  30.556  21.544   3.333
19739W        W83947   9.850   0.945  11.483
19740W        W83948   2.416   0.770   2.680
19741W        W83949   9.323  32.018  12.998
19742W        W83950   0.395  32.408   3.340
19743W        W83951   4.377  21.019  14.277
19744W        W83952  14.267  41.028   4.155
19745W        W83953  17.183  17.221   0.359
19746W        W83954  38.464  13.668   2.742
19747W        W83955  17.683  35.001   0.828
19748W        W83956  31.953  11.690  12.538
19749W        W83957  20.131  16.599  13.475
19750W        W83958   4.903  31.520  11.384
19751W        W83959  42.974   2.898  10.638
19752W        W83960  12.341  23.040  11.504
19753W        W83961  37.545  27.169  11.935
19754W        W83962  10.171  16.187   1.313
19755W        W83963  20.243   2.837  11.919
19756W        W83964  11.141  30.974  11.518
19757W        W83965  35.540  30.108   1.809
19758W        W83966  28.935  35.896   2.794
19759W        W83967  22.710  28.167  12.047
19760W        W83968  25.645  31.974   1.337
19761W        W83969  34.507  10.689  11.966
19762W        W83970  22.228   3.904  10.488
19763W        W83971  25.625  17.211   1.709
19764W        W83972  15.147  17.699  10.897
19765W        W83973   2.387  16.185  14.893
19766W        W83974  15.708  16.658   0.332
19767W        W83975  42.465   4.316  14.926
19768W        W83976  31.952  31.538   0.446
19769W        W83977  35.934  40.880  13.826
19770W        W83978   7.671   8.380   0.822
19771W        W83979   7.281  39.369   4.294
19772W        W83980  24.603  32.996   3.217
19773W        W83981  25.014  21.162   1.362
19774W        W83982  15.627  13.721  13.838
19775W        W83983   8.771  27.497   3.846
19776W        W83984  10.690  42.413  12.979
19777W        W83985   0.983  14.253   3.219
19778W        W83986  34.006   7.415  14.028
19779W        W83987  22.051  13.774  13.403
19780W        W83988   2.825  34.490   1.326
19781W        W83989  29.516  12.680  11.567
19782W        W83990  13.739  19.679  11.375
19783W        W83991   6.376  25.595   1.742
19784W        W83992  41.901   0.976  10.615
19785W        W83993  29.958   3.377  13.502
19786W        W83994  10.326  39.533   4.284
19787W        W83995  22.596   5.728  12.468
19788W        W83996   5.694  14.261   4.301
19789W        W83997  36.951   3.345   2.855
19790W        W83998  42.823  24.984   3.246
19791W        W83999  42.003  25.641  12.465
19792W        W84000  12.824  25.182   4.264
19793W        W84001  10.726   3.410  12.541
19794W        W84002  34.386  32.097   4.350
19795W        W84003  36.480  19.556   9.981
19796W        W84004  26.521  22.246  14.837
19797W        W84005   5.216  34.901   0.406
19798W        W84006  11.138   4.365  12.058
19799W        W84007  24.019  42.787  10.475
19800W        W84008  22.174   1.363   2.215
19801W        W84009  35.068  36.048   3.231
19802W        W84010  42.438  27.044  10.499
19803W        W84011  35.468  34.516   1.721
19804W        W84012  19.728  33.550  12.964
19805W        W84013  36.551  41.005   3.859
19806W        W84014  30.520   3.917   0.390
19807W        W84015   9.830   3.215  11.548
19808W        W84016  31.053  40.943  12.001
19809W        W84017  42.830  11.653   4.136
19810W        W84018  18.085  25.108   5.257
19811W        W84019  24.662  21.581   1.803
19812W        W84020  38.992  18.134  11.018
19813W        W84021  23.179  44.504  12.532
19814W        W84022   0.960  11.348  11.032
19815W        W84023  26.991  15.785   0.963
19816W        W84024  10.708  37.900   4.687
19817W        W84025  12.275  12.615  14.866
19818W        W84026  21.160   3.721   1.842
19819W        W84027   7.232  40.427  11.406
19820W        W84028   9.167   0.766  10.021
19821W        W84029  24.089  40.398  10.404
19822W        W84030  42.453   1.331   4.642
19823W        W84031  39.964  27.096   4.152
19824W        W84032   7.738  28.122  12.400
19825W        W84033  35.977  30.017  11.893
19826W        W84034  32.040  11.738   2.851
19827W        W84035   2.935  43.816   0.294
19828W        W84036  34.378  16.701   3.807
19829W        W84037  20.695  38.017  14.355
19830W        W84038   4.722  32.621   3.651
19831W        W84039  23.191  32.064  13.029
19832W        W84040  30.938  39.419   0.790
19833W        W84041  30.930  33.534  13.388
19834W        W84042  13.694   9.679  12.839
19835W        W84043   3.353  20.105   1.291
19836W        W84044  32.986  20.639   2.740
19837W        W84045  44.794  39.320   0.849
19838W        W84046  26.702   4.348   3.236
19839W        W84047  30.913  32.023   2.221
19840W        W84048  11.863  35.035   2.278
19841W        W84049  28.494  33.957  14.815
19842W        W84050  41.349  43.946  14.912
19843W        W84051  18.567   8.394   2.365
19844W        W84052  39.553  23.023   1.904
19845W        W84053  44.313  26.993   0.303
19846W        W84054   0.798  32.439  14.974
19847W        W84055   2.440  27.639  12.980
19848W        W84056  39.440  40.423   2.399
19849W        W84057   6.252  32.986   3.827
19850W        W84058  38.553  28.031   1.428
19851W        W84059  21.059   7.355   2.853
19852W        W84060  13.620  13.304  12.418
19853W        W84061  32.019  13.621  10.501
19854W        W84062  18.146  24.205  14.833
19855W        W84063  17.770   6.822  12.003
19856W        W84064  16.147  40.812   3.789
19857W        W84065  29.647  19.702  13.876
19858W        W84066   2.877   5.870   0.773
19859W        W84067  38.877   3.864  12.375
19860W        W84068  37.441  18.159  12.001
19861W        W84069   8.813  26.988  10.553
19862W        W84070  32.584  38.351  12.053
19863W        W84071  31.554  43.954   0.932
19864W        W84072   4.254  27.003  14.319
19865W        W84073  17.241  14.317   2.215
19866W        W84074  40.803  39.322  13.548
19867W        W84075  30.014  28.570  14.368
19868W        W84076  35.907  34.595  12.395
19869W        W84077  36.515  36.029   5.214
19870W        W84078  20.185  44.499  12.083
19871W        W84079   8.672  31.914   3.868
19872W        W84080  12.811   5.371  11.941
19873W        W84081  27.553  44.892   1.445
19874W        W84082   2.908   2.753   4.734
19875W        W84083  26.628  38.976   3.243
19876W        W84084  24.603  30.110   3.219
19877W        W84085  25.154  18.103  11.912
19878W        W84086  38.898  27.110  10.521
19879W        W84087  23.103  26.566  14.957
19880W        W84088   0.466  29.038  13.356
19881W        W84089  17.642   0.436   0.791
19882W        W84090  33.537   7.825  13.308
19883W        W84091  13.724  11.717   1.261
19884W        W84092   0.466  31.986   0.878
19885W        W84093  39.551   2.944  14.473
19886W        W84094  12.855   0.256  13.890
19887W        W84095   7.715  40.930   0.960
19888W        W84096  30.629  32.142  12.341
19889W        W84097  17.193  14.335  11.089
19890W        W84098  42.373   0.467   3.376
19891W        W84099  36.005   5.738  11.486
19892W        W84100   0.252  25.685   4.305
19893W        W84101  41.797  34.041   2.414
19894W        W84102  24.490  44.007  13.992
19895W        W84103  15.750  26.026  10.497
19896W        W84104  21.662  23.658   4.253
19897W        W84105  18.211  40.978   1.335
19898W        W84106  29.013  36.046   3.673
19899W        W84107  44.412  26.549  14.975
19900W        W84108  26.983  35.389  14.288
19901W        W84109   0.436  27.477  13.478
19902W        W84110  30.472  37.042  12.952
19903W        W84111  13.255  38.383  13.503
19904W        W84112  20.612  12.255  14.986
19905W        W84113   8.402  25.206  14.007
19906W        W84114  43.299  33.965   4.138
19907W        W84115  35.493  35.045   4.724
19908W        W84116   7.249  16.701   1.448
19909W        W84117  38.992  22.227  14.958
19910W        W84118   1.241   8.874   2.698
19911W        W84119  30.548  38.424  12.996
19912W        W84120  28.634  41.377  13.504
19913W        W84121   8.784   5.705   1.864
19914W        W84122  35.942  23.104   4.681
19915W        W84123  23.719  14.613  13.545
19916W        W84124  23.986  18.726   3.814
19917W        W84125  14.661  35.480   2.824
19918W        W84126   7.900  29.008  11.040
19919W        W84127   3.310  44.306   3.727
19920W        W84128  23.049  36.095  14.006
19921W        W84129   7.886   3.218  12.970
19922W        W84130  25.053  26.518   4.822
19923W        W84131  39.477  31.060   3.707
19924W        W84132  36.543  30.074  12.898
19925W        W84133  22.735  29.948  12.863
19926W        W84134   8.831  18.279   1.333
19927W        W84135  19.145  10.825  12.890
19928W        W84136  44.271   8.202   9.972
19929W        W84137  42.449   4.813   9.935
19930W        W84138  15.626   2.337  11.082
19931W        W84139  15.624   5.279  11.395
19932W        W84140  31.436  35.516   1.759
19933W        W84141  15.089  33.041  14.847
19934W        W84142  11.149  11.783  12.491
19935W        W84143  32.078   5.414  14.894
19936W        W84144  39.392  35.942  14.410
19937W        W84145  27.188  38.392   3.674
19938W        W84146   1.259  33.966  12.438
19939W        W84147  24.021  22.043   3.630
19940W        W84148  28.053  20.194  12.545
19941W        W84149  23.526  29.057   3.262
19942W        W84150  10.311  10.840   4.629
19943W        W84151   6.703  29.574  14.482
19944W        W84152  22.707  12.787   0.825
19945W        W84153  43.493   3.355   3.158
19946W        W84154  28.584  37.544  10.919
19947W        W84155  20.199  44.874  14.441
19948W        W84156  18.272  37.833   4.231
19949W        W84157  30.912   6.322  13.483
19950W        W84158  24.534  16.644  11.594
19951W        W84159  19.054  43.283  13.032
19952W        W84160  27.481  29.644  12.025
19953W        W84161  17.699  24.592   2.763
19954W        W84162  12.844  19.118   0.825
19955W        W84163  44.443   0.277  14.286
19956W        W84164  22.015  30.909  11.856
19957W        W84165  37.889  31.491   0.447
19958W        W84166  24.689  12.819   2.848
19959W        W84167  31.151  27.647   0.773
19960W        W84168  35.550  11.228   0.846
19961W        W84169  24.672   3.334   3.663
19962W        W84170  27.662  34.912  13.507
19963W        W84171   6.265  21.107   3.196
19964W        W84172  23.657  16.780  11.918
19965W        W84173  41.504  17.690   4.138
19966W        W84174   8.745   4.822  12.362
19967W        W84175  36.451   9.839  11.115
19968W        W84176   6.691   1.384   1.726
19969W        W84177  43.467  19.599  14.452
19970W        W84178  17.589  26.112   3.368
19971W        W84179  12.169  43.399   4.278
19972W        W84180  11.135  29.005  12.002
19973W        W84181   8.257  23.670   1.839
19974W        W84182  10.760  39.058  10.474
19975W        W84183  38.926  13.627   0.309
19976W        W84184   2.842  21.137   4.746
19977W        W84185   2.798  15.731  11.073
19978W        W84186  14.769  25.548   4.212
19979W        W84187  36.884   4.890   0.475
19980W        W84188  25.562  16.130  12.390
19981W        W84189  13.719  11.629   2.891
19982W        W84190  28.049  13.302   4.605
19983W        W84191  14.242  41.794  13.800
19984W        W84192  20.572  23.681   3.869
19985W        W84193  26.179   5.307   0.331
19986W        W84194  28.163   2.858  14.031
19987W        W84195  25.133  22.998   2.830
19988W        W84196  16.133  33.131   1.762
19989W        W84197  21.744  19.751   4.749
19990W        W84198   1.472   4.252  14.918
19991W        W84199  35.963   1.787  11.569
19992W        W84200  42.317  32.042  13.816
19993W        W84201  32.515  44.481  11.976
19994W        W84202  15.278  30.628  14.381
19995W        W84203  21.737  22.180   2.316
19996W        W84204  44.296  20.042   0.952
19997W        W84205  30.039  29.111  11.951
19998W        W84206  16.584   1.422   0.763
19999W        W84207   3.424  41.900  14.937
20000W        W84208  29.056  35.088  11.897
20001W        W84209  31.913  21.711  11.531
20002W        W84210  43.797  42.949   0.775
20003W        W84211  24.563  44.352   4.658
20004W        W84212  16.695  17.288   4.663
20005W        W84213   9.870   6.244   4.208
20006W        W84214  23.087  42.029  11.421
20007W        W84215  37.506  38.500  12.549
20008W        W84216  39.330  38.883  11.545
20009W        W84217   4.898  38.993  14.473
20010W        W84218   7.333  26.506  13.025
20011W        W84219  40.366  41.842  11.993
20012W        W84220   0.905   1.262   5.776
20013W        W84221  34.933  21.111   5.207
20014W        W84222  10.384  39.533  10.531
20015W        W84223  16.118  23.986   0.282
20016W        W84224  21.562   5.835  10.936
20017W        W84225  41.361  10.298   3.629
20018W        W84226  31.610  31.519   2.352
20019W        W84227  44.896   0.473   4.170
20020W        W84228   6.375   8.294   4.620
20021W        W84229  17.108  33.532   1.316
20022W        W84230   3.314  27.495   1.856
20023W        W84231  17.661  33.489  13.420
20024W        W84232  24.132  32.055   0.752
20025W        W84233  20.156  40.336  12.968
20026W        W84234   0.779  18.234  10.948
20027W        W84235   1.457  40.002  13.017
20028W        W84236  33.615  15.142   2.179
20029W        W84237  29.451  34.037   0.891
20030W        W84238   3.753  29.461  13.507
20031W        W84239  19.553  22.997   2.788
20032W        W84240   6.340  41.301  14.920
20033W        W84241  43.791  35.911   5.218
20034W        W84242  32.951  17.614  14.800
20035W        W84243  37.472  31.986  10.627
20036W        W84244  40.438  43.360   4.726
20037W        W84245  37.072  26.574  12.532
20038W        W84246  28.104  30.946  10.491
20039W        W84247  42.835  32.624  14.434
20040W        W84248  34.424  31.585   2.313
20041W        W84249   7.690   9.771   1.738
20042W        W84250  22.701  12.831  10.948
20043W        W84251  12.647   2.918   3.868
20044W        W84252  25.574   2.454  14.805
20045W        W84253  44.453   8.689  14.299
20046W        W84254  21.697  13.131  10.575
20047W        W84255  24.218  37.381  10.453
20048W        W84256  43.319  37.001   0.409
20049W        W84257  11.656  29.523   0.925
20050W        W84258   3.794  15.107  10.567
20051W        W84259  39.444  22.142  14.008
20052W        W84260  43.991   3.762   4.789
20053W        W84261  21.017  40.475   2.842
20054W        W84262  21.637  23.640   3.362
20055W        W84263   0.491   6.418   4.153
20056W        W84264  29.465  31.426  14.298
20057W        W84265  30.433   6.768  14.411
20058W        W84266  26.556  12.342   1.314
20059W        W84267  16.625  34.046  14.932
20060W        W84268  27.182  32.970   2.868
20061W        W84269   8.276  33.451  13.916
20062W        W84270  44.322  19.569   3.637
20063W        W84271  23.225  27.168   2.750
20064W        W84272  43.894  35.380   3.152
20065W        W84273  44.758  12.272   0.355
20066W        W84274  37.427  13.657   3.659
20067W        W84275  42.945  26.166  10.569
20068W        W84276  11.725  29.597  12.464
20069W        W84277  44.325  10.226   5.282
20070W        W84278  40.023   6.853   4.351
20071W        W84279  39.493   5.725  13.052
20072W        W84280  39.063   8.323   2.382
20073W        W84281  36.464  44.845   2.218
20074W        W84282  24.513  15.265   3.224
20075W        W84283  29.459  33.594  14.857
20076W        W84284  24.013  25.172   0.394
20077W        W84285  42.327  39.379   1.756
20078W        W84286   0.765  12.135   2.334
20079W        W84287  30.517   6.335   0.851
20080W        W84288  35.029  35.521  12.838
20081W        W84289  27.660  17.299  12.980
20082W        W84290  30.652  41.435  11.500
20083W        W84291  25.054  42.914  13.436
20084W        W84292  33.041   0.260   4.607
20085W        W84293   4.349  31.986   0.882
20086W        W84294   6.907  38.368   1.706
20087W        W84295  18.675  28.598   0.262
20088W        W84296  42.489  12.303   0.770
20089W        W84297  28.514  24.110   0.430
20090W        W84298   5.705  12.621   0.262
20091W        W84299  31.985   6.331   1.920
20092W        W84300  17.685  35.063  13.991
20093W        W84301   1.252  10.860   1.787
20094W        W84302   9.710  12.193   3.869
20095W        W84303   3.361  37.457  13.446
20096W        W84304   2.333  26.506  11.414
20097W        W84305  10.160  16.228  14.792
20098W        W84306  18.655  24.121   2.377
20099W        W84307  38.516  17.695   3.172
20100W        W84308   0.845  23.167  12.872
20101W        W84309  25.597   1.357  14.384
20102W        W84310  44.402  44.807  12.574
20103W        W84311  39.895   0.930   4.132
20104W        W84312   1.257  36.994  11.044
20105W        W84313  16.300   4.206  14.961
20106W        W84314  31.082   6.343  13.806
20107W        W84315  35.479  42.874  12.011
20108W        W84316  38.026  26.018  10.974
20109W        W84317  37.404  13.214   4.348
20110W        W84318  36.493   0.908  14.303
20111W        W84319  22.996  29.119  12.928
20112W        W84320  13.784  14.809   3.207
20113W        W84321  19.172  26.087  13.537
20114W        W84322  28.480   1.463   4.242
20115W        W84323  44.445   7.393  13.871
20116W        W84324  15.598  42.495  14.300
20117W        W84325   7.258  42.961  12.551
20118W        W84326   6.284   1.397   0.429
20119W        W84327  18.673  11.201   2.765
20120W        W84328  34.053   8.199  10.601
20121W        W84329  42.792  21.233   4.339
20122W        W84330  43.465  20.558   1.880
20123W        W84331  28.461  14.103  11.115
20124W        W84332  18.104  32.918  10.580
20125W        W84333  13.286  44.344   4.342
20126W        W84334  15.656  39.370  11.427
20127W        W84335   9.149  38.508   1.872
20128W        W84336  38.334  36.934  11.598
20129W        W84337  15.636   6.262   0.250
20130W        W84338  32.390   3.385   5.230
20131W        W84339  18.128   5.302   0.740
20132W        W84340   4.859  28.447  14.420
20133W        W84341  22.703  44.281   2.848
20134W        W84342  29.047  27.542   4.700
20135W        W84343  44.884  42.349   1.753
20136W        W84344  19.078   0.986  13.311
20137W        W84345   4.769  44.986  10.462
20138W        W84346  22.684   9.321   1.855
20139W        W84347  24.206  26.589  12.890
20140W        W84348  25.097   9.238  12.367
20141W        W84349   5.853  17.165   0.868
20142W        W84350  25.059   9.264  14.018
20143W        W84351  22.511  28.629  12.042
20144W        W84352  26.529  38.952   2.275
20145W        W84353  13.276   1.978  10.630
20146W        W84354  30.160  14.101   2.254
20147W        W84355  26.594  38.050   5.181
20148W        W84356  16.111   7.404   2.704
20149W        W84357  22.027  15.319  11.603
20150W        W84358  24.572   5.932   4.220
20151W        W84359  25.619  26.588  13.472
20152W        W84360   9.367  15.741  13.309
20153W        W84361   3.784   5.885   3.785
20154W        W84362  20.028  20.197  11.472
20155W        W84363  34.995  36.552  10.440
20156W        W84364  32.406  39.487  12.961
20157W        W84365   0.950   2.940   2.252
20158W        W84366  27.554  11.199  14.889
20159W        W84367  38.998  19.551   3.276
20160W        W84368  12.829  23.690  12.873
20161W        W84369  36.887  42.879  12.980
20162W        W84370  24.596  14.150   0.275
20163W        W84371  37.563  24.033   3.244
20164W        W84372   2.425   9.236  11.571
20165W        W84373  43.423  39.498   3.633
20166W        W84374   0.289   3.781   4.285
20167W        W84375   4.276  35.898   1.698
20168W        W84376  44.926   9.719   1.752
20169W        W84377  41.474  21.229   5.245
20170W        W84378  12.254  13.821   0.441
20171W        W84379  16.208  34.423  10.609
20172W        W84380  38.873   1.413   3.759
20173W        W84381  34.011  38.394   2.689
20174W        W84382   2.401  31.984  12.454
20175W        W84383   9.215  15.221   2.225
20176W        W84384  21.113  17.560  12.379
20177W        W84385  37.452  22.588   1.223
20178W        W84386   5.869   9.734  10.529
20179W        W84387  23.040  18.592  13.380
20180W        W84388  29.555  27.445   0.244
20181W        W84389  40.937  30.459  11.005
20182W        W84390  19.252  22.216  11.428
20183W        W84391  24.486  41.532   3.377
20184W        W84392  37.026  32.579   0.764
20185W        W84393  37.900  22.126  14.003
20186W        W84394   4.701  28.961   4.174
20187W        W84395  19.062  14.619   1.746
20188W        W84396   4.234  19.716  14.764
20189W        W84397  23.504  44.327   1.778
20190W        W84398  28.161  31.902   3.760
20191W        W84399  12.824   0.465  13.399
20192W        W84400   3.711  31.428   3.203
20193W        W84401  39.050  15.688  10.995
20194W        W84402  11.701  43.437   4.205
20195W        W84403  10.837  20.595   1.437
20196W        W84404  10.328  39.946  12.012
20197W        W84405  20.083  37.347  14.805
20198W        W84406  38.870  15.253  10.893
20199W        W84407  31.975  17.268  13.479
20200W        W84408  40.325  36.075  14.948
20201W        W84409  35.588  17.654   2.893
20202W        W84410  29.571  44.990   3.777
20203W        W84411   3.252  36.047  11.997
20204W        W84412  24.499  25.516  13.931
20205W        W84413  26.514  34.999   2.271
20206W        W84414  28.951  39.065   4.719
20207W        W84415   3.906  10.633  11.589
20208W        W84416  30.139  24.118  12.411
20209W        W84417  13.819  19.650  14.771
20210W        W84418  43.940   3.301   3.797
20211W        W84419   0.955  10.664  12.008
20212W        W84420   8.263  11.135   2.763
20213W        W84421  20.724  21.576  12.036
20214W        W84422  14.754   6.847  13.871
20215W        W84423  23.107  21.152   4.324
20216W        W84424  15.758  11.816   3.714
20217W        W84425   6.208  15.290   0.807
20218W        W84426  21.756  43.494  11.060
20219W        W84427  36.865   2.827   2.251
20220W        W84428  28.119  33.475   4.174
20221W        W84429  30.055  23.706  13.334
20222W        W84430  41.493  43.340   4.159
20223W        W84431  15.639   2.384  13.442
20224W        W84432   6.839  32.954  12.545
20225W        W84433  27.658  41.482  12.884
20226W        W84434  11.839   3.322  11.562
20227W        W84435  43.814  29.495  12.068
20228W        W84436  40.902  38.464  14.917
20229W        W84437   9.757  41.043   0.867
20230W        W84438  41.933  33.609  11.093
20231W        W84439  44.464  39.384  10.418
20232W        W84440  29.444   6.354   2.406
20233W        W84441  12.143  24.082   4.202
20234W        W84442  10.878   8.867  12.025
20235W        W84443  23.662  19.759   2.864
20236W        W84444  26.079  42.333  13.922
20237W        W84445  17.707   4.228   2.697
20238W        W84446  12.344  22.110  14.776
20239W        W84447  20.235  16.168  12.960
20240W        W84448   6.350   7.248   2.790
20241W        W84449  13.823  29.649   0.780
20242W        W84450   3.447  24.577  10.448
20243W        W84451  15.188  23.622   0.262
20244W        W84452   2.465  17.616  13.845
20245W        W84453  16.082  42.893  11.494
20246W        W84454  40.531   9.721   2.681
20247W        W84455   5.372  40.818   4.304
20248W        W84456  42.943  31.460  14.435
20249W        W84457  16.187  13.793   4.157
20250W        W84458   1.839  29.953  14.969
20251W        W84459  12.733   5.287  10.443
20252W        W84460  30.530  15.088  14.280
20253W        W84461  13.107   8.769   2.308
20254W        W84462  37.001  43.779  12.533
20255W        W84463  16.215  11.630   0.932
20256W        W84464  43.883  16.655  11.043
20257W        W84465  27.459  35.074  12.378
20258W        W84466  30.513  16.074  13.865
20259W        W84467  25.171   7.249   3.823
20260W        W84468   1.345   4.829   3.763
20261W        W84469  36.471  25.140   0.867
20262W        W84470  44.877  34.920  12.082
20263W        W84471  41.326  20.230  10.479
20264W        W84472  24.709  14.744   0.305
20265W        W84473  27.558   9.781  13.406
20266W        W84474   1.737   7.260   3.219
20267W        W84475  21.733  17.749  14.428
20268W        W84476   4.301  17.777  11.056
20269W        W84477  15.269  15.117   4.244
20270W        W84478  12.326  42.409   3.198
20271W        W84479  26.568  34.033  13.818
20272W        W84480   2.375  10.861   3.715
20273W        W84481  15.123  13.706  12.365
20274W        W84482   0.387   5.831  12.929
20275W        W84483  10.677   4.449   2.303
20276W        W84484  21.747  20.226  12.479
20277W        W84485   1.421   3.922   1.792
20278W        W84486  38.025  33.014   2.880
20279W        W84487  44.865  41.468  14.868
20280W        W84488  39.473  22.229   1.905
20281W        W84489  36.348  36.473  14.504
20282W        W84490  31.520  28.970   0.272
20283W        W84491  27.940  37.045   3.192
20284W        W84492  39.932   8.733  10.949
20285W        W84493   1.436  14.702  11.561
20286W        W84494   4.872  42.911   4.262
20287W        W84495  11.266  18.574  11.465
20288W        W84496  15.764  33.096   2.815
20289W        W84497  34.582  40.996   4.222
20290W        W84498  12.684   2.270  12.971
20291W        W84499  36.004  33.898  12.009
20292W        W84500   0.749  41.040  13.349
20293W        W84501  30.427  40.875   4.341
20294W        W84502  32.957  13.799   1.349
20295W        W84503   3.226  11.798  12.080
20296W        W84504   7.896   7.864   3.654
20297W        W84505   1.285  19.748  12.974
20298W        W84506  22.053  32.501  12.573
20299W        W84507  18.067  10.796   0.276
20300W        W84508   7.412  13.336   2.804
20301W        W84509  21.646   5.879  14.444
20302W        W84510  42.309   0.818  10.516
20303W        W84511  44.956  19.135   3.336
20304W        W84512  21.560   3.449  11.610
20305W        W84513  37.833  44.409  14.310
20306W        W84514   2.800  26.997   1.399
20307W        W84515  42.453  26.044   0.829
20308W        W84516   1.381  11.786  13.971
20309W        W84517  25.496  22.637   1.293
20310W        W84518  37.834   2.867   2.243
20311W        W84519  38.912   2.940  14.472
20312W        W84520  34.529   5.356  14.023
20313W        W84521  27.024  44.957  14.461
20314W        W84522  31.558  21.514   1.927
20315W        W84523  26.551   5.782  10.588
20316W        W84524  25.526   2.863   2.240
20317W        W84525  20.748  15.130  11.125
20318W        W84526  16.110  10.727  11.956
20319W        W84527  10.274  28.970   2.251
20320W        W84528   3.944  42.969  14.470
20321W        W84529  14.143  22.556  13.854
20322W        W84530   7.839  16.791  13.490
20323W        W84531  20.571  18.129   3.764
20324W        W84532  34.019  13.670  11.601
20325W        W84533  43.390  11.184   2.815
20326W        W84534  11.186   3.447   3.158
20327W        W84535   9.188   4.912   4.606
20328W        W84536  31.417   2.442  10.941
20329W        W84537  41.819   9.667   0.907
20330W        W84538  30.426   4.914  13.418
20331W        W84539   3.397  36.063  12.973
20332W        W84540  44.810  39.551  13.062
20333W        W84541  35.052  10.783   1.329
20334W        W84542  22.574  13.647   3.315
20335W        W84543  28.665  21.173  13.469
20336W        W84544  26.037  34.388   0.277
20337W        W84545  28.612  11.129   4.347
20338W        W84546   6.749   9.775  11.483
20339W        W84547  30.596  14.774  11.453
20340W        W84548  23.198  15.787  11.008
20341W        W84549  32.919  38.972  14.416
20342W        W84550   3.409   5.312  12.964
20343W        W84551  34.482  29.984   2.670
20344W        W84552   6.382  42.411  10.463
20345W        W84553  24.187  27.652   0.821
20346W        W84554  22.688  13.321   0.259
20347W        W84555  29.955  11.687   4.123
20348W        W84556   0.874  22.616   3.190
20349W        W84557  26.995  17.111  11.085
20350W        W84558  39.513  29.549  11.375
20351W        W84559  44.323  38.476   3.733
20352W        W84560  44.401  10.209   0.456
20353W        W84561  11.336   2.940   0.922
20354W        W84562  13.181  39.025  13.329
20355W        W84563  32.467  35.061  12.055
20356W        W84564  10.715  22.130   1.927
20357W        W84565  28.178  40.323  11.566
20358W        W84566   9.678  32.006   2.750
20359W        W84567   4.908  24.993  10.564
20360W        W84568   9.307  30.466   3.285
20361W        W84569  16.306  16.583  11.527
20362W        W84570  42.407  30.936  14.488
20363W        W84571  20.250  16.812   0.378
20364W        W84572  34.973  10.865   2.881
20365W        W84573  22.177  25.630   4.723
20366W        W84574  29.025  43.876  10.501
20367W        W84575  24.066  21.117   0.320
20368W        W84576  10.362  23.558  12.548
20369W        W84577  13.335  20.736   3.774
20370W        W84578  22.612   1.481   2.302
20371W        W84579   0.481  19.770  12.879
20372W        W84580  19.088  22.725   0.861
20373W        W84581  41.415   5.312   2.738
20374W        W84582  41.926  22.654  14.780
20375W        W84583  18.240  24.702  10.555
20376W        W84584  40.021  19.200   5.129
20377W        W84585  43.956  32.090  14.799
20378W        W84586  30.113  17.740  12.544
20379W        W84587   7.386  37.561  14.368
20380W        W84588  32.627  40.322   0.950
20381W        W84589   2.768  36.381  12.565
20382W        W84590  11.657   7.181   1.268
20383W        W84591  30.948   6.380  14.958
20384W        W84592  34.916  44.902  12.930
20385W        W84593   9.810   8.282   1.236
20386W        W84594  19.060  40.837   1.742
20387W        W84595  32.922  26.032   2.705
20388W        W84596   9.292   3.426   0.472
20389W        W84597  27.197  28.997  13.543
20390W        W84598  43.288  27.121   4.620
20391W        W84599  24.172   6.426  10.893
20392W        W84600  18.165  42.967  11.372
20393W        W84601  38.375  21.714  13.917
20394W        W84602  41.884  24.519   1.741
20395W        W84603   5.786   0.927  11.460
20396W        W84604  21.105  42.358   4.743
20397W        W84605  20.682  40.841  12.064
20398W        W84606   2.414  11.130  11.509
20399W        W84607  30.009  39.415  12.847
20400W        W84608  14.675  40.410   2.405
20401W        W84609  25.652  22.713  13.958
20402W        W84610  22.672  25.536   2.370
20403W        W84611  26.517  37.462   3.717
20404W        W84612  13.604  35.061   4.229
20405W        W84613  18.266   2.901  12.522
20406W        W84614   1.354  28.677   2.671
20407W        W84615  24.012  27.069  13.456
20408W        W84616   9.265   0.364   3.746
20409W        W84617  11.367   2.351   4.759
20410W        W84618   4.227  20.243  12.942
20411W        W84619  41.515  42.283   1.309
20412W        W84620  14.696   9.674  11.550
20413W        W84621  12.628  39.059   4.147
20414W        W84622  42.353  38.008  11.856
20415W        W84623  42.936  28.001  13.396
20416W        W84624   0.365  44.387   4.318
20417W        W84625  19.153  35.471  14.970
20418W        W84626  36.030  43.018  10.958
20419W        W84627   0.920  14.293   5.163
20420W        W84628  22.097  42.368  14.462
20421W        W84629  38.018   5.297   2.671
20422W        W84630  22.194  14.340  12.449
20423W        W84631  17.144  40.023   2.232
20424W        W84632  40.456   5.882  13.378
20425W        W84633  21.154  41.027  11.979
20426W        W84634   6.277  37.970   0.841
20427W        W84635  37.491  27.637   4.700
20428W        W84636  43.003  38.341  12.913
20429W        W84637  33.523  28.150   2.881
20430W        W84638  36.396  26.615   0.243
20431W        W84639  25.596  22.205   0.906
20432W        W84640  23.606  20.125  14.768
20433W        W84641  44.385  18.237  10.525
20434W        W84642  34.427   7.322  14.822
20435W        W84643  40.946  29.979  13.342
20436W        W84644  35.479  33.942  14.391
20437W        W84645   9.746  27.570   3.784
20438W        W84646  26.096  31.560   1.375
20439W        W84647  29.110  28.649   2.213
20440W        W84648   3.424   6.691   0.439
20441W        W84649  41.375  33.974   3.851
20442W        W84650  26.047   7.206  11.466
20443W        W84651  36.012   0.414   3.357
20444W        W84652  42.358  13.136  14.856
20445W        W84653  27.686  34.023  12.897
20446W        W84654  32.472  16.275   1.848
20447W        W84655  26.131  17.278  11.440
20448W        W84656  25.978  20.087   3.362
20449W        W84657  39.991  34.873   0.357
20450W        W84658  43.394  29.014   3.676
20451W        W84659  18.123  11.658   2.767
20452W        W84660  14.138  12.772   4.178
20453W        W84661  41.524  12.798  13.885
20454W        W84662  14.253  44.428   5.305
20455W        W84663  44.912  34.080   3.672
20456W        W84664  44.814   4.861  13.928
20457W        W84665  36.432  22.073   0.772
20458W        W84666  40.912  23.032  11.937
20459W        W84667  24.574  25.989  13.872
20460W        W84668   8.810  36.568  12.425
20461W        W84669   3.345   8.761   1.211
20462W        W84670  11.310  34.972   3.283
20463W        W84671  37.582  30.615   2.414
20464W        W84672  16.167  33.052   2.695
20465W        W84673  43.436  42.487  13.953
20466W        W84674  25.028  41.925  11.045
20467W        W84675  31.088   8.331   1.773
20468W        W84676   3.436  34.026  10.019
20469W        W84677  25.528  23.059  12.826
20470W        W84678  21.677  23.590  12.346
20471W        W84679  38.995  26.581   1.287
20472W        W84680   2.331   3.302  13.482
20473W        W84681  28.090   9.185   0.397
20474W        W84682  25.670  37.538   3.672
20475W        W84683  41.915  27.473  14.925
20476W        W84684  36.587  15.814  11.932
20477W        W84685  32.985  16.122   1.831
20478W        W84686  37.906   4.706  12.343
20479W        W84687  44.318  42.799   5.214
20480W        W84688  37.880  42.432   0.266
20481W        W84689  31.030  24.485  14.340
20482W        W84690  11.254  22.622   2.226
20483W        W84691   1.883  11.823   3.353
20484W        W84692  26.965  20.570   3.173
20485W        W84693  10.833  14.657   1.391
20486W        W84694  15.651  27.559  12.084
20487W        W84695  14.676  17.661  14.369
20488W        W84696  15.688  32.599   4.746
20489W        W84697  31.049  42.293  12.018
20490W        W84698  16.169  18.070  13.848
20491W        W84699  27.668  42.310  11.372
20492W        W84700  44.950  37.548   0.808
20493W        W84701  43.891  10.796  13.348
20494W        W84702   0.355   0.284   5.261
20495W        W84703  43.417  10.371  14.508
20496W        W84704   2.277  24.573  12.376
20497W        W84705  29.074  23.150  12.985
20498W        W84706  43.913  39.817  12.963
20499W        W84707  12.771  21.150   3.207
20500W        W84708  28.028  13.268  11.549
20501W        W84709  27.071  32.136   9.936
20502W        W84710  22.502  22.031  11.084
20503W        W84711  12.733  12.229   5.712
20504W        W84712  36.352  21.607  10.486
20505W        W84713  17.642  19.774  12.073
20506W        W84714  26.018  20.072  11.416
20507W        W84715   4.721  13.646   3.262
20508W        W84716   6.734  23.164  10.439
20509W        W84717   3.821  43.419  12.568
20510W        W84718  26.618  29.925  11.981
20511W        W84719  15.616  12.776  13.490
20512W        W84720   1.302  15.788  12.043
20513W        W84721   4.261  14.121  13.022
20514W        W84722  37.004   6.690  13.793
20515W        W84723  44.489  43.001   2.671
20516W        W84724   5.286  37.390   4.803
20517W        W84725  14.212  40.312   3.383
20518W        W84726  41.804   6.360   3.360
20519W        W84727  18.232  30.053  14.838
20520W        W84728  38.358   2.287   5.773
20521W        W84729   7.822  26.675  10.044
20522W        W84730   8.399   1.318  12.388
20523W        W84731  44.332  20.538  13.477
20524W        W84732   5.196   4.871   4.616
20525W        W84733  24.545  39.902   2.285
20526W        W84734  34.422  16.234   0.897
20527W        W84735  21.544  43.866   0.397
20528W        W84736  20.110  14.123  10.085
20529W        W84737  26.458  22.747   4.132
20530W        W84738  24.609   4.293   3.745
20531W        W84739  20.673  12.234   1.781
20532W        W84740  32.089   9.724   4.831
20533W        W84741   5.314   6.775  14.483
20534W        W84742   1.890  41.816   4.640
20535W        W84743  17.232  35.952  12.506
20536W        W84744  44.499  40.427  11.045
20537W        W84745  10.876  36.362   4.259
20538W        W84746  40.400  23.987  10.521
20539W        W84747   8.356  29.021   3.171
20540W        W84748  10.660  30.571   2.719
20541W        W84749   1.945   6.267  12.044
20542W        W84750  33.537  25.474   0.295
20543W        W84751  20.538  11.625  11.381
20544W        W84752  43.333  25.621   4.799
20545W        W84753  31.088  13.746  14.783
20546W        W84754   7.226  27.692  13.379
20547W        W84755  11.758  15.617  12.978
20548W        W84756  31.025  25.695   3.721
20549W        W84757   8.736  18.582   2.820
20550W        W84758  22.082  37.368  12.838
20551W        W84759  28.544  39.009   1.920
20552W        W84760  30.015   3.245   3.375
20553W        W84761   7.238   6.763  13.823
20554W        W84762  21.105  36.903  10.406
20555W        W84763  11.788  30.956  14.901
20556W        W84764  32.451  26.022  10.529
20557W        W84765   9.242  28.566  11.876
20558W        W84766  37.447  16.226  10.638
20559W        W84767  20.638  25.043  11.606
20560W        W84768  25.576   5.250   2.241
20561W        W84769  24.051  42.304  14.374
20562W        W84770  23.733  36.873  14.770
20563W        W84771  30.910   9.157  13.406
20564W        W84772   1.279  37.007   3.796
20565W        W84773  12.656  33.477  11.020
20566W        W84774  38.402  28.934   2.748
20567W        W84775  23.563  41.932   0.288
20568W        W84776  28.567  33.013   4.801
20569W        W84777   2.337   3.268  12.518
20570W        W84778   6.836  18.199   0.773
20571W        W84779  12.731  28.548   1.884
20572W        W84780  42.786  25.212   2.794
20573W        W84781   2.846  21.048  10.151
20574W        W84782  44.875  39.815   0.262
20575W        W84783   4.403  44.939  11.491
20576W        W84784  17.640  17.245  11.086
20577W        W84785  21.569   9.870   0.409
20578W        W84786  24.620  24.219   4.354
20579W        W84787  12.222  19.041   2.198
20580W        W84788  31.075  23.668  14.285
20581W        W84789  27.966  30.921  14.373
20582W        W84790  37.978  28.983   3.295
20583W        W84791  31.054  13.611   3.807
20584W        W84792  44.796  30.164  12.044
20585W        W84793  19.741   4.210  12.009
20586W        W84794  30.944  27.539  13.058
20587W        W84795  20.148  32.633  12.391
20588W        W84796  27.974  43.396   4.700
20589W        W84797  22.621  22.205   1.823
20590W        W84798   7.398  42.464  11.457
20591W        W84799  16.656  12.797  11.063
20592W        W84800  23.491   9.246  11.875
20593W        W84801  34.507   6.923   1.378
20594W        W84802  30.913  29.924  13.820
20595W        W84803  17.576  28.476  11.391
20596W        W84804  11.363  11.154   4.752
20597W        W84805  31.991  27.625   5.172
20598W        W84806   0.432  25.082  14.940
20599W        W84807   0.880  36.438   4.173
20600W        W84808  23.530  29.530   0.250
20601W        W84809  12.245  15.213   9.573
20602W        W84810  11.655  22.012   2.665
20603W        W84811  15.683  19.755  11.882
20604W        W84812  28.671  37.364  14.420
20605W        W84813  11.835  14.200  13.861
20606W        W84814   8.170  35.943   1.418
20607W        W84815  38.549  36.401  10.410
20608W        W84816  44.407  19.535  11.392
20609W        W84817  41.980   7.692  11.547
20610W        W84818  20.703   2.731  10.584
20611W        W84819  30.599  42.792   0.912
20612W        W84820  22.518  14.825   1.330
20613W        W84821   4.698  10.696  14.995
20614W        W84822  39.535   8.399   3.153
20615W        W84823  11.635  16.125   9.924
20616W        W84824  44.274  15.121  11.981
20617W        W84825  10.324  28.141   2.784
20618W        W84826   9.863   0.283  12.825
20619W        W84827  21.239   1.732   4.226
20620W        W84828  25.654  39.494   2.699
20621W        W84829  34.546  21.257  12.037
20622W        W84830  36.939  37.459   0.424
20623W        W84831  14.184  15.587   4.677
20624W        W84832  26.615  43.844   1.440
20625W        W84833   2.423  24.091   3.717
20626W        W84834  10.867  10.632  11.399
20627W        W84835  16.745  23.234  14.511
20628W        W84836  38.340   0.850   2.900
20629W        W84837  35.006  39.374   0.428
20630W        W84838  18.265  22.103  10.941
20631W        W84839  24.616  38.494   3.645
20632W        W84840   5.913   5.218  13.379
20633W        W84841   9.824  44.922  11.569
20634W        W84842  40.357   7.814  11.964
20635W        W84843  28.612  42.939  11.516
20636W        W84844   0.336   5.268   3.840
20637W        W84845  11.345  24.513   4.189
20638W        W84846  22.515  29.655  11.386
20639W        W84847  30.141  15.813  11.860
20640W        W84848  16.713   0.894  11.002
20641W        W84849  39.451  36.458   4.765
20642W        W84850  11.322  10.718  12.446
20643W        W84851  12.299   2.263  14.845
20644W        W84852  32.424  37.863   2.200
20645W        W84853  15.144  25.052   3.179
20646W        W84854  18.085   9.700  14.809
20647W        W84855  15.285  37.042   1.375
20648W        W84856  40.507  34.385  13.854
20649W        W84857  42.310  37.438   3.163
20650W        W84858  39.012  36.857   5.268
20651W        W84859  19.576  44.843  13.814
20652W        W84860  34.010  18.163  11.101
20653W        W84861   4.418  39.864  13.993
20654W        W84862  19.178  36.095   2.675
20655W        W84863   1.813  44.294   4.283
20656W        W84864  36.559  10.712  13.391
20657W        W84865  38.367  30.649   3.778
20658W        W84866  17.267  11.753   4.225
20659W        W84867  31.984  28.658  13.986
20660W        W84868  24.005  38.939   5.156
20661W        W84869  13.199   4.364  12.517
20662W        W84870  13.135   5.371  10.472
20663W        W84871  43.294   6.234  12.361
20664W        W84872  23.085  41.401   1.877
20665W        W84873   0.793  19.696   4.609
20666W        W84874   5.708  24.192   2.690
20667W        W84875  11.833  17.633   0.872
20668W        W84876  13.156  40.995   4.303
20669W        W84877  22.135  44.465   3.309
20670W        W84878   4.856   6.328   4.220
20671W        W84879  39.423  44.889   3.707
20672W        W84880  36.985  39.056   4.130
20673W        W84881   2.905  41.507   2.855
20674W        W84882  24.178  18.079  13.857
20675W        W84883  42.441   9.268  13.465
20676W        W84884  41.473  19.165  11.568
20677W        W84885  14.110  32.033   0.420
20678W        W84886  35.046  30.144  11.918
20679W        W84887  39.919  44.880  14.336
20680W        W84888   7.365  30.154  14.878
20681W        W84889  15.731  38.560  14.507
20682W        W84890  15.151  16.567   4.792
20683W        W84891  30.620  19.111   3.846
20684W        W84892  30.420  25.606   2.840
20685W        W84893  13.599   1.885   4.174
20686W        W84894  12.768   4.853   4.822
20687W        W84895  37.018  43.290  14.929
20688W        W84896   2.364  12.796   3.307
20689W        W84897  29.997  13.155   4.732
20690W        W84898  20.099  19.104   0.826
20691W        W84899  36.510   6.253  10.439
20692W        W84900  23.097  37.556   4.719
20693W        W84901  11.218  36.583   2.323
20694W        W84902  30.010  26.695   2.198
20695W        W84903   9.315  20.628   1.783
20696W        W84904  12.762  42.413  12.527
20697W        W84905  19.063   8.697  12.391
20698W        W84906  42.485  18.622   5.254
20699W        W84907  36.398  39.862   4.252
20700W        W84908  12.638  22.725  12.507
20701W        W84909  25.139  44.810   3.268
20702W        W84910  41.980  11.285  12.872
20703W        W84911  18.619  41.033   2.727
20704W        W84912  23.532  31.912  10.515
20705W        W84913  13.324  33.620  13.967
20706W        W84914  44.989  33.915   3.308
20707W        W84915  13.759  33.898   3.870
20708W        W84916  39.328  10.730   2.395
20709W        W84917   6.278  43.479  12.934
20710W        W84918  39.531  29.055  14.319
20711W        W84919  27.160  18.059  11.527
20712W        W84920  23.047  22.647  13.970
20713W        W84921  16.275  41.442   0.328
20714W        W84922  15.727   0.275   0.891
20715W        W84923   6.812  39.522  12.080
20716W        W84924  30.128  12.187  11.857
20717W        W84925  40.826   6.724  13.883
20718W        W84926  30.657  38.468  10.528
20719W        W84927   1.748  22.011   3.700
20720W        W84928  31.922  39.402  10.620
20721W        W84929  38.056   6.873   1.760
20722W        W84930  40.497   2.432  13.027
20723W        W84931  38.899  10.220  14.471
20724W        W84932  19.116  31.598   2.780
20725W        W84933  17.208   0.962  12.532
20726W        W84934  22.036  29.526  13.831
20727W        W84935   7.693  20.620  13.482
20728W        W84936  13.217  16.273  13.411
20729W        W84937  19.742  30.955   3.666
20730W        W84938  23.160  21.720  12.417
20731W        W84939   4.920  44.921  13.829
20732W        W84940   9.233  38.914   2.752
20733W        W84941  26.035  27.174   0.320
20734W        W84942   9.800  33.512  11.925
20735W        W84943   5.797   7.301  11.945
20736W        W84944  40.447  30.966   4.732
20737W        W84945  30.038  29.130  12.970
20738W        W84946  29.056  41.307  13.349
20739W        W84947  37.544  32.557  13.905
20740W        W84948   6.339   9.217   3.758
20741W        W84949   3.388  25.041   0.411
20742W        W84950  40.548  16.161   3.350
20743W        W84951  10.673  14.780  12.462
20744W        W84952  22.183   5.847  11.465
20745W        W84953  38.556   7.736  13.509
20746W        W84954  32.635   3.752   0.411
20747W        W84955  15.768  27.153   0.789
20748W        W84956  24.546  30.487   1.933
20749W        W84957  23.125  39.522   4.175
20750W        W84958  16.256  17.619   4.776
20751W        W84959  19.569   1.918  10.888
20752W        W84960  16.309  29.477  13.516
20753W        W84961  28.183  36.398   3.166
20754W        W84962  42.425  16.153   5.671
20755W        W84963  33.552  29.578   4.217
20756W        W84964   7.396  12.725  12.346
20757W        W84965  17.292  19.603  14.021
20758W        W84966  35.035  20.667  12.475
20759W        W84967   4.225  36.585   3.299
20760W        W84968  31.430   1.343   1.371
20761W        W84969  28.601   8.257   0.831
20762W        W84970  19.184  17.640   3.367
20763W        W84971  32.952  44.838   3.871
20764W        W84972  19.064  18.620   2.203
20765W        W84973  30.931  32.999  10.979
20766W        W84974  29.426   8.748   0.368
20767W        W84975  31.620   3.307  14.409
20768W        W84976  42.517  36.543  13.349
20769W        W84977  25.653  17.133   4.329
20770W        W84978   4.906  25.625   4.237
20771W        W84979  34.596  34.105   0.410
20772W        W84980  34.568   3.224  12.406
20773W        W84981  16.136   7.808  11.894
20774W        W84982  15.578  37.378  11.510
20775W        W84983  15.781  40.962   1.256
20776W        W84984  28.572  32.136  11.106
20777W        W84985  36.388  40.799   0.761
20778W        W84986  28.137  12.856   4.120
20779W        W84987  34.062  18.670   3.171
20780W        W84988  26.689   6.735  10.533
20781W        W84989  11.764  14.227  11.988
20782W        W84990   7.327   7.810   4.175
20783W        W84991  32.577  26.021  12.846
20784W        W84992  31.056  24.574   1.338
20785W        W84993  27.470  29.550   1.930
20786W        W84994  13.629   6.412   2.253
20787W        W84995   8.214  36.963  10.981
20788W        W84996  18.190  22.581  13.796
20789W        W84997  44.832  16.148  10.592
20790W        W84998   1.389  11.624   1.312
20791W        W84999  42.345  14.595   2.817
20792W        W85000  39.900  13.748   2.204
20793W        W85001  44.360  18.597  14.469
20794W        W85002  43.822   1.892  13.373
20795W        W85003  36.927  20.226  13.885
20796W        W85004  30.963   1.418  12.340
20797W        W85005   3.829  28.527   4.677
20798W        W85006  44.321   0.943   0.412
20799W        W85007   0.820  26.620  10.056
20800W        W85008   1.762  31.037   9.484
20801W        W85009  10.699  39.922  11.113
20802W        W85010  25.617  24.530   2.786
20803W        W85011  23.220  37.496  12.873
20804W        W85012   8.744  12.681   2.754
20805W        W85013  18.706   5.234   1.312
20806W        W85014  25.061  12.612  11.011
20807W        W85015  18.054   7.838   2.292
20808W        W85016   8.228  15.165   2.326
20809W        W85017  43.900  27.552   2.834
20810W        W85018  35.573  37.488  13.339
20811W        W85019  19.573  36.088  10.639
20812W        W85020   0.970  28.666   3.298
20813W        W85021  24.041   3.845   4.264
20814W        W85022   3.437  17.771   4.648
20815W        W85023  11.743  27.486   0.475
20816W        W85024   4.448  37.582   4.756
20817W        W85025  24.005  32.417  10.501
20818W        W85026  22.997  21.630   2.409
20819W        W85027   8.682  26.679  12.365
20820W        W85028  40.361  24.672  14.773
20821W        W85029  15.165  13.121   3.240
20822W        W85030   5.395   3.935  14.334
20823W        W85031  30.548  16.124  12.996
20824W        W85032   5.699  27.001   3.778
20825W        W85033   5.252  27.125  12.497
20826W        W85034  15.229   7.693   4.126
20827W        W85035  18.084   8.792   5.101
20828W        W85036  39.327  24.644  13.867
20829W        W85037  19.540  19.068   1.345
20830W        W85038  34.523  21.188   3.809
20831W        W85039   2.422  19.216   3.281
20832W        W85040  17.629  41.797  13.981
20833W        W85041  23.225   3.765  11.485
20834W        W85042  42.821   4.313   1.931
20835W        W85043  28.013  23.536   3.261
20836W        W85044  34.082  23.006  12.996
20837W        W85045   4.736  13.108  14.965
20838W        W85046  21.619   7.679  11.582
20839W        W85047  10.740  31.624   0.890
20840W        W85048  12.810  15.609  12.892
20841W        W85049  10.734  40.346   2.888
20842W        W85050   8.781  11.322  10.467
20843W        W85051  11.149  18.710  14.391
20844W        W85052  30.937  12.665   2.893
20845W        W85053  26.677  35.943   4.315
20846W        W85054  16.203  19.598   3.188
20847W        W85055  33.971   4.435   1.742
20848W        W85056  26.037  16.781   3.806
20849W        W85057  35.490  11.166  11.998
20850W        W85058  24.513  26.614   2.750
20851W        W85059  44.954  28.115   5.687
20852W        W85060  18.187  20.586  13.947
20853W        W85061  25.214  28.568  12.360
20854W        W85062  14.110  17.294   2.392
20855W        W85063   3.713  40.881  12.042
20856W        W85064   1.395  37.899   1.434
20857W        W85065  36.875  38.419   4.280
20858W        W85066  12.794  16.635  11.121
20859W        W85067  15.649   8.163   0.788
20860W        W85068  10.850  33.399  12.360
20861W        W85069  19.596   7.828  13.379
20862W        W85070  18.690  26.162   3.315
20863W        W85071  13.144  30.649  12.034
20864W        W85072   3.295  13.175  11.613
20865W        W85073   2.394  24.571   3.157
20866W        W85074   1.464  14.096  12.431
20867W        W85075  29.443  14.251  13.960
20868W        W85076  21.254  29.144  14.466
20869W        W85077  13.190   6.907  11.856
20870W        W85078  14.288  16.239  12.995
20871W        W85079  21.712  35.001  13.002
20872W        W85080  35.530  12.187   2.274
20873W        W85081  11.765  14.220   2.871
20874W        W85082  35.540  42.875  11.085
20875W        W85083  28.116  16.583   2.852
20876W        W85084  14.229  22.065   0.263
20877W        W85085   6.194   8.827   1.733
20878W        W85086  12.271  11.155   5.613
20879W        W85087  16.232  41.891   3.326
20880W        W85088   1.311   6.184  13.814
20881W        W85089  26.568  33.053  13.391
20882W        W85090  42.881  30.973   3.867
20883W        W85091  38.031   2.730  10.936
20884W        W85092   2.959  31.516  10.118
20885W        W85093  29.991  43.501   0.416
20886W        W85094  29.669  12.744  14.778
20887W        W85095  23.541   4.301  12.417
20888W        W85096  24.503   0.747  13.977
20889W        W85097  18.644  10.234  12.066
20890W        W85098  40.498  30.985  13.899
20891W        W85099  43.308  37.521   1.218
20892W        W85100   8.387   5.276   0.831
20893W        W85101  43.401  23.000  11.115
20894W        W85102  12.687  30.530  14.291
20895W        W85103   2.909   6.373  10.581
20896W        W85104  33.606  44.361   5.094
20897W        W85105   3.792   8.316   0.455
20898W        W85106  21.752  19.125   2.706
20899W        W85107  17.305  11.655  11.929
20900W        W85108   5.823  15.621   3.805
20901W        W85109  26.202   3.888  13.003
20902W        W85110  28.150  23.994   4.761
20903W        W85111  16.145   3.891  14.994
20904W        W85112  17.075  37.357   3.740
20905W        W85113   4.428   0.310   3.357
20906W        W85114  18.231  32.627   0.265
20907W        W85115  11.759   6.691   1.242
20908W        W85116   7.407  37.949  12.343
20909W        W85117   9.218  19.039   0.900
20910W        W85118  17.178  32.500   4.298
20911W        W85119  26.005  12.823  11.926
20912W        W85120  36.094  11.326   3.685
20913W        W85121   3.926  15.203   3.219
20914W        W85122  14.657  38.533   2.676
20915W        W85123  16.801  27.521   3.382
20916W        W85124  18.202  35.028  12.014
20917W        W85125  31.077  43.446   2.225
20918W        W85126   9.162  11.805   0.747
20919W        W85127  26.180  15.131  14.363
20920W        W85128  28.102  16.684  12.950
20921W        W85129  26.055   6.859   3.246
20922W        W85130  39.382  10.801  12.837
20923W        W85131   4.436   2.391   2.265
20924W        W85132  31.112   1.894   3.757
20925W        W85133  25.657   3.934   3.733
20926W        W85134  31.035  35.407   0.405
20927W        W85135  28.465   6.896   0.413
20928W        W85136  41.811  28.451  12.062
20929W        W85137  38.364   2.842   0.823
20930W        W85138  42.486  10.773   3.274
20931W        W85139  17.765  42.292   1.705
20932W        W85140   5.830   9.883   0.801
20933W        W85141  30.582  29.471  13.045
20934W        W85142  32.566  24.142   2.865
20935W        W85143  15.814  18.235   3.804
20936W        W85144  13.172   6.695   4.744
20937W        W85145  24.107   2.786   2.685
20938W        W85146   8.897  19.622   1.422
20939W        W85147  15.696  15.824   5.320
20940W        W85148   1.317  17.650  14.425
20941W        W85149  26.095  26.050   1.218
20942W        W85150  28.619  36.364  11.529
20943W        W85151  35.022   0.357  14.864
20944W        W85152  12.649  25.972   2.795
20945W        W85153   2.329  13.280  13.803
20946W        W85154   3.716  35.455   1.826
20947W        W85155  31.610  36.868  12.850
20948W        W85156  32.552  26.078  12.474
20949W        W85157  11.724  13.757   2.830
20950W        W85158  42.364  40.000  12.418
20951W        W85159  35.600  29.462  12.541
20952W        W85160  21.135  42.777   2.873
20953W        W85161  11.717  15.739  12.049
20954W        W85162  13.264   8.333  13.915
20955W        W85163  31.557   1.404   3.178
20956W        W85164  15.752  22.182  14.987
20957W        W85165   0.477  26.615   4.789
20958W        W85166  34.957  30.024   0.451
20959W        W85167  10.270  32.098   0.896
20960W        W85168  31.433  17.157   2.351
20961W        W85169  38.871  27.575  11.118
20962W        W85170   6.414  38.048   2.205
20963W        W85171   5.380  36.916  12.840
20964W        W85172  43.991  26.012   4.834
20965W        W85173  42.395  42.436   3.811
20966W        W85174   1.857  37.372  13.885
20967W        W85175  35.002   1.378  12.512
20968W        W85176  16.602  14.711  12.035
20969W        W85177  21.581  30.428   4.114
20970W        W85178  42.905  41.431   4.734
20971W        W85179  31.407  37.864   2.853
20972W        W85180  37.551   3.835   2.870
20973W        W85181  20.641  25.074   3.688
20974W        W85182  12.162   3.267   0.869
20975W        W85183  10.262  12.263   5.667
20976W        W85184  38.050   1.365  12.560
20977W        W85185  43.408  35.400   0.907
20978W        W85186  43.404  38.533   2.693
20979W        W85187  37.896   8.896   2.218
20980W        W85188  31.639  26.167  12.988
20981W        W85189  17.124  19.750   2.870
20982W        W85190  16.240   6.318  10.435
20983W        W85191  42.303  37.398  11.905
20984W        W85192   3.819  23.219   4.647
20985W        W85193   0.813  36.880   2.215
20986W        W85194  13.757  13.695   2.329
20987W        W85195  35.505  33.417  10.430
20988W        W85196   0.295  19.260  14.005
20989W        W85197  31.134  10.375   9.989
20990W        W85198  20.530  41.440   2.261
20991W        W85199  30.010  18.098   2.357
20992W        W85200   9.818  39.449  10.945
20993W        W85201  24.617  25.165  12.987
20994W        W85202  10.866  40.998   1.776
20995W        W85203   3.931  36.509   0.463
20996W        W85204   1.326   7.358  13.418
20997W        W85205   1.840  13.311   2.864
20998W        W85206   3.233  33.117  12.927
20999W        W85207  31.011  33.418   4.113
21000W        W85208   8.798  44.910   4.757
21001W        W85209  41.507   1.280   0.852
21002W        W85210   5.226  40.371  12.960
21003W        W85211  18.185  44.975  11.455
21004W        W85212  43.973  20.235   2.415
21005W        W85213  23.018  21.541   2.839
21006W        W85214  38.941  40.311   0.356
21007W        W85215  38.039   9.314  11.963
21008W        W85216  11.802   9.803   4.121
21009W        W85217  18.732  27.165  14.966
21010W        W85218  27.661  39.528   2.803
21011W        W85219  44.500   1.863  11.878
21012W        W85220  20.054   7.743   4.318
21013W        W85221  27.581  15.763  13.511
21014W        W85222  10.380  41.519  13.900
21015W        W85223   2.885  24.179   0.800
21016W        W85224   6.312  25.090   5.113
21017W        W85225  12.213  32.513  13.884
21018W        W85226  32.930   1.313  13.390
21019W        W85227   0.380   1.453  12.415
21020W        W85228  25.582  32.909   2.722
21021W        W85229  35.502  42.331  14.388
21022W        W85230   9.648  10.760   2.893
21023W        W85231  33.914  33.879  13.046
21024W        W85232  35.466  42.860   1.409
21025W        W85233  22.050  21.117  11.467
21026W        W85234   0.359  36.944   0.289
21027W        W85235  15.693  38.992   4.638
21028W        W85236  40.528  30.948   2.189
21029W        W85237  42.901   3.271  14.851
21030W        W85238  14.152  14.615   1.337
21031W        W85239  37.457  20.639   2.775
21032W        W85240   3.819  37.514   3.840
21033W        W85241  44.834  39.026  11.453
21034W        W85242  26.485  42.798   4.168
21035W        W85243  30.470  31.492  11.049
21036W        W85244   4.850  10.725   4.335
21037W        W85245  32.526  30.044   3.642
21038W        W85246   8.678  32.063   5.273
21039W        W85247  17.691  19.152  12.342
21040W        W85248  10.294  11.216  13.884
21041W        W85249   2.770  37.900   3.341
21042W        W85250  38.476  36.959  14.942
21043W        W85251   0.491  14.316  10.609
21044W        W85252  42.341  14.240  12.047
21045W        W85253   1.461  15.086   3.189
21046W        W85254  41.401  17.715   0.359
21047W        W85255  19.578   5.271   5.100
21048W        W85256  29.924  39.985   4.837
21049W        W85257  26.671  18.559   4.142
21050W        W85258  30.976  34.953   5.277
21051W        W85259  34.963  38.034  14.026
21052W        W85260  13.313  20.242  10.962
21053W        W85261  37.555  14.238   1.264
21054W        W85262   5.329  10.167  13.527
21055W        W85263  11.856  42.870   5.120
21056W        W85264  38.353  26.596  13.366
21057W        W85265   1.745   3.319  14.984
21058W        W85266  18.131  14.620  14.827
21059W        W85267  27.535  15.133  13.979
21060W        W85268   4.793  21.222  11.864
21061W        W85269  37.399  41.445  14.769
21062W        W85270  13.159   5.716  12.573
21063W        W85271  28.181  30.114  12.910
21064W        W85272  36.045   8.185   3.242
21065W        W85273  19.689  15.244   0.966
21066W        W85274  28.487  18.736   2.810
21067W        W85275  41.445  32.537  13.807
21068W        W85276   8.201  16.720   1.387
21069W        W85277  13.716  30.572  13.545
21070W        W85278   2.810  17.084  14.349
21071W        W85279   5.815  21.070  12.424
21072W        W85280   3.301  28.472  10.493
21073W        W85281  13.286  39.323  11.047
21074W        W85282  14.169  31.951  12.437
21075W        W85283   9.270  21.528  13.946
21076W        W85284  31.129  17.656  13.994
21077W        W85285  34.015   5.428   0.816
21078W        W85286  16.804  38.848  11.042
21079W        W85287  30.616   9.354   5.084
21080W        W85288   3.285  33.438  13.996
21081W        W85289  44.009  12.759   2.839
21082W        W85290   3.808  40.548   0.426
21083W        W85291  31.646   1.901  14.029
21084W        W85292  25.087  18.545  14.473
21085W        W85293  38.453  23.591  13.314
21086W        W85294  10.652  18.085  14.009
21087W        W85295  13.123  10.328   3.783
21088W        W85296  21.018  16.141   2.698
21089W        W85297  36.348  36.349   1.905
21090W        W85298  30.557  25.984  12.089
21091W        W85299   7.373  26.143  10.537
21092W        W85300   1.252  12.237  14.429
21093W        W85301  41.316  18.071  13.835
21094W        W85302  24.516  29.024   4.127
21095W        W85303   6.205  36.526   0.964
21096W        W85304  32.444  39.470   3.300
21097W        W85305   4.326  13.620  11.109
21098W        W85306  26.459  37.422  12.951
21099W        W85307  40.318  12.312  13.528
21100W        W85308  35.585  23.647   3.325
21101W        W85309  44.993   0.811   3.832
21102W        W85310  14.768  34.071   3.810
21103W        W85311   2.395   8.698  13.497
21104W        W85312  40.872  11.676   0.427
21105W        W85313  39.504  33.578  11.893
21106W        W85314  25.111  21.631  11.596
21107W        W85315  24.212   3.219   0.261
21108W        W85316  38.820  25.571  11.472
21109W        W85317  24.016   4.264  12.500
21110W        W85318  28.549  19.747   1.300
21111W        W85319  12.313  31.019  13.036
21112W        W85320  23.016  33.890   1.821
21113W        W85321  13.600  32.541   0.966
21114W        W85322  30.474  20.685  10.558
21115W        W85323  38.036  27.452   2.367
21116W        W85324  22.235   6.205  13.307
21117W        W85325  18.623  32.910  11.112
21118W        W85326  26.627  13.766   0.407
21119W        W85327  39.008  10.383  11.898
21120W        W85328  24.048  26.460  13.885
21121W        W85329  43.793  33.068  13.433
21122W        W85330  36.441  44.944  12.386
21123W        W85331   0.901  16.620   1.223
21124W        W85332  20.148  12.795   2.386
21125W        W85333  43.393  40.001   2.893
21126W        W85334   5.253  42.295  13.029
21127W        W85335  28.454  20.218   2.375
21128W        W85336  21.162  27.468  11.862
21129W        W85337  29.109  19.741  12.567
21130W        W85338  15.686  36.907   2.708
21131W        W85339  24.096  40.959  14.309
21132W        W85340  32.003  26.480  13.990
21133W        W85341  19.089  25.594  10.449
21134W        W85342  27.980  38.074   0.830
21135W        W85343  14.186  28.652   1.744
21136W        W85344  37.901  17.072   3.284
21137W        W85345  37.445  42.374  10.444
21138W        W85346  40.028  16.082   2.232
21139W        W85347  14.589  21.228  10.892
21140W        W85348  32.091  12.816  11.510
21141W        W85349  26.478  30.534   3.705
21142W        W85350   7.274  39.362  13.035
21143W        W85351   4.883  10.277   0.818
21144W        W85352  38.404   2.850  13.992
21145W        W85353  24.212  18.146   4.302
21146W        W85354   3.828  25.119  14.801
21147W        W85355   7.355  17.230   0.766
21148W        W85356   2.953  39.038   2.899
21149W        W85357  35.528  43.016   0.946
21150W        W85358  44.760  36.360  12.056
21151W        W85359  22.616   0.368   1.326
21152W        W85360  15.597  16.644   4.838
21153W        W85361  28.505   5.387   3.746
21154W        W85362  27.181   6.358   3.231
21155W        W85363  22.218  43.446   2.340
21156W        W85364  37.898  39.953  13.431
21157W        W85365  22.214  31.938  13.377
21158W        W85366   6.835  28.560   2.717
21159W        W85367   7.296  16.592   1.805
21160W        W85368   0.875   7.790  13.974
21161W        W85369  42.447   5.908   0.307
21162W        W85370  31.644  25.636   2.873
21163W        W85371  27.187  18.635  13.042
21164W        W85372  11.313  12.216   4.140
21165W        W85373  10.236  14.774  11.950
21166W        W85374  43.783  42.789  14.004
21167W        W85375  32.452  34.892  13.522
21168W        W85376  35.466  24.704  13.827
21169W        W85377  12.647  11.855   1.284
21170W        W85378  13.261   2.939   4.610
21171W        W85379   3.390  29.575  13.323
21172W        W85380   9.876  16.735   1.802
21173W        W85381   8.308  31.505  12.015
21174W        W85382  43.940  42.929  13.398
21175W        W85383  19.241  19.114  11.981
21176W        W85384  43.901  19.072  11.406
21177W        W85385  33.924  25.483  11.002
21178W        W85386  16.244  28.646   0.756
21179W        W85387  19.086  35.413   2.687
21180W        W85388   5.230  44.775  11.937
21181W        W85389  36.912   3.822  13.937
21182W        W85390  16.165  27.055  11.441
21183W        W85391  15.709  25.664  12.556
21184W        W85392  44.291  29.153   4.324
21185W        W85393  42.965  20.118  10.446
21186W        W85394  36.057  20.091  10.503
21187W        W85395  36.511  14.212   0.895
21188W        W85396  44.470  12.806   2.385
21189W        W85397  28.022  17.794  12.068
21190W        W85398  42.792  34.050   2.722
21191W        W85399  24.035  30.458   1.859
21192W        W85400  13.320  22.592   2.257
21193W        W85401  23.183  19.665  12.359
21194W        W85402  37.950  14.710   1.934
21195W        W85403  15.307   8.198  14.877
21196W        W85404  41.514  18.117   1.935
21197W        W85405  30.122  38.422  11.117
21198W        W85406  36.482  37.069  14.335
21199W        W85407  25.985  44.813  10.539
21200W        W85408  37.447   8.829   1.749
21201W        W85409  41.801  38.905   2.824
21202W        W85410  11.150  20.187  12.064
21203W        W85411  13.816  26.017   3.153
21204W        W85412  35.928  11.772   0.287
21205W        W85413  14.791  19.212  14.396
21206W        W85414  13.756  36.576  14.500
21207W        W85415  25.021   4.713   4.167
21208W        W85416  27.971  14.818   4.219
21209W        W85417  41.401   4.420   9.985
21210W        W85418  23.224  19.722   5.273
21211W        W85419  10.801  21.719  12.527
21212W        W85420  15.099  10.873  11.047
21213W        W85421  24.532  25.154  14.821
21214W        W85422  41.355  23.527  12.407
21215W        W85423  11.674  11.222   2.385
21216W        W85424  42.308  11.253  14.974
21217W        W85425  35.896  30.622  14.858
21218W        W85426  10.328  21.751   3.850
21219W        W85427   5.889  41.966   3.243
21220W        W85428  38.330  34.020   2.711
21221W        W85429  33.962   3.921  14.362
21222W        W85430  33.973   1.818  10.914
21223W        W85431   6.697  20.692  11.421
21224W        W85432  38.066  44.887   1.246
21225W        W85433  11.284  15.583   5.118
21226W        W85434   6.792   7.293  13.845
21227W        W85435  26.041   0.463  13.319
21228W        W85436  11.184  28.527   1.733
21229W        W85437  22.521  36.368  11.416
21230W        W85438  28.142   8.349   4.272
21231W        W85439   1.360  31.972   4.292
21232W        W85440   0.816  39.538   0.927
21233W        W85441  12.621  41.399  14.291
21234W        W85442  19.550  33.993   4.241
21235W        W85443  34.462  34.978   2.383
21236W        W85444   6.356   0.340  14.944
21237W        W85445  41.928  37.336   0.793
21238W        W85446  29.964  12.139   4.806
21239W        W85447   2.292  17.231  10.939
21240W        W85448   0.826  11.194  13.874
21241W        W85449  43.408   2.380   4.729
21242W        W85450  34.909  44.990   0.800
21243W        W85451  28.458  12.142   0.942
21244W        W85452  22.689   6.397  11.533
21245W        W85453  39.057  19.663  12.030
21246W        W85454  27.545  42.794   9.938
21247W        W85455  30.509  20.623   0.325
21248W        W85456  12.168  18.725  14.404
21249W        W85457  28.618  32.542  11.958
21250W        W85458  28.038  17.107   5.175
21251W        W85459  10.697  20.565   2.388
21252W        W85460   9.743   4.930   0.359
21253W        W85461  19.760  14.783  14.410
21254W        W85462  33.053  28.647  10.583
21255W        W85463   4.710   2.935  12.491
21256W        W85464  37.844  15.809  14.422
21257W        W85465  13.218  31.920   2.708
21258W        W85466   9.664  25.049  13.973
21259W        W85467   3.767  31.114  10.974
21260W        W85468   7.736  13.201  13.403
21261W        W85469   8.773  20.650   1.336
21262W        W85470   2.866   5.744   1.403
21263W        W85471  28.501  21.063   0.411
21264W        W85472  32.604  32.577   1.361
21265W        W85473  11.219  29.654  11.108
21266W        W85474   1.246  39.005  14.300
21267W        W85475  28.115  37.056   4.774
21268W        W85476  14.718  25.991   1.358
21269W        W85477  10.187  41.848  12.042
21270W        W85478   0.822   5.760   4.145
21271W        W85479   0.492   4.392   4.755
21272W        W85480   5.772  37.074   1.736
21273W        W85481  24.998  13.612   3.684
21274W        W85482   4.367  35.537   0.759
21275W        W85483  11.348   0.813   1.341
21276W        W85484   1.751   9.703  12.449
21277W        W85485  21.622  31.020  10.403
21278W        W85486  22.565   9.248   2.398
21279W        W85487  27.623   2.275   2.890
21280W        W85488   5.196  20.091   1.751
21281W        W85489  42.956  19.770   2.801
21282W        W85490  35.091   5.774   0.901
21283W        W85491  25.083  37.844   4.784
21284W        W85492  11.635  34.482  10.597
21285W        W85493  32.635  19.098   0.745
21286W        W85494  15.729  30.960  14.411
21287W        W85495  30.940  34.974   4.616
21288W        W85496  33.980  13.283  11.904
21289W        W85497  23.082  12.240  13.334
21290W        W85498  36.513  20.536   0.895
21291W        W85499  37.065  44.369   0.404
21292W        W85500   7.845  32.044  12.573
21293W        W85501  21.252  37.494  13.909
21294W        W85502   8.778  37.030  14.348
21295W        W85503  21.220   9.255   3.202
21296W        W85504   8.204  18.151   4.657
21297W        W85505  22.168  11.689  11.589
21298W        W85506   4.825  35.952   3.162
21299W        W85507  27.490  17.097  14.365
21300W        W85508  27.171  23.204  12.936
21301W        W85509  36.489   6.714   1.887
21302W        W85510  27.020  28.981  13.791
21303W        W85511  25.128  20.191  14.925
21304W        W85512  43.428  29.546  13.984
21305W        W85513   3.901  32.036   1.260
21306W        W85514  25.075  11.326  14.895
21307W        W85515  40.503  23.706   2.880
21308W        W85516  19.564  24.130   1.870
21309W        W85517  33.884   3.923   0.855
21310W        W85518  39.467  35.007   2.293
21311W        W85519  17.720  15.644  10.487
21312W        W85520  12.263   1.843   2.678
21313W        W85521  27.172  13.168   2.696
21314W        W85522  16.154  33.413   2.752
21315W        W85523  42.885  43.364   2.359
21316W        W85524  29.632  14.757  11.378
21317W        W85525  12.840  25.980  11.540
21318W        W85526  17.107  23.191  12.986
21319W        W85527  44.484  34.947  14.845
21320W        W85528  17.706  21.110  12.468
21321W        W85529   0.774   7.349  12.045
21322W        W85530  22.210  40.366  14.856
21323W        W85531  18.158  15.277   0.930
21324W        W85532  18.759   5.329   3.741
21325W        W85533   6.685  19.071  14.982
21326W        W85534  22.125  33.040   2.352
21327W        W85535   8.197   6.251  12.458
21328W        W85536   9.231  43.391   3.666
21329W        W85537   3.255  42.380  11.078
21330W        W85538  21.107  14.161   1.366
21331W        W85539  39.812   7.261   4.302
21332W        W85540  16.661  39.488   2.874
21333W        W85541  37.011  42.526  10.997
21334W        W85542  34.427  24.527  14.305
21335W        W85543   0.771  41.378  10.959
21336W        W85544  27.146  11.826   3.832
21337W        W85545  15.295  36.521   3.174
21338W        W85546  31.426  24.518   1.273
21339W        W85547  42.819  43.482   4.831
21340W        W85548  25.501  15.651   3.698
21341W        W85549  38.952   7.377   0.343
21342W        W85550  39.870  15.765   1.934
21343W        W85551   8.393  31.586   1.823
21344W        W85552  26.606  22.238  12.515
21345W        W85553   6.312  26.603  10.505
21346W        W85554   3.783   7.310  11.552
21347W        W85555  24.549  10.795  11.863
21348W        W85556  27.450   3.872  14.495
21349W        W85557   4.411  22.701  12.944
21350W        W85558  16.713  28.032   4.286
21351W        W85559  33.497   7.695  12.429
21352W        W85560  41.988  39.448   0.308
21353W        W85561  19.264  35.392   1.924
21354W        W85562  37.885  24.689   0.840
21355W        W85563  20.268  24.618   3.270
21356W        W85564  38.474   8.745  11.409
21357W        W85565  36.405  44.879   0.878
21358W        W85566  40.799  26.464   1.780
21359W        W85567  14.237  22.663   0.767
21360W        W85568  22.116   8.876   4.326
21361W        W85569   0.796  14.220   4.292
21362W        W85570   8.382  33.000  12.557
21363W        W85571  16.118  40.392   1.256
21364W        W85572   7.726  14.822   2.723
21365W        W85573  21.109   2.377  13.887
21366W        W85574  44.004   6.313   1.885
21367W        W85575  22.104   6.771   4.697
21368W        W85576  18.219  27.063   1.393
21369W        W85577  26.653   0.937  14.827
21370W        W85578   4.936  13.670  14.418
21371W        W85579  29.094  13.677   4.125
21372W        W85580  30.607  23.502  14.963
21373W        W85581   6.860  36.450   0.815
21374W        W85582   2.239  21.183   1.230
21375W        W85583  37.420  19.103  10.496
21376W        W85584  44.765   8.772   2.186
21377W        W85585  23.590  19.587   3.187
21378W        W85586  39.559  39.813   2.768
21379W        W85587  13.201  25.215   1.897
21380W        W85588  29.657  41.402   1.334
21381W        W85589  10.261  43.450   0.309
21382W        W85590   8.298   1.329   1.290
21383W        W85591  15.817  26.471   1.322
21384W        W85592   0.410  41.472  11.610
21385W        W85593  19.240  35.459  10.636
21386W        W85594  20.029   2.409  13.453
21387W        W85595   5.256  30.149  11.445
21388W        W85596  40.535  38.556  14.885
21389W        W85597  30.005  28.481   1.324
21390W        W85598  27.063   7.374   1.368
21391W        W85599  25.691  22.194   4.217
21392W        W85600  12.212   9.340   3.322
21393W        W85601  28.162  25.701   1.865
21394W        W85602   5.856  26.648  14.762
21395W        W85603  25.675  43.494  11.408
21396W        W85604  36.065   1.758  12.005
21397W        W85605   3.943  12.776   0.267
21398W        W85606  21.691  20.522  10.565
21399W        W85607  31.512  36.580   1.238
21400W        W85608  43.789  44.793   4.755
21401W        W85609  20.664   9.879  10.133
21402W        W85610  15.082  40.035  11.556
21403W        W85611  10.369  20.199  11.548
21404W        W85612  29.509  32.400  13.326
21405W        W85613  12.120   5.222  13.335
21406W        W85614   5.348  13.657   0.922
21407W        W85615   3.803  37.886   4.141
21408W        W85616  43.020   1.483   2.418
21409W        W85617   3.387  27.056   2.191
21410W        W85618  23.043   0.313  11.102
21411W        W85619   7.260  17.753  14.355
21412W        W85620   5.786  24.658   2.287
21413W        W85621  38.028  35.495   1.350
21414W        W85622  21.091  29.549  13.805
21415W        W85623  30.022  30.108  11.385
21416W        W85624  29.662  14.270  14.931
21417W        W85625  21.602  13.155  11.458
21418W        W85626   4.434  43.962   3.697
21419W        W85627   4.717  23.667   0.440
21420W        W85628  16.765   7.388   4.311
21421W        W85629  22.178  38.060  13.512
21422W        W85630  40.021  23.198  10.541
21423W        W85631  22.208   2.343  13.499
21424W        W85632  41.036   8.708  14.848
21425W        W85633  12.760   3.335   5.253
21426W        W85634  13.701  13.681  14.399
21427W        W85635  37.901   5.425  10.982
21428W        W85636   1.392   4.884  13.347
21429W        W85637  30.414  33.939  14.943
21430W        W85638   9.154   3.842  13.834
21431W        W85639  36.088  22.072   0.375
21432W        W85640  33.443  21.229   2.314
21433W        W85641  25.201  44.383  13.808
21434W        W85642  31.539   1.431   0.405
21435W        W85643  30.426  21.522   3.700
21436W        W85644  43.497   6.851  12.491
21437W        W85645  23.224  43.504  12.828
21438W        W85646  38.830  20.583   2.273
21439W        W85647   4.282   0.334   2.826
21440W        W85648  33.014  15.297  13.506
21441W        W85649  41.790  34.611   0.874
21442W        W85650   6.803   6.349   4.724
21443W        W85651   8.268  19.200  12.433
21444W        W85652  18.082   6.731  14.818
21445W        W85653  23.153  43.358   4.268
21446W        W85654  21.263  36.920  12.933
21447W        W85655  18.667  41.336  13.020
21448W        W85656   2.425   5.293  13.477
21449W        W85657  38.922  23.714   3.257
21450W        W85658  27.015   6.344  12.495
21451W        W85659   8.348  42.919  12.034
21452W        W85660  35.873   0.924   3.833
21453W        W85661   3.741  35.900  13.375
21454W        W85662  41.902  41.529  12.982
21455W        W85663   3.949   7.361  10.991
21456W        W85664  25.026  28.039   2.367
21457W        W85665   9.823   1.810  10.922
21458W        W85666  24.178  39.440   1.264
21459W        W85667  30.081  25.125  14.983
21460W        W85668  10.354  20.058  10.552
21461W        W85669  35.981  15.739   4.341
21462W        W85670  28.184  18.773  14.483
21463W        W85671  24.690  33.065  11.970
21464W        W85672  23.151   6.254  11.473
21465W        W85673  33.387   1.347  14.002
21466W        W85674  31.497  41.529   3.797
21467W        W85675   4.869  22.591  11.878
21468W        W85676   6.755  16.604  12.461
21469W        W85677  34.017  27.990  14.467
21470W        W85678  27.950  11.804   4.826
21471W        W85679  43.396  22.016   1.253
21472W        W85680  28.064  24.989  13.025
21473W        W85681  38.980  32.009   4.610
21474W        W85682  36.910  39.412   0.811
21475W        W85683  36.424  42.418  12.459
21476W        W85684  24.010  37.475   1.286
21477W        W85685  33.577  37.541   4.258
21478W        W85686   4.352  24.990   4.300
21479W        W85687  14.807  20.177  12.559
21480W        W85688   1.285  13.339   4.639
21481W        W85689  32.544   5.340   4.727
21482W        W85690  26.654  43.810  10.452
21483W        W85691   9.394  21.192  11.890
21484W        W85692  20.654   5.366  12.900
21485W        W85693  40.960  35.920  10.526
21486W        W85694  18.286  23.009   2.840
21487W        W85695  43.870   1.913  14.912
21488W        W85696  42.398  40.330  12.846
21489W        W85697  24.193  41.521   0.833
21490W        W85698  34.376  17.744  12.870
21491W        W85699  35.533   1.935   0.832
21492W        W85700  37.023  18.569  14.957
21493W        W85701  18.073  36.485  12.352
21494W        W85702  39.403  31.973  13.355
21495W        W85703   5.316   4.307  13.315
21496W        W85704  35.877  32.960  12.534
21497W        W85705  43.449  17.796   0.338
21498W        W85706  33.973  19.195  14.776
21499W        W85707  23.624  43.293  12.000
21500W        W85708  44.368  11.733   2.688
21501W        W85709  20.668  22.178   0.766
21502W        W85710  18.296  18.291   1.385
21503W        W85711   8.205  25.661   2.384
21504W        W85712   3.811  40.358   0.733
21505W        W85713  11.706  39.431   2.674
21506W        W85714  28.597  40.995   1.855
21507W        W85715   3.847  39.524   2.752
21508W        W85716  21.139  44.264  10.482
21509W        W85717  21.657   2.814   3.221
21510W        W85718   0.898  20.709   3.833
21511W        W85719  20.669  37.997  11.051
21512W        W85720  15.328  14.627   1.400
21513W        W85721  16.606  22.217  11.596
21514W        W85722  19.129  26.579  14.784
21515W        W85723  15.722  41.520  12.499
21516W        W85724  37.478   2.883   5.294
21517W        W85725   8.355  31.561  12.828
21518W        W85726  27.473  34.504  13.973
21519W        W85727   3.762  29.601   2.802
21520W        W85728  24.137  36.353  14.368
21521W        W85729  11.244  27.491   2.199
21522W        W85730  31.074  32.011  12.475
21523W        W85731  15.798  16.242  14.997
21524W        W85732   2.418  40.369  11.865
21525W        W85733  13.601  18.751  14.419
21526W        W85734  36.097  14.782  12.983
21527W        W85735   1.799  26.968   1.248
21528W        W85736  13.817  44.881   2.781
21529W        W85737  35.970  22.675   3.864
21530W        W85738  13.664   2.720   2.843
21531W        W85739  27.107  19.188   1.316
21532W        W85740  26.158   9.331   0.841
21533W        W85741  12.133   9.737   3.255
21534W        W85742  31.631  18.080  11.385
21535W        W85743   4.900  31.501  13.013
21536W        W85744  15.297  14.237  14.801
21537W        W85745  35.895  16.766  12.534
21538W        W85746  36.579   8.258  13.064
21539W        W85747  44.928  32.590  14.026
21540W        W85748  16.101  22.115   3.334
21541W        W85749   0.908  40.963  13.022
21542W        W85750   3.368  33.472  14.514
21543W        W85751  10.348  34.615   0.842
21544W        W85752  35.943   8.394  13.509
21545W        W85753  24.094   1.898  14.770
21546W        W85754   2.753  41.418  12.447
21547W        W85755  44.009  34.084  13.517
21548W        W85756  43.320  28.593   2.820
21549W        W85757   7.367  43.311   1.338
21550W        W85758   3.790   5.380   0.364
21551W        W85759  30.107  23.594  10.985
21552W        W85760  44.359  26.201  10.888
21553W        W85761  10.151   3.274   3.711
21554W        W85762   9.378  44.352   1.223
21555W        W85763  31.413  42.791  13.387
21556W        W85764  20.627  26.582   2.414
21557W        W85765  42.007  12.692   3.849
21558W        W85766  35.092  25.476  12.959
21559W        W85767  26.992  22.136  11.990
21560W        W85768  33.619  39.857   3.797
21561W        W85769   0.327   0.854  12.034
21562W        W85770  21.539  18.743   3.792
21563W        W85771   7.277   4.442  13.848
21564W        W85772  37.528  44.787   1.851
21565W        W85773   8.373  16.632   2.803
21566W        W85774  31.058   6.318   3.206
21567W        W85775  25.065  18.185  13.058
21568W        W85776   3.880  44.801  11.975
21569W        W85777  23.650  23.202   4.814
21570W        W85778  38.507  32.601  12.420
21571W        W85779  23.022  10.670  13.986
21572W        W85780  33.072   3.227   1.290
21573W        W85781   7.307  23.224  11.523
21574W        W85782  33.081  20.630   3.204
21575W        W85783  42.334  35.084  10.458
21576W        W85784  10.318  21.181  13.391
21577W        W85785  23.554  44.909   2.755
21578W        W85786  33.603   0.273   2.254
21579W        W85787  26.107  39.535   2.264
21580W        W85788  38.955  36.890   1.851
21581W        W85789   2.412   6.788   3.317
21582W        W85790  34.113  32.541   4.235
21583W        W85791  20.529   0.360  10.449
21584W        W85792   0.281  29.055   1.723
21585W        W85793  40.472  40.512  12.089
21586W        W85794   5.814  25.171  14.979
21587W        W85795  30.985  38.964  13.342
21588W        W85796  17.663  44.418  13.333
21589W        W85797  17.776  40.033   5.254
21590W        W85798   0.894  15.182   2.782
21591W        W85799  25.070  40.437   1.315
21592W        W85800   6.413  30.047   0.733
21593W        W85801  40.473  39.015   5.296
21594W        W85802  13.147  39.854  11.972
21595W        W85803  29.639  14.331  14.294
21596W        W85804  33.570  18.670   1.286
21597W        W85805  39.012   5.286  13.420
21598W        W85806  30.636  15.212   3.662
21599W        W85807   8.893   1.269  10.592
21600W        W85808  12.165  36.516  10.626
21601W        W85809  44.339  18.674  10.424
21602W        W85810  20.205  16.104  12.372
21603W        W85811  32.069  42.372  13.802
21604W        W85812  22.248  42.321   2.827
21605W        W85813  34.502  11.301   0.421
21606W        W85814  31.482  14.726   2.318
21607W        W85815  21.079  35.370   1.794
21608W        W85816  32.466  41.303   0.802
21609W        W85817  10.184   5.341  12.514
21610W        W85818  23.539  21.593  10.966
21611W        W85819  22.622  24.543   1.869
21612W        W85820   0.280  34.003   2.671
21613W        W85821   4.777   1.849  12.949
21614W        W85822  38.565  34.572   4.211
21615W        W85823  16.168  36.492  11.408
21616W        W85824  27.087  29.110  14.869
21617W        W85825   2.882   9.344   1.830
21618W        W85826  29.052  42.518   4.656
21619W        W85827   4.825  28.470  11.554
21620W        W85828  18.679  22.747  13.802
21621W        W85829  10.292  29.438  14.321
21622W        W85830  11.170   6.884  14.836
21623W        W85831  22.196  42.481  11.116
21624W        W85832  26.991   6.295   2.863
21625W        W85833  31.143  16.686   5.737
21626W        W85834  33.005   0.826   1.860
21627W        W85835  18.547  35.057  13.998
21628W        W85836   0.936  25.102  14.985
21629W        W85837  25.160  15.149   4.155
21630W        W85838  40.318  20.597   0.478
21631W        W85839  13.641   5.790  11.596
21632W        W85840   6.245  21.112  13.988
21633W        W85841  42.814  23.010  10.420
21634W        W85842  36.083  37.878  10.913
21635W        W85843  27.099  12.260  12.527
21636W        W85844  40.823  22.131  12.388
21637W        W85845  23.614  32.924  13.444
21638W        W85846  11.369  27.663   3.784
21639W        W85847  31.091  19.536  10.930
21640W        W85848   1.886  18.271  13.010
21641W        W85849  44.929  15.784   9.940
21642W        W85850  28.491   0.788   0.774
21643W        W85851  19.242  35.422  13.881
21644W        W85852  23.165  38.335  12.000
21645W        W85853  15.254  22.201  12.057
21646W        W85854  41.985  19.273   1.793
21647W        W85855  21.565   9.326  11.910
21648W        W85856  36.039   8.779   1.303
21649W        W85857  37.892  11.145  10.484
21650W        W85858  29.453  35.407  13.540
21651W        W85859  25.019  39.502  12.891
21652W        W85860  15.735  21.113  11.898
21653W        W85861  41.518  22.557  12.998
21654W        W85862  30.508  34.049   1.299
21655W        W85863  31.138  28.943  10.622
21656W        W85864  39.536   3.302   1.743
21657W        W85865   2.363  32.458  13.948
21658W        W85866  42.981  13.270   5.190
21659W        W85867  42.843   3.445  10.642
21660W        W85868  12.759  21.661  10.891
21661W        W85869   5.834  38.439  10.940
21662W        W85870  10.873  37.971  13.355
21663W        W85871  35.863  15.609  12.942
21664W        W85872   1.782  13.633   0.945
21665W        W85873  19.650  36.905   3.672
21666W        W85874  19.550  31.498  13.791
21667W        W85875  22.665  34.977   3.193
21668W        W85876   3.868  32.558  10.634
21669W        W85877   3.756  11.181  11.460
21670W        W85878  25.581  10.301   3.285
21671W        W85879  39.472  38.037   2.704
21672W        W85880   7.738  21.735   3.785
21673W        W85881   8.785  26.000   1.887
21674W        W85882  40.455  13.683   4.343
21675W        W85883  23.228   8.402   4.809
21676W        W85884  38.058  39.538   1.316
21677W        W85885  20.722  16.785  11.074
21678W        W85886  42.308  22.715  12.507
21679W        W85887  22.248  31.633   4.200
21680W        W85888  27.688  44.886   0.729
21681W        W85889  18.214  36.443   1.910
21682W        W85890  16.756  42.907  10.987
21683W        W85891  37.559  38.871   4.283
21684W        W85892  44.393  10.257   1.732
21685W        W85893  10.834   7.806  14.933
21686W        W85894   3.264  10.275  13.319
21687W        W85895   4.328  15.120   3.334
21688W        W85896  14.127  10.333  10.466
21689W        W85897   6.707   0.958   0.961
21690W        W85898  18.767  15.084   2.401
21691W        W85899  11.370   8.352  13.802
21692W        W85900  43.881   5.423   3.167
21693W        W85901   7.370   4.358  13.046
21694W        W85902  23.578   0.376   3.180
21695W        W85903  15.194  39.524   9.559
21696W        W85904  43.328  32.947   3.835
21697W        W85905  13.626  19.163  13.884
21698W        W85906  30.094  38.368   0.807
21699W        W85907   4.756  32.519   0.251
21700W        W85908  37.559   7.866   1.359
21701W        W85909  29.944   6.830   0.336
21702W        W85910   9.371  31.105   3.632
21703W        W85911  43.446  36.538   9.531
21704W        W85912   5.913   2.304   3.785
21705W        W85913  19.702   3.234  13.911
21706W        W85914  43.893  37.361   9.588
21707W        W85915  11.734  34.433   5.092
21708W        W85916   7.226  14.242  13.937
21709W        W85917  14.686   3.234   3.834
21710W        W85918  23.087   5.419  11.931
21711W        W85919  43.959  36.359  10.962
21712W        W85920  16.278  16.656   1.742
21713W        W85921   9.210  30.471  11.924
21714W        W85922  20.642   1.843   0.900
21715W        W85923  22.725   1.872   1.392
21716W        W85924  38.407  29.508   4.768
21717W        W85925  40.002  20.203  10.100
21718W        W85926   0.782  28.045  12.054
21719W        W85927  23.531   8.820   1.394
21720W        W85928  11.813   7.887  14.334
21721W        W85929  28.603   5.290  10.894
21722W        W85930  22.138  27.536  13.916
21723W        W85931  17.132   3.923   0.328
21724W        W85932  35.404  38.995  11.934
21725W        W85933  33.571  17.284  12.976
21726W        W85934  33.469   2.386   1.879
21727W        W85935   5.293  40.338  10.573
21728W        W85936   4.268   3.837  14.821
21729W        W85937  24.173  22.540   3.348
21730W        W85938  15.683   3.289   9.979
21731W        W85939   1.434  10.746  10.576
21732W        W85940   8.186   8.877  12.945
21733W        W85941  16.743  21.248  12.361
21734W        W85942  44.337   9.283   0.474
21735W        W85943   6.274  31.022   4.310
21736W        W85944   6.892   4.870  13.984
21737W        W85945  16.251  22.141  13.824
21738W        W85946  40.416  10.253   4.219
21739W        W85947  27.512  22.170  14.510
21740W        W85948  21.226   3.346  13.799
21741W        W85949  33.077   4.746  14.846
21742W        W85950   0.368   6.796   3.725
21743W        W85951  33.060  30.970   4.757
21744W        W85952  23.663   9.348   2.767
21745W        W85953  32.953   4.273  12.340
21746W        W85954  22.509  34.467   3.825
21747W        W85955   4.410  14.174  10.974
21748W        W85956   6.842   7.229   4.138
21749W        W85957  14.789  31.566  10.952
21750W        W85958  16.257  33.909  14.877
21751W        W85959  10.718  33.080   4.139
21752W        W85960  16.128  34.482  13.486
21753W        W85961  11.180  27.110   2.406
21754W        W85962  27.149   4.432   4.257
21755W        W85963  21.596   6.863   3.634
21756W        W85964  13.842   4.897  11.464
21757W        W85965  15.727   1.478   0.960
21758W        W85966  32.599  38.003   3.767
21759W        W85967  19.237   2.288  13.043
21760W        W85968   8.247   4.920   2.671
21761W        W85969  42.875  31.925  13.377
21762W        W85970   1.238  21.575   4.127
21763W        W85971   4.862   4.872   2.874
21764W        W85972  24.213  17.147   3.741
21765W        W85973  31.588  35.388  11.459
21766W        W85974  30.060   8.779   4.336
21767W        W85975  44.304   0.367   4.645
21768W        W85976  39.904  34.486  14.492
21769W        W85977   8.709  42.340  11.384
21770W        W85978  24.084   2.884  13.851
21771W        W85979   1.971  15.765  11.975
21772W        W85980  38.410   7.851   0.812
21773W        W85981  22.572  43.457   4.150
21774W        W85982  25.613  28.679  14.812
21775W        W85983  32.605  28.169  13.822
21776W        W85984  15.147  44.797   2.417
21777W        W85985  15.110  36.368  13.498
21778W        W85986  10.691  13.826  14.913
21779W        W85987  34.945  15.820   5.125
21780W        W85988  16.287   1.743   1.322
21781W        W85989   7.834  23.638  11.585
21782W        W85990  33.461  16.073   5.187
21783W        W85991  27.469   1.888  13.334
21784W        W85992  37.442  18.060  12.867
21785W        W85993   4.253  38.017   3.228
21786W        W85994  13.341  44.785  14.373
21787W        W85995  29.650  34.948  12.839
21788W        W85996  31.069   6.371   4.328
21789W        W85997   8.828  22.185  14.281
21790W        W85998  18.547  28.934  13.523
21791W        W85999  30.147  14.654   1.793
21792W        W86000  17.686  29.654  14.500
21793W        W86001  43.393  29.987   1.376
21794W        W86002  18.123  43.441   2.880
21795W        W86003  21.193  38.478   1.869
21796W        W86004   0.950  37.478  12.037
21797W        W86005  17.677  34.999  14.905
21798W        W86006   3.216  10.674  13.417
21799W        W86007  22.518  35.974  11.044
21800W        W86008   5.197   9.157  11.991
21801W        W86009  38.967  28.566   0.455
21802W        W86010  35.021  14.692  14.289
21803W        W86011  26.562   0.375   4.676
21804W        W86012  20.683  32.937  12.478
21805W        W86013   1.405  17.063   3.666
21806W        W86014  18.552  40.427   0.342
21807W        W86015  36.579   4.290  13.487
21808W        W86016  18.264   9.186   0.829
21809W        W86017  14.222  28.560  11.928
21810W        W86018  11.776  11.794  14.364
21811W        W86019  28.162  28.122   5.248
21812W        W86020  43.464  26.566   1.405
21813W        W86021  29.019  40.810  11.032
21814W        W86022  35.048   6.746   3.767
21815W        W86023  26.537   5.787  12.959
21816W        W86024  41.950  27.519   0.747
21817W        W86025  41.003  44.278  10.406
21818W        W86026   9.289   1.841  14.977
21819W        W86027   7.812   3.396  14.941
21820W        W86028  39.825  21.219   2.898
21821W        W86029  26.189  20.656   3.679
21822W        W86030   4.436   6.349  13.324
21823W        W86031  43.816  41.538   2.222
21824W        W86032  36.374   4.945  10.971
21825W        W86033  34.483  28.494  12.500
21826W        W86034  21.615  35.866  11.864
21827W        W86035  22.564  21.254  11.900
21828W        W86036   2.415  28.945   2.663
21829W        W86037  12.660   5.771  13.960
21830W        W86038  43.285  42.943   2.732
21831W        W86039   9.772  23.682  14.340
21832W        W86040   3.420  38.534   1.710
21833W        W86041   0.376   4.794  12.913
21834W        W86042  18.685   6.693   4.309
21835W        W86043  43.402   1.305  14.340
21836W        W86044   8.686   2.380  14.935
21837W        W86045  23.087   1.806   3.667
21838W        W86046  34.972  27.188  11.006
21839W        W86047  11.351  20.719   1.448
21840W        W86048  30.605  41.523  13.026
21841W        W86049  10.185  42.998  11.575
21842W        W86050  10.339  11.230   0.307
21843W        W86051  41.370  26.669   2.283
21844W        W86052  12.749  17.270   1.355
21845W        W86053  30.013  43.380   2.867
21846W        W86054  38.508  24.122   0.938
21847W        W86055  32.602   8.314  14.365
21848W        W86056  26.604  32.923  14.884
21849W        W86057  19.138  20.129   2.407
21850W        W86058  24.077  27.528   0.331
21851W        W86059  34.504   6.415  14.994
21852W        W86060  15.216  22.022   0.886
21853W        W86061  31.054   1.242  10.407
21854W        W86062  41.876  19.593  11.085
21855W        W86063   5.824  34.896   2.709
21856W        W86064  31.934  42.909   0.776
21857W        W86065  31.026  15.744   1.846
21858W        W86066   9.237  10.348  14.858
21859W        W86067  41.495   3.328  13.449
21860W        W86068   5.783   9.211   1.295
21861W        W86069  41.997   3.845   5.219
21862W        W86070  12.833  31.469   1.840
21863W        W86071  36.042  20.075   3.740
21864W        W86072  20.234   7.737   1.274
21865W        W86073   4.222  35.526  12.570
21866W        W86074  25.604  21.081  12.834
21867W        W86075  25.709  12.783  12.847
21868W        W86076  22.635  19.242  10.489
21869W        W86077  44.875  38.943  10.563
21870W        W86078  15.749  21.654  10.973
21871W        W86079  38.981  13.604   2.843
21872W        W86080  43.890  13.222  13.462
21873W        W86081  37.463   3.252   5.132
21874W        W86082  18.125   7.344  14.826
21875W        W86083  24.581   0.320  11.372
21876W        W86084  43.383   7.369  11.481
21877W        W86085  24.683  22.164   2.797
21878W        W86086  31.425  36.497  13.984
21879W        W86087  23.087  31.627   0.304
21880W        W86088  27.522  14.770   2.408
21881W        W86089   0.462   8.825  13.859
21882W        W86090  24.135  32.936   1.925
21883W        W86091  12.736  24.722  10.471
21884W        W86092  14.327   5.712  14.853
21885W        W86093  39.445  24.484   2.720
21886W        W86094  16.151  15.794   2.809
21887W        W86095  43.312  15.171  11.980
21888W        W86096  35.478   5.934   0.404
21889W        W86097   2.230  34.527  11.425
21890W        W86098  24.602   3.724  11.873
21891W        W86099  10.683  23.654  11.518
21892W        W86100  21.174  31.125  10.948
21893W        W86101   7.769  14.219   3.785
21894W        W86102  19.158  20.552  11.549
21895W        W86103  30.149  20.149  12.041
21896W        W86104  21.088   1.429  12.377
21897W        W86105   3.426   6.199   2.197
21898W        W86106  20.597   5.813  12.577
21899W        W86107   7.271  27.459   2.898
21900W        W86108  35.993  38.539   0.321
21901W        W86109  19.552  12.190   4.320
21902W        W86110   5.226  12.294   2.797
21903W        W86111   5.209   1.788   0.749
21904W        W86112   7.322  16.727   3.301
21905W        W86113   9.357   1.399   4.743
21906W        W86114   5.891  12.671  10.595
21907W        W86115  36.493  27.561  13.399
21908W        W86116  13.707  27.484  12.539
21909W        W86117  11.814  44.330   5.233
21910W        W86118  38.019  35.374  10.422
21911W        W86119  18.281  28.679  14.761
21912W        W86120   1.333   5.405  12.017
21913W        W86121  41.380  31.411  11.478
21914W        W86122  32.994  40.007  12.860
21915W        W86123  44.499  29.451  10.583
21916W        W86124  40.018  21.702   4.644
21917W        W86125  39.913  30.925   3.335
21918W        W86126  10.305   4.705   2.228
21919W        W86127  33.493  26.979   1.340
21920W        W86128  12.188  10.674  11.560
21921W        W86129   2.858  14.307   2.712
21922W        W86130   9.380  16.256  14.494
21923W        W86131  12.342  25.608   4.658
21924W        W86132  40.543  12.838  13.047
21925W        W86133  32.100  36.470  14.965
21926W        W86134   8.765   6.698  12.539
21927W        W86135  39.410  22.612  11.388
21928W        W86136   8.190  29.581   4.328
21929W        W86137  11.762  31.920   1.213
21930W        W86138  19.188  26.516  11.906
21931W        W86139  15.268   5.847  12.351
21932W        W86140  29.561  42.883  14.786
21933W        W86141  40.405  16.720   3.866
21934W        W86142   1.326  23.546  10.990
21935W        W86143  34.915  19.707  14.331
21936W        W86144  16.803  37.420   0.799
21937W        W86145  38.425  42.019  10.915
21938W        W86146   1.772  36.346  11.983
21939W        W86147  18.055  15.184   4.620
21940W        W86148  27.174  24.137   2.350
21941W        W86149  10.296   7.341   2.819
21942W        W86150  25.485  22.149   3.156
21943W        W86151  24.186  15.680  10.560
21944W        W86152   6.840  24.027  13.357
21945W        W86153   1.258  43.348  13.375
21946W        W86154  33.495  24.603  14.803
21947W        W86155  44.836   9.789   0.936
21948W        W86156   0.760  23.626  10.502
21949W        W86157  14.323   7.772   4.306
21950W        W86158  23.205  27.951   0.344
21951W        W86159  40.906   8.721  11.990
21952W        W86160  30.448  16.642   0.830
21953W        W86161  40.540  37.985  10.943
21954W        W86162  33.132   8.292  13.919
21955W        W86163  13.808  35.577  12.896
21956W        W86164  43.991   2.936  11.070
21957W        W86165  17.109  33.990  12.560
21958W        W86166  29.148  38.452  14.317
21959W        W86167   6.337  42.371   3.326
21960W        W86168  35.951   4.811   3.376
21961W        W86169   8.405  13.177   3.361
21962W        W86170  43.422  43.895   3.210
21963W        W86171  43.334  25.684  11.091
21964W        W86172  41.886   0.472  13.043
21965W        W86173  28.073  14.823  12.883
21966W        W86174  44.892  13.310   3.840
21967W        W86175  15.669  18.280  12.548
21968W        W86176   0.354  32.404   1.903
21969W        W86177  18.588  28.132   3.190
21970W        W86178   4.396  10.840  12.344
21971W        W86179  22.059  43.496   1.367
21972W        W86180   4.878  20.065   0.954
21973W        W86181  11.183   0.921  14.876
21974W        W86182  20.188  31.924   1.307
21975W        W86183  41.813  28.109  14.400
21976W        W86184  44.964  44.858  13.815
21977W        W86185  30.547   0.266  13.999
21978W        W86186  23.115  28.444   0.268
21979W        W86187   2.303  33.109   2.676
21980W        W86188  27.617  11.803   1.284
21981W        W86189   2.452  24.147   4.256
21982W        W86190   3.869  14.778  12.901
21983W        W86191  28.614  38.456   0.246
21984W        W86192  24.053  38.999   4.704
21985W        W86193  24.713   8.178  12.993
21986W        W86194  22.588  15.187  12.475
21987W        W86195  18.111  35.074   4.747
21988W        W86196  11.309  11.774  10.534
21989W        W86197   8.664   6.922   1.320
21990W        W86198  28.680  43.299  11.908
21991W        W86199  40.460   2.309  11.502
21992W        W86200  27.049  20.187   0.937
21993W        W86201   1.787  42.460  12.063
21994W        W86202   2.472  10.689   3.279
21995W        W86203  33.445   2.849  11.533
21996W        W86204   0.489  33.907   2.300
21997W        W86205  38.505  29.055  13.041
21998W        W86206  36.434  28.938   0.431
21999W        W86207  19.266  27.040   0.828
22000W        W86208  20.132  18.097  12.060
22001W        W86209  40.467   1.254   1.717
22002W        W86210  12.664  22.672   4.309
22003W        W86211  22.999  32.494   4.820
22004W        W86212  21.106  19.614   4.122
22005W        W86213   7.762  13.758   3.327
22006W        W86214   7.854  29.968   3.742
22007W        W86215  40.896  12.254  12.845
22008W        W86216  44.492  43.484   4.197
22009W        W86217   6.428  40.898   2.224
22010W        W86218   2.964  28.158  11.424
22011W        W86219  21.038  31.591  12.072
22012W        W86220   2.940  15.732  10.634
22013W        W86221  39.028  10.716  13.971
22014W        W86222  27.517  22.714  13.874
22015W        W86223  17.240   9.367   2.807
22016W        W86224   3.259  13.636   4.692
22017W        W86225  43.328  24.607  14.973
22018W        W86226  29.624  37.400  12.907
22019W        W86227  43.810  17.606  10.940
22020W        W86228  38.360  12.685  11.449
22021W        W86229   3.845  19.778  13.436
22022W        W86230  31.451  30.947  10.938
22023W        W86231   4.400  10.320   0.822
22024W        W86232  26.640  35.384   1.270
22025W        W86233  20.131  26.059  10.433
22026W        W86234  15.189  32.980   0.920
22027W        W86235  27.590  26.080  12.865
22028W        W86236  27.692  42.814  14.488
22029W        W86237  26.685  20.129  12.520
22030W        W86238  15.237  33.575  14.922
22031W        W86239  11.801   6.296  11.545
22032W        W86240  29.918  15.118   1.791
22033W        W86241  33.601  20.212  14.824
22034W        W86242  30.045  16.725   1.308
22035W        W86243  23.049  26.089  11.572
22036W        W86244  38.443  22.144   3.253
22037W        W86245  18.710  36.537   1.334
22038W        W86246  37.851  35.519   0.816
22039W        W86247  42.921  15.599  13.340
22040W        W86248  34.468  39.942   1.278
22041W        W86249  15.818  40.849  11.600
22042W        W86250  20.607  40.988   4.291
22043W        W86251  19.064   0.368  13.817
22044W        W86252  37.448  25.671   2.388
22045W        W86253  27.673   6.831   1.748
22046W        W86254   2.746  10.383  14.341
22047W        W86255  15.241  33.510  11.502
22048W        W86256  19.656  17.139  11.865
22049W        W86257  23.564  16.702   1.426
22050W        W86258  33.118  22.558   4.839
22051W        W86259  33.599   7.368   0.253
22052W        W86260  11.772  34.595  13.330
22053W        W86261   7.293  38.370   0.726
22054W        W86262  26.467  26.608   1.294
22055W        W86263   2.288  17.656   0.962
22056W        W86264  25.148  15.629  14.956
22057W        W86265  40.307  37.455  14.805
22058W        W86266  10.204   0.822   0.263
22059W        W86267   1.294  22.059  11.554
22060W        W86268   5.201  32.420  13.878
22061W        W86269   7.237  38.035  11.037
22062W        W86270   7.289  10.874  12.973
22063W        W86271  14.337  10.682  10.586
22064W        W86272  43.864  19.158  14.376
22065W        W86273  44.326  30.073   2.409
22066W        W86274  13.714  27.605   0.374
22067W        W86275  42.974   9.881  13.414
22068W        W86276  37.345  20.708  13.516
22069W        W86277  18.701   9.703  12.345
22070W        W86278  36.992  41.304  14.795
22071W        W86279   0.412  28.153   1.896
22072W        W86280  23.218  25.059  14.429
22073W        W86281   9.768  39.934  14.803
22074W        W86282  42.836  29.487  12.005
22075W        W86283  22.068  40.345  10.495
22076W        W86284  42.320   4.399   0.273
22077W        W86285   6.882   9.209   1.439
22078W        W86286  16.141  28.112   4.299
22079W        W86287  11.170  24.986  10.964
22080W        W86288  18.061  15.092  11.092
22081W        W86289  33.989   6.834   1.234
22082W        W86290  35.434  36.360   1.872
22083W        W86291  23.234  40.838   2.308
22084W        W86292  22.124   8.817   2.192
22085W        W86293  33.117   4.423  11.402
22086W        W86294  15.753  31.980   3.322
22087W        W86295  20.720   1.968   3.192
22088W        W86296  10.184  17.713   1.252
22089W        W86297  17.293  34.005  10.566
22090W        W86298  27.156  17.579   0.838
22091W        W86299  32.542  11.754   0.828
22092W        W86300  31.498  31.520   4.119
22093W        W86301   5.695   0.319  12.422
22094W        W86302  36.379  39.907  12.556
22095W        W86303  26.557  43.387   0.297
22096W        W86304  26.702   3.728  14.995
22097W        W86305  38.413  44.851  12.393
22098W        W86306  31.901  42.972  10.533
22099W        W86307  32.067  14.131   3.799
22100W        W86308  18.218  26.021  10.414
22101W        W86309   6.252   6.220   1.355
22102W        W86310  22.702  15.329  13.474
22103W        W86311   3.314   9.822  11.496
22104W        W86312   0.858  14.754   4.612
22105W        W86313  32.132   3.403  11.532
22106W        W86314  21.632  34.938  11.907
22107W        W86315  44.318  39.847   0.783
22108W        W86316  18.611  31.584   4.633
22109W        W86317  29.625   8.181   3.741
22110W        W86318  16.171  36.021  13.875
22111W        W86319  25.115  40.379   5.140
22112W        W86320  32.897   2.377   0.733
22113W        W86321  39.368  36.560  13.307
22114W        W86322  22.246   6.362   1.865
22115W        W86323  37.957  14.315   2.755
22116W        W86324  40.929  38.342   1.372
22117W        W86325   0.422  29.099  14.926
22118W        W86326  13.324   1.366  10.541
22119W        W86327   8.830   2.446   3.631
22120W        W86328  10.211  39.829   0.296
22121W        W86329  19.110  32.119   0.895
22122W        W86330  34.980  19.257  14.443
22123W        W86331  27.622  15.651   3.802
22124W        W86332  38.439   3.282  14.458
22125W        W86333  20.114  31.587  10.983
22126W        W86334  18.092  21.173   3.798
22127W        W86335  13.811  35.105   4.731
22128W        W86336   1.747  24.528  12.395
22129W        W86337  39.982  27.033   1.368
22130W        W86338  28.135  40.812  13.533
22131W        W86339  26.596   3.911   1.935
22132W        W86340   4.813   0.904  10.567
22133W        W86341  43.931  19.177   2.184
22134W        W86342   3.844   4.432  10.977
22135W        W86343  33.457   2.745  13.815
22136W        W86344  22.227  34.888   3.262
22137W        W86345  30.638  33.602   0.775
22138W        W86346  29.566  20.611  11.960
22139W        W86347  17.219   5.821   0.255
22140W        W86348   1.423   2.235   0.324
22141W        W86349  18.110   8.305   0.900
22142W        W86350  25.105  17.281   0.308
22143W        W86351  40.849  20.269   5.206
22144W        W86352  28.652  30.143  11.973
22145W        W86353  18.138  22.598   4.313
22146W        W86354  33.091  35.376  11.864
22147W        W86355  20.751  12.245  14.469
22148W        W86356  18.588  34.373  12.426
22149W        W86357  38.531   9.373   4.791
22150W        W86358   0.330  37.453  11.010
22151W        W86359   8.377  29.094   4.153
22152W        W86360  20.246   8.173   1.409
22153W        W86361  23.618  38.985   1.747
22154W        W86362  12.311  35.864  14.444
22155W        W86363   8.342  23.222  14.788
22156W        W86364  14.831  18.127  12.095
22157W        W86365  41.958  27.149  11.458
22158W        W86366  20.064  36.585   4.317
22159W        W86367  38.356  23.584  10.951
22160W        W86368  30.498  12.123  14.869
22161W        W86369  19.284  13.774  10.911
22162W        W86370  36.063  40.439  10.967
22163W        W86371  24.534   4.863   0.868
22164W        W86372  20.641  33.562  14.379
22165W        W86373  38.009  35.931   4.196
22166W        W86374  39.440   8.295   0.256
22167W        W86375  30.480   0.755   3.655
22168W        W86376  29.106  13.322  11.421
22169W        W86377  34.039  11.369  10.605
22170W        W86378  32.890   0.348   1.291
22171W        W86379  10.642  17.585   1.733
22172W        W86380  17.651  41.422  14.331
22173W        W86381   4.348   9.820   0.383
22174W        W86382   0.477  20.039  10.445
22175W        W86383   8.755  12.815  12.964
22176W        W86384  39.339  35.029  12.059
22177W        W86385  17.066   4.225  14.964
22178W        W86386   8.298  35.959  12.468
22179W        W86387  28.091  39.318   2.731
22180W        W86388   8.736  21.619  14.394
22181W        W86389  11.159  36.844   0.801
22182W        W86390  40.897   0.264   3.823
22183W        W86391  21.600  36.014   0.387
22184W        W86392  44.960  42.299   2.713
22185W        W86393   9.369  16.155  11.897
22186W        W86394  25.051  39.431   2.187
22187W        W86395  10.198  36.970   4.141
22188W        W86396   1.294  15.133   4.194
22189W        W86397  34.439  10.771  11.587
22190W        W86398  42.929  43.788  14.780
22191W        W86399  11.833  24.582  14.008
22192W        W86400  37.449   8.870   4.779
22193W        W86401  16.597  28.663  13.802
22194W        W86402  41.528  27.679   1.878
22195W        W86403  39.540  26.961   2.342
22196W        W86404  33.983  15.230  14.934
22197W        W86405  26.576  15.683  13.439
22198W        W86406  17.169  38.497  11.556
22199W        W86407  21.182  30.123  13.498
22200W        W86408  15.197   3.759   2.193
22201W        W86409  40.021   9.226   2.769
22202W        W86410   2.894  31.647  13.419
22203W        W86411  14.150  33.027  12.421
22204W        W86412  12.675  32.120  14.798
22205W        W86413  21.655  27.511  11.498
22206W        W86414  34.467  35.481   1.232
22207W        W86415  26.151  17.721   1.382
22208W        W86416  30.631  27.971   1.699
22209W        W86417  17.284  43.825  11.504
22210W        W86418  30.919  15.262   3.862
22211W        W86419  11.157   8.740   4.734
22212W        W86420   6.185  11.141   1.314
22213W        W86421  21.243  20.694   3.850
22214W        W86422  27.994  23.672  14.299
22215W        W86423  35.459  19.230   4.233
22216W        W86424  26.145  39.057   0.760
22217W        W86425  23.109   1.758   1.909
22218W        W86426  10.751   9.751   0.362
22219W        W86427  39.996   5.318  14.485
22220W        W86428   0.314   9.733  12.504
22221W        W86429  17.626  17.615  14.980
22222W        W86430  20.079  12.829   4.237
22223W        W86431  29.635  36.934   0.345
22224W        W86432  11.365  19.603  13.885
22225W        W86433  31.487   2.933  10.593
22226W        W86434  14.650  33.492  14.452
22227W        W86435  44.994  14.169  14.880
22228W        W86436  40.402  11.157   1.862
22229W        W86437  22.166  10.722  13.332
22230W        W86438  17.199  34.956   4.292
22231W        W86439  26.462  23.565  10.934
22232W        W86440  22.656  34.595   2.877
22233W        W86441  31.094  10.349  13.524
22234W        W86442   3.225  17.194  13.401
22235W        W86443  42.444  18.757   0.356
22236W        W86444  30.537  12.126   1.379
22237W        W86445  28.962  16.799   3.270
22238W        W86446   7.844  27.480  13.516
22239W        W86447  13.730   5.841  12.449
22240W        W86448  36.530  34.526   3.740
22241W        W86449  38.979  35.549   1.851
22242W        W86450   4.939  41.791   4.616
22243W        W86451  34.457  39.004   0.467
22244W        W86452  21.625  17.087  11.483
22245W        W86453  13.832  35.459  13.961
22246W        W86454  27.940   3.448   4.123
22247W        W86455   3.292  28.545   1.432
22248W        W86456  23.017  36.908  14.962
22249W        W86457  22.088  14.618  11.911
22250W        W86458  39.025  35.067   3.682
22251W        W86459  33.430  43.341  11.115
22252W        W86460  25.982  23.682   4.816
22253W        W86461  32.563   0.915  10.967
22254W        W86462  36.452   9.343   2.304
22255W        W86463  39.942  42.991   4.619
22256W        W86464  25.686  41.351  12.432
22257W        W86465  38.413  12.845  12.997
22258W        W86466  21.150  36.873   2.208
22259W        W86467   7.900  30.471  11.472
22260W        W86468  23.628  35.367  13.370
22261W        W86469  25.608  33.469   3.196
22262W        W86470  40.038  16.803  14.780
22263W        W86471   6.389  22.032  12.825
22264W        W86472  30.617  27.115   0.360
22265W        W86473   4.364  40.042  12.527
22266W        W86474   5.286  43.771   3.674
22267W        W86475   4.266  41.322  14.340
22268W        W86476  31.968   3.914   3.786
22269W        W86477  11.296  43.816   1.443
22270W        W86478  25.172  11.658  12.033
22271W        W86479  11.658  41.942  10.908
22272W        W86480  33.880  35.978   0.484
22273W        W86481   1.801  19.240   1.707
22274W        W86482  38.987   9.293   0.787
22275W        W86483  31.899  20.672   0.476
22276W        W86484  11.284  35.570  12.373
22277W        W86485  43.849  37.544  11.400
22278W        W86486  23.689  28.447  13.904
22279W        W86487  30.420   7.765   1.749
22280W        W86488  17.662  14.157  10.896
22281W        W86489  38.835  29.124   2.717
22282W        W86490  26.583   3.945   4.727
22283W        W86491   5.910  37.084  11.416
22284W        W86492   4.860  18.130  11.911
22285W        W86493  14.763   1.458   0.728
22286W        W86494   7.297  37.421  13.324
22287W        W86495  28.114  17.208   9.999
22288W        W86496  20.663   0.251   0.410
22289W        W86497   9.656  39.399  14.936
22290W        W86498   4.914  17.639  12.039
22291W        W86499  31.529  31.472   1.255
22292W        W86500  17.583  27.982  12.847
22293W        W86501  26.505  42.919  10.545
22294W        W86502  37.019   0.782   0.465
22295W        W86503   7.737  16.178  14.015
22296W        W86504  39.455  22.520   1.754
22297W        W86505  38.950  43.369  14.842
22298W        W86506  30.494  13.717   0.880
22299W        W86507  24.609   0.364   4.299
22300W        W86508   3.911  42.811  13.060
22301W        W86509  40.827   2.422  14.799
22302W        W86510  39.841  41.844   0.923
22303W        W86511   8.190  15.646   2.778
22304W        W86512  25.099   4.217   4.689
22305W        W86513  15.171  27.589  12.356
22306W        W86514  33.506  16.725   1.262
22307W        W86515   7.790  40.802  14.910
22308W        W86516   1.469  33.394  14.944
22309W        W86517  20.149   4.814  14.791
22310W        W86518  21.613  24.053   2.179
22311W        W86519  33.519  44.488  13.792
22312W        W86520  19.650   5.257   1.819
22313W        W86521  33.900  29.065   1.829
22314W        W86522  12.225  34.565   2.413
22315W        W86523  33.578  41.800  11.496
22316W        W86524  42.871  10.816  10.983
22317W        W86525  39.946  13.648   1.702
22318W        W86526  40.975  40.506   0.802
22319W        W86527  11.703  27.958   1.820
22320W        W86528  42.775  38.933  14.932
22321W        W86529  37.032  24.613   4.812
22322W        W86530   3.752  26.653   3.337
22323W        W86531  11.189   4.408  14.898
22324W        W86532  38.983  19.171   2.763
22325W        W86533  27.580  29.630   2.805
22326W        W86534  43.946  20.240  13.930
22327W        W86535  24.680   8.383  14.858
22328W        W86536  14.186  12.361   2.281
22329W        W86537  39.352  30.554   2.696
22330W        W86538  44.436  33.082   3.331
22331W        W86539  31.947  13.125   2.710
22332W        W86540   5.286   4.811  12.063
22333W        W86541   3.710  44.316  14.032
22334W        W86542  37.838  39.501   3.705
22335W        W86543  25.151  32.628  13.914
22336W        W86544  33.072  15.792  10.643
22337W        W86545  32.616   5.857   1.229
22338W        W86546   1.458  17.704   4.693
22339W        W86547  13.250  10.341  11.994
22340W        W86548  24.493  15.293   2.188
22341W        W86549  39.979  14.204  11.025
22342W        W86550  42.878  28.057   4.228
22343W        W86551  25.219  20.581   3.788
22344W        W86552   2.295  40.454   3.798
22345W        W86553  42.508  11.327  10.447
22346W        W86554   0.336  16.229  10.960
22347W        W86555  44.777   9.766  14.372
22348W        W86556  40.303  16.664  14.325
22349W        W86557  26.986   2.829   1.329
22350W        W86558  13.268  20.106  13.881
22351W        W86559   7.693  39.014  14.786
22352W        W86560  31.082  14.337   4.706
22353W        W86561   6.863  17.150  11.894
22354W        W86562  34.558  23.724  10.490
22355W        W86563  17.270  14.773  10.535
22356W        W86564  25.019  43.339  10.469
22357W        W86565   5.268  10.643  13.000
22358W        W86566   0.326  31.952   4.633
22359W        W86567   5.299  30.041  10.913
22360W        W86568   1.378  32.605  11.552
22361W        W86569  33.913   5.773  11.048
22362W        W86570   1.926  43.865   1.903
22363W        W86571  19.180  23.002   1.298
22364W        W86572  12.216  28.573   0.436
22365W        W86573  23.176  14.631  14.287
22366W        W86574  38.563   0.266  12.932
22367W        W86575  29.065  41.796  10.536
22368W        W86576   4.896  20.752  12.415
22369W        W86577  27.979  37.966  14.319
22370W        W86578  44.849  10.847   3.680
22371W        W86579  32.536  34.405   2.888
22372W        W86580  15.681   2.297   0.839
22373W        W86581  17.731  22.679  14.917
22374W        W86582  27.492  30.501  12.561
22375W        W86583  40.828  13.228   0.418
22376W        W86584  10.328   6.729   3.370
22377W        W86585  27.467  37.418   3.161
22378W        W86586  14.714  40.489  13.428
22379W        W86587  23.626  15.113   3.322
22380W        W86588  18.558  29.123   2.892
22381W        W86589  21.683   8.373  12.993
22382W        W86590  22.623  13.343  13.059
22383W        W86591  33.465  31.442  11.428
22384W        W86592  17.153  35.050   3.207
22385W        W86593   0.842  43.314  13.361
22386W        W86594  40.529   1.816  10.438
22387W        W86595  15.777  28.469  13.957
22388W        W86596  39.840  11.719  14.772
22389W        W86597   1.826  19.758  10.892
22390W        W86598  19.702  25.002   2.696
22391W        W86599  21.245  35.442  14.845
22392W        W86600  37.860  30.532   2.755
22393W        W86601  15.190  17.753  11.412
22394W        W86602  31.923   4.706  12.420
22395W        W86603  31.067  24.075   1.829
22396W        W86604  40.465  14.107  13.478
22397W        W86605  18.174  26.106   0.943
22398W        W86606   8.729   1.909   2.184
22399W        W86607  32.049  25.711   3.363
22400W        W86608  31.965  38.001  11.564
22401W        W86609  44.306  44.920  13.511
22402W        W86610  25.659  11.287  14.872
22403W        W86611   9.651  38.394  14.775
22404W        W86612  38.955  16.270  14.427
22405W        W86613  12.281  32.910   1.354
22406W        W86614  35.085  38.974   5.192
22407W        W86615  20.685  32.602   0.433
22408W        W86616  41.837  44.962  12.339
22409W        W86617   8.319  11.181   9.968
22410W        W86618  31.424   4.901   1.932
22411W        W86619  29.646   9.342  11.395
22412W        W86620  22.048   2.461   0.415
22413W        W86621   1.761  28.664   4.289
22414W        W86622  23.119  29.122  13.973
22415W        W86623  38.931  31.558   3.747
22416W        W86624  25.684  14.808   1.297
22417W        W86625  35.509  30.005  13.861
22418W        W86626  35.045  40.522   1.424
22419W        W86627  32.978  37.845  12.350
22420W        W86628  24.704  27.193  14.336
22421W        W86629   4.936   6.791  13.965
22422W        W86630   1.827   8.817  13.914
22423W        W86631  43.457  21.055   1.304
22424W        W86632  43.444   4.262  10.523
22425W        W86633  25.614  27.005   3.165
22426W        W86634  28.056  43.497   2.200
22427W        W86635   6.411  35.043  12.030
22428W        W86636  12.292  13.828   9.637
22429W        W86637  42.350   3.883  10.952
22430W        W86638  14.800  20.744   1.286
22431W        W86639  21.140  30.079   2.303
22432W        W86640  29.457  16.319   4.249
22433W        W86641  26.678  16.767  10.534
22434W        W86642   4.752  42.470   2.208
22435W        W86643  34.992  42.919   0.361
22436W        W86644   9.865   6.775  12.532
22437W        W86645   9.274  21.178   1.909
22438W        W86646  12.326  38.054   0.377
22439W        W86647  22.721  22.657  13.315
22440W        W86648  30.940  40.866   2.308
22441W        W86649  40.023  32.940  14.024
22442W        W86650  14.323   0.323   3.721
22443W        W86651  11.743  38.004   3.295
22444W        W86652  12.125  41.853   2.274
22445W        W86653  22.666  20.241   3.749
22446W        W86654  41.904  35.603  10.895
22447W        W86655  10.840  35.524  11.994
22448W        W86656  33.427  32.577   2.346
22449W        W86657  20.557  35.507   4.608
22450W        W86658  16.726   4.284  12.368
22451W        W86659  26.161  31.938   3.263
22452W        W86660  18.154   0.967  14.453
22453W        W86661  24.226  34.516   4.262
22454W        W86662  19.685  12.317   1.823
22455W        W86663  29.016   8.398   1.738
22456W        W86664  26.080  31.006   1.796
22457W        W86665   8.292  13.681   1.701
22458W        W86666   0.320   5.209  11.544
22459W        W86667   8.169  10.235  11.054
22460W        W86668  31.592  20.631  12.962
22461W        W86669  36.060  20.625  11.414
22462W        W86670  43.790   8.202  11.521
22463W        W86671  40.997  11.258  13.423
22464W        W86672  43.311  27.111  12.011
22465W        W86673  18.576  38.391  10.958
22466W        W86674  35.490  10.316   0.787
22467W        W86675  23.552   2.355  10.957
22468W        W86676  44.861  11.828  12.076
22469W        W86677  25.190  14.794  14.972
22470W        W86678   3.892  23.525   1.850
22471W        W86679  23.007  32.909  14.972
22472W        W86680  23.190  19.206   1.767
22473W        W86681  29.454   0.487   1.272
22474W        W86682   2.385   8.242   4.140
22475W        W86683  19.278  21.728   0.766
22476W        W86684  18.194  38.537   0.881
22477W        W86685   6.321  30.615   5.184
22478W        W86686  19.653  33.545   2.246
22479W        W86687  10.742  18.648  14.278
22480W        W86688  44.954  19.624  13.462
22481W        W86689  23.212  26.003  14.838
22482W        W86690  12.194  34.964   3.236
22483W        W86691  17.763  24.991   4.698
22484W        W86692  38.892  38.328   0.278
22485W        W86693  29.438  20.583  12.975
22486W        W86694  39.843  15.816   2.412
22487W        W86695  13.787   0.289  12.922
22488W        W86696  10.827  25.986  13.419
22489W        W86697  20.037  16.106   4.322
22490W        W86698  29.028  34.061  13.387
22491W        W86699  12.667  43.896  14.972
22492W        W86700  24.116   0.869  11.918
22493W        W86701   1.422  15.303   3.792
22494W        W86702   0.930  31.411   4.622
22495W        W86703  32.988  37.371  12.985
22496W        W86704  14.156  39.821   2.799
22497W        W86705  24.586  12.656  13.484
22498W        W86706  12.295  38.521   0.313
22499W        W86707   6.257   0.805   3.804
22500W        W86708  24.631  15.648   3.727
22501W        W86709  34.601   5.301   1.294
22502W        W86710  34.412  21.066  13.523
22503W        W86711   1.836  26.461   3.846
22504W        W86712  43.901  22.692  12.878
22505W        W86713   1.800  20.527  12.964
22506W        W86714  40.512  34.484   4.779
22507W        W86715  17.616  40.030  14.941
22508W        W86716  14.748   9.261   4.599
22509W        W86717  17.269  10.693   2.770
22510W        W86718  39.485   6.183  11.515
22511W        W86719  41.337  29.992  10.965
22512W        W86720  29.114  40.368   2.398
22513W        W86721  22.189  25.587  10.424
22514W        W86722  30.968   4.365  11.485
22515W        W86723  34.478  24.540  11.478
22516W        W86724  36.996   3.302  11.926
22517W        W86725  41.398  16.187   1.696
22518W        W86726  35.460  26.953   4.270
22519W        W86727  19.252  20.574   2.739
22520W        W86728  42.937  31.110  14.489
22521W        W86729  17.598  26.200   2.888
22522W        W86730  13.152  15.131  10.563
22523W        W86731  28.587   2.876   3.256
22524W        W86732   0.914  15.210   4.142
22525W        W86733  29.578  19.541  12.532
22526W        W86734  16.765  25.675  11.898
22527W        W86735   7.195  30.078   2.780
22528W        W86736  16.229  33.887  11.953
22529W        W86737  14.277  41.851   0.396
22530W        W86738   5.823   7.206   1.841
22531W        W86739  22.040  29.481  14.325
22532W        W86740  35.024   1.764   1.724
22533W        W86741  43.995  29.978  14.018
22534W        W86742  18.275  28.179   0.841
22535W        W86743  11.275  41.349   2.252
22536W        W86744  37.045   5.859  10.427
22537W        W86745  31.565  32.140  12.531
22538W        W86746  24.521  24.082  11.879
22539W        W86747  44.439  32.020   9.675
22540W        W86748  25.671  17.285   3.269
22541W        W86749  31.457  34.431  12.520
22542W        W86750  23.082  12.330  11.455
22543W        W86751  40.438  37.889   4.260
22544W        W86752  44.435  16.671   1.315
22545W        W86753  38.006  38.558   4.817
22546W        W86754  36.895  10.310  13.374
22547W        W86755  10.149  42.033   3.219
22548W        W86756  31.914  17.185   2.687
22549W        W86757  14.646  23.203   3.801
22550W        W86758  26.172  24.507   3.179
22551W        W86759  15.817  36.461   4.811
22552W        W86760  40.426  21.756   0.267
22553W        W86761  28.484  37.984   2.269
22554W        W86762   0.800  38.432   1.443
22555W        W86763  37.040   5.917  14.454
22556W        W86764  20.256  36.486  13.799
22557W        W86765  40.317  25.217  12.425
22558W        W86766  15.128  11.855   3.182
22559W        W86767   5.804  18.226   0.957
22560W        W86768  25.564  42.862  12.375
22561W        W86769  29.112  38.854  12.482
22562W        W86770  31.958  29.100   1.857
22563W        W86771  43.294   6.274  10.922
22564W        W86772  36.034  34.610  11.885
22565W        W86773  20.046  12.630  13.839
22566W        W86774  14.136  12.195  13.906
22567W        W86775  30.589  19.743  13.326
22568W        W86776  33.026  33.429  13.846
22569W        W86777  22.220   7.305   2.360
22570W        W86778  12.165  22.106  13.454
22571W        W86779   8.746  10.364  10.116
22572W        W86780  44.888   7.232   2.792
22573W        W86781  15.317  27.150  11.611
22574W        W86782  32.896  34.533   2.748
22575W        W86783  35.066  43.932   3.657
22576W        W86784  41.933  38.886   2.232
22577W        W86785  32.511   4.759  10.548
22578W        W86786   7.204  25.180   0.380
22579W        W86787  36.586  36.426  11.084
22580W        W86788   8.195   1.363  12.836
22581W        W86789   6.290  40.499  14.303
22582W        W86790  21.609  19.539   3.641
22583W        W86791  43.005  23.097  14.434
22584W        W86792  29.009  18.126  10.943
22585W        W86793  31.628  11.734  12.020
22586W        W86794  39.345  11.206  11.867
22587W        W86795  31.042  36.886   2.829
22588W        W86796  35.033   1.752  13.977
22589W        W86797  15.672   1.967   1.796
22590W        W86798  40.433  31.403  10.595
22591W        W86799  25.151   4.799  13.889
22592W        W86800  26.063  18.661   4.319
22593W        W86801  27.096  27.948  13.381
22594W        W86802   6.696  32.589  12.034
22595W        W86803  32.062  41.393   0.864
22596W        W86804  17.113  36.946  12.499
22597W        W86805  15.209  41.417   2.300
22598W        W86806  11.803  25.965   0.805
22599W        W86807   0.783  41.426   0.810
22600W        W86808  14.300  35.082   2.349
22601W        W86809   5.868  37.419  12.341
22602W        W86810  42.466  16.756   1.710
22603W        W86811  41.873  37.832   2.217
22604W        W86812  11.167  38.458   1.370
22605W        W86813  18.604   0.840   0.250
22606W        W86814   9.153   3.905  13.356
22607W        W86815  30.571   9.783   3.220
22608W        W86816  33.991  19.607  11.577
22609W        W86817  17.687  44.950   3.162
22610W        W86818   7.275  38.888  11.413
22611W        W86819  12.325  14.742   1.223
22612W        W86820  29.499  15.099  11.407
22613W        W86821  25.029   7.283   0.480
22614W        W86822  10.821  29.026   2.397
22615W        W86823  29.998  26.507  14.374
22616W        W86824  12.186  33.449   2.698
22617W        W86825  22.035   5.210   5.113
22618W        W86826  28.966   0.416  10.910
22619W        W86827  22.208   8.282  13.929
22620W        W86828  26.559  36.584  11.595
22621W        W86829  32.486  34.499  11.110
22622W        W86830   8.883  19.241  11.410
22623W        W86831  35.601  38.431  14.923
22624W        W86832   1.383  39.333   4.730
22625W        W86833  27.092  41.823  13.966
22626W        W86834  13.324  11.703  10.971
22627W        W86835  42.028  27.488  13.894
22628W        W86836  19.040  36.380  13.462
22629W        W86837   0.766  24.218  12.416
22630W        W86838  18.089  43.350  11.377
22631W        W86839  19.559  37.421   2.882
22632W        W86840  17.612  43.294  10.899
22633W        W86841  14.814  17.142  12.403
22634W        W86842  22.045  29.940   4.707
22635W        W86843  11.658   5.734   0.912
22636W        W86844  22.633  31.116  13.883
22637W        W86845  32.119  38.350  12.048
22638W        W86846   4.915   5.700  14.846
22639W        W86847  15.096  34.453   3.374
22640W        W86848  35.396  10.157  14.976
22641W        W86849  30.123   1.338  12.065
22642W        W86850  24.562   3.297  10.538
22643W        W86851  24.543   1.969   1.394
22644W        W86852  36.987   1.354  14.318
22645W        W86853  11.128   5.876   3.739
22646W        W86854   2.928  21.212   2.673
22647W        W86855  21.612  28.143   0.342
22648W        W86856  18.242  19.257   1.241
22649W        W86857  18.286  24.595   1.815
22650W        W86858   6.878  16.183  13.324
22651W        W86859  31.515  44.286   1.412
22652W        W86860  41.302  16.594  10.931
22653W        W86861  29.569   8.336  13.942
22654W        W86862  28.009  30.573  11.921
22655W        W86863  35.995  29.662   3.854
22656W        W86864   6.898   3.933  12.899
22657W        W86865  42.299   8.321  13.546
22658W        W86866  32.617  29.022  11.943
22659W        W86867  23.676  14.341   1.877
22660W        W86868  41.529  30.588  14.002
22661W        W86869   4.772  35.442  10.582
22662W        W86870  31.029  21.536  12.359
22663W        W86871  33.131  14.634   2.226
22664W        W86872  30.648  33.955  11.530
22665W        W86873  28.148  29.158  13.886
22666W        W86874  31.900  35.927  11.916
22667W        W86875  37.015  38.863  11.578
22668W        W86876  24.099  28.956   4.667
22669W        W86877  23.219   3.384  10.557
22670W        W86878  34.392  16.780   4.609
22671W        W86879  43.850   8.778   0.833
22672W        W86880  27.960   7.193   2.236
22673W        W86881  22.243  36.077  11.435
22674W        W86882  38.934  10.139  11.045
22675W        W86883  18.583  14.145  14.439
22676W        W86884  43.777  21.107  12.487
22677W        W86885  42.794  18.758   0.856
22678W        W86886  12.692  15.125  12.519
22679W        W86887  33.614  30.928   4.753
22680W        W86888  30.518  32.506  13.520
22681W        W86889  37.493  42.021  11.888
22682W        W86890  26.496  14.251  11.982
22683W        W86891   6.684  24.227   2.667
22684W        W86892  27.034  13.820   2.283
22685W        W86893  37.516  42.397   1.368
22686W        W86894   1.787  14.755  10.947
22687W        W86895  37.524  37.392  12.536
22688W        W86896   3.924  32.978   2.325
22689W        W86897   3.416  43.859  14.795
22690W        W86898  27.181  34.568   1.250
22691W        W86899  37.502  14.590   1.380
22692W        W86900  21.173  40.852  10.498
22693W        W86901  11.317   6.905  14.356
22694W        W86902   3.303  20.243  10.492
22695W        W86903   5.264  44.316  12.854
22696W        W86904  14.609  13.829   0.954
22697W        W86905  11.165  44.864  14.873
22698W        W86906  28.177   3.816   0.755
22699W        W86907  28.016  17.701  12.370
22700W        W86908  30.491   4.427   0.286
22701W        W86909  44.316  10.688  12.491
22702W        W86910  19.655  13.339   2.898
22703W        W86911  18.083  23.015   3.774
22704W        W86912   4.925  41.923  11.089
22705W        W86913  19.707   6.676   1.360
22706W        W86914  20.703   0.857  10.966
22707W        W86915  25.967   8.665   2.230
22708W        W86916  32.464   1.815   4.641
22709W        W86917  41.321   6.381  10.418
22710W        W86918  35.907   2.734  14.945
22711W        W86919  35.601  21.049   3.210
22712W        W86920  11.300  31.526   0.906
22713W        W86921  31.960  35.026  10.583
22714W        W86922  31.140  40.842   3.365
22715W        W86923  24.164   4.405   3.299
22716W        W86924  12.826  11.794  14.409
22717W        W86925  39.512  32.043  10.907
22718W        W86926  25.652  37.880   4.660
22719W        W86927  35.433   3.445   3.836
22720W        W86928  17.122  27.493  13.875
22721W        W86929  32.417  16.801   3.300
22722W        W86930  37.539   5.886   3.661
22723W        W86931   0.378  28.168  13.060
22724W        W86932   1.942   5.873  11.083
22725W        W86933  34.541   8.266  11.487
22726W        W86934  18.142  28.664   2.705
22727W        W86935  21.579  28.516   0.467
22728W        W86936   7.708  13.620   3.682
22729W        W86937  30.546  31.632   1.804
22730W        W86938  10.155  29.081   4.177
22731W        W86939   9.820  17.652  12.368
22732W        W86940  30.130  30.977  10.955
22733W        W86941  38.033  43.356  10.413
22734W        W86942  19.608  27.175   0.327
22735W        W86943  29.034   5.725  13.460
22736W        W86944   0.793  16.705  12.507
22737W        W86945  35.451  19.186  11.901
22738W        W86946  29.617  17.761   3.203
22739W        W86947  34.004  30.495  12.450
22740W        W86948   1.351  27.564   0.754
22741W        W86949  17.143   6.802  11.878
22742W        W86950  38.518   0.750   0.305
22743W        W86951  14.689   7.724   3.173
22744W        W86952  30.497  23.175   3.166
22745W        W86953  17.618  35.861   1.339
22746W        W86954  17.661  22.745   4.188
22747W        W86955   0.834  17.125  14.392
22748W        W86956  41.307  12.777  14.465
22749W        W86957   8.801  26.077   3.788
22750W        W86958  16.190  23.523  10.917
22751W        W86959   9.777  12.230  10.403
22752W        W86960  44.771   7.257   4.297
22753W        W86961   0.952  19.198  14.454
22754W        W86962   9.824   3.909   4.257
22755W        W86963   7.357  42.870   4.800
22756W        W86964  31.090   6.717  11.513
22757W        W86965  23.220  35.864   1.314
22758W        W86966   0.754  19.741   1.852
22759W        W86967  20.195  35.502   1.246
22760W        W86968  40.363  27.979  12.456
22761W        W86969   7.752  25.689  14.448
22762W        W86970  40.496   9.843   1.907
22763W        W86971  24.019  23.671   4.664
22764W        W86972  34.522   6.775   0.424
22765W        W86973  34.481  38.550   1.773
22766W        W86974   7.888  18.072  14.290
22767W        W86975  38.822   5.264   2.883
22768W        W86976  18.752   9.209  10.134
22769W        W86977  41.366  40.986   3.744
22770W        W86978  31.923  42.796  12.554
22771W        W86979   8.338   5.885  11.382
22772W        W86980  10.186  22.551  10.484
22773W        W86981  41.040  36.885   1.451
22774W        W86982  16.689  20.127   3.273
22775W        W86983  41.003  31.412   4.749
22776W        W86984  28.080  44.806  11.548
22777W        W86985  42.379  12.642  12.068
22778W        W86986  42.868  32.963  10.483
22779W        W86987   5.212  21.555   0.870
22780W        W86988  13.311  41.857  12.579
22781W        W86989  13.623   8.733   3.196
22782W        W86990   3.393   9.330  13.915
22783W        W86991  31.969  38.540   3.817
22784W        W86992  22.215  12.803  10.895
22785W        W86993  22.086   6.226  12.350
22786W        W86994  12.686  42.903   1.211
22787W        W86995  26.557  12.798  12.847
22788W        W86996  17.131  12.339   4.776
22789W        W86997  43.511   6.271  13.315
22790W        W86998   0.905  25.541   4.788
22791W        W86999  25.043  31.590  12.988
22792W        W87000  18.562  13.282   2.855
22793W        W87001   4.881  44.504   2.236
22794W        W87002  38.075  20.243  14.963
22795W        W87003  19.704  38.431   0.780
22796W        W87004  38.452  28.568   1.930
22797W        W87005  14.118  14.668   2.231
22798W        W87006  31.983   9.323  13.919
22799W        W87007  39.450   5.899   5.298
22800W        W87008  37.430  16.597  14.000
22801W        W87009  44.490   2.835   3.726
22802W        W87010  38.832  41.378   0.476
22803W        W87011   5.751  42.008  10.571
22804W        W87012  24.117  10.361   1.899
22805W        W87013  11.691  43.882   3.754
22806W        W87014  42.018  32.590  13.824
22807W        W87015   6.373   8.816   2.827
22808W        W87016  13.184  19.144  11.496
22809W        W87017   6.279  33.447  12.544
22810W        W87018  15.824  20.117  14.366
22811W        W87019  17.573  31.493   0.901
22812W        W87020  21.672  40.926   3.203
22813W        W87021  17.723  24.588  11.576
22814W        W87022   9.679  41.810   3.833
22815W        W87023  26.077  33.106  13.506
22816W        W87024  27.465  27.115  13.982
22817W        W87025   0.300  11.634  11.037
22818W        W87026  27.037  37.941   0.406
22819W        W87027  38.564   3.409   4.314
22820W        W87028  42.495  41.895  13.872
22821W        W87029  34.480  10.821  14.882
22822W        W87030   4.318   9.265   4.762
22823W        W87031  18.179   7.177   0.265
22824W        W87032  30.430   2.287  14.987
22825W        W87033  11.846  28.490   3.349
22826W        W87034  10.291  42.879   2.724
22827W        W87035  29.976  27.143   1.806
22828W        W87036  17.150   5.380  11.034
22829W        W87037   7.415  34.094   4.152
22830W        W87038   7.839   9.201   1.880
22831W        W87039  21.190  19.756  14.872
22832W        W87040  25.599  39.032  14.787
22833W        W87041  40.982  35.939   0.440
22834W        W87042  20.714  30.515   3.153
22835W        W87043  18.287   3.437  12.477
22836W        W87044  17.225   3.371   1.448
22837W        W87045  40.318  24.533   3.846
22838W        W87046   6.707  27.491  12.042
22839W        W87047  25.644  23.198   3.168
22840W        W87048  18.603  12.653   4.347
22841W        W87049  35.003  19.586   2.265
22842W        W87050  43.511  42.795  13.835
22843W        W87051  22.735  21.633  12.051
22844W        W87052  44.345  35.418  10.926
22845W        W87053  21.116   9.362   0.367
22846W        W87054  20.219   4.246   1.401
22847W        W87055  36.471  22.020  14.982
22848W        W87056  28.626  25.714   3.260
22849W        W87057  42.820   3.369   4.175
22850W        W87058  32.592  40.994  13.427
22851W        W87059   6.723  17.117  13.001
22852W        W87060  42.317  13.659  10.444
22853W        W87061  26.594   8.345   1.775
22854W        W87062  38.956   2.311   3.747
22855W        W87063   2.350  31.647  11.860
22856W        W87064  31.943  22.711   3.211
22857W        W87065  13.109  41.441  10.003
22858W        W87066  37.354  38.875  12.972
22859W        W87067  13.747  43.382  12.509
22860W        W87068  24.568  43.404   4.711
22861W        W87069  35.499  20.091  13.545
22862W        W87070  32.416  35.580   1.930
22863W        W87071  23.531   8.277  11.099
22864W        W87072   9.161   3.387   4.252
22865W        W87073  33.468  20.613  10.888
22866W        W87074  22.685  20.273  14.333
22867W        W87075  39.956  11.789  11.594
22868W        W87076  33.429  42.990  11.967
22869W        W87077  19.706  11.834  10.897
22870W        W87078  14.220  33.994  10.979
22871W        W87079  22.568  43.931  12.973
22872W        W87080  23.987  43.829  11.898
22873W        W87081   7.810  32.903  13.398
22874W        W87082  29.074  41.850  12.407
22875W        W87083  25.510  14.133   4.789
22876W        W87084  20.717  10.172  13.497
22877W        W87085  24.195  27.603   3.356
22878W        W87086  11.747  15.676   2.662
22879W        W87087  40.892  39.966  12.381
22880W        W87088  37.079  37.950   0.791
22881W        W87089  37.480  28.102   4.178
22882W        W87090   5.270  13.233  11.463
22883W        W87091  35.506   3.903   3.795
22884W        W87092   5.209  25.477   3.843
22885W        W87093  43.904  10.644   4.789
22886W        W87094  28.072  13.337  11.086
22887W        W87095   5.196  28.649   0.271
22888W        W87096   1.772  24.542   2.270
22889W        W87097  34.521  23.137   4.231
22890W        W87098  34.434  23.667  12.417
22891W        W87099  22.190  24.227   4.699
22892W        W87100   1.748  27.687   4.827
22893W        W87101  22.639  12.279   1.346
22894W        W87102   0.947   5.724   1.244
22895W        W87103  25.493  18.648   2.314
22896W        W87104  42.810  16.752  14.386
22897W        W87105  22.745   0.437  14.955
22898W        W87106  41.399   8.862  12.998
22899W        W87107   4.855  11.142   2.221
22900W        W87108  42.309  24.541  14.016
22901W        W87109  15.674  36.444   9.927
22902W        W87110   2.333  39.318   0.483
22903W        W87111  33.582  31.573   0.910
22904W        W87112  34.899  40.548  13.416
22905W        W87113  17.588   9.315   0.909
22906W        W87114   6.321   2.463   0.962
22907W        W87115  36.468  34.086   4.806
22908W        W87116  42.880  33.980  10.604
22909W        W87117  40.323  38.500  11.570
22910W        W87118  15.742  41.293   4.145
22911W        W87119  34.461  18.651  12.891
22912W        W87120   7.708   8.355   1.221
22913W        W87121  11.775  35.480  11.516
22914W        W87122  42.933  19.177   2.390
22915W        W87123  20.111   5.836   1.765
22916W        W87124  20.050  43.941   1.768
22917W        W87125  16.110   0.971  10.439
22918W        W87126  34.055   1.341   0.896
22919W        W87127  18.756  29.959  11.022
22920W        W87128  19.637  15.167  13.523
22921W        W87129  30.109  33.563   4.602
22922W        W87130  12.140   6.811   2.894
22923W        W87131  29.936  25.637   1.929
22924W        W87132   0.419  40.918   2.676
22925W        W87133   2.754  38.393  12.487
22926W        W87134  21.048  30.576  12.040
22927W        W87135  26.462  13.178   1.368
22928W        W87136  27.537  10.870  14.839
22929W        W87137  37.978  22.024   4.706
22930W        W87138  35.050   7.883  14.299
22931W        W87139  17.122   6.725  14.426
22932W        W87140  31.402  11.187  12.893
22933W        W87141   5.413  34.065   0.417
22934W        W87142  24.153   4.380   2.270
22935W        W87143  20.572  33.916   2.898
22936W        W87144  11.243  27.127   0.430
22937W        W87145   9.181  35.542  14.436
22938W        W87146  12.712  12.322   3.157
22939W        W87147  41.028   5.245  13.871
22940W        W87148  40.479  16.692   0.292
22941W        W87149  16.312  38.826   5.232
22942W        W87150   5.370  34.376  13.393
22943W        W87151  16.806   3.387   0.849
22944W        W87152   6.412  12.348   4.242
22945W        W87153  21.718  20.559   0.264
22946W        W87154  40.437  18.121   4.602
22947W        W87155  29.450   5.234  14.350
22948W        W87156   8.822  11.675  12.082
22949W        W87157  38.542  40.821   0.765
22950W        W87158  31.571  28.953  11.959
22951W        W87159   9.292   0.342  13.407
22952W        W87160   1.732  22.136  14.028
22953W        W87161  27.610  19.723  14.386
22954W        W87162   7.734   7.292   3.173
22955W        W87163   3.397  36.532  13.437
22956W        W87164  37.933  22.082  12.382
22957W        W87165  29.122  26.036   2.902
22958W        W87166  14.317  18.248   0.870
22959W        W87167  42.337   0.910  13.488
22960W        W87168  15.151  42.845   1.396
22961W        W87169  33.395  37.976  13.543
22962W        W87170  42.918  35.089   0.279
22963W        W87171  15.199   1.860   1.893
22964W        W87172  39.464  14.664  11.567
22965W        W87173  13.260  16.720   1.412
22966W        W87174  19.680  28.537   1.393
22967W        W87175   5.337  31.497   1.293
22968W        W87176  37.935  39.929   3.284
22969W        W87177  31.559  30.077   4.611
22970W        W87178   4.909  41.951   2.288
22971W        W87179   7.822  19.055  14.388
22972W        W87180   3.849  39.979  11.406
22973W        W87181  19.058  41.874   4.350
22974W        W87182  25.630   8.752   0.730
22975W        W87183  21.665   1.831  12.349
22976W        W87184  44.878  24.629   0.272
22977W        W87185  31.417  23.231  13.997
22978W        W87186  38.517  10.221   0.752
22979W        W87187  21.704  19.553  12.934
22980W        W87188  12.833  33.024  13.385
22981W        W87189  20.249  17.181  14.993
22982W        W87190  38.018  31.026  12.863
22983W        W87191   5.245  14.755   0.346
22984W        W87192   5.828  26.677  12.573
22985W        W87193  33.916  31.941   0.957
22986W        W87194   7.252  40.471  12.470
22987W        W87195  23.626  34.495  13.056
22988W        W87196  11.792  30.614  10.104
22989W        W87197  41.796  39.857  11.517
22990W        W87198  27.170  34.919  14.872
22991W        W87199  29.079  28.493   1.425
22992W        W87200  18.659  32.111   3.166
22993W        W87201  41.308  40.448   3.738
22994W        W87202   5.708   9.689  11.988
22995W        W87203   2.268  44.258   2.245
22996W        W87204  10.281  30.511  10.132
22997W        W87205   9.645  19.701  12.421
22998W        W87206  23.099   6.187   4.315
22999W        W87207  39.057  38.536  11.124
23000W        W87208   6.210  16.799   2.822
23001W        W87209  40.929  35.015   1.217
23002W        W87210  43.312  26.577  10.436
23003W        W87211  30.636   0.768  13.476
23004W        W87212  16.109  38.545  11.928
23005W        W87213   7.673   2.389   2.823
23006W        W87214  28.564  22.048  14.012
23007W        W87215  11.767   5.774   2.231
23008W        W87216  39.382  30.493  11.089
23009W        W87217  15.707  42.284   0.877
23010W        W87218  30.993  12.257  12.500
23011W        W87219   7.766   0.346  11.922
23012W        W87220  30.027  20.168   1.377
23013W        W87221  27.075  34.610   3.805
23014W        W87222  34.527  19.061   3.738
23015W        W87223  44.865  25.143   0.943
23016W        W87224  14.658  38.473   3.380
23017W        W87225  28.049  41.455  10.527
23018W        W87226  21.193  22.587   2.829
23019W        W87227  25.073  17.208  10.897
23020W        W87228  31.529  41.800   4.758
23021W        W87229  20.702  28.593  12.965
23022W        W87230  18.232  43.837   4.295
23023W        W87231  19.047  12.675  11.917
23024W        W87232  33.063  17.589  10.488
23025W        W87233  33.931   8.371  11.036
23026W        W87234   9.662  20.564  11.433
23027W        W87235  36.497  21.732   0.745
23028W        W87236  18.776   7.238   0.465
23029W        W87237  37.950  22.535   0.369
23030W        W87238   3.226  44.803   4.721
23031W        W87239  18.128  24.063  14.003
23032W        W87240  32.504  28.180  14.320
23033W        W87241   6.748  16.258   2.867
23034W        W87242  29.084   1.341  12.371
23035W        W87243  28.098   8.327  10.971
23036W        W87244  12.119  25.019   3.322
23037W        W87245  40.933   7.410   0.738
23038W        W87246  22.200  23.548   1.856
23039W        W87247  22.657  15.130   1.399
23040W        W87248  27.664  12.304  14.335
23041W        W87249  30.963  28.628   3.684
23042W        W87250  13.248   3.893  11.444
23043W        W87251  28.675  20.532  10.438
23044W        W87252  44.895  17.715  11.552
23045W        W87253  19.777  39.323   3.788
23046W        W87254  29.110   2.226  11.603
23047W        W87255  16.098  34.402  14.349
23048W        W87256  20.678  43.846   0.396
23049W        W87257   4.772   0.255  11.483
23050W        W87258  15.251  27.599   0.381
23051W        W87259   2.329   0.983  12.347
23052W        W87260   3.785   9.250  14.449
23053W        W87261  28.075  35.454   1.772
23054W        W87262  19.677   3.214   3.300
23055W        W87263  39.411  17.062   1.391
23056W        W87264  34.424  43.381   4.750
23057W        W87265  13.210  19.751   0.896
23058W        W87266  17.795  40.864  12.569
23059W        W87267  24.123   5.336  14.294
23060W        W87268  31.647   9.804   3.645
23061W        W87269   4.703   9.286   3.348
23062W        W87270   9.662   5.348  11.372
23063W        W87271  14.752   8.195  11.917
23064W        W87272   3.340  35.567   1.785
23065W        W87273  11.795   8.736  12.360
23066W        W87274  32.043  12.158   4.639
23067W        W87275  20.537  32.424   3.372
23068W        W87276  15.271   0.452   1.721
23069W        W87277  42.475   6.850   4.751
23070W        W87278  27.636  22.692  12.535
23071W        W87279  19.223  34.968  13.497
23072W        W87280  16.725  28.076  12.023
23073W        W87281  15.631  15.592   0.413
23074W        W87282  30.421   9.650   2.229
23075W        W87283  41.907   9.227  12.467
23076W        W87284  25.124   1.265  11.447
23077W        W87285  26.595  10.845   4.758
23078W        W87286  15.651   0.883  12.068
23079W        W87287  18.714   6.390   2.214
23080W        W87288   4.282   1.811   4.698
23081W        W87289  18.641   2.878   2.216
23082W        W87290  31.115  28.612   4.140
23083W        W87291  30.998  36.968   3.760
23084W        W87292   3.862  13.248  11.101
23085W        W87293  10.862  20.130   2.725
23086W        W87294  39.900  35.567  12.999
23087W        W87295  34.509  20.117  14.419
23088W        W87296   3.246   5.924   0.923
23089W        W87297   2.369  37.361  13.814
23090W        W87298  26.612   2.248  10.642
23091W        W87299  35.465   3.388  12.853
23092W        W87300  25.005  28.100   0.249
23093W        W87301  15.157   9.268   0.298
23094W        W87302  22.126  16.147  10.102
23095W        W87303  42.437  26.687   1.280
23096W        W87304  28.046  18.685   1.705
23097W        W87305  26.552   1.313   2.817
23098W        W87306   4.352  27.478   0.941
23099W        W87307  21.188   5.388   3.719
23100W        W87308  30.470   9.366  11.104
23101W        W87309   5.822  12.825  14.409
23102W        W87310  41.377  12.819   0.915
23103W        W87311   4.877   1.411   3.189
23104W        W87312   6.775  26.163  12.004
23105W        W87313  16.609  29.627  11.496
23106W        W87314  12.121  12.790   5.178
23107W        W87315  39.838  28.504  10.612
23108W        W87316  21.193  39.841   1.376
23109W        W87317  20.229  38.508   3.180
23110W        W87318  15.696  42.963   0.479
23111W        W87319  23.105   9.753   0.398
23112W        W87320  14.331  41.879   0.842
23113W        W87321  10.363   5.325   1.289
23114W        W87322  40.016  29.005  11.116
23115W        W87323   6.829   3.273  13.391
23116W        W87324  36.499  14.220  10.488
23117W        W87325  42.459   7.703   3.312
23118W        W87326  35.396  31.122  14.442
23119W        W87327  13.162   4.934   4.144
23120W        W87328  43.303  25.578  13.361
23121W        W87329  27.116  13.643   1.916
23122W        W87330  15.127  29.450   0.864
23123W        W87331   3.736  28.958   0.915
23124W        W87332   8.333  20.092   4.221
23125W        W87333  36.372  34.014  14.882
23126W        W87334   4.871  41.468   3.248
23127W        W87335  22.525   0.322   3.212
23128W        W87336   7.842  18.763  13.923
23129W        W87337  40.050  35.095  13.837
23130W        W87338  29.136  28.669  14.914
23131W        W87339  20.589   3.452   4.191
23132W        W87340   8.767   0.810  14.876
23133W        W87341  18.158  16.757   2.776
23134W        W87342  19.657   9.724   9.960
23135W        W87343  13.707   5.336  14.773
23136W        W87344  14.208  24.140  13.894
23137W        W87345   2.342  10.760   4.193
23138W        W87346  17.730   5.719  13.542
23139W        W87347  15.184  11.752  13.447
23140W        W87348  40.522  21.636  14.786
23141W        W87349  37.506  30.992   5.112
23142W        W87350  22.571  11.193   3.207
23143W        W87351  40.511   1.364   2.350
23144W        W87352  32.621  19.052  14.407
23145W        W87353  33.054   6.285   4.209
23146W        W87354   7.313  12.142  10.453
23147W        W87355  31.416  38.077  12.954
23148W        W87356  23.595  16.259  12.460
23149W        W87357   5.818  18.605   3.212
23150W        W87358  12.684   1.479   0.886
23151W        W87359   6.880  17.172   3.636
23152W        W87360  42.949   4.851   3.323
23153W        W87361  11.142  13.105   3.658
23154W        W87362  20.739  44.970   4.221
23155W        W87363  33.131   4.343  12.964
23156W        W87364  25.480  10.159  11.858
23157W        W87365  16.234  20.747   2.743
23158W        W87366  22.131  33.019  14.855
23159W        W87367  19.776  35.448   0.948
23160W        W87368  34.527   0.408  14.870
23161W        W87369  18.256  18.189   2.839
23162W        W87370  17.652  22.138  13.955
23163W        W87371  29.634  32.436  11.942
23164W        W87372  15.171   7.171   2.764
23165W        W87373  27.534  39.424  11.406
23166W        W87374  39.453  35.872  13.414
23167W        W87375   2.412  30.150  12.869
23168W        W87376  21.053  25.606  12.981
23169W        W87377  21.517  11.273  12.523
23170W        W87378  37.831  10.233   1.442
23171W        W87379  17.735  44.412   2.306
23172W        W87380  36.373   2.424  14.371
23173W        W87381  10.765  17.267  13.908
23174W        W87382  10.371   8.248  11.479
23175W        W87383  14.110  18.670  14.989
23176W        W87384  11.146   2.877  13.452
23177W        W87385   2.890  42.986  11.505
23178W        W87386  15.795  16.620  14.434
23179W        W87387   0.321  14.289  11.994
23180W        W87388  18.744   2.859   3.636
23181W        W87389  26.994  18.734   1.817
23182W        W87390  34.878  13.264   2.216
23183W        W87391  27.665  19.634  13.508
23184W        W87392  30.598  43.333  14.781
23185W        W87393  38.473  19.267   2.742
23186W        W87394  43.314  42.025   4.196
23187W        W87395   9.367  20.612   0.844
23188W        W87396  28.055  42.387  13.013
23189W        W87397  10.215  34.602  11.893
23190W        W87398  13.349  34.906   4.697
23191W        W87399  21.554  20.056  10.055
23192W        W87400  36.007   4.309  10.935
23193W        W87401  41.335  24.176  14.899
23194W        W87402  13.348   4.283   3.236
23195W        W87403  18.580  27.195   3.161
23196W        W87404  28.590   6.910  11.606
23197W        W87405  21.604  43.401  13.345
23198W        W87406  36.036  12.249  11.947
23199W        W87407  14.756   9.204  14.836
23200W        W87408  31.582  18.267  10.944
23201W        W87409  41.512  27.552   3.253
23202W        W87410  39.316  27.560   0.754
23203W        W87411  41.398   8.890  10.437
23204W        W87412   5.912  39.860   4.757
23205W        W87413  35.853  41.465  12.969
23206W        W87414  18.646  20.201  14.460
23207W        W87415  13.777  41.305  14.767
23208W        W87416   3.951  42.796  14.937
23209W        W87417  44.965  25.107   0.415
23210W        W87418  33.571  30.560   0.761
23211W        W87419  26.130   2.777   2.326
23212W        W87420  11.804  37.359  10.534
23213W        W87421  37.848  12.116   0.443
23214W        W87422  28.047   1.880   0.805
23215W        W87423   8.374   4.204   3.232
23216W        W87424  28.121  29.523   2.270
23217W        W87425  21.189   8.358   4.743
23218W        W87426   8.201  15.783  13.444
23219W        W87427  21.177  11.158   1.287
23220W        W87428   6.344  30.102  14.837
23221W        W87429  13.276  12.761   1.737
23222W        W87430  22.239  21.710   3.167
23223W        W87431  27.138  13.232   3.787
23224W        W87432  26.113  12.117  11.489
23225W        W87433  17.109  24.653   9.932
23226W        W87434  34.984  21.512  13.548
23227W        W87435  19.262   8.843   2.347
23228W        W87436  23.029  41.526  12.996
23229W        W87437  16.091  23.023   3.787
23230W        W87438  43.832   0.963  12.561
23231W        W87439   0.918  31.142   3.754
23232W        W87440   8.221  12.632  12.348
23233W        W87441  19.140  10.663   2.706
23234W        W87442  39.340  40.356  12.036
23235W        W87443  28.606  37.915   0.281
23236W        W87444  20.094  43.481   2.205
23237W        W87445  33.999   1.468  11.058
23238W        W87446  32.931   6.782  10.593
23239W        W87447  29.574  10.744  10.482
23240W        W87448  19.583  33.426  11.112
23241W        W87449  44.811  21.676  13.980
23242W        W87450  22.574  31.587   1.429
23243W        W87451  43.449   7.193  11.059
23244W        W87452  22.649  14.242   0.938
23245W        W87453  44.402  23.997  12.406
23246W        W87454  19.281  31.414  11.597
23247W        W87455  27.989  23.697   2.734
23248W        W87456  28.630  27.056  14.781
23249W        W87457  23.514  10.639   4.331
23250W        W87458  24.091  13.230   4.809
23251W        W87459  24.545  20.048  10.577
23252W        W87460  18.758  32.965   3.660
23253W        W87461  41.828  44.371   3.734
23254W        W87462   0.298   5.285   3.246
23255W        W87463  15.274  18.131  14.398
23256W        W87464  27.037   4.894  11.918
23257W        W87465   1.922  16.783  10.928
23258W        W87466  41.494  36.946   2.367
23259W        W87467  28.605  42.360  12.457
23260W        W87468   0.742  37.569   1.243
23261W        W87469  25.169   9.250   1.448
23262W        W87470  13.166   2.453   5.143
23263W        W87471  11.189  32.985  13.545
23264W        W87472  17.645   4.932  14.507
23265W        W87473  16.639  44.865  14.912
23266W        W87474  10.835   7.848  11.095
23267W        W87475   3.334  30.575   2.251
23268W        W87476  29.096  32.410  13.391
23269W        W87477   7.720   2.799   1.907
23270W        W87478   5.303   6.859   3.833
23271W        W87479  14.201  15.218   1.742
23272W        W87480  18.659  20.180  13.508
23273W        W87481  26.572  30.956  14.857
23274W        W87482   6.876   5.294  14.281
23275W        W87483  44.301  21.076   2.185
23276W        W87484  10.201  31.631  10.140
23277W        W87485  17.150  41.464   5.202
23278W        W87486  17.699  11.159  12.934
23279W        W87487   8.357  16.222   0.770
23280W        W87488   9.687  15.150  14.930
23281W        W87489   0.379  37.885  12.930
23282W        W87490   7.264  39.377   2.393
23283W        W87491  39.443  27.566   0.416
23284W        W87492  44.860  13.313   1.924
23285W        W87493  24.486  21.732   2.223
23286W        W87494  17.113  40.425  13.352
23287W        W87495  17.798  17.140  12.851
23288W        W87496  42.949  41.442  11.531
23289W        W87497  34.008   4.391  13.472
23290W        W87498  20.162  37.939   3.807
23291W        W87499  44.957  25.971  14.353
23292W        W87500   1.740   6.318  10.491
23293W        W87501  11.303  27.956   1.770
23294W        W87502  26.606  44.971   2.886
23295W        W87503  20.180  32.970  11.966
23296W        W87504   5.808  32.558   2.737
23297W        W87505  41.980  34.598  14.764
23298W        W87506  42.989  26.093   3.743
23299W        W87507  22.057   5.402   1.849
23300W        W87508  35.014   3.332  10.548
23301W        W87509  44.982  43.456  13.381
23302W        W87510  24.487  38.022   1.227
23303W        W87511  37.083  41.882  13.517
23304W        W87512  34.455   6.411  12.346
23305W        W87513  42.829  10.357   2.791
23306W        W87514  21.558  20.264   3.205
23307W        W87515  14.822  40.421   1.845
23308W        W87516  26.562   7.798  13.337
23309W        W87517  37.520  14.297  12.357
23310W        W87518  12.654  12.721   4.750
23311W        W87519   9.735  25.482  11.477
23312W        W87520  13.172  41.895   1.701
23313W        W87521  30.910   1.900  12.934
23314W        W87522  11.195  12.125  13.989
23315W        W87523  11.790   6.910   4.752
23316W        W87524  41.476  34.407  13.376
23317W        W87525  26.063  15.729   3.178
23318W        W87526  28.104   3.736   3.312
23319W        W87527  20.749  22.165  11.868
23320W        W87528  44.865   5.802  11.966
23321W        W87529  44.837  26.194   1.253
23322W        W87530  19.644  11.700   4.116
23323W        W87531  29.495  43.417   2.748
23324W        W87532  30.165  13.252   4.329
23325W        W87533  23.541  18.705   9.511
23326W        W87534  19.548  16.672  12.449
23327W        W87535  26.011  24.677   1.894
23328W        W87536  32.613  23.732   3.288
23329W        W87537  19.664   7.758  11.984
23330W        W87538   9.694   0.820   3.252
23331W        W87539  18.776  19.674   1.332
23332W        W87540  31.919  26.657   0.943
23333W        W87541   7.325  34.909  10.645
23334W        W87542  41.922  43.415   3.696
23335W        W87543  27.627  33.986   1.353
23336W        W87544  38.363  22.100  14.466
23337W        W87545  36.583   2.743  11.914
23338W        W87546  18.259  21.216   0.374
23339W        W87547   4.223  21.586   2.342
23340W        W87548   0.336  13.753  11.490
23341W        W87549  35.528   2.462  13.481
23342W        W87550  21.652  37.983   4.826
23343W        W87551  28.155   6.872   4.239
23344W        W87552  44.848  27.995   2.696
23345W        W87553  15.136   9.760  12.064
23346W        W87554  15.114  16.160  11.076
23347W        W87555   8.664  24.549  12.979
23348W        W87556  25.575  34.612  10.446
23349W        W87557  30.426  40.479  10.920
23350W        W87558  17.651  21.542  14.995
23351W        W87559  23.066  20.540  13.823
23352W        W87560   7.243  10.353   0.384
23353W        W87561  28.677  28.461   1.376
23354W        W87562  14.601  33.055   0.790
23355W        W87563  27.501   3.236   3.840
23356W        W87564  29.047  10.358  13.365
23357W        W87565  19.213  37.935  12.355
23358W        W87566  16.310   0.492   0.852
23359W        W87567  28.949  11.704   1.373
23360W        W87568  26.529  10.633  10.912
23361W        W87569  44.453  33.384  13.384
23362W        W87570   8.218   8.353  12.402
23363W        W87571  27.017  27.549   1.926
23364W        W87572  33.950  19.591  14.514
23365W        W87573  32.130   9.198  12.446
23366W        W87574  30.597  24.626   3.641
23367W        W87575  16.072  43.941  11.598
23368W        W87576  28.163  16.640  12.478
23369W        W87577   9.695  22.203   4.629
23370W        W87578  29.116  39.855   2.342
23371W        W87579   0.957  18.689   2.345
23372W        W87580  18.250  16.752  11.908
23373W        W87581  17.670  18.696  12.432
23374W        W87582  28.111  12.178   0.859
23375W        W87583  24.710   9.308  12.563
23376W        W87584   9.727  28.941   3.801
23377W        W87585  10.318   8.180  13.390
23378W        W87586   6.742  12.706  13.968
23379W        W87587  30.995  12.282   0.453
23380W        W87588   5.257  14.180  13.932
23381W        W87589  30.653  33.895   0.763
23382W        W87590   3.281   6.740  11.377
23383W        W87591  36.380  29.119  11.982
23384W        W87592  19.170  30.028   0.460
23385W        W87593  12.844  26.483   2.332
23386W        W87594  34.437   0.333  10.946
23387W        W87595  36.544  13.114   1.330
23388W        W87596  29.473  18.147   5.162
23389W        W87597  18.211  18.547   4.254
23390W        W87598   9.350  11.862   0.426
23391W        W87599  37.045  41.335   3.630
23392W        W87600   4.448  24.582   1.305
23393W        W87601  37.565  18.714   0.753
23394W        W87602   6.859  16.144  11.928
23395W        W87603   8.699  32.079   2.259
23396W        W87604  40.867  13.842   0.916
23397W        W87605   0.832  15.678  12.351
23398W        W87606  21.660  29.639   0.958
23399W        W87607   0.969  36.442   0.860
23400W        W87608  25.089  35.399  12.961
23401W        W87609  13.185  33.423  10.903
23402W        W87610  44.756  20.033   4.803
23403W        W87611  37.926  12.633   1.351
23404W        W87612  17.672  10.831  12.966
23405W        W87613   0.466  33.395   4.669
23406W        W87614  31.610   0.311   3.651
23407W        W87615  42.356  19.557   1.803
23408W        W87616   6.681   6.861  11.435
23409W        W87617  35.887  43.352  12.544
23410W        W87618  11.852  31.068  13.532
23411W        W87619   5.853  19.752  13.328
23412W        W87620  42.321  14.110   2.382
23413W        W87621  32.971   9.782   0.482
23414W        W87622  35.966  33.052   0.251
23415W        W87623  23.169  41.954  10.442
23416W        W87624   5.690  21.620  14.994
23417W        W87625  23.008  12.150   0.950
23418W        W87626  37.386  13.783  13.875
23419W        W87627   2.390  24.545   1.273
23420W        W87628  27.475  30.974   4.324
23421W        W87629  35.503   9.390   4.623
23422W        W87630  43.374  22.170  11.022
23423W        W87631   8.310  11.636   0.367
23424W        W87632  28.091  24.605  13.959
23425W        W87633  19.270  41.424  10.516
23426W        W87634  23.626  31.497   3.146
23427W        W87635  20.049  37.577   2.767
23428W        W87636  15.294  13.189   2.674
23429W        W87637   4.216  41.797  12.561
23430W        W87638  17.213  26.698  13.796
23431W        W87639  21.175  31.918  11.421
23432W        W87640  11.651  40.531   1.810
23433W        W87641  35.373   8.747  14.782
23434W        W87642   4.884  39.522   3.741
23435W        W87643   1.742  31.112   0.745
23436W        W87644  22.067  34.585   2.262
23437W        W87645  25.711  17.197   3.784
23438W        W87646  21.025  20.175  12.440
23439W        W87647  32.893  38.496   2.364
23440W        W87648  11.808  17.673  11.501
23441W        W87649   6.420  29.550   2.414
23442W        W87650  42.289  20.613  13.314
23443W        W87651   8.858  31.516   2.860
23444W        W87652   4.268  35.405   1.826
23445W        W87653  21.142  18.192   4.644
23446W        W87654  42.028  33.427  10.081
23447W        W87655  10.279   7.844   1.740
23448W        W87656  28.581  16.753   1.851
23449W        W87657  26.522  34.045   4.254
23450W        W87658  41.855  41.346  10.131
23451W        W87659  43.409  25.991  11.033
23452W        W87660  43.472  16.247  14.312
23453W        W87661   7.322  27.116   3.284
23454W        W87662  20.045  37.970  13.446
23455W        W87663   7.196   2.334  11.542
23456W        W87664  37.961  21.683  13.332
23457W        W87665  40.504  38.827   1.370
23458W        W87666   8.784  14.628   0.938
23459W        W87667   6.733   4.209  13.899
23460W        W87668   6.730  33.468  11.498
23461W        W87669   8.368  30.471   2.354
23462W        W87670  36.032  42.912   3.781
23463W        W87671  16.169  16.648   1.424
23464W        W87672  38.909  32.554   4.323
23465W        W87673  34.994  40.510   4.801
23466W        W87674  17.705  37.411   0.911
23467W        W87675  28.075   2.313  14.010
23468W        W87676  19.282   4.264   2.273
23469W        W87677   7.240  43.792  14.957
23470W        W87678  35.891  30.146   0.731
23471W        W87679  38.560  34.035  11.038
23472W        W87680  31.527   5.198  12.456
23473W        W87681  10.853   8.731  13.979
23474W        W87682  42.502  25.491   0.452
23475W        W87683   1.881  33.438  14.859
23476W        W87684  36.864  31.586   2.885
23477W        W87685  40.486  38.845  14.829
23478W        W87686  32.141  42.982   1.809
23479W        W87687  23.182   1.893   4.827
23480W        W87688   1.248  35.419  10.511
23481W        W87689   0.792   6.200   2.191
23482W        W87690  35.540  18.654   3.331
23483W        W87691  38.823   2.319  14.401
23484W        W87692  16.288   1.945   1.790
23485W        W87693  21.620  24.197   1.916
23486W        W87694  15.119  40.021   9.514
23487W        W87695   1.468  21.140   2.331
23488W        W87696  33.934  44.438  14.798
23489W        W87697   8.297  33.401   1.714
23490W        W87698   2.378  42.806   1.257
23491W        W87699  39.909  43.847   4.332
23492W        W87700   9.256  17.132   4.817
23493W        W87701  21.671  37.529  11.107
23494W        W87702   0.869  31.605  12.476
23495W        W87703   1.744   7.899   0.895
23496W        W87704  13.752  42.803   1.435
23497W        W87705  36.576  15.616   1.450
23498W        W87706  18.141  30.005  12.564
23499W        W87707   3.437   9.378   1.433
23500W        W87708   9.150  18.259   4.622
23501W        W87709  19.086  40.889   3.848
23502W        W87710   3.718  35.071   2.827
23503W        W87711  27.562   3.446  11.000
23504W        W87712  12.837   6.399  10.947
23505W        W87713   9.336  15.775   3.856
23506W        W87714  36.936  44.965  14.797
23507W        W87715   1.969  38.901  12.890
23508W        W87716  31.429  23.732   1.903
23509W        W87717  32.633  31.931   4.291
23510W        W87718  39.548  25.183  11.573
23511W        W87719  25.604  43.432  11.006
23512W        W87720  37.477  16.568  13.418
23513W        W87721   3.218  27.037   1.429
23514W        W87722  27.154  15.223   0.896
23515W        W87723  33.952  21.251   0.339
23516W        W87724  43.000  16.273  13.457
23517W        W87725  30.970  29.064  13.845
23518W        W87726  17.583  34.874  13.521
23519W        W87727  39.054  35.419   4.142
23520W        W87728   8.795  39.355   4.700
23521W        W87729  29.941  12.155   0.733
23522W        W87730  25.653  11.351   3.757
23523W        W87731  39.922   7.805   4.749
23524W        W87732  31.103  37.011  12.908
23525W        W87733   6.759  18.099  12.880
23526W        W87734  43.356  32.075  14.289
23527W        W87735  41.320  16.569   1.802
23528W        W87736  18.173  23.106   0.371
23529W        W87737  37.014  34.502  14.289
23530W        W87738  29.577   9.155  13.800
23531W        W87739   8.236  30.583  14.830
23532W        W87740  22.712  36.043   2.730
23533W        W87741   9.339  29.122   0.738
23534W        W87742  30.089  39.374   3.311
23535W        W87743  13.641  37.977   0.961
23536W        W87744  39.509  10.270  14.437
23537W        W87745  42.991  31.614  12.931
23538W        W87746   7.690  11.242  12.529
23539W        W87747  29.144  32.403  11.929
23540W        W87748  32.542  43.936   2.812
23541W        W87749  19.734  44.306  12.001
23542W        W87750   2.927   7.370  14.304
23543W        W87751   5.337  18.625  14.423
23544W        W87752  13.292  26.009  12.437
23545W        W87753  32.004   0.471   4.246
23546W        W87754  10.212  44.826  10.893
23547W        W87755  29.551  44.432   2.250
23548W        W87756  11.146  35.412  10.449
23549W        W87757  32.605  14.211  12.866
23550W        W87758  39.862  40.384  12.560
23551W        W87759  21.580   2.965   0.399
23552W        W87760   0.823   0.404   1.293
23553W        W87761  26.098  19.599   0.320
23554W        W87762   0.950  18.184   3.308
23555W        W87763  25.130  25.537  14.881
23556W        W87764   3.304  28.003   5.275
23557W        W87765   7.808  36.858   2.214
23558W        W87766  30.526  18.176   5.281
23559W        W87767  11.815  44.347   4.665
23560W        W87768  41.002   0.764  10.590
23561W        W87769  40.931   5.878  10.614
23562W        W87770  35.467   2.471   3.223
23563W        W87771  22.161   4.346  11.073
23564W        W87772  39.864  26.572   1.868
23565W        W87773   6.320  43.976  10.549
23566W        W87774   1.925  17.208  14.844
23567W        W87775  14.671  23.069  11.526
23568W        W87776  29.022   4.320   1.377
23569W        W87777  38.436  13.273   3.164
23570W        W87778  25.047  16.586  13.452
23571W        W87779  26.006   9.860  12.947
23572W        W87780  22.724  24.659  14.909
23573W        W87781  17.131  10.348  14.951
23574W        W87782  20.629  26.079   2.785
23575W        W87783  17.735   7.765  11.430
23576W        W87784  41.966   8.810  10.518
23577W        W87785  26.096  20.723  14.940
23578W        W87786  24.647  39.526   0.756
23579W        W87787  33.583  41.021   0.756
23580W        W87788   3.376  43.474  14.330
23581W        W87789  22.060  27.038  10.451
23582W        W87790  11.841  11.207   4.825
23583W        W87791   8.739  17.119   2.352
23584W        W87792  40.394   0.344  14.932
23585W        W87793   3.922  35.388   3.232
23586W        W87794  34.045   8.867   4.120
23587W        W87795  20.177  43.322   0.330
23588W        W87796  39.446  36.430  14.361
23589W        W87797  18.213  15.235  11.395
23590W        W87798  36.536   8.768  13.445
23591W        W87799  33.607  33.396  14.878
23592W        W87800  19.040  24.543   0.296
23593W        W87801  38.871  21.092   2.811
23594W        W87802  41.495  24.163  12.488
23595W        W87803  23.687  16.258   1.935
23596W        W87804  36.079   4.883  14.434
23597W        W87805  21.628  39.936  12.902
23598W        W87806  37.394   6.789  14.994
23599W        W87807   6.765   1.341  12.830
23600W        W87808  25.698  10.226  10.905
23601W        W87809  37.552  37.957   0.324
23602W        W87810   4.345   5.438   2.737
23603W        W87811  16.075  41.034   4.668
23604W        W87812   9.752  41.009   4.748
23605W        W87813   2.914  18.066   2.390
23606W        W87814  15.654  31.008   3.629
23607W        W87815   3.344  42.879  12.494
23608W        W87816  16.195  21.061   4.723
23609W        W87817  26.501  27.139   0.354
23610W        W87818  24.679  42.015   1.284
23611W        W87819   2.457  14.332   2.252
23612W        W87820   4.219  38.402   3.769
23613W        W87821  14.802  40.820   2.671
23614W        W87822  15.136  38.956   1.911
23615W        W87823  44.811  29.924  12.922
23616W        W87824   0.351  31.904   2.292
23617W        W87825  24.663  37.868   3.660
23618W        W87826   4.906  44.260   2.783
23619W        W87827  31.509  40.323   1.892
23620W        W87828  17.560  30.565  10.634
23621W        W87829   1.872  28.939  12.823
23622W        W87830  15.816  43.844  12.522
23623W        W87831   4.797  14.271  14.502
23624W        W87832   8.711  37.019   1.752
23625W        W87833  18.249  42.304   3.856
23626W        W87834  40.424  33.527  12.882
23627W        W87835   0.302   4.728   0.963
23628W        W87836  17.174  30.139  11.545
23629W        W87837  15.288  43.453  12.470
23630W        W87838  41.349  19.712  11.994
23631W        W87839   0.945   7.708   3.696
23632W        W87840  22.534   6.683  10.479
23633W        W87841  13.176  17.607  13.832
23634W        W87842  18.274   2.880  13.371
23635W        W87843  36.890  10.734   0.352
23636W        W87844  24.571   9.251  13.874
23637W        W87845  18.283   2.372   2.273
23638W        W87846  21.579   8.840  11.071
23639W        W87847   1.761  28.165   3.785
23640W        W87848   5.409  44.336   0.448
23641W        W87849  43.926  15.795   2.193
23642W        W87850   0.942   2.812  10.436
23643W        W87851   6.799  20.173  13.522
23644W        W87852   2.273  29.430   3.782
23645W        W87853  19.571  24.135  13.454
23646W        W87854  14.198  30.536   4.335
23647W        W87855  38.426  37.579   2.273
23648W        W87856  36.002  14.591   5.199
23649W        W87857  33.940   2.846  14.437
23650W        W87858  36.519  15.672   4.767
23651W        W87859  44.485  26.559  12.050
23652W        W87860  12.650   1.392   3.779
23653W        W87861  22.214  44.811   0.349
23654W        W87862  32.468  30.029   4.765
23655W        W87863  26.469  18.173  12.824
23656W        W87864   7.908  44.259  14.843
23657W        W87865   9.365  32.455  12.926
23658W        W87866   2.854  30.935  10.980
23659W        W87867  43.801  23.633  13.874
23660W        W87868   6.697  14.610   0.380
23661W        W87869   1.335  44.903   3.852
23662W        W87870   3.267  25.629   3.822
23663W        W87871   6.902  20.711  14.894
23664W        W87872  32.485  20.646  12.449
23665W        W87873  35.596  32.885  14.963
23666W        W87874   1.322   1.466  10.529
23667W        W87875  43.488  20.053   2.845
23668W        W87876  12.638  31.507   2.332
23669W        W87877  19.054  19.130   2.899
23670W        W87878  38.360  14.171  14.974
23671W        W87879  26.128   7.704  12.509
23672W        W87880  42.827  14.658  13.539
23673W        W87881   8.759  28.581  14.918
23674W        W87882  10.195  23.015  13.335
23675W        W87883  15.119  17.662   3.324
23676W        W87884  12.274  21.630   4.306
23677W        W87885  36.992  32.396  14.332
23678W        W87886  10.303  14.713   5.777
23679W        W87887  32.003  27.150   0.482
23680W        W87888  40.888  12.136   4.217
23681W        W87889  32.617  19.276   1.336
23682W        W87890   7.206  25.118   3.719
23683W        W87891  13.179   6.206   1.920
23684W        W87892  44.301  20.097  10.973
23685W        W87893  44.360  34.986  13.887
23686W        W87894   5.839  43.321   3.831
23687W        W87895  42.292  13.302  13.343
23688W        W87896  11.140   7.910  14.954
23689W        W87897   1.930  44.458  11.883
23690W        W87898  24.105   0.418  12.523
23691W        W87899  19.128   5.396   2.827
23692W        W87900  25.086   0.780  13.412
23693W        W87901  42.938  10.231   9.949
23694W        W87902  14.594  32.047  13.843
23695W        W87903   7.712  12.807  10.159
23696W        W87904  12.645  29.597   3.852
23697W        W87905  10.216  18.591   3.800
23698W        W87906  40.904  34.469   0.872
23699W        W87907  15.603  31.433   0.269
23700W        W87908  36.892  23.183  12.860
23701W        W87909   6.867  11.350  14.295
23702W        W87910  20.583   9.810  11.964
23703W        W87911  22.101   8.766  11.010
23704W        W87912  40.936  36.422   0.828
23705W        W87913  22.692  25.165  10.447
23706W        W87914  21.040  18.180  13.795
23707W        W87915  32.092  16.739  10.601
23708W        W87916  42.505  14.117   4.656
23709W        W87917   5.709  15.689  13.797
23710W        W87918  37.934  29.947  13.868
23711W        W87919  37.432  34.526   2.214
23712W        W87920  31.645  13.143  14.993
23713W        W87921  13.118  15.313   0.260
23714W        W87922   4.912  27.504  14.370
23715W        W87923  16.245  20.226   3.801
23716W        W87924  27.494  25.020  11.056
23717W        W87925  36.518  16.594   1.343
23718W        W87926  14.238   4.373   4.606
23719W        W87927  38.969   6.249   5.229
23720W        W87928  20.215   2.887  10.601
23721W        W87929  25.158   1.381  11.952
23722W        W87930  26.618  39.860   0.739
23723W        W87931   6.849  39.556  14.440
23724W        W87932  44.897  39.383   2.782
23725W        W87933   8.700   0.360  11.018
23726W        W87934   8.714  11.712   1.793
23727W        W87935  23.040  13.651  12.835
23728W        W87936   1.356  31.981  14.887
23729W        W87937  42.868  10.706  13.975
23730W        W87938  32.499   3.883  12.381
23731W        W87939  18.659   6.780   3.307
23732W        W87940  12.247   3.417  13.819
23733W        W87941  24.135  12.215  13.451
23734W        W87942  12.141  44.296  13.464
23735W        W87943  32.128  35.525   3.189
23736W        W87944  35.448   2.834  11.100
23737W        W87945  24.557  35.929  10.423
23738W        W87946  23.019   2.920   3.646
23739W        W87947  17.105  38.897  12.824
23740W        W87948  34.930   7.190   3.370
23741W        W87949   7.408  16.677   2.671
23742W        W87950  42.021  34.047  11.971
23743W        W87951  10.181   1.288  12.546
23744W        W87952  29.133   6.888   2.371
23745W        W87953  24.491  36.942  13.047
23746W        W87954  36.391  34.954   2.888
23747W        W87955  41.836   9.835   4.209
23748W        W87956  40.542  11.738   2.694
23749W        W87957  17.677  12.694  10.889
23750W        W87958  44.862  34.574   3.745
23751W        W87959  37.886  32.104   2.694
23752W        W87960  40.032  26.047   3.233
23753W        W87961  10.289   4.221  13.811
23754W        W87962  43.775  34.533  14.952
23755W        W87963  42.925  40.357  13.459
23756W        W87964  16.252  14.102   1.404
23757W        W87965   1.308  38.836  11.988
23758W        W87966  29.587  44.000   2.227
23759W        W87967  42.830  25.077  12.929
23760W        W87968  40.834  13.211  13.905
23761W        W87969  27.573  38.446   2.294
23762W        W87970   8.343  43.903  11.961
23763W        W87971  38.953  24.620   1.765
23764W        W87972   2.848  12.240  12.927
23765W        W87973  11.712  17.798  12.888
23766W        W87974  18.566  40.435   4.181
23767W        W87975   4.410  29.629  12.982
23768W        W87976   5.704  25.040  14.471
23769W        W87977  30.976  31.090  12.474
23770W        W87978  30.633  22.184  11.064
23771W        W87979   0.488  36.370  12.012
23772W        W87980  21.562  24.083  13.053
23773W        W87981  27.034  13.110  12.382
23774W        W87982   1.396  10.818   4.242
23775W        W87983  44.442  11.182  12.409
23776W        W87984  28.586  19.211  12.881
23777W        W87985   3.393  23.568   2.884
23778W        W87986  27.520  41.913   0.848
23779W        W87987  20.755   3.297   1.799
23780W        W87988  38.935  32.391   0.919
23781W        W87989   5.292  42.313  12.041
23782W        W87990  16.756  31.087   1.317
23783W        W87991  36.000  33.396  10.901
23784W        W87992  22.520   8.314   4.257
23785W        W87993  30.546   6.679   0.895
23786W        W87994  33.453  44.299   1.325
23787W        W87995  20.708   0.828  13.334
23788W        W87996  22.660  32.463   2.877
23789W        W87997  36.404  28.601   2.286
23790W        W87998  15.658  23.714  12.954
23791W        W87999  29.563  40.848  14.901
23792W        W88000  20.070  17.647   3.821
23793W        W88001  18.101  30.106  12.855
23794W        W88002   9.390  42.966  14.504
23795W        W88003  36.370  22.553  11.875
23796W        W88004  10.674   4.438   2.813
23797W        W88005  28.953  27.461  11.884
23798W        W88006  24.646  20.614   1.284
23799W        W88007  36.882   7.261  14.769
23800W        W88008   2.303  42.433  14.783
23801W        W88009  35.077  31.121   3.255
23802W        W88010  33.900  20.663  13.499
23803W        W88011   0.802   5.712  10.419
23804W        W88012  43.382  20.552  13.867
23805W        W88013  29.053  24.221   0.346
23806W        W88014  26.091  25.090  13.431
23807W        W88015  15.194  28.044  13.043
23808W        W88016  38.504   6.771  14.997
23809W        W88017  43.922  34.515  14.466
23810W        W88018   4.765  44.889  13.343
23811W        W88019  22.123  21.710   4.182
23812W        W88020  39.492  39.317  14.966
23813W        W88021  20.583   8.685  11.012
23814W        W88022   5.288  14.602  13.982
23815W        W88023  16.628   7.911  10.584
23816W        W88024  25.073  33.440   1.248
23817W        W88025  13.117  14.692   0.823
23818W        W88026   9.354   5.897   1.785
23819W        W88027  36.381  24.548   0.264
23820W        W88028  25.526  43.475   3.792
23821W        W88029  39.818  38.972  11.567
23822W        W88030  19.559   9.293   0.458
23823W        W88031  17.300  10.201   2.314
23824W        W88032   3.237  25.207  12.886
23825W        W88033  11.361  13.730  14.959
23826W        W88034   7.243   1.314   0.815
23827W        W88035  27.198  26.666  14.985
23828W        W88036  38.512  32.140  14.503
23829W        W88037  27.540  39.854  13.505
23830W        W88038   4.287   0.335   3.774
23831W        W88039  24.126  26.574   4.235
23832W        W88040   2.431  38.962   3.224
23833W        W88041   3.345   0.988   0.317
23834W        W88042   3.944  31.646  10.927
23835W        W88043  35.109  20.204   0.281
23836W        W88044  40.857  25.037  13.316
23837W        W88045  39.820  33.553  13.397
23838W        W88046  19.218   4.765  12.462
23839W        W88047   6.754   2.401   2.776
23840W        W88048  11.857  13.251  14.425
23841W        W88049  19.153   0.299  13.318
23842W        W88050  25.690   1.427   2.669
23843W        W88051  34.579  21.747   0.747
23844W        W88052  40.844  29.156   0.312
23845W        W88053  31.514  32.530  11.057
23846W        W88054   3.896  13.729   1.700
23847W        W88055  27.145  40.520   1.270
23848W        W88056  42.308  12.228   4.615
23849W        W88057  12.116   0.963  14.840
23850W        W88058   7.409  21.693  12.835
23851W        W88059  14.226  38.839   4.213
23852W        W88060  29.442  14.625   2.709
23853W        W88061   7.310  11.173   4.601
23854W        W88062  23.639  44.935   0.762
23855W        W88063  38.542  28.487  13.012
23856W        W88064  22.225   2.909   3.863
23857W        W88065   6.856  17.723   4.236
23858W        W88066  32.506   2.902   4.273
23859W        W88067  17.141   2.854  13.482
23860W        W88068  11.367  38.025  13.015
23861W        W88069  31.929   6.304   4.611
23862W        W88070  44.838  18.200   4.718
23863W        W88071  42.962   5.252   3.365
23864W        W88072  18.614  24.669  11.567
23865W        W88073  25.560  28.607   0.339
23866W        W88074  15.112  22.564   2.202
23867W        W88075  33.892  22.506  13.528
23868W        W88076  18.227  11.304   3.648
23869W        W88077   8.889   0.935  10.512
23870W        W88078   4.379   0.413  10.980
23871W        W88079   5.761  32.406   0.444
23872W        W88080  33.908   2.467  13.548
23873W        W88081  15.798   5.851  13.846
23874W        W88082  31.004  10.662  14.496
23875W        W88083  34.063   9.803  12.944
23876W        W88084   0.458  27.650   4.807
23877W        W88085  34.462   5.236   0.963
23878W        W88086  13.219  25.038  12.834
23879W        W88087   9.232  13.690  12.010
23880W        W88088  22.738  15.221  13.922
23881W        W88089  27.163  10.843   3.197
23882W        W88090   3.340   6.786   1.753
23883W        W88091  39.314  14.649   3.307
23884W        W88092  19.710   2.899   2.216
23885W        W88093   4.230   8.685   4.189
23886W        W88094   8.313  31.946  14.857
23887W        W88095  23.169  27.979  11.050
23888W        W88096  22.736  23.143   1.232
23889W        W88097  30.561   4.850   0.907
23890W        W88098  15.142  23.070  12.967
23891W        W88099  43.950  29.988  11.858
23892W        W88100  20.752  34.957   2.882
23893W        W88101  28.509  14.102   3.168
23894W        W88102  14.162  26.201   2.881
23895W        W88103  37.562  39.392   3.723
23896W        W88104  41.940  12.248   0.736
23897W        W88105   8.715  22.573  12.090
23898W        W88106  35.884   0.290  12.397
23899W        W88107  42.001  20.524   2.302
23900W        W88108  28.088  25.482   2.279
23901W        W88109  29.567  19.620   2.234
23902W        W88110  28.995  25.695  13.903
23903W        W88111  33.608  40.547   5.248
23904W        W88112  25.016   5.257   3.164
23905W        W88113   3.443  40.801   4.217
23906W        W88114  25.483  41.375  13.364
23907W        W88115   4.315  24.545   1.818
23908W        W88116   7.719  27.154  14.845
23909W        W88117   6.246  15.739   0.963
23910W        W88118  39.505  34.547  11.898
23911W        W88119  33.447   6.412  13.983
23912W        W88120  24.555  10.717   4.729
23913W        W88121   3.877  44.845   1.427
23914W        W88122  22.606  36.364  10.578
23915W        W88123  28.099  28.552  11.402
23916W        W88124  33.062   7.849  11.412
23917W        W88125  13.117  25.183   4.247
23918W        W88126  30.472  10.784   3.374
23919W        W88127  10.317  28.996   4.752
23920W        W88128   8.859  11.648   4.354
23921W        W88129  13.129  10.647  11.378
23922W        W88130  28.976  20.568  11.394
23923W        W88131  36.484  33.058   4.263
23924W        W88132  20.744  36.432  11.439
23925W        W88133   0.297  22.087   4.732
23926W        W88134   2.428  31.552   0.325
23927W        W88135  20.274  17.637  11.979
23928W        W88136  42.347  11.670   0.449
23929W        W88137  40.044  23.168  11.521
23930W        W88138  43.512  25.470  12.373
23931W        W88139  34.429  28.024  14.461
23932W        W88140  33.063  11.751  13.925
23933W        W88141   6.896  24.570   1.442
23934W        W88142  39.530   8.215  12.405
23935W        W88143   5.255  44.904   3.369
23936W        W88144   9.690  42.019  11.527
23937W        W88145  36.894  44.344  14.019
23938W        W88146   9.246  41.842  14.286
23939W        W88147  35.501  25.508  13.802
23940W        W88148   7.315  41.842   1.367
23941W        W88149  26.621  42.848   3.658
23942W        W88150  17.799   9.819  14.825
23943W        W88151  12.307   2.378  10.622
23944W        W88152   6.279  27.173   3.802
23945W        W88153  28.067  22.079   0.848
23946W        W88154  19.165  37.467   1.780
23947W        W88155  18.113  36.882   3.661
23948W        W88156   2.886  29.498  12.409
23949W        W88157  39.896  22.524   3.288
23950W        W88158  21.627  28.103  11.407
23951W        W88159  11.258   5.362  10.559
23952W        W88160  32.406  26.682  13.021
23953W        W88161  15.218  18.790   1.319
23954W        W88162  14.144  33.483  10.430
23955W        W88163  43.948  43.961  13.383
23956W        W88164   4.204  19.095   1.815
23957W        W88165   8.251   3.797   3.673
23958W        W88166  20.131   9.181   2.328
23959W        W88167  16.279  31.401  11.488
23960W        W88168  24.097  35.455   2.841
23961W        W88169  16.079  17.566   1.844
23962W        W88170  22.703  38.543  13.796
23963W        W88171  35.910   3.731  12.032
23964W        W88172  27.691  12.694   3.842
23965W        W88173  21.639  41.496   5.136
23966W        W88174  10.220   8.222   4.175
23967W        W88175  43.807  32.965   4.696
23968W        W88176  24.478  15.107   2.765
23969W        W88177   3.323  11.835  13.955
23970W        W88178  33.021   1.949  12.952
23971W        W88179  12.249  36.907   3.343
23972W        W88180   8.304  18.673  11.906
23973W        W88181  40.457  32.482   0.891
23974W        W88182  36.018  18.112   1.829
23975W        W88183  35.420  30.565   2.357
23976W        W88184  40.488  39.339   3.234
23977W        W88185  35.440   1.743  12.974
23978W        W88186  35.396  21.712   3.735
23979W        W88187  10.689  18.769   1.789
23980W        W88188  37.523  43.993   0.847
23981W        W88189  11.138  39.382  13.055
23982W        W88190  36.542  33.557   3.260
23983W        W88191  13.660  10.186   0.437
23984W        W88192  40.950  38.944   4.183
23985W        W88193  39.997  34.433  10.431
23986W        W88194   3.408   0.938   1.311
23987W        W88195  36.437  41.507   1.866
23988W        W88196  38.374  44.760  14.954
23989W        W88197  28.009   1.965   9.940
23990W        W88198   9.799  38.343   2.838
23991W        W88199  42.296  17.795   0.873
23992W        W88200  22.558  22.240  11.391
23993W        W88201  17.104  35.592   9.597
23994W        W88202   6.796  12.318  11.071
23995W        W88203   0.331  19.226  12.934
23996W        W88204  31.078  31.445  13.995
23997W        W88205  12.182  28.503   1.390
23998W        W88206  23.197  13.785   3.690
23999W        W88207  41.972  20.544  12.389
24000W        W88208   2.439   0.413   3.682
24001W        W88209  19.250  22.084   4.613
24002W        W88210  10.718  34.411  13.468
24003W        W88211  19.129   2.334   0.734
24004W        W88212  18.252  29.076   2.241
24005W        W88213  26.581  39.329   2.721
24006W        W88214  12.703  13.206  13.893
24007W        W88215   9.818  27.187  11.600
24008W        W88216   5.220   9.359   2.317
24009W        W88217  29.598   8.285  12.411
24010W        W88218  39.918   9.660  11.111
24011W        W88219  38.468  42.453   4.679
24012W        W88220  37.862  31.406  14.312
24013W        W88221  26.673  13.123  12.857
24014W        W88222  30.069  16.587   3.680
24015W        W88223   7.832  35.093  11.870
24016W        W88224  39.890   4.427   2.727
24017W        W88225  25.218  37.340  13.457
24018W        W88226  34.538  13.248  10.981
24019W        W88227  36.922  43.864   2.891
24020W        W88228  22.184  43.871  14.758
24021W        W88229  24.628   0.804   3.658
24022W        W88230  13.316  39.526  12.855
24023W        W88231   3.339  23.045   2.389
24024W        W88232  12.833  30.032   3.640
24025W        W88233  39.872  12.654   2.730
24026W        W88234  24.031   9.746   3.277
24027W        W88235  16.676  34.918   1.296
24028W        W88236  35.024  42.949  14.775
24029W        W88237  13.226  13.757   9.672
24030W        W88238   4.869  35.045  11.912
24031W        W88239  29.016  42.518  11.944
24032W        W88240  30.502  42.808   2.196
24033W        W88241   9.873  25.126  13.336
24034W        W88242  20.092  14.659   1.387
24035W        W88243  23.660  26.460  13.479
24036W        W88244   4.890  26.137   0.446
24037W        W88245  41.448  28.985   4.719
24038W        W88246  37.436  22.052   3.191
24039W        W88247  36.422  21.580   4.251
24040W        W88248  44.799  29.563  14.780
24041W        W88249  44.414  18.580   3.705
24042W        W88250  24.196  33.926  13.980
24043W        W88251  21.606  22.545  14.941
24044W        W88252  14.611  44.982  13.064
24045W        W88253  32.553   0.319  14.413
24046W        W88254  26.505  11.687   4.769
24047W        W88255  42.884  18.167   0.940
24048W        W88256  38.019   2.952  13.910
24049W        W88257  43.015   6.379  14.787
24050W        W88258  40.413  21.757   1.419
24051W        W88259  40.940   0.892  12.450
24052W        W88260  10.265  26.584   2.213
24053W        W88261   3.386  33.059   1.255
24054W        W88262  23.144  37.056   2.772
24055W        W88263  13.270  29.111   1.397
24056W        W88264  40.039  11.811  10.887
24057W        W88265  38.361  16.633   1.923
24058W        W88266  13.782  17.733   2.244
24059W        W88267  17.698  12.177   3.234
24060W        W88268  11.806  20.113   1.840
24061W        W88269   3.320   4.400  11.908
24062W        W88270  22.699  31.076  13.389
24063W        W88271  30.101  19.229  10.456
24064W        W88272  34.402  39.000   4.190
24065W        W88273  22.577   2.943  14.952
24066W        W88274  18.248  27.138   2.711
24067W        W88275  21.757   3.798   1.932
24068W        W88276  38.005   1.394  10.423
24069W        W88277   7.688  26.035   3.297
24070W        W88278  40.506   7.341   2.854
24071W        W88279  30.156   9.868   4.179
24072W        W88280   1.465  36.937   5.664
24073W        W88281  33.016  19.226   1.376
24074W        W88282   0.400  10.640  14.372
24075W        W88283  20.069  22.631  13.807
24076W        W88284  11.297  44.913   0.294
24077W        W88285  39.056   6.701   9.970
24078W        W88286  32.097  44.433  10.548
24079W        W88287  37.555   1.308   0.830
24080W        W88288  38.831   0.457   2.714
24081W        W88289   6.891   5.343  12.554
24082W        W88290   0.949   3.815   2.318
24083W        W88291  39.506  27.527   1.758
24084W        W88292  38.411  32.949   3.656
24085W        W88293  39.552  32.115   3.379
24086W        W88294  32.033  24.493   2.211
24087W        W88295  36.379  34.592  12.536
24088W        W88296   0.338  14.175   2.191
24089W        W88297  27.088  34.562  10.421
24090W        W88298   6.762  40.366  11.513
24091W        W88299  11.185   4.785   2.204
24092W        W88300   5.897  29.666   0.918
24093W        W88301  27.673  39.030  13.062
24094W        W88302   3.355  43.498   1.279
24095W        W88303  20.033  31.477   4.337
24096W        W88304  12.336  22.012  11.947
24097W        W88305  18.261  31.450  11.413
24098W        W88306   8.250  40.459  10.539
24099W        W88307  38.048  20.136  11.892
24100W        W88308  23.684  18.054   5.264
24101W        W88309   9.855   8.195   1.777
24102W        W88310  41.885   7.690   2.754
24103W        W88311  15.301  40.865  11.981
24104W        W88312   4.231   9.651   1.758
24105W        W88313  22.067   1.416   1.443
24106W        W88314  29.545  28.505  11.488
24107W        W88315  12.323  19.637  14.903
24108W        W88316  17.716  16.231   2.710
24109W        W88317  32.482  12.295  10.899
24110W        W88318  13.234  38.028  12.417
24111W        W88319  28.467  29.091   1.827
24112W        W88320  38.988  28.571   4.278
24113W        W88321  39.491  41.940  12.514
24114W        W88322  42.983   7.679   0.322
24115W        W88323  14.798  43.328   1.438
24116W        W88324  39.859  13.346   1.431
24117W        W88325  28.061   7.389   4.309
24118W        W88326   2.863  24.500   0.767
24119W        W88327   5.336   5.838   2.225
24120W        W88328  34.605  10.774  13.024
24121W        W88329  31.999   8.848   9.960
24122W        W88330  42.420  10.193   0.332
24123W        W88331  31.958  32.071   1.784
24124W        W88332   2.347  44.801   4.149
24125W        W88333  24.635   9.205   2.873
24126W        W88334   4.234   5.390   4.205
24127W        W88335  17.248  24.199   0.417
24128W        W88336  18.610  17.724  14.926
24129W        W88337  21.159  34.479  11.107
24130W        W88338  42.799  31.991   4.289
24131W        W88339  13.696  36.370   1.758
24132W        W88340  17.611  18.574   0.395
24133W        W88341  22.634  27.527   0.351
24134W        W88342  25.084   1.783   1.842
24135W        W88343   8.667  15.624  14.462
24136W        W88344   1.290   8.660   2.325
24137W        W88345   9.854  42.878   1.783
24138W        W88346  17.173  39.997  11.571
24139W        W88347  29.922  10.661   2.359
24140W        W88348   7.305  15.135   2.341
24141W        W88349  38.974  16.800  14.473
24142W        W88350   0.952  38.475   2.365
24143W        W88351  15.291   7.397  12.833
24144W        W88352  13.606  31.480  13.837
24145W        W88353  33.890  20.037  12.028
24146W        W88354   0.464  14.683  13.504
24147W        W88355  23.570  29.617   1.755
24148W        W88356  30.051  14.818   3.707
24149W        W88357  17.703  38.964   3.285
24150W        W88358  16.811  34.378  13.010
24151W        W88359  18.110   5.745  13.841
24152W        W88360  23.096  23.660  12.092
24153W        W88361  10.869  39.509   1.929
24154W        W88362  15.305   2.768   1.931
24155W        W88363  24.218  44.354  14.330
24156W        W88364   2.954  13.175   1.825
24157W        W88365  29.434  29.988  13.938
24158W        W88366  16.782  39.929   0.331
24159W        W88367   3.939  30.474  10.641
24160W        W88368  19.131  25.554   3.229
24161W        W88369  38.542  16.221   5.747
24162W        W88370  15.703  17.294  12.978
24163W        W88371  32.029  33.110   1.730
24164W        W88372   4.434  24.722   3.199
24165W        W88373  11.675  37.538  13.380
24166W        W88374  41.803   7.276   5.119
24167W        W88375   1.441  42.341   2.373
24168W        W88376  15.740  30.919  11.018
24169W        W88377   6.899  36.986  13.526
24170W        W88378  10.310  41.840   1.222
24171W        W88379  14.095   5.769  14.429
24172W        W88380  25.597  15.762   2.672
24173W        W88381   2.892   3.441  10.483
24174W        W88382   7.847   4.741  14.334
24175W        W88383  12.155  20.068   0.387
24176W        W88384   8.217  14.293  12.078
24177W        W88385  40.956  13.346   1.716
24178W        W88386  12.272  31.920   3.787
24179W        W88387   6.379   4.944  14.467
24180W        W88388  22.125  21.571   2.284
24181W        W88389  11.179   6.402  14.411
24182W        W88390  10.356  10.725  13.463
24183W        W88391  44.854  10.834  10.897
24184W        W88392  33.437   6.408   3.867
24185W        W88393  12.186  14.237   0.888
24186W        W88394   8.709  24.561  14.495
24187W        W88395  32.551  17.613   9.622
24188W        W88396  30.423  29.114  12.883
24189W        W88397   2.226  16.589   3.854
24190W        W88398  42.880  44.402  13.342
24191W        W88399  14.624  16.579   1.698
24192W        W88400  12.817   4.944   0.339
24193W        W88401   4.284  35.939   0.750
24194W        W88402   7.330  27.666  11.985
24195W        W88403  38.516  12.661   3.368
24196W        W88404  22.558   8.382  11.438
24197W        W88405  40.533  12.229  10.907
24198W        W88406  14.252  11.330  10.446
24199W        W88407   7.375  32.016  10.564
24200W        W88408   2.736  26.497  11.997
24201W        W88409  27.034   9.649   4.648
24202W        W88410  36.946  28.115   0.322
24203W        W88411  14.732  34.071   2.391
24204W        W88412   7.274  17.105  14.436
24205W        W88413  21.739  18.740  13.912
24206W        W88414  38.873  43.276  11.921
24207W        W88415   4.386  37.427   1.927
24208W        W88416   9.160  26.618   1.722
24209W        W88417  20.747   8.292   1.894
24210W        W88418  12.241  29.152  14.385
24211W        W88419  28.145  12.250  12.418
24212W        W88420  38.959  34.039  10.539
24213W        W88421  15.302  30.414  10.429
24214W        W88422  35.450  44.923  11.009
24215W        W88423  43.492  40.419  13.310
24216W        W88424  20.173  44.304  14.461
24217W        W88425  11.840  40.913   2.380
24218W        W88426  36.430  44.377  14.421
24219W        W88427  42.965  16.128   4.299
24220W        W88428  41.352  31.459  12.571
24221W        W88429   0.946  31.482   1.761
24222W        W88430  33.126  24.121   2.374
24223W        W88431   6.734  28.499   1.385
24224W        W88432  43.771  36.937  11.511
24225W        W88433  38.493  37.886  13.812
24226W        W88434   8.833   9.291   0.278
24227W        W88435   2.341  35.379   0.400
24228W        W88436  10.855  23.611  10.903
24229W        W88437   2.426  33.396   0.894
24230W        W88438  21.099   0.253  11.469
24231W        W88439  36.501  19.210   4.237
24232W        W88440  37.898   9.375  14.275
24233W        W88441  11.238  23.507   0.456
24234W        W88442  41.537  17.301   1.292
24235W        W88443  17.637  17.756   1.924
24236W        W88444   4.743  16.260   2.868
24237W        W88445  28.930  41.294  12.081
24238W        W88446  21.169  43.277   4.800
24239W        W88447   3.280   9.320  11.939
24240W        W88448   3.277  17.192   3.215
24241W        W88449  19.214  12.176  11.991
24242W        W88450   0.966  14.147   4.640
24243W        W88451  30.066  36.048   2.321
24244W        W88452  36.498   9.154  13.880
24245W        W88453  25.976  39.357  11.969
24246W        W88454  24.600  43.326  11.869
24247W        W88455   4.208  21.667   4.698
24248W        W88456   4.373  35.357  13.386
24249W        W88457  12.743  32.528   4.695
24250W        W88458  12.801  34.938   2.418
24251W        W88459  41.842  10.296  11.455
24252W        W88460  15.743   3.461   2.821
24253W        W88461  25.517   6.361  13.388
24254W        W88462  41.010   0.757   2.402
24255W        W88463  27.655  18.550   4.164
24256W        W88464  17.583  43.472  13.486
24257W        W88465  34.863  13.164  11.052
24258W        W88466   6.887  23.074  12.473
24259W        W88467  37.568  39.461  13.369
24260W        W88468  25.658  17.076  11.494
24261W        W88469  14.703  37.346  11.103
24262W        W88470   2.792   0.312  12.532
24263W        W88471  43.512  43.864  12.348
24264W        W88472   6.407   6.722   3.860
24265W        W88473   4.321  38.000  11.604
24266W        W88474  12.659  35.367   3.853
24267W        W88475  27.535  22.204   3.204
24268W        W88476  40.018  16.318  10.942
24269W        W88477  39.925  25.643   4.239
24270W        W88478  28.514  29.016  12.422
24271W        W88479   0.801  35.585  13.943
24272W        W88480  14.710  30.472   3.354
24273W        W88481  36.981  32.027   4.757
24274W        W88482   8.744   0.320  10.645
24275W        W88483  34.878  27.092  14.323
24276W        W88484   2.727  33.572   5.773
24277W        W88485   2.810  10.225   1.316
24278W        W88486   2.441  15.225   2.741
24279W        W88487  13.609  31.484   4.706
24280W        W88488   9.822  40.910   3.166
24281W        W88489  14.625  18.776   4.175
24282W        W88490  27.530  38.510   3.773
24283W        W88491   5.795  16.235  13.325
24284W        W88492  24.564  17.123  10.532
24285W        W88493   0.750   7.228   1.401
24286W        W88494  32.105  37.068  13.370
24287W        W88495  23.500   9.791   2.369
24288W        W88496   5.909   7.863  12.026
24289W        W88497   5.731  20.201  13.958
24290W        W88498   9.154  16.157  10.990
24291W        W88499  20.121  14.642  14.297
24292W        W88500   7.245  41.493   3.223
24293W        W88501  17.786  10.713   0.275
24294W        W88502  16.188  15.099  13.452
24295W        W88503  42.397  10.238   0.736
24296W        W88504  30.605  41.951  14.799
24297W        W88505  24.990  29.630  11.427
24298W        W88506  10.751   0.412   3.671
24299W        W88507  25.590  30.154   2.245
24300W        W88508  22.104  38.484  12.354
24301W        W88509   4.900   3.410  13.843
24302W        W88510   5.810  38.956   2.849
24303W        W88511  17.605  37.055  13.917
24304W        W88512  10.834  38.998   4.314
24305W        W88513  28.165   7.665  14.425
24306W        W88514  26.558  43.505   3.233
24307W        W88515   5.873  22.247   0.913
24308W        W88516   1.347  24.188   0.814
24309W        W88517  33.947  42.777  14.839
24310W        W88518   3.814  33.042  12.505
24311W        W88519   4.388   9.693   3.387
24312W        W88520  30.119  31.641   0.799
24313W        W88521  21.238  41.430  14.999
24314W        W88522  13.643  11.329   1.837
24315W        W88523   4.730  21.637  14.387
24316W        W88524   6.337   2.950   2.708
24317W        W88525  12.221  21.692   0.390
24318W        W88526  29.545   0.375  13.021
24319W        W88527  19.748  21.091   3.716
24320W        W88528  35.015  22.538   5.130
24321W        W88529   0.454  33.533  11.452
24322W        W88530  22.709  17.632  13.498
24323W        W88531   8.751  44.961  13.989
24324W        W88532   5.314  41.425  10.438
24325W        W88533  16.784  11.225  11.046
24326W        W88534  28.024  26.092  13.309
24327W        W88535   0.933  28.668  10.484
24328W        W88536  44.916   6.885   0.417
24329W        W88537  36.416  24.229  12.437
24330W        W88538  44.934  31.529  14.993
24331W        W88539   8.338  27.502  14.987
24332W        W88540  11.717   0.855   5.248
24333W        W88541  16.591   5.806   5.803
24334W        W88542  26.513  17.293  10.601
24335W        W88543   2.839  21.562  10.918
24336W        W88544   6.714  20.150   3.725
24337W        W88545  40.026   8.198  10.462
24338W        W88546  25.474  33.474  14.829
24339W        W88547  33.518  30.913   0.306
24340W        W88548  15.183  34.535   2.234
24341W        W88549  21.132  42.895   1.245
24342W        W88550   5.713  27.611   0.925
24343W        W88551  37.019  10.874  12.001
24344W        W88552  27.568  40.329  14.986
24345W        W88553   5.247  34.993   0.900
24346W        W88554   5.783   1.240  11.580
24347W        W88555  20.125  40.904  13.410
24348W        W88556  43.343  24.054   3.386
24349W        W88557   5.356  21.716  11.935
24350W        W88558  17.678  34.882  11.110
24351W        W88559  19.598   0.369   2.859
24352W        W88560  28.508   6.299  13.036
24353W        W88561  34.998  33.480   2.203
24354W        W88562  37.894  44.926  12.517
24355W        W88563   5.923  35.591   2.288
24356W        W88564  13.127  30.108   3.797
24357W        W88565  28.109  29.998  14.511
24358W        W88566  19.734  12.721   2.872
24359W        W88567  39.509  37.538  13.944
24360W        W88568  15.750  20.753  10.504
24361W        W88569  28.107  36.398   3.720
24362W        W88570   4.834  40.959   1.862
24363W        W88571  36.373   3.742  12.972
24364W        W88572  35.520   8.378   3.771
24365W        W88573  11.317  18.700   4.647
24366W        W88574  25.121  20.708   2.417
24367W        W88575  24.670  42.789   3.264
24368W        W88576  22.698  33.480   2.345
24369W        W88577   2.271  29.974  11.457
24370W        W88578   7.818  10.352  13.536
24371W        W88579  32.099  43.995   4.183
24372W        W88580  16.290  20.265   1.373
24373W        W88581  30.972  29.110  11.021
24374W        W88582   6.419  32.142  13.939
24375W        W88583  35.498  22.537  12.372
24376W        W88584  19.234  10.692  14.382
24377W        W88585  15.315  25.122  13.024
24378W        W88586  16.191  40.417   3.313
24379W        W88587   9.671  30.018   3.781
24380W        W88588  42.414  42.861  11.977
24381W        W88589  13.664  26.457   1.237
24382W        W88590  30.053   1.941   2.231
24383W        W88591  42.349  42.930  12.547
24384W        W88592  26.109  26.070   1.732
24385W        W88593  14.227   6.275  14.001
24386W        W88594  38.512  10.793   2.195
24387W        W88595  33.419  18.245   3.800
24388W        W88596  14.741   6.899   0.404
24389W        W88597  22.179  22.623  14.908
24390W        W88598  43.817  16.649  14.446
24391W        W88599  42.348  32.617   2.799
24392W        W88600   9.247  19.048  10.986
24393W        W88601  19.641  32.037  10.899
24394W        W88602  28.632  38.933   3.212
24395W        W88603  43.936   3.824  14.881
24396W        W88604  21.107  15.652  11.872
24397W        W88605   8.792  29.115  12.947
24398W        W88606  41.819   8.848   4.702
24399W        W88607  41.469  14.238  10.608
24400W        W88608  25.996  43.911  11.493
24401W        W88609  10.692   4.246   3.263
24402W        W88610   9.841  25.481   3.263
24403W        W88611  32.579  22.194  10.449
24404W        W88612  21.263  30.434  12.823
24405W        W88613  15.165  24.009   4.658
24406W        W88614  28.126  27.530   1.234
24407W        W88615  15.197  31.519  13.319
24408W        W88616  30.927   5.404  11.049
24409W        W88617  39.321  21.256   4.235
24410W        W88618  38.405  22.694  13.441
24411W        W88619  42.421  11.138   4.689
24412W        W88620   7.850  22.725  13.794
24413W        W88621  43.395  10.677  11.479
24414W        W88622  38.921  32.553  11.122
24415W        W88623  15.660   4.266   4.335
24416W        W88624   0.443   3.438   0.894
24417W        W88625  19.718  42.873   0.356
24418W        W88626   0.938   4.387   0.853
24419W        W88627  36.091   8.326  14.836
24420W        W88628  31.088  14.735  11.924
24421W        W88629  27.061   8.316   4.240
24422W        W88630  16.780  17.204  13.824
24423W        W88631  44.330   3.865   3.372
24424W        W88632  13.282  24.544  12.544
24425W        W88633  19.634  39.431   3.307
24426W        W88634  37.366   3.263   2.782
24427W        W88635  29.491  14.812   2.241
24428W        W88636  10.636  10.836   4.326
24429W        W88637  17.307  22.679   5.282
24430W        W88638  23.682  20.760  14.975
24431W        W88639  39.939  31.636   2.353
24432W        W88640  10.237   4.264  14.810
24433W        W88641  19.720  31.963   2.768
24434W        W88642  29.149  11.656   2.280
24435W        W88643   5.912  34.115  12.994
24436W        W88644   8.807  36.019   4.838
24437W        W88645  19.282  33.524  13.536
24438W        W88646  18.705  19.217   4.353
24439W        W88647  12.302  10.270  14.509
24440W        W88648   6.706  29.145   1.289
24441W        W88649  41.487  35.984  10.597
24442W        W88650  37.869  16.691  14.910
24443W        W88651  39.978   8.717  13.951
24444W        W88652  15.700   5.829  14.959
24445W        W88653  17.670   1.261  11.026
24446W        W88654  22.743  38.022  11.465
24447W        W88655  27.954  13.128   3.250
24448W        W88656  16.627  38.923  10.099
24449W        W88657  13.342  28.680   2.293
24450W        W88658  36.388  15.315  12.872
24451W        W88659  33.437  28.679  14.898
24452W        W88660  10.703  42.346   4.838
24453W        W88661  25.087   7.850  10.591
24454W        W88662  29.951  12.846   0.444
24455W        W88663  25.555  24.015   0.336
24456W        W88664  41.836   7.901   1.222
24457W        W88665  36.367  31.564  10.533
24458W        W88666  15.091  43.485  12.902
24459W        W88667  32.974  38.018   4.834
24460W        W88668  36.465  44.938   3.294
24461W        W88669  26.208  34.883   2.798
24462W        W88670  39.537  44.414  13.537
24463W        W88671  13.620  18.223  11.910
24464W        W88672  20.054  44.470  10.412
24465W        W88673   2.460  19.111   2.279
24466W        W88674   7.669  33.516   1.752
24467W        W88675  37.434   2.326   2.300
24468W        W88676  19.208  35.444  14.403
24469W        W88677  17.580   6.851   2.329
24470W        W88678  38.890  31.010   4.674
24471W        W88679  25.002  25.519   1.722
24472W        W88680  14.172  43.422   4.165
24473W        W88681  29.535  40.436   4.601
24474W        W88682  30.629   1.845  12.463
24475W        W88683  42.995   1.776  10.947
24476W        W88684  23.687  10.254  12.850
24477W        W88685  28.014  27.510  13.428
24478W        W88686   6.183   5.696  14.450
24479W        W88687  18.791   5.841   4.653
24480W        W88688  35.051  18.597  10.425
24481W        W88689  36.520  33.930  11.937
24482W        W88690  35.897  37.087  14.441
24483W        W88691  15.701   8.700  14.846
24484W        W88692  10.190  35.410   9.956
24485W        W88693  31.465   9.688   3.321
24486W        W88694  13.206  23.498  13.836
24487W        W88695  20.102  42.969  11.944
24488W        W88696  41.353  32.453   3.817
24489W        W88697  31.510   4.436   3.367
24490W        W88698   1.368  25.656  14.379
24491W        W88699  16.111  13.215   2.355
24492W        W88700   4.256  27.453   0.379
24493W        W88701   9.874  25.601  13.452
24494W        W88702   9.773  29.140   1.917
24495W        W88703  29.487  43.351  14.341
24496W        W88704  38.424   6.839   1.739
24497W        W88705  44.425  36.434   2.794
24498W        W88706  34.105  16.308   5.747
24499W        W88707  34.928   5.210  14.848
24500W        W88708  43.989  20.575  11.018
24501W        W88709   5.252   1.758  14.839
24502W        W88710  41.041   4.728   2.244
24503W        W88711  20.132   8.263  10.414
24504W        W88712  24.070  32.085   1.451
24505W        W88713  18.770  15.119  11.578
24506W        W88714  11.858   7.370  11.562
24507W        W88715  34.535  33.095  11.043
24508W        W88716  35.404   3.761   1.935
24509W        W88717  20.180  41.881  12.379
24510W        W88718  33.048   2.757   3.785
24511W        W88719  16.717  10.236  10.510
24512W        W88720  16.755   6.366  10.408
24513W        W88721  40.839  15.737  11.058
24514W        W88722   8.675   0.989   2.829
24515W        W88723  12.797  36.077  13.941
24516W        W88724  11.685  42.428  10.959
24517W        W88725  33.042  21.727  13.539
24518W        W88726   5.699  27.498   2.760
24519W        W88727  41.352  41.510  12.857
24520W        W88728  19.710   6.777  11.580
24521W        W88729  26.583  30.588  12.935
24522W        W88730  41.023  12.295   1.370
24523W        W88731  26.007  16.147  10.998
24524W        W88732   8.799  18.211  13.432
24525W        W88733  29.999  36.955   3.709
24526W        W88734  22.519  36.956   1.414
24527W        W88735   2.800  36.587  14.792
24528W        W88736  23.557  35.962  12.931
24529W        W88737  35.376  10.838  10.993
24530W        W88738  41.027   1.901  12.967
24531W        W88739  38.512  21.065   3.859
24532W        W88740  38.047  32.061   4.295
24533W        W88741  13.661  13.704   4.329
24534W        W88742  41.415  35.969  14.303
24535W        W88743  37.399  28.490   2.359
24536W        W88744   3.344  40.408   1.733
24537W        W88745  14.770  24.622  11.599
24538W        W88746  41.333  41.864   3.848
24539W        W88747  30.615  26.998   2.264
24540W        W88748   8.748   6.305  12.361
24541W        W88749  32.398  24.019  11.004
24542W        W88750  44.351   3.325   0.272
24543W        W88751   6.826  27.000  14.906
24544W        W88752  24.219   2.374  12.523
24545W        W88753  14.264  42.967   1.832
24546W        W88754  37.058  16.311   4.351
24547W        W88755  16.646  30.529   2.406
24548W        W88756  13.211  18.747  12.356
24549W        W88757   0.320  15.742  10.933
24550W        W88758   3.915  38.546   0.851
24551W        W88759  13.807  29.557  10.447
24552W        W88760  43.340  16.283  12.370
24553W        W88761  22.698  43.934  12.486
24554W        W88762  25.106  10.298   3.647
24555W        W88763  31.911   5.213   1.399
24556W        W88764  19.157  33.418  14.859
24557W        W88765  22.218  23.611   2.740
24558W        W88766  18.752  28.085  10.482
24559W        W88767   5.814   9.748   2.415
24560W        W88768  11.160   2.908   0.474
24561W        W88769  27.549  17.184   4.314
24562W        W88770  27.675  28.944   3.709
24563W        W88771  22.112  31.569   1.300
24564W        W88772   8.390   1.827   3.277
24565W        W88773  21.097  23.685   0.290
24566W        W88774  37.517  21.038   3.857
24567W        W88775  16.813  17.763  12.418
24568W        W88776  22.578   2.412  14.001
24569W        W88777  41.382  42.916   1.871
24570W        W88778   0.770  21.516   3.279
24571W        W88779  25.135  14.284   3.187
24572W        W88780   4.407  33.400  12.437
24573W        W88781  38.554  34.883  12.555
24574W        W88782  30.533  41.861   4.321
24575W        W88783  18.268  11.260   1.789
24576W        W88784   8.275   6.331  13.873
24577W        W88785   3.914  10.758  11.054
24578W        W88786  33.063  23.216   0.456
24579W        W88787  37.441   8.848  12.941
24580W        W88788  41.839  23.094  11.468
24581W        W88789  17.112  40.993  11.036
24582W        W88790  28.472   3.752   2.748
24583W        W88791  35.875  41.003  14.963
24584W        W88792  17.255  37.863  12.392
24585W        W88793  39.978   3.767  13.909
24586W        W88794   9.802   3.364  13.450
24587W        W88795  20.089  27.543   1.758
24588W        W88796  26.600  16.216   3.862
24589W        W88797   9.273  14.601   1.904
24590W        W88798  13.166  27.512   3.188
24591W        W88799   1.861  34.499  12.066
24592W        W88800  43.989  22.035  11.876
24593W        W88801  34.954   4.217   4.327
24594W        W88802   7.682  34.051   1.255
24595W        W88803  31.929  13.206   4.830
24596W        W88804  39.516  23.989  11.391
24597W        W88805  42.776   0.275  12.880
24598W        W88806  25.143  16.252  14.971
24599W        W88807  10.349  31.414   3.195
24600W        W88808   0.977   7.772   3.257
24601W        W88809  24.692  31.441  14.483
24602W        W88810  13.108  15.715   5.311
24603W        W88811   6.315  19.768  11.045
24604W        W88812  28.509  32.597  12.372
24605W        W88813  24.103   3.220   0.872
24606W        W88814  42.417   9.663  13.908
24607W        W88815  33.945   3.866   4.767
24608W        W88816  32.011  37.057  13.838
24609W        W88817   5.427  28.083  11.973
24610W        W88818   3.868   2.908   0.883
24611W        W88819   3.826  27.456  11.383
24612W        W88820  18.271  37.977   3.273
24613W        W88821  40.453   1.455   0.852
24614W        W88822  23.037  41.335   0.960
24615W        W88823  31.638   6.723   0.386
24616W        W88824  38.988  40.018   1.929
24617W        W88825  12.352  30.945   2.803
24618W        W88826  25.159  22.242  14.996
24619W        W88827   7.383   9.290   2.862
24620W        W88828  34.044  16.788  13.943
24621W        W88829  13.709   0.412  10.890
24622W        W88830   4.393  35.590   2.331
24623W        W88831  32.579  39.491  14.772
24624W        W88832  29.454  37.383  11.566
24625W        W88833   8.393  14.159  12.959
24626W        W88834  14.239  37.905  11.077
24627W        W88835  20.732  24.173   1.727
24628W        W88836  41.902  26.685   1.400
24629W        W88837  10.719   8.864  13.022
24630W        W88838   5.249  30.463   3.372
24631W        W88839  29.434   4.408  14.934
24632W        W88840   6.701  14.607  12.345
24633W        W88841  39.437  25.662  11.611
24634W        W88842  42.028  21.702   3.846
24635W        W88843   4.203  42.507   3.697
24636W        W88844  28.121  34.499  10.133
24637W        W88845   9.882  29.955   0.845
24638W        W88846  39.490   5.842   4.635
24639W        W88847  25.165  16.758   3.668
24640W        W88848  17.150  27.690   0.845
24641W        W88849  44.942  39.994  10.577
24642W        W88850   5.433  25.201  14.908
24643W        W88851   7.250  19.536   0.890
24644W        W88852  10.354  31.542   1.427
24645W        W88853  41.036  20.604  12.981
24646W        W88854  37.042   4.882   4.716
24647W        W88855  37.517  17.133  12.539
24648W        W88856  18.223  42.977   2.889
24649W        W88857  35.502  34.928  14.827
24650W        W88858  20.635  18.606   9.565
24651W        W88859  34.591   6.273   2.791
24652W        W88860  20.624  23.591   0.271
24653W        W88861  14.241  17.308   1.731
24654W        W88862   6.413   9.272   0.438
24655W        W88863  33.451  24.545   3.340
24656W        W88864  22.010  33.574  11.480
24657W        W88865  16.287   3.231  11.989
24658W        W88866  11.178  29.077   1.831
24659W        W88867  14.658  15.203  13.412
24660W        W88868  32.951   3.342   2.274
24661W        W88869  44.002  40.836  13.520
24662W        W88870   8.273  27.478  11.084
24663W        W88871  29.600  14.295   2.372
24664W        W88872   3.762   5.830  14.765
24665W        W88873  22.559   4.935   3.651
24666W        W88874  23.658  10.720   4.741
24667W        W88875  35.109  14.257   0.373
24668W        W88876  20.584  10.197   3.298
24669W        W88877  18.716  40.912  14.991
24670W        W88878  30.547  24.479   3.174
24671W        W88879   0.824   5.279   4.612
24672W        W88880  33.528  35.369   2.762
24673W        W88881  41.428   2.727   4.234
24674W        W88882  22.543  35.401  10.091
24675W        W88883  32.954  11.282   0.249
24676W        W88884   1.773  14.617  11.589
24677W        W88885  35.482  20.655   1.338
24678W        W88886   8.855  32.973  10.483
24679W        W88887  22.211  14.754   2.296
24680W        W88888  29.034  40.350  10.933
24681W        W88889  30.940  28.015  13.889
24682W        W88890  40.924  37.544   4.202
24683W        W88891  21.163  16.667  11.468
24684W        W88892  31.054  11.701   4.339
24685W        W88893  22.722  28.061  13.520
24686W        W88894  32.900  36.849  13.455
24687W        W88895  24.147  16.248   3.215
24688W        W88896   6.795  36.032   3.280
24689W        W88897   4.710  12.350  14.784
24690W        W88898   2.729  38.900  11.511
24691W        W88899  15.096  33.534   4.652
24692W        W88900  18.707  12.832  13.923
24693W        W88901  32.540  13.599  11.119
24694W        W88902  38.423  36.033  12.854
24695W        W88903  29.125  11.768  14.933
24696W        W88904   4.781  35.040  13.829
24697W        W88905  33.053   4.428   4.651
24698W        W88906  25.025  43.014  10.505
24699W        W88907  23.096  42.414   3.289
24700W        W88908  22.598   8.353   2.801
24701W        W88909  30.508  12.219   2.371
24702W        W88910  25.603   0.918   3.309
24703W        W88911  39.534  32.533  10.430
24704W        W88912  39.004  11.158   3.845
24705W        W88913  37.853  30.143  11.477
24706W        W88914   5.863  10.726  12.342
24707W        W88915  16.293  28.179   4.652
24708W        W88916  27.112  23.698   1.722
24709W        W88917  10.684  28.977   3.213
24710W        W88918   1.798  17.738   1.724
24711W        W88919   3.447  28.621  10.912
24712W        W88920   0.873   4.244   4.701
24713W        W88921  41.405  32.105  10.029
24714W        W88922  32.471  32.395   1.765
24715W        W88923  12.275  30.042   1.429
24716W        W88924  27.192  22.681   0.838
24717W        W88925  42.458  12.339  12.075
24718W        W88926  40.515  11.336  13.502
24719W        W88927   4.383  32.632   3.818
24720W        W88928  17.650  32.504   4.709
24721W        W88929  18.590  36.011  14.335
24722W        W88930  33.073  38.952   3.805
24723W        W88931  37.497  24.639   0.265
24724W        W88932  42.348   8.359   2.318
24725W        W88933  10.275   6.412   2.301
24726W        W88934  19.731  36.487  10.950
24727W        W88935  25.071  19.113  10.615
24728W        W88936  40.952   5.252   1.237
24729W        W88937   1.274   4.338   4.311
24730W        W88938   7.839   1.452  11.037
24731W        W88939  35.879   6.697  12.506
24732W        W88940  16.221  38.944   3.216
24733W        W88941  44.951  35.902   3.812
24734W        W88942  16.267  18.710  10.946
24735W        W88943   6.267  16.774   1.344
24736W        W88944  43.001  25.665  14.369
24737W        W88945  25.054   7.387  10.636
24738W        W88946   0.308   1.394  13.538
24739W        W88947  13.108   7.374  13.016
24740W        W88948  31.615  26.964  10.617
24741W        W88949  24.124  17.723   3.372
24742W        W88950  13.843  44.896  13.019
24743W        W88951   0.254  18.737  10.540
24744W        W88952  17.707  39.010   0.877
24745W        W88953  31.414  22.127   2.190
24746W        W88954  28.091  16.136   4.242
24747W        W88955   1.358   9.680   2.732
24748W        W88956   4.445   2.767   0.387
24749W        W88957   2.248  14.314  12.091
24750W        W88958  24.110   4.715  12.407
24751W        W88959  13.328  22.236  14.286
24752W        W88960  21.101  23.204   0.244
24753W        W88961  23.694  12.286  12.029
24754W        W88962  44.783  43.480  11.550
24755W        W88963  37.051   5.204   2.736
24756W        W88964  35.382   7.746   1.256
24757W        W88965  44.806  40.039  13.963
24758W        W88966  35.429   7.352  11.521
24759W        W88967  25.979  11.261   3.793
24760W        W88968  29.611  42.412   4.202
24761W        W88969  41.022  12.147   3.685
24762W        W88970  26.557  14.616   1.293
24763W        W88971  32.419   9.271  12.964
24764W        W88972   0.404  18.764   2.315
24765W        W88973   7.250   0.273  12.350
24766W        W88974  28.133  33.422   4.607
24767W        W88975  42.470  17.090   3.800
24768W        W88976  20.637  25.975   0.344
24769W        W88977   6.837  34.093   2.789
24770W        W88978  30.549  27.679  13.439
24771W        W88979  11.697  35.079   4.240
24772W        W88980  44.408  29.124   9.566
24773W        W88981  31.936  13.764   4.119
24774W        W88982  13.284  29.447  12.557
24775W        W88983   9.782  36.470   0.328
24776W        W88984  42.469  24.053   2.674
24777W        W88985  24.030  16.240  14.880
24778W        W88986  34.975  18.613  12.032
24779W        W88987  39.554   3.251   2.219
24780W        W88988  42.487  25.537  12.409
24781W        W88989  27.195   0.776  13.976
24782W        W88990  14.710  16.586   0.803
24783W        W88991  17.236  28.045  10.550
24784W        W88992   7.186  36.586  12.000
24785W        W88993   6.350  39.501  11.027
24786W        W88994  28.032  37.957  12.072
24787W        W88995  30.150  43.846   2.818
24788W        W88996   2.257   3.776   4.210
24789W        W88997  27.582  35.035  14.311
24790W        W88998   9.191  11.208  12.841
24791W        W88999  20.029  21.548  14.927
24792W        W89000  36.980   1.799   2.311
24793W        W89001  36.574  24.537   3.232
24794W        W89002  23.586  18.725   2.747
24795W        W89003  42.493  25.213  12.525
24796W        W89004   3.415  24.623  11.856
24797W        W89005   6.395  17.780  11.945
24798W        W89006  16.315  36.399   3.269
24799W        W89007  34.974  29.039   1.211
24800W        W89008  11.725  37.079   4.214
24801W        W89009  27.683  14.636   0.351
24802W        W89010  41.839  36.563  10.928
24803W        W89011  44.980  11.812  11.442
24804W        W89012   3.942  42.799   1.317
24805W        W89013  33.611   2.774   2.707
24806W        W89014  23.720  20.596   0.384
24807W        W89015   6.226  33.123   2.891
24808W        W89016   3.913  44.798  12.448
24809W        W89017   4.374  37.479  14.958
24810W        W89018   3.344  16.631  10.899
24811W        W89019   6.345  25.636   3.667
24812W        W89020  37.455  41.375  14.296
24813W        W89021  35.477  23.158  13.356
24814W        W89022  19.727  27.154  12.429
24815W        W89023  22.624  30.580  12.359
24816W        W89024  34.075  26.650  13.501
24817W        W89025  30.967  11.683   4.617
24818W        W89026  16.574  37.386   1.889
24819W        W89027  30.104  32.503   0.286
24820W        W89028  36.022  40.003   1.902
24821W        W89029   3.786   6.792   0.770
24822W        W89030   1.823   6.748  13.450
24823W        W89031  17.240  19.664  14.859
24824W        W89032  39.945  44.984   4.792
24825W        W89033  39.866  41.433  12.844
24826W        W89034  27.185  11.674  12.073
24827W        W89035  43.486  44.902   2.234
24828W        W89036  28.079   7.877   0.887
24829W        W89037  17.139  42.926  12.978
24830W        W89038  32.013   9.813   2.362
24831W        W89039  37.392  14.811  14.495
24832W        W89040   1.266  15.649  13.898
24833W        W89041  40.518  26.528   2.711
24834W        W89042   2.766  21.603  14.315
24835W        W89043  19.772   9.756  13.408
24836W        W89044   0.803  35.064   2.350
24837W        W89045   9.386   8.246  11.521
24838W        W89046  33.436  35.015  10.455
24839W        W89047  39.376  31.110   1.889
24840W        W89048  35.401  40.799   4.156
24841W        W89049  26.518  12.326  12.446
24842W        W89050  23.648  16.677   9.943
24843W        W89051   5.348  11.835   4.199
24844W        W89052   5.389  18.675   3.321
24845W        W89053  38.977  24.138   1.403
24846W        W89054  12.250  24.605  10.565
24847W        W89055  26.197   2.935   3.164
24848W        W89056   3.252  25.664  13.837
24849W        W89057  11.633  18.214  11.455
24850W        W89058  26.034   7.232   3.327
24851W        W89059  43.917  31.090   2.770
24852W        W89060   2.345  19.756   4.742
24853W        W89061   2.922  16.294   0.842
24854W        W89062  23.510  34.538   4.620
24855W        W89063  10.284  11.708   3.302
24856W        W89064  17.133  22.525  14.895
24857W        W89065   5.362   8.852  14.021
24858W        W89066   3.845  38.917  14.931
24859W        W89067  14.162  14.242  13.960
24860W        W89068  15.595   2.448  14.300
24861W        W89069  18.267  33.617   4.604
24862W        W89070  44.987  10.312  11.461
24863W        W89071  26.625  21.115  12.954
24864W        W89072   6.355  29.502   4.240
24865W        W89073  40.309  12.682  11.538
24866W        W89074  16.123  19.732   4.812
24867W        W89075  27.978   6.192   2.693
24868W        W89076  28.994  29.451  13.433
24869W        W89077   3.408   9.191   4.336
24870W        W89078  21.222  12.735   4.666
24871W        W89079  43.770  14.229  10.634
24872W        W89080  25.065  40.823  10.625
24873W        W89081  42.379   3.403   0.291
24874W        W89082  22.596  17.576  13.803
24875W        W89083  40.428  31.575   0.372
24876W        W89084  19.065   7.843  13.045
24877W        W89085  30.528  29.548  14.780
24878W        W89086   4.411  17.121  11.060
24879W        W89087   5.819  38.486   0.926
24880W        W89088  18.166  27.534   2.859
24881W        W89089  30.999  17.245   3.371
24882W        W89090  39.394   1.882  10.004
24883W        W89091  18.771  34.085   4.213
24884W        W89092  11.347  12.344   1.416
24885W        W89093  19.598  43.308   1.768
24886W        W89094  15.792  31.106   0.915
24887W        W89095  20.064  42.872  10.938
24888W        W89096   9.841  27.177   3.151
24889W        W89097  44.470  14.674  11.858
24890W        W89098   8.851  32.415   0.388
24891W        W89099   6.418  24.596   2.809
24892W        W89100  33.459  17.100   2.396
24893W        W89101  31.080  42.851   5.146
24894W        W89102  21.569  19.160   3.195
24895W        W89103   2.962  40.340   1.231
24896W        W89104   4.285  10.310  13.359
24897W        W89105  11.132   7.698  13.022
24898W        W89106  17.186  38.941  13.923
24899W        W89107   8.722   7.694   3.211
24900W        W89108   2.907  25.543   0.763
24901W        W89109  31.038  14.687   0.951
24902W        W89110  36.418  10.726   4.294
24903W        W89111   8.323  39.978   1.307
24904W        W89112   3.428  35.873   3.199
24905W        W89113  29.444  42.788   2.756
24906W        W89114  34.426   9.868  12.906
24907W        W89115  40.412  19.115   1.788
24908W        W89116  44.341  41.345  14.364
24909W        W89117  16.262   5.424   3.215
24910W        W89118  27.575  40.334   0.790
24911W        W89119  41.509   6.295   4.138
24912W        W89120   9.305  20.037  11.398
24913W        W89121  29.663  12.212   0.962
24914W        W89122  37.061  21.214   4.135
24915W        W89123  42.809   0.344  11.939
24916W        W89124  33.512  17.631   2.674
24917W        W89125  43.351  33.414   1.744
24918W        W89126  38.365  35.391   1.321
24919W        W89127  14.677  22.134   1.701
24920W        W89128   2.788  27.192  12.066
24921W        W89129   9.324  36.032   1.736
24922W        W89130  17.680  28.957  14.936
24923W        W89131  24.090  21.613  12.958
24924W        W89132   7.787  34.442  12.553
24925W        W89133  35.483  32.133  14.861
24926W        W89134  26.105  14.671   3.698
24927W        W89135  33.902   6.828  14.882
24928W        W89136  22.602  19.157   0.861
24929W        W89137  29.630  33.939   2.841
24930W        W89138  14.681  16.144  14.452
24931W        W89139  11.251  36.027   2.714
24932W        W89140  40.332  29.620  11.927
24933W        W89141  44.803   4.254   1.772
24934W        W89142  35.370  13.134   4.241
24935W        W89143  14.612  13.815   3.289
24936W        W89144  24.684  15.603   0.338
24937W        W89145   2.446  14.792  11.946
24938W        W89146  43.334  11.334  11.393
24939W        W89147  44.360  34.401   1.791
24940W        W89148   4.776  39.914   4.215
24941W        W89149  40.541  33.539   4.780
24942W        W89150  10.189   1.359  10.506
24943W        W89151  43.794  30.529  14.966
24944W        W89152   1.298   8.753   4.175
24945W        W89153   4.371  26.134   1.782
24946W        W89154  40.484  33.051  11.938
24947W        W89155  39.833  26.560   3.824
24948W        W89156  15.591  27.064  13.008
24949W        W89157   2.230  18.766   0.273
24950W        W89158  16.764   8.895  12.425
24951W        W89159  38.052  15.615   4.175
24952W        W89160  40.978   9.381   0.849
24953W        W89161   0.826  19.217  13.796
24954W        W89162  32.483  12.306   4.313
24955W        W89163  14.748  18.667  14.324
24956W        W89164   2.966  17.634  10.466
24957W        W89165  25.488  34.051   3.187
24958W        W89166  36.993  39.396   4.130
24959W        W89167  11.294   1.482   1.237
24960W        W89168  36.041  34.070   4.715
24961W        W89169  22.098  12.167  12.499
24962W        W89170  19.213   9.335   2.240
24963W        W89171  29.508  25.135  14.358
24964W        W89172  15.780  34.922   0.325
24965W        W89173  31.496   3.371   0.816
24966W        W89174   0.437  22.633  14.441
24967W        W89175  44.913  32.409   4.310
24968W        W89176  36.868   9.198  14.467
24969W        W89177  31.905  39.033   4.823
24970W        W89178  17.089   5.758  14.387
24971W        W89179   1.359  40.936  11.042
24972W        W89180  25.170  28.567   1.342
24973W        W89181  23.598   9.707   0.959
24974W        W89182  14.653  26.039  13.005
24975W        W89183  36.084  42.926   4.229
24976W        W89184  12.734   5.320   3.857
24977W        W89185  20.643  26.085  11.566
24978W        W89186  38.902  33.624   2.707
24979W        W89187  10.141  39.863   3.209
24980W        W89188  20.706  20.571  10.895
24981W        W89189  12.297  23.714  13.880
24982W        W89190  33.896  12.159  14.963
24983W        W89191   9.808   6.379   0.880
24984W        W89192  44.911  36.423  12.919
24985W        W89193  24.499   5.423  12.842
24986W        W89194  22.589   3.421  10.561
24987W        W89195  43.799   5.780  12.968
24988W        W89196  20.592  44.380   0.368
24989W        W89197  25.072   5.234  10.535
24990W        W89198   3.321   3.844   2.667
24991W        W89199  18.179  41.437  11.102
24992W        W89200   4.302   4.300   2.392
24993W        W89201  35.544  32.049  14.458
24994W        W89202  17.106  25.124   0.265
24995W        W89203  42.974  11.760  12.015
24996W        W89204  25.611  43.765   3.825
24997W        W89205  12.847  40.312  10.999
24998W        W89206  23.614  26.957   1.280
24999W        W89207  41.537  16.260   2.390
25000W        W89208   8.876  44.474  12.547
25001W        W89209  20.547   9.786   5.140
25002W        W89210  44.331  43.984  13.865
25003W        W89211  35.936  31.950   1.259
25004W        W89212  15.099   1.901  11.863
25005W        W89213  18.262  14.675   0.756
25006W        W89214  15.783  42.973   4.733
25007W        W89215  13.774  21.031   0.776
25008W        W89216  29.022   6.893   4.646
25009W        W89217  26.464  28.015  12.921
25010W        W89218  29.559   5.692  12.453
25011W        W89219   0.970  37.338   2.682
25012W        W89220   2.750  24.509  10.483
25013W        W89221  42.372  24.704  11.576
25014W        W89222  34.934   9.295   0.807
25015W        W89223  24.037  19.062   4.629
25016W        W89224  31.570  30.522   0.438
25017W        W89225  21.642  22.022   4.312
25018W        W89226  34.932  32.092  12.524
25019W        W89227  10.283  32.097  13.999
25020W        W89228  15.757  25.207   2.396
25021W        W89229  38.428   0.481   2.273
25022W        W89230  33.947  34.958  12.494
25023W        W89231  25.082  41.302   1.804
25024W        W89232   0.854   6.897  11.490
25025W        W89233   9.890   7.869  11.129
25026W        W89234   0.830  34.499  10.966
25027W        W89235  35.423  29.608   3.851
25028W        W89236  24.992  20.691   0.443
25029W        W89237  44.311  17.200   0.304
25030W        W89238  15.807   7.325   1.402
25031W        W89239  27.181  21.213  13.944
25032W        W89240   1.760  23.002   4.764
25033W        W89241  37.437   9.265   2.765
25034W        W89242  44.265  38.845   1.245
25035W        W89243   5.374  18.172  10.629
25036W        W89244  44.788   2.468   3.750
25037W        W89245   2.327  43.884  11.445
25038W        W89246  42.422   2.318  12.565
25039W        W89247   7.192   8.164   1.726
25040W        W89248  22.219  31.525   0.390
25041W        W89249   8.380  44.378   0.277
25042W        W89250  25.533  11.703  12.986
25043W        W89251   8.197  39.496  12.003
25044W        W89252  17.593  14.311  14.412
25045W        W89253  23.515  34.871   4.795
25046W        W89254  21.107   4.281  10.148
25047W        W89255  26.089  33.625  10.618
25048W        W89256  34.071  34.437   4.658
25049W        W89257  39.925   5.768   0.429
25050W        W89258  19.633  39.349   5.189
25051W        W89259  14.213  22.995  14.418
25052W        W89260  25.614   4.935  14.401
25053W        W89261  31.982  37.457  12.995
25054W        W89262  30.940  31.012  14.831
25055W        W89263   8.803  30.592  13.841
25056W        W89264  43.402  27.634  11.601
25057W        W89265  43.450  32.406  10.497
25058W        W89266  43.372  15.261   0.353
25059W        W89267  17.197  41.501   4.644
25060W        W89268  18.080  18.716  10.493
25061W        W89269  11.347   8.339   3.694
25062W        W89270   3.859  38.026  12.972
25063W        W89271  33.076  32.975   0.348
25064W        W89272  39.425  25.155   5.218
25065W        W89273  10.651  30.984   2.684
25066W        W89274   4.737  17.098   0.427
25067W        W89275  42.315  17.679   2.320
25068W        W89276  44.893  30.562  13.988
25069W        W89277  20.209  29.496  14.375
25070W        W89278   6.852   8.319   2.663
25071W        W89279  29.559  35.412  13.986
25072W        W89280   4.406   0.292  12.450
25073W        W89281  18.276  44.323   1.899
25074W        W89282  21.557  33.035   1.829
25075W        W89283   5.810  21.048   2.406
25076W        W89284  41.952  43.878   0.363
25077W        W89285  43.811  31.115  12.044
25078W        W89286   7.244  27.066  14.023
25079W        W89287  43.931  35.513  12.445
25080W        W89288  43.946  10.239   1.782
25081W        W89289  29.085  33.906  12.007
25082W        W89290  39.028  15.170  14.806
25083W        W89291  43.975   3.285  13.004
25084W        W89292  28.007  24.030   0.883
25085W        W89293   5.745  36.473  10.962
25086W        W89294  21.248  30.963   2.337
25087W        W89295  22.642  26.482   0.311
25088W        W89296  37.527  24.645  13.490
25089W        W89297  24.159  14.698   2.348
25090W        W89298   6.887   6.681  13.544
25091W        W89299  20.243  33.953  13.967
25092W        W89300   1.465  17.125  14.990
25093W        W89301   5.743  39.423   1.339
25094W        W89302   3.309  44.770   3.844
25095W        W89303  18.590  43.951   3.840
25096W        W89304  13.711  11.249  13.819
25097W        W89305   8.168   9.270  14.319
25098W        W89306  11.142  30.485  13.827
25099W        W89307  14.638   6.230   0.398
25100W        W89308  22.661  27.657  14.799
25101W        W89309  28.970  25.611  10.964
25102W        W89310   6.855  39.945   3.272
25103W        W89311   0.874  42.446   4.208
25104W        W89312   8.254  12.612   0.962
25105W        W89313   5.350   1.943   1.222
25106W        W89314  15.108  23.596  11.550
25107W        W89315  18.713   8.728   0.371
25108W        W89316  10.335  44.483  10.158
25109W        W89317  13.320   6.753  11.460
25110W        W89318   8.878  16.118  12.378
25111W        W89319  29.929  38.948   4.234
25112W        W89320  42.954   5.909   4.157
25113W        W89321  26.659  42.918  14.016
25114W        W89322  23.017  19.689  11.092
25115W        W89323  21.128  44.805   0.278
25116W        W89324  38.489  25.700   3.169
25117W        W89325  27.102   0.476  11.896
25118W        W89326  38.851  26.596  12.576
25119W        W89327  29.648  21.130  14.316
25120W        W89328  17.594  20.754  13.940
25121W        W89329   9.393  31.438  10.924
25122W        W89330  18.549  16.717   3.256
25123W        W89331  26.581  21.688  10.409
25124W        W89332   5.414  32.500  14.962
25125W        W89333  40.444  20.095  10.938
25126W        W89334  10.260   8.887  11.389
25127W        W89335  11.756   7.905  10.968
25128W        W89336  23.701   7.293   1.738
25129W        W89337  13.145   8.853  11.945
25130W        W89338  42.890  15.686   3.802
25131W        W89339   0.936  32.924   5.182
25132W        W89340   3.890  29.938   2.708
25133W        W89341  21.112  30.473   1.309
25134W        W89342  17.585  24.146   2.320
25135W        W89343  43.992  36.865  11.926
25136W        W89344  19.236  39.910   3.630
25137W        W89345  34.425  25.527   1.821
25138W        W89346  16.302  38.041  13.045
25139W        W89347  27.652  36.012   0.934
25140W        W89348  13.654  27.605  10.982
25141W        W89349  15.679  21.528  14.408
25142W        W89350  13.132  33.534  12.916
25143W        W89351   8.279   1.879   4.339
25144W        W89352   2.744  16.178   4.310
25145W        W89353  31.088   3.714   1.238
25146W        W89354   5.879  43.355   3.255
25147W        W89355   3.803  44.925   0.285
25148W        W89356   8.765  16.685   1.395
25149W        W89357  34.416  15.300  11.962
25150W        W89358   2.859   5.386   4.669
25151W        W89359  13.731  30.632   1.300
25152W        W89360  29.572  34.930  14.394
25153W        W89361  39.054  15.577   4.173
25154W        W89362   9.814   3.872  11.092
25155W        W89363  33.418  41.357  12.407
25156W        W89364  32.587  14.217   0.831
25157W        W89365  21.020  41.313  10.524
25158W        W89366  30.514  12.143  14.352
25159W        W89367  23.729  43.009  14.479
25160W        W89368  44.268  33.468  13.012
25161W        W89369  10.154  10.159   0.359
25162W        W89370  13.612  24.591  14.493
25163W        W89371  31.578  35.102   3.239
25164W        W89372  42.502   1.786   0.344
25165W        W89373   8.370  43.871  10.624
25166W        W89374  32.946  39.449   2.236
25167W        W89375  42.876  24.182  10.535
25168W        W89376   0.956  24.154  12.962
25169W        W89377  21.072  35.358  13.951
25170W        W89378  18.097   2.369   3.784
25171W        W89379  15.744  22.039   0.451
25172W        W89380   7.286   0.394  11.532
25173W        W89381  28.016  14.741   2.841
25174W        W89382  44.899  13.799  12.925
25175W        W89383  20.120  15.610  11.928
25176W        W89384   2.352  13.154   0.882
25177W        W89385   2.743  34.588   3.771
25178W        W89386  29.990  40.054  13.447
25179W        W89387  33.537  10.256  12.341
25180W        W89388  12.830   9.670  12.841
25181W        W89389  29.051  33.002  10.555
25182W        W89390  27.035  12.315  10.950
25183W        W89391  17.282  31.646   4.712
25184W        W89392  34.971  34.533   0.362
25185W        W89393  44.307  14.706   4.659
25186W        W89394  30.153  44.922  14.851
25187W        W89395  42.855  10.805   0.295
25188W        W89396  32.635  30.029  11.104
25189W        W89397  43.871  35.392   5.679
25190W        W89398  37.918   6.234  12.572
25191W        W89399  29.621  28.660  13.947
25192W        W89400  14.666   5.913  14.808
25193W        W89401  20.061  34.078  11.021
25194W        W89402  21.611  36.871  11.432
25195W        W89403  33.117   4.261   0.328
25196W        W89404  25.597   8.833  10.948
25197W        W89405  41.845  22.666   4.229
25198W        W89406  39.390  13.600   0.862
25199W        W89407  34.103  18.697  13.025
25200W        W89408  41.984  37.494   0.349
25201W        W89409  12.302  39.362   1.354
25202W        W89410  42.342  31.412   4.771
25203W        W89411  29.079  21.040   3.652
25204W        W89412   3.349  31.549  14.947
25205W        W89413  14.252  19.701   3.284
25206W        W89414  31.075  27.035  12.888
25207W        W89415   8.726  12.679  12.451
25208W        W89416  29.068  22.691   3.203
25209W        W89417   4.859  38.531  10.493
25210W        W89418   7.700  12.725   0.885
25211W        W89419  22.547  26.482   1.401
25212W        W89420  35.024  40.334   0.293
25213W        W89421  42.527  43.388  12.421
25214W        W89422  41.012   5.203   4.634
25215W        W89423   3.305  24.070   2.811
25216W        W89424  34.117   8.279  14.425
25217W        W89425  13.666  20.666  11.860
25218W        W89426  11.240  34.554   1.866
25219W        W89427   0.376  13.756   2.380
25220W        W89428   5.385  27.558   0.903
25221W        W89429  13.674  19.623   1.769
25222W        W89430  16.715  12.651   1.836
25223W        W89431  18.683  31.592   0.362
25224W        W89432   4.779  18.614   3.188
25225W        W89433   8.233  30.455   3.149
25226W        W89434  21.239  19.241  10.114
25227W        W89435  15.709   3.838   5.180
25228W        W89436  22.709  30.921   1.788
25229W        W89437  10.189  40.887   1.812
25230W        W89438  22.711  27.021   4.651
25231W        W89439  16.140  11.353  10.904
25232W        W89440   4.421   7.758  10.993
25233W        W89441   9.389  28.122  13.844
25234W        W89442  31.645  44.771  14.858
25235W        W89443  37.448  40.953   3.380
25236W        W89444  22.129   8.766   4.823
25237W        W89445  30.498  44.368  10.952
25238W        W89446  10.244  29.619   1.340
25239W        W89447  37.045  31.500   4.245
25240W        W89448   3.740  43.311   4.351
25241W        W89449  25.546  14.693  10.437
25242W        W89450  21.207   8.726   2.312
25243W        W89451  43.937  33.450  13.966
25244W        W89452  24.493   0.954   1.701
25245W        W89453   3.231  16.156   1.757
25246W        W89454  43.482  36.847   2.897
25247W        W89455   7.873  23.539   0.756
25248W        W89456  26.139  28.593  14.969
25249W        W89457   9.716  14.721  10.017
25250W        W89458  11.260  42.305  10.428
25251W        W89459  34.399  43.780  14.965
25252W        W89460  39.319   1.361  13.408
25253W        W89461  24.105  18.647   4.160
25254W        W89462  26.502  23.607  14.029
25255W        W89463  41.504  26.144   2.711
25256W        W89464   6.286   1.261   2.185
25257W        W89465  13.711  15.819   4.208
25258W        W89466   6.892  44.351   4.140
25259W        W89467  25.641  37.957  12.426
25260W        W89468  19.649  32.132  11.937
25261W        W89469  29.450  27.549  11.573
25262W        W89470   6.905  18.669  10.514
25263W        W89471  19.759   2.965   0.391
25264W        W89472  21.694  10.185   2.736
25265W        W89473  26.519  26.960   0.844
25266W        W89474  14.769  34.392   3.233
25267W        W89475  30.425  18.188   3.340
25268W        W89476  16.305   0.779  11.567
25269W        W89477  43.012  35.556  13.320
25270W        W89478   9.353  19.188   3.365
25271W        W89479   9.696  14.195   3.743
25272W        W89480  44.419  26.206   1.836
25273W        W89481  19.715  30.480   0.355
25274W        W89482  30.137  14.303   3.314
25275W        W89483  29.030  18.197  14.481
25276W        W89484  20.121  19.269   2.852
25277W        W89485  13.830  43.877  10.607
25278W        W89486  24.056  44.775  10.984
25279W        W89487  39.002  11.714  11.412
25280W        W89488   1.791  13.299  10.645
25281W        W89489  18.176  44.396  14.790
25282W        W89490   2.747  29.545   3.786
25283W        W89491   7.748  22.603  12.979
25284W        W89492   1.258  42.843  10.413
25285W        W89493  30.149   3.226  13.950
25286W        W89494  32.628  22.190   4.350
25287W        W89495  13.291  28.570   1.850
25288W        W89496   0.407  20.609   0.382
25289W        W89497  38.553  39.875   0.319
25290W        W89498   2.447  35.540   1.384
25291W        W89499  22.677  44.907   4.139
25292W        W89500  36.961  10.748  12.497
25293W        W89501  42.865  25.973  12.487
25294W        W89502  18.116  34.386  10.951
25295W        W89503   7.838  33.472  12.962
25296W        W89504  30.460   3.877  12.544
25297W        W89505  18.128  18.719  13.543
25298W        W89506   6.201   3.802   2.339
25299W        W89507   0.322   6.354  10.465
25300W        W89508  10.283  27.498   3.190
25301W        W89509  30.954  33.988  14.447
25302W        W89510  31.594  10.360  11.027
25303W        W89511  44.357   7.401  13.042
25304W        W89512  17.786   5.911   2.249
25305W        W89513  24.596  43.010  11.489
25306W        W89514  37.888  20.606   2.723
25307W        W89515  10.641   5.745  11.608
25308W        W89516  31.412  20.105   0.257
25309W        W89517  34.567  18.715   4.354
25310W        W89518  29.142  13.279   1.392
25311W        W89519   3.421   5.322   3.348
25312W        W89520  21.262   6.410   2.869
25313W        W89521  43.462  11.276  14.802
25314W        W89522  42.462   0.474   2.852
25315W        W89523   6.923  34.518  10.435
25316W        W89524  28.474  22.234  12.950
25317W        W89525  32.059  23.567  12.428
25318W        W89526  37.079  43.348  12.524
25319W        W89527  33.889  37.536  12.927
25320W        W89528  14.757   5.712  10.926
25321W        W89529   4.741  32.450   1.869
25322W        W89530   8.243  36.990   2.402
25323W        W89531  18.229  11.187  12.430
25324W        W89532  14.599  17.260  14.761
25325W        W89533  12.350   1.473  11.436
25326W        W89534  22.740  14.249  10.157
25327W        W89535  43.471  10.161   3.676
25328W        W89536  19.743   0.794   2.725
25329W        W89537  43.316  29.097   1.820
25330W        W89538  12.256  21.124  12.957
25331W        W89539  32.525   1.427  12.916
25332W        W89540   2.895  38.348  10.575
25333W        W89541  43.770  43.379   3.256
25334W        W89542  22.244  24.710   3.278
25335W        W89543  33.935  28.982  10.948
25336W        W89544  11.226  37.986   1.240
25337W        W89545  20.597  26.558  12.066
25338W        W89546   4.227  40.899   3.851
25339W        W89547  44.272  37.906  10.951
25340W        W89548  41.330  19.755  12.997
25341W        W89549  37.535  36.902  13.880
25342W        W89550  38.341   2.808  14.799
25343W        W89551  24.101  39.527  12.578
25344W        W89552   8.306  31.536  14.305
25345W        W89553  25.988  44.984   3.187
25346W        W89554  16.167  24.190   4.255
25347W        W89555  28.935   5.905   1.394
25348W        W89556   7.175   9.806   0.902
25349W        W89557  38.016  25.994  14.334
25350W        W89558  23.561  10.166   2.693
25351W        W89559  25.516  21.642  12.470
25352W        W89560  21.138   0.295   4.320
25353W        W89561  15.698  24.184  11.988
25354W        W89562  23.542  39.815  13.363
25355W        W89563  27.556  24.614   4.749
25356W        W89564  22.095  11.321  14.994
25357W        W89565   1.274   9.221  14.787
25358W        W89566  12.663  28.175  12.379
25359W        W89567  25.170   3.875  14.976
25360W        W89568   3.854  25.682   4.324
25361W        W89569  19.694  16.256   2.307
25362W        W89570  43.846  38.030  11.937
25363W        W89571   7.762  35.553  11.995
25364W        W89572  23.194  20.256   2.856
25365W        W89573  19.565   1.919   0.246
25366W        W89574  39.445  38.341  10.515
25367W        W89575  23.019   0.887  11.447
25368W        W89576  28.545  41.864   1.804
25369W        W89577  17.665  15.312   3.311
25370W        W89578   4.894  25.078  14.427
25371W        W89579   8.725  26.484   0.809
25372W        W89580  38.416  36.934  13.410
25373W        W89581   6.824  14.250  12.094
25374W        W89582  35.383  43.831   3.262
25375W        W89583  44.757  34.373   5.129
25376W        W89584  15.115  40.497   3.815
25377W        W89585  38.418  32.498   4.697
25378W        W89586  34.900  41.797  11.576
25379W        W89587   3.838   8.232   2.741
25380W        W89588  28.627  32.051   1.314
25381W        W89589   3.423  38.553   4.618
25382W        W89590   8.271  11.696   3.640
25383W        W89591  19.704  10.675  12.084
25384W        W89592   4.311  16.585   1.836
25385W        W89593  29.103  19.609   2.244
25386W        W89594   7.411  31.514   3.794
25387W        W89595  44.267  12.352   3.264
25388W        W89596  39.519   5.880   9.941
25389W        W89597  27.545  21.724  10.468
25390W        W89598   8.867  12.245  11.065
25391W        W89599  43.468  21.523  14.895
25392W        W89600  19.583  38.070   9.456
25393W        W89601  31.941  25.477  14.357
25394W        W89602  39.507  15.712  13.053
25395W        W89603  23.585  30.115   1.347
25396W        W89604  21.239  31.916   4.141
25397W        W89605   4.751  10.304  13.451
25398W        W89606  42.517   8.698  13.483
25399W        W89607  36.923  17.636  12.967
25400W        W89608  13.290  32.514   0.954
25401W        W89609  31.457  41.993   2.855
25402W        W89610  44.259  24.619  14.452
25403W        W89611   6.256  32.592   4.708
25404W        W89612  11.770   0.837  14.368
25405W        W89613  10.246  11.710   4.777
25406W        W89614  42.973  44.938   3.323
25407W        W89615  44.431  10.302   4.224
25408W        W89616  25.072  32.948   0.799
25409W        W89617  10.729  21.630  13.455
25410W        W89618  15.820  33.094  14.458
25411W        W89619  11.630  37.494   0.409
25412W        W89620  12.356  14.612   3.799
25413W        W89621  37.874  26.178   0.338
25414W        W89622   0.299  29.474   1.321
25415W        W89623  44.875  38.028   3.683
25416W        W89624  11.295  25.565   0.859
25417W        W89625  39.386  34.592  14.765
25418W        W89626  10.657  39.444  11.037
25419W        W89627  16.731   5.795   3.358
25420W        W89628   7.668   1.963  11.421
25421W        W89629   3.925  11.321  10.482
25422W        W89630  31.151   6.355  11.052
25423W        W89631  39.373  39.920  13.521
25424W        W89632  31.084   2.915  12.576
25425W        W89633  20.746  21.091  13.948
25426W        W89634   9.789  33.478  11.387
25427W        W89635   8.228  30.514  12.987
25428W        W89636   8.799   6.312  10.439
25429W        W89637  26.072  22.242   0.372
25430W        W89638   4.321  22.063  12.893
25431W        W89639  19.703  35.401   1.344
25432W        W89640  23.211  32.573   1.256
25433W        W89641  22.141   8.772  13.925
25434W        W89642  37.065  28.094  12.074
25435W        W89643   5.226   3.955   4.138
25436W        W89644  14.728  31.456  14.942
25437W        W89645  33.500  41.843   3.790
25438W        W89646  35.007   5.780   3.377
25439W        W89647  19.700  23.693  10.596
25440W        W89648  16.701   6.838  12.557
25441W        W89649  20.259  17.242   2.195
25442W        W89650  11.715  14.757   1.222
25443W        W89651   9.664  13.624   0.367
25444W        W89652  19.657  31.568  13.036
25445W        W89653  14.675  41.449   1.214
25446W        W89654   9.171  29.980   2.302
25447W        W89655  34.394  40.846  13.417
25448W        W89656   0.448  37.528  11.385
25449W        W89657  32.497  18.613   4.264
25450W        W89658   4.373  13.693   2.681
25451W        W89659  14.237  27.092   3.631
25452W        W89660  24.493  44.943  14.424
25453W        W89661  25.670  41.980  12.932
25454W        W89662  30.044  41.953  11.063
25455W        W89663  10.663   5.769  10.557
25456W        W89664  40.344  32.587   2.720
25457W        W89665  33.005  22.548   3.158
25458W        W89666  32.581  28.965   4.167
25459W        W89667  33.033   7.289   0.801
25460W        W89668   6.726  36.374   1.302
25461W        W89669  14.269  22.712  12.399
25462W        W89670  36.524  28.572  14.347
25463W        W89671  35.004   4.439   3.758
25464W        W89672  28.153   6.189  11.073
25465W        W89673  44.773  14.105   4.314
25466W        W89674  29.605  28.062  13.054
25467W        W89675  24.183  14.736  13.855
25468W        W89676   2.815  17.261  12.050
25469W        W89677  11.180  26.046   1.747
25470W        W89678  41.809  40.809   3.683
25471W        W89679  13.271  41.993  13.899
25472W        W89680  34.428   3.365   4.818
25473W        W89681  20.580  44.817   2.408
25474W        W89682  37.884  33.086  11.930
25475W        W89683  43.887  12.197   3.332
25476W        W89684  23.717  43.345  12.989
25477W        W89685  32.509  39.372  11.554
25478W        W89686   0.798  34.425  13.958
25479W        W89687   0.886  44.868   2.300
25480W        W89688  31.091  29.433   3.690
25481W        W89689   8.823  18.567   2.187
25482W        W89690   6.257   4.890  13.431
25483W        W89691  17.592  14.152   1.839
25484W        W89692  30.139  16.143   1.923
25485W        W89693  35.906  32.123   0.920
25486W        W89694   2.299  20.268  14.768
25487W        W89695  34.014  31.017  13.423
25488W        W89696  35.103  14.332  11.374
25489W        W89697  18.216  37.072   0.280
25490W        W89698   4.884  20.561  14.419
25491W        W89699  25.165   3.447  13.324
25492W        W89700  11.815  41.933   2.740
25493W        W89701  38.521  27.624   2.668
25494W        W89702  28.450  44.800   3.631
25495W        W89703  28.976  40.373  12.982
25496W        W89704  26.040  16.571   4.635
25497W        W89705  10.139  25.509   3.254
25498W        W89706  19.657  42.828   0.966
25499W        W89707  28.076  16.271  10.620
25500W        W89708  23.018  41.010  14.423
25501W        W89709  35.893  32.027  11.405
25502W        W89710   2.871  33.925   5.121
25503W        W89711  29.110  13.325   4.230
25504W        W89712  23.088  26.184  10.631
25505W        W89713  24.630  32.617   3.644
25506W        W89714  31.617  44.280   0.410
25507W        W89715   0.341  42.372  10.429
25508W        W89716  13.703  15.745   4.671
25509W        W89717  24.139   1.385  10.958
25510W        W89718  19.693  14.696   1.214
25511W        W89719   7.843  27.653   1.250
25512W        W89720  21.263  42.470   1.390
25513W        W89721  13.696   4.814   0.884
25514W        W89722  43.515  12.307   4.339
25515W        W89723  30.620   0.756   4.299
25516W        W89724  30.924  37.351   3.794
25517W        W89725  16.654  21.699   4.831
25518W        W89726   4.743  21.726   1.427
25519W        W89727  41.426  41.845  14.816
25520W        W89728   9.847  40.330   0.947
25521W        W89729  32.046  14.319   3.283
25522W        W89730  27.149  38.939  12.042
25523W        W89731  26.461  22.078  14.509
25524W        W89732   3.247  42.316  14.368
25525W        W89733   9.279  16.692  14.903
25526W        W89734   0.479  23.637  13.899
25527W        W89735   1.401  44.807  12.039
25528W        W89736  41.810  35.044   2.812
25529W        W89737  42.299  24.201  14.390
25530W        W89738  42.477  34.575  13.544
25531W        W89739  27.462  33.497  11.892
25532W        W89740   2.338  16.779  14.956
25533W        W89741   2.281  21.715  10.470
25534W        W89742  17.588  33.920   2.416
25535W        W89743  41.803  35.019   3.172
25536W        W89744   4.265  17.795  14.289
25537W        W89745  27.977   7.376  14.336
25538W        W89746  10.698   2.804   3.799
25539W        W89747  33.038  33.549  13.473
25540W        W89748  15.119  23.120  14.427
25541W        W89749  35.860   6.381   0.378
25542W        W89750  12.352  41.831   2.756
25543W        W89751  20.637  43.963  14.984
25544W        W89752  21.555   3.224  14.494
25545W        W89753  24.657   5.432   3.277
25546W        W89754  39.895  13.189  14.331
25547W        W89755   4.830   5.725   2.773
25548W        W89756  13.693  29.128  13.839
25549W        W89757  38.437  21.087  14.390
25550W        W89758  43.445  32.132  11.579
25551W        W89759  40.436  35.491  14.867
25552W        W89760  24.030   6.275  12.543
25553W        W89761   0.298   4.231   5.234
25554W        W89762  43.958  19.704   1.304
25555W        W89763   2.396  11.131  12.068
25556W        W89764   8.220  27.955  12.573
25557W        W89765  42.869  42.471   0.382
25558W        W89766  44.334  23.551   1.223
25559W        W89767   5.223  21.202   2.375
25560W        W89768  11.314  23.078  12.824
25561W        W89769  34.570  40.500  13.320
25562W        W89770  38.422   7.777   3.784
25563W        W89771  44.332   8.351   0.794
25564W        W89772  26.656  26.155   0.356
25565W        W89773  25.521  34.437  11.120
25566W        W89774  15.818   2.762  13.879
25567W        W89775   3.353  39.066  14.933
25568W        W89776   5.908  35.986   1.317
25569W        W89777  25.027   9.688  11.040
25570W        W89778  34.904  10.218  12.074
25571W        W89779  11.758  43.298   0.298
25572W        W89780  28.036  41.910  11.526
25573W        W89781  42.943  18.192  13.387
25574W        W89782  15.712  37.514  14.806
25575W        W89783  19.663   9.281  12.388
25576W        W89784  20.652  32.444   1.768
25577W        W89785  16.776  42.890  12.061
25578W        W89786  12.853  28.574  14.801
25579W        W89787  33.981   4.768  12.493
25580W        W89788  13.325   8.316   4.599
25581W        W89789  40.001  31.554   0.426
25582W        W89790  13.108  19.190  12.522
25583W        W89791  32.539  13.274   4.760
25584W        W89792   1.976  39.839  14.837
25585W        W89793  21.675  42.866  11.495
25586W        W89794  17.290  35.443   2.744
25587W        W89795  41.381   5.369   2.371
25588W        W89796  37.435   1.254   3.774
25589W        W89797  28.109   5.323   0.476
25590W        W89798  41.527  27.478  10.585
25591W        W89799  14.185  34.518  14.843
25592W        W89800  27.142   4.756  10.492
25593W        W89801   9.694  26.607  11.875
25594W        W89802  37.401   5.696  11.887
25595W        W89803  14.821  33.393  10.610
25596W        W89804  32.549  26.049   2.195
25597W        W89805   3.802  23.704  14.355
25598W        W89806  27.660  38.895   0.314
25599W        W89807  40.442  36.006  14.300
25600W        W89808  34.922  19.188   3.685
25601W        W89809  42.312  14.188  11.437
25602W        W89810  23.729  25.141  10.906
25603W        W89811  16.103  39.550  11.056
25604W        W89812  18.159  30.545   2.857
25605W        W89813  22.043  10.360   4.664
25606W        W89814  36.430  31.574  13.484
25607W        W89815  10.648  11.299   2.708
25608W        W89816   8.401  11.319   4.257
25609W        W89817   1.764  31.461   0.308
25610W        W89818  22.567  16.772   2.878
25611W        W89819  16.729  31.646  11.603
25612W        W89820  17.645   3.232  10.433
25613W        W89821  12.841  19.594  12.066
25614W        W89822  39.545  12.748   0.784
25615W        W89823   0.368  43.355   0.471
25616W        W89824   1.284  20.749   1.796
25617W        W89825  16.132  34.983  13.976
25618W        W89826  41.811  42.416   2.247
25619W        W89827  20.639  36.510  12.481
25620W        W89828  44.957  23.654  14.943
25621W        W89829  41.949  13.249  13.424
25622W        W89830   4.293  25.096   0.903
25623W        W89831  27.536  14.114  11.401
25624W        W89832  28.975  14.665  12.826
25625W        W89833  26.146  26.110  10.600
25626W        W89834  12.713  27.585  14.290
25627W        W89835   7.712  38.971   5.202
25628W        W89836   2.927   2.818   2.349
25629W        W89837   9.166   1.927   1.851
25630W        W89838  13.733   2.856   3.256
25631W        W89839  24.076  23.004   1.385
25632W        W89840  19.616   4.338  13.968
25633W        W89841  21.214   7.227   2.222
25634W        W89842  10.165  14.243  12.498
25635W        W89843  31.934  23.632   0.909
25636W        W89844  29.051  32.921   4.313
25637W        W89845  27.593  37.563   9.991
25638W        W89846  34.528  41.021   0.934
25639W        W89847  40.398  11.753   5.207
25640W        W89848  12.317  40.872  14.963
25641W        W89849  18.618  10.212  13.522
25642W        W89850   0.877  35.095   3.198
25643W        W89851  25.150  27.007  14.275
25644W        W89852  14.822  28.565  10.537
25645W        W89853   8.294  35.893   0.443
25646W        W89854   6.340  19.205   1.438
25647W        W89855  28.164   4.729  11.558
25648W        W89856  32.624   8.879  11.908
25649W        W89857  36.072  30.452   0.313
25650W        W89858  42.814  39.350  13.902
25651W        W89859  16.141   9.747   1.374
25652W        W89860  36.562  10.247   1.287
25653W        W89861  40.450   6.737  14.482
25654W        W89862  23.550  44.910  11.587
25655W        W89863  15.301   9.643   1.357
25656W        W89864  28.129  32.005   2.392
25657W        W89865  39.518  36.049  13.046
25658W        W89866  22.639   6.209   4.343
25659W        W89867   7.253  39.385   1.890
25660W        W89868  30.426   7.771   4.829
25661W        W89869  17.621  29.921   0.923
25662W        W89870  39.541  16.192   1.808
25663W        W89871  36.990   7.712   0.836
25664W        W89872  39.445   1.952  14.505
25665W        W89873  18.675   5.838  10.100
25666W        W89874  32.902  26.960  11.906
25667W        W89875   8.204   7.214  12.890
25668W        W89876  24.629  23.203  13.384
25669W        W89877  26.016  32.525   1.780
25670W        W89878  33.081  29.668   0.771
25671W        W89879  16.769  30.583   1.372
25672W        W89880   9.243  38.555  10.974
25673W        W89881  25.673  44.439  12.377
25674W        W89882  11.338   4.357   3.271
25675W        W89883   7.216  35.093  13.533
25676W        W89884  10.158  40.923   3.240
25677W        W89885   8.223  28.534  11.964
25678W        W89886  19.104   0.949   4.258
25679W        W89887  41.418  22.725  14.012
25680W        W89888  29.988   9.856  14.301
25681W        W89889  16.273   1.891   2.700
25682W        W89890  26.583   2.261  12.353
25683W        W89891  44.459  32.053   1.373
25684W        W89892   1.844   8.866  12.009
25685W        W89893  22.135  41.854   0.311
25686W        W89894   4.842   7.863   5.112
25687W        W89895  44.972  27.008   0.735
25688W        W89896  25.476  33.940  13.327
25689W        W89897  19.193  13.746  14.929
25690W        W89898  39.840  17.068   3.263
25691W        W89899   6.241  21.613  10.924
25692W        W89900  39.540  14.795  14.309
25693W        W89901  26.468  18.651  14.376
25694W        W89902  15.762  38.856   2.233
25695W        W89903  28.145  34.921  11.908
25696W        W89904  17.568  36.992  14.470
25697W        W89905   9.655  39.332  13.064
25698W        W89906   9.653   6.895   2.827
25699W        W89907  29.523  11.238  14.400
25700W        W89908  41.861  18.601   0.930
25701W        W89909  28.176   5.412   2.693
25702W        W89910  25.618  29.595   0.734
25703W        W89911  12.727  35.463   0.895
25704W        W89912  28.622  41.957  10.486
25705W        W89913  28.164  26.579  10.449
25706W        W89914   6.712  27.034  14.369
25707W        W89915  17.305  30.082   1.799
25708W        W89916  35.531  27.112   3.754
25709W        W89917   0.447  22.154   0.472
25710W        W89918  31.017  25.127   0.419
25711W        W89919  13.830  17.679  11.594
25712W        W89920   3.391   3.898  11.446
25713W        W89921   8.364  40.508   4.347
25714W        W89922  19.574  26.603  13.017
25715W        W89923  27.491  43.503  13.890
25716W        W89924  40.478   2.923   3.663
25717W        W89925  12.631   1.745   1.326
25718W        W89926  40.530  25.677  11.961
25719W        W89927  36.043  21.689  10.958
25720W        W89928  39.880  34.011   3.669
25721W        W89929   0.907   6.423   4.662
25722W        W89930  42.415  22.685   1.935
25723W        W89931  11.732  25.471  11.598
25724W        W89932  23.723   2.348  13.540
25725W        W89933  19.194  34.418   2.201
25726W        W89934  40.394  11.210   2.279
25727W        W89935  38.042  19.045   2.844
25728W        W89936  18.550  20.750  13.416
25729W        W89937  23.172  33.608   3.378
25730W        W89938  16.222   7.735   3.355
25731W        W89939  40.805   5.811   4.280
25732W        W89940  40.391   9.706  14.308
25733W        W89941  13.306  23.631  11.606
25734W        W89942  22.117  17.594   0.871
25735W        W89943   3.307  23.202   0.298
25736W        W89944   3.850  12.698   3.280
25737W        W89945   8.405  31.111  14.894
25738W        W89946  36.017  10.312  13.480
25739W        W89947  34.493  32.103   3.810
25740W        W89948  30.960  26.556   0.286
25741W        W89949  42.964   5.806   0.428
25742W        W89950  30.653   7.816  10.973
25743W        W89951  26.172  22.731  10.905
25744W        W89952  28.013  20.527  12.037
25745W        W89953  34.432   5.762   3.800
25746W        W89954  41.024   8.667   1.714
25747W        W89955  11.647  41.351   0.396
25748W        W89956  35.582  26.462   1.798
25749W        W89957  31.073  18.619  12.900
25750W        W89958  38.563  17.753  10.091
25751W        W89959  19.056  30.617  14.934
25752W        W89960   5.372  27.091   3.831
25753W        W89961   5.860  25.611  11.543
25754W        W89962  19.708  43.448   0.411
25755W        W89963  15.261  17.650   1.421
25756W        W89964  10.258  22.207   3.314
25757W        W89965  27.118  20.198  13.053
25758W        W89966   0.417  24.202  10.404
25759W        W89967   6.775  10.371  12.837
25760W        W89968  27.642  23.220  11.574
25761W        W89969  29.066  15.091  12.494
25762W        W89970  21.158   2.792  14.825
25763W        W89971  25.674  28.115  10.585
25764W        W89972  29.614  11.194   0.253
25765W        W89973  44.927  39.314  10.965
25766W        W89974  38.962  17.777   1.342
25767W        W89975  26.534  11.795  13.449
25768W        W89976   6.744  23.104  13.965
25769W        W89977  24.024   0.330   1.785
25770W        W89978  21.232  31.067   0.462
25771W        W89979  18.628  39.556   5.261
25772W        W89980  39.895  35.442   3.191
25773W        W89981  20.677  20.532  14.280
25774W        W89982  41.479  35.446   2.828
25775W        W89983  23.657  27.597   2.684
25776W        W89984  16.294  30.470  13.393
25777W        W89985  26.502  43.423  10.557
25778W        W89986   6.880  40.827   2.846
25779W        W89987  34.023  12.696  11.393
25780W        W89988  11.683   5.277   3.292
25781W        W89989   7.698   3.428  13.455
25782W        W89990  35.981  29.665   0.826
25783W        W89991  43.858  44.367  10.101
25784W        W89992  21.099   5.387  12.516
25785W        W89993  42.913  43.387  13.866
25786W        W89994  25.564  30.608  10.137
25787W        W89995  40.944  23.645  10.527
25788W        W89996  20.104  22.048  14.894
25789W        W89997   6.326  39.433   0.312
25790W        W89998  37.043   8.387  10.904
25791W        W89999  30.635  27.472   2.361
25792W        W90000  15.663  13.734   3.671
25793W        W90001  19.756  38.434  14.400
25794W        W90002  15.317  34.032  12.838
25795W        W90003  33.982   6.701   0.905
25796W        W90004  23.232  28.988   4.276
25797W        W90005   4.271  16.222  13.045
25798W        W90006   4.247  30.069   4.695
25799W        W90007  14.132  12.615  12.406
25800W        W90008  34.926  13.713   4.601
25801W        W90009  22.652  21.256  11.524
25802W        W90010  18.626  43.931  13.411
25803W        W90011  41.017  25.017   0.955
25804W        W90012  38.556  28.063   0.383
25805W        W90013  25.597  18.668  10.035
25806W        W90014  26.682   1.381  11.925
25807W        W90015  18.739  12.718  11.586
25808W        W90016  44.325   5.332  14.969
25809W        W90017   0.778  36.551   4.607
25810W        W90018  15.250  15.806   1.909
25811W        W90019  21.571  30.462  13.840
25812W        W90020  15.819  33.093   2.222
25813W        W90021  14.237  11.285   2.818
25814W        W90022   7.833   3.730  11.968
25815W        W90023  16.121   2.258  13.829
25816W        W90024  11.318  39.449   0.944
25817W        W90025  44.782   4.214   0.815
25818W        W90026   4.798  30.566  12.573
25819W        W90027  18.677  33.507  11.067
25820W        W90028  38.826  10.273  12.403
25821W        W90029  19.201  40.428   5.292
25822W        W90030  30.514  42.315   4.304
25823W        W90031  22.175  10.663  14.844
25824W        W90032  21.034  33.089  10.612
25825W        W90033  43.927   8.287   1.806
25826W        W90034  42.831  17.697   0.320
25827W        W90035  27.459  41.355   2.366
25828W        W90036  20.191   1.823  13.039
25829W        W90037   7.332   9.178  11.065
25830W        W90038   3.857  22.730  14.971
25831W        W90039   6.897  29.146   1.919
25832W        W90040   9.358  10.775  11.946
25833W        W90041   1.326   6.723  12.018
25834W        W90042  19.084  42.920   4.146
25835W        W90043  32.484   1.299   2.280
25836W        W90044  28.942  35.454  11.560
25837W        W90045  10.696  16.586   3.313
25838W        W90046  34.385  32.393  13.903
25839W        W90047  22.021  13.737   3.286
25840W        W90048  32.440   8.213   4.618
25841W        W90049  43.270   1.865   1.836
25842W        W90050  42.382   3.824   1.421
25843W        W90051   0.775   8.333  12.541
25844W        W90052  39.816  16.086  14.765
25845W        W90053   9.320  43.313  10.995
25846W        W90054  20.081  23.698   2.671
25847W        W90055  42.927  18.067  11.483
25848W        W90056  10.686  34.969   2.273
25849W        W90057  39.899  37.926  12.391
25850W        W90058  32.547  37.950  13.320
25851W        W90059  30.423  24.984  13.882
25852W        W90060  40.527  16.803  10.424
25853W        W90061  29.547  28.516   1.411
25854W        W90062  22.170  39.049  13.462
25855W        W90063  16.621  37.561  11.073
25856W        W90064  37.832  37.856  12.372
25857W        W90065   7.733  17.192  11.036
25858W        W90066  13.123  29.153   4.718
25859W        W90067  42.010  43.308  14.433
25860W        W90068   9.288  18.205   5.165
25861W        W90069   8.864  38.869  14.936
25862W        W90070  27.143  32.887   4.727
25863W        W90071  14.105  26.157   3.722
25864W        W90072  36.459  34.988  13.967
25865W        W90073  44.808  17.307   4.114
25866W        W90074  40.418  15.629   0.459
25867W        W90075  41.854  39.490  14.277
25868W        W90076  24.091  41.462  10.111
25869W        W90077  20.681  31.599   0.307
25870W        W90078  27.022  41.519  14.926
25871W        W90079   7.883  34.529  10.498
25872W        W90080  18.246  37.447   2.331
25873W        W90081   9.187  25.586   2.306
25874W        W90082   0.947   0.295   2.187
25875W        W90083   8.178  40.329  13.318
25876W        W90084  26.072  11.794   2.341
25877W        W90085  36.485  31.912  11.528
25878W        W90086  27.533   8.376   4.823
25879W        W90087  27.114  10.356  11.917
25880W        W90088  39.976  29.527  14.883
25881W        W90089  42.890   5.730  12.529
25882W        W90090  38.399  14.796   2.245
25883W        W90091   4.911   9.713  10.635
25884W        W90092  36.368  11.276   3.291
25885W        W90093  21.121  14.625  14.851
25886W        W90094  21.662  22.217  11.411
25887W        W90095   5.720   2.237  13.424
25888W        W90096  18.661  40.390  14.829
25889W        W90097  31.620   0.263   0.254
25890W        W90098  18.121  16.745   0.345
25891W        W90099  36.932   6.812   1.375
25892W        W90100  43.954  14.217   3.187
25893W        W90101   0.917   7.734  14.810
25894W        W90102  32.913  22.044  11.894
25895W        W90103   6.425  16.149   1.704
25896W        W90104   6.278   1.936   4.190
25897W        W90105   5.832  37.410   0.324
25898W        W90106  34.937  21.663   2.804
25899W        W90107  21.542  24.192  10.134
25900W        W90108   6.705  36.924  10.535
25901W        W90109  22.234  30.935  14.297
25902W        W90110  32.608  11.225  11.450
25903W        W90111  37.514  19.142   2.774
25904W        W90112  32.955  19.580  12.053
25905W        W90113   1.888  13.182  10.944
25906W        W90114   9.692  36.586  11.094
25907W        W90115  29.948  32.480  10.430
25908W        W90116  20.706  23.105  11.499
25909W        W90117   4.219  35.516  10.592
25910W        W90118  43.348  23.171   0.740
25911W        W90119  28.025  18.785  12.473
25912W        W90120  10.225  19.542   0.434
25913W        W90121  28.026   3.861   4.261
25914W        W90122  10.378  23.693   2.384
25915W        W90123   5.898   4.204   2.788
25916W        W90124  38.341  21.716   0.386
25917W        W90125   4.246   4.323   1.792
25918W        W90126  37.531  16.807  14.770
25919W        W90127  34.985  41.332   4.759
25920W        W90128  33.525  21.203  10.991
25921W        W90129  37.081  26.674   5.145
25922W        W90130  31.559  21.660  12.987
25923W        W90131  11.368  13.337   2.766
25924W        W90132  40.992  30.929   0.262
25925W        W90133  37.533  10.719  13.884
25926W        W90134  18.213  33.407  14.870
25927W        W90135   6.878  41.430  13.836
25928W        W90136  30.599  10.704  14.832
25929W        W90137  40.923  15.666  12.541
25930W        W90138  28.986  14.096  11.408
25931W        W90139   1.893  12.153  14.013
25932W        W90140  31.423  35.374  13.485
25933W        W90141  19.225  33.550   2.830
25934W        W90142   7.891  15.655   9.951
25935W        W90143  35.993  28.052  11.928
25936W        W90144   0.974  35.585  11.987
25937W        W90145  11.733  17.686  13.482
25938W        W90146  37.473   0.447   2.684
25939W        W90147  12.768  26.517   1.258
25940W        W90148  28.947   2.807  11.588
25941W        W90149  17.642   2.443  13.943
25942W        W90150  23.158  36.075   3.329
25943W        W90151   0.416  10.372   0.354
25944W        W90152  18.206  12.356  13.438
25945W        W90153  16.224  39.431  10.555
25946W        W90154  22.522  11.864  13.851
25947W        W90155  44.979  14.637  13.915
25948W        W90156  10.217  29.439   4.284
25949W        W90157  36.098  13.671   1.297
25950W        W90158  14.785  32.094  11.601
25951W        W90159  32.519  32.887   3.752
25952W        W90160  25.548   6.678  11.894
25953W        W90161  18.673  28.940   0.280
25954W        W90162  31.905   0.919   2.690
25955W        W90163   3.777  42.937   4.712
25956W        W90164  15.732  26.593  10.593
25957W        W90165   5.308  18.571   2.830
25958W        W90166   4.298  37.363   3.341
25959W        W90167  31.563  11.674  13.015
25960W        W90168  31.070  28.586  13.009
25961W        W90169  17.249  18.782   1.770
25962W        W90170  34.018   2.340   4.177
25963W        W90171  29.078  27.502  14.790
25964W        W90172  22.581  20.076   0.925
25965W        W90173  14.810   2.251  12.927
25966W        W90174  25.110  21.650  13.803
25967W        W90175   7.343  33.550  10.438
25968W        W90176  21.215   8.892  13.433
25969W        W90177  18.747  39.849  13.375
25970W        W90178   6.716  25.634  10.522
25971W        W90179  32.418  12.838  11.019
25972W        W90180  30.499  25.017  11.504
25973W        W90181  17.611  27.040   3.703
25974W        W90182  42.414  31.528   3.743
25975W        W90183   2.465  32.042  14.372
25976W        W90184  18.275  35.559  14.791
25977W        W90185  12.211  11.211   2.345
25978W        W90186  28.155  20.621  13.542
25979W        W90187  40.451  11.252  10.133
25980W        W90188  27.036  35.455  12.852
25981W        W90189  19.628  29.120  11.574
25982W        W90190  38.451  19.175  10.902
25983W        W90191   8.665  17.098   0.358
25984W        W90192  19.073  11.135   3.723
25985W        W90193  20.227   8.322   2.739
25986W        W90194  27.487   1.802   4.772
25987W        W90195   3.450   4.769  12.560
25988W        W90196  44.816  10.716   0.758
25989W        W90197  10.789  30.983   4.621
25990W        W90198  10.256  18.149   4.759
25991W        W90199  40.416  37.495  10.934
25992W        W90200  20.103  31.013  10.976
25993W        W90201  35.069   1.930  13.518
25994W        W90202  28.987  30.473  11.396
25995W        W90203   2.727   0.921  14.999
25996W        W90204  44.828  28.074  12.420
25997W        W90205  27.660  21.745   1.931
25998W        W90206  37.932  23.121   0.315
25999W        W90207  44.825  27.674   1.364
26000W        W90208  42.911   8.683  10.890
26001W        W90209  32.950  35.578  11.111
26002W        W90210  25.550  42.970   0.414
26003W        W90211  32.058  43.842   0.888
26004W        W90212   6.207  19.253  14.341
26005W        W90213  31.146  42.813  11.963
26006W        W90214   8.385  26.695  14.382
26007W        W90215  42.527  37.059  12.949
26008W        W90216  13.822  39.371  13.511
26009W        W90217  34.582  23.159  11.016
26010W        W90218  17.083   3.307   3.183
26011W        W90219   2.758  11.202   1.775
26012W        W90220   7.804  14.829  12.840
26013W        W90221  23.077  36.042  12.559
26014W        W90222  42.798  20.753  14.369
26015W        W90223   1.283   7.707   4.704
26016W        W90224  11.200  27.527   0.475
26017W        W90225  37.883   4.399   3.791
26018W        W90226  39.967  19.087   1.357
26019W        W90227  35.891  21.253   3.783
26020W        W90228  26.056  41.420   2.676
26021W        W90229  31.545  28.132   4.812
26022W        W90230  21.209  11.276  10.610
26023W        W90231   9.677  11.303   1.341
26024W        W90232  29.015  21.048   4.837
26025W        W90233  30.544   3.809   3.344
26026W        W90234  14.649  29.454  11.061
26027W        W90235  11.703  15.768   0.479
26028W        W90236   9.323  33.041   1.444
26029W        W90237  31.093  43.367   4.795
26030W        W90238   0.291  25.506  11.560
26031W        W90239  12.150  11.311   4.686
26032W        W90240   4.346  11.208   4.649
26033W        W90241  26.600  32.421  13.851
26034W        W90242  18.646   9.339   4.723
26035W        W90243   1.286  21.649  14.421
26036W        W90244  27.578  32.130   5.148
26037W        W90245  38.043  11.791  14.865
26038W        W90246   2.424  12.615   0.965
26039W        W90247  31.581  40.395  12.384
26040W        W90248   3.305  22.116   0.796
26041W        W90249  29.431  34.548   4.653
26042W        W90250  44.327  41.311   0.951
26043W        W90251  43.293  21.065  10.956
26044W        W90252  27.065  13.223   4.767
26045W        W90253  42.018  41.936   0.907
26046W        W90254   4.778  25.573  12.482
26047W        W90255  21.671  23.005  12.416
26048W        W90256  14.265  12.298  12.952
26049W        W90257  31.071   7.852   2.197
26050W        W90258   5.308  40.891  14.862
26051W        W90259  41.859  14.134   0.822
26052W        W90260  29.661  18.217   2.325
26053W        W90261  16.295  39.412  14.926
26054W        W90262  27.460  14.132   0.911
26055W        W90263  17.614   9.749   0.447
26056W        W90264  30.528  39.379   1.302
26057W        W90265  10.682  32.606  14.361
26058W        W90266  40.485   4.914  14.868
26059W        W90267  18.194  23.224  13.348
26060W        W90268   7.277  26.488  11.536
26061W        W90269  21.022   4.301  10.497
26062W        W90270  30.938  38.458   2.810
26063W        W90271  44.457   2.283   0.935
26064W        W90272  11.800  27.536   4.287
26065W        W90273  37.510  34.915  13.820
26066W        W90274  22.068  29.002   4.292
26067W        W90275  26.543  30.033   1.748
26068W        W90276  12.683   2.435  13.347
26069W        W90277  14.105  40.452  11.870
26070W        W90278  27.049  44.983  13.878
26071W        W90279  40.367  30.001   4.794
26072W        W90280  41.833  25.965  14.885
26073W        W90281  20.216  16.586   3.359
26074W        W90282  38.041  16.621   1.779
26075W        W90283  23.511  22.078   2.203
26076W        W90284   8.677  42.416   1.802
26077W        W90285  42.321  22.025  10.929
26078W        W90286   1.347  39.389   3.840
26079W        W90287  11.763  20.612  12.406
26080W        W90288  28.940  18.108   1.354
26081W        W90289  29.630  27.471   3.156
26082W        W90290  31.913  26.206   1.695
26083W        W90291  42.921  25.142  11.438
26084W        W90292  41.788  33.089  12.350
26085W        W90293  15.585  19.278  13.410
26086W        W90294  17.668  27.672   0.483
26087W        W90295  44.434  25.988  14.030
26088W        W90296  27.548  12.253  13.902
26089W        W90297   2.861  15.602  13.548
26090W        W90298  40.396  12.169   1.775
26091W        W90299  38.417  32.487   0.316
26092W        W90300  33.011  31.952   4.721
26093W        W90301  44.955  20.569  11.868
26094W        W90302  15.186  41.482  10.439
26095W        W90303   5.289  21.036   3.734
26096W        W90304  29.947   2.877   4.232
26097W        W90305  29.570  19.055  13.972
26098W        W90306  41.437  37.368   4.290
26099W        W90307   1.916   4.828   0.921
26100W        W90308  36.354   4.715  12.094
26101W        W90309  23.613  10.313   4.275
26102W        W90310  23.010   2.860  13.487
26103W        W90311  16.106  37.954   1.926
26104W        W90312  40.437  34.431   3.193
26105W        W90313  31.577  42.954   5.273
26106W        W90314   0.832   1.841   3.797
26107W        W90315  28.592  17.728   1.914
26108W        W90316  32.543  26.973  10.505
26109W        W90317  41.333  30.497   1.383
26110W        W90318  27.108  40.910  12.994
26111W        W90319  38.384  44.390   0.268
26112W        W90320   8.183  31.401   0.458
26113W        W90321  16.212  28.937  14.951
26114W        W90322   1.287  34.083  12.846
26115W        W90323  35.562  23.088  12.998
26116W        W90324  20.064  38.358   4.724
26117W        W90325  34.936  30.415   5.095
26118W        W90326  13.264  31.098   0.947
26119W        W90327  34.563  25.020  11.003
26120W        W90328  29.938  28.061   1.278
26121W        W90329  19.151  41.432   2.198
26122W        W90330  12.148  35.006   3.698
26123W        W90331   4.357  11.142  13.374
26124W        W90332   0.950   2.435  13.887
26125W        W90333  10.753  25.503  10.625
26126W        W90334  43.389  13.721   4.163
26127W        W90335  28.144  41.040  12.870
26128W        W90336  17.137   0.971  11.372
26129W        W90337  14.740   4.774  10.516
26130W        W90338  30.594  30.479  11.379
26131W        W90339  31.574  33.456  12.019
26132W        W90340   6.412  36.473  14.348
26133W        W90341  39.416  27.115   3.185
26134W        W90342  12.154  14.811  13.810
26135W        W90343  27.013  32.032   1.275
26136W        W90344  34.590  40.896  14.413
26137W        W90345  26.572   8.376   4.292
26138W        W90346  14.633  12.616  14.370
26139W        W90347  10.225  18.166  14.805
26140W        W90348  19.720  28.133   4.807
26141W        W90349  36.581  22.503   2.351
26142W        W90350  34.985  42.807   2.765
26143W        W90351   9.661  43.391   1.430
26144W        W90352  26.662  38.063   3.729
26145W        W90353  43.935  30.013   2.859
26146W        W90354   2.832  19.694   0.274
26147W        W90355  39.879  12.785  13.028
26148W        W90356  13.150   0.295  14.939
26149W        W90357  35.023  43.514  13.907
26150W        W90358  11.734  14.624  13.956
26151W        W90359  16.106  19.074   4.307
26152W        W90360  25.574  43.792   1.353
26153W        W90361  33.102  24.564  13.508
26154W        W90362  23.122  29.985  13.375
26155W        W90363   7.300  11.853   4.268
26156W        W90364   0.321   1.745  11.068
26157W        W90365  30.999  14.110   5.211
26158W        W90366  37.053  42.371   3.815
26159W        W90367   5.340  29.472  14.836
26160W        W90368  22.687  14.248  12.082
26161W        W90369  21.244  16.092   9.491
26162W        W90370  44.480  39.882   4.680
26163W        W90371   4.365  31.009   2.695
26164W        W90372  23.175  42.314  11.866
26165W        W90373   5.384  43.801   4.757
26166W        W90374  17.725   9.377  10.924
26167W        W90375  44.448   3.736  10.502
26168W        W90376  17.693  19.164   4.730
26169W        W90377  31.436   2.470  11.468
26170W        W90378  35.600  23.028  13.848
26171W        W90379  28.612   2.465  11.430
26172W        W90380  21.023  20.177   5.313
26173W        W90381  17.787  29.030   1.789
26174W        W90382  22.242  13.695   4.604
26175W        W90383  29.426  31.642   0.300
26176W        W90384   2.790   2.897  14.403
26177W        W90385  19.120  35.552   4.151
26178W        W90386   8.857  36.503   4.690
26179W        W90387  41.472  34.024   2.264
26180W        W90388   9.274  10.164   0.270
26181W        W90389  11.834   7.277   1.746
26182W        W90390  31.481  13.710  10.982
26183W        W90391   7.669  44.375  12.925
26184W        W90392  29.510  16.154  10.986
26185W        W90393  44.859  36.868   2.259
26186W        W90394   7.807  35.953  13.489
26187W        W90395  41.488   8.798   0.960
26188W        W90396   6.834  22.126  10.443
26189W        W90397  22.593   7.912  13.013
26190W        W90398  12.289  40.894   4.351
26191W        W90399  12.302   1.237  11.066
26192W        W90400  31.961   5.431   2.862
26193W        W90401  26.666  38.530   4.665
26194W        W90402  21.182  24.585  12.983
26195W        W90403  32.392   8.303   1.887
26196W        W90404   6.251  24.690   4.817
26197W        W90405  41.391  30.968   4.355
26198W        W90406  11.682   2.267   3.266
26199W        W90407  13.742  21.224  12.494
26200W        W90408   8.392  21.748  13.432
26201W        W90409  38.459  14.304  11.539
26202W        W90410  35.376  35.448   2.185
26203W        W90411   5.201   8.734   3.660
26204W        W90412  21.212   6.797  12.518
26205W        W90413  37.384  13.219  11.545
26206W        W90414  28.009  10.867  14.416
26207W        W90415   5.314  11.686   9.991
26208W        W90416  44.375  21.161  13.053
26209W        W90417   6.294  35.565   2.388
26210W        W90418  11.210  24.158  10.912
26211W        W90419  26.998  44.334  14.325
26212W        W90420  32.605   9.715   3.358
26213W        W90421  43.992  34.961   4.325
26214W        W90422  34.003  21.602   2.324
26215W        W90423  21.599  14.829   2.398
26216W        W90424  12.124   0.451  10.612
26217W        W90425  12.342  29.083   2.357
26218W        W90426  28.481   5.892   0.285
26219W        W90427  30.085  26.102   0.421
26220W        W90428  33.045  33.571   2.784
26221W        W90429  39.430   3.448  13.388
26222W        W90430  28.569  28.141  12.858
26223W        W90431  25.145  39.992   4.617
26224W        W90432   3.445  17.745   2.889
26225W        W90433   8.404  33.023  11.440
26226W        W90434  35.533  31.936   1.715
26227W        W90435  17.196  21.620  11.869
26228W        W90436  20.199  19.582   4.239
26229W        W90437  41.436  35.882  12.834
26230W        W90438  35.573  23.146  10.457
26231W        W90439   7.318  34.529  12.352
26232W        W90440  22.105  12.318   3.746
26233W        W90441  25.153  18.623   3.803
26234W        W90442  39.512  14.158   1.917
26235W        W90443  20.767  31.417   1.446
26236W        W90444  21.106  17.290   3.822
26237W        W90445  36.915  19.241  14.879
26238W        W90446  12.690  43.343   4.737
26239W        W90447  43.932  39.032  14.339
26240W        W90448  20.135   1.834   1.394
26241W        W90449  38.010  26.189   1.780
26242W        W90450  29.441   8.891  11.571
26243W        W90451  10.704  15.709   5.095
26244W        W90452  33.544  13.660   4.140
26245W        W90453  41.301  35.024   3.385
26246W        W90454  22.581  34.497   1.265
26247W        W90455  18.173  30.536  11.001
26248W        W90456  19.172  26.588  10.082
26249W        W90457  33.084  38.823  14.794
26250W        W90458  39.829  28.611  11.433
26251W        W90459  29.515  10.823   4.187
26252W        W90460  40.045  30.451  10.528
26253W        W90461  21.182  27.997   4.810
26254W        W90462  38.993  17.641  13.534
26255W        W90463  24.712  13.622  13.055
26256W        W90464  24.978  34.062  11.474
26257W        W90465   0.248  24.675   2.372
26258W        W90466  18.669   7.185  12.526
26259W        W90467  36.953   1.816   0.288
26260W        W90468  25.071  37.911   0.957
26261W        W90469  12.295   9.824  11.987
26262W        W90470  15.183  37.041   1.925
26263W        W90471  36.004  13.132  14.989
26264W        W90472   3.844  34.518   9.523
26265W        W90473  18.283  13.262  11.505
26266W        W90474  17.604  32.549  12.848
26267W        W90475   9.201  21.207  11.017
26268W        W90476  37.524  16.269   3.712
26269W        W90477  37.370  44.445   0.755
26270W        W90478  41.825  20.274   2.708
26271W        W90479  22.611  32.540  14.478
26272W        W90480  26.020  19.091  11.931
26273W        W90481  12.173   0.426   0.292
26274W        W90482   5.196  20.198   3.300
26275W        W90483   4.336  10.707   3.812
26276W        W90484   2.742  34.903   2.713
26277W        W90485  18.264  14.121   0.842
26278W        W90486  16.215   4.763   0.882
26279W        W90487  44.805  44.946   4.731
26280W        W90488  30.106  37.032   4.149
26281W        W90489  21.231   5.814  10.968
26282W        W90490  38.950  11.861  13.021
26283W        W90491  39.410  15.327   3.232
26284W        W90492   9.803  13.811  11.128
26285W        W90493   2.245   3.227  14.301
26286W        W90494  30.049  32.918   3.149
26287W        W90495  13.838  15.580   1.694
26288W        W90496  17.782  23.152   0.417
26289W        W90497  39.391  30.508   3.169
26290W        W90498  12.270   0.814  12.881
26291W        W90499  32.438  22.096  11.010
26292W        W90500  29.472  25.594  12.021
26293W        W90501  15.652  22.659  10.420
26294W        W90502  29.940  19.587  10.929
26295W        W90503  18.281  24.194   0.769
26296W        W90504  33.963  34.440   1.260
26297W        W90505  22.053  17.760   0.296
26298W        W90506  27.126  12.302   1.831
26299W        W90507  35.556   2.872  13.968
26300W        W90508  17.777  27.069  13.540
26301W        W90509  36.426  35.475  11.543
26302W        W90510  24.183   9.813  14.956
26303W        W90511  32.048   7.283   9.982
26304W        W90512  21.099  25.487   1.395
26305W        W90513  41.344  40.048  14.385
26306W        W90514  22.244  33.493   1.844
26307W        W90515   8.376  19.198   2.673
26308W        W90516  23.085  22.118  11.123
26309W        W90517  23.604  23.108   0.336
26310W        W90518  13.746  35.989   0.952
26311W        W90519  39.895   4.910  13.848
26312W        W90520  26.197  21.193  10.502
26313W        W90521  34.462  13.794   2.294
26314W        W90522  21.700  16.216   1.749
26315W        W90523  15.328  30.056   1.385
26316W        W90524  11.855  34.031  14.872
26317W        W90525  24.091  20.582   0.759
26318W        W90526  25.489  16.206  12.962
26319W        W90527  40.848   6.205  14.433
26320W        W90528  13.614  37.372  13.868
26321W        W90529  10.303  25.120  13.826
26322W        W90530  18.295  34.998  12.959
26323W        W90531  18.721  26.481  13.334
26324W        W90532   4.862  31.084  13.468
26325W        W90533   4.710  20.759  11.510
26326W        W90534  21.696  42.447  11.090
26327W        W90535  37.549   4.339  14.277
26328W        W90536   1.858  42.995  10.951
26329W        W90537  15.671  44.820  11.927
26330W        W90538   4.706  30.610   2.327
26331W        W90539  29.055   9.265   1.807
26332W        W90540   9.326  15.725   2.270
26333W        W90541  31.064  39.500   1.288
26334W        W90542  37.923   8.228   4.825
26335W        W90543  23.013   2.416  14.822
26336W        W90544  10.754   9.174   4.276
26337W        W90545  42.793  24.110   3.837
26338W        W90546  25.549  40.799  12.483
26339W        W90547  39.499  23.694  14.450
26340W        W90548  35.597   6.274  11.933
26341W        W90549   8.174  10.188  10.624
26342W        W90550  36.548  12.131  12.012
26343W        W90551  31.102   3.798   2.780
26344W        W90552   9.769  19.727   3.779
26345W        W90553   7.673  32.893   2.777
26346W        W90554  21.660  44.770  14.782
26347W        W90555  23.080  35.506  14.357
26348W        W90556  13.668   7.283   4.120
26349W        W90557  37.867   5.275   0.414
26350W        W90558  24.494  29.555   1.389
26351W        W90559  42.794   5.843  11.103
26352W        W90560  22.532  11.825   0.425
26353W        W90561   8.884  16.721   0.897
26354W        W90562  25.219   0.269  13.845
26355W        W90563  42.283  22.556  10.908
26356W        W90564  25.007  16.316   0.462
26357W        W90565  43.322  10.262   4.194
26358W        W90566  20.125  44.981   4.324
26359W        W90567  21.586  10.292   3.383
26360W        W90568  18.600  30.429  14.472
26361W        W90569  36.924  17.750   2.276
26362W        W90570  12.681  37.522  12.386
26363W        W90571  30.555  40.541  11.460
26364W        W90572  15.288  18.782  14.983
26365W        W90573  12.199  44.910   1.441
26366W        W90574  25.628  22.150  11.600
26367W        W90575  12.620  32.480   0.275
26368W        W90576   8.738  12.833  11.441
26369W        W90577  31.432  33.037   4.746
26370W        W90578   8.226  23.533   4.791
26371W        W90579  36.966   1.267  14.000
26372W        W90580  20.247  13.329  11.427
26373W        W90581  31.008   5.881  14.374
26374W        W90582  10.373  20.561   1.823
26375W        W90583  23.657  43.325   3.776
26376W        W90584  31.462  30.945  11.407
26377W        W90585  29.080  22.073   2.231
26378W        W90586   8.669  33.451   4.195
26379W        W90587   4.710  23.098  14.031
26380W        W90588  18.091  10.345  13.407
26381W        W90589  37.005   0.915  11.583
26382W        W90590  31.932  11.253  11.389
26383W        W90591  42.446  42.977   4.204
26384W        W90592  37.916   1.272   3.688
26385W        W90593   1.337   0.908   4.269
26386W        W90594  27.532   7.312  13.015
26387W        W90595  22.554  31.510   2.225
26388W        W90596  14.222  27.467   4.333
26389W        W90597  34.483  19.281  10.502
26390W        W90598   5.846  35.910   1.875
26391W        W90599   1.304   8.899  11.453
26392W        W90600   5.719  20.105   3.344
26393W        W90601  42.484  27.631  11.870
26394W        W90602   1.351   7.673  10.995
26395W        W90603  25.989  38.066   2.783
26396W        W90604  10.819  19.572  12.870
26397W        W90605  17.588  25.040   2.705
26398W        W90606   1.374  36.387   5.693
26399W        W90607  37.578  28.457  11.556
26400W        W90608  33.384  30.608  13.439
26401W        W90609  28.636  40.433   3.192
26402W        W90610  43.319   7.865   1.930
26403W        W90611  30.423  23.102  10.963
26404W        W90612  38.458   3.233  14.007
26405W        W90613  35.387  28.576   4.630
26406W        W90614  44.312  10.744  10.890
26407W        W90615   7.853  34.408  13.363
26408W        W90616  43.396   4.281  14.480
26409W        W90617   3.272  30.007  13.491
26410W        W90618  30.013  20.239   0.799
26411W        W90619   4.818  11.675  11.081
26412W        W90620  35.432  18.576  13.484
26413W        W90621   5.792  40.957   2.673
26414W        W90622   6.337   3.323   4.716
26415W        W90623  17.303   0.366   3.856
26416W        W90624  29.176  23.502  11.869
26417W        W90625  28.005  22.640  13.829
26418W        W90626  40.520  35.897   4.248
26419W        W90627  37.973   1.328  11.476
26420W        W90628  27.068  44.291  10.933
26421W        W90629  23.730  24.708   4.339
26422W        W90630  14.216  17.134  12.438
26423W        W90631  43.353  22.189   3.373
26424W        W90632   9.807  23.555  11.120
26425W        W90633  28.653  11.815  12.876
26426W        W90634  42.792  18.621   9.507
26427W        W90635  12.611  20.120  13.027
26428W        W90636  25.576   4.269   3.632
26429W        W90637  16.805   8.780   0.733
26430W        W90638  44.841   1.762  11.060
26431W        W90639  34.112  43.814  14.003
26432W        W90640  14.761  24.545  13.321
26433W        W90641  14.291  44.790   0.949
26434W        W90642   4.349  41.382   2.355
26435W        W90643  37.339  11.314  10.413
26436W        W90644  17.794  37.488   1.327
26437W        W90645  32.903  14.182   4.336
26438W        W90646  38.471   4.912   2.336
26439W        W90647  38.827  38.888   2.275
26440W        W90648  15.206  22.716  14.856
26441W        W90649  21.711  17.691  12.960
26442W        W90650  13.718  34.048   2.292
26443W        W90651  23.998  14.674   4.810
26444W        W90652  28.553  33.493   0.781
26445W        W90653   0.479  29.014   2.751
26446W        W90654  34.483  24.009  12.022
26447W        W90655  43.483   9.848  10.583
26448W        W90656  31.984  10.770  10.970
26449W        W90657  24.203  34.951  12.017
26450W        W90658  20.174  40.339   2.356
26451W        W90659  43.933  41.788   0.936
26452W        W90660   9.230  31.446  14.763
26453W        W90661  12.298   1.797   3.703
26454W        W90662  12.204  19.604   3.771
26455W        W90663  18.191  28.970   4.750
26456W        W90664  24.611  38.972   3.293
26457W        W90665  11.335  41.987   4.187
26458W        W90666   7.193  35.903   0.317
26459W        W90667  24.540  12.247   1.255
26460W        W90668  41.016  40.425  10.523
26461W        W90669  17.082   6.217  11.940
26462W        W90670  35.577  40.050  14.915
26463W        W90671  26.118   7.304   1.246
26464W        W90672  31.131  43.375   2.876
26465W        W90673  27.542  21.544   4.832
26466W        W90674  10.757  16.104  13.460
26467W        W90675  39.885  33.594  10.408
26468W        W90676  42.912   5.437   1.369
26469W        W90677  25.213  17.274   5.196
26470W        W90678   2.245  40.527   0.318
26471W        W90679  37.505   0.361   2.378
26472W        W90680  39.439  19.752   2.894
26473W        W90681  24.551  31.638   2.810
26474W        W90682  36.573  40.546   4.692
26475W        W90683   7.869   9.786   4.312
26476W        W90684  23.061  24.100  10.939
26477W        W90685  10.719  14.647   1.917
26478W        W90686  37.487   7.911  10.524
26479W        W90687  37.421   8.197   4.152
26480W        W90688   4.891   2.469   1.276
26481W        W90689   5.688   8.356   3.377
26482W        W90690  23.096   8.865  14.894
26483W        W90691  13.125  30.966   1.432
26484W        W90692  42.476  23.047  14.931
26485W        W90693   7.792   0.937  10.543
26486W        W90694   7.767  16.167  12.052
26487W        W90695  38.943  12.623   1.874
26488W        W90696  29.052  30.939   2.323
26489W        W90697  41.522  37.489   2.807
26490W        W90698  35.470  37.402   4.714
26491W        W90699  13.731  13.244  10.639
26492W        W90700  37.395  16.693   2.758
26493W        W90701  41.791  21.140  14.833
26494W        W90702  37.011  35.486   3.288
26495W        W90703  27.530  10.641  12.043
26496W        W90704  44.907  12.301  10.636
26497W        W90705  30.987  15.315  14.798
26498W        W90706  35.494  20.089  14.959
26499W        W90707  42.005  29.014   0.408
26500W        W90708  38.561  31.506  14.994
26501W        W90709  29.431  24.600  11.855
26502W        W90710  29.919  43.430  10.430
26503W        W90711  11.305   8.251   2.184
26504W        W90712   9.346  10.178  12.474
26505W        W90713  21.649  27.159  12.344
26506W        W90714  17.185  10.727   2.389
26507W        W90715  16.179   6.779   3.257
26508W        W90716  37.025  37.494   4.304
26509W        W90717   7.170   1.965   3.819
26510W        W90718  15.173  38.051   0.916
26511W        W90719  23.541   9.835   4.738
26512W        W90720  14.096  19.245  11.535
26513W        W90721  18.282  25.570  14.380
26514W        W90722  13.248   4.931  11.861
26515W        W90723   2.729  25.071   1.433
26516W        W90724  37.480   7.260   0.313
26517W        W90725  12.189  26.163   3.854
26518W        W90726   6.215  38.044   4.753
26519W        W90727  41.807  31.944   5.321
26520W        W90728  10.336  18.582  13.327
26521W        W90729   0.314  26.635   0.295
26522W        W90730  38.047  18.186  11.977
26523W        W90731  10.335  31.594   4.708
26524W        W90732  29.101  30.606   0.307
26525W        W90733  11.629  12.622  13.931
26526W        W90734  34.415  34.562  13.496
26527W        W90735   4.369   0.953  12.030
26528W        W90736  40.528   7.346  12.532
26529W        W90737  31.620  32.502   0.854
26530W        W90738  40.440  14.779  10.592
26531W        W90739  17.708  39.056   4.120
26532W        W90740  37.530  27.127  10.967
26533W        W90741   8.758  14.132  11.556
26534W        W90742  14.287  10.793   2.898
26535W        W90743  28.600  38.417  11.423
26536W        W90744   7.907  39.556  10.895
26537W        W90745  35.001  31.119   2.306
26538W        W90746  30.103  33.424   3.679
26539W        W90747  11.723  34.011   4.649
26540W        W90748  33.097  44.809  13.998
26541W        W90749  14.696  40.334  13.016
26542W        W90750  13.164  40.964  10.595
26543W        W90751  31.988   7.837  14.925
26544W        W90752   4.383  10.744   1.725
26545W        W90753  20.031   1.278  14.798
26546W        W90754  38.855  35.983   2.281
26547W        W90755   1.905   2.336  12.557
26548W        W90756  13.623  27.961  11.382
26549W        W90757  21.613  27.515  11.880
26550W        W90758  36.493  10.196   3.293
26551W        W90759  14.598   4.251  11.047
26552W        W90760  16.261  13.230   0.353
26553W        W90761  14.336  36.548   4.725
26554W        W90762  41.973  14.765   3.709
26555W        W90763   6.310  44.269  13.047
26556W        W90764  15.272  11.628  12.009
26557W        W90765   5.716   3.285   2.717
26558W        W90766   5.894  16.226   3.724
26559W        W90767  34.884  15.715  11.043
26560W        W90768  40.394  35.371  11.966
26561W        W90769  31.000  32.469  11.121
26562W        W90770  20.057  26.470   2.413
26563W        W90771   8.179  28.578  12.367
26564W        W90772  43.787   9.765   0.780
26565W        W90773  21.529  38.408   4.634
26566W        W90774  24.624  23.502  13.345
26567W        W90775  29.598  30.555   1.778
26568W        W90776  15.288  30.943  14.324
26569W        W90777  12.254  20.749   2.195
26570W        W90778  23.078   3.235   0.397
26571W        W90779  19.282  19.564   0.375
26572W        W90780  16.775   1.445  11.932
26573W        W90781  37.021  27.019  13.399
26574W        W90782  39.523   1.372   2.224
26575W        W90783   2.256  34.880   2.309
26576W        W90784  27.580  35.076   1.370
26577W        W90785  18.188  34.464   3.298
26578W        W90786  44.818  28.096   3.178
26579W        W90787  10.871  42.443  10.420
26580W        W90788  13.686  39.895  11.997
26581W        W90789  22.222  27.118   3.677
26582W        W90790  20.622   6.291  12.431
26583W        W90791  27.538  27.605   4.192
26584W        W90792  17.084  24.123  12.995
26585W        W90793   5.303  22.240  11.570
26586W        W90794  26.687   3.424   0.857
26587W        W90795   1.737  24.194   4.141
26588W        W90796  39.038  42.340  13.010
26589W        W90797  33.124   0.869  12.086
26590W        W90798  28.513  22.059   0.441
26591W        W90799  35.452  21.745  13.858
26592W        W90800  13.166   3.917  14.031
26593W        W90801  27.468  40.978  12.875
26594W        W90802  35.888   5.237   0.408
26595W        W90803  29.530  18.220  14.311
26596W        W90804  30.423  43.382   4.122
26597W        W90805   8.686  26.567   1.760
26598W        W90806   0.336  33.474   0.799
26599W        W90807  24.227  43.824   4.242
26600W        W90808  18.576   5.910   5.138
26601W        W90809  37.990  36.098   3.657
26602W        W90810  16.754  24.510  13.413
26603W        W90811  29.461  36.035  14.786
26604W        W90812  30.054   4.773  14.325
26605W        W90813   3.934  35.920  14.794
26606W        W90814  36.455   8.740   3.317
26607W        W90815  15.226  41.840  12.545
26608W        W90816  13.218  30.115  13.457
26609W        W90817   4.784  14.264   1.878
26610W        W90818  20.585  32.079   4.615
26611W        W90819  43.966  32.960  11.049
26612W        W90820   2.732  41.491   2.251
26613W        W90821  21.262   6.301   3.152
26614W        W90822  43.969  10.208  11.501
26615W        W90823  34.879  16.791   3.780
26616W        W90824   9.730  31.412  12.037
26617W        W90825   5.758   6.259  13.505
26618W        W90826  27.122   2.803   1.719
26619W        W90827   5.877  24.630   1.367
26620W        W90828   2.847  25.159   2.725
26621W        W90829  29.172  20.593  14.511
26622W        W90830  35.359  36.358  12.353
26623W        W90831  34.403  44.263   9.972
26624W        W90832  26.034  33.520  14.873
26625W        W90833   6.207  40.406  12.551
26626W        W90834  26.149  39.509   0.398
26627W        W90835  37.572  12.223   0.307
26628W        W90836  43.344  24.080  12.346
26629W        W90837   8.705  40.363   4.342
26630W        W90838  41.521  26.481  12.530
26631W        W90839  30.546  34.522   4.325
26632W        W90840   6.229  43.850   2.686
26633W        W90841   1.814   2.331  13.468
26634W        W90842  43.932  24.045   2.671
26635W        W90843  29.128  34.424  12.360
26636W        W90844  18.244  22.084  12.487
26637W        W90845  34.501  25.202  12.869
26638W        W90846  26.485  28.498  13.965
26639W        W90847   0.941   5.250   1.284
26640W        W90848  10.778  35.917   3.779
26641W        W90849   0.766  25.582   0.383
26642W        W90850  26.687  21.192   1.287
26643W        W90851  26.639  38.048  14.962
26644W        W90852  27.065   2.741   3.229
26645W        W90853  44.766  25.707   1.764
26646W        W90854  33.019  10.730  10.467
26647W        W90855  25.482   3.845  12.425
26648W        W90856  41.923   7.291   3.809
26649W        W90857  38.869  14.170  10.065
26650W        W90858  18.668  41.851  12.072
26651W        W90859   5.404   7.281   4.705
26652W        W90860   1.933   5.930  10.473
26653W        W90861  22.509  17.081  12.348
26654W        W90862  31.139  21.173   3.833
26655W        W90863  24.040  42.478   1.347
26656W        W90864  44.888  23.698   0.281
26657W        W90865  13.308  31.630   2.873
26658W        W90866  43.343  44.883  11.928
26659W        W90867  39.499  34.061   3.735
26660W        W90868  23.601   5.420  10.994
26661W        W90869   1.365   2.777  13.378
26662W        W90870   2.397  35.516  14.461
26663W        W90871  39.963  22.603  14.869
26664W        W90872  28.670  27.581   1.241
26665W        W90873  14.710  14.766   2.373
26666W        W90874  27.942  26.481  10.089
26667W        W90875  20.660   8.727   1.274
26668W        W90876  16.687  17.740   4.239
26669W        W90877  17.099  31.081  11.383
26670W        W90878   1.787  17.102  14.418
26671W        W90879  23.037  42.319  10.969
26672W        W90880   2.250  41.019  12.871
26673W        W90881  20.528  15.319   2.809
26674W        W90882  22.573  34.936  13.445
26675W        W90883  40.342  23.181  14.315
26676W        W90884  12.805  35.056  11.398
26677W        W90885  37.556  41.395   3.347
26678W        W90886  38.913   1.345   1.332
26679W        W90887  22.697   1.953   0.786
26680W        W90888  34.608  41.527  13.972
26681W        W90889  32.624  10.158   3.769
26682W        W90890  18.677   9.697  10.443
26683W        W90891  40.823  32.475  11.000
26684W        W90892  29.113  11.768   0.307
26685W        W90893  20.255   1.774   3.841
26686W        W90894  32.602  21.190   0.333
26687W        W90895  44.470  23.677   0.865
26688W        W90896   6.915   4.382  13.431
26689W        W90897  20.194  15.310   3.653
26690W        W90898  42.285  11.758   1.726
26691W        W90899  11.218  23.191   4.791
26692W        W90900  40.845  12.820   3.194
26693W        W90901  42.922  38.063   1.914
26694W        W90902  37.412  23.146   1.449
26695W        W90903  41.356  40.510  13.021
26696W        W90904  35.397  25.212   3.272
26697W        W90905  44.465  29.005   4.834
26698W        W90906  27.632   6.232   4.632
26699W        W90907  40.938  14.645  11.090
26700W        W90908  31.931  31.560   3.387
26701W        W90909  27.982  33.099   4.125
26702W        W90910  34.585  35.947   1.317
26703W        W90911   1.768  16.087  13.876
26704W        W90912  16.791  37.996   2.206
26705W        W90913  32.098  10.740   4.740
26706W        W90914  22.083  21.220   4.121
26707W        W90915   8.289  11.802  14.381
26708W        W90916  16.793  43.797  13.522
26709W        W90917  40.943  27.123   1.409
26710W        W90918  17.113  31.933  11.857
26711W        W90919  11.734  22.033  14.294
26712W        W90920  31.540  42.439  10.480
26713W        W90921  42.875  11.284   1.227
26714W        W90922  28.594  17.731  12.395
26715W        W90923  41.789  28.648   1.442
26716W        W90924  39.891  33.015   2.332
26717W        W90925  41.881   2.386   2.298
26718W        W90926  40.440  14.237  14.914
26719W        W90927  23.226  35.107   2.264
26720W        W90928  39.835  35.058   2.391
26721W        W90929   6.321  20.757   0.381
26722W        W90930  31.060  44.011   2.902
26723W        W90931  20.076  28.660  12.093
26724W        W90932  36.864  25.587   0.883
26725W        W90933  13.208  30.573  14.968
26726W        W90934  31.444  15.243   3.253
26727W        W90935   1.869  20.246  11.608
26728W        W90936  27.619  40.460  12.980
26729W        W90937   7.291  37.997   1.237
26730W        W90938  43.970  25.562   2.364
26731W        W90939  35.577   1.456  10.904
26732W        W90940  41.495   3.270  12.978
26733W        W90941  15.164  44.349  12.883
26734W        W90942  33.519  42.908  13.427
26735W        W90943   2.434   7.841   3.338
26736W        W90944  22.581  10.866   2.190
26737W        W90945   3.303  36.392   1.769
26738W        W90946  42.291  26.648   0.752
26739W        W90947  20.097  36.442  11.898
26740W        W90948  40.809  34.574  14.990
26741W        W90949  14.739  21.200  13.916
26742W        W90950  24.690   6.231   3.671
26743W        W90951  17.168   8.815   1.216
26744W        W90952   9.890  16.107   0.346
26745W        W90953   6.199  12.632  12.079
26746W        W90954  26.954  22.588   0.274
26747W        W90955  25.577  41.797   1.361
26748W        W90956  27.080   8.752   1.338
26749W        W90957  24.035  32.056   3.665
26750W        W90958  25.517  42.455  12.575
26751W        W90959  15.298   6.916   1.437
26752W        W90960  12.234  24.169   2.350
26753W        W90961   1.293  31.980  14.497
26754W        W90962   9.758  13.266  11.552
26755W        W90963  26.967  27.519  13.821
26756W        W90964   1.739  17.569  13.522
26757W        W90965   6.182  22.661   0.761
26758W        W90966  26.953  32.544   1.844
26759W        W90967   3.355  34.559  10.562
26760W        W90968  44.888  28.612  12.873
26761W        W90969   5.208  19.674   2.667
26762W        W90970  18.276  20.136   2.373
26763W        W90971  39.474   1.772  12.503
26764W        W90972  15.679  20.544   1.302
26765W        W90973  31.105  39.009   0.772
26766W        W90974  37.086   0.847   3.789
26767W        W90975   2.445  17.598   4.619
26768W        W90976  34.093  14.657   3.629
26769W        W90977   4.782   8.254  14.411
26770W        W90978  12.266  43.953  14.896
26771W        W90979  10.297   3.288  10.474
26772W        W90980  18.150  32.587  10.923
26773W        W90981  17.189  25.625   2.267
26774W        W90982  42.018  17.247  14.961
26775W        W90983  11.216  32.509  12.911
26776W        W90984  23.572   9.880   1.365
26777W        W90985  22.634  29.154   4.113
26778W        W90986  11.282  35.984   1.899
26779W        W90987  36.478  33.056   2.867
26780W        W90988   7.683   1.869  13.432
26781W        W90989   7.304  13.769  11.474
26782W        W90990  44.762  14.759   3.369
26783W        W90991  28.982   7.743  13.421
26784W        W90992   8.798  28.016  10.580
26785W        W90993  38.959  34.526  11.126
26786W        W90994  21.127  18.103   2.388
26787W        W90995  33.548  15.770  13.483
26788W        W90996  11.364  12.639  14.451
26789W        W90997  17.240   4.418  12.923
26790W        W90998  34.054  27.049  11.978
26791W        W90999  44.278   0.807   1.700
26792W        W91000  17.684   7.241  10.127
26793W        W91001   8.221   4.922   0.845
26794W        W91002  11.683   9.656   0.916
26795W        W91003  31.432  38.944   0.752
26796W        W91004  16.656  25.692  10.450
26797W        W91005  11.214   8.301  13.329
26798W        W91006  18.256  27.539  14.942
26799W        W91007  22.228  37.004   1.332
26800W        W91008  22.655  12.178  11.402
26801W        W91009  14.094  18.078  14.781
26802W        W91010   3.877  26.091   1.860
26803W        W91011  12.710  15.203   2.886
26804W        W91012  11.868   0.914   2.402
26805W        W91013  22.042  20.648  12.500
26806W        W91014  38.400  14.744  10.439
26807W        W91015  38.411  22.540  11.064
26808W        W91016   6.880   9.204  10.964
26809W        W91017  31.613  13.624   0.942
26810W        W91018  35.056   2.353  14.982
26811W        W91019  17.229   2.724   1.856
26812W        W91020  23.207  38.890  13.881
26813W        W91021  37.009  26.650  14.893
26814W        W91022  24.614  32.403  12.043
26815W        W91023  39.393  15.697  13.433
26816W        W91024  22.717  24.703   4.211
26817W        W91025  32.452  24.022   4.712
26818W        W91026  40.312  17.702  11.955
26819W        W91027   3.350  37.554   4.321
26820W        W91028   2.346  37.012   4.330
26821W        W91029   8.802  20.527   0.479
26822W        W91030   0.319  20.247   2.771
26823W        W91031  21.666  32.570  10.542
26824W        W91032  26.475  30.462  14.923
26825W        W91033  23.083  11.368   0.748
26826W        W91034  23.731  15.240   4.602
26827W        W91035  23.707  10.712  12.007
26828W        W91036   8.828  28.025  14.759
26829W        W91037  36.925  31.077   2.395
26830W        W91038  28.512  34.958   0.471
26831W        W91039  15.223  14.324   2.718
26832W        W91040  31.500  30.010   4.281
26833W        W91041  42.309  34.446  12.841
26834W        W91042  24.074  21.208   5.268
26835W        W91043  44.446  15.268  12.934
26836W        W91044  26.641  18.052   3.825
26837W        W91045  18.548  36.968  10.099
26838W        W91046  43.855  28.999  13.941
26839W        W91047  19.640   8.370   0.407
26840W        W91048   7.911  24.214  12.000
26841W        W91049  29.448  42.991  13.889
26842W        W91050  29.600  35.023   3.765
26843W        W91051   2.801  14.787   4.302
26844W        W91052  43.011  30.044   4.244
26845W        W91053  35.084  11.248   0.814
26846W        W91054   7.693   8.166   2.199
26847W        W91055  44.358  29.455   2.706
26848W        W91056  31.625  29.529   0.874
26849W        W91057  31.078  17.634  11.407
26850W        W91058  33.045  36.055  11.506
26851W        W91059  15.627  19.626  13.917
26852W        W91060  42.459  44.308  12.564
26853W        W91061  21.220  26.201  11.496
26854W        W91062  30.510  11.742   1.421
26855W        W91063  12.297  16.614  10.412
26856W        W91064   6.265   7.253   5.158
26857W        W91065  16.807   5.731   5.183
26858W        W91066   5.230  42.006  12.534
26859W        W91067  10.766   2.875   4.291
26860W        W91068  34.542   7.296  12.438
26861W        W91069   7.900  22.551   2.776
26862W        W91070  30.922  28.557   2.235
26863W        W91071  10.245  39.526   4.635
26864W        W91072  40.899  32.921   3.239
26865W        W91073   8.878  23.026  14.918
26866W        W91074  13.302  16.217  11.976
26867W        W91075  27.530   6.419  11.074
26868W        W91076  36.073  17.645   3.730
26869W        W91077   8.317  37.039  12.910
26870W        W91078   6.868   2.436  14.965
26871W        W91079  27.094  12.796   3.833
26872W        W91080  29.067  22.104  12.956
26873W        W91081  20.553  20.627  12.500
26874W        W91082  32.095  10.153  13.420
26875W        W91083  30.434  43.812  13.879
26876W        W91084  30.990   9.210   2.852
26877W        W91085   5.882   5.880   2.790
26878W        W91086  39.557  16.696   2.384
26879W        W91087  18.170  15.764   4.683
26880W        W91088   2.338  28.174   3.733
26881W        W91089   5.435   8.790  14.509
26882W        W91090  36.545  44.455   5.168
26883W        W91091  31.641  18.616   0.402
26884W        W91092   7.786  28.106  11.597
26885W        W91093  15.628  27.018   1.370
26886W        W91094  36.964   3.275   0.442
26887W        W91095  15.682  42.384   2.279
26888W        W91096   9.786  16.157  13.437
26889W        W91097  21.667  27.670  13.543
26890W        W91098   9.809  37.920  12.364
26891W        W91099  33.128  13.115   3.801
26892W        W91100  19.717  35.393  11.008
26893W        W91101   9.776  35.042  10.590
26894W        W91102  19.771  35.981   4.182
26895W        W91103  20.272   6.275  11.072
26896W        W91104  19.214  42.404   0.348
26897W        W91105  18.263  41.854   0.892
26898W        W91106  32.043  41.329  11.481
26899W        W91107   0.479  17.597  11.554
26900W        W91108  40.435  26.614  10.474
26901W        W91109  11.196  43.432   4.661
26902W        W91110  33.383  38.962  11.984
26903W        W91111  26.072  35.447  13.928
26904W        W91112  29.058  33.890   0.268
26905W        W91113  31.004  16.658  10.487
26906W        W91114  37.978  16.311   3.221
26907W        W91115  13.331  21.200   4.218
26908W        W91116  37.566  27.560   2.352
26909W        W91117  24.013  41.902   4.817
26910W        W91118  38.990  40.525   4.226
26911W        W91119  19.215  32.074   2.840
26912W        W91120  16.801   6.401   5.241
26913W        W91121  29.988  17.764  14.909
26914W        W91122  32.041  42.012   1.863
26915W        W91123  41.453  15.664  10.890
26916W        W91124  28.154  40.468  14.897
26917W        W91125  43.858  41.876  13.048
26918W        W91126  37.953  25.561  11.100
26919W        W91127  18.572  15.685  10.562
26920W        W91128  17.298  11.135  11.543
26921W        W91129  26.978   3.848   1.422
26922W        W91130   4.944  29.973   3.643
26923W        W91131   0.930   3.813   4.795
26924W        W91132  11.810   6.750  10.504
26925W        W91133  28.954  12.791   3.231
26926W        W91134  30.159  11.272   4.330
26927W        W91135  30.918  20.607   4.278
26928W        W91136  12.147  23.173   3.723
26929W        W91137  36.565  11.241  10.949
26930W        W91138   0.974  34.524   1.810
26931W        W91139  32.127  26.200  10.441
26932W        W91140  30.572  43.770   0.929
26933W        W91141  41.834  30.155  11.985
26934W        W91142  41.340   7.770   4.354
26935W        W91143  38.840  42.320   0.271
26936W        W91144   6.810   5.864  11.984
26937W        W91145  28.436   0.910  12.390
26938W        W91146   1.878  42.950   4.226
26939W        W91147   4.707   4.389   0.894
26940W        W91148  38.939  23.735   5.174
26941W        W91149  28.172  40.314  12.912
26942W        W91150  34.501  27.511  12.542
26943W        W91151  30.434  27.994   5.291
26944W        W91152   2.767  30.421   1.881
26945W        W91153  42.795  24.657   2.858
26946W        W91154  14.331  38.551   3.776
26947W        W91155  27.664  30.581  14.284
26948W        W91156  22.051   5.271  12.964
26949W        W91157  42.387   9.686   2.708
26950W        W91158  41.982  34.436  13.961
26951W        W91159  27.051  39.554   3.711
26952W        W91160  35.861   5.740   0.899
26953W        W91161  18.568  33.058   2.317
26954W        W91162  40.815  30.104  11.528
26955W        W91163   2.334  36.448   4.224
26956W        W91164   8.743  44.304  11.428
26957W        W91165  28.967  20.543   0.737
26958W        W91166   6.323  40.427   1.250
26959W        W91167  25.649  35.386  10.615
26960W        W91168   0.322  10.180  12.404
26961W        W91169   0.817  13.324   4.752
26962W        W91170   2.724   6.278   3.277
26963W        W91171  33.595   2.750   0.841
26964W        W91172  39.850  17.621  12.350
26965W        W91173  18.605  40.833  12.955
26966W        W91174  43.272  20.678  14.392
26967W        W91175   6.708  35.385  14.851
26968W        W91176  13.743  20.178  13.359
26969W        W91177  22.223  11.166  12.039
26970W        W91178  23.720  33.958  13.439
26971W        W91179   8.275  28.075   1.739
26972W        W91180  40.919  14.269  12.957
26973W        W91181  20.596  44.773   1.268
26974W        W91182  30.154  10.371  10.612
26975W        W91183  26.663  32.940   4.735
26976W        W91184  41.429  40.526   0.463
26977W        W91185  12.728   6.402  13.505
26978W        W91186  34.487  11.700   2.897
26979W        W91187  26.472  14.219  13.061
26980W        W91188  22.048   4.920  13.527
26981W        W91189  23.654  33.486   2.699
26982W        W91190  23.656  41.411  10.587
26983W        W91191  13.255  12.276   5.262
26984W        W91192  32.074   9.151   4.737
26985W        W91193   2.435  33.018   1.762
26986W        W91194  38.931  39.370   4.835
26987W        W91195   6.803  15.232   3.284
26988W        W91196   9.389   5.697   3.315
26989W        W91197  14.808  42.282   2.825
26990W        W91198  36.432  16.809   1.932
26991W        W91199  30.659  29.944  10.552
26992W        W91200  39.973  12.653   0.305
26993W        W91201   8.244  43.318   0.372
26994W        W91202  43.853  28.499   0.953
26995W        W91203   2.736  18.628   4.676
26996W        W91204   5.278  16.652  12.941
26997W        W91205  36.349  15.215  12.035
26998W        W91206  38.510  12.705  14.360
26999W        W91207   9.292  26.646  12.554
27000W        W91208  31.617  12.310   4.764
27001W        W91209  43.788  10.168  12.561
27002W        W91210  31.571  27.595  11.935
27003W        W91211  26.557  13.198   5.283
27004W        W91212  19.736   8.162  13.486
27005W        W91213  41.038  34.986   4.687
27006W        W91214  31.570  26.061   3.239
27007W        W91215  26.148   1.935   0.279
27008W        W91216   6.230  41.475  12.989
27009W        W91217   1.333  24.657  12.057
27010W        W91218  27.692  34.501   0.807
27011W        W91219  32.916  11.320   1.330
27012W        W91220  41.879  29.133  13.954
27013W        W91221   6.843   8.872  13.307
27014W        W91222  40.938  32.066   0.846
27015W        W91223  32.965  22.631  12.345
27016W        W91224  24.224  36.932  12.847
27017W        W91225  43.910  35.585   3.717
27018W        W91226  42.941  42.816  10.608
27019W        W91227  20.724  39.861   2.202
27020W        W91228   0.284  13.323   2.316
27021W        W91229   6.867  14.675  14.916
27022W        W91230   6.923  15.725   1.246
27023W        W91231   8.346   7.350   2.352
27024W        W91232  13.237  36.581   2.220
27025W        W91233  24.562  35.933   4.247
27026W        W91234  18.237  30.525  13.356
27027W        W91235  14.214  29.503  11.055
27028W        W91236  30.081  40.544   0.248
27029W        W91237  39.499  32.011  10.642
27030W        W91238  38.921  11.671  11.983
27031W        W91239  13.738  14.778  14.331
27032W        W91240  42.298  42.476  12.014
27033W        W91241  38.399  28.607   0.305
27034W        W91242  15.250  24.983  11.555
27035W        W91243  21.516  31.628  13.351
27036W        W91244  11.199   4.365   2.342
27037W        W91245  37.426  30.591   0.393
27038W        W91246  12.739  40.547   1.925
27039W        W91247  25.148   3.325  13.882
27040W        W91248  13.722  15.642   3.641
27041W        W91249   9.786   3.924   4.615
27042W        W91250  29.587  16.763  12.364
27043W        W91251  43.008  42.292  13.438
27044W        W91252  20.160  19.759  13.011
27045W        W91253  41.029  21.660   5.268
27046W        W91254   3.864  38.366  14.360
27047W        W91255  33.976  43.509   3.351
27048W        W91256  30.964   0.791   0.764
27049W        W91257   6.360  44.387   0.338
27050W        W91258  13.815  33.030  12.039
27051W        W91259  21.083  29.653   3.748
27052W        W91260   9.337  11.189  14.840
27053W        W91261  10.323   4.443   2.322
27054W        W91262  42.499  35.495   4.327
27055W        W91263  14.708  11.200   2.810
27056W        W91264  42.415  25.180  11.422
27057W        W91265  26.108  38.511   4.207
27058W        W91266  36.419   0.258   2.690
27059W        W91267  40.037  20.733   4.689
27060W        W91268   0.492  25.688   1.907
27061W        W91269  32.476  37.079   4.230
27062W        W91270  43.450  16.736   1.448
27063W        W91271  31.402  40.348   2.804
27064W        W91272  16.165  35.067   1.723
27065W        W91273  26.192  25.535   3.384
27066W        W91274  38.032   9.755  11.941
27067W        W91275   4.835  41.868   0.328
27068W        W91276  38.024  12.157  11.545
27069W        W91277  15.792  17.719  13.888
27070W        W91278  17.713   1.328   1.233
27071W        W91279   6.275  20.074   2.730
27072W        W91280  20.134  32.510  11.044
27073W        W91281  33.064   4.342  10.926
27074W        W91282  42.333  23.561  13.487
27075W        W91283  21.724  34.607  10.522
27076W        W91284  13.821  18.087   3.311
27077W        W91285  40.529  37.349  11.991
27078W        W91286  24.027  43.972   3.321
27079W        W91287   5.743   2.355  14.476
27080W        W91288  10.282  16.759   4.670
27081W        W91289  17.687  14.252   3.340
27082W        W91290  44.004   2.465  13.929
27083W        W91291   8.891  30.033  12.414
27084W        W91292   8.280  40.529   3.160
27085W        W91293  25.558  27.541   3.690
27086W        W91294  29.581  18.149   4.805
27087W        W91295  14.641  10.761  10.906
27088W        W91296   1.373  10.219  13.530
27089W        W91297  41.974  38.392   3.267
27090W        W91298   3.886  16.808   2.863
27091W        W91299   7.392  13.134  14.000
27092W        W91300  30.068  21.192   4.612
27093W        W91301  44.411   1.436  11.457
27094W        W91302   2.739  10.371   3.702
27095W        W91303  30.579  42.807  11.973
27096W        W91304  25.997   9.216   2.364
27097W        W91305  16.313  15.191   3.157
27098W        W91306  37.843  41.799  10.470
27099W        W91307  36.508  35.923   9.960
27100W        W91308  28.542  22.147  14.845
27101W        W91309   4.333  37.997  10.429
27102W        W91310  41.300  37.553  11.519
27103W        W91311  33.455  17.230  11.107
27104W        W91312  10.750  18.573  13.884
27105W        W91313  22.599  29.110   2.708
27106W        W91314  37.880  21.702  10.501
27107W        W91315  29.938  42.018  12.913
27108W        W91316  34.491  39.877   3.706
27109W        W91317  20.065   0.278   4.244
27110W        W91318  31.563  40.481  13.853
27111W        W91319  37.580  41.498   0.870
27112W        W91320  43.398  25.047  11.536
27113W        W91321  42.836   1.940   1.734
27114W        W91322  32.587   9.798   4.664
27115W        W91323  11.625  31.540   4.607
27116W        W91324  15.677   6.872   1.226
27117W        W91325   6.255  43.944  14.458
27118W        W91326  30.492  41.332  10.977
27119W        W91327   2.740  36.096   3.374
27120W        W91328  43.922  43.476  12.985
27121W        W91329   0.427  11.310   1.413
27122W        W91330   8.251  30.013  10.939
27123W        W91331  12.286   0.376   3.691
27124W        W91332  40.923   8.858  11.492
27125W        W91333  28.937  37.951  12.076
27126W        W91334  42.964  37.507   3.824
27127W        W91335   2.796  33.094  13.886
27128W        W91336   7.680  23.079   2.839
27129W        W91337  19.560  40.533  13.834
27130W        W91338  18.592  24.179  12.056
27131W        W91339  14.682  19.730  12.022
27132W        W91340   7.901   3.258   3.248
27133W        W91341  35.370   1.896  10.572
27134W        W91342  34.911  27.507   1.272
27135W        W91343  20.757  35.531   2.818
27136W        W91344  13.784   2.390  14.375
27137W        W91345  19.618  14.759   9.972
27138W        W91346   0.257  15.764   1.441
27139W        W91347   2.278  19.717   3.363
27140W        W91348  42.819   0.925   4.624
27141W        W91349  35.517   3.873   3.236
27142W        W91350  35.094  12.841   4.686
27143W        W91351   0.297   1.849  14.968
27144W        W91352  18.287   7.316  11.889
27145W        W91353  21.614  35.914  13.461
27146W        W91354  23.996  38.485   1.802
27147W        W91355  33.510   7.386  10.946
27148W        W91356  33.435  42.860   4.757
27149W        W91357  38.449  15.791   3.208
27150W        W91358  35.947  28.501  11.988
27151W        W91359   1.242   5.873  13.965
27152W        W91360  37.001  17.188   4.694
27153W        W91361  33.405   8.746  11.091
27154W        W91362   3.356  38.039  10.931
27155W        W91363  28.065  16.120  10.991
27156W        W91364  31.117  37.345   0.387
27157W        W91365  37.474  17.178   0.299
27158W        W91366  31.934  37.028   3.765
27159W        W91367  40.797  40.303  12.420
27160W        W91368  26.493  23.009   1.728
27161W        W91369   9.232  12.131  12.548
27162W        W91370   3.884   6.287  13.523
27163W        W91371  26.160  12.217   0.827
27164W        W91372  25.604  16.108   2.419
27165W        W91373  26.013   8.659   1.280
27166W        W91374  29.092  22.645  13.867
27167W        W91375  10.357  20.069  14.363
27168W        W91376  44.999  28.945  12.466
27169W        W91377  29.630  42.780   3.210
27170W        W91378  31.644  18.287   2.824
27171W        W91379  41.828  11.796   0.727
27172W        W91380  11.336  39.384  11.110
27173W        W91381  38.946  13.281  12.570
27174W        W91382  21.711  35.914   2.755
27175W        W91383   3.923   7.209   1.357
27176W        W91384  35.088  35.448   3.152
27177W        W91385  16.763  32.886   2.723
27178W        W91386   0.334  14.303  14.891
27179W        W91387   0.267  11.762   0.726
27180W        W91388  31.912  28.951  10.983
27181W        W91389  29.425  32.003   4.635
27182W        W91390  31.944   8.331  11.601
27183W        W91391   1.284  37.088  11.892
27184W        W91392  11.148  40.527   2.225
27185W        W91393   3.227  15.606  13.926
27186W        W91394  28.989  37.066  13.806
27187W        W91395  28.021   3.799   0.478
27188W        W91396  32.972  15.128   3.870
27189W        W91397   6.292  11.670   2.301
27190W        W91398  11.164  36.434   1.855
27191W        W91399   1.388  34.563  12.976
27192W        W91400  44.339  31.419  11.538
27193W        W91401  34.942  37.542  11.014
27194W        W91402  19.101  42.465  14.355
27195W        W91403  42.390  20.273   1.371
27196W        W91404  30.999  28.002   1.410
27197W        W91405  21.187  36.086   4.198
27198W        W91406  32.007  25.517  11.496
27199W        W91407  12.813  15.330  11.865
27200W        W91408   1.784   4.792  11.421
27201W        W91409  27.940  25.153  14.468
27202W        W91410  42.989  44.975   3.684
27203W        W91411  22.097  28.126  14.315
27204W        W91412  38.474  43.975  11.550
27205W        W91413   6.313  22.731  14.430
27206W        W91414  10.359  29.654   0.251
27207W        W91415  11.845   3.434  14.764
27208W        W91416  13.645  23.140  13.956
27209W        W91417  19.673  10.162  13.854
27210W        W91418   7.819   7.305  12.411
27211W        W91419   7.230  16.116   4.803
27212W        W91420  28.520  23.138   4.188
27213W        W91421   8.868  43.019  11.382
27214W        W91422  19.638  19.563   0.855
27215W        W91423   5.348   8.684  10.620
27216W        W91424  36.922  24.084   3.843
27217W        W91425  26.658  44.891   1.857
27218W        W91426  39.433  17.090   2.891
27219W        W91427   7.803  30.017  11.019
27220W        W91428  21.586  24.158   4.126
27221W        W91429  10.774  15.738  13.008
27222W        W91430  17.598  15.299   0.822
27223W        W91431  15.267  27.462   3.854
27224W        W91432  43.987  11.758   2.671
27225W        W91433   5.289  30.933  11.482
27226W        W91434  26.497  44.987  12.908
27227W        W91435   1.762  24.499  11.968
27228W        W91436  19.719  13.743  12.071
27229W        W91437   0.325  30.415   0.284
27230W        W91438  34.002  10.819   2.207
27231W        W91439  11.204  16.279  11.907
27232W        W91440  41.880   7.909   3.361
27233W        W91441  13.763  14.308  12.423
27234W        W91442  18.154   4.237   4.258
27235W        W91443  15.251  41.005   1.799
27236W        W91444   5.761  34.535   2.386
27237W        W91445   0.263  15.670  10.515
27238W        W91446   5.217   0.457   3.174
27239W        W91447  41.854  31.010   2.195
27240W        W91448   1.803  15.197   4.352
27241W        W91449  16.716  41.452   3.691
27242W        W91450  28.525   5.932  14.983
27243W        W91451  30.569   9.785  10.417
27244W        W91452   7.843  41.477   2.368
27245W        W91453  24.173  17.780   1.835
27246W        W91454  23.608  16.193  12.069
27247W        W91455   3.457   0.345  14.388
27248W        W91456   5.232  28.090   4.184
27249W        W91457  43.279  41.985   1.246
27250W        W91458  17.229   9.311  11.871
27251W        W91459  38.835  22.653   3.352
27252W        W91460  38.373  16.765  12.887
27253W        W91461  10.186  26.111  13.417
27254W        W91462  43.000   2.280  10.117
27255W        W91463  43.936  17.561   0.291
27256W        W91464  23.588  32.398  13.367
27257W        W91465   7.739  39.389  10.504
27258W        W91466  41.402   0.839  14.018
27259W        W91467  19.081   8.378   1.291
27260W        W91468  16.195   4.817  14.777
27261W        W91469   8.379   2.443  12.466
27262W        W91470  36.014  37.013  12.350
27263W        W91471  13.194  10.694   3.365
27264W        W91472  31.462  16.592   1.329
27265W        W91473  35.505  24.691   4.804
27266W        W91474  32.966   4.818   2.695
27267W        W91475  30.960  36.890  11.126
27268W        W91476  10.741  34.521  14.488
27269W        W91477  13.178  36.349   2.862
27270W        W91478  34.013  21.712  13.463
27271W        W91479   3.313  14.340   4.169
27272W        W91480   6.717  23.510  12.063
27273W        W91481  23.566  13.288  12.890
27274W        W91482  31.899  25.661   4.649
27275W        W91483   1.348  27.139  12.510
27276W        W91484  20.545  24.588   4.612
27277W        W91485  17.664   0.824   1.934
27278W        W91486  31.963  40.487  11.372
27279W        W91487  36.514  22.234   3.664
27280W        W91488  23.524  28.572  11.460
27281W        W91489  36.043  21.697  13.460
27282W        W91490  33.603  43.901  10.909
27283W        W91491  43.976  15.715   3.171
27284W        W91492   1.741  37.966  14.770
27285W        W91493  33.395  43.974  12.877
27286W        W91494  23.706  31.095  12.862
27287W        W91495  36.581  11.695   0.892
27288W        W91496  24.000  24.693   2.259
27289W        W91497  42.917   8.656   2.786
27290W        W91498   5.413  26.184   1.873
27291W        W91499  33.906  15.802  12.019
27292W        W91500  19.548  14.139  10.024
27293W        W91501   9.837  19.058   3.214
27294W        W91502  17.579  21.028   0.786
27295W        W91503   3.228  37.932   0.442
27296W        W91504  30.571  44.421   4.155
27297W        W91505  28.509  27.073   0.774
27298W        W91506   1.886  11.218   4.218
27299W        W91507  30.010   7.234  10.416
27300W        W91508   8.162   4.218   4.671
27301W        W91509   6.414   2.360   0.479
27302W        W91510  38.449  39.342   3.386
27303W        W91511  31.902   8.708   4.141
27304W        W91512   7.875  25.120   3.730
27305W        W91513  27.042  31.502  10.992
27306W        W91514  37.579  38.501  12.890
27307W        W91515   9.811   7.241  12.396
27308W        W91516  14.291  10.705   2.209
27309W        W91517  30.568  32.944  12.084
27310W        W91518  34.556  34.119   1.261
27311W        W91519  22.251  34.934   0.287
27312W        W91520  25.549  15.582  12.540
27313W        W91521  42.355   1.936  10.431
27314W        W91522  13.345  44.336  13.850
27315W        W91523  16.278  27.097  10.433
27316W        W91524  26.488   5.263  12.411
27317W        W91525  14.170  18.192   3.386
27318W        W91526  18.096  21.181   3.226
27319W        W91527  19.102  10.696  13.798
27320W        W91528   2.741  33.066   5.588
27321W        W91529  43.914  26.164   0.891
27322W        W91530  41.928  23.065  12.356
27323W        W91531   9.885  33.114  13.544
27324W        W91532  29.076   6.828  12.401
27325W        W91533   1.813  38.566   3.194
27326W        W91534   0.757  10.189   1.800
27327W        W91535  35.913  40.971  12.551
27328W        W91536  26.493  15.261   1.394
27329W        W91537  20.095  33.394  12.481
27330W        W91538  10.197   1.788  10.599
27331W        W91539  35.905  32.007   0.379
27332W        W91540  18.278  20.611   3.748
27333W        W91541  16.681  42.443   1.441
27334W        W91542  41.861  22.212   0.833
27335W        W91543  41.898  31.982   2.217
27336W        W91544  22.102  41.025   2.278
27337W        W91545  29.496  28.993   1.916
27338W        W91546  35.964  17.790   1.420
27339W        W91547  41.502   7.258   1.841
27340W        W91548  28.045  29.648   3.310
27341W        W91549  16.734  30.077  11.601
27342W        W91550  15.621  10.203   3.762
27343W        W91551   7.182  24.223  13.805
27344W        W91552  39.458  29.542   1.350
27345W        W91553  20.260  37.073   4.235
27346W        W91554  40.309   8.793  12.571
27347W        W91555  31.085  44.400  10.005
27348W        W91556  21.259  44.765   2.703
27349W        W91557  25.619   2.292  12.932
27350W        W91558  21.573  18.654  10.012
27351W        W91559  23.021   2.876   0.422
27352W        W91560   9.877  36.537   2.879
27353W        W91561  40.309  13.169  12.023
27354W        W91562  43.805  16.743   4.196
27355W        W91563  25.681   9.387  13.022
27356W        W91564   6.415   5.404  14.008
27357W        W91565  28.058  17.603   0.463
27358W        W91566   2.844  34.498  14.870
27359W        W91567  37.484  28.589   0.959
27360W        W91568  34.985  14.170  11.010
27361W        W91569  33.555  38.558  13.388
27362W        W91570   1.366  17.163  11.558
27363W        W91571  41.922  10.188  14.340
27364W        W91572  38.381  26.695   2.876
27365W        W91573  26.486  18.627   0.483
27366W        W91574  44.939  35.896   0.813
27367W        W91575  15.763  27.631   2.192
27368W        W91576  31.512  25.055  11.934
27369W        W91577   4.943  10.199   3.759
27370W        W91578  15.738  30.968   1.358
27371W        W91579  43.988  11.243   3.351
27372W        W91580   7.766  14.305  13.313
27373W        W91581  26.030   9.644  10.500
27374W        W91582  28.460  25.034   2.806
27375W        W91583  41.955   0.889   1.765
27376W        W91584   4.382   0.329  12.942
27377W        W91585  10.172  24.992   3.179
27378W        W91586  17.279  37.530  13.374
27379W        W91587  20.065  17.612   3.282
27380W        W91588   4.336  18.071  12.468
27381W        W91589  34.561  24.709  11.927
27382W        W91590  35.911  27.489   1.723
27383W        W91591  41.797  35.948  13.522
27384W        W91592  10.380  29.064   3.816
27385W        W91593  25.986  10.172  13.390
27386W        W91594   5.709   2.723  10.961
27387W        W91595  28.656  24.652   2.737
27388W        W91596  34.600   5.359   2.881
27389W        W91597  23.162  30.440  13.349
27390W        W91598  27.588  12.267   3.296
27391W        W91599   9.319  12.275   3.325
27392W        W91600  40.975  26.193  13.929
27393W        W91601  41.881  17.736  12.911
27394W        W91602   2.894   6.734   4.822
27395W        W91603  21.190  22.707  11.889
27396W        W91604  40.488  17.790   1.312
27397W        W91605  24.130  37.569   9.932
27398W        W91606  12.141  23.578  10.493
27399W        W91607  28.548  33.903   0.421
27400W        W91608  33.991  24.598   1.399
27401W        W91609   0.481  23.505  12.459
27402W        W91610  15.319   7.390   3.365
27403W        W91611   5.789  33.424  12.024
27404W        W91612   2.403  10.720  14.508
27405W        W91613  21.613  32.113   3.740
27406W        W91614  16.250  39.351   4.675
27407W        W91615  12.200  16.606   4.251
27408W        W91616  11.771  40.468   0.758
27409W        W91617  14.821  21.125   1.246
27410W        W91618  21.553  24.552   4.753
27411W        W91619   1.772  43.799  14.911
27412W        W91620  21.147  15.224  11.585
27413W        W91621  18.181  28.608  11.597
27414W        W91622  39.499  19.698  14.892
27415W        W91623   1.894  29.089  10.936
27416W        W91624  24.100   9.263   1.716
27417W        W91625   1.334  15.707   4.745
27418W        W91626  22.998  18.780   0.786
27419W        W91627  11.866  26.087   1.318
27420W        W91628  21.044  12.819  14.360
27421W        W91629  24.500   5.755  10.604
27422W        W91630  35.423   0.979  14.968
27423W        W91631  13.257  20.205   1.888
27424W        W91632  40.533  11.207   3.365
27425W        W91633  10.180  14.774   9.639
27426W        W91634  23.544   8.742  11.075
27427W        W91635   1.346  15.164   4.812
27428W        W91636  23.549  10.865  14.295
27429W        W91637  22.712   0.251  12.516
27430W        W91638  33.088  20.719  14.328
27431W        W91639   0.414  29.436  11.071
27432W        W91640   8.326  37.401  11.872
27433W        W91641  35.006  39.927  14.026
27434W        W91642  12.138   8.203   2.768
27435W        W91643   7.806   5.197  10.591
27436W        W91644  14.146  32.953  11.560
27437W        W91645  35.588  39.844   0.350
27438W        W91646  27.507  38.476   2.773
27439W        W91647   8.872  25.115   3.171
27440W        W91648  29.436  44.980   2.747
27441W        W91649  23.646  18.246   3.787
27442W        W91650   2.811  12.803  10.595
27443W        W91651  37.987   4.793  12.037
27444W        W91652  35.559  19.658   3.675
27445W        W91653  37.472   7.806  14.322
27446W        W91654  41.443  26.632  14.777
27447W        W91655  15.265  13.644  14.451
27448W        W91656   9.787   8.693   2.693
27449W        W91657  38.888  30.086  10.930
27450W        W91658   0.955  27.447  10.475
27451W        W91659  20.089   3.820  10.974
27452W        W91660  29.039  32.586   0.459
27453W        W91661  31.960   2.882  13.470
27454W        W91662  31.496  30.462  10.500
27455W        W91663   6.303  28.984   3.168
27456W        W91664  12.689   7.191   4.135
27457W        W91665  17.574   4.752  12.915
27458W        W91666  40.927  28.644   2.893
27459W        W91667  10.807  41.295   0.301
27460W        W91668  39.545  28.157  13.876
27461W        W91669  16.207  37.037   1.734
27462W        W91670  36.974  35.604   4.284
27463W        W91671   2.384   8.874  14.505
27464W        W91672  42.968  19.593  12.823
27465W        W91673  34.965  31.077  10.912
27466W        W91674   7.323  27.167   0.271
27467W        W91675  12.192  28.614  10.523
27468W        W91676  31.594  27.573  14.808
27469W        W91677  31.971  31.452   9.961
27470W        W91678  11.790  37.369   4.739
27471W        W91679  30.604  14.789   2.796
27472W        W91680  40.491  29.986  10.556
27473W        W91681   0.287  20.741  13.462
27474W        W91682   8.706  37.878  14.856
27475W        W91683  30.595  20.271   1.258
27476W        W91684   1.949  20.748  14.820
27477W        W91685  15.167  25.106  13.800
27478W        W91686  23.015  19.100  13.309
27479W        W91687  19.638  15.321   2.396
27480W        W91688  28.148  10.166  14.421
27481W        W91689  12.766   6.811   1.882
27482W        W91690  33.544  19.254  12.864
27483W        W91691  35.503  31.959   0.357
27484W        W91692  11.356  31.481  13.850
27485W        W91693   6.692  22.999   4.747
27486W        W91694  20.157  31.937   4.668
27487W        W91695  19.195   5.327   4.669
27488W        W91696  32.017  35.920   4.731
27489W        W91697  19.667   7.819  11.025
27490W        W91698  16.105  19.572  11.857
27491W        W91699  30.002   9.730  14.863
27492W        W91700  11.358  29.515  14.009
27493W        W91701  16.677  11.203  14.327
27494W        W91702  19.121  33.878  11.597
27495W        W91703  41.423  41.859   1.363
27496W        W91704  42.318   2.374  13.906
27497W        W91705   8.210  38.443  12.999
27498W        W91706  24.667  18.083   0.372
27499W        W91707  28.493  40.874  14.507
27500W        W91708  33.094  33.569  14.300
27501W        W91709  31.996  20.604   1.305
27502W        W91710  24.016  11.863  14.285
27503W        W91711   4.428   8.227   3.815
27504W        W91712  28.083   4.921  10.454
27505W        W91713   0.763   4.817  10.993
27506W        W91714   9.230   8.669  12.076
27507W        W91715  40.033   3.874  12.510
27508W        W91716   6.820  16.626   2.846
27509W        W91717  38.355  21.525  12.078
27510W        W91718   1.464   2.816   0.769
27511W        W91719  40.009  24.211  12.469
27512W        W91720  37.970  28.593  13.339
27513W        W91721  32.120   3.375  14.498
27514W        W91722   3.359  32.046  14.504
27515W        W91723  29.073   8.338   4.618
27516W        W91724   2.790  21.180   2.308
27517W        W91725   2.392   3.391  10.474
27518W        W91726  16.677   2.397  13.439
27519W        W91727   7.691  32.479  13.849
27520W        W91728  23.064  16.773   2.847
27521W        W91729  12.188  40.800   1.852
27522W        W91730  21.047   2.863   1.408
27523W        W91731  16.109  12.838   2.836
27524W        W91732   0.871  28.089  14.935
27525W        W91733  27.015  20.749  10.957
27526W        W91734   5.259  43.908  14.371
27527W        W91735  27.045   9.214  12.853
27528W        W91736  26.538  44.858  11.942
27529W        W91737  23.557  41.800  13.986
27530W        W91738  21.221   2.914  10.493
27531W        W91739  15.235  24.973   3.800
27532W        W91740  24.508  26.186   2.321
27533W        W91741  27.641  13.789  10.904
27534W        W91742  37.029  23.492   1.285
27535W        W91743  12.127  15.250  10.499
27536W        W91744   3.955  43.825   0.333
27537W        W91745  19.710  29.575  11.092
27538W        W91746  18.786   6.349  12.489
27539W        W91747  18.727   8.666  14.762
27540W        W91748  37.843  22.619   1.232
27541W        W91749  35.537   7.250  10.541
27542W        W91750  25.512  16.582  12.967
27543W        W91751  13.669  20.732   1.774
27544W        W91752  24.647  27.665  13.413
27545W        W91753  28.650  43.930  14.784
27546W        W91754  36.372  30.907   0.419
27547W        W91755   1.864  38.969   3.654
27548W        W91756  22.129  11.778   4.312
27549W        W91757  14.322   3.340   3.227
27550W        W91758  37.370  29.669  12.975
27551W        W91759  37.850  35.869  10.415
27552W        W91760  40.925  15.314  14.410
27553W        W91761  12.337   5.791   4.174
27554W        W91762  14.119  14.305  10.897
27555W        W91763  30.523  43.428   0.961
27556W        W91764   6.691  20.064   0.295
27557W        W91765   4.776  32.063   1.280
27558W        W91766  18.209  29.156   1.323
27559W        W91767  43.314   4.219   4.685
27560W        W91768  33.520  11.864  14.311
27561W        W91769  42.490  34.906   1.284
27562W        W91770  20.103  31.093   3.336
27563W        W91771   6.351  24.149  11.396
27564W        W91772  43.885  44.931   3.315
27565W        W91773   6.781  29.515  12.440
27566W        W91774  35.888  14.762   2.856
27567W        W91775   1.369  23.536  13.884
27568W        W91776   6.768  30.050   3.204
27569W        W91777  25.026  30.978  11.534
27570W        W91778  32.412  11.694  14.029
27571W        W91779  17.571  42.848  13.822
27572W        W91780  13.326  19.123   4.181
27573W        W91781  26.509  33.616  11.473
27574W        W91782   9.714  18.166  12.577
27575W        W91783  26.082  26.009   0.910
27576W        W91784  36.562  40.461  11.430
27577W        W91785  13.158  17.718  12.461
27578W        W91786  34.396  24.569  10.552
27579W        W91787  18.167  15.644  13.531
27580W        W91788  28.663  40.039  10.543
27581W        W91789   7.185  32.973  13.515
27582W        W91790  14.318  30.454  12.080
27583W        W91791  26.982  17.669   4.611
27584W        W91792  36.027  40.379  12.456
27585W        W91793  43.014  30.144   2.218
27586W        W91794  28.111  44.795  13.006
27587W        W91795  15.790   8.236   4.699
27588W        W91796  20.197  24.015   0.335
27589W        W91797  24.585   7.192   1.920
27590W        W91798  40.962  31.563   2.380
27591W        W91799  30.120  13.147   1.753
27592W        W91800  39.843  37.416   4.749
27593W        W91801  19.540  13.705   0.384
27594W        W91802  37.377   6.328  14.361
27595W        W91803  43.987  11.833  13.981
27596W        W91804  20.562   4.851  13.054
27597W        W91805  24.723  10.833  13.000
27598W        W91806  18.151  41.319   4.337
27599W        W91807  33.521  19.758  12.501
27600W        W91808   5.403  11.300   0.298
27601W        W91809  18.097  36.383  12.019
27602W        W91810   8.267  23.589  12.539
27603W        W91811  27.036  26.171   0.752
27604W        W91812  19.647  20.583  12.408
27605W        W91813  16.264  14.735  13.367
27606W        W91814   1.737  19.554   3.715
27607W        W91815  44.346  43.398  14.334
27608W        W91816  40.307  16.166  14.928
27609W        W91817  34.612  20.099  12.903
27610W        W91818  30.503  41.529  12.031
27611W        W91819  28.062   3.931   2.265
27612W        W91820  36.508   1.902  11.401
27613W        W91821   8.172  17.256  11.115
27614W        W91822   0.257  38.529   0.382
27615W        W91823  21.658  13.229   0.307
27616W        W91824   7.874  15.179   4.148
27617W        W91825  29.604  30.526   0.747
27618W        W91826  27.069  20.187   1.281
27619W        W91827  23.234  33.951   0.369
27620W        W91828   0.428  33.982  14.335
27621W        W91829   6.748  36.910   3.302
27622W        W91830  14.109  39.938   4.254
27623W        W91831   3.413   2.950   4.252
27624W        W91832  39.997   3.797   1.319
27625W        W91833  17.709  34.034   3.640
27626W        W91834  39.008  23.496   0.840
27627W        W91835  22.056  20.542   1.847
27628W        W91836  15.205  21.621  14.278
27629W        W91837  12.299  26.637   4.654
27630W        W91838  20.223  21.639   1.769
27631W        W91839  21.194  10.877   5.123
27632W        W91840   6.871  26.037  13.358
27633W        W91841  16.185  26.502  12.852
27634W        W91842   1.779  29.114   1.403
27635W        W91843  42.876  10.344  14.933
27636W        W91844  26.193  22.725  12.029
27637W        W91845  15.770  35.047   2.368
27638W        W91846  16.668  19.209  13.053
27639W        W91847   3.247  35.893  10.529
27640W        W91848  21.671  40.516   3.833
27641W        W91849  25.043  17.082  12.875
27642W        W91850  13.288  13.181   3.172
27643W        W91851  17.284   4.717   4.259
27644W        W91852  20.140  41.971   4.313
27645W        W91853  24.486  41.487  13.402
27646W        W91854  39.902  20.210  14.800
27647W        W91855  30.626  13.259   4.705
27648W        W91856  21.133  15.184   2.237
27649W        W91857  29.111  14.691  10.623
27650W        W91858  43.891  28.586   1.231
27651W        W91859  31.021  29.111   3.738
27652W        W91860  30.595  21.130   0.812
27653W        W91861  12.774   8.664  12.072
27654W        W91862  31.482  10.774   2.314
27655W        W91863  12.838  11.788  10.080
27656W        W91864  19.165  24.559  10.502
27657W        W91865  28.651  24.157  10.617
27658W        W91866  30.596  41.817   2.796
27659W        W91867  29.089  24.507  11.947
27660W        W91868  12.146  20.216   1.403
27661W        W91869  24.118  23.133  12.343
27662W        W91870  20.163  42.877   3.763
27663W        W91871   8.673   8.768   1.245
27664W        W91872  22.523  26.124  13.540
27665W        W91873   0.452  23.099   4.654
27666W        W91874   5.750  34.026  11.492
27667W        W91875  25.519  43.323  14.779
27668W        W91876  15.326   4.939  11.857
27669W        W91877  37.547  12.765  11.579
27670W        W91878  11.129  13.805   0.318
27671W        W91879  11.696   1.386   4.245
27672W        W91880  43.929  20.070  14.812
27673W        W91881  19.161  22.695  14.335
27674W        W91882   9.323  10.337  13.006
27675W        W91883  34.448  24.978   3.840
27676W        W91884  40.894  26.497   0.879
27677W        W91885  17.577  28.997   2.687
27678W        W91886  19.273  31.441   0.840
27679W        W91887  40.951  44.855   2.182
27680W        W91888  35.100   1.321   0.812
27681W        W91889  27.120  14.742  12.088
27682W        W91890  16.156   7.755  13.533
27683W        W91891  26.988  34.973   2.361
27684W        W91892  23.504   5.917  11.966
27685W        W91893  32.006   2.445   3.769
27686W        W91894  11.275   9.375   1.232
27687W        W91895  40.305  36.509  11.885
27688W        W91896   3.775  42.359   1.865
27689W        W91897   8.732  27.095   0.442
27690W        W91898  42.991   7.751   4.645
27691W        W91899  38.393  31.496   4.798
27692W        W91900  23.502  27.135   3.291
27693W        W91901  15.096  24.226   2.855
27694W        W91902  30.428  27.995  13.039
27695W        W91903  19.191  25.564   0.870
27696W        W91904  21.592  23.047  11.857
27697W        W91905   5.248  39.909   3.213
27698W        W91906  35.879   4.731   3.724
27699W        W91907  41.896  43.824   2.325
27700W        W91908  30.570  16.193   2.191
27701W        W91909  18.181  16.708  12.972
27702W        W91910   0.318  17.156  14.505
27703W        W91911   1.860  40.465   4.164
27704W        W91912  16.139  22.694   3.291
27705W        W91913  18.087  10.291   1.394
27706W        W91914  11.277  23.090  12.396
27707W        W91915  28.630  24.595   0.733
27708W        W91916  41.297  38.891  12.443
27709W        W91917  40.469  41.318   4.660
27710W        W91918   9.201  26.997  10.483
27711W        W91919  38.340  30.011  10.509
27712W        W91920  38.471   0.980  12.975
27713W        W91921  20.587  31.434   3.343
27714W        W91922  23.234   5.812   2.305
27715W        W91923  29.585   2.471   2.293
27716W        W91924  40.865  17.595  12.541
27717W        W91925  19.554  10.662  13.043
27718W        W91926  18.577  20.611   1.872
27719W        W91927  21.560  19.229   0.964
27720W        W91928  26.695   1.811   1.444
27721W        W91929   7.749  44.912   4.811
27722W        W91930  14.675  30.039   4.121
27723W        W91931   8.398  40.838  14.895
27724W        W91932  31.127  24.698   2.893
27725W        W91933  30.513  17.767  13.978
27726W        W91934   3.835  29.056   4.629
27727W        W91935  12.771  32.637  14.368
27728W        W91936  43.408  40.521   3.836
27729W        W91937  44.380  42.789   4.117
27730W        W91938  17.264  30.917  12.393
27731W        W91939  10.792   5.846  14.359
27732W        W91940  13.781   5.238   4.787
27733W        W91941  17.282   6.368   4.253
27734W        W91942  20.230  10.177   5.190
27735W        W91943  14.592  26.479  11.119
27736W        W91944  32.137   6.832  10.911
27737W        W91945  35.431  17.638   1.402
27738W        W91946  27.489  16.101  11.433
27739W        W91947  22.174  33.080   3.780
27740W        W91948  23.687   6.821   4.328
27741W        W91949  40.999  17.223   0.409
27742W        W91950  42.398  33.001   1.301
27743W        W91951  28.676  33.394  12.468
27744W        W91952  31.544  28.525  11.064
27745W        W91953  22.733  37.948  11.924
27746W        W91954  13.123   9.853   4.687
27747W        W91955  15.261  15.221   3.738
27748W        W91956  33.586  39.855   0.245
27749W        W91957  13.641  40.315  12.342
27750W        W91958  28.157   8.746  12.063
27751W        W91959   8.308  35.499   0.379
27752W        W91960  21.739   0.321  11.546
27753W        W91961  28.008  13.113  10.113
27754W        W91962  39.026  12.820  13.931
27755W        W91963  20.265   0.922  13.876
27756W        W91964  37.842   3.855  13.016
27757W        W91965  32.616  28.155   2.762
27758W        W91966  32.522  10.174   3.253
27759W        W91967  21.604  18.229  14.815
27760W        W91968  19.076  29.131   4.765
27761W        W91969  21.513  42.866  10.508
27762W        W91970   6.332  34.470   1.317
27763W        W91971  17.219   2.265   3.847
27764W        W91972  40.517   8.228  14.297
27765W        W91973   6.682   4.940  12.441
27766W        W91974   7.299  17.695   1.855
27767W        W91975  20.259   8.377  12.078
27768W        W91976   9.163  32.570   4.655
27769W        W91977  31.907  28.602   2.823
27770W        W91978  15.639  19.609   2.206
27771W        W91979  44.351  12.612   3.382
27772W        W91980  24.110   5.882  13.960
27773W        W91981  40.044   5.846   3.840
27774W        W91982  40.530  16.655   1.289
27775W        W91983   7.759  41.857  13.343
27776W        W91984  16.695  32.634   4.114
27777W        W91985  29.093  40.511   1.307
27778W        W91986  21.246  25.692   0.481
27779W        W91987  17.291  36.023  11.922
27780W        W91988  36.051   3.866  12.990
27781W        W91989   5.364   0.296  13.355
27782W        W91990   2.377   1.313  11.954
27783W        W91991  18.566  42.916   1.920
27784W        W91992   3.457  22.070   1.876
27785W        W91993  34.537   4.355   3.269
27786W        W91994   6.219  30.044  13.897
27787W        W91995  37.018  21.564  12.074
27788W        W91996  21.104  34.379   4.640
27789W        W91997   3.931  37.567   1.893
27790W        W91998  21.226  20.107  14.454
27791W        W91999   6.712  26.047   1.288
27792W        W92000   9.180  33.547  10.058
27793W        W92001  28.094  22.556   4.216
27794W        W92002  34.024  15.099  13.514
27795W        W92003   9.275  31.141  11.969
27796W        W92004  24.001  27.102   1.808
27797W        W92005  22.019  23.124   1.882
27798W        W92006  40.845  18.082   0.961
27799W        W92007  26.671  43.860  12.577
27800W        W92008  30.552  34.547   3.744
27801W        W92009  30.111  35.065   0.341
27802W        W92010  40.389   0.342  13.794
27803W        W92011  10.751  35.557  14.338
27804W        W92012  27.570  14.224   0.356
27805W        W92013  18.761  17.275   1.886
27806W        W92014  36.461  27.656   1.442
27807W        W92015   5.328  44.429  10.462
27808W        W92016  20.550   1.244   0.446
27809W        W92017  18.581  41.020  14.421
27810W        W92018  16.683  42.302  10.408
27811W        W92019   4.934  23.187   2.711
27812W        W92020  30.124  17.237  14.415
27813W        W92021  13.337  18.094   0.437
27814W        W92022   9.167   7.182  14.278
27815W        W92023  37.498  43.772   2.685
27816W        W92024  32.069  33.034  13.372
27817W        W92025   9.776  24.643   4.170
27818W        W92026  19.066  10.185   9.943
27819W        W92027  38.917  41.843   2.807
27820W        W92028  18.132  34.603   1.445
27821W        W92029  38.365  39.352  14.885
27822W        W92030   7.380  20.097   1.902
27823W        W92031  31.954  19.580   4.329
27824W        W92032  26.028  36.935   0.867
27825W        W92033  18.127  14.226  10.617
27826W        W92034  37.368  42.911   3.859
27827W        W92035  28.451   4.414   2.304
27828W        W92036  27.116   3.458   5.125
27829W        W92037  20.761   2.958  11.444
27830W        W92038  16.220  22.549  14.899
27831W        W92039   6.828  39.381  14.887
27832W        W92040  39.526  39.831  14.883
27833W        W92041  21.644  28.631  10.578
27834W        W92042  44.450  30.502  12.085
27835W        W92043  15.259  43.823   1.923
27836W        W92044  41.998  10.762   3.839
27837W        W92045  38.002  26.650   5.203
27838W        W92046   2.848  38.070   9.639
27839W        W92047  18.710  12.693   4.785
27840W        W92048  44.996  40.397  13.901
27841W        W92049   3.883   9.823   1.387
27842W        W92050  11.773  30.639  14.862
27843W        W92051  43.285  26.684   5.203
27844W        W92052  42.283  21.691  12.078
27845W        W92053  13.348  25.020   3.267
27846W        W92054  40.471  23.657  11.868
27847W        W92055  25.607   3.300  14.407
27848W        W92056  15.324  25.573  14.315
27849W        W92057  17.770  19.666  12.384
27850W        W92058  12.847   7.190   2.777
27851W        W92059  24.162  36.869  11.490
27852W        W92060   4.279  35.081   1.870
27853W        W92061  22.730  15.326  11.920
27854W        W92062   9.818  12.356   3.189
27855W        W92063  36.580   4.225  12.000
27856W        W92064  25.652  12.724  11.480
27857W        W92065  38.343  15.778   1.891
27858W        W92066  40.014  37.981   1.265
27859W        W92067  43.490  12.174   3.377
27860W        W92068  42.922  44.999   4.701
27861W        W92069  25.103   3.804   4.608
27862W        W92070   2.321   5.314  14.330
27863W        W92071  13.143   4.733   5.232
27864W        W92072  26.996   4.353  11.090
27865W        W92073  44.306  29.535   5.659
27866W        W92074  35.104   3.876  12.399
27867W        W92075  17.064   9.777  10.981
27868W        W92076  16.611  12.621   3.355
27869W        W92077  42.869  16.809   2.788
27870W        W92078  31.587  12.724   3.732
27871W        W92079   8.801  24.126  14.789
27872W        W92080  18.629  11.823   3.225
27873W        W92081  24.025  25.014  14.497
27874W        W92082  43.862  14.755   1.313
27875W        W92083  29.092  42.941   1.391
27876W        W92084   1.938   0.341  14.293
27877W        W92085  12.638  35.856   1.308
27878W        W92086  37.383   2.233  14.958
27879W        W92087  34.992   5.739  13.830
27880W        W92088  20.713  18.285   3.266
27881W        W92089  26.520  24.710  12.921
27882W        W92090  11.663  28.606  12.883
27883W        W92091  12.349  13.751  12.015
27884W        W92092  29.557   8.668   2.231
27885W        W92093   4.422  37.918  12.483
27886W        W92094  37.512  41.802   3.344
27887W        W92095  27.622  16.629  13.799
27888W        W92096  28.574  10.754  14.897
27889W        W92097  41.943  19.164   3.274
27890W        W92098  20.261  25.472   0.779
27891W        W92099  21.570  12.849   4.783
27892W        W92100  11.817  35.453  12.488
27893W        W92101  24.491  33.488  12.400
27894W        W92102   2.455  25.086   3.262
27895W        W92103   3.222   8.727  11.056
27896W        W92104   4.394  32.433   2.325
27897W        W92105  18.146   2.928  11.513
27898W        W92106  16.255  13.836   3.650
27899W        W92107  24.051  40.519   4.836
27900W        W92108  24.489   8.239  14.467
27901W        W92109  41.817   3.230   3.261
27902W        W92110  14.731  42.820   2.417
27903W        W92111  23.535  10.816  13.025
27904W        W92112  35.370  18.060   2.880
27905W        W92113  32.476   2.776  14.891
27906W        W92114   9.273  28.061  11.096
27907W        W92115  32.947  37.506  12.478
27908W        W92116  44.813  32.921   4.763
27909W        W92117  26.507  17.783   1.401
27910W        W92118  42.916  16.596   2.350
27911W        W92119  15.297  29.154   2.246
27912W        W92120  40.422  10.709   0.361
27913W        W92121  27.602  39.860   2.390
27914W        W92122  35.057  43.943   1.773
27915W        W92123   7.731  42.499  11.102
27916W        W92124   5.281   9.266  14.909
27917W        W92125  35.023   0.308   0.810
27918W        W92126  18.711   8.657  11.436
27919W        W92127   1.799  19.180  14.351
27920W        W92128  32.423   6.238  12.065
27921W        W92129  25.102  32.538  13.029
27922W        W92130  14.228   0.475   4.810
27923W        W92131  22.609  41.865  12.096
27924W        W92132  12.664   0.950   1.409
27925W        W92133  33.031  28.592  14.888
27926W        W92134  37.911  30.467   5.243
27927W        W92135  27.641   8.849   2.206
27928W        W92136  33.556  32.490   1.787
27929W        W92137  39.869  43.791   2.815
27930W        W92138  38.938  27.022  12.995
27931W        W92139   9.389  32.032  14.483
27932W        W92140  13.603  33.574  13.023
27933W        W92141  18.743   6.804  12.927
27934W        W92142  43.515   5.751   3.734
27935W        W92143  42.957  32.534   2.382
27936W        W92144  44.934  13.269  14.495
27937W        W92145  28.484   0.450  14.958
27938W        W92146  11.716  13.235   0.856
27939W        W92147  34.556  17.197  10.981
27940W        W92148  13.647  38.489   0.290
27941W        W92149  42.423  28.995   1.698
27942W        W92150  34.484  20.585   4.722
27943W        W92151  15.755  25.695  13.382
27944W        W92152  39.911   9.661  10.624
27945W        W92153  28.444  11.167  14.862
27946W        W92154  15.620  27.587   4.700
27947W        W92155  15.623   7.212  11.458
27948W        W92156  12.807  44.437  14.425
27949W        W92157  27.561   0.860   0.340
27950W        W92158   6.323  30.450  12.452
27951W        W92159   0.796  38.957  11.018
27952W        W92160   9.334  15.194  12.373
27953W        W92161  42.790  17.646   9.669
27954W        W92162   4.813  15.281   0.877
27955W        W92163   6.848  30.075   2.705
27956W        W92164  40.505  24.617   0.279
27957W        W92165  40.811  25.963   0.751
27958W        W92166  22.514  15.785  11.058
27959W        W92167  32.486  18.644  10.894
27960W        W92168   8.894   4.766  13.006
27961W        W92169  29.427  34.951   4.293
27962W        W92170  19.162  29.529   1.383
27963W        W92171  36.394   9.786   4.680
27964W        W92172  35.917  34.076   0.320
27965W        W92173   6.338  40.526   4.740
27966W        W92174   3.279  41.813  14.381
27967W        W92175   9.198  17.768   1.859
27968W        W92176   7.385   4.428   2.789
27969W        W92177  16.094   4.438   4.199
27970W        W92178  42.800  32.500   1.266
27971W        W92179  36.563  25.493  13.956
27972W        W92180  13.770  39.430   4.336
27973W        W92181   4.227  37.976  13.020
27974W        W92182  37.876  28.127  13.499
27975W        W92183  37.346  30.623   2.889
27976W        W92184  12.262  21.223  13.908
27977W        W92185   0.408  15.729   3.337
27978W        W92186   7.323  37.920  12.030
27979W        W92187  13.230  26.019   3.189
27980W        W92188  15.728  43.798   4.240
27981W        W92189   0.956   8.654  11.122
27982W        W92190  36.050  11.864   4.147
27983W        W92191  34.986  21.172   0.291
27984W        W92192  34.939  21.751  11.479
27985W        W92193  29.501   1.769   0.759
27986W        W92194  17.117  23.027  14.893
27987W        W92195   4.383  41.922   4.628
27988W        W92196  44.783  21.733  14.410
27989W        W92197  28.972  35.564   2.695
27990W        W92198   8.662   8.690   2.384
27991W        W92199  42.299  11.633  12.889
27992W        W92200  28.933  25.040   3.336
27993W        W92201  17.171  10.233   2.769
27994W        W92202  27.615   9.287   3.644
27995W        W92203  40.341  11.257   1.376
27996W        W92204  36.849   7.343   0.807
27997W        W92205  28.608  15.248   0.482
27998W        W92206  13.336  33.446   2.366
27999W        W92207  40.996  43.000  13.505
28000W        W92208  28.940  21.607  13.326
28001W        W92209  30.607  22.076   1.258
28002W        W92210  36.075  18.616   1.827
28003W        W92211   5.824   6.228   2.821
28004W        W92212  16.572  44.388   4.318
28005W        W92213  10.354  44.903  12.517
28006W        W92214  43.981  32.542   3.297
28007W        W92215  16.293  41.532   1.393
28008W        W92216   8.698  15.139  10.557
28009W        W92217   1.859  31.970  10.531
28010W        W92218   2.957  28.456  10.562
28011W        W92219  17.275  16.599  14.871
28012W        W92220  13.272  24.648  12.913
28013W        W92221  33.952   5.349  14.471
28014W        W92222   0.413  21.172   2.781
28015W        W92223  10.717  30.078  14.867
28016W        W92224  27.006  22.015  11.068
28017W        W92225  23.072  40.516   2.244
28018W        W92226  37.040   0.957  13.019
28019W        W92227  21.721  21.671  13.945
28020W        W92228  10.761  41.878   1.784
28021W        W92229  39.915  33.595  14.822
28022W        W92230  12.782  18.286   0.911
28023W        W92231   3.787  32.494  12.924
28024W        W92232  42.969   6.922  11.526
28025W        W92233  40.488  11.215  10.606
28026W        W92234   9.304   9.218   4.783
28027W        W92235   7.733  10.152   0.902
28028W        W92236   5.780   1.299   3.649
28029W        W92237   4.711  21.604   3.718
28030W        W92238  22.131  41.401  13.399
28031W        W92239  38.441  13.797   4.702
28032W        W92240  12.713  12.165   2.724
28033W        W92241  42.830  33.102   1.914
28034W        W92242  33.575  13.661  14.511
28035W        W92243   2.790  30.150  12.490
28036W        W92244  44.903   0.308  10.998
28037W        W92245  31.641   0.848   1.921
28038W        W92246  17.160  34.605  12.938
28039W        W92247  30.924  11.794   1.234
28040W        W92248  40.880   0.281  14.347
28041W        W92249  26.184  15.209   1.250
28042W        W92250  20.715  14.703   0.895
28043W        W92251   9.366  11.697  14.941
28044W        W92252  35.543  13.188   2.267
28045W        W92253  11.132  24.156  11.473
28046W        W92254   9.731  12.238  12.979
28047W        W92255  24.629  34.938  10.577
28048W        W92256   1.375  36.454   1.273
28049W        W92257  12.326  26.988   4.605
28050W        W92258  32.588  41.806  12.360
28051W        W92259   9.287  11.336  12.041
28052W        W92260   2.252  35.048  13.379
28053W        W92261  26.200  36.058  11.517
28054W        W92262  11.278  33.609   2.239
28055W        W92263   1.800  35.442   3.177
28056W        W92264  39.873   7.286  14.511
28057W        W92265   4.793   3.337  11.480
28058W        W92266  13.233  31.485  11.972
28059W        W92267  42.794  43.423   2.743
28060W        W92268  19.203  36.884  13.325
28061W        W92269   9.720  20.146  11.007
28062W        W92270  27.471  12.683  11.051
28063W        W92271   9.812  34.888   3.365
28064W        W92272  31.575  29.948   0.287
28065W        W92273  25.524  28.007   0.402
28066W        W92274  43.764  44.922  10.519
28067W        W92275  33.071  42.867   3.792
28068W        W92276  19.702   2.375   2.205
28069W        W92277   0.492  24.657  11.598
28070W        W92278  37.576  38.827  14.466
28071W        W92279  29.653  19.178   2.899
28072W        W92280  30.522  28.943  14.758
28073W        W92281  40.505  43.872   3.702
28074W        W92282  31.145  25.512  13.461
28075W        W92283   2.769  30.937  14.467
28076W        W92284  38.971  18.623   4.193
28077W        W92285  37.573  24.494  12.432
28078W        W92286  35.994  12.197  12.467
28079W        W92287   2.275  38.863   1.211
28080W        W92288  43.415  34.539   1.814
28081W        W92289  17.118   7.298  14.456
28082W        W92290  24.517   4.877  12.055
28083W        W92291  29.495  20.599   0.729
28084W        W92292  14.706  14.297   3.807
28085W        W92293  13.638  29.025  14.812
28086W        W92294  42.905  29.518   2.888
28087W        W92295  18.554  12.303  10.970
28088W        W92296   9.228   0.985  10.550
28089W        W92297  19.766  30.986  12.572
28090W        W92298  22.171  32.092   0.481
28091W        W92299  35.382   2.361  11.008
28092W        W92300  32.413  40.998   2.726
28093W        W92301  30.449  12.142  10.514
28094W        W92302  32.508  12.625  12.059
28095W        W92303  33.560  15.159   4.257
28096W        W92304  30.473  11.347  13.500
28097W        W92305  26.153  21.707  11.524
28098W        W92306  44.374  14.233   1.368
28099W        W92307  25.197  43.447  13.527
28100W        W92308  16.702  41.441  11.957
28101W        W92309  14.629  34.874  12.867
28102W        W92310  38.403  33.395   0.840
28103W        W92311  43.931   1.802   0.341
28104W        W92312  44.882   1.777   1.801
28105W        W92313  23.719  21.065  12.973
28106W        W92314   8.837  34.388   1.435
28107W        W92315  38.459  41.350  12.341
28108W        W92316  31.470  17.758  13.310
28109W        W92317  22.036  42.791   4.132
28110W        W92318  17.164   8.279  12.886
28111W        W92319  19.242  11.800   4.252
28112W        W92320   6.229  27.171  13.988
28113W        W92321  34.553   7.207  12.054
28114W        W92322   9.887  10.338   3.212
28115W        W92323  18.586  19.590   3.785
28116W        W92324  10.296  21.219   4.280
28117W        W92325  41.007   5.418   3.713
28118W        W92326   5.342  14.607  12.442
28119W        W92327   8.236  24.046   0.775
28120W        W92328  21.213  41.866  13.011
28121W        W92329  20.718   7.341  14.855
28122W        W92330   1.893   5.328  13.841
28123W        W92331  18.175  13.160   0.891
28124W        W92332  31.515   7.681   1.902
28125W        W92333   9.381  15.145  14.798
28126W        W92334   5.383  28.116  10.427
28127W        W92335  22.121  38.496   3.332
28128W        W92336   4.741  28.138   4.287
28129W        W92337  26.631  14.194  12.367
28130W        W92338  24.507  18.608  13.875
28131W        W92339  28.136  32.962   2.784
28132W        W92340   6.722  35.040   0.379
28133W        W92341  12.792  13.280   4.166
28134W        W92342  43.851  25.200  12.425
28135W        W92343  10.167  11.179   4.161
28136W        W92344  31.517  20.689   3.165
28137W        W92345   9.646  37.062   0.265
28138W        W92346  40.877  29.654   4.124
28139W        W92347  11.648  40.012   1.276
28140W        W92348  43.345  23.645  12.884
28141W        W92349  43.331  41.949   3.152
28142W        W92350   8.730  37.418  13.485
28143W        W92351  24.590  43.274   4.119
28144W        W92352  44.849   7.779  14.285
28145W        W92353  12.248  14.165  10.060
28146W        W92354  40.027  16.707   2.804
28147W        W92355  37.402  41.035  13.934
28148W        W92356  20.062   9.673   3.803
28149W        W92357  25.132  40.484   3.657
28150W        W92358  34.877  23.113  13.363
28151W        W92359  37.502   4.866  11.880
28152W        W92360  42.334  42.424  10.921
28153W        W92361  26.531  13.266  13.351
28154W        W92362  25.047  17.741   3.384
28155W        W92363  29.505   0.363   3.825
28156W        W92364  24.100  23.232   2.197
28157W        W92365   6.722  11.273  10.925
28158W        W92366  35.383   3.797  13.822
28159W        W92367  15.281  43.937  11.431
28160W        W92368  30.033  28.654   1.902
28161W        W92369   2.778  43.981  12.548
28162W        W92370  34.015  26.161   1.341
28163W        W92371  20.149  23.026   2.871
28164W        W92372  20.761  40.341  13.827
28165W        W92373  41.502  30.136  13.523
28166W        W92374   0.830  29.658  11.445
28167W        W92375  14.677  10.374  14.846
28168W        W92376   4.433  28.466   2.279
28169W        W92377  23.686  22.246   3.230
28170W        W92378  23.491  23.169  12.824
28171W        W92379  20.633  30.517  12.479
28172W        W92380  12.846   5.755   0.409
28173W        W92381  42.954   9.739   3.234
28174W        W92382  33.907   2.902   3.272
28175W        W92383  38.495  32.451  10.966
28176W        W92384  21.655  15.677   4.310
28177W        W92385  37.401  11.333   2.732
28178W        W92386  29.624   0.313   4.715
28179W        W92387   8.210  39.432  12.559
28180W        W92388  16.630  29.992  10.606
28181W        W92389  18.187  41.962   3.195
28182W        W92390   1.367  36.433   4.226
28183W        W92391  31.971  41.835   4.734
28184W        W92392  27.032  18.223   4.774
28185W        W92393  34.397  37.387   3.701
28186W        W92394  36.560   6.688  13.476
28187W        W92395   2.966   8.852   1.431
28188W        W92396   8.756  42.912  10.634
28189W        W92397  21.513  31.113   4.733
28190W        W92398  40.317  39.516   4.266
28191W        W92399  26.105  32.899  12.066
28192W        W92400  10.270  16.168   5.090
28193W        W92401   6.401   4.305  10.911
28194W        W92402  25.577   8.670  10.419
28195W        W92403  41.417  36.940   0.924
28196W        W92404  38.518  28.157  11.904
28197W        W92405  33.618  12.237   0.343
28198W        W92406  11.129  36.897  14.848
28199W        W92407   5.794  39.939  14.865
28200W        W92408  23.045  41.968   3.838
28201W        W92409  14.243   6.323  14.934
28202W        W92410  33.931   0.832  10.931
28203W        W92411  10.314   7.225  13.004
28204W        W92412   8.862  23.506   1.806
28205W        W92413   6.855  35.073  12.017
28206W        W92414  44.383  24.184  11.531
28207W        W92415  14.808  38.332  12.925
28208W        W92416  19.206  11.169  12.372
28209W        W92417  20.761  16.096   4.631
28210W        W92418  15.171  40.026   2.877
28211W        W92419  26.057   4.219  10.932
28212W        W92420  36.914  44.863  12.398
28213W        W92421  38.908  33.069   1.857
28214W        W92422  16.678  25.476   0.478
28215W        W92423  26.022  42.319   4.212
28216W        W92424  43.954  12.782   3.710
28217W        W92425  27.149  44.358  13.029
28218W        W92426  41.492  35.958  14.952
28219W        W92427  24.575  27.526   4.737
28220W        W92428  10.301  33.953  12.519
28221W        W92429  32.025  27.012  14.361
28222W        W92430   8.851   5.335   1.843
28223W        W92431  26.156  40.814   2.320
28224W        W92432  39.536  39.885   4.310
28225W        W92433  41.537  15.817  12.556
28226W        W92434  34.437  20.555  14.793
28227W        W92435   7.771  22.636   1.433
28228W        W92436  31.118  42.876   1.756
28229W        W92437   4.935  22.165   0.290
28230W        W92438  41.537  41.023   3.150
28231W        W92439  41.363   8.198   4.178
28232W        W92440   5.264   6.811   4.825
28233W        W92441  29.084  43.899   3.280
28234W        W92442  39.961   1.470   0.827
28235W        W92443  23.227   5.268   3.691
28236W        W92444  41.306  31.565  13.850
28237W        W92445  12.333   8.187  12.854
28238W        W92446  29.044  32.524  12.403
28239W        W92447  12.652  20.239  11.383
28240W        W92448   4.847  15.630   1.318
28241W        W92449   3.354  33.432   0.815
28242W        W92450  28.572  23.609   0.310
28243W        W92451  32.550   5.268  10.901
28244W        W92452  10.878  32.060  10.526
28245W        W92453  14.331   2.822   2.273
28246W        W92454  24.109  44.998   4.160
28247W        W92455  38.062  19.073  12.880
28248W        W92456  19.198  34.440  11.434
28249W        W92457  31.003  30.155   0.741
28250W        W92458  30.565  32.892   2.394
28251W        W92459  11.749  33.386   0.744
28252W        W92460   2.830   7.752  12.880
28253W        W92461  36.934  10.792  14.373
28254W        W92462  16.273  19.589  14.387
28255W        W92463  35.568  22.091  12.000
28256W        W92464   2.949   4.918   1.710
28257W        W92465  14.291  43.320  13.017
28258W        W92466  39.488  24.020  10.144
28259W        W92467  18.667  21.754  13.982
28260W        W92468  22.546   5.696   2.697
28261W        W92469  35.961  18.236  11.024
28262W        W92470  28.616  33.049  11.101
28263W        W92471  14.103  41.389  13.056
28264W        W92472  38.369  25.671  14.963
28265W        W92473  40.426  10.223  10.950
28266W        W92474  34.986  12.691   0.744
28267W        W92475  20.597  39.854   4.185
28268W        W92476  17.798  29.427   2.194
28269W        W92477  20.619  22.129  12.444
28270W        W92478  31.464   2.393  12.851
28271W        W92479   4.218   3.260  12.501
28272W        W92480  31.057  38.445  11.933
28273W        W92481  36.935  26.607  10.025
28274W        W92482  37.930  33.617  10.151
28275W        W92483   3.922  24.698  14.940
28276W        W92484  24.114  34.963   4.828
28277W        W92485  30.649  28.612   3.209
28278W        W92486  25.138  22.996  10.469
28279W        W92487  25.101  12.735  12.998
28280W        W92488  24.534  17.069   2.870
28281W        W92489  14.667  18.664  10.625
28282W        W92490   9.224   2.398   1.414
28283W        W92491  41.387   3.781  14.467
28284W        W92492  10.814  10.308   0.421
28285W        W92493  14.705  38.909   4.214
28286W        W92494   5.343  38.925  11.601
28287W        W92495  11.332  14.828   2.802
28288W        W92496   8.823  16.228  13.371
28289W        W92497   5.405  33.026   4.257
28290W        W92498  24.168  26.186  10.896
28291W        W92499   1.771  32.076  14.308
28292W        W92500  15.608  12.183  13.921
28293W        W92501  36.019  26.187  12.047
28294W        W92502  10.821  21.729   2.302
28295W        W92503  42.021  25.511  12.935
28296W        W92504   0.918  41.438  13.514
28297W        W92505  17.789   1.752  10.542
28298W        W92506  37.497  34.374   0.879
28299W        W92507  30.485   5.889  14.329
28300W        W92508   4.710  17.229   1.879
28301W        W92509  30.431  40.845  10.430
28302W        W92510  41.495  20.651  12.489
28303W        W92511  14.157  14.106   0.461
28304W        W92512   8.714  30.023  14.790
28305W        W92513  38.359  17.646  12.502
28306W        W92514   3.896  10.855   3.854
28307W        W92515   5.760  37.429   2.220
28308W        W92516   6.776  34.433  11.488
28309W        W92517  41.016  28.478   3.356
28310W        W92518   2.837  24.670   3.269
28311W        W92519  15.805  11.686   1.695
28312W        W92520   9.345  44.444  10.598
28313W        W92521  27.033   2.462  10.596
28314W        W92522  24.528  12.154   0.355
28315W        W92523   7.712  41.928   4.139
28316W        W92524  16.108  17.615   4.221
28317W        W92525  31.471  12.679  13.450
28318W        W92526   8.390  40.920  11.964
28319W        W92527  36.517  25.548   3.243
28320W        W92528  25.188   7.338   2.372
28321W        W92529  10.844  34.967   4.800
28322W        W92530  25.605   9.300  10.459
28323W        W92531  25.060  22.563   3.183
28324W        W92532  43.975  16.736  11.419
28325W        W92533  43.802   4.405   0.285
28326W        W92534  40.034  10.296  14.515
28327W        W92535  16.628  16.225   4.211
28328W        W92536  29.627  41.499  11.470
28329W        W92537  19.721  20.560   0.300
28330W        W92538  19.085  29.531  12.863
28331W        W92539  31.626  44.413   1.889
28332W        W92540  20.655  23.663   4.298
28333W        W92541   8.754  31.645  12.055
28334W        W92542  10.795  43.857   4.605
28335W        W92543  24.620   1.320  13.991
28336W        W92544  42.941  23.092   1.756
28337W        W92545   2.294  40.984  12.041
28338W        W92546  16.234  38.882  10.891
28339W        W92547  22.149  32.082  11.473
28340W        W92548  25.068  21.747   0.954
28341W        W92549  25.515  24.623  10.485
28342W        W92550  30.043   4.354  13.419
28343W        W92551  18.786   5.380   4.351
28344W        W92552  15.131  21.092   2.184
28345W        W92553  13.275  31.034  11.462
28346W        W92554  11.270   7.695  13.408
28347W        W92555  16.195  26.590   0.884
28348W        W92556  43.474  39.906   1.397
28349W        W92557   7.665   5.268  12.982
28350W        W92558  37.919  11.735  11.485
28351W        W92559  11.828  37.969   4.759
28352W        W92560  36.989  41.788  12.532
28353W        W92561  33.400  17.124   0.371
28354W        W92562   2.243  30.961   4.740
28355W        W92563   8.222  10.152  14.760
28356W        W92564   7.888  23.624  11.934
28357W        W92565  33.957  25.176   3.776
28358W        W92566  30.950   2.433  10.913
28359W        W92567   3.301  15.610  12.463
28360W        W92568  23.642  38.534   1.721
28361W        W92569   4.297   0.968  13.392
28362W        W92570  11.773  33.032   1.246
28363W        W92571  18.184   6.919  11.447
28364W        W92572   3.418   4.776   3.196
28365W        W92573  39.359  40.477  10.545
28366W        W92574  31.493   1.921   1.327
28367W        W92575   5.723   7.394  13.020
28368W        W92576  16.755  28.088   0.302
28369W        W92577  25.051  23.539  13.061
28370W        W92578   7.366  24.702   0.376
28371W        W92579  29.540   0.381  13.810
28372W        W92580  18.699  18.234   0.744
28373W        W92581  13.809  22.542  12.872
28374W        W92582  17.243  39.041  11.495
28375W        W92583  18.098   6.236  14.821
28376W        W92584   3.290  41.818  11.536
28377W        W92585  15.621  38.380  11.595
28378W        W92586  18.713   2.370   1.774
28379W        W92587  17.260  14.258  12.004
28380W        W92588  29.158  21.575   1.798
28381W        W92589   2.269   2.892   5.741
28382W        W92590   7.820   7.182  11.398
28383W        W92591  38.963  33.033   1.417
28384W        W92592   1.284  19.688  13.446
28385W        W92593  11.643  21.072   4.601
28386W        W92594  22.241  33.915  12.352
28387W        W92595   4.739  31.520  10.972
28388W        W92596   0.336  38.353  12.944
28389W        W92597   8.657  14.095   0.747
28390W        W92598  36.978  20.204   0.940
28391W        W92599  38.017  40.481  11.017
28392W        W92600  15.152  23.491  11.105
28393W        W92601  17.234  31.121   2.371
28394W        W92602  16.189   2.276   1.273
28395W        W92603  38.360   6.904  13.018
28396W        W92604  34.080   4.382  12.518
28397W        W92605  31.079  18.143   4.307
28398W        W92606  38.930  33.617  11.410
28399W        W92607  38.920  19.601  11.072
28400W        W92608  34.449   2.289   4.215
28401W        W92609   5.821  17.758   2.293
28402W        W92610   1.436  40.033   1.238
28403W        W92611  42.301  22.075   4.740
28404W        W92612   8.855  33.951  11.126
28405W        W92613  10.795  31.429   4.329
28406W        W92614  28.080   4.902   2.816
28407W        W92615  35.091  30.053   2.738
28408W        W92616  32.623   0.432  10.938
28409W        W92617  30.624  40.814  12.916
28410W        W92618  18.066  31.106   3.814
28411W        W92619   6.785   2.731  13.419
28412W        W92620  21.745  16.272  13.476
28413W        W92621  28.027  35.043   3.252
28414W        W92622   4.719  32.093   2.694
28415W        W92623  15.132  35.099  14.488
28416W        W92624  20.174  24.049  14.842
28417W        W92625  13.770   4.785   2.861
28418W        W92626  20.749  39.387   0.733
28419W        W92627  41.293  12.286  11.034
28420W        W92628   5.372  27.178  13.499
28421W        W92629  17.062   9.359  11.399
28422W        W92630  43.765  31.643   0.774
28423W        W92631  10.151  29.091  10.912
28424W        W92632  28.180  29.561  12.390
28425W        W92633   9.356  40.517   3.853
28426W        W92634  17.105  42.420   4.188
28427W        W92635  33.506  18.789  12.438
28428W        W92636  39.549  44.430   1.246
28429W        W92637  17.196   1.250   1.728
28430W        W92638  36.996  18.207   4.256
28431W        W92639   3.237  38.883   1.752
28432W        W92640  20.210   9.231  11.977
28433W        W92641   2.759  33.084  12.082
28434W        W92642  32.104  26.012  12.438
28435W        W92643  20.078  18.121  14.284
28436W        W92644  34.003  26.668   1.241
28437W        W92645  34.869  10.768   0.451
28438W        W92646  32.089  12.676  11.989
28439W        W92647  17.778  12.232   4.300
28440W        W92648  23.496  23.494   4.827
28441W        W92649  17.745  18.747  14.763
28442W        W92650   5.283  13.350   3.695
28443W        W92651  27.972  12.764  10.019
28444W        W92652  30.634  41.847  14.504
28445W        W92653  14.300   2.939  14.026
28446W        W92654  14.148  26.541  12.394
28447W        W92655  38.026  21.576   2.707
28448W        W92656   8.376  12.116   2.874
28449W        W92657  41.396  20.659   2.231
28450W        W92658   3.709  17.162   3.862
28451W        W92659  25.018   4.933   1.297
28452W        W92660  36.948  38.857  13.021
28453W        W92661  14.593  19.688   0.899
28454W        W92662  21.131  22.735   2.291
28455W        W92663   5.281  36.957  13.355
28456W        W92664   3.224   7.253   0.379
28457W        W92665  21.086  20.071  11.410
28458W        W92666  23.082  13.207   0.293
28459W        W92667   5.757  26.474  10.084
28460W        W92668  38.349  32.584   0.896
28461W        W92669  12.632  22.732  14.355
28462W        W92670  33.893  23.081   2.713
28463W        W92671  39.046  41.912  12.432
28464W        W92672   3.835  36.433  12.088
28465W        W92673  25.637  20.059   1.825
28466W        W92674  31.048  18.624   1.780
28467W        W92675  44.995   1.793   2.787
28468W        W92676  28.508   1.821  12.909
28469W        W92677  25.084   0.447  10.968
28470W        W92678  22.576   9.390  13.810
28471W        W92679  14.248  19.689  12.475
28472W        W92680  23.119  34.937  14.761
28473W        W92681  30.659  38.395   3.220
28474W        W92682   9.837  33.408   1.225
28475W        W92683  22.556   9.673  12.543
28476W        W92684  43.769  31.018  13.313
28477W        W92685  18.139  20.242   0.281
28478W        W92686  39.063  42.023  11.894
28479W        W92687  30.066   8.163  13.052
28480W        W92688  27.064  43.305  14.439
28481W        W92689  34.966  12.298   1.871
28482W        W92690  25.015  35.568   2.184
28483W        W92691  40.513  37.353   3.735
28484W        W92692  22.670  31.107   0.394
28485W        W92693  38.862  23.065  12.907
28486W        W92694  19.113  15.310  14.388
28487W        W92695   9.359  31.010  14.899
28488W        W92696  32.970   2.941  13.973
28489W        W92697  32.903  40.020   0.864
28490W        W92698  11.301  44.884   3.368
28491W        W92699  34.534   1.771  13.534
28492W        W92700  42.490  19.140   0.827
28493W        W92701  41.502   8.720   1.893
28494W        W92702  37.430  35.063   1.903
28495W        W92703  44.463   0.349   2.878
28496W        W92704  24.660  42.824  12.418
28497W        W92705  34.117   4.875   1.398
28498W        W92706  15.276   9.859  11.429
28499W        W92707  17.086   0.803   1.256
28500W        W92708  22.093  20.572   1.233
28501W        W92709  40.547  36.937   2.854
28502W        W92710  40.327  13.727  12.977
28503W        W92711  31.479   4.801  11.499
28504W        W92712  16.152  26.081  11.376
28505W        W92713  13.332  29.425  14.859
28506W        W92714  34.979  20.668   0.808
28507W        W92715  26.651  12.130   0.757
28508W        W92716   5.814  30.094  10.431
28509W        W92717  14.247  41.013  10.520
28510W        W92718  44.416  36.054  12.471
28511W        W92719  13.178  39.452  13.309
28512W        W92720  13.815  37.850  13.971
28513W        W92721  42.849  33.392   2.327
28514W        W92722  20.177  25.686   3.660
28515W        W92723  28.950  25.103  11.113
28516W        W92724  14.196  28.455  13.349
28517W        W92725  17.141  32.507   4.672
28518W        W92726   6.395   4.795   0.286
28519W        W92727  28.031  31.558  11.110
28520W        W92728  33.991   7.196   1.224
28521W        W92729  19.099  30.645   3.263
28522W        W92730  19.659  23.218   4.816
28523W        W92731   0.398   2.934   1.239
28524W        W92732  19.243  37.051  11.907
28525W        W92733   2.414  30.546   4.641
28526W        W92734  12.116  13.623   1.389
28527W        W92735   6.882  32.129  13.064
28528W        W92736  21.559  20.760   2.239
28529W        W92737  23.085  42.881  12.833
28530W        W92738  44.488   0.354  12.444
28531W        W92739  27.982  25.601   0.805
28532W        W92740  22.594  37.066  11.996
28533W        W92741  32.424  20.094   1.325
28534W        W92742  12.128  21.240   1.420
28535W        W92743  26.154  40.414  12.030
28536W        W92744  23.543  17.641  10.450
28537W        W92745  40.052  36.514   2.279
28538W        W92746   4.822  30.436  13.479
28539W        W92747  25.488  44.434  11.410
28540W        W92748  40.859  25.980   1.701
28541W        W92749  43.423  18.611  12.495
28542W        W92750   6.915  43.902   0.957
28543W        W92751  34.013  35.417  12.385
28544W        W92752  43.360  30.525   1.237
28545W        W92753  30.158  35.494  14.894
28546W        W92754  39.367  40.322  14.811
28547W        W92755  15.098  35.365  14.318
28548W        W92756  41.413  14.332   0.825
28549W        W92757  41.945   2.862   1.283
28550W        W92758  36.884   8.224  11.563
28551W        W92759  37.078  36.542  12.387
28552W        W92760  44.881   6.796  13.027
28553W        W92761  25.666   9.759   1.248
28554W        W92762  41.442  18.627  13.905
28555W        W92763  16.619  21.548   2.778
28556W        W92764  31.412  43.270  14.491
28557W        W92765  11.369  37.405   3.246
28558W        W92766  13.601   0.424  12.520
28559W        W92767   3.950  25.664  12.987
28560W        W92768  27.161   9.792  12.406
28561W        W92769  10.785   3.722   1.891
28562W        W92770   1.915  39.483   2.251
28563W        W92771  38.019  15.615  10.143
28564W        W92772  38.841  19.767   0.848
28565W        W92773   1.430  19.722  13.828
28566W        W92774  34.449  13.303   0.873
28567W        W92775  24.062  38.525  10.495
28568W        W92776  20.115  40.040   3.159
28569W        W92777  39.942  40.022  11.060
28570W        W92778  18.279  24.517  11.056
28571W        W92779   7.718  43.508  10.479
28572W        W92780  44.875  34.118  11.089
28573W        W92781  19.768  44.341   2.668
28574W        W92782  40.526  22.620  10.446
28575W        W92783   6.852  14.652  13.851
28576W        W92784  33.385   8.823  14.844
28577W        W92785  22.642  28.467   4.325
28578W        W92786  37.925   0.424   3.839
28579W        W92787   4.273  14.744  10.991
28580W        W92788  27.506  22.121  12.540
28581W        W92789  44.853  40.339  14.953
28582W        W92790  20.666  27.092  13.049
28583W        W92791  37.547   0.291  10.497
28584W        W92792  23.224  44.937   4.207
28585W        W92793  21.117   1.392   3.287
28586W        W92794  41.929  34.990  13.903
28587W        W92795  15.756  19.654   3.643
28588W        W92796   8.677  17.667   0.837
28589W        W92797  14.714  12.129  10.629
28590W        W92798   2.450  42.303  14.498
28591W        W92799   2.465  30.158   5.267
28592W        W92800  41.845   2.966   0.925
28593W        W92801  37.399  42.799  14.475
28594W        W92802  31.106  33.099   4.781
28595W        W92803  18.112   9.214   4.168
28596W        W92804  33.540  39.853   9.946
28597W        W92805  34.049  18.597   4.603
28598W        W92806  20.211  40.398  11.516
28599W        W92807  10.314   8.677  12.549
28600W        W92808  30.441  18.612   2.286
28601W        W92809  14.829  23.516   1.780
28602W        W92810  39.551  24.539  11.055
28603W        W92811  22.046  30.988  11.124
28604W        W92812  11.849  30.439   3.658
28605W        W92813  27.174   0.822   4.671
28606W        W92814  23.055  15.769   1.762
28607W        W92815   0.394   4.360  11.607
28608W        W92816  10.865  22.668  10.617
28609W        W92817  22.630  27.568  11.460
28610W        W92818  10.227  24.514   4.160
28611W        W92819  35.072   4.922  10.483
28612W        W92820  14.603   0.491  11.512
28613W        W92821  12.277  35.367  10.616
28614W        W92822   1.482  24.674  11.545
28615W        W92823  16.217   0.305   0.265
28616W        W92824  17.259   5.429  13.340
28617W        W92825   4.898  37.050   2.330
28618W        W92826  41.891   8.360   3.637
28619W        W92827   6.306  25.675   4.722
28620W        W92828  19.094   6.854  14.776
28621W        W92829  35.891  26.195  11.075
28622W        W92830  35.508  25.607  12.372
28623W        W92831  37.464  18.255  10.496
28624W        W92832  21.071  16.667   3.768
28625W        W92833   8.230  38.853   4.148
28626W        W92834  33.496  26.087   0.792
28627W        W92835   3.220  28.160   4.695
28628W        W92836   8.841  16.318  10.408
28629W        W92837  33.026  11.693   2.354
28630W        W92838  33.109  34.446  11.484
28631W        W92839  14.659  10.204   0.939
28632W        W92840  29.497  27.113   1.283
28633W        W92841   4.278  21.638  11.535
28634W        W92842  26.490  10.191  12.952
28635W        W92843  13.685  24.539   3.806
28636W        W92844  42.843  20.557  10.470
28637W        W92845  32.031  27.660   0.789
28638W        W92846  40.327   0.397  10.025
28639W        W92847  43.782  39.851   1.803
28640W        W92848  42.829  18.141   4.710
28641W        W92849  15.753  31.507   0.876
28642W        W92850  19.152   8.306   2.275
28643W        W92851  29.464  27.573   3.796
28644W        W92852  26.971   6.385   3.767
28645W        W92853  27.538  26.202  14.975
28646W        W92854  34.393  19.048   1.353
28647W        W92855  25.195  43.874   4.663
28648W        W92856   6.719   2.735  14.332
28649W        W92857  41.414  16.585  10.431
28650W        W92858  25.581  10.640   2.356
28651W        W92859  30.604   1.257  12.061
28652W        W92860  27.025  19.700   4.204
28653W        W92861  28.130   8.752  10.639
28654W        W92862  20.236  30.937  14.920
28655W        W92863  39.343  35.946  11.486
28656W        W92864   6.921  28.627  12.043
28657W        W92865  22.145  37.875  11.941
28658W        W92866  18.608  14.131  11.875
28659W        W92867   3.367  21.678  11.422
28660W        W92868   3.233   9.293  11.042
28661W        W92869   1.355  26.559  11.461
28662W        W92870   2.840  18.611   3.170
28663W        W92871  23.629   8.744   3.333
28664W        W92872   3.267  24.705  14.341
28665W        W92873   3.427  24.984   4.114
28666W        W92874  20.641  37.377  12.093
28667W        W92875  15.149  22.013  14.799
28668W        W92876  36.575  37.883   2.699
28669W        W92877   1.383   4.344   5.213
28670W        W92878  44.985  41.392   0.938
28671W        W92879  15.604  29.618  10.440
28672W        W92880   7.749  39.547   1.913
28673W        W92881  28.163  44.496   2.288
28674W        W92882  41.441   7.275  10.639
28675W        W92883   1.438  12.625  13.386
28676W        W92884  34.072  31.989   3.382
28677W        W92885  23.008  15.227  11.461
28678W        W92886  23.717  29.112   3.757
28679W        W92887  15.771   8.285   2.681
28680W        W92888   8.838  17.117  12.022
28681W        W92889   4.864  35.535   1.795
28682W        W92890  23.220  12.225   2.765
28683W        W92891  39.875  34.088  11.513
28684W        W92892  21.610  11.310  12.853
28685W        W92893  15.194  34.119   1.919
28686W        W92894   1.940  25.124   0.386
28687W        W92895   7.348  32.908  10.407
28688W        W92896  29.599  16.655   4.186
28689W        W92897  26.111  39.010   3.776
28690W        W92898   4.392  23.153  13.405
28691W        W92899  29.579  43.456   1.720
28692W        W92900   3.923  40.381  12.389
28693W        W92901  26.688   9.735  12.846
28694W        W92902  15.187  41.887  13.482
28695W        W92903  38.362  21.513   3.265
28696W        W92904  43.972  42.406   3.177
28697W        W92905   9.292  32.439   2.268
28698W        W92906  29.597   9.276   0.443
28699W        W92907   5.330  36.027  13.874
28700W        W92908   9.348  42.337   1.845
28701W        W92909   4.317  28.164   3.777
28702W        W92910  13.602  13.246  11.061
28703W        W92911  39.956   7.340   3.684
28704W        W92912   4.790  41.369  11.397
28705W        W92913   2.801  35.588  12.382
28706W        W92914  17.132  33.918   3.697
28707W        W92915  28.945  10.696   2.855
28708W        W92916   1.237   3.780  14.847
28709W        W92917   2.419   6.678   2.816
28710W        W92918  32.414  33.927  14.352
28711W        W92919  20.251  36.896   2.376
28712W        W92920  34.555  12.325  14.785
28713W        W92921  24.125  22.682   3.670
28714W        W92922  18.208  14.112  10.894
28715W        W92923  12.693  32.002   3.870
28716W        W92924   7.728  31.011   1.776
28717W        W92925  18.099  26.180  10.925
28718W        W92926   4.826  15.255  14.839
28719W        W92927  20.722  39.906  12.946
28720W        W92928  16.753  29.651   3.695
28721W        W92929  29.099  14.681   0.468
28722W        W92930  44.002  12.317  13.343
28723W        W92931   3.829  17.670   3.848
28724W        W92932  15.323  15.700  11.460
28725W        W92933  18.632   5.792   1.231
28726W        W92934  44.796   3.833  12.096
28727W        W92935   2.775  24.479  12.556
28728W        W92936  24.682  19.536  13.063
28729W        W92937  16.172  41.788   1.375
28730W        W92938  37.548  34.440   0.469
28731W        W92939  42.521   4.727  13.369
28732W        W92940  34.940  17.149   3.358
28733W        W92941  29.034  15.684  14.289
28734W        W92942   1.963   0.776  14.486
28735W        W92943   4.380   7.367  14.949
28736W        W92944   5.298  15.781   0.814
28737W        W92945   3.315  11.734  10.940
28738W        W92946  22.516   4.714  13.383
28739W        W92947  13.835  16.702   1.887
28740W        W92948   3.942   6.812   4.774
28741W        W92949  19.650   7.703  10.405
28742W        W92950  21.239   6.835   0.806
28743W        W92951  11.369   5.802   3.340
28744W        W92952   3.375  29.431   0.872
28745W        W92953  37.019  16.808   1.250
28746W        W92954  15.089  43.418  12.006
28747W        W92955  34.539  20.076   3.864
28748W        W92956   0.389  30.498   3.786
28749W        W92957  37.861  30.925  13.354
28750W        W92958  32.892  37.027   1.764
28751W        W92959  34.084  38.871  12.518
28752W        W92960  42.838  27.003   4.629
28753W        W92961  42.815  29.153   4.618
28754W        W92962  15.625   7.414   0.908
28755W        W92963   2.830  20.578   3.632
28756W        W92964  15.695  25.496   0.840
28757W        W92965   5.755   7.829   1.900
28758W        W92966  26.051   8.867  13.939
28759W        W92967  15.653   1.472  13.945
28760W        W92968  36.546   7.206  14.848
28761W        W92969  32.099  29.945   3.758
28762W        W92970  41.855  20.554  11.887
28763W        W92971  27.603  40.033   0.256
28764W        W92972   1.281  13.759   1.395
28765W        W92973  26.150   4.768  10.607
28766W        W92974  34.985  17.801   4.692
28767W        W92975  28.093  24.687  13.014
28768W        W92976  19.735  11.765   4.634
28769W        W92977  35.556  39.056   3.378
28770W        W92978  17.619   1.399   3.315
28771W        W92979   3.281  27.191   4.637
28772W        W92980  38.339   8.377   3.374
28773W        W92981  38.536  41.902  11.542
28774W        W92982  26.477  18.219   4.191
28775W        W92983  41.950  35.078   4.131
28776W        W92984   4.448  26.083   3.651
28777W        W92985  21.119  16.303  11.458
28778W        W92986   8.699  32.011  12.346
28779W        W92987  21.253   8.207  12.075
28780W        W92988  30.652  37.364  12.391
28781W        W92989  12.274  24.032   3.727
28782W        W92990  37.034  13.157   1.827
28783W        W92991  30.947  40.501   4.266
28784W        W92992   2.818  42.959   4.199
28785W        W92993  34.516  31.416  11.438
28786W        W92994  25.624   4.265  14.031
28787W        W92995   5.875   1.313   2.858
28788W        W92996  16.093   7.755   1.317
28789W        W92997  13.144   3.796   1.383
28790W        W92998  12.339  42.423   4.823
28791W        W92999  16.793  32.927  14.336
28792W        W93000  13.189  11.343   3.777
28793W        W93001  44.285  31.963  14.992
28794W        W93002  20.554  18.207  13.511
28795W        W93003   3.239  24.618   0.747
28796W        W93004   2.398  31.608   2.240
28797W        W93005  10.315  31.117   5.092
28798W        W93006  44.333   3.873  12.381
28799W        W93007  27.985   6.909   0.325
28800W        W93008  44.423  31.943   3.346
28801W        W93009  37.441  13.220  12.960
28802W        W93010  34.389  19.169   1.766
28803W        W93011  42.522   5.788  10.603
28804W        W93012   2.950  25.019  14.481
28805W        W93013  18.169  42.842   0.744
28806W        W93014  20.068  34.976  10.987
28807W        W93015   9.232  42.026  13.837
28808W        W93016  34.562   6.387   4.251
28809W        W93017  29.999  34.049  10.514
28810W        W93018  25.208   3.237   0.948
28811W        W93019   9.244   7.391   1.884
28812W        W93020  32.964   4.221  13.928
28813W        W93021   2.829  38.475   0.783
28814W        W93022  11.633   3.245  12.868
28815W        W93023  21.119  27.589   2.374
28816W        W93024  36.425  25.632  11.587
28817W        W93025  25.159  29.662   2.676
28818W        W93026  37.364  34.922  10.477
28819W        W93027   6.366  39.495   3.652
28820W        W93028   2.285  11.188   4.250
28821W        W93029  15.266  29.053  13.030
28822W        W93030  11.199   9.179   4.653
28823W        W93031  30.453  19.081  14.794
28824W        W93032   3.316  20.656  12.047
28825W        W93033  26.511  41.847  13.412
28826W        W93034   6.360  38.972   4.159
28827W        W93035  27.461  35.468   2.899
28828W        W93036  11.709   3.243   3.646
28829W        W93037  24.620  41.302   4.599
28830W        W93038  27.120  34.449  11.098
28831W        W93039   1.878  17.071   0.397
28832W        W93040  22.553   3.437  14.337
28833W        W93041  40.931  30.100  10.504
28834W        W93042  30.644  29.665   1.861
28835W        W93043   1.937  14.781  14.780
28836W        W93044  28.535  43.777   1.369
28837W        W93045  17.691  36.965   5.627
28838W        W93046  18.098  13.214  13.423
28839W        W93047  29.619  25.548   0.897
28840W        W93048   3.950  25.189   5.308
28841W        W93049  42.863   8.207  11.973
28842W        W93050  43.949  16.231  11.897
28843W        W93051   1.865  18.126   0.461
28844W        W93052   4.843   5.396  13.809
28845W        W93053  42.316  44.972  13.910
28846W        W93054  17.639  18.126   1.245
28847W        W93055  44.282  25.596  12.573
28848W        W93056  39.007  29.175  13.930
28849W        W93057   0.780   9.396  10.576
28850W        W93058  21.594  23.539   0.292
28851W        W93059  32.890  32.485   3.224
28852W        W93060  43.513  32.507   3.380
28853W        W93061  31.903  23.007  14.028
28854W        W93062  14.248  44.920   0.476
28855W        W93063  25.111   4.768   2.702
28856W        W93064  16.222  23.144   4.675
28857W        W93065   4.288   4.771  11.044
28858W        W93066   4.784  43.448   4.290
28859W        W93067  22.046  29.026   3.224
28860W        W93068  31.962   7.666   0.301
28861W        W93069  24.103  44.497   4.741
28862W        W93070   9.297   1.940  10.039
28863W        W93071   0.873   1.816  14.412
28864W        W93072  10.733  43.398   3.269
28865W        W93073  36.912  15.285   4.275
28866W        W93074   7.832  23.218  14.946
28867W        W93075   7.181  18.615  11.449
28868W        W93076   5.846  27.607  12.856
28869W        W93077  41.353   0.975   2.862
28870W        W93078  26.678  40.378   3.173
28871W        W93079  28.560  40.938  13.973
28872W        W93080  43.276  40.326  14.369
28873W        W93081  17.726  22.647   3.334
28874W        W93082  31.547  37.969  11.896
28875W        W93083  15.159  19.535   1.706
28876W        W93084  44.481  24.520  13.935
28877W        W93085  20.555  17.168   0.271
28878W        W93086  29.991  34.394  11.380
28879W        W93087   7.812  35.957  10.895
28880W        W93088  33.947  28.166   3.666
28881W        W93089  37.540  16.812   3.165
28882W        W93090   2.817  37.360   2.873
28883W        W93091  14.194   4.900   3.270
28884W        W93092  20.238  20.035   0.302
28885W        W93093  10.175   2.404   3.239
28886W        W93094  33.541  15.622   2.849
28887W        W93095  33.386  17.724  10.430
28888W        W93096  16.624  34.509  11.991
28889W        W93097  18.716  27.483  13.064
28890W        W93098  42.453  20.569   2.263
28891W        W93099  23.500  27.451   1.399
28892W        W93100   0.407   4.740  11.493
28893W        W93101  23.021   7.844  12.840
28894W        W93102  16.265  17.699  13.317
28895W        W93103   9.192  30.659   2.784
28896W        W93104  31.447   9.828  10.569
28897W        W93105  25.649   2.759  11.111
28898W        W93106  39.522  31.077  10.487
28899W        W93107  18.600  14.612   3.784
28900W        W93108  42.513  33.053  14.875
28901W        W93109  28.529  31.495   1.915
28902W        W93110  23.725   8.368   2.863
28903W        W93111  27.669  10.221  12.354
28904W        W93112   6.734  23.515  10.440
28905W        W93113  20.176  32.473   1.413
28906W        W93114  16.237  35.581   4.645
28907W        W93115  19.135  31.030  12.445
28908W        W93116  14.109   0.964  14.810
28909W        W93117  40.342  34.487   0.326
28910W        W93118   9.722  36.530  11.534
28911W        W93119   0.914   0.965  12.016
28912W        W93120  29.502  29.144   1.243
28913W        W93121  42.885  24.531  11.596
28914W        W93122  21.618  35.512   0.332
28915W        W93123  31.405  13.666  12.419
28916W        W93124  44.282  42.816  12.036
28917W        W93125   0.936   0.775   0.792
28918W        W93126  43.807  30.144   0.383
28919W        W93127  38.374  35.525  11.897
28920W        W93128  20.193  23.156  11.873
28921W        W93129  39.375   1.860   2.261
28922W        W93130   2.298   9.342  13.502
28923W        W93131  33.420   2.723  11.034
28924W        W93132  18.635  42.386  14.030
28925W        W93133  20.113  33.581  13.815
28926W        W93134  42.489  41.480   2.878
28927W        W93135  26.138  20.525  11.126
28928W        W93136  37.377   1.764   0.283
28929W        W93137  28.566  24.189  13.812
28930W        W93138  39.543   2.892  14.859
28931W        W93139  10.764  27.061   1.857
28932W        W93140  24.105  31.471  13.000
28933W        W93141  27.153   4.387   1.277
28934W        W93142  13.166  33.977   0.298
28935W        W93143  19.226  36.992   2.839
28936W        W93144   7.806  21.745  13.806
28937W        W93145  21.545   7.694   3.757
28938W        W93146  42.020   0.948   0.348
28939W        W93147  34.557   9.216  10.516
28940W        W93148  39.481  42.375   2.347
28941W        W93149   9.883  24.573   4.680
28942W        W93150   0.903  25.711   2.747
28943W        W93151  27.960   0.875   3.383
28944W        W93152   8.349   8.345   0.755
28945W        W93153  17.790  30.562   0.880
28946W        W93154  31.124  24.067   2.749
28947W        W93155  18.086  13.828   4.161
28948W        W93156  28.106  32.583  12.938
28949W        W93157   8.343   2.386  11.114
28950W        W93158  35.489  15.088   1.757
28951W        W93159  22.021  11.355   1.776
28952W        W93160  20.166  39.963   3.817
28953W        W93161  17.609  39.947   2.897
28954W        W93162   8.228  10.790  14.465
28955W        W93163   3.735  11.221   3.815
28956W        W93164   3.382  28.066   0.956
28957W        W93165   2.767   1.359  12.493
28958W        W93166  19.187  18.606  14.896
28959W        W93167  33.393  12.788  10.072
28960W        W93168  32.594  42.439  10.991
28961W        W93169  35.897  12.227  13.020
28962W        W93170  15.618  36.429   1.225
28963W        W93171  18.718  18.147  13.539
28964W        W93172  39.355  18.223   2.218
28965W        W93173   9.695   7.286   4.755
28966W        W93174   1.379  23.121  10.984
28967W        W93175  42.292   8.861   2.897
28968W        W93176  32.050  43.983   3.171
28969W        W93177  31.962  22.237   1.387
28970W        W93178  20.034  40.972   4.345
28971W        W93179  35.373  12.129   4.315
28972W        W93180  17.650   7.714   3.816
28973W        W93181  21.130   2.837  12.576
28974W        W93182  32.590   1.936   3.187
28975W        W93183  38.058   7.187  11.117
28976W        W93184  18.577   0.938  12.857
28977W        W93185   1.735  31.055  14.836
28978W        W93186  43.401  12.136   1.868
28979W        W93187  41.921  22.626   1.700
28980W        W93188  42.355  30.505  13.336
28981W        W93189  35.939  25.979   1.894
28982W        W93190  12.119   6.184   0.929
28983W        W93191   0.797   2.946  14.994
28984W        W93192  23.538   9.666  11.999
28985W        W93193  17.300  31.448   2.224
28986W        W93194  32.631  25.497   2.372
28987W        W93195  22.659   4.891  14.925
28988W        W93196  42.352  31.495  11.987
28989W        W93197  15.683  14.809  12.981
28990W        W93198   9.336  37.031   2.370
28991W        W93199   4.911  41.449  10.103
28992W        W93200  15.748  10.302   0.756
28993W        W93201   4.878  18.221   4.342
28994W        W93202   7.713  39.861   1.898
28995W        W93203  28.489  17.587   0.264
28996W        W93204  17.586  19.259  14.332
28997W        W93205  44.486  24.631  13.038
28998W        W93206  26.482  16.122   2.285
28999W        W93207  20.688   8.371   5.573
29000W        W93208  34.513  38.354   0.729
29001W        W93209  42.325  29.423   3.827
29002W        W93210   5.688  37.941   3.183
29003W        W93211   1.352  31.988  10.065
29004W        W93212  17.085   0.391  11.585
29005W        W93213  39.975  12.210  11.996
29006W        W93214  29.085  29.574  11.123
29007W        W93215  35.059  15.815  13.473
29008W        W93216  39.480  12.726  12.579
29009W        W93217   3.931  24.998  10.893
29010W        W93218   9.317  24.157   1.371
29011W        W93219   9.216   8.316  14.792
29012W        W93220  17.303  24.622   2.715
29013W        W93221   5.738  27.005  12.391
29014W        W93222  32.010  29.001   3.813
29015W        W93223  44.755   0.294   3.219
29016W        W93224  42.418  36.591   1.325
29017W        W93225  36.894  25.044   4.736
29018W        W93226  12.626   3.746   4.680
29019W        W93227   3.273  36.067   1.396
29020W        W93228  16.697  44.936  12.853
29021W        W93229   5.779  25.131   3.792
29022W        W93230  39.933  35.442   3.836
29023W        W93231  25.575   3.772   4.694
29024W        W93232   7.207  39.049  10.643
29025W        W93233   8.805  20.061  12.405
29026W        W93234   4.310  12.353  14.768
29027W        W93235  26.463  17.659   1.893
29028W        W93236   2.888  13.179  14.915
29029W        W93237  35.522  17.737   1.904
29030W        W93238  30.148  18.111   1.826
29031W        W93239  21.114  34.426  11.597
29032W        W93240   4.388   8.293   1.929
29033W        W93241   6.253  19.580   4.235
29034W        W93242  20.055  36.892   5.200
29035W        W93243  22.249  25.476   4.157
29036W        W93244  27.943  27.539  14.991
29037W        W93245  30.085  25.962   2.808
29038W        W93246  14.230   4.722   0.381
29039W        W93247  29.544  24.127   3.280
29040W        W93248   0.989   2.370   4.769
29041W        W93249   8.392  30.915  11.116
29042W        W93250   2.836  10.738  11.575
29043W        W93251  25.694  39.890  12.428
29044W        W93252  28.651  10.657   4.186
29045W        W93253  21.647  26.546  10.891
29046W        W93254  35.079  33.901   1.805
29047W        W93255  17.687  38.374  11.046
29048W        W93256  25.076   6.762  11.936
29049W        W93257  44.394  14.798  11.043
29050W        W93258  31.137  24.100  11.072
29051W        W93259  25.585  11.816  10.432
29052W        W93260   5.725  30.947   1.753
29053W        W93261  37.844   7.265  12.876
29054W        W93262  39.885  10.796  14.450
29055W        W93263   7.193  27.141  12.468
29056W        W93264  24.033  22.657   2.703
29057W        W93265  19.214  27.625  12.936
29058W        W93266  41.940   5.408  11.054
29059W        W93267  32.560  37.522  10.892
29060W        W93268  41.817   6.900   3.752
29061W        W93269  27.591   4.736  13.015
29062W        W93270  39.063  13.324  13.428
29063W        W93271  37.507  43.307   2.236
29064W        W93272  17.241  33.959  10.913
29065W        W93273  15.296  35.540   3.359
29066W        W93274  14.292  42.953   4.817
29067W        W93275   2.307   7.738   2.778
29068W        W93276  28.933  30.044   0.876
29069W        W93277  12.723   8.698   3.268
29070W        W93278  30.564  10.279   5.274
29071W        W93279  36.383   3.880   1.221
29072W        W93280  41.462  23.034  12.829
29073W        W93281   8.229  24.121   2.827
29074W        W93282  10.816   6.384  14.480
29075W        W93283   2.231  44.913  14.791
29076W        W93284   3.428   9.735   3.819
29077W        W93285  33.112   9.830  14.306
29078W        W93286  31.993  40.511  12.868
29079W        W93287  26.015  20.701  11.522
29080W        W93288   1.764   2.939   0.889
29081W        W93289   2.893   8.770  11.424
29082W        W93290  17.732  30.912   1.788
29083W        W93291   4.857  18.123  10.479
29084W        W93292  20.569  27.999   2.191
29085W        W93293  42.408  41.438  12.001
29086W        W93294  42.440  37.883   4.633
29087W        W93295  26.171  43.987  12.907
29088W        W93296  13.822  40.824   2.311
29089W        W93297   9.364  31.465  11.484
29090W        W93298  35.533  37.940  13.887
29091W        W93299  21.670  30.544  13.341
29092W        W93300   5.716  41.887   4.610
29093W        W93301  26.063  44.791   0.913
29094W        W93302   9.175  10.699   0.380
29095W        W93303  29.452  14.275  10.459
29096W        W93304  12.781  12.242   2.319
29097W        W93305  40.413   6.847   2.862
29098W        W93306  43.417   9.740   0.473
29099W        W93307  19.662  20.119  10.551
29100W        W93308  12.827  34.597  10.534
29101W        W93309   2.725  18.669   1.263
29102W        W93310  44.989  29.168   0.405
29103W        W93311  18.651  37.015   1.420
29104W        W93312  23.703  21.037   2.337
29105W        W93313   2.421  40.397   4.307
29106W        W93314  35.957  34.894   3.266
29107W        W93315  13.834  29.465   3.674
29108W        W93316   5.888  31.102  13.906
29109W        W93317  10.822   1.419  14.284
29110W        W93318   0.944  20.725   2.374
29111W        W93319  31.437  17.574   0.451
29112W        W93320  13.784  31.970  11.585
29113W        W93321   8.376  40.919   2.319
29114W        W93322  40.978  41.444   4.276
29115W        W93323  19.191  39.064  14.935
29116W        W93324  12.837  39.336   2.849
29117W        W93325  25.586  40.984   2.763
29118W        W93326   6.413  33.454  11.124
29119W        W93327  36.019  44.466  14.492
29120W        W93328  21.139  40.359  14.276
29121W        W93329   9.166  31.054   4.805
29122W        W93330  11.773  42.986  14.489
29123W        W93331  28.612  32.525   1.274
29124W        W93332   3.865  13.742   0.768
29125W        W93333  25.188  41.496   3.359
29126W        W93334  43.447  38.335   1.397
29127W        W93335  10.294   0.289  10.603
29128W        W93336  26.661   2.346   1.435
29129W        W93337  17.684  16.662   0.384
29130W        W93338  38.969   6.210   9.948
29131W        W93339  14.217  38.405  10.000
29132W        W93340  19.737  19.280  12.576
29133W        W93341   8.343  40.953   1.215
29134W        W93342  12.781  28.946  12.054
29135W        W93343  44.903  18.216   0.249
29136W        W93344   5.220  12.660  14.451
29137W        W93345  41.794  40.466  13.024
29138W        W93346  33.519  24.000  11.972
29139W        W93347  17.291  36.407  13.521
29140W        W93348  22.721   3.863   2.846
29141W        W93349  18.212  28.096  11.567
29142W        W93350  30.929  24.704  12.979
29143W        W93351  37.036   8.889   0.942
29144W        W93352  27.593  40.898   4.313
29145W        W93353  11.187  30.027   0.887
29146W        W93354  37.981  32.967  12.562
29147W        W93355  17.581  31.996  12.922
29148W        W93356  35.931   5.912   4.824
29149W        W93357   5.373   0.415   2.745
29150W        W93358  29.129  24.021   4.125
29151W        W93359  23.141  42.469  12.544
29152W        W93360  32.544  34.421  13.449
29153W        W93361   8.801  15.176   4.268
29154W        W93362  24.501  16.120   3.361
29155W        W93363  34.975  18.636   2.396
29156W        W93364  24.221  32.891   3.209
29157W        W93365  33.876  24.676  12.040
29158W        W93366  31.152  26.672   3.183
29159W        W93367  44.330  31.603   1.419
29160W        W93368  32.911  28.611   3.248
29161W        W93369  14.805  34.469   0.728
29162W        W93370  13.106  41.801   0.323
29163W        W93371  39.475   5.343  10.427
29164W        W93372  43.491  16.650  13.940
29165W        W93373  12.855  35.505   3.224
29166W        W93374  13.843  10.290   3.245
29167W        W93375  30.106  27.194   3.257
29168W        W93376  32.966  37.378   3.310
29169W        W93377  17.195   3.740   1.268
29170W        W93378  36.532  33.532   2.872
29171W        W93379  35.361  25.104   3.864
29172W        W93380  28.941  18.713  13.452
29173W        W93381   1.367   4.813   4.705
29174W        W93382  37.031  15.103  11.588
29175W        W93383  43.516  18.785   1.912
29176W        W93384  28.939  30.585   2.899
29177W        W93385  35.524  20.223  12.012
29178W        W93386  27.965  44.963   3.762
29179W        W93387  20.628   7.213   1.391
29180W        W93388  31.441   2.295  11.977
29181W        W93389  38.904  10.730  10.936
29182W        W93390  20.096  26.702   4.821
29183W        W93391  43.847  32.115   4.749
29184W        W93392  21.253  25.113   1.389
29185W        W93393  21.663  11.187   0.955
29186W        W93394  28.442  15.629   3.757
29187W        W93395   9.738  42.902   0.839
29188W        W93396  43.500  24.536  13.891
29189W        W93397  28.607  20.565  14.368
29190W        W93398  33.120   5.275   0.948
29191W        W93399  41.891   7.890   4.264
29192W        W93400   5.214  40.811   1.418
29193W        W93401   3.877  36.922   9.930
29194W        W93402  33.989  26.603  10.974
29195W        W93403  26.576  28.000   4.179
29196W        W93404  18.209   1.959  14.274
29197W        W93405  13.306  30.500   3.810
29198W        W93406  38.837  40.026   5.085
29199W        W93407  41.797   1.405  14.463
29200W        W93408   6.212   0.891   4.332
29201W        W93409  11.315  22.664  11.398
29202W        W93410  26.531  19.057   0.924
29203W        W93411  27.137  17.647   3.788
29204W        W93412  40.054  42.918  10.993
29205W        W93413  32.911  25.615   3.302
29206W        W93414   5.393  30.042   3.171
29207W        W93415  43.777  19.543   3.733
29208W        W93416  24.536  33.619   1.396
29209W        W93417  37.445  40.970   3.710
29210W        W93418   0.357  16.595   2.327
29211W        W93419   8.330  21.572   0.430
29212W        W93420  27.144   0.906   2.751
29213W        W93421  40.934  24.201  12.510
29214W        W93422   2.470  17.575   1.699
29215W        W93423   0.295  42.969  12.823
29216W        W93424  20.251  16.648   1.900
29217W        W93425  38.542   0.478   3.720
29218W        W93426  17.800  41.911   4.790
29219W        W93427  43.875  44.270  13.494
29220W        W93428  10.777  35.852  10.572
29221W        W93429  42.928  10.706  14.921
29222W        W93430  33.553  35.573  12.957
29223W        W93431  38.824  30.453   0.437
29224W        W93432  44.451  13.779  14.447
29225W        W93433  14.246  25.012  14.295
29226W        W93434  16.661  25.650  14.350
29227W        W93435  14.818  11.663  11.005
29228W        W93436   5.339  43.770   4.235
29229W        W93437   6.344  31.022  14.463
29230W        W93438  43.285   6.192   2.206
29231W        W93439  36.517  37.844   0.327
29232W        W93440  33.539  12.611   1.897
29233W        W93441  26.583  44.841  10.991
29234W        W93442   0.978   6.292   1.858
29235W        W93443  41.414  37.423  12.533
29236W        W93444  33.580  13.198   0.963
29237W        W93445  34.942   7.337   5.181
29238W        W93446   3.739  15.607  14.486
29239W        W93447  28.503  44.265  13.450
29240W        W93448  25.126  23.672   2.284
29241W        W93449  20.232  14.331  13.838
29242W        W93450  43.333  32.602   2.902
29243W        W93451  11.797   8.767  10.150
29244W        W93452  43.825  24.583   1.892
29245W        W93453  43.986  40.378  11.095
29246W        W93454  20.714  10.778  11.454
29247W        W93455  42.906   7.700   4.265
29248W        W93456  16.193   9.683   3.829
29249W        W93457   7.890   8.830  14.322
29250W        W93458  10.273  35.435  13.853
29251W        W93459  40.452  12.266   0.398
29252W        W93460  25.030  33.057   3.380
29253W        W93461  17.665  40.524   1.254
29254W        W93462   1.301  32.613   1.338
29255W        W93463  29.979  28.606  14.860
29256W        W93464  24.697   8.278   3.732
29257W        W93465   1.452  12.799   2.860
29258W        W93466  11.635  33.941   2.362
29259W        W93467   3.426  44.947   2.802
29260W        W93468  29.919  42.795   3.257
29261W        W93469  26.022   0.759  10.618
29262W        W93470   1.463  23.535  12.847
29263W        W93471  36.414  22.644   1.387
29264W        W93472  12.698  43.894  12.415
29265W        W93473  18.664   6.383  12.043
29266W        W93474  40.422  36.463  13.456
29267W        W93475  42.391  36.080  12.352
29268W        W93476  16.714  15.173   3.734
29269W        W93477  32.394  43.900   3.716
29270W        W93478  13.280  13.313   3.820
29271W        W93479  16.274  15.660   3.306
29272W        W93480  37.574   9.810  13.007
29273W        W93481  18.189  14.630  11.572
29274W        W93482  44.269   5.798  13.941
29275W        W93483  42.282  12.344  13.432
29276W        W93484  21.214  23.561   3.329
29277W        W93485  39.847   1.318   5.677
29278W        W93486   9.679   9.200  13.008
29279W        W93487  39.008  33.440  14.418
29280W        W93488  23.697   7.310   4.274
29281W        W93489   3.250   7.835   3.720
29282W        W93490   0.866  37.395  10.926
29283W        W93491  26.581  42.900  13.511
29284W        W93492  28.567  38.855   0.343
29285W        W93493   6.260   9.791  12.971
29286W        W93494   0.354  35.382   0.284
29287W        W93495  25.108  40.859   1.276
29288W        W93496   0.914   5.379   0.851
29289W        W93497  22.074  20.753  14.855
29290W        W93498  33.571   6.896   2.287
29291W        W93499  25.540   9.803   3.319
29292W        W93500  40.800  37.439   1.713
29293W        W93501   7.836  33.973   4.185
29294W        W93502  38.366  23.215  13.846
29295W        W93503  43.982  19.058  13.050
29296W        W93504   5.835  38.336   1.306
29297W        W93505  29.124  37.471  11.518
29298W        W93506  13.682  28.104  12.839
29299W        W93507  28.613  44.756  10.913
29300W        W93508  10.790  37.899   1.932
29301W        W93509   2.934  25.601   3.784
29302W        W93510  20.242  33.494   3.175
29303W        W93511   4.234   3.849  13.480
29304W        W93512   1.795   9.838   3.686
29305W        W93513  19.630  21.079   4.346
29306W        W93514   5.855  10.672   4.780
29307W        W93515  15.803  23.147   3.763
29308W        W93516  42.986   4.767  12.006
29309W        W93517  31.550  43.954  13.909
29310W        W93518  25.968   9.233  14.916
29311W        W93519  28.018  34.105   4.353
29312W        W93520  32.434   5.928  12.562
29313W        W93521  17.607  29.523   1.300
29314W        W93522  15.282  23.125  11.095
29315W        W93523  44.004   1.354  14.776
29316W        W93524  24.131  14.682   0.471
29317W        W93525  33.116  16.781  11.382
29318W        W93526  35.514  39.414   1.376
29319W        W93527  43.003   6.697  13.800
29320W        W93528  20.698  29.151  10.433
29321W        W93529   5.406  22.092   4.287
29322W        W93530   3.770  29.580  14.456
29323W        W93531  10.791  15.753  13.407
29324W        W93532   7.780   5.773  12.970
29325W        W93533   0.808  17.289  12.830
29326W        W93534  18.621  16.643  13.358
29327W        W93535  36.054  28.646  14.902
29328W        W93536  18.546  44.321   0.906
29329W        W93537  37.471  26.593  13.472
29330W        W93538   6.211  17.250   5.268
29331W        W93539  15.783  32.081   2.230
29332W        W93540  26.484  29.948  14.866
29333W        W93541  24.202   3.808  10.930
29334W        W93542  19.054  32.450  11.552
29335W        W93543  43.857  16.607  12.084
29336W        W93544  44.793  21.076   1.856
29337W        W93545   4.315  31.595  11.406
29338W        W93546  20.575  42.348  14.791
29339W        W93547  10.172  29.507  12.428
29340W        W93548  40.929  33.121   4.775
29341W        W93549   2.777  18.179  14.975
29342W        W93550  22.744  41.506  11.521
29343W        W93551  35.434   3.329   4.142
29344W        W93552  29.043  35.105   3.351
29345W        W93553   1.833  23.543   0.729
29346W        W93554  43.794   9.750   2.715
29347W        W93555  35.498   8.893   0.248
29348W        W93556  41.485  30.149   1.860
29349W        W93557   0.421  42.793   4.354
29350W        W93558  30.507  15.800  12.370
29351W        W93559  41.834   1.741  12.521
29352W        W93560  39.457   4.388   1.757
29353W        W93561   1.316  18.125  12.006
29354W        W93562  32.107   3.384  12.504
29355W        W93563  26.630   2.767   1.778
29356W        W93564   6.183  13.716  12.473
29357W        W93565  25.478  23.175   4.132
29358W        W93566  13.822   0.287  10.499
29359W        W93567  33.948  19.187  12.995
29360W        W93568  44.402   3.710  11.106
29361W        W93569  12.626   6.776   0.733
29362W        W93570   5.924  22.677   3.683
29363W        W93571   0.846   0.428   5.672
29364W        W93572  21.044  11.140   1.749
29365W        W93573  11.658  35.893  13.056
29366W        W93574  19.177   5.698   2.254
29367W        W93575  36.366  41.483  13.520
29368W        W93576  38.473  24.981  13.030
29369W        W93577  16.733  42.982  13.850
29370W        W93578  13.293  27.652   4.779
29371W        W93579  14.149   2.256   0.349
29372W        W93580  28.614  28.476   2.864
29373W        W93581  19.571  13.634  12.497
29374W        W93582  40.353   6.305  14.911
29375W        W93583   3.940  32.405   4.150
29376W        W93584  21.635  33.077   1.406
29377W        W93585  21.233   1.787   2.838
29378W        W93586  20.066  19.594   4.691
29379W        W93587  39.348  28.606   2.355
29380W        W93588  32.513   9.152  11.583
29381W        W93589   7.701  10.165   3.633
29382W        W93590   5.274   0.749   1.803
29383W        W93591   8.291  11.329   5.703
29384W        W93592  14.822  31.936   1.915
29385W        W93593  31.014  23.529   1.389
29386W        W93594  10.757  23.063   0.327
29387W        W93595  20.577  12.625  10.984
29388W        W93596   1.829  43.819  14.504
29389W        W93597  19.559  23.066  13.804
29390W        W93598  44.335   9.244   4.262
29391W        W93599  28.635  11.731   0.467
29392W        W93600  17.093  35.573  11.387
29393W        W93601  37.570  44.960  11.089
29394W        W93602   0.915  23.491  13.900
29395W        W93603   2.878  39.391   3.836
29396W        W93604   7.286  36.851  13.060
29397W        W93605  29.098  30.088   3.779
29398W        W93606   5.254   7.722   0.482
29399W        W93607  26.953   8.267   0.826
29400W        W93608  17.061  34.965   2.187
29401W        W93609  18.566  30.034   3.660
29402W        W93610  28.941  34.076   3.236
29403W        W93611  23.089   4.351  13.048
29404W        W93612  36.011  39.323  11.972
29405W        W93613  23.580   2.294   0.328
29406W        W93614   0.790  27.647  10.103
29407W        W93615  18.772  44.386   1.227
29408W        W93616  29.441  24.134  12.920
29409W        W93617   7.830  30.023   0.268
29410W        W93618   0.918  15.732  11.522
29411W        W93619  39.062  30.950   3.787
29412W        W93620   6.250   6.291   2.282
29413W        W93621  19.610   1.404  14.983
29414W        W93622  23.154   9.356   1.231
29415W        W93623  10.729  38.454  12.534
29416W        W93624  31.513  12.712  11.594
29417W        W93625  40.948  24.680  10.408
29418W        W93626  23.684  42.331  11.389
29419W        W93627   0.473  41.015   4.315
29420W        W93628  12.346  42.515  11.564
29421W        W93629  25.151  18.198   4.644
29422W        W93630   7.335  35.540  13.959
29423W        W93631  14.225  17.594  12.474
29424W        W93632  38.478  30.033   3.867
29425W        W93633  41.482  12.217  10.534
29426W        W93634  12.774   9.717  14.923
29427W        W93635  40.870  26.635   2.790
29428W        W93636  39.989  37.509   4.249
29429W        W93637  30.607   3.418   0.334
29430W        W93638  15.681  31.559  14.970
29431W        W93639  36.072  38.391  11.989
29432W        W93640  22.577  36.441   3.670
29433W        W93641  25.509  31.936   3.748
29434W        W93642  41.945  38.443  12.419
29435W        W93643  36.379   0.358   3.240
29436W        W93644  13.719  38.464   1.749
29437W        W93645  16.073   5.404  10.428
29438W        W93646  10.293  43.930  11.520
29439W        W93647  18.259   8.748   4.217
29440W        W93648  27.613   3.324  12.916
29441W        W93649  30.069  22.585   3.310
29442W        W93650  37.001  31.642  14.358
29443W        W93651  11.257  40.391   4.834
29444W        W93652   9.188   7.865  14.368
29445W        W93653  34.942  29.636   1.816
29446W        W93654  21.221  16.262  12.060
29447W        W93655   3.882  42.454   4.639
29448W        W93656  15.793  41.334   2.203
29449W        W93657  44.376  39.886   1.805
29450W        W93658  11.304  18.196   2.415
29451W        W93659  40.959  26.599   0.358
29452W        W93660   7.872  11.218  14.008
29453W        W93661  39.413  43.795  13.015
29454W        W93662   1.381  23.585   0.292
29455W        W93663  21.733   7.730   1.757
29456W        W93664  27.108  27.448   4.666
29457W        W93665   9.873  13.339   1.731
29458W        W93666   3.362  12.788  12.926
29459W        W93667  24.060  36.952   4.660
29460W        W93668   5.891  10.671  12.837
29461W        W93669   1.272  21.152   2.689
29462W        W93670   2.247  30.577   2.214
29463W        W93671  36.477  42.286   1.270
29464W        W93672  32.432  26.015  14.369
29465W        W93673  31.910   4.936   1.709
29466W        W93674   1.931  37.037  13.525
29467W        W93675   2.847  15.309   3.742
29468W        W93676  19.623  19.685  10.496
29469W        W93677   7.801  20.107  10.438
29470W        W93678  34.413   3.329  14.292
29471W        W93679  35.938  10.260  14.831
29472W        W93680   4.224  22.101  11.893
29473W        W93681  26.966  37.351   2.399
29474W        W93682  27.978  15.133  13.041
29475W        W93683  26.677  25.203  13.401
29476W        W93684  29.948   2.348   0.450
29477W        W93685  35.073  12.646  12.851
29478W        W93686  21.187  26.987  10.620
29479W        W93687  28.112  30.143  13.914
29480W        W93688  14.221   9.757   2.868
29481W        W93689  22.181  43.335   0.370
29482W        W93690  15.220  28.599   1.403
29483W        W93691  30.645  44.799  14.447
29484W        W93692  23.624  23.649   3.240
29485W        W93693  39.030  23.541  10.451
29486W        W93694   4.841   9.881  13.878
29487W        W93695  16.785  25.208   0.763
29488W        W93696  20.077  43.775   2.327
29489W        W93697  15.710   5.266   1.244
29490W        W93698  23.103  35.589   4.675
29491W        W93699  11.772  36.090   5.310
29492W        W93700  26.647  18.708   0.894
29493W        W93701  30.138  33.600  12.999
29494W        W93702  18.074  20.699  10.893
29495W        W93703  41.405   2.331   9.619
29496W        W93704  42.989   5.256  10.960
29497W        W93705  36.082   8.387  11.948
29498W        W93706  42.480  11.208  10.951
29499W        W93707  29.995   6.190  13.981
29500W        W93708  36.540  14.664  13.365
29501W        W93709   3.365  30.991   3.287
29502W        W93710   7.839  12.771   0.429
29503W        W93711   2.941  28.663   3.299
29504W        W93712  18.559  40.325  10.442
29505W        W93713  25.030  11.210   3.780
29506W        W93714   1.458  10.185   0.875
29507W        W93715   3.802  38.453  13.342
29508W        W93716   4.431  25.174   3.163
29509W        W93717   4.428  39.458  12.980
29510W        W93718  25.132  41.842  11.610
29511W        W93719   2.765  41.306  14.450
29512W        W93720  26.060   8.215  14.305
29513W        W93721  39.039  31.024   0.728
29514W        W93722   1.343  38.534   1.227
29515W        W93723  42.495  44.283   3.645
29516W        W93724  33.131  29.169   3.782
29517W        W93725   5.688  13.343  14.486
29518W        W93726  31.035  13.764   4.122
29519W        W93727   3.341  35.552   4.207
29520W        W93728  26.676   8.247  13.932
29521W        W93729  28.593  37.865   3.639
29522W        W93730  40.935  11.256  11.097
29523W        W93731  32.012  26.541  10.559
29524W        W93732   2.335   7.372  11.421
29525W        W93733   5.797  21.122  11.086
29526W        W93734  14.735  38.517   0.960
29527W        W93735  14.606   3.342   5.102
29528W        W93736  43.860  44.389   4.741
29529W        W93737  43.015  34.530   9.958
29530W        W93738  44.331  14.788  13.949
29531W        W93739   0.383   7.844  11.096
29532W        W93740  20.592  30.573   3.684
29533W        W93741  32.112  31.026  13.489
29534W        W93742   6.833  43.812   2.778
29535W        W93743  38.982  17.110  12.026
29536W        W93744  42.027  43.408   2.852
29537W        W93745   0.397   2.820  13.901
29538W        W93746   3.424  10.821  13.812
29539W        W93747  44.926  16.101  13.855
29540W        W93748  26.663   6.254  10.971
29541W        W93749  23.564  32.426  12.466
29542W        W93750  27.475   3.882   3.681
29543W        W93751  42.316  30.535  10.988
29544W        W93752  33.118  17.761   3.737
29545W        W93753   3.948  13.205  10.547
29546W        W93754   7.772   7.202   0.887
29547W        W93755  12.834  24.566  11.923
29548W        W93756   6.771  23.216  13.351
29549W        W93757  18.755  35.430  14.950
29550W        W93758  39.023  43.820  12.980
29551W        W93759  12.328  28.499  11.508
29552W        W93760  22.552  19.186   3.255
29553W        W93761  17.647  28.042  12.560
29554W        W93762  15.142   1.457  13.853
29555W        W93763  12.696   4.298  12.510
29556W        W93764  25.473  27.152  11.875
29557W        W93765   0.457  17.619   3.302
29558W        W93766   6.739  42.421  12.528
29559W        W93767  44.354  42.364   1.412
29560W        W93768  16.764  27.613   3.635
29561W        W93769  20.726  16.656  13.343
29562W        W93770   8.329  32.016  13.016
29563W        W93771  12.135   9.200  13.953
29564W        W93772  23.034   8.790  14.508
29565W        W93773  18.290   2.403  10.555
29566W        W93774   2.379  37.011   1.373
29567W        W93775  13.236  39.453  10.599
29568W        W93776  25.470  37.539   9.973
29569W        W93777  12.253  29.025  14.803
29570W        W93778  43.800  42.383   2.275
29571W        W93779  38.486  30.054   1.881
29572W        W93780   2.336  35.999   5.663
29573W        W93781  15.237  12.833  13.798
29574W        W93782  43.943  35.060   0.945
29575W        W93783  37.939  19.614   1.723
29576W        W93784  18.566  26.977  13.026
29577W        W93785  38.559   7.304  14.864
29578W        W93786  18.726  19.664  11.008
29579W        W93787  35.948  19.584   4.238
29580W        W93788  28.962  29.426  12.415
29581W        W93789  42.396   3.844  14.849
29582W        W93790  19.583  14.692   4.180
29583W        W93791  26.476  33.953  12.889
29584W        W93792  12.760  26.165   1.307
29585W        W93793  34.393   6.888  14.991
29586W        W93794   2.425  28.011  14.814
29587W        W93795  31.898   5.209   1.918
29588W        W93796   2.836   1.761   3.348
29589W        W93797  31.428  32.558  14.502
29590W        W93798  15.735  29.108  12.910
29591W        W93799   9.657  37.034  10.518
29592W        W93800  19.738  15.600  13.336
29593W        W93801  23.590   4.383   4.774
29594W        W93802  32.033  20.736  11.376
29595W        W93803  11.732  28.127   5.148
29596W        W93804   2.736  24.205  12.892
29597W        W93805  24.488  31.548   1.817
29598W        W93806   5.273  39.063  12.024
29599W        W93807  32.886  43.287   3.648
29600W        W93808   9.287  18.151  12.554
29601W        W93809  23.675  18.645  13.839
29602W        W93810  20.646  20.169  11.909
29603W        W93811  13.843  12.157   3.257
29604W        W93812   0.444  39.870  12.349
29605W        W93813  18.623  33.123   0.891
29606W        W93814   0.316  21.755   1.370
29607W        W93815   4.753  12.273   4.224
29608W        W93816   4.335   1.298   2.716
29609W        W93817   0.823  26.599   1.434
29610W        W93818  35.894   7.845  12.355
29611W        W93819  16.140   1.903   2.383
29612W        W93820   6.313  19.687  14.289
29613W        W93821  43.275  19.666   3.326
29614W        W93822   2.961  10.299  12.025
29615W        W93823  34.096  35.916   2.345
29616W        W93824   1.359   5.301   3.870
29617W        W93825   5.357  36.076  11.112
29618W        W93826  39.880   0.433   5.292
29619W        W93827  21.572  12.652  14.843
29620W        W93828  25.645  38.430  14.356
29621W        W93829  36.999  32.999   2.870
29622W        W93830  22.034  44.307  13.038
29623W        W93831  20.580  20.169  14.809
29624W        W93832   8.171  36.485   1.270
29625W        W93833  35.582  24.066   4.165
29626W        W93834  12.688  39.976  14.491
29627W        W93835  22.583  11.642  11.108
29628W        W93836  25.671  15.180  12.513
29629W        W93837  32.912  38.864  11.571
29630W        W93838  41.453  18.553   3.660
29631W        W93839  39.447  18.751  12.924
29632W        W93840   0.249  14.162  13.928
29633W        W93841  37.050  39.031  14.787
29634W        W93842  35.366  28.023  11.010
29635W        W93843  40.472  36.507  11.082
29636W        W93844  24.158  43.429   1.708
29637W        W93845  10.140  30.643   0.924
29638W        W93846  23.240  27.567   0.939
29639W        W93847   9.343   6.189  10.517
29640W        W93848  41.810   5.310  13.064
29641W        W93849  17.586   5.727  10.590
29642W        W93850  35.072  26.516   1.408
29643W        W93851  12.770  19.061  10.975
29644W        W93852   0.973  30.570  13.059
29645W        W93853  12.161   0.884   1.772
29646W        W93854  25.593  33.111   0.784
29647W        W93855  38.981  13.274   0.800
29648W        W93856  11.814  10.716   1.364
29649W        W93857  16.106  38.420   5.752
29650W        W93858  28.028  25.512   0.418
29651W        W93859   7.828   7.735   1.712
29652W        W93860  33.069   5.413  14.802
29653W        W93861  40.913  35.058   0.438
29654W        W93862  19.149  23.027   0.905
29655W        W93863  27.580  30.120  14.775
29656W        W93864  30.621  22.694   0.793
29657W        W93865   4.302  12.210   0.471
29658W        W93866  15.817  16.666   2.334
29659W        W93867  24.094  42.304   2.185
29660W        W93868  11.325  33.518   0.765
29661W        W93869  32.942  29.553   3.666
29662W        W93870  31.982  31.440  13.818
29663W        W93871  28.958  24.550   1.745
29664W        W93872  17.662  27.963   1.818
29665W        W93873   1.355  11.820  11.604
29666W        W93874  40.012  17.135  14.011
29667W        W93875  44.452  41.819  10.628
29668W        W93876  20.730  22.727  13.900
29669W        W93877   3.344  21.186  14.026
29670W        W93878  17.132   2.857   2.675
29671W        W93879  10.702  18.113   5.302
29672W        W93880  25.650  24.153  12.443
29673W        W93881  23.571   6.403   3.780
29674W        W93882  41.480  37.912   0.814
29675W        W93883  33.381  25.204  13.854
29676W        W93884  35.603   5.863   3.760
29677W        W93885  28.121  21.243  14.338
29678W        W93886  31.077  31.541   2.203
29679W        W93887   1.873  10.197  10.992
29680W        W93888  21.047   4.212   2.783
29681W        W93889  18.731  14.104  10.084
29682W        W93890  31.902  32.033  10.970
29683W        W93891   9.389  40.302  14.276
29684W        W93892   4.424  23.199  12.447
29685W        W93893  37.903  42.801  14.013
29686W        W93894  36.510  28.570  11.492
29687W        W93895  21.179  27.994   3.170
29688W        W93896  26.043  40.441  12.486
29689W        W93897  43.473  39.470   2.362
29690W        W93898  14.294  14.288   2.678
29691W        W93899  29.480   3.295   0.960
29692W        W93900  24.075  18.284   1.328
29693W        W93901  18.160  38.824  12.538
29694W        W93902  15.091  20.060   1.868
29695W        W93903   2.843  38.941  13.040
29696W        W93904  36.351  35.978   1.848
29697W        W93905  14.248   7.684  10.934
29698W        W93906   9.716  23.153   3.683
29699W        W93907  24.620  36.533  14.375
29700W        W93908  26.026  23.006   3.773
29701W        W93909  36.524  41.479   0.822
29702W        W93910  28.527  17.117   1.901
29703W        W93911   5.367  42.499  11.549
29704W        W93912  38.455  16.282   2.759
29705W        W93913  24.673  28.002  14.409
29706W        W93914  27.080  30.632   1.297
29707W        W93915  18.143   7.405   9.996
29708W        W93916  12.716  44.791   1.933
29709W        W93917  31.571  20.561  14.503
29710W        W93918  39.913  27.004  13.458
29711W        W93919  32.637  29.994  14.422
29712W        W93920   4.923  41.845  14.905
29713W        W93921  36.564  24.078  13.314
29714W        W93922  19.109  24.014  12.967
29715W        W93923  30.593  27.650   0.480
29716W        W93924  33.590  31.924   2.390
29717W        W93925  42.333  27.999  14.422
29718W        W93926   9.190  35.007  13.026
29719W        W93927  20.596   7.328   3.172
29720W        W93928  10.858  34.892   1.438
29721W        W93929  38.956  41.431  13.361
29722W        W93930  25.048  38.516  11.578
29723W        W93931  30.995  25.710  13.011
29724W        W93932   4.365  42.348  11.981
29725W        W93933   5.851  43.814   2.757
29726W        W93934  27.640  34.982   0.729
29727W        W93935  37.964  25.651   1.736
29728W        W93936   8.244  19.100   0.338
29729W        W93937  41.849  11.658  11.986
29730W        W93938  21.721  20.106   2.694
29731W        W93939  35.365  35.951   1.903
29732W        W93940  24.697   4.820  14.788
29733W        W93941  21.517   0.943   4.136
29734W        W93942  12.742  14.832  11.375
29735W        W93943   7.229   0.354   1.367
29736W        W93944   1.888   4.447   0.342
29737W        W93945   9.744  15.159   0.279
29738W        W93946  44.837   3.430  13.953
29739W        W93947  27.553  28.173  14.401
29740W        W93948  41.323  33.905  10.442
29741W        W93949   8.807   7.800  14.290
29742W        W93950   5.358  37.965   3.357
29743W        W93951  33.544  22.673   2.401
29744W        W93952  44.279  32.948   4.681
29745W        W93953  30.111  16.118  12.516
29746W        W93954  27.126  12.836  10.021
29747W        W93955   7.779  40.445  11.564
29748W        W93956   0.798   0.278   5.237
29749W        W93957   2.943  41.343   1.781
29750W        W93958  40.802  24.069  12.882
29751W        W93959  30.656   1.392  14.956
29752W        W93960  32.615   9.777   3.765
29753W        W93961   3.728  29.933  14.474
29754W        W93962  27.141   4.902   9.943
29755W        W93963  39.447  35.429   3.767
29756W        W93964   9.156   8.269   1.279
29757W        W93965  36.055  33.882  14.318
29758W        W93966  37.083   7.683   2.817
29759W        W93967  11.767   6.872   2.322
29760W        W93968  41.979  29.945  10.950
29761W        W93969  30.996  38.898  12.903
29762W        W93970  34.523  27.172   2.726
29763W        W93971  35.397  40.977   1.795
29764W        W93972  32.129   1.320  12.090
29765W        W93973   4.306  13.164  10.576
29766W        W93974  33.043   6.902   4.253
29767W        W93975  18.706  33.954   3.223
29768W        W93976  17.760  21.565  11.517
29769W        W93977  44.441  28.143  14.985
29770W        W93978  14.607   2.297   0.859
29771W        W93979  19.600  44.774   0.813
29772W        W93980  42.958  21.626   1.265
29773W        W93981   4.847  14.331  11.969
29774W        W93982  42.789   1.962   4.796
29775W        W93983  37.452  23.083   1.914
29776W        W93984  42.787  34.998   0.879
29777W        W93985  27.569  19.053   2.725
29778W        W93986  42.927  17.595   2.417
29779W        W93987  44.923  13.674  14.953
29780W        W93988  35.003   1.923   1.253
29781W        W93989  17.558   1.827   3.745
29782W        W93990  10.780  22.588  14.000
29783W        W93991  19.213   3.453  11.032
29784W        W93992  42.870   1.909   4.344
29785W        W93993  43.990  27.074  11.859
29786W        W93994  32.516  42.321  11.915
29787W        W93995  24.173  32.039  14.355
29788W        W93996  10.770  29.456   2.736
29789W        W93997   2.467  22.607  10.420
29790W        W93998   8.193   5.877   0.474
29791W        W93999  28.074  32.065  11.513
29792W        W94000   9.250  15.261   3.249
29793W        W94001  23.622   0.373  13.473
29794W        W94002  39.022  36.540  14.976
29795W        W94003  30.588  35.561   1.798
29796W        W94004  17.710  23.183   1.746
29797W        W94005  27.046  29.019   4.731
29798W        W94006  15.277  29.066  11.427
29799W        W94007   6.722  12.239   4.195
29800W        W94008  10.872  37.971  14.420
29801W        W94009  40.384  33.045   0.422
29802W        W94010  37.000  18.786  12.065
29803W        W94011  33.386  38.883  14.770
29804W        W94012   1.246  19.173   1.853
29805W        W94013  16.632   2.828   2.233
29806W        W94014   9.315  15.604  10.496
29807W        W94015  25.677  34.576  11.411
29808W        W94016   4.785  32.635   1.305
29809W        W94017   2.247  30.484  11.028
29810W        W94018  42.942  22.578   0.343
29811W        W94019  36.073  31.088  10.971
29812W        W94020  36.574  21.597  13.498
29813W        W94021  15.701  41.389   3.759
29814W        W94022   1.339  21.257  13.311
29815W        W94023  40.474  40.383  10.564
29816W        W94024  13.646  18.213  15.000
29817W        W94025  27.976  43.784  12.013
29818W        W94026  43.508  43.980  14.998
29819W        W94027  44.891   3.246  12.956
29820W        W94028   3.447  28.012   1.248
29821W        W94029  17.191  34.027   1.786
29822W        W94030   8.352  22.051   1.431
29823W        W94031  29.613  24.982  13.371
29824W        W94032  39.925  34.492   4.615
29825W        W94033  23.204  20.609   2.758
29826W        W94034  20.077  35.560   0.363
29827W        W94035  18.082  28.451  13.826
29828W        W94036  36.029  23.202  11.005
29829W        W94037  19.228   9.282  13.339
29830W        W94038  22.734  39.420  12.857
29831W        W94039   3.286   2.742   0.399
29832W        W94040  28.944  11.734   4.234
29833W        W94041  25.086   2.314   2.266
29834W        W94042  38.385  38.538   0.475
29835W        W94043  23.185   1.346   3.303
29836W        W94044   4.937   9.347   1.403
29837W        W94045  18.785  31.623   2.322
29838W        W94046  24.639  14.324  14.826
29839W        W94047  38.403  35.045  14.355
29840W        W94048  18.210  17.189   3.335
29841W        W94049  12.760  18.065   2.745
29842W        W94050  15.783  28.159   5.195
29843W        W94051  15.162  29.151   1.840
29844W        W94052   3.315   3.825   3.823
29845W        W94053   8.393  20.242  13.817
29846W        W94054  25.671  34.561  14.306
29847W        W94055  29.482  17.105  13.903
29848W        W94056  31.058  35.928   0.447
29849W        W94057   4.780  41.317   1.212
29850W        W94058  21.049  14.314   3.328
29851W        W94059  30.533   4.907   4.172
29852W        W94060   0.978  33.444  13.363
29853W        W94061  27.486  43.786  10.907
29854W        W94062  12.678   4.908   2.700
29855W        W94063  26.170  17.617   0.961
29856W        W94064  22.529  39.367   2.792
29857W        W94065  26.089   3.239  13.052
29858W        W94066  36.953  11.682  12.502
29859W        W94067  15.172  44.777  12.039
29860W        W94068   5.301   8.183  14.943
29861W        W94069   1.748  27.572   4.132
29862W        W94070  31.140  41.833   4.345
29863W        W94071  24.108  19.557   0.300
29864W        W94072   9.300   2.766   0.905
29865W        W94073  35.450  32.637   2.248
29866W        W94074  22.059  29.646  13.325
29867W        W94075  32.467   7.805  11.906
29868W        W94076  34.455  31.557   1.224
29869W        W94077  21.110  11.773  14.972
29870W        W94078  38.902  13.339   1.836
29871W        W94079  14.147  43.872  12.423
29872W        W94080  11.656   9.848   3.845
29873W        W94081   4.438  13.692  12.837
29874W        W94082  15.218  32.410   1.701
29875W        W94083   6.913  20.634  13.897
29876W        W94084  16.195   8.328  14.791
29877W        W94085  35.568  34.920  12.061
29878W        W94086  33.011  21.231  11.118
29879W        W94087  26.975  31.896  10.480
29880W        W94088  13.125  33.054   1.311
29881W        W94089  32.607  11.662  10.016
29882W        W94090  39.977  32.404  12.386
29883W        W94091   5.325  13.684  10.615
29884W        W94092  17.768  30.115  14.817
29885W        W94093  32.924  29.945   2.205
29886W        W94094  42.932  43.367   0.898
29887W        W94095  42.896  14.158  14.364
29888W        W94096   4.806  15.200  13.820
29889W        W94097  19.077   2.726  14.510
29890W        W94098  40.881  21.037   4.326
29891W        W94099  22.628   2.448  12.387
29892W        W94100  42.495   9.237  12.090
29893W        W94101   9.718  39.933  11.599
29894W        W94102  19.636  25.643   1.316
29895W        W94103  12.216   2.841  12.528
29896W        W94104  14.742  26.649  12.070
29897W        W94105  31.954  36.087  14.887
29898W        W94106  35.046  34.898   0.440
29899W        W94107   9.355  16.693  14.405
29900W        W94108  35.390  21.641  12.941
29901W        W94109   3.309  15.687   2.218
29902W        W94110   7.230  25.523   1.895
29903W        W94111  30.941  41.462   4.117
29904W        W94112   6.208  26.121  10.458
29905W        W94113  30.455  31.980   3.820
29906W        W94114  38.991  29.589   0.817
29907W        W94115   8.895   0.453  14.011
29908W        W94116  22.070  30.976   4.747
29909W        W94117  28.091  24.657  11.560
29910W        W94118  25.192  34.470  10.444
29911W        W94119   2.780   9.202  11.927
29912W        W94120  37.494  34.610  10.515
29913W        W94121  40.991  30.946  11.505
29914W        W94122   3.739   7.750   0.733
29915W        W94123  14.149  39.824  14.311
29916W        W94124   4.733  23.689  12.426
29917W        W94125  28.105  38.830  12.980
29918W        W94126  40.430  29.080  11.890
29919W        W94127  35.034   6.832  10.913
29920W        W94128   5.871   9.838  12.573
29921W        W94129  43.375  36.089   2.826
29922W        W94130  20.211  33.600   0.882
29923W        W94131  30.445  33.962  11.123
29924W        W94132  35.454  26.181  11.570
29925W        W94133   9.645  13.705  11.592
29926W        W94134  40.305  35.924   3.648
29927W        W94135  35.951  29.958  11.066
29928W        W94136  16.103  34.488  14.865
29929W        W94137  31.107  12.767  12.067
29930W        W94138  44.902  35.947   1.776
29931W        W94139   8.821  32.542  13.905
29932W        W94140  31.607  25.051  10.507
29933W        W94141  26.623  21.567   4.653
29934W        W94142  34.591  31.076  12.355
29935W        W94143  30.038  30.413   2.679
29936W        W94144   0.951  31.905  10.972
29937W        W94145  29.514  19.148  12.479
29938W        W94146   1.335  37.510  13.982
29939W        W94147   9.679  15.133  10.472
29940W        W94148   3.283   7.328  14.297
29941W        W94149  41.343   7.184  14.945
29942W        W94150  44.316  34.594   9.587
29943W        W94151  28.126  34.969  12.510
29944W        W94152   7.800  19.723   9.993
29945W        W94153  15.729  29.452   1.868
29946W        W94154  25.513  21.255  14.837
29947W        W94155   1.780  22.602   1.764
29948W        W94156  17.264  18.292  14.868
29949W        W94157  33.037   2.842  11.918
29950W        W94158  18.780  41.363   2.372
29951W        W94159  16.617  12.301   4.119
29952W        W94160   9.317  34.533   4.772
29953W        W94161   2.781  43.369   0.872
29954W        W94162  11.749  19.154   4.166
29955W        W94163  15.721   9.324  11.580
29956W        W94164  11.255  19.589   2.894
29957W        W94165  29.509  16.201  13.510
29958W        W94166  27.068  29.523  11.035
29959W        W94167   4.445  27.032  11.479
29960W        W94168  44.976   0.744   1.732
29961W        W94169  10.836   1.323  11.451
29962W        W94170  32.962  39.447  13.397
29963W        W94171  14.615  36.363   1.724
29964W        W94172  10.744  42.421  11.487
29965W        W94173  27.688  11.240   0.255
29966W        W94174  44.815  15.780  14.375
29967W        W94175  23.701  32.085   1.833
29968W        W94176  42.955  31.455   3.804
29969W        W94177  34.515   7.247   1.909
29970W        W94178  13.725  41.790  14.508
29971W        W94179  34.916  27.168  11.982
29972W        W94180  35.952  43.406   4.178
29973W        W94181  33.509   3.255   4.238
29974W        W94182  15.680  34.927   3.163
29975W        W94183  33.491   3.398  10.017
29976W        W94184   9.734  40.406  13.399
29977W        W94185   1.775  15.157  10.985
29978W        W94186  28.044   8.807  10.906
29979W        W94187  25.478  11.140   1.739
29980W        W94188  26.507   7.698   1.720
29981W        W94189   9.382  24.494  13.462
29982W        W94190  11.790  39.316  13.462
29983W        W94191   7.274  22.726   4.681
29984W        W94192   4.276  24.112   1.383
29985W        W94193  22.691  36.379  14.837
29986W        W94194  34.007  41.890  14.512
29987W        W94195  12.355  12.156  12.476
29988W        W94196   9.730  42.368  11.558
29989W        W94197  24.151  32.053  12.960
29990W        W94198  33.415  12.145  14.908
29991W        W94199  39.335  39.036   3.312
29992W        W94200  35.420  16.199  10.906
29993W        W94201  39.881  35.903   4.710
29994W        W94202  26.176  19.042  12.577
29995W        W94203  42.412  29.570  10.061
29996W        W94204  18.745  44.780   1.376
29997W        W94205  27.162  23.213  11.568
29998W        W94206  19.082  25.045  11.438
29999W        W94207  15.208  14.334  10.595
30000W        W94208   5.929  31.995   1.387
30001W        W94209  28.095  22.707  14.764
30002W        W94210  42.351  15.757  10.113
30003W        W94211  38.943   6.423  13.377
30004W        W94212   8.876   1.925  14.321
30005W        W94213  24.606  41.994  10.430
30006W        W94214  44.280   8.712  14.913
30007W        W94215  12.690  33.088   3.169
30008W        W94216  22.743  37.992  10.917
30009W        W94217  33.070  33.971  13.823
30010W        W94218  41.503  10.748   0.743
30011W        W94219  43.785  16.726  12.519
30012W        W94220  41.388  24.650  14.819
30013W        W94221  14.724   8.669   4.241
30014W        W94222  12.282   9.800  12.439
30015W        W94223  20.764  35.369  11.582
30016W        W94224  20.590  20.581  13.968
30017W        W94225  11.691  34.923  10.955
30018W        W94226  38.373  40.918   4.697
30019W        W94227  42.308  31.105  13.836
30020W        W94228  17.685   1.366   2.695
30021W        W94229  18.260  36.963   9.620
30022W        W94230   3.350  29.175   2.794
30023W        W94231  36.949  24.636  13.463
30024W        W94232  28.506  35.376  14.986
30025W        W94233  33.981   7.819   4.726
30026W        W94234  43.293  35.017  11.087
30027W        W94235  33.480  40.832  14.333
30028W        W94236   3.292   1.772   4.326
30029W        W94237  35.868  23.573  10.935
30030W        W94238  14.196   0.284  14.811
30031W        W94239  44.406  38.372   0.360
30032W        W94240  25.570  12.249   4.304
30033W        W94241  35.593   3.830  14.903
30034W        W94242  29.508  41.336  10.994
30035W        W94243  35.915  36.985   1.321
30036W        W94244   3.406  15.307  14.863
30037W        W94245  31.507  21.130   4.782
30038W        W94246  17.226  31.076  12.900
30039W        W94247  42.337  30.931   1.712
30040W        W94248  15.204   4.918   3.310
30041W        W94249   6.203  24.622  10.579
30042W        W94250  30.456  27.580   3.656
30043W        W94251  42.300   3.343  10.067
30044W        W94252  41.006  41.503   3.630
30045W        W94253  21.593  30.133  13.804
30046W        W94254  14.603  11.141   4.837
30047W        W94255   6.426  14.761  14.948
30048W        W94256  11.706  41.854  10.440
30049W        W94257  44.459  26.102  11.561
30050W        W94258  21.177  15.638   2.259
30051W        W94259  42.941  38.847   2.208
30052W        W94260  20.560  37.447  10.927
30053W        W94261  33.496   6.236  14.801
30054W        W94262  34.944   4.819   5.106
30055W        W94263  39.983   9.836   3.646
30056W        W94264  33.044  23.517   2.711
30057W        W94265  30.952  10.315  11.976
30058W        W94266   3.263  24.556  13.982
30059W        W94267  25.006  12.655  14.443
30060W        W94268  36.920   5.810   1.770
30061W        W94269  31.989  28.478  13.354
30062W        W94270  22.590  24.151  10.619
30063W        W94271  18.177  20.648  11.948
30064W        W94272  42.029   4.861   3.823
30065W        W94273   6.196  15.625   0.263
30066W        W94274   5.294  14.634   2.682
30067W        W94275  35.504  11.817  12.994
30068W        W94276   1.355  42.449   1.369
30069W        W94277  36.420  29.929  10.426
30070W        W94278   1.274  11.825   0.409
30071W        W94279   8.252  28.064   4.304
30072W        W94280  15.698   5.385   3.838
30073W        W94281   9.740  22.626  12.362
30074W        W94282  36.553  26.617   3.150
30075W        W94283   5.196  34.905  13.502
30076W        W94284  22.129  12.795  12.998
30077W        W94285   5.201  15.208   3.265
30078W        W94286  36.986  35.931  12.397
30079W        W94287  18.626  13.285   4.276
30080W        W94288  41.908  14.819  10.498
30081W        W94289  32.051  20.578   4.684
30082W        W94290  31.993  26.102   0.358
30083W        W94291   5.261  38.539  13.510
30084W        W94292  42.929  37.451   1.448
30085W        W94293  10.846  40.342  14.380
30086W        W94294  43.926  41.020   0.763
30087W        W94295  19.701  17.708  11.587
30088W        W94296  30.585  10.294   3.318
30089W        W94297  24.686  26.042   2.776
30090W        W94298   9.231  38.333  11.389
30091W        W94299  31.032  34.116  13.427
30092W        W94300  31.560  15.117   1.446
30093W        W94301   4.699  31.589   2.263
30094W        W94302  27.660  42.418  11.069
30095W        W94303  28.133   7.870  14.014
30096W        W94304   2.398  26.605   2.889
30097W        W94305  37.987   7.880  12.413
30098W        W94306   1.740  13.670  13.894
30099W        W94307  27.000  27.165  12.402
30100W        W94308  14.697  23.045  14.792
30101W        W94309  35.072  36.050  14.846
30102W        W94310   0.465  11.692   1.216
30103W        W94311  19.759   9.721   4.826
30104W        W94312  34.891  17.686  13.895
30105W        W94313  37.903   0.306   4.836
30106W        W94314  14.294  13.701   2.307
30107W        W94315   2.958  34.915   3.292
30108W        W94316   4.309  22.073   3.632
30109W        W94317  41.826  17.720  12.531
30110W        W94318  28.162  25.044  11.564
30111W        W94319  26.045  14.099  12.418
30112W        W94320  23.571  19.131   2.305
30113W        W94321  33.462  27.051  10.452
30114W        W94322  25.495  29.959  13.059
30115W        W94323  36.465  22.732  14.510
30116W        W94324  17.641  24.112  12.407
30117W        W94325  23.628   3.747   3.799
30118W        W94326  21.188  25.659  11.919
30119W        W94327  37.930  33.568  14.823
30120W        W94328  11.783  30.612  13.526
30121W        W94329  32.980  24.207  13.948
30122W        W94330  25.214  15.577  11.939
30123W        W94331  34.083  25.623  13.471
30124W        W94332  42.799  19.047   1.422
30125W        W94333   5.690  41.504   0.302
30126W        W94334  15.742  42.032  14.302
30127W        W94335  24.506  34.463  12.057
30128W        W94336  35.858  27.685  13.904
30129W        W94337  38.461   8.658   3.236
30130W        W94338  25.515   3.818   3.226
30131W        W94339  23.046  15.162  10.404
30132W        W94340  17.722  29.067  11.590
30133W        W94341  12.798  21.127   2.251
30134W        W94342  17.572  21.184   4.310
30135W        W94343   9.709  10.205  12.466
30136W        W94344  34.992  28.005   3.694
30137W        W94345   4.319   1.776  14.308
30138W        W94346  22.557  18.232   2.294
30139W        W94347  31.083  10.202  12.835
30140W        W94348  35.458  42.871   4.778
30141W        W94349  35.870  30.420  13.885
30142W        W94350  24.105   3.427   1.877
30143W        W94351  10.654  22.151  14.927
30144W        W94352  41.439  30.456  12.501
30145W        W94353   6.324  35.398  12.409
30146W        W94354  14.608  15.743   2.357
30147W        W94355  43.898   2.256   0.451
30148W        W94356  25.056  28.948   3.302
30149W        W94357  20.546  42.952   4.185
30150W        W94358  16.171  10.334  13.044
30151W        W94359  29.501  35.362  12.555
30152W        W94360  23.541   7.778  13.873
30153W        W94361  25.062  30.157   2.313
30154W        W94362  37.876  25.612   0.821
30155W        W94363  15.313  31.022  11.581
30156W        W94364  13.611  23.204   2.815
30157W        W94365  36.948  39.915  14.926
30158W        W94366  18.688   4.738   4.254
30159W        W94367  41.791   8.772   3.631
30160W        W94368  39.421  39.063  14.988
30161W        W94369   7.275  14.216   4.296
30162W        W94370  38.839  39.423   2.856
30163W        W94371  10.694  43.405  14.899
30164W        W94372  17.165  40.545   0.808
30165W        W94373  32.052  33.611  13.826
30166W        W94374  40.311  16.596   3.343
30167W        W94375  39.996  44.365   1.304
30168W        W94376  39.531  30.605  14.762
30169W        W94377  28.047  18.736  10.449
30170W        W94378  39.044  35.408  14.020
30171W        W94379  44.836  42.902  12.049
30172W        W94380  11.747  32.946  13.447
30173W        W94381  16.285  25.975   4.735
30174W        W94382  37.862  22.588   0.857
30175W        W94383   2.407  31.101   2.288
30176W        W94384  36.093  39.056   3.702
30177W        W94385   0.282  32.945  11.407
30178W        W94386  31.435  10.802  13.965
30179W        W94387  15.596  36.431  11.966
30180W        W94388  29.083  10.201   2.221
30181W        W94389  33.111  27.005  14.934
30182W        W94390  44.764  32.109   2.846
30183W        W94391  42.842  19.097   4.612
30184W        W94392   7.413   7.797  14.460
30185W        W94393  12.361  34.065  12.074
30186W        W94394   9.692  25.999  11.507
30187W        W94395  17.145  36.361   0.860
30188W        W94396   5.870  38.918  12.564
30189W        W94397  30.098  31.120   2.415
30190W        W94398  41.915  32.604   1.430
30191W        W94399  43.774   1.345   1.280
30192W        W94400  40.433  36.946   4.733
30193W        W94401  27.194   7.814   0.357
30194W        W94402  21.624  39.370   0.332
30195W        W94403  34.881  38.851   4.283
30196W        W94404  17.620  17.226  14.920
30197W        W94405  15.242   3.814  13.018
30198W        W94406  34.587  39.928  10.957
30199W        W94407  18.118   5.390  10.135
30200W        W94408  18.731  41.862  14.961
30201W        W94409   3.716   5.928  11.001
30202W        W94410  43.340   5.795   4.727
30203W        W94411  44.824  22.569   1.435
30204W        W94412  18.058  44.753   0.767
30205W        W94413  44.852  18.666   3.780
30206W        W94414   4.347   3.841  12.472
30207W        W94415  12.237  30.947  14.890
30208W        W94416   5.874  38.324   0.411
30209W        W94417   8.851  36.434  13.384
30210W        W94418  16.715  30.413  13.822
30211W        W94419   7.196  39.358  12.346
30212W        W94420   2.837   1.794   0.316
30213W        W94421   0.413  38.068  10.640
30214W        W94422  38.513  11.235  14.869
30215W        W94423  32.417  11.258  12.980
30216W        W94424   3.452  26.141  14.832
30217W        W94425   2.942  39.557  11.460
30218W        W94426   9.673   1.788   0.266
30219W        W94427   1.346  39.027   2.334
30220W        W94428  11.246  26.607   3.799
30221W        W94429  32.103  42.971   5.116
30222W        W94430   1.978  34.868  14.764
30223W        W94431  16.129  28.969   5.298
30224W        W94432  37.411  21.179  14.994
30225W        W94433  35.433  12.637   3.330
30226W        W94434   1.282   9.803  13.534
30227W        W94435  15.158  12.618  12.978
30228W        W94436  27.466  25.064   3.641
30229W        W94437  31.499  28.520   2.711
30230W        W94438   5.854  34.533   4.682
30231W        W94439  23.567  25.510   3.841
30232W        W94440  32.014  37.342  13.420
30233W        W94441  20.680  20.050  11.418
30234W        W94442  25.569   0.922  13.890
30235W        W94443  38.445  15.773   0.766
30236W        W94444  41.360  42.878   2.321
30237W        W94445  25.002  38.824  13.833
30238W        W94446  12.219  21.603  14.018
30239W        W94447  32.888  32.463  13.012
30240W        W94448  18.561   8.851   4.200
30241W        W94449  27.057   1.808  11.581
30242W        W94450  16.237  24.052  12.014
30243W        W94451   3.916  32.114   4.117
30244W        W94452   7.841   6.396  12.511
30245W        W94453   8.290  11.320  12.486
30246W        W94454  12.672  14.812  13.973
30247W        W94455  10.194   5.315   3.159
30248W        W94456  31.528  22.043  13.865
30249W        W94457   8.168  16.574   3.264
30250W        W94458  24.160  25.622  13.821
30251W        W94459   8.800  28.120   3.145
30252W        W94460  32.502  10.180   0.399
30253W        W94461  25.691  27.546   0.819
30254W        W94462  24.188   0.835  11.024
30255W        W94463  39.956   1.396   1.856
30256W        W94464  22.660  26.484  14.870
30257W        W94465  17.226   8.389   0.268
30258W        W94466  39.474  26.203  10.602
30259W        W94467  15.624  26.068   3.820
30260W        W94468  17.260  18.681   2.398
30261W        W94469  41.968  15.231   3.829
30262W        W94470  18.638  20.071   1.778
30263W        W94471  39.324  20.616   4.276
30264W        W94472  10.257  12.850   2.248
30265W        W94473  44.950  33.913  14.886
30266W        W94474  10.294  21.208   1.754
30267W        W94475  21.687  36.582   3.332
30268W        W94476   6.898  17.703   0.933
30269W        W94477  39.961   9.337   0.924
30270W        W94478  11.325  32.605   2.209
30271W        W94479  19.664  40.418  12.839
30272W        W94480  25.470  20.737  13.815
30273W        W94481  18.716   9.354  14.948
30274W        W94482  41.825  36.098  11.930
30275W        W94483  30.601  33.511  14.791
30276W        W94484  18.712  44.995   0.841
30277W        W94485  41.881  27.058   0.282
30278W        W94486  14.663  34.385   2.215
30279W        W94487   2.803  36.549   5.245
30280W        W94488  38.379   6.371   4.649
30281W        W94489   5.247   9.685  10.532
30282W        W94490  19.606  21.228  12.044
30283W        W94491   2.935  38.864  10.541
30284W        W94492   2.359  11.770   1.742
30285W        W94493  28.086   7.245  10.424
30286W        W94494  17.089  42.525   1.232
30287W        W94495  14.714  43.880   3.803
30288W        W94496  14.668  18.771   2.391
30289W        W94497   3.884   5.770  12.034
30290W        W94498  43.445  21.162  12.074
30291W        W94499  27.558  42.977   5.310
30292W        W94500  32.497  37.064  12.392
30293W        W94501  44.895   9.860  11.012
30294W        W94502  43.274   7.180   3.213
30295W        W94503   7.856  25.180   1.771
30296W        W94504  36.022   6.425   3.377
30297W        W94505  20.078   8.248   4.191
30298W        W94506   4.941   2.357   1.920
30299W        W94507  11.863  26.203   3.707
30300W        W94508  30.982  24.158   4.623
30301W        W94509  40.418   0.970   1.312
30302W        W94510   6.684   8.208  11.019
30303W        W94511  25.634  34.385  14.808
30304W        W94512  33.625   2.739  13.440
30305W        W94513  41.991  43.955  14.765
30306W        W94514  40.957  27.608  11.039
30307W        W94515  26.126  25.602  14.381
30308W        W94516  32.993  12.329  11.875
30309W        W94517   8.236  14.700  11.963
30310W        W94518  21.537  33.601  13.453
30311W        W94519  31.097  12.264   1.864
30312W        W94520   9.666  18.691  13.981
30313W        W94521  29.152  35.601  12.014
30314W        W94522   4.257  28.652  13.962
30315W        W94523  25.977  34.434  11.063
30316W        W94524  28.058  21.066  11.925
30317W        W94525  22.741   0.418  14.401
30318W        W94526  31.126  41.929   0.727
30319W        W94527  11.784   6.400   2.759
30320W        W94528  14.591  42.341  10.959
30321W        W94529  12.333  12.739   4.733
30322W        W94530  17.701  28.525   4.347
30323W        W94531  33.601   0.971   0.826
30324W        W94532  42.860  31.115   4.211
30325W        W94533  43.443  36.576   3.199
30326W        W94534  25.049  20.729  13.331
30327W        W94535  27.608  21.146  13.908
30328W        W94536   7.840  26.180  12.402
30329W        W94537  33.380   0.907   2.874
30330W        W94538  23.111  31.956   3.199
30331W        W94539  18.594  21.077  14.976
30332W        W94540  28.457   9.183  12.340
30333W        W94541  11.235  14.297  12.825
30334W        W94542  26.539  23.567   2.324
30335W        W94543  14.102   6.318  11.870
30336W        W94544  21.111  26.494   5.239
30337W        W94545  44.269  44.416   5.243
30338W        W94546  28.965  16.192  10.119
30339W        W94547  31.921   3.393   0.794
30340W        W94548   2.826   3.726  14.414
30341W        W94549  17.589   2.833   2.387
30342W        W94550   4.312   3.931  11.904
30343W        W94551  33.066   5.875   0.871
30344W        W94552  28.578  18.162  13.985
30345W        W94553  23.613  25.523   2.317
30346W        W94554  15.799  33.040   0.471
30347W        W94555   4.928  33.399  14.842
30348W        W94556  17.250   5.764   4.695
30349W        W94557  20.130  10.233   4.177
30350W        W94558  21.595  14.157  11.512
30351W        W94559   3.862   0.842   1.433
30352W        W94560  37.375  32.510  10.943
30353W        W94561   7.815  24.518  11.889
30354W        W94562  30.440   3.710  10.485
30355W        W94563  16.706  23.609   4.301
30356W        W94564  17.728  30.588   2.837
30357W        W94565  16.210  43.921  13.011
30358W        W94566  17.734  30.569  14.400
30359W        W94567  27.600   9.740   1.294
30360W        W94568  39.993  39.528  11.080
30361W        W94569   8.713   8.657  11.380
30362W        W94570  29.978   5.305  12.043
30363W        W94571  16.764  19.172   4.207
30364W        W94572   0.814  32.058  12.049
30365W        W94573  37.861  42.477   1.720
30366W        W94574  42.882   1.352   0.352
30367W        W94575  17.107  39.047   5.171
30368W        W94576  31.035  20.216   1.885
30369W        W94577  26.147  35.589  13.039
30370W        W94578  27.967  30.023  10.922
30371W        W94579  26.116  17.241  12.863
30372W        W94580  34.917   9.370   3.643
30373W        W94581  30.937   1.807  13.387
30374W        W94582   7.341  15.724  13.531
30375W        W94583  20.740  26.136  12.828
30376W        W94584   8.809  37.004  12.031
30377W        W94585   0.354  23.722   0.888
30378W        W94586  19.610   7.668  14.926
30379W        W94587  21.135  16.217   4.818
30380W        W94588  28.669  31.058  13.957
30381W        W94589  14.830  33.569  12.069
30382W        W94590  11.282  26.513   0.409
30383W        W94591  17.726  35.854  10.536
30384W        W94592   8.810   8.872  10.974
30385W        W94593  43.327  43.489  10.962
30386W        W94594  14.157  28.968   4.788
30387W        W94595  15.205  19.690  12.853
30388W        W94596  23.616  25.685  10.539
30389W        W94597  25.092  27.588  10.597
30390W        W94598  10.208  40.327   4.603
30391W        W94599  21.133  41.906  14.515
30392W        W94600  15.710  29.470   0.891
30393W        W94601  34.387  43.356   0.411
30394W        W94602  20.591   0.460  11.912
30395W        W94603  24.591  20.613   4.735
30396W        W94604  19.625  11.251   3.212
30397W        W94605   2.370  39.979  11.473
30398W        W94606  15.084  17.296  13.518
30399W        W94607  30.648  35.593  13.466
30400W        W94608  10.328  25.713   1.277
30401W        W94609  21.259  37.849   2.266
30402W        W94610  12.677  44.429   1.813
30403W        W94611  24.111  34.442   3.735
30404W        W94612   0.357  40.532  12.371
30405W        W94613   1.756  42.781  14.914
30406W        W94614   4.239  35.887  14.963
30407W        W94615  35.950  21.622   1.407
30408W        W94616  40.388   6.392  13.801
30409W        W94617  30.005  11.322   0.901
30410W        W94618  10.825   4.849  13.324
30411W        W94619  39.885  19.224  13.544
30412W        W94620  37.084  16.597   2.270
30413W        W94621   7.871  32.063   3.677
30414W        W94622  14.609   0.333  13.530
30415W        W94623  11.864   8.786   3.762
30416W        W94624  38.856  32.887   5.195
30417W        W94625  18.650   3.324   4.180
30418W        W94626  22.070  10.376   2.319
30419W        W94627  29.066  17.776  11.580
30420W        W94628  15.724  31.437  11.946
30421W        W94629  20.250  26.071   4.210
30422W        W94630  30.627   1.436   4.682
30423W        W94631  37.404  14.199   0.340
30424W        W94632  19.768  25.608  13.331
30425W        W94633  32.064  27.515  11.570
30426W        W94634   2.433  40.039   3.744
30427W        W94635  10.303   6.723   2.325
30428W        W94636  26.034   0.811  11.523
30429W        W94637  37.418  24.027   0.322
30430W        W94638  28.032  21.673  13.802
30431W        W94639   6.221  20.626  14.920
30432W        W94640  11.768  17.795   3.712
30433W        W94641  16.755   5.206  11.882
30434W        W94642  10.730  41.882   2.281
30435W        W94643  32.611  25.193  11.897
30436W        W94644  33.071  23.095  11.901
30437W        W94645  15.757  11.283   1.427
30438W        W94646   2.803  43.434   2.371
30439W        W94647   1.898  33.914  13.350
30440W        W94648  29.462  40.391   0.320
30441W        W94649  12.207   1.243  14.944
30442W        W94650  41.481  16.163  14.424
30443W        W94651  37.941  34.444   1.247
30444W        W94652  32.459  43.767   3.274
30445W        W94653  28.575   5.922   0.751
30446W        W94654  15.213  28.498   2.206
30447W        W94655  24.075  16.640  10.156
30448W        W94656  23.208  34.550   1.750
30449W        W94657   2.874  33.964   3.865
30450W        W94658   2.289   1.966  14.508
30451W        W94659   7.266  16.728   0.317
30452W        W94660  36.455  20.589  10.544
30453W        W94661  34.458  22.674   4.695
30454W        W94662  21.172  34.998  11.926
30455W        W94663  14.105  34.555   0.727
30456W        W94664  26.188  23.234   2.880
30457W        W94665  11.806   2.396  10.450
30458W        W94666  18.254  22.189   4.747
30459W        W94667   2.948  22.209  14.896
30460W        W94668   0.747   9.827  13.799
30461W        W94669  21.167  10.203  11.947
30462W        W94670  43.836  34.028  14.393
30463W        W94671  29.030  33.387   3.209
30464W        W94672  11.637  13.329   4.213
30465W        W94673  24.509  29.622  14.319
30466W        W94674  29.089  39.876  12.524
30467W        W94675  26.011  39.047  13.332
30468W        W94676  29.485  31.114  13.991
30469W        W94677  38.021  39.028   0.468
30470W        W94678  43.400  29.546  12.428
30471W        W94679   1.404  44.941  12.354
30472W        W94680  12.747  29.067   0.740
30473W        W94681  30.522  20.593  12.537
30474W        W94682  35.927   5.306  11.058
30475W        W94683  44.995  41.444   2.697
30476W        W94684  42.844  16.811   0.843
30477W        W94685  14.783  24.140  13.429
30478W        W94686  25.479  19.774  14.338
30479W        W94687   5.741  25.651   3.749
30480W        W94688  25.177  24.217   2.822
30481W        W94689  42.031  42.379  13.985
30482W        W94690  15.232  34.957  11.897
30483W        W94691  44.985  12.233  13.998
30484W        W94692  28.534  12.259  14.307
30485W        W94693  24.091  11.814  13.013
30486W        W94694  24.564  20.046   0.757
30487W        W94695  40.853  39.532  14.474
30488W        W94696  17.599  16.577   9.554
30489W        W94697  42.475  29.549  11.542
30490W        W94698  33.117  13.735   4.252
30491W        W94699  11.827  20.240   0.434
30492W        W94700  15.661  36.964  10.418
30493W        W94701  16.622   0.301  11.025
30494W        W94702  24.177  35.465   1.418
30495W        W94703  20.037  12.660   0.281
30496W        W94704   4.248  34.973   0.837
30497W        W94705   8.174   6.385   1.871
30498W        W94706  23.238  10.632   0.403
30499W        W94707  30.452  22.530  13.462
30500W        W94708   2.412  40.327   0.835
30501W        W94709   5.400  19.061  10.518
30502W        W94710  20.270   6.188  12.032
30503W        W94711  24.221  33.402   0.832
30504W        W94712  38.958  33.531  14.782
30505W        W94713  31.460  40.515   0.356
30506W        W94714  14.172  13.317   1.359
30507W        W94715   7.365   7.811   0.422
30508W        W94716  21.150  38.536   4.700
30509W        W94717  36.005  14.795   2.304
30510W        W94718  26.635  24.547   0.389
30511W        W94719  37.841  39.995  12.073
30512W        W94720   3.264  36.908  11.579
30513W        W94721   2.383  22.539  12.396
30514W        W94722   7.304  20.650   3.851
30515W        W94723   0.961   9.295  13.353
30516W        W94724  38.404  29.129   0.955
30517W        W94725  29.158   8.781   1.709
30518W        W94726  33.988  23.106  13.857
30519W        W94727  21.556  15.312  12.576
30520W        W94728   3.243   2.931   3.801
30521W        W94729  23.557   5.931   0.445
30522W        W94730  16.684  20.110   0.445
30523W        W94731  35.402  35.503  12.850
30524W        W94732  20.129  10.219  10.015
30525W        W94733  15.318  23.198  13.547
30526W        W94734   8.235  17.239  10.600
30527W        W94735  21.134  23.688  10.937
30528W        W94736  15.741   8.169  12.841
30529W        W94737  16.082  26.072   3.247
30530W        W94738  38.535  42.310  11.600
30531W        W94739   0.938  13.283  13.493
30532W        W94740  32.945  18.664   0.806
30533W        W94741  39.933  30.412  11.956
30534W        W94742  17.281   4.300  13.453
30535W        W94743  29.114  36.047   1.935
30536W        W94744  18.143  23.703   2.674
30537W        W94745  28.569  40.956  14.912
30538W        W94746  24.059  27.596  11.025
30539W        W94747   9.243  14.238  12.530
30540W        W94748  40.998   0.252  12.491
30541W        W94749  13.231  17.268   2.309
30542W        W94750  17.795  20.059  14.414
30543W        W94751  25.130  33.060   1.328
30544W        W94752   7.305  30.582  11.054
30545W        W94753  41.500  44.417   3.750
30546W        W94754  40.440   6.889   3.325
30547W        W94755  38.493  43.468   0.311
30548W        W94756  42.023   4.398  11.598
30549W        W94757  33.547  36.529   2.897
30550W        W94758  33.579  13.696  14.895
30551W        W94759  25.649   1.414  13.894
30552W        W94760   1.329  17.706  12.050
30553W        W94761  35.007  15.199  12.974
30554W        W94762  44.403  22.652  11.415
30555W        W94763   2.842  39.403   2.214
30556W        W94764  13.274   2.332   3.682
30557W        W94765  42.307   9.199   0.964
30558W        W94766  16.094   3.927  13.472
30559W        W94767  20.630  33.934  12.392
30560W        W94768   7.351  10.682   0.418
30561W        W94769  14.782  36.454   2.726
30562W        W94770  29.036  36.389   4.218
30563W        W94771  19.240  21.263  12.409
30564W        W94772   1.376  39.982   4.132
30565W        W94773  41.909  35.105  10.418
30566W        W94774  11.683  40.033  12.556
30567W        W94775  10.864  17.270   3.204
30568W        W94776  27.002  19.772  14.438
30569W        W94777   5.255   5.752   1.430
30570W        W94778  34.463  38.372   3.825
30571W        W94779   9.235   1.791   2.673
30572W        W94780  16.645   8.365   2.323
30573W        W94781  22.610  43.765   1.344
30574W        W94782  11.737   6.879  14.029
30575W        W94783  38.497  18.720   0.728
30576W        W94784   3.713  31.029   3.318
30577W        W94785  35.107  44.954   2.698
30578W        W94786   6.354   4.261   2.184
30579W        W94787  14.642   5.908   1.449
30580W        W94788  10.752  22.011  12.515
30581W        W94789  32.999  31.971   1.279
30582W        W94790   7.839  17.147  10.494
30583W        W94791   1.446  21.086   4.343
30584W        W94792  20.099  40.316   1.722
30585W        W94793  36.056  42.807  14.763
30586W        W94794  43.802  41.948  13.392
30587W        W94795  31.045   0.322  12.914
30588W        W94796  39.395  22.183   0.889
30589W        W94797  17.627   4.368   0.816
30590W        W94798  36.590  28.487  12.860
30591W        W94799   4.823  35.018   3.295
30592W        W94800  44.820   5.319   2.413
30593W        W94801   7.358  20.670   0.871
30594W        W94802  26.675  24.028   5.184
30595W        W94803  24.121  41.508  12.458
30596W        W94804  11.687  31.514  13.309
30597W        W94805   2.897   5.837   3.178
30598W        W94806  38.389  36.465   3.197
30599W        W94807  38.976  30.498  13.354
30600W        W94808   4.703  38.346  14.774
30601W        W94809  32.033  39.036  11.890
30602W        W94810  40.866  19.728   5.598
30603W        W94811  16.178  39.932   1.857
30604W        W94812  34.421  31.078  11.091
30605W        W94813  36.911  16.605  11.470
30606W        W94814  34.078   2.360  10.567
30607W        W94815  39.492   3.904  13.911
30608W        W94816  17.261  28.997   4.626
30609W        W94817  34.040  17.592   2.235
30610W        W94818  34.968  24.216  12.343
30611W        W94819  15.176  27.452   1.891
30612W        W94820   1.896   7.229  11.981
30613W        W94821  19.578  23.149  13.375
30614W        W94822  30.550  32.475  12.883
30615W        W94823  20.664  32.434   0.909
30616W        W94824  17.618  39.339  12.458
30617W        W94825  40.000  14.211   1.776
30618W        W94826  12.182  12.137   1.850
30619W        W94827  29.062  10.169  11.087
30620W        W94828   8.774  20.744  12.481
30621W        W94829  43.281  44.441  13.380
30622W        W94830  18.759  41.923   2.398
30623W        W94831  37.873  25.643  14.978
30624W        W94832  18.551   3.247   1.434
30625W        W94833  13.617  13.195   2.662
30626W        W94834  14.833   5.361   0.914
30627W        W94835  40.497  14.656   2.740
30628W        W94836  19.570  14.691   2.262
30629W        W94837   0.390  14.629   0.754
30630W        W94838  42.360  40.880   2.314
30631W        W94839  20.539  29.135   1.790
30632W        W94840   7.286  21.556   3.736
30633W        W94841   2.887   3.329   2.684
30634W        W94842   5.260  40.998   2.380
30635W        W94843  42.464  31.574  13.444
30636W        W94844  40.034  23.491   3.668
30637W        W94845  26.602   8.708  14.770
30638W        W94846  29.960  38.898  13.936
30639W        W94847  18.084  21.060   4.331
30640W        W94848  30.624  44.835   3.843
30641W        W94849  19.071  21.540  11.923
30642W        W94850  31.422  16.280  13.545
30643W        W94851   3.855   0.946   1.831
30644W        W94852  44.850  20.143   1.892
30645W        W94853   4.722  43.320   3.726
30646W        W94854  11.717   2.947  11.020
30647W        W94855  11.735  22.078  13.840
30648W        W94856  37.897  17.118   4.234
30649W        W94857  25.587  26.484   4.631
30650W        W94858  40.333  29.601  11.563
30651W        W94859  29.037  17.148  12.855
30652W        W94860  29.601  14.311   5.214
30653W        W94861  39.828  10.718  11.115
30654W        W94862  19.181  41.827   2.758
30655W        W94863  39.510  26.526  14.027
30656W        W94864   2.378  42.454   3.835
30657W        W94865  16.791   1.422   1.249
30658W        W94866  27.643  17.751  14.410
30659W        W94867  13.175  32.508   2.270
30660W        W94868  22.625  39.315  11.941
30661W        W94869  30.911   7.726  11.585
30662W        W94870  14.754  10.320   2.802
30663W        W94871   3.859   1.957  13.839
30664W        W94872  31.931  12.795   5.266
30665W        W94873   3.742  17.665  11.459
30666W        W94874  23.670  26.151   1.265
30667W        W94875  32.902  13.617   0.918
30668W        W94876  28.145   9.253  14.337
30669W        W94877  36.593   5.720  12.353
30670W        W94878  31.520  24.705   2.358
30671W        W94879  39.455  29.581   0.359
30672W        W94880  27.947  23.226   1.428
30673W        W94881  24.157   7.673   1.215
30674W        W94882  29.634  15.822  12.914
30675W        W94883  42.382  39.063   4.284
30676W        W94884  23.163  33.542   1.905
30677W        W94885  16.793  22.252   3.364
30678W        W94886  36.486  29.150   3.782
30679W        W94887  13.111  30.584  10.110
30680W        W94888  29.629  43.395  13.517
30681W        W94889  30.038  43.500  12.009
30682W        W94890  43.272  30.988   2.271
30683W        W94891  10.353  33.395   0.953
30684W        W94892  14.605   4.824  10.914
30685W        W94893  24.573  13.804  13.351
30686W        W94894  30.966  24.582  11.997
30687W        W94895  26.492  12.130   2.256
30688W        W94896  41.302  37.344   2.303
30689W        W94897  14.269  26.678  14.887
30690W        W94898  38.881  24.696   1.427
30691W        W94899  26.641  28.641   3.712
30692W        W94900  12.850   5.906  10.589
30693W        W94901  26.483  35.369   1.843
30694W        W94902  40.511  42.414  11.388
30695W        W94903  25.557  28.147  11.383
30696W        W94904   4.756   6.865   4.798
30697W        W94905  41.532  21.079  14.490
30698W        W94906  32.510  14.124   2.267
30699W        W94907   3.765  23.180  11.987
30700W        W94908  42.866  20.229   5.211
30701W        W94909  24.059  41.512  13.404
30702W        W94910   7.389   6.677   0.332
30703W        W94911  12.686  22.064   3.331
30704W        W94912  35.898  26.632   0.957
30705W        W94913  25.688  29.457   3.193
30706W        W94914  25.976  29.044   2.246
30707W        W94915  33.588  19.250   4.159
30708W        W94916  11.351  39.449  14.029
30709W        W94917  43.883   7.789  13.321
30710W        W94918  43.990  41.820   4.653
30711W        W94919  21.716  12.820   5.106
30712W        W94920  34.953  11.258   0.404
30713W        W94921  37.959  29.441   2.757
30714W        W94922  43.475  11.852   2.320
30715W        W94923  16.264  30.115   3.260
30716W        W94924  20.258   4.840   0.413
30717W        W94925  28.648  43.855   3.159
30718W        W94926   9.693  15.700   2.675
30719W        W94927   8.696  38.064   0.475
30720W        W94928  15.674  41.975  11.945
30721W        W94929  14.757  34.499   4.643
30722W        W94930  44.305  18.114  12.003
30723W        W94931  27.602  24.724   0.937
30724W        W94932  33.404  44.902  13.523
30725W        W94933   0.837  36.959   9.999
30726W        W94934  13.846  36.405  10.963
30727W        W94935  14.242   4.240  13.934
30728W        W94936  14.287  43.455   3.828
30729W        W94937  31.492  39.345   0.462
30730W        W94938  26.509   0.814   4.190
30731W        W94939  22.218  16.575   2.862
30732W        W94940  36.405  18.618  10.904
30733W        W94941  16.680  34.919   0.373
30734W        W94942  33.045  35.424  11.452
30735W        W94943   5.877  19.592  14.812
30736W        W94944  36.591  16.223   3.782
30737W        W94945  12.617  22.667  10.987
30738W        W94946  22.706  40.479   1.328
30739W        W94947  43.769  40.448   2.352
30740W        W94948  43.931  44.831   2.325
30741W        W94949   8.654  31.124  10.996
30742W        W94950   4.722  37.930   5.239
30743W        W94951  31.943  21.643  11.896
30744W        W94952  10.199  42.959  13.386
30745W        W94953  31.408  43.802   3.309
30746W        W94954  22.747  13.237   1.227
30747W        W94955  33.935  12.269   3.649
30748W        W94956  34.565  41.002  10.454
30749W        W94957  40.425   3.763  13.451
30750W        W94958  40.893   6.760   1.345
30751W        W94959  20.597  36.577  14.474
30752W        W94960  17.263   7.672  10.505
30753W        W94961  34.947  14.129  10.549
30754W        W94962  37.428   4.311  13.057
30755W        W94963  24.601  23.636   0.348
30756W        W94964  35.558   6.346   0.792
30757W        W94965   7.342  11.693   3.266
30758W        W94966  10.202  18.680  14.909
30759W        W94967  36.934  21.058  14.855
30760W        W94968   5.715  24.102   3.288
30761W        W94969  28.563  42.857   1.256
30762W        W94970  38.978  15.198  10.579
30763W        W94971   8.765   0.475   1.830
30764W        W94972  24.214  15.182  13.816
30765W        W94973  15.670   0.449  14.877
30766W        W94974  11.220  35.035  11.043
30767W        W94975  39.867  40.456  14.923
30768W        W94976   5.224  36.431   4.214
30769W        W94977   9.658  23.535   1.776
30770W        W94978  10.315  23.667   3.674
30771W        W94979  23.163  39.316   2.399
30772W        W94980   6.305  33.116  12.878
30773W        W94981  34.508   4.750   3.790
30774W        W94982  22.609  11.298   0.888
30775W        W94983  12.669  13.786   3.770
30776W        W94984  29.620   4.899  12.882
30777W        W94985  33.584  30.074   4.758
30778W        W94986  41.938  17.206  11.592
30779W        W94987   2.821  36.434   2.201
30780W        W94988   7.177  17.640   3.842
30781W        W94989   9.665  41.403   4.801
30782W        W94990  44.482  44.789  11.086
30783W        W94991  36.913   4.355   3.867
30784W        W94992  34.454  36.855   1.726
30785W        W94993  31.405  25.596   4.681
30786W        W94994  18.640  42.403  11.998
30787W        W94995  30.111  23.145  12.387
30788W        W94996   0.793  23.543  13.436
30789W        W94997  28.948  34.522  12.027
30790W        W94998   6.370   5.272  10.947
30791W        W94999  12.785  21.723  14.774
30792W        W95000  15.167  12.138   3.162
30793W        W95001  34.106  12.145   2.216
30794W        W95002  36.500  24.526  14.322
30795W        W95003  26.666   4.930  13.417
30796W        W95004   8.192  14.320  12.560
30797W        W95005  19.069  24.114  11.498
30798W        W95006  37.999   4.832   3.263
30799W        W95007  38.445  33.072  10.994
30800W        W95008  36.580  19.622  13.454
30801W        W95009  34.466  22.565   0.863
30802W        W95010  18.116  23.599   1.846
30803W        W95011  32.074  39.833  14.905
30804W        W95012  26.111  14.793   0.320
30805W        W95013  18.137  20.731  14.358
30806W        W95014  14.641   4.260  11.381
30807W        W95015  23.181  14.720  10.947
30808W        W95016  29.935  13.766  14.961
30809W        W95017  20.568  17.250  13.029
30810W        W95018  38.919  20.547   3.676
30811W        W95019   1.846  12.329  12.052
30812W        W95020   0.867  34.983  13.992
30813W        W95021  25.084   7.783   1.856
30814W        W95022  14.324  20.154  10.496
30815W        W95023  28.011  24.497   0.267
30816W        W95024  27.504  32.555  14.910
30817W        W95025   2.256   0.858   4.180
30818W        W95026  28.583  32.567  14.473
30819W        W95027  36.457  11.340   0.329
30820W        W95028  26.643  37.969  10.483
30821W        W95029  20.270  19.043  14.962
30822W        W95030  21.653  43.496  14.796
30823W        W95031  29.000  33.592   4.838
30824W        W95032  10.198  38.894   0.361
30825W        W95033  38.064  14.298  14.285
30826W        W95034  30.586  14.625   0.447
30827W        W95035  37.887  37.067  12.353
30828W        W95036   5.917  18.791   0.456
30829W        W95037   8.735   4.294   2.272
30830W        W95038  42.500  35.383   1.865
30831W        W95039  15.820  11.645  13.838
30832W        W95040  31.909  42.959   3.760
30833W        W95041  43.509  10.178   0.284
30834W        W95042   3.279   5.911  10.986
30835W        W95043  14.788  38.993  11.457
30836W        W95044  37.891  29.966  12.407
30837W        W95045   1.800  38.933  13.876
30838W        W95046   0.788  11.859  12.059
30839W        W95047  16.288   3.937   4.826
30840W        W95048  44.280  25.136   0.966
30841W        W95049  35.376  12.358  10.607
30842W        W95050   3.803  15.581   2.743
30843W        W95051  38.955   9.290  14.967
30844W        W95052  21.072  41.481  12.531
30845W        W95053   0.980  26.610   2.742
30846W        W95054  43.294  44.370  14.954
30847W        W95055  17.667   9.209  11.468
30848W        W95056  30.004  11.720   0.783
30849W        W95057  38.404  44.273   2.231
30850W        W95058  27.516   0.869  10.533
30851W        W95059   8.354  11.836  10.124
30852W        W95060  30.415   4.782   3.704
30853W        W95061   5.758  21.153   1.322
30854W        W95062   7.833   8.341  13.996
30855W        W95063  39.493  24.179   3.672
30856W        W95064  28.077  30.468   1.217
30857W        W95065  42.934  23.682  10.499
30858W        W95066  42.464   3.267  14.295
30859W        W95067  32.437  38.010  12.425
30860W        W95068   0.454  24.043   3.297
30861W        W95069   9.378  17.598   4.635
30862W        W95070  19.268  32.497  13.042
30863W        W95071   6.421  39.888   1.725
30864W        W95072   7.704   9.645   4.754
30865W        W95073  38.970  20.736  13.954
30866W        W95074  19.742  10.297  12.938
30867W        W95075   8.227   8.677   0.913
30868W        W95076   0.833  25.701  14.896
30869W        W95077   7.187  12.691  10.977
30870W        W95078  21.651  18.089   3.350
30871W        W95079   6.923  20.714  13.388
30872W        W95080  39.475  11.240   4.616
30873W        W95081   5.894   3.317   2.410
30874W        W95082  11.340  35.407  13.030
30875W        W95083  41.300  13.631   3.335
30876W        W95084  25.962   6.708   1.248
30877W        W95085  17.079  36.966   5.263
30878W        W95086  38.409  41.311  10.509
30879W        W95087  10.765  25.110  14.337
30880W        W95088  23.715  17.643  11.890
30881W        W95089  40.360  17.205   2.204
30882W        W95090  38.876  37.844   4.718
30883W        W95091  44.966  39.463  14.947
30884W        W95092  36.438   0.289  11.460
30885W        W95093  10.775   8.273  12.928
30886W        W95094  20.673   6.714  13.547
30887W        W95095  31.445   1.825   4.297
30888W        W95096  31.109   6.829  12.912
30889W        W95097  34.608   1.734   0.365
30890W        W95098  38.532   2.790   3.252
30891W        W95099  27.041  39.824   2.324
30892W        W95100   8.785  22.612   5.264
30893W        W95101  40.331  27.465   0.828
30894W        W95102   4.407  26.994   0.336
30895W        W95103  36.985  38.904  11.120
30896W        W95104  37.352  27.111  14.366
30897W        W95105  28.139  12.826  14.411
30898W        W95106  18.718  31.012  12.475
30899W        W95107  35.537  35.501  11.902
30900W        W95108   7.364  23.594  11.108
30901W        W95109  33.626  37.889  11.578
30902W        W95110  39.534  22.142  13.505
30903W        W95111   9.272  35.060   3.673
30904W        W95112   0.811  11.165   0.475
30905W        W95113  39.982  30.931  10.558
30906W        W95114  26.011   8.405  13.466
30907W        W95115  28.001  38.956   4.170
30908W        W95116   2.346  13.287  11.417
30909W        W95117   9.683  40.976  11.001
30910W        W95118  13.676   3.753  11.979
30911W        W95119  22.063  23.032  14.346
30912W        W95120   6.721   4.362   1.335
30913W        W95121  12.756   2.811   0.777
30914W        W95122  31.603  43.807  13.389
30915W        W95123  24.164  16.807  14.817
30916W        W95124   1.804  25.561  14.875
30917W        W95125  21.664  15.652  13.518
30918W        W95126  15.718  36.565   3.818
30919W        W95127  41.825  33.065  11.567
30920W        W95128  30.540  16.307   3.639
30921W        W95129  13.245  14.776   2.835
30922W        W95130   3.447  13.205   1.329
30923W        W95131   1.880  23.180   0.923
30924W        W95132   0.920  35.461  14.357
30925W        W95133  40.484  43.963   2.827
30926W        W95134  37.058  14.113  11.890
30927W        W95135  35.949  36.910   2.345
30928W        W95136   5.233  21.625  12.551
30929W        W95137  42.940   2.437   0.759
30930W        W95138   9.221  17.642  10.430
30931W        W95139  37.497  25.616  10.921
30932W        W95140   0.457  38.494   0.751
30933W        W95141  36.515   8.395  14.811
30934W        W95142   0.431  13.749   2.732
30935W        W95143  13.639  44.383   2.417
30936W        W95144  22.194  40.023  11.941
30937W        W95145  26.115  28.029   4.807
30938W        W95146   8.720  18.129  11.883
30939W        W95147  27.122   7.738   1.880
30940W        W95148  24.218  30.038   1.804
30941W        W95149  18.639  39.980   0.940
30942W        W95150   2.399  10.176   3.657
30943W        W95151  33.434  20.265  11.050
30944W        W95152  20.749   6.806   3.778
30945W        W95153  14.678  37.431  10.491
30946W        W95154  28.462   1.255  11.861
30947W        W95155  27.184   1.461   1.860
30948W        W95156   6.361  44.871  11.946
30949W        W95157  13.301  42.980  12.979
30950W        W95158  32.501   6.767  13.928
30951W        W95159  31.629  21.587  11.432
30952W        W95160  29.647  38.384   1.847
30953W        W95161   8.392  15.724  10.060
30954W        W95162  15.698  25.649   4.806
30955W        W95163  39.400  20.584  13.933
30956W        W95164  21.222   2.260   1.931
30957W        W95165   5.393  39.505   3.365
30958W        W95166   6.790   0.415  11.511
30959W        W95167  35.094  29.038  10.052
30960W        W95168  42.352  13.723  13.319
30961W        W95169  42.321   6.741  13.394
30962W        W95170  41.485  39.851  11.505
30963W        W95171  43.957  37.855   9.934
30964W        W95172  15.802  16.177  13.819
30965W        W95173   3.230  12.642  10.146
30966W        W95174  40.911  15.288  13.374
30967W        W95175   3.880  36.086   2.727
30968W        W95176  27.624  36.397  11.117
30969W        W95177  20.113  15.695  10.971
30970W        W95178  39.834  25.538   0.377
30971W        W95179   9.243  22.186  12.353
30972W        W95180  42.443   5.273   3.294
30973W        W95181   1.315  36.504   3.379
30974W        W95182  18.255   2.231   1.350
30975W        W95183  24.012   6.192   3.372
30976W        W95184  16.120  34.394   0.779
30977W        W95185   2.321  15.656   0.457
30978W        W95186  10.786   5.855  12.095
30979W        W95187  16.609  37.033   3.375
30980W        W95188   3.335  43.929  10.022
30981W        W95189  18.748   8.358   3.831
30982W        W95190  34.927  36.075  13.449
30983W        W95191  40.810  29.125  12.573
30984W        W95192  13.832  34.949   2.319
30985W        W95193   3.258  19.044  13.479
30986W        W95194   0.932  12.265  12.356
30987W        W95195  21.235   6.224   1.382
30988W        W95196  28.151  26.521  13.422
30989W        W95197  33.967   7.858   1.423
30990W        W95198  10.803   1.924  12.507
30991W        W95199  32.410  40.474  12.552
30992W        W95200  34.998  10.352   1.880
30993W        W95201  32.900  28.135  13.903
30994W        W95202  32.074  44.357   1.709
30995W        W95203   7.669  29.134  13.027
30996W        W95204  43.297  21.580   4.825
30997W        W95205  15.728  24.497   1.300
30998W        W95206   4.398   6.404   1.925
30999W        W95207   0.775   4.261  10.461
31000W        W95208  41.354   8.332   0.812
31001W        W95209  23.645  29.466   2.711
31002W        W95210   4.861  43.364  11.381
31003W        W95211  26.621  35.521   0.297
31004W        W95212  12.825   8.671   2.205
31005W        W95213   1.930   3.817   2.301
31006W        W95214  31.922  10.333   1.814
31007W        W95215  21.158  15.710   2.779
31008W        W95216  39.058   0.986  12.986
31009W        W95217   5.716  21.087  12.872
31010W        W95218   4.783  23.588  10.107
31011W        W95219   0.310  37.057   3.781
31012W        W95220  40.412  41.814  14.916
31013W        W95221  15.249  31.088  12.863
31014W        W95222  13.180   9.842   4.220
31015W        W95223  28.558  17.787  14.342
31016W        W95224   3.951   2.857  11.605
31017W        W95225  41.378  19.048  11.867
31018W        W95226  18.150  13.254  14.425
31019W        W95227  25.648   6.297   0.757
31020W        W95228   3.744  38.407   3.783
31021W        W95229  17.141   8.315  10.411
31022W        W95230  20.153  16.810  12.854
31023W        W95231  22.072  16.180   2.322
31024W        W95232  19.111   5.713  13.906
31025W        W95233  30.940  17.731   3.155
31026W        W95234  36.958  43.786  13.448
31027W        W95235   7.791  29.508   5.168
31028W        W95236  22.190  26.138   0.911
31029W        W95237  16.627  43.303   0.858
31030W        W95238  10.747  24.561   2.237
31031W        W95239   8.801   5.326   0.911
31032W        W95240  41.830   0.985   0.745
31033W        W95241  31.436  32.486   1.856
31034W        W95242  28.074  34.896   4.652
31035W        W95243   3.327  31.102   3.796
31036W        W95244   8.333  11.699  13.009
31037W        W95245  15.693  28.479   4.251
31038W        W95246   0.878   9.815   2.683
31039W        W95247   2.281  38.877  12.576
31040W        W95248   6.408  27.453   0.398
31041W        W95249  17.730  39.417  11.991
31042W        W95250  22.713   3.951   4.619
31043W        W95251  20.139  41.292  14.891
31044W        W95252  11.779   0.906  13.337
31045W        W95253  15.175  17.211  14.368
31046W        W95254  33.569   6.788   3.256
31047W        W95255  27.654  40.987   1.895
31048W        W95256  12.302  32.398   3.275
31049W        W95257  11.715   0.332   4.185
31050W        W95258   7.743  23.688  11.119
31051W        W95259  12.197   0.297   4.155
31052W        W95260  40.917  38.510   2.345
31053W        W95261  38.074  31.640   4.798
31054W        W95262  23.599  23.573  14.297
31055W        W95263  39.858  17.645  13.037
31056W        W95264  40.343  19.717   9.946
31057W        W95265   0.334   7.767   2.364
31058W        W95266  35.515   0.867   2.352
31059W        W95267  34.503  36.044  13.871
31060W        W95268  26.686   4.815  12.902
31061W        W95269  31.538  15.141   3.744
31062W        W95270  43.815   4.714  11.080
31063W        W95271  34.104  40.983  11.062
31064W        W95272  16.598  35.992   1.927
31065W        W95273   4.264  15.127   3.668
31066W        W95274  33.615  19.703   0.751
31067W        W95275  18.545  33.102  11.879
31068W        W95276  19.062  18.778  12.912
31069W        W95277  37.874  37.944   1.715
31070W        W95278  11.264  33.446  12.076
31071W        W95279  40.377  13.749  12.434
31072W        W95280   9.800  37.960   1.284
31073W        W95281  25.682   9.149   2.318
31074W        W95282  19.668   4.224  11.515
31075W        W95283  28.531  18.709   4.177
31076W        W95284  18.733  28.947   3.864
31077W        W95285   3.710  19.176  13.362
31078W        W95286   3.956  33.939   2.342
31079W        W95287  33.626  15.644  13.897
31080W        W95288  12.285  22.021   2.669
31081W        W95289  36.424  30.056  14.783
31082W        W95290  39.335  42.286  12.915
31083W        W95291  30.634   3.832   4.752
31084W        W95292  24.005  28.482  14.773
31085W        W95293  30.049  22.589   2.192
31086W        W95294   3.409  11.297   3.693
31087W        W95295  12.796   9.191  14.914
31088W        W95296  16.074  44.439  11.533
31089W        W95297  36.027  41.876   4.143
31090W        W95298  32.573  41.009   1.872
31091W        W95299  10.375  18.192  12.074
31092W        W95300   3.419  33.427   2.362
31093W        W95301  19.076   2.314   1.301
31094W        W95302   6.323  25.106   0.348
31095W        W95303  36.977  19.718  13.439
31096W        W95304  16.747  35.449   5.195
31097W        W95305   4.333  33.882   0.939
31098W        W95306  34.908  17.608   2.337
31099W        W95307   7.363  18.574  10.452
31100W        W95308  24.700  25.599  12.343
31101W        W95309   2.415  36.449   4.789
31102W        W95310  44.498  36.047   5.780
31103W        W95311  16.728  10.835  11.914
31104W        W95312  17.663  33.987   1.697
31105W        W95313  31.962  43.877  13.312
31106W        W95314   7.863  29.481   4.280
31107W        W95315  37.383   3.876   0.354
31108W        W95316  37.438   8.668  13.404
31109W        W95317  12.229  16.270   2.888
31110W        W95318  32.495   4.752   4.823
31111W        W95319  16.617  40.903   4.743
31112W        W95320   0.416  16.685  10.447
31113W        W95321  12.268  14.688   2.251
31114W        W95322   4.370  26.584  14.855
31115W        W95323  12.309  19.587   1.725
31116W        W95324  13.702  16.711  13.425
31117W        W95325  30.428  39.919   4.354
31118W        W95326  25.506  33.083  13.324
31119W        W95327  32.485  28.993  14.910
31120W        W95328  38.426  36.036   4.626
31121W        W95329  28.575  27.970  14.486
31122W        W95330  39.386  11.700  11.413
31123W        W95331  37.408   2.468  14.305
31124W        W95332  22.139   8.326   2.828
31125W        W95333  16.779  21.167  10.956
31126W        W95334  26.001   5.213   4.344
31127W        W95335  43.464   3.713  11.071
31128W        W95336   6.188  34.487  11.442
31129W        W95337  12.812   9.651  13.523
31130W        W95338  19.694  25.107   4.223
31131W        W95339   2.264  14.641  14.810
31132W        W95340  32.095  38.461  13.936
31133W        W95341  17.677  10.298  11.011
31134W        W95342   1.952  23.500  12.854
31135W        W95343  23.540  22.247  14.783
31136W        W95344  24.053  21.195  13.380
31137W        W95345  32.563   7.776   1.399
31138W        W95346  21.019  34.983  14.514
31139W        W95347  32.393  14.103   1.280
31140W        W95348  34.522  38.519   2.731
31141W        W95349  43.362  24.001  10.909
31142W        W95350  18.669  25.668  13.306
31143W        W95351   4.391  35.527   4.813
31144W        W95352  24.093  34.594  10.570
31145W        W95353  13.700  22.581   3.303
31146W        W95354  33.976  11.328   3.657
31147W        W95355  27.621  30.043   0.399
31148W        W95356  32.520   9.233   0.824
31149W        W95357  32.538  19.113  11.057
31150W        W95358   6.378   8.665   4.682
31151W        W95359  25.987  12.322   1.342
31152W        W95360  36.967  30.614  13.007
31153W        W95361  15.223  17.740  13.335
31154W        W95362  39.816  24.578  13.308
31155W        W95363  16.658   4.204   0.308
31156W        W95364  16.619   1.744  11.565
31157W        W95365   5.923  28.434  12.824
31158W        W95366  25.533  42.527   1.900
31159W        W95367  15.282  11.161   0.900
31160W        W95368  18.728  14.608   4.334
31161W        W95369  13.794   1.469   1.437
31162W        W95370  42.451  39.460   0.773
31163W        W95371  17.595  19.714   2.772
31164W        W95372   2.254  27.005  14.306
31165W        W95373  22.046  41.459   1.926
31166W        W95374   9.743  30.106   3.265
31167W        W95375  22.070   6.251  14.896
31168W        W95376   3.224  16.226  10.995
31169W        W95377   1.406  16.687   1.241
31170W        W95378  39.845  29.013  14.858
31171W        W95379  17.241  28.014   3.201
31172W        W95380  31.923   1.358  10.515
31173W        W95381  22.101  19.104  11.862
31174W        W95382  10.866  27.977  11.534
31175W        W95383   4.853  20.756   2.769
31176W        W95384  15.167  42.449  14.927
31177W        W95385  27.185  14.747   0.363
31178W        W95386  24.708  28.639   4.645
31179W        W95387  33.503  13.700  13.821
31180W        W95388  35.933  33.621   0.779
31181W        W95389  15.110  26.497  10.451
31182W        W95390   7.360  25.560  14.763
31183W        W95391  10.315   6.351  14.796
31184W        W95392  25.018  10.248   2.696
31185W        W95393  41.977  35.909   0.475
31186W        W95394  20.109  15.673   4.708
31187W        W95395  22.634  12.659  10.151
31188W        W95396  12.115  32.904  14.836
31189W        W95397  31.096  17.710   2.403
31190W        W95398  40.975  40.943  12.422
31191W        W95399  33.555  36.954   3.207
31192W        W95400  19.568   6.187   3.329
31193W        W95401  39.466  19.090  11.902
31194W        W95402  34.408  27.686  13.801
31195W        W95403  14.263  27.059   5.289
31196W        W95404  15.103  15.095   1.868
31197W        W95405  26.018  10.142  10.615
31198W        W95406  43.976   3.796  11.592
31199W        W95407  29.465  26.105   2.189
31200W        W95408  44.471   1.789   2.181
31201W        W95409  17.191   6.298  10.049
31202W        W95410  12.237   6.368   1.217
31203W        W95411   4.404   8.165   2.752
31204W        W95412  32.465  15.697   0.808
31205W        W95413  40.033   6.718   0.391
31206W        W95414  29.137  13.321  13.055
31207W        W95415  34.875  39.835   0.407
31208W        W95416  16.255  26.545  14.281
31209W        W95417  22.674  39.901   2.386
31210W        W95418  28.942   2.420  14.906
31211W        W95419  42.881  35.414   2.751
31212W        W95420   1.952   0.259  13.535
31213W        W95421   0.820  44.306   0.331
31214W        W95422  15.299  39.442   2.710
31215W        W95423   4.914  22.639  10.607
31216W        W95424  27.598  25.636   0.425
31217W        W95425  10.368  19.062  10.518
31218W        W95426   2.317  19.712   5.154
31219W        W95427  16.604  42.465  14.004
31220W        W95428  37.928  40.326   1.834
31221W        W95429  41.008  27.631   1.697
31222W        W95430   7.838  39.433  12.342
31223W        W95431  10.148  16.194  10.096
31224W        W95432  37.402  26.579  12.885
31225W        W95433  30.416  41.324   4.728
31226W        W95434  34.875  23.603  11.516
31227W        W95435  10.253  30.041  12.008
31228W        W95436  39.037   5.915  11.570
31229W        W95437   3.771  17.657  12.900
31230W        W95438  43.865  10.300   3.683
31231W        W95439   5.342  43.911   3.374
31232W        W95440  43.348  41.887  13.902
31233W        W95441   4.732  23.595  14.399
31234W        W95442  33.584  15.261   2.800
31235W        W95443  36.412  26.074  11.052
31236W        W95444  39.402  26.616   0.901
31237W        W95445  34.593  28.953  12.416
31238W        W95446  18.605  34.590  11.943
31239W        W95447  40.967  26.026   2.224
31240W        W95448  34.037  24.511   4.128
31241W        W95449   2.359  44.393   0.823
31242W        W95450  19.075  17.758   2.718
31243W        W95451  31.403  25.027  11.129
31244W        W95452  19.702  20.054  11.880
31245W        W95453   8.367  38.070  13.798
31246W        W95454  35.041  18.255   3.324
31247W        W95455  31.033  38.926  11.414
31248W        W95456   7.867  32.141   2.675
31249W        W95457  10.825  38.983   2.801
31250W        W95458  20.572  21.074   2.288
31251W        W95459  30.154  26.597   3.842
31252W        W95460  24.628  29.985   4.808
31253W        W95461  35.066  33.911  14.516
31254W        W95462  21.073  36.454   0.259
31255W        W95463  34.477  12.150  11.453
31256W        W95464   0.333  37.368  13.892
31257W        W95465  38.549   5.334  14.340
31258W        W95466  10.321  38.387  11.545
31259W        W95467  20.693  26.544   0.772
31260W        W95468  29.656  30.491   2.347
31261W        W95469   0.257  24.022   2.286
31262W        W95470  14.307  28.994  12.462
31263W        W95471  16.772   0.263  13.347
31264W        W95472  31.439  21.574  12.466
31265W        W95473  34.916   3.806   3.335
31266W        W95474  18.566  34.066   3.779
31267W        W95475  32.911  33.040  12.824
31268W        W95476  27.465  30.049  12.416
31269W        W95477  38.525   6.367  11.593
31270W        W95478  10.210  28.620  11.099
31271W        W95479  42.513  13.637  14.824
31272W        W95480  39.848  30.536   4.180
31273W        W95481   9.283  32.909  11.871
31274W        W95482  31.439  10.313  14.894
31275W        W95483  38.440  22.742   1.276
31276W        W95484  25.991  31.428  11.525
31277W        W95485  34.600  15.689   2.801
31278W        W95486  39.490  28.561  14.928
31279W        W95487  32.974  44.332  13.324
31280W        W95488  21.201  15.319  13.341
31281W        W95489   7.322  40.454   2.697
31282W        W95490  24.207   2.852  10.937
31283W        W95491   0.755  39.990   0.352
31284W        W95492   6.877   3.359  10.937
31285W        W95493  13.316  34.088  10.462
31286W        W95494   0.258   2.255   0.242
31287W        W95495  34.935  14.104   1.349
31288W        W95496  27.046  28.022  12.838
31289W        W95497  35.368  33.515   0.963
31290W        W95498  11.696  27.588  14.762
31291W        W95499  13.609  12.156   0.266
31292W        W95500  40.969  38.950   4.668
31293W        W95501  14.772  34.426   0.356
31294W        W95502  15.779  16.755   3.152
31295W        W95503  24.556  22.616   0.773
31296W        W95504  17.299  35.903  13.418
31297W        W95505  19.609  39.362   4.754
31298W        W95506  15.298  12.647   0.897
31299W        W95507   1.375   5.247   4.309
31300W        W95508  24.200  20.045   0.420
31301W        W95509   1.802  18.724  11.386
31302W        W95510  22.173  24.215  13.863
31303W        W95511   5.205  10.360  10.945
31304W        W95512  37.083  23.027   2.319
31305W        W95513  26.515  37.948  13.405
31306W        W95514  40.355  10.263   5.256
31307W        W95515  26.601   3.353  13.796
31308W        W95516  31.148  14.832  11.113
31309W        W95517  43.440  33.415  11.493
31310W        W95518  23.017  21.256   1.358
31311W        W95519  17.121  22.584  12.481
31312W        W95520  23.077  13.137  14.942
31313W        W95521  28.056  42.920   1.828
31314W        W95522   7.878   8.719   1.862
31315W        W95523  40.510   3.844  13.819
31316W        W95524  32.027  34.483  14.826
31317W        W95525  39.459  33.874   4.138
31318W        W95526  44.859  20.742   1.728
31319W        W95527  39.002  31.522  10.631
31320W        W95528  35.454   1.853   0.410
31321W        W95529  32.068  39.912  14.283
31322W        W95530  29.461  37.425   9.956
31323W        W95531  20.124  32.572   0.814
31324W        W95532  14.694  19.269  14.808
31325W        W95533   6.880   5.712   1.902
31326W        W95534  35.887  38.012  10.530
31327W        W95535  29.502  35.370  12.091
31328W        W95536  18.190   1.969   2.236
31329W        W95537  27.186  40.955   0.410
31330W        W95538   7.236  22.155  10.436
31331W        W95539  12.730  10.771  11.961
31332W        W95540   1.774  41.394   0.428
31333W        W95541  23.193   0.287  12.453
31334W        W95542  12.611  38.431  14.323
31335W        W95543  27.101   3.328   3.242
31336W        W95544   1.764   5.905   1.909
31337W        W95545  23.734  29.136  13.932
31338W        W95546  18.261  27.153  13.864
31339W        W95547  36.585  29.561   1.270
31340W        W95548  14.310  41.812  11.061
31341W        W95549   6.761  34.416   3.284
31342W        W95550   9.372  43.410  14.479
31343W        W95551  39.051  37.365  13.453
31344W        W95552  29.118  43.415   2.797
31345W        W95553   0.897  17.686  11.868
31346W        W95554  33.035  43.899   1.420
31347W        W95555  15.242  11.751  14.845
31348W        W95556   3.717  32.992  11.498
31349W        W95557  21.573  39.548   1.797
31350W        W95558  42.881   0.379   2.730
31351W        W95559  16.773  38.890   2.300
31352W        W95560  42.496  44.260  12.846
31353W        W95561   5.785  26.062  11.013
31354W        W95562   0.762  15.721   0.867
31355W        W95563  20.573   7.893   4.629
31356W        W95564  28.938  41.484   1.882
31357W        W95565  13.748   1.914  13.508
31358W        W95566  22.184  30.099  12.991
31359W        W95567  44.888  10.785  13.998
31360W        W95568  43.800  29.475   2.178
31361W        W95569  36.368  18.682   3.148
31362W        W95570   2.286  10.718  11.441
31363W        W95571  43.456  34.897  13.345
31364W        W95572  42.387  43.001  13.033
31365W        W95573  15.658  22.637  11.953
31366W        W95574   3.430   2.819   0.751
31367W        W95575   8.211   0.973  10.463
31368W        W95576  20.044  43.766  10.902
31369W        W95577  18.106  23.726  12.019
31370W        W95578  17.268  36.542   1.305
31371W        W95579  31.567   6.265  14.504
31372W        W95580  12.831   5.816  12.923
31373W        W95581  14.201   5.426   2.801
31374W        W95582   8.277  20.135  10.897
31375W        W95583  11.727  18.123   4.251
31376W        W95584  28.008   9.792  11.938
31377W        W95585  10.163  44.405   5.185
31378W        W95586  18.174   8.374   1.224
31379W        W95587  42.482  19.656  10.436
31380W        W95588   1.343  34.937   1.348
31381W        W95589  19.203   3.358   4.139
31382W        W95590  23.986  38.056   0.819
31383W        W95591  31.523  25.706  13.407
31384W        W95592  28.444   6.908  13.521
31385W        W95593  17.194  30.636  13.862
31386W        W95594  34.977  31.153   1.830
31387W        W95595   7.740   8.317  10.974
31388W        W95596  27.553  37.902   1.449
31389W        W95597  30.133  25.966  11.974
31390W        W95598   3.312   3.338  14.283
31391W        W95599  44.416   0.896   4.228
31392W        W95600  33.444  19.658  10.065
31393W        W95601   0.898  38.546   5.170
31394W        W95602  30.546  18.745   4.740
31395W        W95603   5.387  35.025   1.914
31396W        W95604  39.026  20.126   1.354
31397W        W95605  27.660  28.625  11.947
31398W        W95606   4.425   7.407   0.751
31399W        W95607  24.129  41.854  14.860
31400W        W95608  30.975  11.841  11.008
31401W        W95609  22.722  42.503  13.397
31402W        W95610  31.462   1.905  12.346
31403W        W95611  37.547  15.305  10.919
31404W        W95612  12.743  16.736  11.952
31405W        W95613  10.210  27.646   0.479
31406W        W95614  15.788   6.280   1.930
31407W        W95615  11.653   0.785  14.905
31408W        W95616  34.060  25.093   5.250
31409W        W95617  15.647  33.974  14.883
31410W        W95618  13.838  27.995   2.714
31411W        W95619   8.317  38.947   2.374
31412W        W95620  31.538  39.324  12.954
31413W        W95621   6.228   5.755  11.939
31414W        W95622  35.543  37.441   2.693
31415W        W95623  20.751  34.872  12.385
31416W        W95624  43.788  32.920   9.504
31417W        W95625  44.286  24.989  14.819
31418W        W95626  18.568   0.920  14.899
31419W        W95627   6.404   6.709  10.518
31420W        W95628  18.635   9.157   1.306
31421W        W95629  19.254  15.321  11.550
31422W        W95630   2.246  31.511   1.375
31423W        W95631  40.412  16.764  10.902
31424W        W95632   8.884   6.407  11.400
31425W        W95633   2.942  36.098   4.636
31426W        W95634  32.394  38.055  10.488
31427W        W95635  32.391  25.983  14.796
31428W        W95636  37.481  30.133  14.510
31429W        W95637  13.643  28.998  10.905
31430W        W95638   4.340   0.867   0.842
31431W        W95639  34.975   4.702  11.545
31432W        W95640   7.345  13.793   1.335
31433W        W95641  13.143  31.926   1.439
31434W        W95642   8.817  20.245   1.293
31435W        W95643   5.406  22.733   0.736
31436W        W95644  29.949  27.648  14.363
31437W        W95645  40.515  22.644  13.927
31438W        W95646   2.765  24.501  13.793
31439W        W95647  21.088  23.559  11.952
31440W        W95648  33.513  36.445  11.858
31441W        W95649  12.790  18.733   4.137
31442W        W95650  34.100  15.188   4.785
31443W        W95651   3.921  20.153   3.325
31444W        W95652   2.834  35.409   1.908
31445W        W95653  24.507   5.794   1.773
31446W        W95654   9.365  32.513   3.762
31447W        W95655  13.269  26.980   0.370
31448W        W95656   0.292   0.353  10.933
31449W        W95657  22.719   8.785  14.989
31450W        W95658  18.218  32.490  12.456
31451W        W95659  14.606  30.517   1.307
31452W        W95660  26.691  13.603  11.576
31453W        W95661  33.488   8.330  12.830
31454W        W95662   3.863  24.229   4.162
31455W        W95663  18.077  16.597  13.449
31456W        W95664   0.350  41.025  14.299
31457W        W95665  14.765  42.843   0.292
31458W        W95666  25.637  40.012   4.746
31459W        W95667  39.923  28.163   0.833
31460W        W95668  22.614  23.608  12.856
31461W        W95669  38.942  21.062   2.372
31462W        W95670  37.356  31.999  11.437
31463W        W95671  32.532   0.324   1.707
31464W        W95672   1.859   2.359   2.276
31465W        W95673  18.149  22.587   4.669
31466W        W95674   8.314  22.618   3.787
31467W        W95675  18.200  16.623  11.562
31468W        W95676  27.972  28.984   2.875
31469W        W95677  11.191   7.304   0.362
31470W        W95678   5.779   5.772  13.437
31471W        W95679  40.875  38.522  10.594
31472W        W95680  24.639   9.671  10.978
31473W        W95681  13.743  25.091  14.515
31474W        W95682  26.558  39.434   0.450
31475W        W95683  25.591  33.913  12.465
31476W        W95684  10.844   9.268  10.905
31477W        W95685  10.169  36.005  11.056
31478W        W95686  19.636  40.484   2.362
31479W        W95687  21.086  30.414   3.190
31480W        W95688  22.141  42.848   1.896
31481W        W95689  18.769  29.014  12.493
31482W        W95690  41.350  12.740   2.220
31483W        W95691   2.390   2.443   1.322
31484W        W95692   4.892  22.506   0.289
31485W        W95693  28.004  38.877  13.435
31486W        W95694  44.368  44.329   1.859
31487W        W95695   9.290  21.057  14.997
31488W        W95696  10.687  25.666   2.262
31489W        W95697  29.134  36.094  11.557
31490W        W95698   8.266  22.158  11.979
31491W        W95699   2.228  32.498   3.642
31492W        W95700  16.655  11.296   3.866
31493W        W95701   6.830  13.811   2.335
31494W        W95702  14.292  32.907  10.975
31495W        W95703   6.918  12.282  12.051
31496W        W95704   9.321  43.434  11.868
31497W        W95705  40.826  24.156   2.316
31498W        W95706  18.782  12.199   2.199
31499W        W95707  29.525  31.912  10.118
31500W        W95708   5.834  12.284  12.579
31501W        W95709  26.204  12.680   0.874
31502W        W95710  24.494  34.582   3.359
31503W        W95711  18.665  42.340   1.380
31504W        W95712  34.025   9.374   0.432
31505W        W95713   4.857  17.098  11.612
31506W        W95714  26.564  17.725  12.901
31507W        W95715  25.182  20.246   4.218
31508W        W95716  34.083  23.508  13.947
31509W        W95717  19.742  20.125  14.897
31510W        W95718  18.076  35.555  14.325
31511W        W95719  28.047   0.968  11.560
31512W        W95720  16.776  40.855   2.792
31513W        W95721   7.224  32.021   0.964
31514W        W95722   7.667  23.618   4.216
31515W        W95723   3.236  14.816  11.880
31516W        W95724  37.384  17.556   3.307
31517W        W95725  27.558  21.223  11.428
31518W        W95726  25.614  30.080   1.866
31519W        W95727  34.086  35.510   2.785
31520W        W95728  44.297  14.736   1.266
31521W        W95729  14.619  10.261  12.008
31522W        W95730  14.621  28.611   4.708
31523W        W95731  43.360   8.347   0.365
31524W        W95732   2.403  24.222   2.793
31525W        W95733  24.610  32.888  12.473
31526W        W95734  16.641  21.229  14.782
31527W        W95735  36.501  17.623  10.452
31528W        W95736  15.222   7.190  10.492
31529W        W95737  22.519   5.328   3.261
31530W        W95738   1.918  10.355   2.733
31531W        W95739   6.893  30.944   3.777
31532W        W95740  30.010  32.997   0.866
31533W        W95741  41.407  19.071  13.896
31534W        W95742  28.676  35.939   0.275
31535W        W95743  28.623  31.988  10.632
31536W        W95744   9.192  37.452   1.772
31537W        W95745   7.408  28.659   1.330
31538W        W95746  44.343  25.160   4.806
31539W        W95747  19.058  18.239   1.347
31540W        W95748  17.090   3.922   9.973
31541W        W95749  15.244   6.207   1.898
31542W        W95750  19.548  22.249   3.299
31543W        W95751  42.376  28.151   4.650
31544W        W95752  30.465  38.546   3.777
31545W        W95753  27.086  42.867  12.967
31546W        W95754   0.375  25.564   3.306
31547W        W95755  10.236  24.060   3.170
31548W        W95756  39.460   0.394   0.422
31549W        W95757  21.163  43.886   3.842
31550W        W95758  38.853   8.273  12.564
31551W        W95759   6.208  36.912   3.828
31552W        W95760  35.601   2.383   0.288
31553W        W95761   7.260  40.977  12.068
31554W        W95762  19.063  19.116   3.694
31555W        W95763  42.460   5.316  13.031
31556W        W95764  25.134  19.580  13.393
31557W        W95765  42.000   1.973   3.353
31558W        W95766  38.560  42.394   2.369
31559W        W95767  29.585   0.273   3.313
31560W        W95768  19.127  11.792   0.889
31561W        W95769  40.015  18.232  12.447
31562W        W95770  14.186  20.127  14.990
31563W        W95771   0.921  23.163   4.181
31564W        W95772  10.191  12.853  12.411
31565W        W95773  44.967  38.424  13.458
31566W        W95774  28.667  13.244  13.440
31567W        W95775  39.429   1.365   3.192
31568W        W95776  15.580  21.684  13.941
31569W        W95777  17.192  37.501  12.482
31570W        W95778  16.151   0.289   2.338
31571W        W95779  13.171   2.336   0.757
31572W        W95780  19.655  35.529   2.827
31573W        W95781  40.911  30.633   2.795
31574W        W95782  44.935  30.604   1.829
31575W        W95783  23.236  32.553  14.896
31576W        W95784  31.094  10.298  13.929
31577W        W95785  38.979  40.905   0.473
31578W        W95786  18.073  38.461   4.116
31579W        W95787  42.304  21.754   4.310
31580W        W95788  29.074   0.318  14.979
31581W        W95789  37.466  44.431   3.320
31582W        W95790  28.584  10.176  13.505
31583W        W95791  41.794  30.063   0.332
31584W        W95792   5.798   8.790  10.607
31585W        W95793  28.177  16.087   2.235
31586W        W95794  33.011  15.229   4.170
31587W        W95795  27.598  44.340   1.721
31588W        W95796  38.057  37.973   2.699
31589W        W95797  40.333  12.290  14.030
31590W        W95798  40.546   9.689  13.316
31591W        W95799  18.291  37.527  11.976
31592W        W95800  14.334   0.895  12.069
31593W        W95801   5.345  38.561  11.536
31594W        W95802   7.729  15.213  11.507
31595W        W95803   7.245  33.617   2.859
31596W        W95804  44.821  30.497   3.833
31597W        W95805  22.181   1.850   1.805
31598W        W95806  28.636  44.434  14.359
31599W        W95807  33.948  42.288  12.084
31600W        W95808  20.661   6.758  11.027
31601W        W95809  18.592  25.160   5.313
31602W        W95810  28.181   1.250   2.331
31603W        W95811  43.787   7.723   2.791
31604W        W95812   7.361  41.804  10.952
31605W        W95813  16.111  25.153  10.537
31606W        W95814  17.749  14.614   4.125
31607W        W95815  24.680   5.751  12.015
31608W        W95816   6.291  19.206   3.839
31609W        W95817  18.725   7.847  11.907
31610W        W95818   1.811  44.878   4.273
31611W        W95819  22.153  20.264   4.271
31612W        W95820  20.090   4.286   3.779
31613W        W95821   6.919  29.452   1.722
31614W        W95822  30.635   6.908  11.955
31615W        W95823  32.535  14.769   5.646
31616W        W95824   9.814  14.769   3.348
31617W        W95825   7.282   9.281   4.612
31618W        W95826  39.824  38.357  11.451
31619W        W95827   6.253  34.566  10.968
31620W        W95828  14.762  27.993  14.490
31621W        W95829  36.552  37.076  11.885
31622W        W95830  10.316  20.582   5.125
31623W        W95831  23.635  20.711   3.765
31624W        W95832   1.281  40.011  14.365
31625W        W95833  36.579  20.085  11.419
31626W        W95834  10.684  18.205  13.023
31627W        W95835  34.452   3.926   2.849
31628W        W95836   8.229  21.093   3.738
31629W        W95837  29.163   0.773   4.293
31630W        W95838  17.689  29.661  12.513
31631W        W95839  39.874  17.163  14.280
31632W        W95840  28.557   0.945  11.402
31633W        W95841   1.823  16.089   2.281
31634W        W95842  44.932   1.951  11.604
31635W        W95843  24.040  30.966   4.801
31636W        W95844  38.029  30.112  14.336
31637W        W95845   6.340  20.145  11.951
31638W        W95846  25.662  31.014   2.394
31639W        W95847  31.134  33.121   0.304
31640W        W95848  26.661  43.499   4.318
31641W        W95849  16.179  26.194   4.117
31642W        W95850  32.958  35.973  11.890
31643W        W95851  14.756  34.971   0.843
31644W        W95852  11.182   3.410   4.272
31645W        W95853  42.901  20.522  11.052
31646W        W95854   7.682  44.367   2.777
31647W        W95855  20.632  11.627   2.233
31648W        W95856  28.020   7.713  13.415
31649W        W95857  44.374  33.913   1.737
31650W        W95858  16.752  44.315   0.368
31651W        W95859  29.979   2.919   2.192
31652W        W95860  35.539  16.724   1.815
31653W        W95861  16.584   4.821   3.754
31654W        W95862  28.991  17.606  14.405
31655W        W95863   2.855  32.897   5.100
31656W        W95864  27.566   2.251  12.430
31657W        W95865  35.960  24.116   1.708
31658W        W95866  23.659  43.305  14.001
31659W        W95867  29.062  32.125   0.950
31660W        W95868  41.315  36.478   0.966
31661W        W95869  25.041  15.220  12.467
31662W        W95870  36.589  19.632   4.243
31663W        W95871  14.101   2.265  13.344
31664W        W95872  38.486  14.095  10.628
31665W        W95873  23.605   2.817   3.360
31666W        W95874  40.539  39.394  14.899
31667W        W95875   1.879   0.945  11.012
31668W        W95876  17.691   0.942  14.841
31669W        W95877  13.270  30.141   1.719
31670W        W95878  15.661   5.725  11.405
31671W        W95879   6.699  14.604  11.073
31672W        W95880  26.670  43.397   1.722
31673W        W95881  18.282  36.378   0.348
31674W        W95882  26.490  33.093   1.449
31675W        W95883  40.004  32.891  13.372
31676W        W95884  32.503  24.530  13.850
31677W        W95885  39.889  32.631   3.319
31678W        W95886  18.758  44.952   2.685
31679W        W95887  40.527   8.791   3.838
31680W        W95888  13.127  41.915  14.288
31681W        W95889  37.977   2.751   0.864
31682W        W95890  22.037   0.974  13.952
31683W        W95891  10.674  14.739   2.753
31684W        W95892  30.659  22.744   2.376
31685W        W95893  41.321  40.024   1.737
31686W        W95894  34.470  14.112   4.674
31687W        W95895  44.492  42.822  12.502
31688W        W95896  18.077   2.459  14.866
31689W        W95897  27.484  21.159   3.365
31690W        W95898  34.505  29.035  11.076
31691W        W95899  37.474  21.626  11.097
31692W        W95900  44.794  31.450   5.089
31693W        W95901  38.849  28.651   1.831
31694W        W95902  36.958  17.113   0.326
31695W        W95903  23.234  17.713  13.363
31696W        W95904   0.978  13.605  14.798
31697W        W95905   3.826  28.160   3.384
31698W        W95906   2.328  36.360  13.841
31699W        W95907  38.060  25.184   2.241
31700W        W95908  39.523  29.155  14.991
31701W        W95909  12.339  17.163   3.376
31702W        W95910   6.844  29.046  11.378
31703W        W95911  19.771   7.864   9.950
31704W        W95912  30.545  14.217   3.780
31705W        W95913  29.030  31.004  13.857
31706W        W95914   3.751  16.734  12.513
31707W        W95915  44.402  42.007   2.329
31708W        W95916  39.050  16.200   0.784
31709W        W95917  15.170   5.261   4.183
31710W        W95918  31.638  19.727   3.178
31711W        W95919  35.969  43.830   2.869
31712W        W95920  12.196  31.936  11.867
31713W        W95921  18.236   7.373  10.568
31714W        W95922   0.409   8.846  12.893
31715W        W95923  10.344  33.536  12.508
31716W        W95924  44.991  31.590  12.046
31717W        W95925  38.561  33.475   3.721
31718W        W95926  11.268  29.145  12.377
31719W        W95927  17.165   4.372  12.346
31720W        W95928  12.360  19.233  10.982
31721W        W95929  37.939   8.733  12.915
31722W        W95930  41.305   7.871   3.799
31723W        W95931  11.749  31.067  14.453
31724W        W95932  28.611  14.709  13.033
31725W        W95933  13.255   7.709   3.209
31726W        W95934  22.620  40.319   5.179
31727W        W95935  31.990  23.064   1.309
31728W        W95936  22.530  30.587   5.267
31729W        W95937  33.589  26.620  13.016
31730W        W95938  23.150  21.217   0.439
31731W        W95939  31.579   8.220  12.862
31732W        W95940   6.192  13.600   2.200
31733W        W95941  30.102  17.170   2.876
31734W        W95942  18.186  10.364  10.623
31735W        W95943  12.684   1.828   3.294
31736W        W95944  25.979   1.818  11.605
31737W        W95945   2.749   8.217   3.759
31738W        W95946  38.884  24.685   3.676
31739W        W95947   4.418  34.600  14.774
31740W        W95948  38.919  15.171   4.243
31741W        W95949   3.256   5.715   1.856
31742W        W95950  22.544  21.526   1.866
31743W        W95951  18.188  35.563   3.793
31744W        W95952  31.948  20.737   3.698
31745W        W95953  40.393   2.767  13.793
31746W        W95954  23.112   2.898  12.935
31747W        W95955   8.173  19.559  12.826
31748W        W95956  20.612   2.823  14.325
31749W        W95957  30.161  23.505   4.190
31750W        W95958  37.858   0.918  11.403
31751W        W95959  20.123  15.168  11.579
31752W        W95960  39.403  27.488  14.470
31753W        W95961  37.916  36.872   1.449
31754W        W95962  40.905   2.352   1.702
31755W        W95963  11.371   3.711  12.424
31756W        W95964  26.073  37.897   3.296
31757W        W95965  22.586   7.738  14.378
31758W        W95966  38.013   4.726  10.438
31759W        W95967   1.964  23.664   3.286
31760W        W95968  41.523  35.882   4.696
31761W        W95969  31.551  35.032  12.404
31762W        W95970  24.528  42.461   2.854
31763W        W95971  35.376  17.670  11.566
31764W        W95972  38.552  42.886  10.407
31765W        W95973  10.289  22.068  12.855
31766W        W95974  29.945  22.053   0.274
31767W        W95975  18.296  20.619  11.478
31768W        W95976  40.488  13.754   4.635
31769W        W95977   9.859  17.254  10.407
31770W        W95978  42.806   7.264  13.830
31771W        W95979   7.313  10.340   0.908
31772W        W95980  14.094   4.889   2.237
31773W        W95981  23.230  25.571  14.003
31774W        W95982  44.862  32.504   4.719
31775W        W95983  11.371   7.881  13.939
31776W        W95984  43.282   7.829  13.816
31777W        W95985  22.678  12.256  13.001
31778W        W95986  33.034  26.114  12.382
31779W        W95987   1.788  39.479   0.766
31780W        W95988   7.859  40.810  13.321
31781W        W95989  12.281  19.623   3.280
31782W        W95990  17.570   1.866  13.375
31783W        W95991  19.622  12.276   2.331
31784W        W95992  39.985  19.178  10.080
31785W        W95993   7.368  13.791  14.001
31786W        W95994  43.492  15.653  12.573
31787W        W95995   7.901  42.780  11.951
31788W        W95996  28.023   2.953  10.593
31789W        W95997  40.934  23.205   1.862
31790W        W95998  10.284  10.248   1.788
31791W        W95999  16.110   8.655   0.281
31792W        W96000  43.314  21.055   2.840
31793W        W96001   7.865  26.137  10.470
31794W        W96002   3.907  31.635   2.296
31795W        W96003  38.508   7.702  12.892
31796W        W96004  28.508  12.712   0.394
31797W        W96005   2.739  35.082  13.830
31798W        W96006  20.074  40.310  13.988
31799W        W96007  30.954  24.517   2.264
31800W        W96008  12.234   7.202  12.083
31801W        W96009  36.870  31.994  14.427
31802W        W96010  43.473  17.080  13.966
31803W        W96011  39.519  14.728  12.891
31804W        W96012  13.250  17.695   0.322
31805W        W96013  38.390  39.819  10.901
31806W        W96014  37.353  31.119   3.772
31807W        W96015  24.045   0.858  10.478
31808W        W96016  29.994  39.915   3.150
31809W        W96017  27.465  14.273   2.201
31810W        W96018   4.409  19.729  14.433
31811W        W96019  32.905  35.088   0.468
31812W        W96020  13.830   3.943   2.697
31813W        W96021  12.728  27.155   2.240
31814W        W96022   4.207  44.972  12.879
31815W        W96023   4.326  36.432   2.775
31816W        W96024  41.931   2.366  11.982
31817W        W96025  14.779  28.454   0.346
31818W        W96026  22.171  41.796  12.868
31819W        W96027   6.904   5.315  12.020
31820W        W96028   7.852  33.117  13.887
31821W        W96029  41.008  33.053  12.889
31822W        W96030  12.663  42.387   0.483
31823W        W96031  13.171  18.754  14.808
31824W        W96032  12.300  33.475   4.175
31825W        W96033  24.708   5.741   4.674
31826W        W96034   0.478  37.910  11.939
31827W        W96035  11.336   4.905   1.875
31828W        W96036  13.660   7.885  12.061
31829W        W96037  21.602   4.251   3.294
31830W        W96038  24.584  38.566   0.439
31831W        W96039  26.477  34.911  10.981
31832W        W96040   3.877  23.613  11.444
31833W        W96041  43.460  16.746  10.508
31834W        W96042  29.976  35.025  11.069
31835W        W96043  22.576   2.454   3.818
31836W        W96044   9.744  41.347   4.251
31837W        W96045  17.628  16.188   2.233
31838W        W96046  14.610  34.092   3.267
31839W        W96047  39.366  33.485  13.003
31840W        W96048  29.958  14.340   1.847
31841W        W96049  39.007  37.920  11.948
31842W        W96050  28.974  20.080  10.615
31843W        W96051  34.887  44.974   3.386
31844W        W96052  35.394  32.393  14.912
31845W        W96053  27.460   9.395   4.283
31846W        W96054   9.338  15.656  14.300
31847W        W96055   4.736  36.445   0.272
31848W        W96056  27.967   0.877   2.387
31849W        W96057   6.383  30.594   1.269
31850W        W96058  17.307  30.531   0.746
31851W        W96059  19.718  36.526  10.407
31852W        W96060  30.444  39.436   3.215
31853W        W96061   9.759  14.248  13.004
31854W        W96062   6.838  31.636  11.052
31855W        W96063  19.105   2.787   3.649
31856W        W96064  25.488  21.093  13.394
31857W        W96065  43.879   3.879   2.193
31858W        W96066  24.042  18.286  14.769
31859W        W96067   9.787   5.829  10.630
31860W        W96068   5.244  13.304  14.009
31861W        W96069   7.797   7.794  14.467
31862W        W96070  31.638  18.693   1.318
31863W        W96071  37.930  42.340  13.906
31864W        W96072  23.700  21.159   4.326
31865W        W96073  13.786  27.629  12.879
31866W        W96074  32.916  40.526   1.377
31867W        W96075  38.438  14.645  13.985
31868W        W96076  35.456   2.337   2.325
31869W        W96077   9.818  37.976  13.015
31870W        W96078  14.294  41.995   5.177
31871W        W96079  11.699  40.547   3.860
31872W        W96080  39.522   7.797  14.969
31873W        W96081  35.571  19.585   1.411
31874W        W96082   3.232  13.825   2.877
31875W        W96083   5.382   2.417  14.284
31876W        W96084  41.425  10.203  13.407
31877W        W96085  21.604  10.865  12.515
31878W        W96086   9.793  32.932   4.149
31879W        W96087   4.868  27.000  14.818
31880W        W96088   1.817  34.486   1.741
31881W        W96089  17.576  16.199   1.262
31882W        W96090  32.915  38.351  14.385
31883W        W96091  29.471   3.267   5.258
31884W        W96092  21.060  16.101   1.831
31885W        W96093  32.578   7.279   3.267
31886W        W96094  26.608  19.680  14.506
31887W        W96095  25.143  28.486   1.927
31888W        W96096  34.081  10.692  11.050
31889W        W96097   2.465  32.507  11.431
31890W        W96098  24.179  32.430   2.749
31891W        W96099  42.301  19.571   2.319
31892W        W96100  23.544  11.728  10.967
31893W        W96101  24.644   7.745   3.744
31894W        W96102  26.978   1.429  11.939
31895W        W96103  12.302  10.707   0.348
31896W        W96104  10.676  15.762   4.832
31897W        W96105   3.782  34.393   0.425
31898W        W96106  40.911  29.456   3.351
31899W        W96107  34.480   2.232   4.615
31900W        W96108  37.885  20.675  12.452
31901W        W96109  44.367  40.520  14.375
31902W        W96110  27.504  44.349  14.979
31903W        W96111  37.387  43.300   3.372
31904W        W96112  42.884   5.904   3.323
31905W        W96113  18.207  36.847   5.169
31906W        W96114  13.835  13.700   3.317
31907W        W96115  38.874   6.680   4.780
31908W        W96116  44.911  20.758   2.417
31909W        W96117   6.761   2.395   0.422
31910W        W96118  26.158  10.367   0.935
31911W        W96119  33.008   1.277   3.823
31912W        W96120  27.564  36.885  12.547
31913W        W96121   5.284  12.811   4.130
31914W        W96122  30.163  32.527   2.718
31915W        W96123  39.539   2.415  12.543
31916W        W96124  37.890  12.322  12.887
31917W        W96125  40.901   5.261   0.897
31918W        W96126  42.507   4.268   1.806
31919W        W96127  10.681  17.157   4.801
31920W        W96128   7.802  40.938  11.424
31921W        W96129  32.604  10.725   4.785
31922W        W96130  24.153  33.891   3.652
31923W        W96131  23.028  27.060   4.654
31924W        W96132  19.250   4.700   1.277
31925W        W96133   0.494  37.560   2.388
31926W        W96134  15.594  15.594  12.861
31927W        W96135  30.574  40.319   1.277
31928W        W96136  18.154   6.338   3.270
31929W        W96137  13.771  41.019   0.920
31930W        W96138   0.414  30.048  11.536
31931W        W96139   4.844  34.035   0.401
31932W        W96140  28.103  43.365   3.697
31933W        W96141  17.092  24.720  10.598
31934W        W96142   4.924  27.593   4.265
31935W        W96143   4.710  28.630  10.506
31936W        W96144  37.013  25.475  11.404
31937W        W96145   0.803  13.138   1.323
31938W        W96146  14.256  18.731   3.148
31939W        W96147  11.295  22.022  13.339
31940W        W96148  13.265  36.951  12.501
31941W        W96149  40.546  35.856   0.344
31942W        W96150  15.579   1.409  12.358
31943W        W96151  34.562   0.760   3.330
31944W        W96152  25.171  32.406   3.830
31945W        W96153  39.443  27.452   2.379
31946W        W96154   7.369  29.051  11.941
31947W        W96155  25.608  37.396  12.395
31948W        W96156  13.190  24.207  12.975
31949W        W96157  12.254   3.372  14.473
31950W        W96158  33.878  39.524  10.563
31951W        W96159  28.084  41.345  14.332
31952W        W96160  13.109  14.332  14.835
31953W        W96161  34.093  21.213   4.119
31954W        W96162  15.780   5.421   0.361
31955W        W96163  43.338   9.343   0.902
31956W        W96164  17.784  30.156  12.444
31957W        W96165  36.866  11.313  13.534
31958W        W96166  36.982   3.718   2.222
31959W        W96167   9.875  28.135  10.916
31960W        W96168  44.505  36.391  12.528
31961W        W96169  20.030  13.142  12.457
31962W        W96170  18.254  43.397   3.148
31963W        W96171  30.542  31.626  14.291
31964W        W96172  43.896  44.275   4.190
31965W        W96173   4.875  29.023  13.482
31966W        W96174   6.746  22.593   4.134
31967W        W96175   5.331   9.393   3.211
31968W        W96176  15.091  10.639  12.050
31969W        W96177  36.512  33.999   3.342
31970W        W96178   5.813  38.334   3.669
31971W        W96179  32.121  24.159  12.567
31972W        W96180  32.468  28.011   3.315
31973W        W96181  41.885  39.891  10.935
31974W        W96182  11.305  35.528   3.830
31975W        W96183  44.258  23.021  13.332
31976W        W96184  36.852   6.308   3.660
31977W        W96185   8.722  27.617  10.616
31978W        W96186  21.157  36.057   2.317
31979W        W96187  28.671   0.297  13.974
31980W        W96188   4.210  39.335  11.424
31981W        W96189  23.543   6.919   2.872
31982W        W96190  35.987  44.411   0.813
31983W        W96191  14.142  17.743   3.352
31984W        W96192  37.341  34.493   2.737
31985W        W96193  32.072  35.550   3.642
31986W        W96194   1.759  44.803   4.783
31987W        W96195  11.749   5.725   3.350
31988W        W96196   0.274   0.935   4.683
31989W        W96197  37.861  30.553  10.933
31990W        W96198   8.790  40.025   2.197
31991W        W96199  39.963  28.145   0.480
31992W        W96200  28.957  26.196   4.125
31993W        W96201  15.621  14.227   4.722
31994W        W96202  32.008  34.441  10.037
31995W        W96203  26.674   5.697  14.301
31996W        W96204  10.847  22.549   3.763
31997W        W96205   8.269  31.557   0.736
31998W        W96206  10.650  34.882   1.795
31999W        W96207  39.041  27.128   2.255
32000W        W96208  24.174   1.769  11.104
32001W        W96209  10.656  11.349  14.004
32002W        W96210  43.304   8.837  12.573
32003W        W96211   4.718   2.280   4.716
32004W        W96212  31.585   8.762  13.384
32005W        W96213  38.953  10.729  14.377
32006W        W96214  37.424   9.214  14.959
32007W        W96215  28.956  11.683   3.324
32008W        W96216  31.965  20.188   5.212
32009W        W96217  18.564  24.070   4.303
32010W        W96218  22.042  37.955  12.496
32011W        W96219  11.795  39.455   1.782
32012W        W96220   7.785  36.066  14.500
32013W        W96221  32.451  43.343  10.564
32014W        W96222  19.200  40.379   0.782
32015W        W96223  24.126  26.167   3.335
32016W        W96224   0.945  11.843   1.866
32017W        W96225  19.677  37.449  14.934
32018W        W96226   4.760  38.563  11.525
32019W        W96227  22.128  31.027  14.988
32020W        W96228  43.814  35.056   4.757
32021W        W96229  36.059   5.413  12.859
32022W        W96230  44.445  14.267   5.164
32023W        W96231  32.616  22.747   2.716
32024W        W96232  26.642   2.916  14.806
32025W        W96233  10.152  17.280   2.294
32026W        W96234  35.916   0.267  14.884
32027W        W96235  12.128   1.951  14.476
32028W        W96236   3.301  10.309   2.355
32029W        W96237  11.186   2.422  12.379
32030W        W96238  36.462   8.236  12.477
32031W        W96239   7.909   3.311  11.856
32032W        W96240  26.206   2.753  12.087
32033W        W96241  38.450   3.281   1.754
32034W        W96242   0.838   2.823  14.479
32035W        W96243  22.181  40.870   0.371
32036W        W96244  13.756   3.837   0.386
32037W        W96245  30.015  42.436  11.108
32038W        W96246  39.851   8.874   2.276
32039W        W96247  18.705   1.265   3.293
32040W        W96248  39.475  41.527   2.213
32041W        W96249  15.227  19.127   0.812
32042W        W96250  32.074  26.065  11.905
32043W        W96251  37.899  12.646  12.906
32044W        W96252  23.612  24.085  11.906
32045W        W96253  18.224  18.733  14.308
32046W        W96254  18.251  10.303  13.049
32047W        W96255  30.417  31.106  10.471
32048W        W96256  44.448   5.786   2.713
32049W        W96257  27.946  22.187   2.674
32050W        W96258   8.207  35.542  13.062
32051W        W96259  13.214  15.308   3.852
32052W        W96260  38.478   1.351  13.370
32053W        W96261  42.819  20.569  13.388
32054W        W96262  22.654  12.336   1.793
32055W        W96263  23.045  29.640  11.072
32056W        W96264   0.965  38.368  11.087
32057W        W96265   9.240  10.276  13.454
32058W        W96266  13.703  19.269   3.203
32059W        W96267  40.384   0.343   1.813
32060W        W96268  43.506  37.001  10.904
32061W        W96269  40.873  11.196   4.253
32062W        W96270  43.393  29.611   1.901
32063W        W96271  11.185  11.653  11.876
32064W        W96272   7.172  24.494   4.284
32065W        W96273  22.236  10.815  11.557
32066W        W96274  38.839   9.323   1.794
32067W        W96275   6.394  17.601   0.315
32068W        W96276  34.037  23.215   2.270
32069W        W96277  38.354  44.359   3.767
32070W        W96278  23.033  38.881   3.246
32071W        W96279  31.499  35.055  11.855
32072W        W96280  15.652  10.654  13.012
32073W        W96281   2.838  16.113   0.334
32074W        W96282  23.735  24.633   2.393
32075W        W96283  35.871   4.272  12.341
32076W        W96284  28.977  28.936  11.115
32077W        W96285  16.715  12.672   2.240
32078W        W96286   7.819  44.350   5.084
32079W        W96287  37.349  40.396  12.456
32080W        W96288  38.528  40.520  14.502
32081W        W96289  13.655  18.116   4.180
32082W        W96290   7.198  11.694  11.017
32083W        W96291  42.449  34.062   4.659
32084W        W96292  44.835  17.620   3.759
32085W        W96293  43.448  25.712   1.858
32086W        W96294   8.706  31.927  10.482
32087W        W96295  22.193  39.845   0.407
32088W        W96296  19.039  28.046   4.767
32089W        W96297  24.083  13.766  12.905
32090W        W96298  26.126  25.508  11.961
32091W        W96299   0.871  18.155   1.929
32092W        W96300  40.016  33.898   4.615
32093W        W96301   8.372  28.097  13.853
32094W        W96302  37.983  44.437  12.433
32095W        W96303   7.232  36.542   2.235
32096W        W96304  32.474  13.682  14.342
32097W        W96305   8.833  30.119   3.709
32098W        W96306  28.495   7.880  10.931
32099W        W96307  28.986  25.118  13.505
32100W        W96308  10.808  26.647  12.434
32101W        W96309  11.368  13.684  14.317
32102W        W96310   4.336  16.605   3.784
32103W        W96311   5.699   2.833   1.406
32104W        W96312   7.818   9.663  13.890
32105W        W96313  32.558  39.865  11.871
32106W        W96314   0.839   4.244  10.046
32107W        W96315  29.516  31.982  10.564
32108W        W96316  12.851  42.939  12.484
32109W        W96317   5.207  36.920   1.321
32110W        W96318  32.058  27.455   4.772
32111W        W96319  13.758   1.781  14.370
32112W        W96320  22.679  20.742  11.087
32113W        W96321  15.814   2.783   2.367
32114W        W96322  24.175  44.811   3.174
32115W        W96323  32.406  28.491   0.746
32116W        W96324  23.573  11.164  14.895
32117W        W96325  16.615  44.804   0.469
32118W        W96326  27.570  33.523  13.417
32119W        W96327  37.480  16.674   2.323
32120W        W96328  27.635  42.947  13.499
32121W        W96329  24.035   0.299  11.075
32122W        W96330  12.623  27.616   2.677
32123W        W96331  19.104   6.827  12.857
32124W        W96332   2.882  19.158  13.010
32125W        W96333  13.795  43.858  12.435
32126W        W96334  40.866  12.727  11.025
32127W        W96335  43.403   1.831   2.344
32128W        W96336  11.167  34.599   1.327
32129W        W96337  32.966  17.270   4.345
32130W        W96338  14.806  23.591  10.962
32131W        W96339  18.663   4.908  11.080
32132W        W96340  16.157   2.241   1.865
32133W        W96341  28.114  27.491  12.826
32134W        W96342  12.338  36.865  14.003
32135W        W96343  36.443  24.013   2.374
32136W        W96344  15.089   9.694   1.768
32137W        W96345  32.910   0.257  14.949
32138W        W96346  35.505  12.206   3.794
32139W        W96347  44.887  12.774   0.392
32140W        W96348  25.964  34.373  10.429
32141W        W96349  25.068  10.233   1.777
32142W        W96350   4.235  33.902   4.189
32143W        W96351  11.268  30.608   1.252
32144W        W96352  40.507  22.032  13.034
32145W        W96353  32.040  42.997  10.958
32146W        W96354  31.132  10.250   0.283
32147W        W96355  42.776  23.728  11.903
32148W        W96356  32.455  22.710  10.450
32149W        W96357  16.308  30.072  10.493
32150W        W96358  40.875  29.455   2.340
32151W        W96359  26.607  33.927  11.113
32152W        W96360  43.771  28.442   4.603
32153W        W96361   1.318  30.507   1.904
32154W        W96362   8.338  14.214  10.042
32155W        W96363  18.248  41.927  10.909
32156W        W96364  42.458  27.998  14.793
32157W        W96365   5.883  31.987   3.752
32158W        W96366  24.209   0.830   3.692
32159W        W96367  31.642  11.730   0.385
32160W        W96368  38.571  38.976   4.764
32161W        W96369   0.946   1.265  14.880
32162W        W96370   6.345  32.630   2.855
32163W        W96371  27.049  28.133   2.900
32164W        W96372  32.011  37.081   0.349
32165W        W96373  33.395  23.095   4.752
32166W        W96374  32.985  33.974  12.021
32167W        W96375  31.128   4.771   2.896
32168W        W96376  38.529  44.850  11.857
32169W        W96377  34.419  36.467   2.390
32170W        W96378  10.224  27.515  13.391
32171W        W96379  18.719  32.569   4.178
32172W        W96380   8.178   5.815  11.912
32173W        W96381  39.911  19.109   2.783
32174W        W96382  17.573  37.865   2.748
32175W        W96383  26.020  39.993  12.862
32176W        W96384  22.210   7.851   2.808
32177W        W96385  17.746  19.271   1.883
32178W        W96386  40.419  38.545  13.379
32179W        W96387  41.833   9.380   0.966
32180W        W96388  18.135  40.910   5.098
32181W        W96389  31.514  11.817   0.741
32182W        W96390  28.952  38.351   4.781
32183W        W96391  25.691   4.406   1.272
32184W        W96392   3.387  27.627   0.474
32185W        W96393   7.759  29.482  13.338
32186W        W96394   4.382   2.729  13.519
32187W        W96395   2.421  29.132   2.334
32188W        W96396  17.779  28.566   1.236
32189W        W96397  26.978  35.026   1.806
32190W        W96398  13.797  17.144  12.378
32191W        W96399  39.545  12.642   1.306
32192W        W96400  44.791  40.485  12.937
32193W        W96401   8.291  31.486   2.691
32194W        W96402  18.696  24.222   5.089
32195W        W96403  15.160  21.178   0.336
32196W        W96404   2.388  20.579   0.817
32197W        W96405  39.381  15.291  12.910
32198W        W96406  33.505   5.879   0.877
32199W        W96407   2.431   0.306  13.959
32200W        W96408  42.902  12.153   0.412
32201W        W96409  24.486  44.442  14.836
32202W        W96410  40.041  33.991  14.965
32203W        W96411  13.125  21.159   3.674
32204W        W96412  11.196   7.382  14.829
32205W        W96413  31.916   4.228  12.066
32206W        W96414  30.580  14.811  11.883
32207W        W96415  32.618  34.912   2.835
32208W        W96416   9.887  42.527   1.703
32209W        W96417  11.137  28.509   3.334
32210W        W96418  14.286   8.765  13.976
32211W        W96419  16.807  40.356   4.179
32212W        W96420   4.238  37.882   0.420
32213W        W96421  32.960  42.491   4.231
32214W        W96422  10.730  26.683   3.301
32215W        W96423  21.112  43.890   1.247
32216W        W96424  44.401  15.172   0.953
32217W        W96425  33.478  29.173  13.951
32218W        W96426   0.962  22.581  13.931
32219W        W96427  32.041  20.606  14.450
32220W        W96428  24.067   5.320   4.247
32221W        W96429  44.980   8.282   0.857
32222W        W96430   2.302  25.193  10.888
32223W        W96431  22.563   5.890  11.538
32224W        W96432   3.835  30.908  12.408
32225W        W96433  37.546  41.996  10.562
32226W        W96434  20.743  30.977  11.560
32227W        W96435  25.143  36.577   2.858
32228W        W96436  35.528  24.222   2.718
32229W        W96437   8.743   8.323  12.015
32230W        W96438  33.559  15.603  11.077
32231W        W96439  36.369  33.066  14.306
32232W        W96440  21.670  32.910  12.866
32233W        W96441  22.596  43.366  11.401
32234W        W96442  30.484  32.564   2.879
32235W        W96443   3.257  39.017   3.833
32236W        W96444  17.566  31.406   1.814
32237W        W96445   8.334  25.969  11.864
32238W        W96446  33.544  19.177  11.995
32239W        W96447  43.966  18.622   4.639
32240W        W96448  29.024  39.845  13.976
32241W        W96449  25.677  12.631  10.578
32242W        W96450  23.614   3.435   0.741
32243W        W96451   7.238  42.860  11.579
32244W        W96452  31.078  11.213   1.866
32245W        W96453  25.668  39.379  11.469
32246W        W96454   1.263   8.310  10.981
32247W        W96455  17.678   9.812   2.827
32248W        W96456  24.637  34.884  13.338
32249W        W96457  30.066  25.010   5.123
32250W        W96458  32.885  37.083   3.216
32251W        W96459  34.517  18.106   3.831
32252W        W96460  31.963  10.729  11.481
32253W        W96461   9.376  14.726   2.280
32254W        W96462   8.665  38.498  11.994
32255W        W96463  27.142  23.216   3.161
32256W        W96464  31.478  18.101   3.674
32257W        W96465  21.538   8.383   4.784
32258W        W96466  44.841  39.916   3.306
32259W        W96467  19.569  40.311   0.868
32260W        W96468  36.422  25.633   3.700
32261W        W96469   6.340  23.104   4.181
32262W        W96470   9.838  10.767  14.017
32263W        W96471  40.394  17.241   0.837
32264W        W96472  33.106  35.971  12.573
32265W        W96473  11.681  28.025   2.374
32266W        W96474  40.971  29.525  10.590
32267W        W96475  36.998  19.252  14.314
32268W        W96476   7.908   5.210  13.985
32269W        W96477  27.636   4.352  11.602
32270W        W96478  43.464  30.535   3.195
32271W        W96479  16.164  27.691  11.937
32272W        W96480  13.772  37.033  11.382
32273W        W96481  34.987  29.048  11.433
32274W        W96482  20.600   9.387   0.317
32275W        W96483   1.252  15.227  11.866
32276W        W96484  11.787  44.956   3.692
32277W        W96485  34.017  38.853   4.133
32278W        W96486  19.137  24.068   4.831
32279W        W96487  25.572  16.588  11.885
32280W        W96488  19.278  44.450   0.313
32281W        W96489  31.636  24.218  10.454
32282W        W96490  25.524  31.021  13.342
32283W        W96491  30.160  39.065  11.953
32284W        W96492  40.917  19.534  11.120
32285W        W96493  18.713  41.849   3.283
32286W        W96494   3.314   1.483   1.741
32287W        W96495  33.063  43.820  13.915
32288W        W96496  34.992  44.859   2.307
32289W        W96497   2.282  36.364  14.760
32290W        W96498  36.584  32.450  11.374
32291W        W96499   4.290  37.545   1.408
32292W        W96500   5.807  10.155  11.435
32293W        W96501   7.242  25.083   4.607
32294W        W96502  25.591  23.231  13.442
32295W        W96503  11.817  25.089   3.252
32296W        W96504  17.122  13.209  11.534
32297W        W96505  35.388   7.756  13.346
32298W        W96506  27.018  13.828   4.610
32299W        W96507  18.775  35.874   5.112
32300W        W96508  22.573  35.409   0.479
32301W        W96509  34.526   9.305  12.552
32302W        W96510  42.511   2.343   3.630
32303W        W96511   8.659  44.804  14.856
32304W        W96512  25.063   7.671  13.333
32305W        W96513  38.439   5.751  10.406
32306W        W96514  23.535  10.803  14.912
32307W        W96515  34.870   6.234   1.408
32308W        W96516  42.476  28.109  12.504
32309W        W96517   9.221  18.196  14.954
32310W        W96518  11.645  34.085   0.909
32311W        W96519  11.142  29.963  10.480
32312W        W96520  17.117  43.008  13.863
32313W        W96521  22.156  20.137   0.256
32314W        W96522  14.590  29.960   0.459
32315W        W96523   4.430  17.149   0.483
32316W        W96524   6.858  28.453  14.942
32317W        W96525  34.554   0.819  12.886
32318W        W96526   5.813  42.472   0.898
32319W        W96527  23.072   1.301  14.979
32320W        W96528  20.067  27.950  14.967
32321W        W96529  17.124  22.576  10.036
32322W        W96530   3.444   7.884   0.930
32323W        W96531  42.306   4.829  12.445
32324W        W96532   8.829  33.384  13.391
32325W        W96533  32.127  26.571   0.315
32326W        W96534   9.888  34.047  13.992
32327W        W96535   7.336  28.501   4.817
32328W        W96536  23.074  27.481   2.336
32329W        W96537  20.613   3.887  14.287
32330W        W96538  27.654  30.967  13.819
32331W        W96539  36.880  21.573   4.233
32332W        W96540  25.657  42.825  10.479
32333W        W96541  22.736  11.137   1.220
32334W        W96542  33.123  20.155   3.866
32335W        W96543  19.758  37.884   4.150
32336W        W96544  24.501  25.109   3.781
32337W        W96545   8.793   1.822   4.663
32338W        W96546  27.118  28.636  10.942
32339W        W96547  40.412  12.817  14.392
32340W        W96548  18.654  27.192  13.524
32341W        W96549   9.711  38.976   4.613
32342W        W96550  43.904  17.749   1.863
32343W        W96551  22.516  41.413  10.013
32344W        W96552  44.363   7.806   3.750
32345W        W96553  39.045  29.607  14.289
32346W        W96554  27.631   9.715   0.964
32347W        W96555   1.441   2.776   0.333
32348W        W96556  33.597  41.354   4.791
32349W        W96557  11.271  22.545  13.012
32350W        W96558  10.634  41.471  14.512
32351W        W96559  36.999   0.875   4.200
32352W        W96560   7.866  11.344   0.428
32353W        W96561  20.110   9.364   3.192
32354W        W96562  26.202   6.258  11.513
32355W        W96563  15.265  22.246   1.876
32356W        W96564  38.965  17.259   3.158
32357W        W96565   9.694  32.459  12.952
32358W        W96566   3.710  18.289   2.290
32359W        W96567  14.630  14.330   3.265
32360W        W96568  11.314   0.802  11.528
32361W        W96569  42.000  21.109   4.788
32362W        W96570  19.706  17.606   0.315
32363W        W96571   0.802  21.102   1.407
32364W        W96572  44.440  37.564   4.203
32365W        W96573  15.656  22.685  13.350
32366W        W96574  15.618   8.323   3.294
32367W        W96575  40.378  32.494  14.330
32368W        W96576  39.493   7.365   3.682
32369W        W96577  26.072  12.295   0.362
32370W        W96578   2.341  43.513  14.017
32371W        W96579   7.730   1.961   2.676
32372W        W96580  32.030   1.256  12.931
32373W        W96581  39.848   8.405   3.370
32374W        W96582  19.229  11.795  14.024
32375W        W96583  11.185   9.685  14.368
32376W        W96584  43.407   0.248   0.745
32377W        W96585  35.423   0.393   4.283
32378W        W96586  37.514   3.878   1.342
32379W        W96587  28.436   8.387   4.617
32380W        W96588  31.610  43.442  12.390
32381W        W96589  43.918  42.281  13.311
32382W        W96590  10.732  23.598   3.798
32383W        W96591  22.152  41.019   1.361
32384W        W96592   0.804  32.994  14.843
32385W        W96593  16.130  38.876   1.278
32386W        W96594   6.409  38.939  13.479
32387W        W96595  33.495   9.845  11.021
32388W        W96596  33.985  37.570  12.446
32389W        W96597  12.736  39.467   3.745
32390W        W96598  36.432  12.704  14.307
32391W        W96599   3.300  18.670  10.958
32392W        W96600  30.944  39.973  12.927
32393W        W96601  13.121   8.260  13.411
32394W        W96602   4.929  35.935   0.250
32395W        W96603   2.900  31.439  11.946
32396W        W96604  38.014  25.173   5.301
32397W        W96605  28.081  28.603  10.938
32398W        W96606  36.532   1.821  14.915
32399W        W96607  29.176  17.283   3.732
32400W        W96608  18.687  26.538   0.923
32401W        W96609   3.280  14.656  13.920
32402W        W96610   8.279  43.374  12.925
32403W        W96611   0.449  24.029  12.545
32404W        W96612  39.974  22.224   3.781
32405W        W96613  29.025  11.822  12.495
32406W        W96614  36.365  11.718  11.562
32407W        W96615  30.506  44.276   2.240
32408W        W96616  28.463  17.788  14.767
32409W        W96617  29.149  32.009  11.910
32410W        W96618  27.010  17.766   1.760
32411W        W96619   0.774  23.112   3.688
32412W        W96620  25.963  32.100  12.463
32413W        W96621  18.739  33.553  11.890
32414W        W96622  42.833  33.099   0.371
32415W        W96623  44.355  10.193  13.804
32416W        W96624   8.238  23.700   1.308
32417W        W96625  15.595   2.914   3.323
32418W        W96626  24.069  40.924  12.465
32419W        W96627  31.931  35.407  13.384
32420W        W96628   0.923  42.019  14.310
32421W        W96629  27.454  21.244   1.724
32422W        W96630  28.613  10.244  12.444
32423W        W96631   5.829  27.170  10.928
32424W        W96632  40.363  20.623   1.348
32425W        W96633  33.011  27.081   0.291
32426W        W96634  44.496  35.442  14.449
32427W        W96635  34.087  15.599   3.820
32428W        W96636  40.838  42.970   1.870
32429W        W96637   9.392   6.205  12.441
32430W        W96638  13.198  37.469   1.236
32431W        W96639  32.483  41.510  14.788
32432W        W96640   0.284  23.171   1.372
32433W        W96641  24.493  41.406  12.084
32434W        W96642  33.884  31.912  11.993
32435W        W96643   8.296  35.476  14.792
32436W        W96644  15.742  21.081   4.223
32437W        W96645  32.524  21.217  11.509
32438W        W96646   4.403   4.943  13.876
32439W        W96647  26.977  39.314  13.472
32440W        W96648  30.114  14.687   2.339
32441W        W96649  36.843  41.031   4.214
32442W        W96650  34.096  27.170   4.838
32443W        W96651  11.263  20.633   0.408
32444W        W96652  26.623  37.576   4.659
32445W        W96653   4.859  31.507   0.886
32446W        W96654  22.096  33.019  11.121
32447W        W96655  33.901  22.216  10.535
32448W        W96656  31.567  11.168   2.419
32449W        W96657  20.688   9.394   0.872
32450W        W96658  25.048  14.222  14.016
32451W        W96659  18.696  19.663   4.708
32452W        W96660  43.965  21.232  12.992
32453W        W96661  41.949   8.714   0.954
32454W        W96662  13.270   0.938  12.996
32455W        W96663  27.051   2.834  11.588
32456W        W96664  26.066  11.820   4.116
32457W        W96665  16.175  14.802  13.042
32458W        W96666  10.232  30.035  14.432
32459W        W96667   5.239  14.624  12.079
32460W        W96668  25.016  33.618  14.005
32461W        W96669  14.701  30.574  11.866
32462W        W96670  40.321  29.052  13.372
32463W        W96671  27.577   8.312   2.353
32464W        W96672  17.802  17.115   2.811
32465W        W96673  20.078   4.206   0.760
32466W        W96674  15.086  25.632  11.114
32467W        W96675   5.402  42.359  14.421
32468W        W96676  14.246  38.973   4.691
32469W        W96677  11.167  34.035   2.300
32470W        W96678  11.164  12.627   1.871
32471W        W96679  15.587  14.727   4.612
32472W        W96680   9.358  19.543   1.813
32473W        W96681   5.392   4.228  12.916
32474W        W96682   7.402  37.853   0.894
32475W        W96683  17.096   7.890  13.903
32476W        W96684  34.943   5.391  11.909
32477W        W96685  37.834  20.632  11.092
32478W        W96686  10.272   5.900  12.826
32479W        W96687   2.372  12.657   5.267
32480W        W96688  17.182   8.224   1.425
32481W        W96689  24.501  20.694  12.049
32482W        W96690  41.986  19.158   0.387
32483W        W96691  29.114  22.647   4.309
32484W        W96692  10.865   9.731  13.001
32485W        W96693  20.679  44.799  14.956
32486W        W96694  24.105  24.069   4.179
32487W        W96695  40.019  29.532   4.663
32488W        W96696  36.028  15.309   1.288
32489W        W96697  29.643   2.941  10.435
32490W        W96698  22.031  10.807   2.709
32491W        W96699  35.928  35.062   5.288
32492W        W96700  42.293  12.736   2.683
32493W        W96701   6.388   3.427  12.858
32494W        W96702  18.747  41.315  11.520
32495W        W96703  24.178  19.284  11.439
32496W        W96704   0.952  23.707   4.222
32497W        W96705   7.291   2.389  10.597
32498W        W96706  39.548  31.431   3.320
32499W        W96707   1.328  22.650   2.380
32500W        W96708  43.907   2.797   2.221
32501W        W96709  20.653  34.427   1.703
32502W        W96710  22.137  32.564   1.322
32503W        W96711  11.269  33.004   3.287
32504W        W96712   9.187  38.349   3.266
32505W        W96713  29.962   7.290  12.483
32506W        W96714  40.312  33.555   2.687
32507W        W96715  10.823  43.482   2.212
32508W        W96716  23.715  21.028   2.729
32509W        W96717  22.009  43.806  14.289
32510W        W96718  29.924  11.303  13.986
32511W        W96719  17.791  36.916  14.989
32512W        W96720   8.850  43.283   3.665
32513W        W96721  24.085  14.135   1.269
32514W        W96722  13.780  35.480  14.825
32515W        W96723  18.746  34.468   0.887
32516W        W96724   2.844  40.439   2.770
32517W        W96725  36.037  16.129   1.845
32518W        W96726  11.701  23.682  12.087
32519W        W96727  33.605  18.723  14.909
32520W        W96728   9.746  42.784  10.994
32521W        W96729  37.457  37.941  10.464
32522W        W96730  17.593   9.268  10.463
32523W        W96731  37.985  21.643  11.048
32524W        W96732  41.002   7.785   2.237
32525W        W96733  25.654   9.760   2.667
32526W        W96734  20.524   6.744   1.755
32527W        W96735  44.920  36.907   1.926
32528W        W96736  24.103  32.965   1.440
32529W        W96737  43.007  35.090   3.266
32530W        W96738  40.372  44.381  14.803
32531W        W96739  28.507   3.415   4.704
32532W        W96740  23.018  21.683   1.852
32533W        W96741   0.287  14.292   4.664
32534W        W96742  43.905  30.947   0.360
32535W        W96743  38.945   0.265  13.045
32536W        W96744  14.099  29.451   4.345
32537W        W96745  16.109  12.327  11.965
32538W        W96746  31.090  17.224  14.391
32539W        W96747  25.159  36.903  12.526
32540W        W96748   7.736   1.278  11.479
32541W        W96749  37.394  13.191  14.938
32542W        W96750  10.374  29.093  12.475
32543W        W96751   1.297  34.465  11.997
32544W        W96752   3.720   1.828   3.370
32545W        W96753  37.378  23.143  12.993
32546W        W96754  31.010  24.627  11.067
32547W        W96755  37.028  38.427  12.526
32548W        W96756  17.624  18.153  12.481
32549W        W96757  26.676  13.760  14.390
32550W        W96758   1.458  34.007   2.878
32551W        W96759   0.373  30.031   4.184
32552W        W96760  18.686  40.367   1.432
32553W        W96761  32.917  16.299   3.751
32554W        W96762   4.838  24.034  13.993
32555W        W96763  37.461  31.119   4.633
32556W        W96764  21.110   4.392   0.480
32557W        W96765  37.380  30.031   1.239
32558W        W96766  24.218  32.634   1.815
32559W        W96767  39.558  26.179  13.941
32560W        W96768  33.983  15.674   2.788
32561W        W96769  30.992  21.679  11.105
32562W        W96770   7.186  40.850   0.397
32563W        W96771  18.135  36.859   4.289
32564W        W96772  26.535   2.270   0.320
32565W        W96773  27.456  16.750   2.378
32566W        W96774  17.690  11.787  11.378
32567W        W96775  15.248  26.657   0.932
32568W        W96776   8.730  38.546  13.434
32569W        W96777  40.465  34.077  11.479
32570W        W96778  13.160  23.140   3.697
32571W        W96779   6.698  41.801   2.234
32572W        W96780  40.484   5.886   2.813
32573W        W96781  23.556   8.665   4.655
32574W        W96782  33.081  31.907  10.597
32575W        W96783  20.588   8.238   0.899
32576W        W96784  26.480   5.779  14.780
32577W        W96785   4.753  43.377   0.959
32578W        W96786  23.582  17.671   2.710
32579W        W96787  20.685   1.844   1.408
32580W        W96788  14.626   3.336  11.429
32581W        W96789  36.931  41.324   2.672
32582W        W96790  26.988  32.012  11.966
32583W        W96791  41.487  32.593   4.191
32584W        W96792   1.362  43.883   0.445
32585W        W96793  27.084  24.146   3.337
32586W        W96794   9.839  21.055   4.599
32587W        W96795  11.753  43.392  12.351
32588W        W96796  13.344  25.049  11.556
32589W        W96797  19.734   4.906   9.953
32590W        W96798  13.323   7.403  14.410
32591W        W96799  43.928  42.288  10.994
32592W        W96800   8.240  37.905   2.858
32593W        W96801  17.257   7.672   1.842
32594W        W96802  24.148  10.692  13.939
32595W        W96803  21.536  19.133  10.546
32596W        W96804   8.222   8.809   2.183
32597W        W96805  33.923  34.015   0.272
32598W        W96806   7.666  36.922   3.190
32599W        W96807  39.992  40.493  10.582
32600W        W96808  42.832   1.863  14.913
32601W        W96809   3.768  24.150   1.778
32602W        W96810  39.977  41.027  14.813
32603W        W96811  33.625  34.944  10.032
32604W        W96812  40.389  18.709   2.731
32605W        W96813   8.179  44.825   4.834
32606W        W96814  19.059  44.753  12.469
32607W        W96815  24.521  29.008  10.590
32608W        W96816   4.771   0.265   3.148
32609W        W96817  12.657   4.820   4.118
32610W        W96818  27.194   7.403  13.968
32611W        W96819   4.429   6.318   4.225
32612W        W96820  25.184  24.583   0.470
32613W        W96821  41.453   7.781   0.786
32614W        W96822  10.655   1.822   3.291
32615W        W96823  37.046  14.736   2.339
32616W        W96824   7.850  18.784   4.247
32617W        W96825  13.816  26.623   0.955
32618W        W96826  20.189  25.102   1.891
32619W        W96827  31.142  41.848   2.743
32620W        W96828   6.205  27.657   1.299
32621W        W96829  24.230   5.376  10.438
32622W        W96830   6.333  33.430  13.525
32623W        W96831  17.614   8.665  12.423
32624W        W96832  12.828   0.951   4.631
32625W        W96833  43.770  31.102   0.742
32626W        W96834   3.715  29.035   0.280
32627W        W96835  32.443  13.278  13.362
32628W        W96836  25.672  33.088   3.379
32629W        W96837  41.456  20.150  12.348
32630W        W96838  44.950  26.682   0.759
32631W        W96839  18.096   7.668  12.947
32632W        W96840  23.666  24.231  12.524
32633W        W96841  41.937  17.190   0.732
32634W        W96842  40.823  22.722  11.499
32635W        W96843   4.807   2.380   4.311
32636W        W96844  32.420  19.610   2.228
32637W        W96845   2.445   4.327  14.868
32638W        W96846  32.393   6.369   0.733
32639W        W96847  11.785  30.520  11.480
32640W        W96848  20.145  20.081  13.891
32641W        W96849  17.786  37.518   1.814
32642W        W96850  36.516  23.700  11.475
32643W        W96851  14.772   7.323  12.367
32644W        W96852  39.954  41.899  10.525
32645W        W96853  12.199  26.501   1.783
32646W        W96854  36.467  27.514   3.166
32647W        W96855  40.846  29.164   0.826
32648W        W96856   5.793  17.710  11.020
32649W        W96857  17.201  17.156   1.834
32650W        W96858  19.764  39.930  14.442
32651W        W96859  18.678   7.393   3.811
32652W        W96860  10.140  32.948   4.807
32653W        W96861  29.528  29.624   4.166
32654W        W96862  14.185  27.635   3.274
32655W        W96863   7.714  12.138  12.084
32656W        W96864   4.296  29.427   3.726
32657W        W96865   2.286  10.161   2.180
32658W        W96866  22.122   9.197  10.110
32659W        W96867  35.908  33.512  12.853
32660W        W96868  10.330  19.543  13.526
32661W        W96869   4.795  19.633   9.951
32662W        W96870  14.621  29.475   1.416
32663W        W96871  41.924   5.207   3.365
32664W        W96872  20.179  38.824  10.498
32665W        W96873  23.123  43.790   2.303
32666W        W96874  43.477  37.461  13.832
32667W        W96875  25.596  39.812  14.390
32668W        W96876  33.104  41.422   0.341
32669W        W96877  44.424  41.417   3.254
32670W        W96878  25.202  10.218  12.053
32671W        W96879   5.891  19.100   2.835
32672W        W96880  28.468  38.565   2.212
32673W        W96881   5.749  23.509   0.280
32674W        W96882  26.200  32.466   0.769
32675W        W96883  41.915  15.699   3.196
32676W        W96884  35.103   1.961  12.038
32677W        W96885  35.905  14.815  10.587
32678W        W96886  35.010  26.182  12.071
32679W        W96887  28.029  28.943   4.136
32680W        W96888  24.051   0.249   3.242
32681W        W96889  13.153  27.194  12.441
32682W        W96890  20.065  44.809  13.934
32683W        W96891  43.474   1.328  13.864
32684W        W96892  18.190  43.339  10.525
32685W        W96893  28.083  42.949  12.450
32686W        W96894   3.316  27.101   5.154
32687W        W96895   3.881  35.440   3.688
32688W        W96896  15.651  24.152  13.523
32689W        W96897  18.053  25.201  14.471
32690W        W96898  31.912  27.020   2.873
32691W        W96899  14.338  12.803   3.232
32692W        W96900  24.040  19.608   3.243
32693W        W96901  25.494  42.290   2.717
32694W        W96902   4.932   7.865   2.286
32695W        W96903  36.846  33.523  11.947
32696W        W96904  29.575  43.907   1.440
32697W        W96905  24.107  10.752   3.263
32698W        W96906  12.645  15.120   2.362
32699W        W96907  32.944  41.941   2.689
32700W        W96908  29.952  23.236  14.968
32701W        W96909  23.599   8.664  14.495
32702W        W96910  44.390  36.037  14.883
32703W        W96911  28.548  11.831   4.741
32704W        W96912   0.963   7.272  13.524
32705W        W96913  36.881  26.564   3.698
32706W        W96914  25.066  26.491   2.898
32707W        W96915  37.571  36.920   2.250
32708W        W96916  26.618  35.454  11.100
32709W        W96917  13.120  17.585   3.806
32710W        W96918  43.016  26.695  12.421
32711W        W96919  13.240  22.193  13.983
32712W        W96920  19.686   8.806  14.923
32713W        W96921  35.037  23.675   4.705
32714W        W96922  31.536  25.003   4.599
32715W        W96923  29.950  27.139   3.782
32716W        W96924   5.817  12.140  10.478
32717W        W96925   8.851  24.045   4.710
32718W        W96926  36.929  22.550  11.003
32719W        W96927  11.276  19.659  12.354
32720W        W96928   6.278  30.453  12.871
32721W        W96929  22.107  41.348   1.333
32722W        W96930   6.894  11.283   2.282
32723W        W96931   6.212   6.285  14.967
32724W        W96932  27.446  11.761   1.720
32725W        W96933  17.649  44.409   4.207
32726W        W96934   0.956  36.485  11.071
32727W        W96935  35.962  41.358   2.416
32728W        W96936  16.240   8.240  10.610
32729W        W96937  11.699  19.696   4.278
32730W        W96938  15.125  27.068   3.746
32731W        W96939  18.180  19.167  13.435
32732W        W96940   1.354  16.294  13.383
32733W        W96941  29.448  29.984  11.599
32734W        W96942  27.020  14.225   1.429
32735W        W96943  16.683  24.714  14.824
32736W        W96944  24.553  18.669   0.384
32737W        W96945  37.907  36.356  13.455
32738W        W96946   9.737   7.836   0.484
32739W        W96947  14.125  29.124  11.910
32740W        W96948  32.056   8.737  12.376
32741W        W96949  27.452  14.789   4.627
32742W        W96950   6.293  11.332  12.932
32743W        W96951  36.464  36.931   0.400
32744W        W96952  32.451  30.579   4.142
32745W        W96953  34.391  23.071   4.835
32746W        W96954   6.917  42.497   3.216
32747W        W96955  43.769  31.622   1.910
32748W        W96956  41.504  18.288  14.917
32749W        W96957  19.763  43.270   2.701
32750W        W96958  15.234  25.556  12.029
32751W        W96959  12.848  23.025  10.626
32752W        W96960  26.208  33.397  12.503
32753W        W96961  27.510  36.029  14.438
32754W        W96962  36.976   4.802  13.432
32755W        W96963  44.324   3.360  12.361
32756W        W96964  32.398  26.476   2.808
32757W        W96965  18.259   9.202   5.272
32758W        W96966  31.612   9.306  13.349
32759W        W96967  39.870  21.583   4.319
32760W        W96968  26.670  27.139   5.274
32761W        W96969   5.755  22.186   3.340
32762W        W96970  11.625  22.148  12.047
32763W        W96971  17.195  44.760  10.935
32764W        W96972  19.270  19.562   2.844
32765W        W96973  34.101  40.407   3.380
32766W        W96974  39.011  29.080  12.025
32767W        W96975  39.529  44.794   2.878
32768W        W96976   4.449  32.630  12.370
32769W        W96977  29.582  14.775   4.196
32770W        W96978  30.992  30.956   4.235
32771W        W96979  24.230  43.461  13.839
32772W        W96980   2.364  26.519   0.806
32773W        W96981  24.075  36.863  14.791
32774W        W96982  32.924  15.606   4.719
32775W        W96983   6.849   6.360  11.412
32776W        W96984  31.997  34.089  14.827
32777W        W96985  42.312  37.023   2.826
32778W        W96986  35.981  26.520   3.232
32779W        W96987  12.615  40.993   1.714
32780W        W96988  19.152  35.455  11.473
32781W        W96989   7.736  26.960   3.214
32782W        W96990  43.437  27.946   3.684
32783W        W96991  22.684  37.493  11.612
32784W        W96992  21.131   1.876  11.032
32785W        W96993  22.119  43.387  10.580
32786W        W96994  11.248  43.004   1.827
32787W        W96995  39.959  32.403   4.341
32788W        W96996  35.581  12.820   1.451
32789W        W96997  41.379  10.877  13.037
32790W        W96998  24.163  20.691   1.232
32791W        W96999  18.167  18.172  12.927
32792W        W97000   6.740  27.141  11.029
32793W        W97001   1.481  43.417   0.763
32794W        W97002   0.837  23.548   3.745
32795W        W97003  41.525  22.153   1.723
32796W        W97004  23.733  17.667   1.933
32797W        W97005  29.599  24.607  10.458
32798W        W97006  30.610  44.780  11.382
32799W        W97007   3.282  37.369   0.295
32800W        W97008  33.585  11.740   3.377
32801W        W97009  39.386  22.521  13.900
32802W        W97010  23.651  16.132  13.892
32803W        W97011  25.046   3.951   4.273
32804W        W97012  21.258  35.037  10.896
32805W        W97013   6.699  21.187   4.170
32806W        W97014  13.833   1.763   2.850
32807W        W97015  39.891  39.402   4.297
32808W        W97016  23.204  38.342  10.580
32809W        W97017  30.565   9.688   4.624
32810W        W97018  38.983  37.411   1.879
32811W        W97019  39.355  40.530   2.839
32812W        W97020  43.986  17.279   2.816
32813W        W97021   6.920  11.205  11.538
32814W        W97022  35.540  23.994  14.476
32815W        W97023  27.989  31.573   3.722
32816W        W97024  37.023  36.445   3.178
32817W        W97025  34.996  10.289   4.305
32818W        W97026  29.641  16.604   4.814
32819W        W97027  34.480   7.275   1.211
32820W        W97028  24.630  12.328  12.943
32821W        W97029  20.131  35.942   3.851
32822W        W97030  35.419  34.608   1.262
32823W        W97031  10.368  13.336  10.005
32824W        W97032  30.631  21.549  14.867
32825W        W97033  17.236   4.784  12.433
32826W        W97034  39.316  41.374   0.384
32827W        W97035  34.088  32.634  11.878
32828W        W97036  27.078  34.048  12.371
32829W        W97037  32.433  30.993   1.746
32830W        W97038  10.823  29.038   0.307
32831W        W97039  37.843  11.284  14.380
32832W        W97040  44.501  15.697  13.428
32833W        W97041  31.057   1.271   2.267
32834W        W97042  16.098   9.281  13.902
32835W        W97043  18.100  22.553  10.887
32836W        W97044  39.853  32.043   3.698
32837W        W97045   8.180  11.774   4.302
32838W        W97046  42.318  32.616   1.328
32839W        W97047  34.440  10.772   0.377
32840W        W97048  20.032   9.297  13.482
32841W        W97049  16.121  35.896  13.454
32842W        W97050  43.419   5.925  13.913
32843W        W97051  17.764  43.360  13.829
32844W        W97052  10.348  25.191  11.588
32845W        W97053  15.217  29.626   3.836
32846W        W97054  37.392   4.853  13.866
32847W        W97055  29.667  39.033  13.393
32848W        W97056   1.415  25.700  14.965
32849W        W97057  21.192  32.436   0.905
32850W        W97058  43.858  25.469   0.409
32851W        W97059   0.941   1.773  13.000
32852W        W97060  18.763  26.955   1.393
32853W        W97061  12.262  16.810  14.416
32854W        W97062  22.601   3.409   0.289
32855W        W97063  15.607  32.929   1.789
32856W        W97064  10.360  11.673  11.981
32857W        W97065   4.906  26.466   2.770
32858W        W97066  39.997  39.893  12.934
32859W        W97067  37.862  25.185   1.419
32860W        W97068   0.779  26.160  12.974
32861W        W97069  40.881  17.147  11.028
32862W        W97070  30.508   4.804  14.430
32863W        W97071  17.107  42.416  11.510
32864W        W97072  25.507   1.948   2.333
32865W        W97073   8.205   9.183   0.754
32866W        W97074   8.791  15.135   0.828
32867W        W97075  15.210   0.343   2.707
32868W        W97076   5.907  25.986  13.925
32869W        W97077   1.292  19.593   2.801
32870W        W97078  36.525  35.859   2.820
32871W        W97079   1.444  43.941  13.500
32872W        W97080  40.799  18.077   1.442
32873W        W97081  42.856   2.937   2.684
32874W        W97082   1.800  24.609  11.025
32875W        W97083  41.975  44.383  14.368
32876W        W97084  10.688   6.699  13.993
32877W        W97085  36.000  19.143   3.307
32878W        W97086  37.043  26.047  11.586
32879W        W97087  22.026   7.769  10.631
32880W        W97088  25.153  15.693   2.727
32881W        W97089  40.357  23.522   3.207
32882W        W97090  12.716   6.257   4.606
32883W        W97091  20.037  12.189   3.644
32884W        W97092  38.393  30.453  13.935
32885W        W97093  41.838  12.646   4.336
32886W        W97094  39.382  35.067  10.429
32887W        W97095   9.236  17.198   0.847
32888W        W97096  38.555  33.430   4.227
32889W        W97097  28.536  13.293  11.026
32890W        W97098   3.956  44.491  10.511
32891W        W97099  11.220  37.459  11.526
32892W        W97100  20.752  15.323  13.973
32893W        W97101  11.853  28.976  12.500
32894W        W97102  20.215   6.414   0.804
32895W        W97103  18.159  23.566   4.633
32896W        W97104  37.402   2.755  10.410
32897W        W97105  20.733  17.170  11.466
32898W        W97106   7.315  19.149  11.897
32899W        W97107  14.782  24.032   4.704
32900W        W97108  39.955  27.128  10.501
32901W        W97109  26.193  43.844   0.777
32902W        W97110  25.187  27.628   2.832
32903W        W97111  33.996  37.471   3.650
32904W        W97112  40.317  13.125   3.187
32905W        W97113  34.897   1.296  11.376
32906W        W97114   5.332  24.570   4.809
32907W        W97115  37.343  10.792   2.705
32908W        W97116  26.560  38.488  13.446
32909W        W97117  33.084  19.571   2.294
32910W        W97118  23.674  44.007   3.277
32911W        W97119  26.653  42.506  10.910
32912W        W97120  25.167  34.578  13.904
32913W        W97121  12.235  31.986   2.304
32914W        W97122  15.746  26.581  13.905
32915W        W97123   4.726  31.547   0.387
32916W        W97124  19.139   7.397  12.894
32917W        W97125  24.191  28.627   0.355
32918W        W97126  17.661  29.142   2.219
32919W        W97127  14.287  43.964  14.837
32920W        W97128  31.634  31.001   1.719
32921W        W97129   7.900   3.891   2.354
32922W        W97130   6.345   1.857  12.922
32923W        W97131   7.872  17.798  13.955
32924W        W97132  28.149  25.977   4.742
32925W        W97133  24.683  33.393  13.887
32926W        W97134  26.595  35.105   2.776
32927W        W97135  37.873  13.792   2.299
32928W        W97136   1.797   9.358  13.793
32929W        W97137   4.265   0.270  11.895
32930W        W97138  24.989  14.739   2.204
32931W        W97139  20.153  35.511  11.600
32932W        W97140  11.682  25.484   0.394
32933W        W97141  21.539  39.917  13.992
32934W        W97142  10.224  22.113  14.310
32935W        W97143  25.636  25.091  10.459
32936W        W97144  20.193  18.267   2.691
32937W        W97145  34.073  28.647   3.160
32938W        W97146  16.174  34.388   3.857
32939W        W97147   7.793  21.741   4.707
32940W        W97148  10.270  40.346  13.947
32941W        W97149  19.700  39.889  13.411
32942W        W97150   2.730   2.784  13.795
32943W        W97151  17.669  37.374   3.637
32944W        W97152  23.683  44.327  13.342
32945W        W97153   4.318  13.115   0.389
32946W        W97154  32.095  40.827   4.727
32947W        W97155  33.549  20.135   0.294
32948W        W97156  14.746  33.457   0.906
32949W        W97157  24.644  40.844  11.391
32950W        W97158  35.898  38.988  13.414
32951W        W97159  41.301  42.000   4.115
32952W        W97160   0.960   4.281  14.447
32953W        W97161   4.218  16.699   2.417
32954W        W97162  25.026  17.076  13.509
32955W        W97163  25.707  27.567  14.947
32956W        W97164  35.479  36.043   0.380
32957W        W97165  26.614  27.569   4.608
32958W        W97166   8.702  11.371  11.428
32959W        W97167  22.660  25.594  13.517
32960W        W97168  15.580  20.222  13.324
32961W        W97169  32.011   2.720   3.636
32962W        W97170  37.497  32.604  10.627
32963W        W97171   8.839  37.466  11.555
32964W        W97172   6.223  10.875  14.495
32965W        W97173  19.249  43.344  14.887
32966W        W97174  43.863  15.710   4.199
32967W        W97175  24.605   9.381   3.334
32968W        W97176   0.843  14.255  14.007
32969W        W97177  29.448   0.343  11.107
32970W        W97178  25.114   4.942   4.763
32971W        W97179  15.599  14.168  13.953
32972W        W97180   3.302  20.224   3.291
32973W        W97181  20.540  42.928  13.828
32974W        W97182  25.521   1.786  14.028
32975W        W97183  43.021  27.589   4.177
32976W        W97184  32.944  17.118   3.755
32977W        W97185  33.880  39.846   1.811
32978W        W97186  37.368   6.896   1.226
32979W        W97187  38.549  41.530   4.834
32980W        W97188  30.049  35.585  12.551
32981W        W97189   8.671  38.540   3.789
32982W        W97190  23.235  12.715   4.217
32983W        W97191  25.034  44.360   0.404
32984W        W97192  40.017   5.244  10.071
32985W        W97193  27.569  39.918  12.853
32986W        W97194  27.083  40.957  10.923
32987W        W97195  26.963  33.498   1.422
32988W        W97196  36.478   2.306  13.875
32989W        W97197  39.529  18.128  11.928
32990W        W97198   6.421  18.766  12.026
32991W        W97199  27.571  39.359  12.882
32992W        W97200   6.322  12.228   0.317
32993W        W97201  27.654   9.239   3.354
32994W        W97202   1.820  27.656  10.520
32995W        W97203  24.121  26.631   4.712
32996W        W97204  28.063   5.380   0.744
32997W        W97205  41.362   7.301  12.888
32998W        W97206  23.079  29.958   1.695
32999W        W97207  23.639  44.907  13.901
33000W        W97208  41.393   2.751  14.276
33001W        W97209  40.981  20.237   4.168
33002W        W97210  22.161   1.409   0.431
33003W        W97211   3.816  25.983   1.232
33004W        W97212  43.923  38.417  11.457
33005W        W97213   6.402  12.785  14.811
33006W        W97214   0.760  27.650  12.834
33007W        W97215  17.603   6.212   4.653
33008W        W97216   1.265  12.329  12.374
33009W        W97217  26.585  18.766  14.959
33010W        W97218  42.989  19.627   3.290
33011W        W97219  41.823  35.505  12.023
33012W        W97220  18.551  20.565   4.752
33013W        W97221  18.684  29.524   5.222
33014W        W97222  32.087  30.535  13.985
33015W        W97223  31.566  33.928   3.340
33016W        W97224   3.266  27.447  12.512
33017W        W97225  29.931   6.412  13.387
33018W        W97226   3.458   2.282  12.435
33019W        W97227  37.908  19.189   0.885
33020W        W97228  38.374  37.961  10.432
33021W        W97229   1.923  30.497   2.384
33022W        W97230  35.566  42.374   1.822
33023W        W97231  18.053   0.322  12.853
33024W        W97232  39.546  36.371  11.909
33025W        W97233  26.090   6.855  13.407
33026W        W97234  35.070  42.478   2.330
33027W        W97235  19.050  42.485  12.382
33028W        W97236  34.006  24.089   1.422
33029W        W97237  18.699   0.764   2.742
33030W        W97238  29.939   4.776   1.818
33031W        W97239  21.551   9.312  10.982
33032W        W97240   7.884   7.877  13.936
33033W        W97241  44.399  29.591   4.754
33034W        W97242  25.969  32.020  11.488
33035W        W97243  43.312  20.035  12.346
33036W        W97244  32.109   6.820   2.183
33037W        W97245   8.684  18.283   2.225
33038W        W97246   4.370  28.052   1.277
33039W        W97247   3.895  18.782  12.557
33040W        W97248  41.950  41.948  13.538
33041W        W97249  10.292  31.001  14.487
33042W        W97250   9.767  13.798  13.005
33043W        W97251  41.966   0.326   5.108
33044W        W97252  27.466   8.873  12.080
33045W        W97253  29.599  34.019   4.718
33046W        W97254  39.529  43.812   0.852
33047W        W97255  30.911  36.577   0.965
33048W        W97256  19.703  25.587   4.829
33049W        W97257  17.633  32.981   0.931
33050W        W97258  39.814   3.827   0.759
33051W        W97259  19.262   4.444  14.802
33052W        W97260   4.903  40.344  10.617
33053W        W97261  44.465  20.082   4.332
33054W        W97262  42.515  32.453   2.356
33055W        W97263  19.212  19.536   1.746
33056W        W97264  27.008  12.299   3.279
33057W        W97265  19.592  23.160  11.891
33058W        W97266   5.738  43.916   2.253
33059W        W97267  12.167  27.683  14.354
33060W        W97268  32.935  34.948  14.833
33061W        W97269  38.512  27.603  11.089
33062W        W97270  13.256  24.193   4.806
33063W        W97271   0.493  43.927   0.816
33064W        W97272  38.819   8.759   2.228
33065W        W97273  31.499  11.866  13.923
33066W        W97274  15.250   5.397   4.634
33067W        W97275  24.994  39.903  11.921
33068W        W97276  23.995  19.153   4.304
33069W        W97277  42.019   3.424  12.037
33070W        W97278  18.722  19.286   1.912
33071W        W97279  33.526  36.410   5.201
33072W        W97280   8.683  32.461  11.950
33073W        W97281  21.035  38.335   0.332
33074W        W97282  22.030  31.081   3.181
33075W        W97283  30.051  20.762  13.970
33076W        W97284  37.424  42.848   1.341
33077W        W97285   6.922  12.739  13.345
33078W        W97286  31.124  10.788   3.635
33079W        W97287  44.846  30.958  12.540
33080W        W97288  30.036  31.924  13.521
33081W        W97289  13.646  24.055   2.308
33082W        W97290  17.683   0.365  12.458
33083W        W97291   8.276   9.264  10.452
33084W        W97292  14.269   5.864  11.066
33085W        W97293   3.741  41.987   0.344
33086W        W97294  37.473  30.502  11.606
33087W        W97295  38.382  26.474  11.524
33088W        W97296  19.164  16.780   1.435
33089W        W97297  26.610  11.868   0.906
33090W        W97298  17.185   2.875   0.312
33091W        W97299  14.704  20.212   3.274
33092W        W97300  25.570  17.800  13.487
33093W        W97301   8.188   2.916   3.744
33094W        W97302  18.221  19.688   1.895
33095W        W97303  15.802  18.775  14.760
33096W        W97304  43.502  25.470  10.602
33097W        W97305  26.180  16.098   2.761
33098W        W97306   3.900  15.165   1.292
33099W        W97307   0.352  44.843  11.930
33100W        W97308  14.776   1.952  12.910
33101W        W97309  15.096   1.888   2.823
33102W        W97310  33.587   8.832  11.584
33103W        W97311  29.527  42.013   3.161
33104W        W97312   4.745  21.700   2.216
33105W        W97313  13.348  33.383   4.772
33106W        W97314  21.222  18.605  13.533
33107W        W97315  32.967  32.574  10.944
33108W        W97316   7.408  38.986  12.068
33109W        W97317  42.872  34.531   5.284
33110W        W97318  28.493  36.092  10.528
33111W        W97319  11.746  27.623  11.983
33112W        W97320  42.999  31.082  11.596
33113W        W97321  12.137  33.044   3.252
33114W        W97322   6.866  44.459   0.931
33115W        W97323  36.888  27.104  10.998
33116W        W97324  11.141  42.411   3.660
33117W        W97325   7.232  11.261   3.687
33118W        W97326   9.261  25.606  13.439
33119W        W97327  38.367  30.907   3.152
33120W        W97328   5.412   3.377   2.778
33121W        W97329  30.617  38.902   0.329
33122W        W97330  22.168  37.925   1.283
33123W        W97331  43.345  28.659   0.894
33124W        W97332  20.604  23.635   2.367
33125W        W97333  24.490  44.281  13.538
33126W        W97334   2.743  16.309   1.398
33127W        W97335  16.756  21.570   0.809
33128W        W97336  11.714  38.955  12.425
33129W        W97337  11.330  41.345  13.013
33130W        W97338   2.796  34.608   0.448
33131W        W97339  36.367  13.115  11.520
33132W        W97340  11.798  36.096  14.386
33133W        W97341  29.449  29.049   2.714
33134W        W97342  25.144  22.655  10.408
33135W        W97343  40.915  24.114   1.746
33136W        W97344  40.960  15.283   1.715
33137W        W97345  28.446   4.383   4.669
33138W        W97346  32.898  16.683   0.958
33139W        W97347  34.501  25.113   1.369
33140W        W97348   2.873  33.556   1.913
33141W        W97349   0.264  43.910   1.425
33142W        W97350  28.584   6.788   4.201
33143W        W97351  24.015   9.299  12.570
33144W        W97352  14.327  39.395   2.328
33145W        W97353  38.845  10.377   2.418
33146W        W97354  15.588   4.371  13.026
33147W        W97355  11.678  28.490   1.293
33148W        W97356   1.319  44.810   1.358
33149W        W97357   3.828   1.364  12.572
33150W        W97358   6.875  37.970   4.785
33151W        W97359  38.018  24.076  13.501
33152W        W97360  22.077  40.871  11.077
33153W        W97361   2.306  18.099  10.972
33154W        W97362   7.189  20.181   4.155
33155W        W97363  16.589  22.722   3.657
33156W        W97364  33.564   5.417  13.804
33157W        W97365  42.358  22.556   0.302
33158W        W97366  24.651  35.391   0.764
33159W        W97367  36.552  43.434   2.386
33160W        W97368  35.908  19.758  11.859
33161W        W97369   8.715  11.364   0.767
33162W        W97370  13.673  26.063  13.492
33163W        W97371  32.886   5.779   1.818
33164W        W97372  32.583  12.327  14.373
33165W        W97373   6.256   2.723  12.546
33166W        W97374   0.883  44.397  11.999
33167W        W97375  10.635   2.759  13.955
33168W        W97376  20.652  31.522  10.606
33169W        W97377  24.487  43.376  14.436
33170W        W97378  44.765  35.008  12.392
33171W        W97379  15.205  10.712   0.355
33172W        W97380  24.650   5.402   1.276
33173W        W97381  35.573  16.222   3.797
33174W        W97382  28.156  41.947   9.980
33175W        W97383  23.674   3.257  14.456
33176W        W97384  17.212  29.158  11.390
33177W        W97385  19.144  26.540   3.799
33178W        W97386  11.784  40.993  13.996
33179W        W97387  42.307  34.956  12.838
33180W        W97388  18.067  31.991  12.853
33181W        W97389  14.236  15.292   2.249
33182W        W97390  22.732  18.729  11.865
33183W        W97391   1.770  36.875   5.291
33184W        W97392  18.649  23.199   2.706
33185W        W97393  43.984  23.998  12.020
33186W        W97394  38.477   6.826   0.476
33187W        W97395  19.693  20.055  13.964
33188W        W97396  11.372  15.251   1.300
33189W        W97397  16.605  19.702  13.960
33190W        W97398  17.250   7.413  14.812
33191W        W97399  36.530   5.316   2.685
33192W        W97400   7.229  22.586  13.805
33193W        W97401  10.364   4.743  11.066
33194W        W97402   7.262   8.894   4.628
33195W        W97403  35.962  13.655  10.618
33196W        W97404  31.944  39.350  10.957
33197W        W97405  39.473  21.094  14.928
33198W        W97406  11.244  32.421  13.874
33199W        W97407  11.822  14.789  14.455
33200W        W97408  44.801  13.118   2.729
33201W        W97409  33.549   6.183   1.372
33202W        W97410  38.951  20.544  12.846
33203W        W97411  25.549  35.454   3.372
33204W        W97412  22.704  23.022  13.841
33205W        W97413  19.129  23.130  13.823
33206W        W97414   7.902  40.331  11.929
33207W        W97415   2.372  21.114   2.825
33208W        W97416   6.822  44.902  12.466
33209W        W97417  41.293   9.809   4.620
33210W        W97418   4.743   1.746  11.948
33211W        W97419  20.035  34.449   4.810
33212W        W97420  23.601   1.755   0.469
33213W        W97421  38.037  44.323   2.314
33214W        W97422  23.170  30.559  10.492
33215W        W97423  18.672  12.671  12.559
33216W        W97424   1.373  37.087   3.172
33217W        W97425  12.189  23.197  11.003
33218W        W97426  42.513  12.836   0.869
33219W        W97427  40.421  29.425   0.896
33220W        W97428   6.328   5.810  13.850
33221W        W97429   0.976  27.055  11.979
33222W        W97430  37.418  40.045  13.446
33223W        W97431  20.694  35.890   4.321
33224W        W97432  28.512   0.396   2.265
33225W        W97433  18.591  23.110  13.804
33226W        W97434  16.658  45.000  10.419
33227W        W97435  17.140  29.599   4.815
33228W        W97436  34.587  20.671   1.264
33229W        W97437  28.068  14.684   4.746
33230W        W97438  12.738  24.639   1.851
33231W        W97439  12.835  17.651  14.951
33232W        W97440   8.736   5.346  11.552
33233W        W97441   6.279   4.414  12.538
33234W        W97442  17.212  32.948  14.896
33235W        W97443  17.207   6.276   4.796
33236W        W97444  35.948   8.801  11.961
33237W        W97445  35.889  22.092  10.404
33238W        W97446  21.113  30.494  14.915
33239W        W97447  24.703  42.432   0.291
33240W        W97448   5.919   2.877  11.593
33241W        W97449  29.032  32.431   4.309
33242W        W97450  39.896   7.243  12.040
33243W        W97451   0.931  23.214   2.726
33244W        W97452  15.150  42.370  10.923
33245W        W97453  23.985  44.979  14.952
33246W        W97454  30.159  26.510  13.405
33247W        W97455  33.007  30.072   0.369
33248W        W97456  29.073  36.541  14.970
33249W        W97457  10.638  13.709   1.701
33250W        W97458   2.330  16.186   3.648
33251W        W97459  19.777  30.020   1.874
33252W        W97460   8.707  16.088   2.832
33253W        W97461  30.423  11.713   2.866
33254W        W97462  27.141  18.120  13.448
33255W        W97463  41.478  27.562   0.948
33256W        W97464   9.243  19.261   4.166
33257W        W97465  20.561   3.722  10.975
33258W        W97466  17.155  15.203   2.403
33259W        W97467   3.215  13.348   0.960
33260W        W97468  18.605  15.658   0.765
33261W        W97469  20.258  40.439  12.496
33262W        W97470  15.808  35.991   2.667
33263W        W97471  40.417   7.680  12.418
33264W        W97472  25.019   2.246  12.045
33265W        W97473  33.027  12.238   4.624
33266W        W97474  12.222  35.475   3.691
33267W        W97475  12.628  15.089   9.941
33268W        W97476  32.028   2.919  13.951
33269W        W97477  37.520  42.503  11.542
33270W        W97478   0.938  35.411  12.831
33271W        W97479  43.271  11.692   0.450
33272W        W97480  27.011   2.245  13.435
33273W        W97481  24.550  31.497  10.890
33274W        W97482   8.872  24.679   1.414
33275W        W97483  44.353   4.328   2.699
33276W        W97484  41.883   7.301   1.234
33277W        W97485  38.432  16.672   4.819
33278W        W97486  17.568   2.954  11.500
33279W        W97487  28.551  33.381  11.025
33280W        W97488  32.417   3.277  10.071
33281W        W97489  28.141  14.608  13.811
33282W        W97490  32.536  44.319  11.476
33283W        W97491  34.985  18.268  12.441
33284W        W97492  29.919  41.838  12.022
33285W        W97493  44.396  41.428  10.008
33286W        W97494  40.997  41.948   4.176
33287W        W97495  13.691   9.257   1.919
33288W        W97496   3.437  30.525  12.520
33289W        W97497  32.138   6.388  14.948
33290W        W97498  10.278  42.294  11.437
33291W        W97499  29.044   0.805  13.946
33292W        W97500  18.614  17.104  11.406
33293W        W97501  24.139  37.931  11.092
33294W        W97502   1.416  21.128  10.635
33295W        W97503  30.431  34.515  11.918
33296W        W97504  31.051  24.985   1.854
33297W        W97505  43.822  35.889   9.938
33298W        W97506  41.832  20.749   1.727
33299W        W97507   8.193  33.618  13.354
33300W        W97508  34.576   6.714   0.832
33301W        W97509  21.649  38.343   0.828
33302W        W97510  35.493   7.368  12.457
33303W        W97511  39.405  13.310   2.211
33304W        W97512  16.739  32.550  14.508
33305W        W97513   6.714  34.956  14.843
33306W        W97514  35.005   0.824   1.749
33307W        W97515   6.689   8.241   0.361
33308W        W97516  23.052  15.784   4.147
33309W        W97517  38.933  11.364  14.472
33310W        W97518   5.355  30.140   4.198
33311W        W97519  30.421  43.902  14.470
33312W        W97520  28.657  35.547  11.919
33313W        W97521  16.116   5.836  14.021
33314W        W97522  10.203  24.724   0.799
33315W        W97523   6.826  15.327   4.723
33316W        W97524  25.210  30.158  14.512
33317W        W97525  31.897   7.264  10.536
33318W        W97526  24.009  30.062  14.362
33319W        W97527  42.816  29.938   3.692
33320W        W97528  35.436  14.190  11.039
33321W        W97529  22.723   6.717  11.949
33322W        W97530  16.800  17.802   2.844
33323W        W97531  30.948   4.392   2.713
33324W        W97532  15.258  20.195  12.518
33325W        W97533  42.510  20.526  14.853
33326W        W97534  20.055  12.801  11.469
33327W        W97535   6.260  39.959  12.992
33328W        W97536  38.405  25.667   1.222
33329W        W97537   9.711   0.880   0.291
33330W        W97538  35.914  21.522  13.913
33331W        W97539  23.108  43.352  13.433
33332W        W97540   3.782  14.760   0.936
33333W        W97541  25.706  21.207   4.803
33334W        W97542  27.959  32.438   2.223
33335W        W97543  17.616  16.665  13.400
33336W        W97544  29.652  43.464  10.462
33337W        W97545  25.016   1.249   4.802
33338W        W97546   4.250  12.280   2.701
33339W        W97547  36.517  34.611  10.514
33340W        W97548  17.242  34.970  13.803
33341W        W97549   9.180   2.429  13.032
33342W        W97550  39.413   5.311   1.238
33343W        W97551  27.104  23.112  13.307
33344W        W97552  33.457   7.394   3.330
33345W        W97553  17.187   8.367   4.748
33346W        W97554  42.873  24.059  14.501
33347W        W97555   3.807   3.863  12.371
33348W        W97556   7.733  44.770   3.811
33349W        W97557  33.059  31.414  11.580
33350W        W97558  15.582  14.186   1.379
33351W        W97559  16.730  15.085  14.857
33352W        W97560  42.806  20.186  10.944
33353W        W97561  20.623  38.337   0.837
33354W        W97562  24.595   4.264  10.573
33355W        W97563  21.650  34.435   1.764
33356W        W97564   1.851  34.428   0.828
33357W        W97565  37.943   3.767  11.080
33358W        W97566  14.188  37.961  12.834
33359W        W97567  12.249  43.504  10.432
33360W        W97568  42.995  20.636  10.024
33361W        W97569  41.989   7.416  10.504
33362W        W97570  43.445  34.951  12.010
33363W        W97571   3.317  25.058  10.413
33364W        W97572  22.582  34.016  13.458
33365W        W97573  22.046  42.345  13.814
33366W        W97574  32.974   5.693  14.016
33367W        W97575  33.491  16.236   3.356
33368W        W97576  37.518  11.840   4.751
33369W        W97577  33.899  34.435   4.301
33370W        W97578  27.555  27.604   4.635
33371W        W97579  38.005  31.596  14.971
33372W        W97580  40.924  37.498  10.584
33373W        W97581  26.648   3.316  10.433
33374W        W97582  42.033  24.150   3.642
33375W        W97583  17.714  34.867  12.009
33376W        W97584   4.809  44.762   5.207
33377W        W97585  29.001  15.788   3.307
33378W        W97586  39.524  14.297   4.698
33379W        W97587   5.806  31.028   2.725
33380W        W97588  27.974  30.444   0.381
33381W        W97589  33.037  21.144   0.770
33382W        W97590   6.324  14.229  12.939
33383W        W97591  25.129  14.627   0.933
33384W        W97592  40.455   7.909  10.609
33385W        W97593  41.410  39.497  13.977
33386W        W97594   7.358   7.786  14.017
33387W        W97595  41.864  11.796  11.559
33388W        W97596  20.134  37.489   3.256
33389W        W97597   4.364  27.687  14.441
33390W        W97598  31.614   7.862  12.573
33391W        W97599   1.475   8.791   3.274
33392W        W97600  21.087  24.034  14.299
33393W        W97601  31.514  10.349   4.174
33394W        W97602   3.803  44.302   0.429
33395W        W97603   9.711  26.035  14.852
33396W        W97604  30.606   5.807   3.690
33397W        W97605   8.255  37.932  14.886
33398W        W97606  18.217  42.965  12.927
33399W        W97607   0.365  15.184  11.957
33400W        W97608  30.515  20.766  10.890
33401W        W97609  18.622  14.232  12.936
33402W        W97610  12.122  25.563   2.662
33403W        W97611  33.528  21.190  13.447
33404W        W97612  27.580   2.398   3.301
33405W        W97613  39.527  10.146   0.844
33406W        W97614   2.270  25.496   3.320
33407W        W97615  14.768  10.179  10.640
33408W        W97616   0.925  19.563  14.812
33409W        W97617  20.169   4.937   3.238
33410W        W97618  39.930  10.778   3.303
33411W        W97619   7.195   4.236  14.415
33412W        W97620  33.495  32.965   4.253
33413W        W97621  11.256  43.876  13.885
33414W        W97622  32.603  42.525  11.435
33415W        W97623  42.467   3.257  12.487
33416W        W97624  24.205  22.637   1.709
33417W        W97625  18.603  38.419   1.911
33418W        W97626  39.982  35.417   2.375
33419W        W97627  22.214   2.307  11.475
33420W        W97628  22.687  44.429  13.937
33421W        W97629  36.085  31.149   0.812
33422W        W97630  34.873  27.474  13.998
33423W        W97631  15.200   7.228  14.314
33424W        W97632  43.968  24.547  10.538
33425W        W97633  16.313  25.012  12.339
33426W        W97634  10.687  33.021  13.999
33427W        W97635   3.770  13.112  12.501
33428W        W97636   7.683   5.878   1.820
33429W        W97637  35.514  40.046  13.902
33430W        W97638  12.829  18.242  13.025
33431W        W97639   9.248  26.969  12.421
33432W        W97640  32.584  33.391   0.470
33433W        W97641  35.014  36.873  13.991
33434W        W97642  27.085   3.432  14.958
33435W        W97643  35.992  18.777  14.841
33436W        W97644  23.678  14.190  13.049
33437W        W97645  20.162   5.234   0.293
33438W        W97646  28.617   5.278  10.509
33439W        W97647  15.123  40.880   2.332
33440W        W97648   4.751  19.746  10.896
33441W        W97649  10.853  14.639  14.404
33442W        W97650  15.117   3.923   4.826
33443W        W97651  29.009  21.721  12.070
33444W        W97652  15.588  23.727  12.394
33445W        W97653  29.478  39.547   3.209
33446W        W97654   2.791  15.224   1.317
33447W        W97655  41.492  10.310   5.317
33448W        W97656  19.551  17.207  14.792
33449W        W97657  34.055  32.430  10.899
33450W        W97658  17.565   6.887  14.795
33451W        W97659  18.177  12.220   1.711
33452W        W97660  16.692  27.068   4.695
33453W        W97661   4.740  25.033  12.935
33454W        W97662  44.873  17.067  10.501
33455W        W97663  10.834   6.719   1.756
33456W        W97664  30.160   1.762   3.183
33457W        W97665  37.387   1.878   1.259
33458W        W97666  41.418  43.377   1.933
33459W        W97667  38.562  15.151   4.231
33460W        W97668  37.362   3.795  14.900
33461W        W97669  32.043  25.992  14.988
33462W        W97670  36.912  33.531  14.468
33463W        W97671  39.935  15.636  11.541
33464W        W97672  15.102   5.348  14.840
33465W        W97673  31.019  23.671   2.702
33466W        W97674  19.748  26.640   1.441
33467W        W97675  42.455  18.744  14.345
33468W        W97676  14.658  22.110   2.274
33469W        W97677  23.202   1.418   2.337
33470W        W97678  44.002  16.739  13.996
33471W        W97679  11.833  38.351  11.550
33472W        W97680  18.616  25.165  13.484
33473W        W97681   3.261  20.719  13.948
33474W        W97682  15.189  15.229   3.228
33475W        W97683  21.598   3.847   2.189
33476W        W97684  23.206  41.927  10.980
33477W        W97685   1.893  21.588  13.840
33478W        W97686  41.334   6.291   3.804
33479W        W97687  27.195  10.782   1.785
33480W        W97688  35.015   6.370  10.975
33481W        W97689  10.793  28.589   1.710
33482W        W97690  32.393  36.030   4.117
33483W        W97691   9.368  21.210  13.511
33484W        W97692  34.428  22.178   1.884
33485W        W97693  13.646  21.511   4.216
33486W        W97694   8.697  20.055  13.370
33487W        W97695  22.149   9.300  11.053
33488W        W97696  20.535  23.984  11.080
33489W        W97697  15.696  35.570   3.707
33490W        W97698  26.601  22.723   1.323
33491W        W97699  36.364  41.859   4.633
33492W        W97700  42.959   9.170   3.722
33493W        W97701   8.744  28.976  14.379
33494W        W97702  37.463   7.904  11.084
33495W        W97703  42.348  15.273   1.760
33496W        W97704  27.513  18.717   1.418
33497W        W97705  41.023   6.900   4.607
33498W        W97706  13.166  24.656   4.211
33499W        W97707  11.129  26.559  12.932
33500W        W97708  44.875  12.297   2.403
33501W        W97709  30.023  29.479   3.185
33502W        W97710  23.173  34.962   3.346
33503W        W97711   0.776   4.400  10.993
33504W        W97712  21.180  40.508   2.397
33505W        W97713  14.096  28.503   2.208
33506W        W97714  41.043  35.874  14.372
33507W        W97715   7.314  21.233   2.323
33508W        W97716  41.923   9.210  11.473
33509W        W97717  10.696  20.635  13.792
33510W        W97718  43.986  38.539  10.550
33511W        W97719  20.556  41.334  11.991
33512W        W97720  42.312  23.548  11.548
33513W        W97721  24.667  21.026   0.962
33514W        W97722  14.670   2.731   2.831
33515W        W97723  44.891  33.972  11.537
33516W        W97724  23.610  35.410   0.963
33517W        W97725  14.710  32.964  11.948
33518W        W97726  41.494  23.644  13.332
33519W        W97727   9.746  14.607  13.515
33520W        W97728  40.479  22.206   4.345
33521W        W97729  43.408  12.315   4.696
33522W        W97730  15.122  27.157   2.792
33523W        W97731  23.037  17.162  13.900
33524W        W97732  15.580  17.232  10.964
33525W        W97733  42.401  31.917  14.848
33526W        W97734  24.189  37.029   1.734
33527W        W97735  30.163  12.643  12.563
33528W        W97736  22.127  39.398   2.359
33529W        W97737   6.846  26.641  10.901
33530W        W97738   4.837  30.449   3.780
33531W        W97739  36.510  11.161   1.924
33532W        W97740  33.934  26.549   2.285
33533W        W97741   2.839  12.134  12.428
33534W        W97742  37.358  26.690   0.916
33535W        W97743   8.214  25.570  11.452
33536W        W97744  30.077  19.732   2.679
33537W        W97745   7.333  36.586  13.440
33538W        W97746  26.032  13.838   4.597
33539W        W97747  17.752  23.116  11.898
33540W        W97748  12.350   3.859  11.468
33541W        W97749   7.247  40.370   1.409
33542W        W97750  24.218  32.985   2.367
33543W        W97751   9.826  40.357  13.806
33544W        W97752  19.749   5.234  12.489
33545W        W97753   7.689   5.215   0.345
33546W        W97754   5.802  35.455  12.541
33547W        W97755   0.346   8.200  13.381
33548W        W97756  33.496   8.284   0.828
33549W        W97757  36.872  21.180  12.551
33550W        W97758  32.951  16.153   3.305
33551W        W97759  11.655  38.565   4.667
33552W        W97760  29.591  39.970  11.504
33553W        W97761  21.529  13.741  11.937
33554W        W97762   5.722  18.200  11.978
33555W        W97763  33.572  30.430   1.732
33556W        W97764  37.391  12.824   0.305
33557W        W97765   8.874   3.834   2.336
33558W        W97766  23.225  20.568  14.780
33559W        W97767  41.439  17.275   2.407
33560W        W97768  10.200  20.065   0.730
33561W        W97769  15.629  36.940  11.583
33562W        W97770  12.189  40.874   0.738
33563W        W97771   2.242  32.030   2.879
33564W        W97772  35.989  18.260  12.877
33565W        W97773  37.031  33.401   0.752
33566W        W97774  18.251  15.811  10.944
33567W        W97775  44.757   4.205   1.402
33568W        W97776   2.403  18.067  12.085
33569W        W97777  20.120  32.492   0.259
33570W        W97778  36.907  23.716  12.575
33571W        W97779  39.841  43.870  13.351
33572W        W97780  33.122  41.296  14.937
33573W        W97781  37.379  29.977   2.787
33574W        W97782  36.472  13.786  13.046
33575W        W97783  19.678  33.431   3.732
33576W        W97784  32.885  17.260   0.732
33577W        W97785  15.113  33.554   4.276
33578W        W97786   6.247   5.412   4.708
33579W        W97787  26.480  21.263  12.348
33580W        W97788  33.028   0.946  11.050
33581W        W97789   0.389   8.692   3.729
33582W        W97790  32.100   3.717   3.155
33583W        W97791  42.780  38.449  10.035
33584W        W97792   7.388  44.371   3.280
33585W        W97793  30.567   3.324   5.182
33586W        W97794   3.786  31.512  12.395
33587W        W97795  14.716  24.181   0.388
33588W        W97796  13.676  16.262   1.766
33589W        W97797  40.509  19.094   3.693
33590W        W97798  22.092  40.934   0.945
33591W        W97799  16.729   4.699   1.247
33592W        W97800  31.906  17.615   4.279
33593W        W97801  40.925   7.232   0.270
33594W        W97802  16.140  10.661  13.058
33595W        W97803   9.212  22.532   0.388
33596W        W97804  18.573  13.812  10.540
33597W        W97805  12.702  31.430  13.355
33598W        W97806   0.755  31.958  14.891
33599W        W97807  31.053  25.110   9.990
33600W        W97808  32.948  44.319   2.749
33601W        W97809  28.132  20.250  14.763
33602W        W97810  11.222  37.959   3.311
33603W        W97811   2.450  41.917  14.011
33604W        W97812  40.846  37.977   0.726
33605W        W97813  40.960  14.193   1.699
33606W        W97814  40.996  39.850  11.023
33607W        W97815   1.420  21.570  12.906
33608W        W97816   6.818  12.740   3.276
33609W        W97817  41.426  29.977   4.788
33610W        W97818   4.748  20.592   4.723
33611W        W97819  39.033   8.744   2.716
33612W        W97820  25.700   0.322   3.188
33613W        W97821   7.375  41.949  12.481
33614W        W97822  17.668  33.405  14.913
33615W        W97823   9.227  23.111  12.028
33616W        W97824  11.204  22.693   2.666
33617W        W97825   5.770  21.114   5.241
33618W        W97826   5.688  43.425  13.445
33619W        W97827   1.783  13.776  12.971
33620W        W97828  14.235  42.002   2.898
33621W        W97829  38.469  14.699  11.948
33622W        W97830  22.066  12.628  11.522
33623W        W97831  22.052  18.634   4.240
33624W        W97832   1.913   2.298   0.793
33625W        W97833  23.685  12.610   2.241
33626W        W97834  41.486  39.340   2.708
33627W        W97835  38.913  10.771   4.803
33628W        W97836  12.167  42.006  11.516
33629W        W97837  44.758  12.167   1.694
33630W        W97838  34.370  13.221   2.674
33631W        W97839  13.621  13.671  12.039
33632W        W97840  19.102  41.299  13.848
33633W        W97841  36.055   3.382   4.333
33634W        W97842  15.682  14.128  13.309
33635W        W97843  21.668  31.494  12.904
33636W        W97844   3.737   1.381   1.744
33637W        W97845  23.125  17.595   1.782
33638W        W97846   1.280   3.848   5.174
33639W        W97847   0.401   9.888  14.014
33640W        W97848  38.454  36.389   4.122
33641W        W97849   7.669   2.382   2.281
33642W        W97850  14.095  29.495   0.869
33643W        W97851  18.727  27.119  14.335
33644W        W97852  17.146  30.100  12.578
33645W        W97853  25.130  12.172  14.441
33646W        W97854  31.988   4.914   0.251
33647W        W97855  42.017  19.607   1.316
33648W        W97856  42.525  33.013  13.466
33649W        W97857  11.333   0.811  10.901
33650W        W97858   3.864  18.172  12.075
33651W        W97859  36.529  44.980   1.434
33652W        W97860   2.439  29.158   3.672
33653W        W97861  15.104  38.917   4.824
33654W        W97862  26.192  10.855  10.919
33655W        W97863  25.614  23.184   1.399
33656W        W97864  20.731  29.506   0.317
33657W        W97865  12.779  12.761   2.377
33658W        W97866  33.595  18.719   2.322
33659W        W97867   7.209  27.135   4.326
33660W        W97868  38.869  28.981   3.278
33661W        W97869  11.623  12.728   0.308
33662W        W97870  37.925  33.441   4.747
33663W        W97871  29.088  44.500   1.224
33664W        W97872  25.471  16.122  11.471
33665W        W97873  30.927  35.422   1.816
33666W        W97874  44.763  23.131   4.762
33667W        W97875  12.196  29.932   3.316
33668W        W97876   1.309  13.115   2.213
33669W        W97877  40.980  15.721   5.222
33670W        W97878   0.849  31.577  11.585
33671W        W97879  26.983  42.376  12.839
33672W        W97880  18.730  43.483   4.643
33673W        W97881  27.941  27.454  10.007
33674W        W97882  11.632  27.018  13.526
33675W        W97883  39.862  37.045  13.489
33676W        W97884  32.975  44.473  13.839
33677W        W97885  12.828  13.712  11.435
33678W        W97886  23.167  34.585  10.907
33679W        W97887  23.515  23.115  11.601
33680W        W97888  42.828  32.609  11.584
33681W        W97889  18.789  16.267   2.777
33682W        W97890  33.080  24.659  13.965
33683W        W97891   2.922  26.084  11.941
33684W        W97892   4.928  43.342   3.193
33685W        W97893  40.519  12.253  14.436
33686W        W97894   1.369   8.229  11.524
33687W        W97895  43.422   7.242  14.827
33688W        W97896  17.255  21.596   2.328
33689W        W97897  27.158  14.235  13.469
33690W        W97898  41.988  29.049  12.425
33691W        W97899  38.946  37.512   0.316
33692W        W97900  12.704  12.163   0.860
33693W        W97901  16.652   3.308   4.827
33694W        W97902  13.259   5.251   0.821
33695W        W97903   0.281  30.008   2.861
33696W        W97904  28.006   6.824  11.959
33697W        W97905  21.156  18.067   0.266
33698W        W97906   6.256   4.889   3.739
33699W        W97907  10.150  16.160  14.398
33700W        W97908  11.661   9.688  11.047
33701W        W97909  15.722  36.897  14.483
33702W        W97910  38.529  41.921   3.300
33703W        W97911  13.771  22.703  11.889
33704W        W97912  14.142  23.993   4.671
33705W        W97913   5.198  37.525   1.436
33706W        W97914  30.058  15.766   0.360
33707W        W97915  38.362  33.927  11.435
33708W        W97916  15.088   7.734   1.787
33709W        W97917  11.753  30.126  14.935
33710W        W97918  14.794  10.663  13.381
33711W        W97919  39.558  18.567  13.985
33712W        W97920   6.910   3.925   3.760
33713W        W97921  15.181   1.318  12.399
33714W        W97922   9.272  41.530  11.514
33715W        W97923  31.466  31.564  10.980
33716W        W97924   4.227   3.852  12.965
33717W        W97925  31.007  43.853   0.403
33718W        W97926   3.348  42.310   3.192
33719W        W97927  16.228  42.976   4.649
33720W        W97928  17.646   8.729  10.565
33721W        W97929  29.661  18.790   1.838
33722W        W97930  38.844   8.402   3.190
33723W        W97931  27.182  37.423   4.613
33724W        W97932   5.431  12.673  10.981
33725W        W97933  36.990  18.655  10.619
33726W        W97934   7.776  11.355   0.831
33727W        W97935  18.089   9.206   2.210
33728W        W97936  18.168  32.116  13.891
33729W        W97937  28.524  20.669  11.414
33730W        W97938  35.470  11.205   4.697
33731W        W97939  23.158  22.706  14.362
33732W        W97940  35.903  11.846  12.089
33733W        W97941  19.667  23.522  12.897
33734W        W97942  10.200  15.629  11.462
33735W        W97943  20.702  38.438   5.172
33736W        W97944  35.997  43.399  14.883
33737W        W97945  16.212  15.649  12.826
33738W        W97946  29.512   2.790  14.459
33739W        W97947  12.128  20.743   0.260
33740W        W97948  17.293   5.925   9.450
33741W        W97949  15.268  19.129  14.026
33742W        W97950  39.480  24.709  13.519
33743W        W97951   9.812  10.730   2.250
33744W        W97952  37.884  17.125   2.325
33745W        W97953  22.549  31.631  11.606
33746W        W97954  35.412  14.201   3.155
33747W        W97955  26.094  35.098  13.393
33748W        W97956  44.505  34.413  14.922
33749W        W97957  20.640  24.714  10.642
33750W        W97958  11.803   2.944  11.925
33751W        W97959   1.262  23.131  11.477
33752W        W97960  39.333  10.349  13.885
33753W        W97961  35.433  40.412  12.977
33754W        W97962  28.010  15.283   3.827
33755W        W97963  19.675  39.519  10.428
33756W        W97964  37.024   1.849  12.079
33757W        W97965   6.758   2.841   2.279
33758W        W97966   0.945  28.532  14.405
33759W        W97967   9.329  40.921   4.327
33760W        W97968   7.846  25.513  14.840
33761W        W97969  12.783  25.038   4.683
33762W        W97970  24.656  19.162   2.663
33763W        W97971  35.451  19.088  12.880
33764W        W97972  26.650  16.735   0.245
33765W        W97973   8.732  43.876   3.209
33766W        W97974  11.646   4.368  12.882
33767W        W97975  40.030  36.098   3.211
33768W        W97976  22.609  26.123  12.900
33769W        W97977   4.241  44.925   1.744
33770W        W97978  12.737  18.067   0.315
33771W        W97979  39.967  15.716  14.414
33772W        W97980  43.999  11.739  11.062
33773W        W97981  38.454   4.223  13.028
33774W        W97982  33.107  41.447   0.817
33775W        W97983  31.559  22.019   1.303
33776W        W97984  33.029  30.526   0.421
33777W        W97985  27.038  39.366   3.282
33778W        W97986  35.003   1.246   2.234
33779W        W97987   9.764  25.075   0.787
33780W        W97988  42.512   3.338   1.386
33781W        W97989  24.028  11.836   3.291
33782W        W97990  32.965  42.425   2.384
33783W        W97991  23.498  43.768  14.986
33784W        W97992  17.776  14.218  13.993
33785W        W97993  40.469  27.027  10.900
33786W        W97994   1.400  20.084   2.678
33787W        W97995  38.041  32.543   4.340
33788W        W97996  29.598  40.027   4.251
33789W        W97997   8.194  31.451   4.297
33790W        W97998  15.297  23.124   2.418
33791W        W97999   5.702  33.610   2.733
33792W        W98000  16.291  11.796   4.622
33793W        W98001  41.318  31.108   1.876
33794W        W98002   5.246  32.993  14.506
33795W        W98003  33.875  18.635  13.446
33796W        W98004  38.372  26.669   4.708
33797W        W98005  26.669   8.657   0.371
33798W        W98006  18.739   0.823   3.326
33799W        W98007  33.391   8.333   4.810
33800W        W98008  42.400  23.550  11.073
33801W        W98009  17.258  36.401  14.767
33802W        W98010   0.476   9.187  12.084
33803W        W98011  40.958  44.776   3.382
33804W        W98012  31.051  29.161   2.410
33805W        W98013  10.642  21.209   1.755
33806W        W98014  16.177   6.776  11.576
33807W        W98015  12.360   6.745  12.976
33808W        W98016  17.662  15.597   0.349
33809W        W98017   6.763  27.026   0.890
33810W        W98018  27.159   7.791  11.940
33811W        W98019  21.694  26.063  12.963
33812W        W98020  35.082  37.962   0.266
33813W        W98021  15.819  21.639   3.654
33814W        W98022  27.184  16.095  11.909
33815W        W98023  15.677  11.241  10.413
33816W        W98024  30.551   8.793  14.321
33817W        W98025  13.297  40.416  13.920
33818W        W98026  44.865  27.656  12.961
33819W        W98027   2.288  15.813   1.706
33820W        W98028   5.259  20.698   1.432
33821W        W98029  16.724  31.447   4.619
33822W        W98030   9.239  41.346   3.284
33823W        W98031  25.650  25.178   0.267
33824W        W98032   8.287   3.222   4.765
33825W        W98033   0.846  40.797   1.414
33826W        W98034  18.612  17.613  13.471
33827W        W98035  17.711  27.492  14.431
33828W        W98036  18.572  30.524  14.949
33829W        W98037   3.401  35.088   5.170
33830W        W98038   8.212  24.682  11.471
33831W        W98039  27.640  24.981  14.392
33832W        W98040  14.198  31.518  13.896
33833W        W98041  19.194   1.973   2.833
33834W        W98042  11.725  24.622   1.414
33835W        W98043  14.638  32.061   5.180
33836W        W98044  44.482  20.695   0.334
33837W        W98045   3.821  34.021   4.301
33838W        W98046  34.049  12.220   1.238
33839W        W98047  18.722  14.134   3.812
33840W        W98048  11.632   2.908   4.162
33841W        W98049  23.208  11.655  14.481
33842W        W98050  25.153  40.848   4.750
33843W        W98051  42.927  14.147   3.713
33844W        W98052  43.392  35.959  11.488
33845W        W98053   7.239  31.098   0.926
33846W        W98054   5.803  37.482  11.488
33847W        W98055  31.069  15.638  13.902
33848W        W98056  37.850  25.690   2.413
33849W        W98057  18.098  19.061   3.833
33850W        W98058  11.709  33.555  11.882
33851W        W98059  38.523  26.581   0.859
33852W        W98060  43.432  35.924   3.304
33853W        W98061  37.430  40.549   2.394
33854W        W98062  31.152   1.286   0.443
33855W        W98063  37.897  42.950  12.859
33856W        W98064  35.394  11.778  12.474
33857W        W98065  15.109  10.672  12.900
33858W        W98066  19.537   6.765   4.200
33859W        W98067   7.672   6.289  14.969
33860W        W98068   8.858  23.524   3.759
33861W        W98069  33.044   0.334   3.819
33862W        W98070  33.483  18.162  10.042
33863W        W98071  25.614  28.635   3.242
33864W        W98072  24.098  10.833  10.970
33865W        W98073   9.826  37.871   0.898
33866W        W98074  39.820   6.283   2.227
33867W        W98075  16.280  20.571  10.421
33868W        W98076   7.278  14.711   2.370
33869W        W98077  40.447  29.082   3.633
33870W        W98078  22.194  19.622  12.876
33871W        W98079   3.353  11.778  12.997
33872W        W98080  29.437   0.786  10.978
33873W        W98081   6.215  17.267   0.360
33874W        W98082  43.336  23.513  13.367
33875W        W98083  14.115  30.144  10.494
33876W        W98084  33.539  20.061  13.490
33877W        W98085  29.001  23.552   3.695
33878W        W98086  43.815  16.208   2.679
33879W        W98087   8.323  34.418   3.751
33880W        W98088  15.280  22.612  12.410
33881W        W98089  37.036  15.604   3.192
33882W        W98090  15.692  12.228   3.809
33883W        W98091  17.572  30.988   3.866
33884W        W98092  11.793   1.940  10.134
33885W        W98093  17.716  36.587   5.298
33886W        W98094  12.340  21.263  12.028
33887W        W98095   1.413  25.475   4.174
33888W        W98096  33.121  23.124   1.268
33889W        W98097   8.679  23.706   3.373
33890W        W98098  27.620  26.655   2.756
33891W        W98099   0.805  34.544  12.431
33892W        W98100  27.193  37.400   1.440
33893W        W98101  44.841  19.746   2.898
33894W        W98102  26.525  29.541  11.945
33895W        W98103  23.712   0.965   3.160
33896W        W98104  17.719  28.113   4.716
33897W        W98105   5.352  20.706  12.430
33898W        W98106  31.552   5.846  13.403
33899W        W98107  17.599  34.100  10.992
33900W        W98108  32.092  12.692   4.766
33901W        W98109  39.401  32.956  12.895
33902W        W98110  12.763  10.797  10.513
33903W        W98111   3.442  21.710  12.459
33904W        W98112  15.743  20.224   3.678
33905W        W98113  12.243  21.581   1.812
33906W        W98114  30.106   2.461  11.066
33907W        W98115   3.215   0.258   4.646
33908W        W98116  28.123  43.872   1.379
33909W        W98117  30.474  40.306   4.335
33910W        W98118  32.491  25.098   3.379
33911W        W98119   6.395   6.428  14.010
33912W        W98120   2.928  20.588   0.795
33913W        W98121  22.716  42.930  12.942
33914W        W98122   2.862  27.089  11.553
33915W        W98123  10.284   8.729   2.865
33916W        W98124   6.878  31.907  14.447
33917W        W98125   9.813  22.092  13.425
33918W        W98126  18.668   7.246  11.411
33919W        W98127  32.099  15.624  10.895
33920W        W98128  22.567  27.462  10.437
33921W        W98129  23.041  24.519  14.796
33922W        W98130  41.514  29.036  13.333
33923W        W98131   2.278  38.841   2.784
33924W        W98132  42.892   9.801  11.942
33925W        W98133  25.199  12.359   4.621
33926W        W98134  21.156  11.624   3.201
33927W        W98135  31.108  37.055  10.508
33928W        W98136  17.290  30.646   2.224
33929W        W98137  18.187  27.644  13.397
33930W        W98138  27.056   1.789  14.469
33931W        W98139   1.290   4.315  12.086
33932W        W98140   7.760  20.587  14.022
33933W        W98141  23.704  11.665  14.414
33934W        W98142  25.215  40.475  14.941
33935W        W98143  24.664  16.106  12.447
33936W        W98144  14.109   2.429   0.837
33937W        W98145  14.183  18.602   1.236
33938W        W98146  19.662  41.927  11.029
33939W        W98147  27.591   5.751   1.286
33940W        W98148  31.943  32.572  10.411
33941W        W98149  14.211  34.977   0.354
33942W        W98150  17.752   8.189  14.282
33943W        W98151  10.838   7.902   3.715
33944W        W98152  40.798  23.134  10.568
33945W        W98153   2.332  25.677   4.771
33946W        W98154  31.614  12.224  12.013
33947W        W98155  14.668  33.979   1.817
33948W        W98156  15.086  26.479   3.845
33949W        W98157  14.209   9.151   0.257
33950W        W98158   1.281  19.188   2.391
33951W        W98159   1.297  24.203  10.417
33952W        W98160  38.477  20.600   9.636
33953W        W98161  37.363  34.940  12.084
33954W        W98162   4.781   9.859  11.872
33955W        W98163  43.903   1.267  11.409
33956W        W98164   0.845  33.570   4.729
33957W        W98165   9.752  12.855   1.227
33958W        W98166  14.622  33.963   4.149
33959W        W98167   1.381   6.402  12.419
33960W        W98168  26.694  11.209   0.351
33961W        W98169  35.936  23.705  10.626
33962W        W98170  17.754  29.463  11.387
33963W        W98171  38.413  32.994   1.740
33964W        W98172   3.417   2.368  10.120
33965W        W98173   6.754  32.427   0.325
33966W        W98174  42.430  15.660  11.092
33967W        W98175  28.163  12.653   5.220
33968W        W98176  35.575  37.935  13.488
33969W        W98177  38.419  25.624   3.738
33970W        W98178  33.957  43.281  12.020
33971W        W98179  39.865  13.183  10.529
33972W        W98180  21.631  34.492   0.365
33973W        W98181  20.724  30.522   2.207
33974W        W98182  35.088  21.709  11.101
33975W        W98183  23.103  35.079   1.897
33976W        W98184  36.925  20.186   4.336
33977W        W98185  16.708  44.409   0.958
33978W        W98186  25.004   4.335  10.645
33979W        W98187  20.044  36.874  11.420
33980W        W98188  42.331  36.440   4.288
33981W        W98189   8.251  25.146   3.288
33982W        W98190  20.584  27.682   4.609
33983W        W98191  44.406  25.130   5.087
33984W        W98192  21.261  34.482  13.797
33985W        W98193  19.669  21.549  11.526
33986W        W98194  40.835  32.101   3.842
33987W        W98195   4.318   6.380   1.269
33988W        W98196  24.685  15.808   1.712
33989W        W98197   0.300  30.981   2.858
33990W        W98198  23.628  34.999   2.795
33991W        W98199  41.435  25.179   4.145
33992W        W98200  20.133   5.734   0.256
33993W        W98201  25.962   7.896   2.250
33994W        W98202  27.187   1.413  12.995
33995W        W98203  13.620  17.732  14.800
33996W        W98204  38.053   8.708   4.773
33997W        W98205  16.279  23.227   1.425
33998W        W98206   8.764   6.286   0.244
33999W        W98207  23.156   4.889   2.340
34000W        W98208  25.474  30.582  14.849
34001W        W98209  20.748  23.199  11.872
34002W        W98210  34.917  23.232  11.052
34003W        W98211   6.812  37.453  12.969
34004W        W98212  18.658  25.970   2.281
34005W        W98213   5.842  26.664   1.291
34006W        W98214  19.213  18.107   1.698
34007W        W98215  27.104  38.047  12.025
34008W        W98216  40.392  21.189  12.083
34009W        W98217  16.590  13.267   2.355
34010W        W98218   3.408  19.542  13.045
34011W        W98219   0.911  18.111  14.398
34012W        W98220   2.859  15.629   3.689
34013W        W98221  29.581  43.956   3.340
34014W        W98222  30.030  43.836   3.814
34015W        W98223  18.593   8.666   1.836
34016W        W98224  14.271  32.886  14.370
34017W        W98225   9.253  31.971   0.280
34018W        W98226  25.655  34.961   1.839
34019W        W98227  22.216  15.132  14.815
34020W        W98228  11.775  16.092  12.388
34021W        W98229  14.213  28.970  13.839
34022W        W98230  32.125   1.916   1.434
34023W        W98231  36.849   4.420   9.448
34024W        W98232  23.209  44.346  14.827
34025W        W98233  27.041   0.409  12.529
34026W        W98234  17.220  20.174  10.956
34027W        W98235  39.356  36.056   3.775
34028W        W98236   3.401  18.718  14.835
34029W        W98237  34.911  21.156   3.315
34030W        W98238  25.188  19.273  13.377
34031W        W98239  11.253  39.998   4.177
34032W        W98240   2.301  21.683  14.957
34033W        W98241  23.185  42.303  13.846
34034W        W98242   1.952  33.899  11.083
34035W        W98243  39.822  17.617   3.157
34036W        W98244  29.941  11.653   2.265
34037W        W98245  27.976   1.303  14.393
34038W        W98246  33.401  13.739   0.246
34039W        W98247  12.657  12.653   4.287
34040W        W98248  34.887  24.654  10.518
34041W        W98249  36.853  34.560  12.912
34042W        W98250   2.270   7.794  11.919
34043W        W98251   2.883  30.482   2.821
34044W        W98252  36.489   4.431   4.658
34045W        W98253  36.956  21.670   2.309
34046W        W98254  30.431  20.551   0.926
34047W        W98255  18.613  14.321  12.489
34048W        W98256  29.093  33.533  13.324
34049W        W98257  22.173  12.739  11.950
34050W        W98258   4.387  21.152  13.007
34051W        W98259  26.099  13.647  11.412
34052W        W98260   0.843  27.496   3.740
34053W        W98261  20.740  19.779   1.852
34054W        W98262  43.926  32.556  12.885
34055W        W98263  42.019   7.196  12.457
34056W        W98264   7.266  11.128  14.426
34057W        W98265  21.684  34.447  13.462
34058W        W98266  40.544  33.012  10.440
34059W        W98267  26.049  29.069  10.481
34060W        W98268  21.582  36.903  14.987
34061W        W98269  10.346  21.141   3.716
34062W        W98270  11.355  23.504   2.295
34063W        W98271  17.789  21.571   2.384
34064W        W98272  18.758   5.900   1.887
34065W        W98273  44.832  21.164  13.884
34066W        W98274  41.797  19.751   2.352
34067W        W98275   5.903  39.833   2.848
34068W        W98276  30.504  31.455   3.269
34069W        W98277  42.476  43.018  14.488
34070W        W98278  18.583  14.235   2.718
34071W        W98279  29.099  32.128   3.219
34072W        W98280   8.365  23.500  14.406
34073W        W98281  37.508  40.888   2.816
34074W        W98282  23.055  37.564   3.152
34075W        W98283   9.378   2.846  14.802
34076W        W98284  20.101  18.726   3.352
34077W        W98285  40.326   2.797  11.446
34078W        W98286  23.589  28.146   0.753
34079W        W98287   2.849  12.655   0.800
34080W        W98288  27.091   1.901  13.427
34081W        W98289  24.055  40.929   0.958
34082W        W98290  18.196  25.661   2.679
34083W        W98291   5.927  38.067   0.904
34084W        W98292  31.634  39.441   4.278
34085W        W98293  38.025  44.421  10.551
34086W        W98294  38.443   2.729   1.423
34087W        W98295   0.357  29.135   0.250
34088W        W98296   3.936  22.624   0.897
34089W        W98297   6.809  21.074   2.867
34090W        W98298   4.857  12.234  13.927
34091W        W98299  44.790   8.685   0.727
34092W        W98300  19.171  10.261   4.136
34093W        W98301  25.479  26.104  10.444
34094W        W98302  43.962   6.892  10.969
34095W        W98303   9.309  22.022  14.031
34096W        W98304  40.548  41.982   3.222
34097W        W98305  25.999  38.404   4.741
34098W        W98306   2.310  41.309   0.454
34099W        W98307  36.865  22.612  11.474
34100W        W98308  32.885  30.547   2.390
34101W        W98309  19.165  16.281   4.685
34102W        W98310  28.471  13.657  10.988
34103W        W98311  42.322   1.347  11.414
34104W        W98312  16.157  10.203  10.063
34105W        W98313  28.616  15.218  10.484
34106W        W98314  29.105   2.816   0.840
34107W        W98315  28.174   0.940   4.791
34108W        W98316   8.403  43.294   2.711
34109W        W98317  13.166  37.373  10.020
34110W        W98318  33.407   8.279  10.636
34111W        W98319  38.494  35.034  10.430
34112W        W98320  18.102  33.051   3.218
34113W        W98321  24.182  22.714   0.398
34114W        W98322  24.560  34.578   0.903
34115W        W98323   4.928  19.186  12.898
34116W        W98324  42.994  18.122   1.318
34117W        W98325  14.786  25.077  12.380
34118W        W98326  39.429  25.170  12.482
34119W        W98327  27.052   9.861   3.785
34120W        W98328  37.043  42.493   3.234
34121W        W98329  44.419   6.346   0.253
34122W        W98330  19.650  36.949  11.484
34123W        W98331  12.643  25.030  11.518
34124W        W98332  16.760   2.944  11.481
34125W        W98333  24.026  27.143  14.335
34126W        W98334   9.735  21.700   4.118
34127W        W98335  32.950  28.460   4.629
34128W        W98336   9.814  44.461   2.879
34129W        W98337  42.484  30.052  10.041
34130W        W98338  14.791  42.818   3.688
34131W        W98339  12.131  10.873  13.841
34132W        W98340  44.770   9.720   0.270
34133W        W98341  18.189  15.183   2.387
34134W        W98342  32.434   0.452  10.603
34135W        W98343  38.519  32.031  10.474
34136W        W98344   1.803   3.730   4.624
34137W        W98345  26.675  12.734   2.273
34138W        W98346  28.620  44.893  13.848
34139W        W98347  35.473  25.121   2.771
34140W        W98348  20.598   3.724   9.648
34141W        W98349  27.494  12.664   2.873
34142W        W98350  36.077  35.011  10.935
34143W        W98351  42.992  42.843  12.042
34144W        W98352   7.247  15.741   4.804
34145W        W98353  12.679  13.824  10.054
34146W        W98354  44.258  23.668  13.540
34147W        W98355  36.486  17.135  13.796
34148W        W98356   5.233  21.247  12.837
34149W        W98357  38.455  39.912  13.802
34150W        W98358  14.328  34.018  11.942
34151W        W98359  14.627  38.379   3.702
34152W        W98360  17.252  18.214  12.929
34153W        W98361  41.338  18.622  11.909
34154W        W98362  12.343  18.701  11.575
34155W        W98363  30.635   0.930  14.322
34156W        W98364   9.646  17.078   4.319
34157W        W98365  11.831  28.993  11.485
34158W        W98366   8.394   4.928  14.014
34159W        W98367  14.277  37.570   4.175
34160W        W98368  30.571  24.063   3.666
34161W        W98369  31.066   3.236  12.536
34162W        W98370  25.689  38.993  14.301
34163W        W98371   0.751  25.672  12.859
34164W        W98372   7.747  36.364   1.852
34165W        W98373  14.741  41.890  10.517
34166W        W98374   4.299  27.616   4.649
34167W        W98375  16.164  15.814  11.055
34168W        W98376  22.578   8.316   3.353
34169W        W98377  23.052  16.164   2.765
34170W        W98378  19.094  21.068   3.810
34171W        W98379  38.008  14.659   3.333
34172W        W98380  36.008  42.898  12.472
34173W        W98381  24.199  38.502  11.602
34174W        W98382  29.157  33.024   3.371
34175W        W98383  16.197  40.518   2.218
34176W        W98384  25.511  28.064  11.014
34177W        W98385  18.564  14.686  12.075
34178W        W98386  35.020   6.421   2.782
34179W        W98387   7.762  29.157   1.862
34180W        W98388  24.665  40.869   1.861
34181W        W98389   9.307  40.914  14.887
34182W        W98390  38.518  33.488  11.064
34183W        W98391   2.894  37.518  12.858
34184W        W98392  31.040   4.778   4.816
34185W        W98393  40.911   2.381  13.970
34186W        W98394  39.841  13.346   0.859
34187W        W98395  33.553   2.313  12.960
34188W        W98396  25.589  19.101  12.351
34189W        W98397  13.697  30.066   2.750
34190W        W98398   4.776  38.005   1.333
34191W        W98399  44.881  23.628   3.748
34192W        W98400  30.920  34.009   3.286
34193W        W98401  13.760  42.342   0.355
34194W        W98402  11.130  11.819   2.883
34195W        W98403  18.063  36.994  11.040
34196W        W98404  32.623  39.846  13.045
34197W        W98405  22.645  24.060  14.433
34198W        W98406  38.051  20.531  11.570
34199W        W98407  19.768  22.187   1.862
34200W        W98408  24.102  38.543  13.992
34201W        W98409  26.536  41.505   2.280
34202W        W98410  26.130   0.381  14.307
34203W        W98411  29.079  35.396  14.514
34204W        W98412   1.739  44.456  14.010
34205W        W98413  33.902  19.051   2.793
34206W        W98414  24.640  39.406   2.688
34207W        W98415  42.497   0.971  12.836
34208W        W98416  32.562   4.448  13.484
34209W        W98417  18.660  18.276   1.745
34210W        W98418  28.163   3.338   2.315
34211W        W98419  23.161  35.475   2.242
34212W        W98420  22.562  33.539  12.855
34213W        W98421  19.258   9.394  12.528
34214W        W98422   1.921   3.367   3.191
34215W        W98423  16.206   0.445   4.773
34216W        W98424   1.381  31.973   2.733
34217W        W98425   5.334  37.523   0.453
34218W        W98426  31.997   1.765   9.991
34219W        W98427   4.446   4.794  11.975
34220W        W98428   0.490   8.306  11.924
34221W        W98429  38.416  19.628  14.492
34222W        W98430  17.793  18.635   1.315
34223W        W98431  31.577  33.447   3.838
34224W        W98432  24.697   8.738  11.386
34225W        W98433  34.903  25.204  12.059
34226W        W98434  44.938   9.327  10.439
34227W        W98435   5.919  39.540   3.360
34228W        W98436  31.591   9.155   3.383
34229W        W98437   0.919  19.703  11.450
34230W        W98438   6.681  20.250  10.891
34231W        W98439  16.677  11.828   4.799
34232W        W98440  13.108  18.670   2.711
34233W        W98441  13.318  29.009  11.972
34234W        W98442   1.791  38.427   1.764
34235W        W98443  19.602  14.097  12.845
34236W        W98444  30.416  13.705   5.619
34237W        W98445  28.090  14.179   4.253
34238W        W98446  21.089   0.388   2.257
34239W        W98447  34.097  39.856  13.041
34240W        W98448  20.119   8.742   2.715
34241W        W98449  10.668  22.706  10.992
34242W        W98450  10.730  31.601  11.961
34243W        W98451  24.666  44.299   0.813
34244W        W98452  14.328  44.332  14.446
34245W        W98453  20.749  33.549  13.809
34246W        W98454  31.506   2.820  13.526
34247W        W98455  18.140  25.651   1.883
34248W        W98456  37.505   0.342   3.697
34249W        W98457  21.574  36.859   0.458
34250W        W98458  37.011  24.979   1.890
34251W        W98459   5.841  17.244   1.824
34252W        W98460  11.260  22.597  13.433
34253W        W98461   9.256  23.653  13.803
34254W        W98462   8.839  42.298  10.938
34255W        W98463  19.651  27.457   3.146
34256W        W98464  18.700  13.135   1.312
34257W        W98465   7.347   5.308  14.898
34258W        W98466   0.904  20.558  12.911
34259W        W98467  21.719  38.895  11.863
34260W        W98468   0.284   6.256  10.928
34261W        W98469  14.614  31.603  13.503
34262W        W98470  36.571   0.291  14.934
34263W        W98471  10.269  25.047  14.900
34264W        W98472   1.470  32.055  13.324
34265W        W98473  24.574  26.693   3.708
34266W        W98474   4.803  19.645   0.388
34267W        W98475  42.454  35.938  13.367
34268W        W98476   9.298  21.222  12.354
34269W        W98477  15.635  35.878  11.371
34270W        W98478   1.286  30.631  13.485
34271W        W98479  16.670   7.670  12.355
34272W        W98480  28.933  24.636   4.762
34273W        W98481  21.705  43.471   2.855
34274W        W98482  32.429  11.626   3.361
34275W        W98483   3.431  13.667  10.582
34276W        W98484  22.052  10.686  11.000
34277W        W98485  13.764  39.060   2.295
34278W        W98486   6.869  31.115  12.046
34279W        W98487  31.549  44.922   3.631
34280W        W98488  29.985  12.851   3.644
34281W        W98489  35.574  20.028  12.868
34282W        W98490  13.123  34.875   2.801
34283W        W98491  14.725  14.816  11.058
34284W        W98492  30.558  31.460   0.756
34285W        W98493  19.110  19.551  13.005
34286W        W98494  41.381  23.530   0.759
34287W        W98495  28.460  34.535   0.438
34288W        W98496  12.230   3.415  12.954
34289W        W98497   6.892  41.520  10.994
34290W        W98498  23.158  16.666   9.445
34291W        W98499  20.235   5.405  12.497
34292W        W98500  18.758  26.610   3.338
34293W        W98501  43.425   6.212   3.866
34294W        W98502  19.633   5.240   3.702
34295W        W98503  27.667  17.116  13.312
34296W        W98504  13.681  22.698   4.815
34297W        W98505  41.794   7.262  14.879
34298W        W98506  25.161  43.945   2.885
34299W        W98507  44.887  31.977   0.446
34300W        W98508  12.351  10.365   4.194
34301W        W98509   2.784   3.902   2.880
34302W        W98510  27.602  43.366   3.687
34303W        W98511   4.397   7.763   4.671
34304W        W98512  29.947  22.696  11.890
34305W        W98513  11.786  27.541   2.666
34306W        W98514  17.069  10.674   9.928
34307W        W98515  12.807  27.027  12.561
34308W        W98516  44.374  11.211  14.833
34309W        W98517  37.353  20.059  12.058
34310W        W98518  31.091  42.504   4.192
34311W        W98519  15.166  40.311  11.101
34312W        W98520  28.472   4.234  11.045
34313W        W98521  15.742  19.093   2.676
34314W        W98522  43.890  30.570  12.536
34315W        W98523  18.144  37.429  10.988
34316W        W98524  18.741  28.551   0.865
34317W        W98525   2.408   0.831  14.461
34318W        W98526   0.824  44.406  11.397
34319W        W98527  25.657  44.909   3.174
34320W        W98528   2.447  24.646   2.218
34321W        W98529  29.590  23.653  12.887
34322W        W98530   5.877  40.342   1.248
34323W        W98531  41.910  27.971  13.377
34324W        W98532  39.814   0.371   9.920
34325W        W98533  17.186  25.516   2.853
34326W        W98534  42.871   1.851  10.132
34327W        W98535  14.655   3.294  12.554
34328W        W98536  16.805  44.817  14.282
34329W        W98537  12.723  12.735   0.409
34330W        W98538  36.522  13.719   3.182
34331W        W98539   8.367  26.697   0.752
34332W        W98540  36.576  25.573  14.961
34333W        W98541  35.474  15.253  10.484
34334W        W98542  42.361  18.284   4.208
34335W        W98543  30.036  36.999  12.875
34336W        W98544  23.597   3.831  10.449
34337W        W98545  41.956  20.200   4.313
34338W        W98546  39.361  36.388   4.190
34339W        W98547  13.324   1.922   4.343
34340W        W98548  28.034  34.961   0.465
34341W        W98549  13.825  27.476   4.128
34342W        W98550   1.279   1.796   3.281
34343W        W98551  30.934  20.573  11.399
34344W        W98552  27.596  39.957   4.165
34345W        W98553  40.802  16.257   1.254
34346W        W98554  11.762  26.050  14.319
34347W        W98555  44.286  17.721  13.326
34348W        W98556  44.794   3.752  11.383
34349W        W98557  14.212   5.425   3.234
34350W        W98558  18.653   2.897  11.481
34351W        W98559  44.907  10.806   1.871
34352W        W98560   1.436  28.555  13.385
34353W        W98561   0.254  43.459   4.322
34354W        W98562  33.510  25.581  14.317
34355W        W98563  43.772   9.770  14.869
34356W        W98564  11.663  14.258  11.483
34357W        W98565   0.452  19.195   2.770
34358W        W98566   7.411  22.693  12.845
34359W        W98567   5.748  20.765   2.861
34360W        W98568  19.261  36.044  11.118
34361W        W98569  22.508  22.596  11.381
34362W        W98570  40.343  24.632  11.123
34363W        W98571   3.906  18.776  10.964
34364W        W98572   9.885   7.275   2.203
34365W        W98573  10.773  11.225  13.500
34366W        W98574  30.430  33.524  12.981
34367W        W98575  35.365  36.529   4.824
34368W        W98576  22.014  27.494   1.718
34369W        W98577  32.024  10.338  13.968
34370W        W98578  11.839   1.480   0.936
34371W        W98579  12.821  23.609   4.177
34372W        W98580  24.082  35.472  12.998
34373W        W98581  35.527  10.803   0.282
34374W        W98582  39.020   3.310  12.966
34375W        W98583  41.947  10.804  14.802
34376W        W98584  10.652  31.018  12.414
34377W        W98585  17.648  20.041  10.415
34378W        W98586   2.913  17.704   3.782
34379W        W98587  15.122  40.835  14.858
34380W        W98588   6.868  14.154  10.502
34381W        W98589  15.754   4.714  13.041
34382W        W98590  20.678  21.617  13.525
34383W        W98591   2.386   1.797  10.624
34384W        W98592  33.605  38.993  10.978
34385W        W98593  38.072  33.875   4.186
34386W        W98594  22.550  19.096  13.985
34387W        W98595  44.446   4.410  10.631
34388W        W98596  39.394  43.941  11.000
34389W        W98597   4.789   2.266   0.747
34390W        W98598  14.754  28.630  13.443
34391W        W98599   3.423   7.759   2.797
34392W        W98600  12.711   7.328  10.890
34393W        W98601  30.048  38.968  10.981
34394W        W98602  14.634   2.801  12.353
34395W        W98603  32.623  40.995  14.838
34396W        W98604  23.710  21.057   3.253
34397W        W98605   1.768  15.151   3.370
34398W        W98606  17.236  40.463   4.244
34399W        W98607  21.020  18.237   0.794
34400W        W98608  31.944  12.342  12.528
34401W        W98609  32.441  23.165   2.865
34402W        W98610  30.552  38.355   2.721
34403W        W98611  18.571  16.131   0.463
34404W        W98612  23.984  32.976  14.413
34405W        W98613  37.553  24.183  14.947
34406W        W98614  10.335  13.123  14.814
34407W        W98615  38.424  12.217  12.907
34408W        W98616  15.739  43.993  11.007
34409W        W98617   4.928   0.815   2.661
34410W        W98618   6.760  40.990   1.239
34411W        W98619  31.987  13.170  11.602
34412W        W98620  24.975  34.005   2.245
34413W        W98621   8.271  36.396  13.498
34414W        W98622  38.938  44.315  11.979
34415W        W98623   5.333   2.874  11.126
34416W        W98624  21.704  16.214   0.435
34417W        W98625  11.688  43.812   2.795
34418W        W98626  32.965  40.377  14.361
34419W        W98627   7.672   7.709  12.050
34420W        W98628   3.306   7.190  12.072
34421W        W98629  41.509  24.018   4.818
34422W        W98630  44.883  26.471  10.592
34423W        W98631  36.020  18.782   2.750
34424W        W98632  37.849  35.985  14.912
34425W        W98633  42.464  43.882  14.869
34426W        W98634   7.846  12.173   0.910
34427W        W98635  32.120   8.691   2.221
34428W        W98636  24.534  13.153  14.377
34429W        W98637  25.506  10.213   0.735
34430W        W98638  37.452  40.516  10.923
34431W        W98639  10.383  23.183  14.307
34432W        W98640  31.572  19.088  14.849
34433W        W98641  42.785  30.038  12.963
34434W        W98642  27.994  25.027  12.024
34435W        W98643  35.486  25.688   3.866
34436W        W98644   3.395  36.962   0.323
34437W        W98645  40.496  42.346   3.847
34438W        W98646  43.801  36.924   0.958
34439W        W98647   9.305  20.066  13.021
34440W        W98648  12.714   7.777   0.752
34441W        W98649  42.007  18.641  12.380
34442W        W98650  33.411  18.667   4.157
34443W        W98651  42.952  17.674  10.081
34444W        W98652  39.911  12.830  10.948
34445W        W98653  15.238  34.935   4.792
34446W        W98654   1.465  11.276  10.554
34447W        W98655  31.962  11.342   3.645
34448W        W98656  37.839   8.359   0.270
34449W        W98657  16.290  27.679  10.945
34450W        W98658   8.900  39.494   3.842
34451W        W98659  23.111  16.174   5.147
34452W        W98660  10.303  20.630   1.369
34453W        W98661  27.530   8.853   3.184
34454W        W98662   3.942  15.600  10.517
34455W        W98663  11.369   6.272  14.838
34456W        W98664  24.163   0.839  11.421
34457W        W98665  28.016  28.130  10.414
34458W        W98666  11.762   8.352   4.625
34459W        W98667   6.826  41.303   4.757
34460W        W98668  17.281  42.355  14.881
34461W        W98669  31.592   0.846   2.264
34462W        W98670  17.728  40.490  13.842
34463W        W98671  24.539  13.335  13.327
34464W        W98672  43.784  23.238  11.109
34465W        W98673  34.970  11.266  13.520
34466W        W98674  29.092   1.875  12.950
34467W        W98675  22.240  12.357   1.269
34468W        W98676  36.931  44.363  13.382
34469W        W98677   3.711  27.945   4.748
34470W        W98678  37.057   1.869   3.847
34471W        W98679  29.536  42.433   2.365
34472W        W98680  11.816  12.729   2.407
34473W        W98681  16.735  29.615   2.220
34474W        W98682  29.066  19.263   4.189
34475W        W98683  32.452   0.894   4.166
34476W        W98684  34.419  23.585  13.389
34477W        W98685   4.336  22.163   0.776
34478W        W98686  37.538   1.835  14.999
34479W        W98687  38.913   7.696   2.211
34480W        W98688  39.973  33.925   1.765
34481W        W98689   9.668   2.342   2.872
34482W        W98690  33.959  31.151  10.463
34483W        W98691   8.894  13.277  10.929
34484W        W98692  13.319   3.327   1.729
34485W        W98693  41.464  27.150  10.949
34486W        W98694  37.008  25.993  12.006
34487W        W98695  13.787  34.569  12.983
34488W        W98696  14.322  15.240  13.503
34489W        W98697  25.524  32.447  14.822
34490W        W98698  37.417  17.664   4.229
34491W        W98699  34.542  12.790   1.340
34492W        W98700   5.707  17.207   4.640
34493W        W98701  23.156  20.246  13.325
34494W        W98702  34.954  16.680   0.243
34495W        W98703  23.728  43.770   1.915
34496W        W98704  24.571  44.845  14.935
34497W        W98705   3.234  43.486   3.811
34498W        W98706   2.957  40.441   0.298
34499W        W98707  16.276   2.424   3.228
34500W        W98708  39.830   7.768   3.348
34501W        W98709  18.559   6.242  12.871
34502W        W98710  15.770  20.756  11.406
34503W        W98711  40.479  42.838   4.113
34504W        W98712  28.487  31.430   0.270
34505W        W98713   7.752  30.506  14.384
34506W        W98714  36.380   7.883  10.556
34507W        W98715  20.242  41.845   0.408
34508W        W98716  14.131   6.397   1.237
34509W        W98717  44.896  14.242  14.505
34510W        W98718  34.400  26.192   4.319
34511W        W98719  11.353  20.592   3.253
34512W        W98720  17.726  15.238   3.654
34513W        W98721  27.033  20.227  12.399
34514W        W98722  11.684  27.645   0.748
34515W        W98723  23.636   4.442   0.865
34516W        W98724  13.272  41.818   0.858
34517W        W98725  12.683  31.579  10.946
34518W        W98726   1.949  33.548   1.279
34519W        W98727  19.759  13.798  13.991
34520W        W98728   8.895  37.569   3.266
34521W        W98729  34.493  43.272   2.214
34522W        W98730   2.734  12.819  14.922
34523W        W98731  43.880  26.658  11.550
34524W        W98732  22.998  29.990  12.034
34525W        W98733  26.188  19.666   2.418
34526W        W98734  34.005  44.445   4.612
34527W        W98735  17.192  22.026   4.178
34528W        W98736  14.813  12.183   0.327
34529W        W98737  36.061  25.982   0.361
34530W        W98738   4.429  28.956  13.826
34531W        W98739   9.755   9.296  12.364
34532W        W98740  36.867  15.700  12.879
34533W        W98741  37.385  15.758   1.773
34534W        W98742  44.919  17.105  12.046
34535W        W98743  15.129  13.677   0.858
34536W        W98744  24.480  40.999   2.191
34537W        W98745  40.512   8.389  12.991
34538W        W98746  33.002  19.127  12.829
34539W        W98747  38.553   4.859   2.825
34540W        W98748  35.390  23.666  13.465
34541W        W98749  33.012  12.680   2.779
34542W        W98750   2.279  19.737  10.644
34543W        W98751   3.345  14.303  11.601
34544W        W98752  43.798   2.888   2.756
34545W        W98753  18.273  29.514  12.501
34546W        W98754  40.879   2.288  12.870
34547W        W98755  30.054  29.459   2.878
34548W        W98756  36.453  16.134  13.838
34549W        W98757  37.069  37.470  12.344
34550W        W98758  15.815  19.692  14.859
34551W        W98759  44.957  43.887   2.418
34552W        W98760  33.559  19.724  13.518
34553W        W98761   2.951  15.735   1.910
34554W        W98762  44.925   1.869  13.543
34555W        W98763  44.956  38.963  14.919
34556W        W98764  11.838  18.146   1.851
34557W        W98765   7.784  25.660   3.149
34558W        W98766  20.701  22.742   2.223
34559W        W98767   6.916  38.995  12.568
34560W        W98768   4.330   7.406  12.478
34561W        W98769  35.513  28.560   1.214
34562W        W98770   1.268  20.266  12.053
34563W        W98771  13.656  16.691  12.014
34564W        W98772  38.385  42.408  10.906
34565W        W98773  36.362  29.937  11.031
34566W        W98774  20.126  23.694  13.522
34567W        W98775  32.903  15.761   0.299
34568W        W98776  32.952  37.997   1.215
34569W        W98777  24.562  42.293   0.859
34570W        W98778   1.889  37.375  13.056
34571W        W98779  27.581  39.374  14.314
34572W        W98780  40.548  38.954   2.305
34573W        W98781  20.211  44.890   2.214
34574W        W98782   3.941  20.059   0.423
34575W        W98783  40.026  18.223  11.380
34576W        W98784  40.808  12.628   2.238
34577W        W98785  21.703  27.588  10.455
34578W        W98786  16.590  23.650   2.773
34579W        W98787  13.181  14.219  13.966
34580W        W98788  21.054  19.162  10.566
34581W        W98789  44.390  28.025  14.447
34582W        W98790  24.056  34.037  11.547
34583W        W98791  44.777   8.209  14.444
34584W        W98792  26.550  41.526  13.029
34585W        W98793  29.928  19.545  13.847
34586W        W98794  27.572   6.370   4.341
34587W        W98795  22.030  26.141   3.786
34588W        W98796  22.533  13.686  12.486
34589W        W98797  17.174  14.766   0.751
34590W        W98798  20.533  35.604   2.301
34591W        W98799   5.330  33.058   1.825
34592W        W98800  42.465  38.070  12.348
34593W        W98801  27.147  29.603  14.939
34594W        W98802  21.133  26.507  13.459
34595W        W98803  44.884  18.741   1.829
34596W        W98804  31.923   5.254   4.654
34597W        W98805  31.418  33.046  10.535
34598W        W98806   2.881  10.801   2.729
34599W        W98807  31.598   3.348  10.615
34600W        W98808  21.568  20.767  14.944
34601W        W98809  32.445  39.395   0.948
34602W        W98810  34.594  38.909  13.457
34603W        W98811  34.878  42.893  10.054
34604W        W98812  10.298  15.703  13.314
34605W        W98813  21.748  17.102  12.369
34606W        W98814   9.356  20.688  10.538
34607W        W98815  41.002   8.683   4.621
34608W        W98816  20.612  38.471  14.938
34609W        W98817   8.681  18.729   3.756
34610W        W98818  44.951  11.172   4.622
34611W        W98819  37.077  13.169   3.152
34612W        W98820  36.545  31.601   0.818
34613W        W98821  33.586  18.683  11.999
34614W        W98822  24.016  13.220  12.880
34615W        W98823   5.761   9.321   0.306
34616W        W98824  43.396  36.980   0.774
34617W        W98825  37.489   2.892   9.540
34618W        W98826  18.632  32.062  10.461
34619W        W98827  44.470  40.957  12.536
34620W        W98828   9.163  21.646   4.322
34621W        W98829  23.087  11.300   1.736
34622W        W98830   5.263   0.389   2.231
34623W        W98831  36.543  21.216  10.963
34624W        W98832  11.823   6.325   0.899
34625W        W98833   4.727   6.859   1.225
34626W        W98834   6.236  12.759   3.663
34627W        W98835   4.250  36.960  13.943
34628W        W98836  35.028  10.364   3.770
34629W        W98837  18.062   4.843  13.416
34630W        W98838  26.133  17.650  14.957
34631W        W98839  26.595   9.730  13.465
34632W        W98840   2.884  37.913  11.546
34633W        W98841  16.283  41.986  11.490
34634W        W98842   5.797  39.907   2.340
34635W        W98843  14.202   3.339  12.830
34636W        W98844  13.284   3.286   2.204
34637W        W98845  39.385  28.550  10.465
34638W        W98846  35.896  27.509  12.433
34639W        W98847  33.474  39.554   1.779
34640W        W98848  37.957   0.783  14.917
34641W        W98849  40.900  37.053  12.513
34642W        W98850   1.950  28.443  10.467
34643W        W98851   0.805   1.938  10.923
34644W        W98852  30.992  13.286  12.346
34645W        W98853  33.394  36.068  13.025
34646W        W98854   7.784  26.138  14.307
34647W        W98855  44.266  13.231   0.266
34648W        W98856  15.276  36.455  14.031
34649W        W98857  43.361  42.450   1.358
34650W        W98858  23.176  31.476  12.093
34651W        W98859   2.758  15.617   0.324
34652W        W98860  40.490  43.274  13.922
34653W        W98861   6.373  29.106   0.368
34654W        W98862  38.882  19.090  12.021
34655W        W98863  28.679  13.220   2.308
34656W        W98864  36.500  25.511  14.472
34657W        W98865  36.090  20.713  12.397
34658W        W98866  22.175  10.154  12.956
34659W        W98867   4.722  29.024  14.847
34660W        W98868  12.118  13.296  13.026
34661W        W98869   6.342  30.591  10.556
34662W        W98870   4.917  24.168  11.532
34663W        W98871  36.034  33.011   2.179
34664W        W98872   5.878  28.043   0.933
34665W        W98873   0.420  36.924  13.375
34666W        W98874   1.794  14.776  12.480
34667W        W98875  14.782  43.417   1.905
34668W        W98876  23.009  23.677   4.804
34669W        W98877  18.198  11.311  14.765
34670W        W98878   1.967   7.251   4.155
34671W        W98879   1.291  31.422   1.326
34672W        W98880  26.112  12.347  10.600
34673W        W98881  39.058  11.353  11.073
34674W        W98882  37.345  31.116  13.902
34675W        W98883   2.462  18.558  13.850
34676W        W98884   4.786  11.286   3.193
34677W        W98885  10.164   9.290  14.426
34678W        W98886  37.543  14.601   0.932
34679W        W98887   5.417  20.098   3.807
34680W        W98888  25.603   1.962  11.609
34681W        W98889  33.890  21.158  13.361
34682W        W98890  35.076  24.167   4.237
34683W        W98891   6.378  14.284  14.852
34684W        W98892  33.966  24.569   4.796
34685W        W98893   9.686  39.369  14.436
34686W        W98894  32.593  19.709  14.511
34687W        W98895   9.382  44.262   1.770
34688W        W98896   4.724  11.130  14.769
34689W        W98897   7.288  16.078   1.908
34690W        W98898  13.149  26.072   3.782
34691W        W98899  31.126   7.342   3.861
34692W        W98900  18.264  37.999  11.470
34693W        W98901  39.321  15.104   1.696
34694W        W98902  37.559   9.702  14.878
34695W        W98903  20.567   8.194  14.978
34696W        W98904  39.007  22.009   2.851
34697W        W98905  20.215  40.365   2.751
34698W        W98906  35.429   3.341   2.719
34699W        W98907  23.203  32.936   2.831
34700W        W98908  44.473  11.781   1.294
34701W        W98909   5.347   3.854  11.555
34702W        W98910  41.819  35.368   0.884
34703W        W98911  13.195  28.007  11.014
34704W        W98912  33.455   5.770   4.314
34705W        W98913   7.229  29.457   1.919
34706W        W98914  30.581  24.139   4.190
34707W        W98915  36.390  34.501  13.347
34708W        W98916   5.302   9.338  10.964
34709W        W98917  20.268   9.345   1.855
34710W        W98918  19.213   5.824  12.897
34711W        W98919  29.566  32.044   2.198
34712W        W98920  16.674   8.241   0.826
34713W        W98921  16.205  19.561  10.973
34714W        W98922  41.430  18.720  13.388
34715W        W98923  33.082  23.497  12.055
34716W        W98924  12.704  31.500   3.756
34717W        W98925  10.769  10.324   1.219
34718W        W98926  44.806  31.908   1.855
34719W        W98927  37.463  33.514   2.894
34720W        W98928  18.202  25.551   3.234
34721W        W98929  17.240  42.414  13.017
34722W        W98930  22.067  14.693  15.000
34723W        W98931   6.395  44.810   1.842
34724W        W98932  34.910  22.590   4.210
34725W        W98933  39.556   8.388   1.853
34726W        W98934  39.348   3.880  12.953
34727W        W98935  36.347  12.716  12.056
34728W        W98936   6.424  43.996   3.317
34729W        W98937  34.000  23.043   1.755
34730W        W98938  31.024  41.385  13.811
34731W        W98939  22.514  43.508   1.382
34732W        W98940  40.034   2.411  10.407
34733W        W98941  20.254   5.273  10.607
34734W        W98942  11.367  24.119   2.789
34735W        W98943   2.834  44.865   4.604
34736W        W98944  37.950  37.427  10.516
34737W        W98945   5.404   4.850  13.474
34738W        W98946  35.972   7.177   4.266
34739W        W98947  20.028  33.000  11.570
34740W        W98948  42.924  27.073   0.338
34741W        W98949  42.371   2.920   4.284
34742W        W98950  26.561   6.211  12.544
34743W        W98951  35.069  26.678  10.623
34744W        W98952  21.604   5.798  13.814
34745W        W98953   5.735  25.652   3.314
34746W        W98954  27.593  20.233   3.236
34747W        W98955  38.349  39.045  14.786
34748W        W98956  11.741   6.240   1.907
34749W        W98957  36.491  25.660   4.739
34750W        W98958  28.632  33.021  11.388
34751W        W98959  37.868  10.676   4.203
34752W        W98960  12.821   7.355   4.682
34753W        W98961  28.495   2.226  11.954
34754W        W98962  34.384  32.433   4.227
34755W        W98963  13.781  37.484  10.516
34756W        W98964  43.892  18.575  10.480
34757W        W98965  35.880   1.910  11.118
34758W        W98966   7.858  41.985   3.273
34759W        W98967  26.691  26.960   3.307
34760W        W98968   0.315  42.299   2.263
34761W        W98969  43.395  44.783  13.798
34762W        W98970   1.376  33.895   2.357
34763W        W98971  25.531  27.970  14.902
34764W        W98972  42.824  44.408  14.984
34765W        W98973  32.472  13.302  14.030
34766W        W98974  38.387  19.738  13.356
34767W        W98975  30.939   8.895   4.768
34768W        W98976  32.479  17.163  13.988
34769W        W98977   2.466  18.231   1.888
34770W        W98978   1.380  18.216  10.483
34771W        W98979  41.826  26.957  10.971
34772W        W98980  37.523  28.009   0.764
34773W        W98981  32.397  31.977   3.784
34774W        W98982  26.668   7.685   3.207
34775W        W98983   4.416  11.206  10.983
34776W        W98984  15.582  24.174  13.935
34777W        W98985  17.163  44.458   0.870
34778W        W98986   3.403  16.657   2.822
34779W        W98987  28.043  31.535  14.333
34780W        W98988   7.226   4.365   4.216
34781W        W98989  43.438  22.145  13.424
34782W        W98990   7.267  10.725   2.690
34783W        W98991  43.348  32.971  13.935
34784W        W98992  15.654  17.267   4.238
34785W        W98993  20.765  43.939  10.553
34786W        W98994  33.031   6.342  11.891
34787W        W98995  18.215  23.213  13.990
34788W        W98996  24.480  31.109  13.502
34789W        W98997  19.635   0.975   4.134
34790W        W98998  38.569   3.925   4.743
34791W        W98999   3.308  42.980  13.352
34792W        W99000  33.937  31.992   1.707
34793W        W99001  27.035  23.531  13.905
34794W        W99002  32.124   4.397   4.665
34795W        W99003   2.403   9.275  13.969
34796W        W99004  14.637  34.017   2.697
34797W        W99005   2.325  35.586  11.538
34798W        W99006   9.311  18.630  13.998
34799W        W99007   5.779   9.360   4.833
34800W        W99008  23.508  38.414   3.182
34801W        W99009  14.663  34.554  12.347
34802W        W99010  41.904  36.398  13.953
34803W        W99011   0.785   9.663   2.179
34804W        W99012  21.665  10.643   4.667
34805W        W99013  29.468  18.253  13.345
34806W        W99014  34.108   1.891   1.729
34807W        W99015   1.809  44.412  10.519
34808W        W99016  44.405  19.607   5.280
34809W        W99017  25.103  14.721  13.497
34810W        W99018  29.520  21.721  10.549
34811W        W99019   5.394   9.648   2.812
34812W        W99020   5.850  39.398   3.677
34813W        W99021  36.548  21.693  12.443
34814W        W99022  25.163  26.026  14.974
34815W        W99023  13.651  42.006   0.912
34816W        W99024   6.818  41.370   2.840
34817W        W99025  44.332  10.782   3.165
34818W        W99026  39.546  33.383   0.757
34819W        W99027  42.359  16.181   2.725
34820W        W99028  36.377  29.600  14.027
34821W        W99029  28.967  17.747  13.437
34822W        W99030  39.444   1.465   3.681
34823W        W99031   3.866  19.688   3.678
34824W        W99032   8.873  31.983   1.783
34825W        W99033  16.303  23.126  11.062
34826W        W99034  42.011  16.663  13.892
34827W        W99035  35.494   4.353   2.363
34828W        W99036  26.038   6.238  12.875
34829W        W99037  34.559  35.495   4.253
34830W        W99038  33.445  13.837  11.917
34831W        W99039  36.004  10.312   3.684
34832W        W99040  12.210  19.225  14.884
34833W        W99041  24.634  29.059  11.489
34834W        W99042  35.581  12.762   0.772
34835W        W99043   0.782  40.511   1.260
34836W        W99044  36.964  38.892   0.482
34837W        W99045  33.956  39.377  10.974
34838W        W99046  19.105  17.780  13.494
34839W        W99047   2.285  34.105   1.263
34840W        W99048  36.004  14.694   0.473
34841W        W99049   5.788  14.673   0.363
34842W        W99050  36.428  40.527   0.399
34843W        W99051  37.435  41.961  10.960
34844W        W99052   9.157  43.497   2.868
34845W        W99053  18.096  13.109  10.964
34846W        W99054  42.463  10.754  11.444
34847W        W99055   6.216  14.738   3.852
34848W        W99056  12.717  31.485   3.231
34849W        W99057  40.887  34.586   3.636
34850W        W99058  44.918   1.441  14.483
34851W        W99059  31.006  32.946   0.805
34852W        W99060   6.290  40.490   1.934
34853W        W99061   8.834  43.882   2.413
34854W        W99062  32.086  29.134  13.407
34855W        W99063   8.213   4.301  12.489
34856W        W99064  19.238  34.567   1.300
34857W        W99065  17.177   8.341  12.450
34858W        W99066  32.016  37.852  10.623
34859W        W99067  19.770   6.422  13.883
34860W        W99068  39.514  36.074  13.947
34861W        W99069  33.426   4.389  12.845
34862W        W99070   3.369  15.275  10.450
34863W        W99071   3.459  39.517   0.403
34864W        W99072   9.268  27.067  14.322
34865W        W99073  33.401  12.699  14.001
34866W        W99074  26.200  20.767  10.500
34867W        W99075  21.052  43.958  11.397
34868W        W99076   6.356  34.390  12.839
34869W        W99077   7.251   0.974   5.259
34870W        W99078  42.020  38.550  12.893
34871W        W99079  31.629   2.904   3.258
34872W        W99080  25.101  19.665  12.568
34873W        W99081  18.590  38.836  14.027
34874W        W99082  29.042   8.827  12.831
34875W        W99083  17.189  18.179  10.417
34876W        W99084  19.607  37.347   5.119
34877W        W99085  38.880  14.302   5.140
34878W        W99086  15.769  15.083   1.707
34879W        W99087  23.205  28.524  11.935
34880W        W99088  11.300  24.153   3.742
34881W        W99089   6.807  23.181  11.919
34882W        W99090   3.460  12.646  11.430
34883W        W99091  15.707  36.348  13.922
34884W        W99092   6.752   8.754   3.785
34885W        W99093  18.053  19.737   4.331
34886W        W99094   4.240  21.520   1.820
34887W        W99095   2.265   4.449   1.749
34888W        W99096  38.349  39.462  11.463
34889W        W99097   7.275   2.784   0.295
34890W        W99098  15.795  10.274  14.960
34891W        W99099  26.508  32.484   1.839
34892W        W99100  34.584  15.203  13.827
34893W        W99101   6.834  39.532   4.281
34894W        W99102   4.334  20.204  12.427
34895W        W99103  14.304  13.758  13.378
34896W        W99104  33.408  35.977  12.065
34897W        W99105  25.041  44.416  10.555
34898W        W99106  42.412  20.694  12.442
34899W        W99107  18.564   6.282   2.873
34900W        W99108  10.360  10.381  14.327
34901W        W99109  32.978   2.871   1.239
34902W        W99110   3.400   7.280   0.756
34903W        W99111  25.101  17.080  14.401
34904W        W99112  32.499   4.207  12.988
34905W        W99113  15.681  27.941   3.641
34906W        W99114  12.798  28.435   2.696
34907W        W99115   1.789   3.851   1.366
34908W        W99116  31.083  21.621  14.294
34909W        W99117  12.829   9.323   2.737
34910W        W99118  44.490   6.706  11.913
34911W        W99119  28.526  14.283   5.197
34912W        W99120  11.233  31.011  13.461
34913W        W99121   1.857   4.207   0.790
34914W        W99122   2.904  10.234  11.522
34915W        W99123   3.243  26.533   2.736
34916W        W99124  15.240  33.404  12.455
34917W        W99125  43.781  39.418  12.912
34918W        W99126  16.657  11.364   0.784
34919W        W99127  22.738   7.711   2.393
34920W        W99128  21.717   6.699  13.849
34921W        W99129  17.219  12.840  10.889
34922W        W99130   0.949  35.899   4.303
34923W        W99131   9.671  16.587   4.228
34924W        W99132  19.714  36.902  13.939
34925W        W99133   8.746   3.258  13.452
34926W        W99134   2.884  28.030  12.494
34927W        W99135  27.029  41.437  14.349
34928W        W99136  15.784  19.108   1.245
34929W        W99137   3.383  23.534  14.798
34930W        W99138  23.632  11.630   0.756
34931W        W99139  25.042   2.846  12.934
34932W        W99140  28.944  21.540   0.274
34933W        W99141  31.025  35.521  11.561
34934W        W99142  31.079  25.646   0.760
34935W        W99143  38.868  12.334  11.871
34936W        W99144  16.741  17.146  11.044
34937W        W99145  26.962  10.176   2.834
34938W        W99146   7.261  26.184   1.763
34939W        W99147  41.842   2.862  11.612
34940W        W99148  17.663  38.397   0.849
34941W        W99149  25.624  12.814  10.140
34942W        W99150  15.264  38.885  14.906
34943W        W99151  21.156  22.109  11.105
34944W        W99152  13.135  32.475  14.926
34945W        W99153  37.581  18.127   3.235
34946W        W99154  12.179  27.515   0.331
34947W        W99155  42.829  27.004   1.829
34948W        W99156  13.670  22.016   4.708
34949W        W99157  30.425  28.614  13.975
34950W        W99158  36.480  36.843   0.868
34951W        W99159   4.924   4.332  11.872
34952W        W99160  10.738  38.482   1.747
34953W        W99161  35.503  17.766  13.339
34954W        W99162  40.834  34.454   4.748
34955W        W99163  44.401  42.371  13.544
34956W        W99164  36.457  40.432  14.486
34957W        W99165   0.480  33.876   0.865
34958W        W99166  44.854  15.207  11.858
34959W        W99167   7.212   7.228  13.009
34960W        W99168  31.583   7.317   0.964
34961W        W99169  12.839  20.732   2.866
34962W        W99170   5.342   0.349  13.884
34963W        W99171   1.404  16.299  13.949
34964W        W99172  13.673  19.773  10.894
34965W        W99173   0.885  13.831   4.632
34966W        W99174  12.306  42.325   2.401
34967W        W99175  16.137  19.214  11.535
34968W        W99176  43.504  40.841  11.950
34969W        W99177   5.832  23.729  13.457
34970W        W99178  22.542  36.536   0.825
34971W        W99179   1.435   8.303  13.905
34972W        W99180  43.939  43.362  12.342
34973W        W99181  40.927  12.707  12.521
34974W        W99182  35.920  22.621   5.084
34975W        W99183  31.424  11.220   1.889
34976W        W99184  44.795  13.694   4.165
34977W        W99185  26.534  39.376  11.484
34978W        W99186  21.119  10.358  12.524
34979W        W99187  37.581  15.120  14.833
34980W        W99188   4.835  43.411  13.539
34981W        W99189  35.087   7.339  14.360
34982W        W99190  26.120  34.934  12.451
34983W        W99191  42.351  10.681  11.092
34984W        W99192  44.981   0.427  14.413
34985W        W99193  43.307  12.669  11.422
34986W        W99194  33.409  39.042   4.179
34987W        W99195  16.645   6.408  13.469
34988W        W99196  41.004  22.022   0.242
34989W        W99197  44.992   4.839  14.953
34990W        W99198  32.117   2.792   1.441
34991W        W99199  44.980  32.499  11.121
34992W        W99200  13.612   0.415   0.859
34993W        W99201  24.166  23.621   1.314
34994W        W99202  37.989  41.998   3.772
34995W        W99203  20.053  21.526  13.442
34996W        W99204  20.691  24.497   1.710
34997W        W99205   2.303  19.710  14.865
34998W        W99206  41.975  24.110   4.210
34999W        W99207  29.627  37.844   1.395
35000W        W99208  36.846  11.134   4.329
35001W        W99209  39.916  28.652  12.352
35002W        W99210  19.058  39.024   0.436
35003W        W99211  33.967   3.400   3.666
35004W        W99212  33.454  23.065   2.252
35005W        W99213  19.705  21.181  13.835
35006W        W99214  35.103  21.180  10.150
35007W        W99215  27.691  29.520   3.165
35008W        W99216  10.722  11.258  11.557
35009W        W99217  21.163  29.459   4.691
35010W        W99218  12.293  14.628   4.309
35011W        W99219   8.809  36.571  12.847
35012W        W99220  44.818  33.584  13.879
35013W        W99221   5.286   9.788  11.542
35014W        W99222  24.670  26.516   0.928
35015W        W99223  34.538  42.377   3.194
35016W        W99224  16.222  19.621   2.413
35017W        W99225  44.447   2.401   1.878
35018W        W99226  30.044  11.220  12.545
35019W        W99227  23.571   8.294   1.736
35020W        W99228  38.954  22.527   2.213
35021W        W99229  41.367  37.345   1.449
35022W        W99230  42.843   9.286  12.473
35023W        W99231  14.158   7.857  10.408
35024W        W99232  24.145  20.095   0.833
35025W        W99233  24.502  42.835   2.193
35026W        W99234  18.723  19.165  13.929
35027W        W99235  35.527  18.727  12.440
35028W        W99236   9.213  32.007  11.601
35029W        W99237  14.209  27.579   1.388
35030W        W99238  16.765  39.393   4.785
35031W        W99239  38.505   6.241   3.780
35032W        W99240  40.974  43.904  13.003
35033W        W99241   5.426  12.315  14.854
35034W        W99242  25.980  13.717   3.198
35035W        W99243  22.608  42.911   5.090
35036W        W99244  15.748  32.539   0.312
35037W        W99245  26.467  39.331  12.478
35038W        W99246  29.071  42.881  11.480
35039W        W99247  39.032  42.782  12.937
35040W        W99248  28.572   8.365  12.549
35041W        W99249  28.935   4.716   2.903
35042W        W99250  17.573  23.001  12.491
35043W        W99251   4.731   1.457  13.792
35044W        W99252   7.364  41.537   1.728
35045W        W99253  17.160  35.911   0.793
35046W        W99254  22.656  18.059  12.456
35047W        W99255   1.278  29.025   2.828
35048W        W99256  17.601   9.800  14.393
35049W        W99257  41.948   6.338  12.543
35050W        W99258  12.198  41.533  10.517
35051W        W99259  41.999  22.006  14.478
35052W        W99260  38.833  26.015   1.270
35053W        W99261  26.059  35.458   2.766
35054W        W99262  42.801   6.236   5.316
35055W        W99263  16.288  40.401  10.412
35056W        W99264  27.621  20.032  13.032
35057W        W99265  10.190  39.971   4.792
35058W        W99266  17.788  13.126  13.358
35059W        W99267  31.535  33.874  13.476
35060W        W99268  21.132   2.863  14.420
35061W        W99269  41.449  31.452   1.935
35062W        W99270   7.707   9.306   2.301
35063W        W99271   9.720   9.218   2.839
35064W        W99272  29.125  28.647   3.838
35065W        W99273  14.184  14.702  13.847
35066W        W99274  33.903  24.135  13.544
35067W        W99275   3.461  44.260   0.906
35068W        W99276  24.493   1.747   2.863
35069W        W99277  14.764  24.664  11.906
35070W        W99278  29.438   1.935  10.564
35071W        W99279  36.390   5.329   4.634
35072W        W99280   6.906  42.027  14.863
35073W        W99281   2.884  16.208   2.898
35074W        W99282   7.764  15.640  10.609
35075W        W99283  15.152  18.693  14.011
35076W        W99284  10.186  25.635  14.285
35077W        W99285   3.882   6.343   1.238
35078W        W99286  22.641  36.953   4.233
35079W        W99287  29.073  15.582   1.921
35080W        W99288  32.483   4.698  14.451
35081W        W99289  10.269  30.550  12.067
35082W        W99290  28.510  20.200  14.368
35083W        W99291  30.638  43.781   4.343
35084W        W99292  22.560  34.985  14.821
35085W        W99293  39.393  21.143   3.309
35086W        W99294  11.837  44.270   2.270
35087W        W99295  29.487  29.045   3.641
35088W        W99296   2.808   4.277  14.296
35089W        W99297   5.401  31.153   2.789
35090W        W99298   7.842  27.997  11.069
35091W        W99299  13.680   9.246   3.647
35092W        W99300  38.929   8.400  13.900
35093W        W99301   4.811  36.521  11.399
35094W        W99302  30.474  17.651  11.379
35095W        W99303  44.967  37.452  10.510
35096W        W99304  29.154   1.843  11.991
35097W        W99305  23.084  40.004   4.156
35098W        W99306   0.750  10.831  13.330
35099W        W99307  37.909  12.683   5.128
35100W        W99308  20.036  25.964  12.350
35101W        W99309  41.320   5.289  13.425
35102W        W99310  17.657  37.963  12.496
35103W        W99311  22.662  39.484   3.665
35104W        W99312  31.563  13.219   4.742
35105W        W99313  36.568  32.456  12.055
35106W        W99314  25.144  28.456  14.902
35107W        W99315  37.413  32.415   2.186
35108W        W99316  38.416  42.320  13.802
35109W        W99317  17.231   6.728   4.617
35110W        W99318  29.576   0.905  11.390
35111W        W99319  32.098  41.893   2.212
35112W        W99320  12.162   5.329   2.862
35113W        W99321   0.903  44.384   3.666
35114W        W99322  17.141   9.393   0.923
35115W        W99323  33.419   0.474   3.718
35116W        W99324  31.545  13.784  12.858
35117W        W99325  27.066  16.749  13.981
35118W        W99326  23.681   8.309  14.976
35119W        W99327  37.381  40.308  14.939
35120W        W99328  25.969  11.831   2.796
35121W        W99329  41.469  35.967  13.804
35122W        W99330   9.324  39.869   4.697
35123W        W99331  42.015  27.630  13.498
35124W        W99332  40.389   0.751   3.664
35125W        W99333  36.347   2.802  14.853
35126W        W99334  40.508   3.289  13.433
35127W        W99335  32.123   5.856   0.891
35128W        W99336  10.319   3.851  14.953
35129W        W99337   5.815  31.645   2.238
35130W        W99338  37.475  23.227   0.931
35131W        W99339  23.555   9.775   3.747
35132W        W99340  42.886  32.944   4.233
35133W        W99341  39.039   6.836  14.846
35134W        W99342  27.519   3.843  10.499
35135W        W99343  24.148  33.510   4.295
35136W        W99344   3.247   8.167   0.380
35137W        W99345  43.413   1.923  12.575
35138W        W99346   6.208  42.511   4.651
35139W        W99347  12.755  31.028   4.127
35140W        W99348   2.853  31.600  13.886
35141W        W99349  14.652  31.503  12.368
35142W        W99350  19.271  13.195  12.073
35143W        W99351  33.398  11.156   0.249
35144W        W99352  16.249   9.261   0.319
35145W        W99353  21.045  42.284   4.221
35146W        W99354  27.690  44.418   4.599
35147W        W99355  21.619   7.284  12.541
35148W        W99356  22.189  29.502   4.683
35149W        W99357  36.931  37.880  14.021
35150W        W99358  19.747   0.904   1.252
35151W        W99359  42.981   6.194  12.074
35152W        W99360  26.083   0.362   4.822
35153W        W99361   5.905  39.971  13.486
35154W        W99362  27.115  35.047  12.055
35155W        W99363  21.205  42.374   2.207
35156W        W99364   1.853  30.076  11.443
35157W        W99365   5.210   4.272  14.776
35158W        W99366   2.808  28.010   0.771
35159W        W99367   7.779  24.017   2.749
35160W        W99368  39.492  21.746   4.320
35161W        W99369   2.247  39.995  13.834
35162W        W99370  38.421  33.972  13.366
35163W        W99371  10.798  33.952  10.417
35164W        W99372  40.341  15.755  14.311
35165W        W99373  30.534  42.347   3.344
35166W        W99374  22.533  29.631  11.912
35167W        W99375  11.313   7.324  14.294
35168W        W99376  24.080  30.908  11.083
35169W        W99377   3.826  31.542  14.859
35170W        W99378  40.903  26.178   2.681
35171W        W99379  40.508   1.876   4.703
35172W        W99380   0.410  37.020  12.478
35173W        W99381  42.392  26.620   5.196
35174W        W99382  44.831  38.863   2.771
35175W        W99383  34.069  44.409  12.470
35176W        W99384   9.341   4.427  13.022
35177W        W99385  13.657  19.755   0.342
35178W        W99386  12.337   7.822  10.538
35179W        W99387  44.966  28.079  14.506
35180W        W99388  19.126  32.889   1.931
35181W        W99389  38.947  39.521  13.955
35182W        W99390   3.762  35.458  13.365
35183W        W99391  25.172  13.154   2.684
35184W        W99392  36.955  40.389   3.813
35185W        W99393  34.464  23.698   4.230
35186W        W99394  18.632   1.282  10.950
35187W        W99395  23.065  44.365   0.271
35188W        W99396  22.198  34.102  10.426
35189W        W99397  40.970  30.487  14.445
35190W        W99398  36.433  30.926   2.690
35191W        W99399  22.614  16.797  12.030
35192W        W99400   1.918  13.690   1.925
35193W        W99401   7.871  19.105   0.928
35194W        W99402  12.133  17.661   3.313
35195W        W99403   1.883  23.003  14.287
35196W        W99404   2.260  38.335   4.803
35197W        W99405  30.607   9.652  13.825
35198W        W99406   4.235  40.413  11.496
35199W        W99407  28.447  27.620  14.866
35200W        W99408   8.761  44.481   5.088
35201W        W99409  39.484   3.364   0.769
35202W        W99410  20.241  24.126  11.064
35203W        W99411   6.890  32.928  13.044
35204W        W99412  30.569   5.767  12.050
35205W        W99413   5.385  19.107   1.227
35206W        W99414  23.577  18.733  11.898
35207W        W99415  25.602  30.455  11.457
35208W        W99416  42.972  19.116  10.612
35209W        W99417  44.305  42.960  14.917
35210W        W99418   4.400  18.747   0.243
35211W        W99419  15.780  40.509  13.467
35212W        W99420  25.703  12.255   0.461
35213W        W99421  24.983  15.084   1.844
35214W        W99422  43.274   8.315   2.678
35215W        W99423  11.719  14.625   0.773
35216W        W99424  32.536  38.957   0.318
35217W        W99425  18.665   6.914  10.927
35218W        W99426  35.504  35.093  13.979
35219W        W99427  38.432   5.733  12.928
35220W        W99428  32.913  42.801   4.641
35221W        W99429  29.479  40.966  10.545
35222W        W99430   0.385  41.999  11.517
35223W        W99431   7.719  29.639  11.473
35224W        W99432  11.629  17.083  11.437
35225W        W99433   6.921   3.341  12.421
35226W        W99434   1.475  27.112   4.652
35227W        W99435   8.770  35.976  14.809
35228W        W99436  29.953  37.959   3.846
35229W        W99437  33.397   8.701   5.119
35230W        W99438  43.943   0.294   2.299
35231W        W99439  25.147  35.051  13.402
35232W        W99440   9.268  42.337   4.231
35233W        W99441  12.195  23.984  11.390
35234W        W99442  23.080   1.451  13.377
35235W        W99443  30.041  21.127  11.030
35236W        W99444   2.918  11.237  11.417
35237W        W99445  12.740  24.204   1.747
35238W        W99446   4.353  13.758  11.975
35239W        W99447  19.755   4.829  14.959
35240W        W99448  13.664  41.466   2.857
35241W        W99449  29.066  20.115  10.911
35242W        W99450  31.959  43.014   2.381
35243W        W99451  36.060  29.513  13.042
35244W        W99452  17.596   2.297   3.737
35245W        W99453  22.231  15.739  13.047
35246W        W99454   1.873  17.145  13.326
35247W        W99455   1.330  20.265  13.961
35248W        W99456  23.992  38.461  14.826
35249W        W99457  31.623  14.267  10.955
35250W        W99458  18.584  28.137   2.722
35251W        W99459  14.703  35.010   1.930
35252W        W99460  26.001  31.910   4.115
35253W        W99461  20.541  39.409  12.839
35254W        W99462  22.207   8.359   3.761
35255W        W99463   6.243  31.114  13.020
35256W        W99464  13.252  22.113   2.307
35257W        W99465  29.106  37.346  10.941
35258W        W99466   3.712   3.749   4.790
35259W        W99467  41.942  17.271   4.642
35260W        W99468  21.183   2.459   5.258
35261W        W99469   2.878  12.831   4.267
35262W        W99470  17.620  19.268  10.566
35263W        W99471  37.478  10.246   1.451
35264W        W99472   8.848  31.467  14.413
35265W        W99473  30.060  13.612   2.829
35266W        W99474  39.377  12.644   4.189
35267W        W99475  29.096   3.728   4.644
35268W        W99476  42.447  20.726  14.031
35269W        W99477  24.529  31.982   1.796
35270W        W99478  37.504   2.787  12.020
35271W        W99479   0.440  27.075  12.523
35272W        W99480  34.063  13.644   2.383
35273W        W99481  31.539  12.612   4.332
35274W        W99482  24.498   0.788   0.300
35275W        W99483  23.688   5.814   4.666
35276W        W99484  40.000  13.705  12.008
35277W        W99485  35.972  17.657  12.536
35278W        W99486  41.867   2.405   2.733
35279W        W99487  33.526  31.401   3.202
35280W        W99488  16.753  25.096  12.035
35281W        W99489   0.352  43.270  11.871
35282W        W99490  16.718  43.418   1.839
35283W        W99491  11.729  29.650   0.364
35284W        W99492  16.699   2.283   3.322
35285W        W99493  38.344  36.906   0.395
35286W        W99494   2.890  38.347  11.421
35287W        W99495  40.934  11.813  12.557
35288W        W99496  21.166  23.585   4.815
35289W        W99497  16.715  10.152  14.839
35290W        W99498  11.350  26.172  12.418
35291W        W99499   2.721  17.761  11.461
35292W        W99500  20.112  13.272   3.152
35293W        W99501  16.711  40.906  13.975
35294W        W99502   3.365   1.446   2.868
35295W        W99503  12.852  31.932   1.252
35296W        W99504  37.057  32.126  12.086
35297W        W99505  22.691  11.356  14.984
35298W        W99506  24.077  29.959   0.806
35299W        W99507  10.855  21.186   2.278
35300W        W99508  43.919  24.093  13.339
35301W        W99509  43.871  27.078  13.350
35302W        W99510  35.479  11.835  14.392
35303W        W99511  36.893  38.424  13.974
35304W        W99512  38.534   3.347  13.360
35305W        W99513  34.961   2.386  11.402
35306W        W99514  37.514  22.595   4.180
35307W        W99515  40.021   2.808   1.738
35308W        W99516  43.973  27.466  11.448
35309W        W99517  19.750  41.528   1.883
35310W        W99518   8.236  22.224   0.933
35311W        W99519  33.936  19.216   0.955
35312W        W99520  36.929  33.969   3.776
35313W        W99521  22.189   3.903   2.276
35314W        W99522   1.399  36.350   0.837
35315W        W99523  32.971  16.312   2.394
35316W        W99524  38.983   1.293   0.960
35317W        W99525  33.520  31.934   0.828
35318W        W99526  25.120  35.565   0.758
35319W        W99527  36.979   9.328   3.341
35320W        W99528  23.234  25.145   3.800
35321W        W99529  25.524  33.971   1.348
35322W        W99530  36.591  29.073  13.934
35323W        W99531   4.248  16.714  10.946
35324W        W99532  44.776   5.734  14.322
35325W        W99533  27.531  14.223  13.443
35326W        W99534   8.757  29.588   3.816
35327W        W99535  21.211  42.485  13.488
35328W        W99536  15.645  25.000  11.019
35329W        W99537  20.160  31.925  11.016
35330W        W99538  21.564   2.409  10.980
35331W        W99539  34.568   2.847  12.082
35332W        W99540  30.044  41.347   4.797
35333W        W99541  27.990  40.480  12.084
35334W        W99542  40.532  36.402   0.796
35335W        W99543  29.591  11.676   9.927
35336W        W99544   6.782   9.375   2.367
35337W        W99545   6.689  18.129   4.294
35338W        W99546  38.829  28.555  13.520
35339W        W99547  27.991  27.103  12.912
35340W        W99548   9.646  31.435   3.347
35341W        W99549  39.925  16.099   3.802
35342W        W99550   2.439  43.426   4.132
35343W        W99551  25.145  31.472  10.429
35344W        W99552  19.746  24.509   3.715
35345W        W99553  28.178   5.767   4.350
35346W        W99554  14.307  23.526  10.523
35347W        W99555  25.148  30.141   3.357
35348W        W99556  26.677  30.501   1.260
35349W        W99557  24.612  38.501  14.452
35350W        W99558  24.045   9.820   4.174
35351W        W99559  44.848  27.164  12.083
35352W        W99560  24.973  29.635  10.554
35353W        W99561  11.792  28.031  13.894
35354W        W99562   4.379  22.657   0.307
35355W        W99563  18.699  39.818   4.658
35356W        W99564  24.008  27.536   4.615
35357W        W99565  32.587  10.302  14.029
35358W        W99566  32.599   8.687   2.844
35359W        W99567  14.781  24.105  14.420
35360W        W99568  10.226  35.560   2.849
35361W        W99569  18.136  16.685   9.592
35362W        W99570   6.266  35.566   0.332
35363W        W99571  23.009  27.018   2.217
35364W        W99572  43.460  37.081  10.095
35365W        W99573  33.598   4.879  12.416
35366W        W99574  42.963  13.823   0.786
35367W        W99575  17.690  26.606  12.054
35368W        W99576  20.619   5.375  11.451
35369W        W99577  27.144  12.210   1.257
35370W        W99578  27.448   8.317  11.932
35371W        W99579   6.368  34.369   3.297
35372W        W99580  41.523  44.010   3.728
35373W        W99581  29.603   9.277  14.856
35374W        W99582   0.846  32.958   1.822
35375W        W99583  32.988  30.505  13.906
35376W        W99584  41.342  38.994   4.813
35377W        W99585  13.647  10.790   0.745
35378W        W99586  29.526   0.928   2.268
35379W        W99587  13.125  12.237  13.402
35380W        W99588   5.435  21.533  14.384
35381W        W99589   9.664  23.590   2.813
35382W        W99590   6.856  10.197  12.402
35383W        W99591  43.431  28.174  11.935
35384W        W99592  43.957  17.221  14.510
35385W        W99593  30.497   7.191   3.732
35386W        W99594  17.252  38.353   2.861
35387W        W99595  16.077  26.519   0.423
35388W        W99596  31.598   8.292   4.675
35389W        W99597  41.377   3.937   0.407
35390W        W99598   6.209  37.430  10.618
35391W        W99599  10.723  24.000   1.424
35392W        W99600  10.159  42.304  13.962
35393W        W99601  16.813   1.368   4.731
35394W        W99602   2.819  23.535  14.418
35395W        W99603  43.772  25.046   5.192
35396W        W99604  37.386  26.677   2.769
35397W        W99605   0.368  14.136   1.905
35398W        W99606  12.355  30.557   3.367
35399W        W99607   9.739  31.534  11.027
35400W        W99608  33.512   4.446  14.300
35401W        W99609  43.773  44.269   1.312
35402W        W99610  13.603   2.426  13.541
35403W        W99611   4.924   4.400   3.349
35404W        W99612  19.221  31.960   4.308
35405W        W99613  11.708   8.772   4.154
35406W        W99614  34.589  31.521  13.977
35407W        W99615  17.118  44.864  12.871
35408W        W99616  42.001   2.887  14.812
35409W        W99617   3.419  17.750  13.487
35410W        W99618   7.818  15.281   1.388
35411W        W99619   1.295  27.601  14.804
35412W        W99620  19.061  30.121   1.277
35413W        W99621  23.600   1.916  10.959
35414W        W99622  28.962  27.617   2.834
35415W        W99623  36.507  37.876   4.659
35416W        W99624  35.029  34.457  14.497
35417W        W99625  15.281  36.849   3.644
35418W        W99626   5.381  32.398  12.870
35419W        W99627  34.965   1.740   4.138
35420W        W99628  42.925  30.641   2.334
35421W        W99629   6.738  29.638  12.092
35422W        W99630  38.328  15.647  10.594
35423W        W99631  31.088   4.331   3.271
35424W        W99632   7.740  16.770   0.386
35425W        W99633  35.972  19.536  10.430
35426W        W99634  17.697   2.936   1.301
35427W        W99635  27.191  24.131  11.025
35428W        W99636   5.854   2.721   0.914
35429W        W99637  40.852  40.417  14.882
35430W        W99638  34.508  12.213   1.697
35431W        W99639   9.680  32.570   2.761
35432W        W99640  11.644  22.702   5.122
35433W        W99641  32.487  24.151   4.148
35434W        W99642   5.212   4.907  11.384
35435W        W99643  39.401  42.030   0.777
35436W        W99644   3.769   8.364   4.616
35437W        W99645  32.135  32.899  12.557
35438W        W99646   3.849  42.028   2.408
35439W        W99647  21.152  39.056   4.116
35440W        W99648  38.472  17.165   1.347
35441W        W99649  36.436   9.384   4.648
35442W        W99650  32.555   9.870  11.055
35443W        W99651   4.818  30.603   0.957
35444W        W99652   0.410  12.139   2.718
35445W        W99653   9.303  42.871   3.370
35446W        W99654  12.252   9.212   0.891
35447W        W99655  33.899   1.420   1.713
35448W        W99656  23.561  39.972   3.733
35449W        W99657  36.457   4.761   2.414
35450W        W99658  36.463   1.921  11.855
35451W        W99659  20.131  24.543  12.577
35452W        W99660  30.526  25.504  11.449
35453W        W99661   2.427  26.207  14.297
35454W        W99662  40.500  29.637   0.321
35455W        W99663  37.994  25.508  11.868
35456W        W99664   6.344  43.321   2.867
35457W        W99665  11.329  35.402  14.866
35458W        W99666  28.149   0.777   3.792
35459W        W99667  41.403  30.515   0.381
35460W        W99668  14.813  33.601   4.222
35461W        W99669  34.062  20.099  10.612
35462W        W99670  33.576  28.635   2.240
35463W        W99671  14.705  26.595  12.530
35464W        W99672  25.202  12.317  10.635
35465W        W99673  25.218  41.798   4.678
35466W        W99674  28.632   8.163   2.187
35467W        W99675  19.257   4.333  13.466
35468W        W99676  33.475  34.578  13.966
35469W        W99677  35.001  16.781   1.768
35470W        W99678  23.669  31.032  12.571
35471W        W99679   7.396  34.899  13.804
35472W        W99680  22.665  12.819   4.315
35473W        W99681   7.389  44.266  13.401
35474W        W99682  24.105  21.593  12.068
35475W        W99683  39.550   4.929  13.943
35476W        W99684  31.100   0.457   0.939
35477W        W99685   3.799  40.920  14.978
35478W        W99686  17.628  17.257   0.821
35479W        W99687  20.730   3.738  12.357
35480W        W99688  34.369  11.706   3.312
35481W        W99689  21.145  12.351  10.910
35482W        W99690   5.260  23.023  11.470
35483W        W99691  42.326   1.280   0.419
35484W        W99692   4.433  23.611  14.028
35485W        W99693  38.901  36.439  12.454
35486W        W99694  40.326   1.837   2.196
35487W        W99695  31.463  35.035   3.637
35488W        W99696  32.496  35.396   4.755
35489W        W99697  14.745  23.529  10.588
35490W        W99698  34.600   0.253  10.573
35491W        W99699  17.250  44.258  11.611
35492W        W99700  30.927  23.667   4.323
35493W        W99701  41.524  14.234  14.958
35494W        W99702  12.310  40.018  11.882
35495W        W99703  17.212   9.191  12.421
35496W        W99704  15.641  21.707   1.340
35497W        W99705   1.963   9.343   4.636
35498W        W99706   4.852  24.722   0.950
35499W        W99707   0.972  37.452   4.325
35500W        W99708   6.337   6.245   3.830
35501W        W99709   4.388  27.054   0.844
35502W        W99710  15.097  22.698  12.927
35503W        W99711  25.566  41.040  14.929
35504W        W99712  28.586  21.675  11.376
35505W        W99713  16.777  25.664  12.448
35506W        W99714   7.710  43.814  13.001
35507W        W99715  15.310  24.163   3.314
35508W        W99716  28.036  12.702   1.410
35509W        W99717  24.190   3.904   2.871
35510W        W99718  25.130  36.002   3.730
35511W        W99719  30.495  41.990   0.433
35512W        W99720  43.876  23.209   4.734
35513W        W99721  29.429  23.547   1.903
35514W        W99722  38.556  28.978   2.328
35515W        W99723   7.886  12.700   2.398
35516W        W99724  17.579  15.125  14.773
35517W        W99725  28.624   4.904  13.451
35518W        W99726   7.367  34.589   2.718
35519W        W99727  22.101  12.232   0.428
35520W        W99728  24.502  37.465  13.498
35521W        W99729   5.709   8.821   1.865
35522W        W99730  39.379  11.323  14.490
35523W        W99731  13.771   4.874   4.351
35524W        W99732  12.775  40.390   0.258
35525W        W99733   7.725  43.448  11.536
35526W        W99734  22.629  18.239  13.452
35527W        W99735  38.374   0.363  10.509
35528W        W99736  42.816  17.126  11.996
35529W        W99737   9.739  23.228  11.552
35530W        W99738  18.670  30.048   4.602
35531W        W99739  20.171  11.829   2.184
35532W        W99740  41.519   5.259   1.805
35533W        W99741  21.668  25.109   3.327
35534W        W99742  16.777  10.752  12.884
35535W        W99743  21.060  13.343  14.993
35536W        W99744   1.848  18.545   4.602
35537W        W99745  35.460  13.171   1.840
35538W        W99746  13.823   8.273   1.770
35539W        W99747  43.312  19.706  11.466
35540W        W99748  20.053  15.654   1.348
35541W        W99749  38.006  12.177   2.817
35542W        W99750  33.429  22.232   3.717
35543W        W99751  21.114  11.188   2.214
35544W        W99752  22.083  25.126   2.893
35545W        W99753  14.811   1.367   1.808
35546W        W99754  13.325  12.213  10.056
35547W        W99755   4.283  10.793  13.006
35548W        W99756  22.566   0.892   1.330
35549W        W99757   9.801  36.463  14.027
35550W        W99758  38.487  19.730   3.847
35551W        W99759  22.073  38.049   3.665
35552W        W99760  10.724   3.769  13.336
35553W        W99761  40.021  21.660   0.465
35554W        W99762  29.098  41.448  12.490
35555W        W99763  37.867  21.049  12.449
35556W        W99764  17.077   5.291  10.626
35557W        W99765  21.639  14.273  11.933
35558W        W99766  40.484   8.165  11.560
35559W        W99767  11.844  30.550   1.437
35560W        W99768  43.273   6.735   4.152
35561W        W99769  15.675  25.998   1.853
35562W        W99770  18.098   7.755  11.428
35563W        W99771  43.278  28.157   2.322
35564W        W99772  19.274  18.660   0.296
35565W        W99773   3.885  19.623   0.783
35566W        W99774  43.371  20.180   1.330
35567W        W99775   6.194  12.845  11.488
35568W        W99776  21.716  40.016  14.808
35569W        W99777  10.167  17.200   5.144
35570W        W99778  30.134  36.963   0.870
35571W        W99779  26.474   0.980  12.981
35572W        W99780  26.518  23.091  11.086
35573W        W99781  43.376  11.135   4.790
35574W        W99782  17.069  25.518  14.969
35575W        W99783  43.418  39.837  10.484
35576W        W99784  14.258  12.201  12.392
35577W        W99785  36.988  28.675  14.467
35578W        W99786  27.027  27.028   2.757
35579W        W99787  24.573  36.347   1.909
35580W        W99788  25.210   4.255  11.903
35581W        W99789   7.318  26.085  10.903
35582W        W99790  16.083  33.908   2.240
35583W        W99791  24.983  24.133  13.537
35584W        W99792  29.550   0.822  10.472
35585W        W99793  29.510  28.984   4.785
35586W        W99794  34.593  43.854  14.013
35587W        W99795  11.849  30.147  11.076
35588W        W99796  42.966  37.431  11.595
35589W        W99797  10.643  24.028   2.189
35590W        W99798   1.896  32.973   0.254
35591W        W99799  20.590  36.593   2.882
35592W        W99800  18.555  19.669  11.869
35593W        W99801   4.717  40.321  10.095
35594W        W99802  43.310  13.216  11.115
35595W        W99803  10.206   9.324  14.011
35596W        W99804  21.075  20.030   0.304
35597W        W99805   3.729  25.706  12.415
35598W        W99806  23.527  23.594  10.595
35599W        W99807  12.362  41.294   1.925
35600W        W99808  10.867   4.383  13.850
35601W        W99809  17.669  36.946  12.826
35602W        W99810  17.245  21.706  14.912
35603W        W99811   0.952   9.299   3.666
35604W        W99812  28.991   6.795   4.305
35605W        W99813  31.152  13.743  12.847
35606W        W99814  40.422  44.893   2.704
35607W        W99815  14.150  35.046  11.084
35608W        W99816  36.456   1.317  12.022
35609W        W99817  44.455  28.047   5.285
35610W        W99818  39.418   3.797  13.321
35611W        W99819   5.884  35.406  11.002
35612W        W99820  27.034  43.373   0.250
35613W        W99821   9.291  19.607  10.611
35614W        W99822  39.844  18.175  11.974
35615W        W99823   7.363  18.266   1.759
35616W        W99824   0.865  10.171  13.982
35617W        W99825  23.169  27.494  11.966
35618W        W99826  36.559  39.497  13.351
35619W        W99827  37.493  36.593   0.939
35620W        W99828  41.506   1.349  13.490
35621W        W99829  40.976  32.954  12.527
35622W        W99830  24.191  37.070  10.894
35623W        W99831  43.879  12.788  14.381
35624W        W99832   1.966   7.908   3.218
35625W        W99833   5.195  16.677   0.824
35626W        W99834  17.563  25.525  10.407
35627W        W99835  38.968  20.558   9.921
35628W        W99836  37.837  15.260  14.969
35629W        W99837   3.782  44.846  14.850
35630W        W99838  41.508  19.681   4.151
35631W        W99839  25.156  43.345  13.892
35632W        W99840  43.401   9.187  13.493
35633W        W99841   5.323  15.300   1.875
35634W        W99842   9.315   3.435  12.446
35635W        W99843  25.517  32.120   0.322
35636W        W99844  30.047  25.994  10.609
35637W        W99845  14.153   4.280   2.396
35638W        W99846  26.653  24.630   4.691
35639W        W99847  23.223  36.472  12.423
35640W        W99848  36.005   0.266   4.706
35641W        W99849  27.606  35.467   4.693
35642W        W99850  33.988  22.744   3.377
35643W        W99851   9.388  14.745  12.831
35644W        W99852  31.028  25.145   2.794
35645W        W99853   4.326  22.594   1.834
35646W        W99854  16.622  21.251  13.439
35647W        W99855  31.486  26.498   1.745
35648W        W99856  22.048  23.563  11.037
35649W        W99857   4.796  37.980   1.788
35650W        W99858  25.665   3.887  13.969
35651W        W99859  25.502  43.929  12.891
35652W        W99860   6.884  10.864  14.427
35653W        W99861  20.755  22.085  14.429
35654W        W99862  33.046  38.354   4.791
35655W        W99863  40.535  20.192   2.400
35656W        W99864  35.518   1.271  12.939
35657W        W99865   7.178   3.457  12.826
35658W        W99866  42.479  19.219  12.425
35659W        W99867  30.443  11.170  13.839
35660W        W99868  13.704   3.762  10.491
35661W        W99869  18.077  12.718   3.667
35662W        W99870  24.043  19.211  12.824
35663W        W99871  42.863  38.349   2.768
35664W        W99872  36.592   4.324  13.012
35665W        W99873  27.036   9.842  13.997
35666W        W99874  12.182  40.531  12.090
35667W        W99875  42.855  18.133   3.841
35668W        W99876  25.592  34.015   0.936
35669W        W99877  42.906  31.147  12.532
35670W        W99878  14.705  27.043  11.561
35671W        W99879  30.072  20.627  11.003
35672W        W99880   7.412  13.230   5.232
35673W        W99881  15.634  35.064   4.118
35674W        W99882  14.210   3.762   0.414
35675W        W99883  15.114  21.596   1.313
35676W        W99884  27.958   0.389  13.500
35677W        W99885  26.531  28.166   1.346
35678W        W99886  18.652  15.673   9.993
35679W        W99887  41.327  25.200   1.404
35680W        W99888   4.445   6.842  12.072
35681W        W99889  35.981  14.106   4.799
35682W        W99890  26.015  16.156   1.791
35683W        W99891   1.961   2.369  14.924
35684W        W99892  33.426  41.333  11.001
35685W        W99893  32.099  39.902  10.118
35686W        W99894   4.427  25.111   1.905
35687W        W99895  26.579  34.418  11.067
35688W        W99896  12.153  33.954  14.988
35689W        W99897  30.510  33.404   3.753
35690W        W99898   2.238  41.359   3.736
35691W        W99899   5.734  24.003   2.250
35692W        W99900  33.017  34.502  12.050
35693W        W99901  14.106  27.624  13.341
35694W        W99902  36.571  30.491  11.869
35695W        W99903  34.604  38.837   1.221
35696W        W99904   6.903  17.665  13.005
35697W        W99905  28.626  44.872   1.842
35698W        W99906   0.431  43.319  14.009
35699W        W99907  34.974  36.521   0.468
35700W        W99908  20.198  36.505   3.848
35701W        W99909  24.987  16.640   0.326
35702W        W99910  40.939  41.447   4.823
35703W        W99911  22.179   0.785  13.531
35704W        W99912   2.765   9.828   2.676
35705W        W99913  15.271  33.437  10.440
35706W        W99914   4.293  20.195   4.290
35707W        W99915   9.673   1.245   3.246
35708W        W99916  19.780  13.820  11.482
35709W        W99917  39.326  28.040   4.722
35710W        W99918  39.877   8.815  13.531
35711W        W99919   4.815  30.057   0.867
35712W        W99920  17.243   3.912   0.926
35713W        W99921   5.733  20.768  10.554
35714W        W99922  31.987  34.925   4.270
35715W        W99923  33.390   1.809  12.080
35716W        W99924  24.559  12.213   2.299
35717W        W99925  18.182  33.442   0.955
35718W        W99926  22.025  16.588  11.501
35719W        W99927  11.722  13.673  12.361
35720W        W99928   6.408  31.511   4.775
35721W        W99929  43.892  39.940  13.307
35722W        W99930  29.508  33.079   2.291
35723W        W99931  27.644  39.948  14.491
35724W        W99932  41.986   2.733   4.138
35725W        W99933  16.263  41.470  14.424
35726W        W99934  18.238  29.436   2.376
35727W        W99935  34.959   1.314  10.940
35728W        W99936   4.818  35.597  14.819
35729W        W99937  35.555  19.739   0.406
35730W        W99938  24.149  18.106   3.153
35731W        W99939  37.961  29.469   1.416
35732W        W99940   5.733  22.124   2.814
35733W        W99941   7.309  16.787   4.692
35734W        W99942  38.468   2.397  10.075
35735W        W99943   7.197  41.485  13.921
35736W        W99944   0.441  26.496   2.190
35737W        W99945  44.007  11.160  12.935
35738W        W99946   5.896  18.773  13.455
35739W        W99947  10.327  34.935  13.448
35740W        W99948  27.638  40.925  13.535
35741W        W99949  17.276  11.151   0.883
35742W        W99950   9.243  22.567   3.262
35743W        W99951  27.009  11.682   9.981
35744W        W99952  17.663  34.523   1.924
35745W        W99953  40.349   7.743   2.832
35746W        W99954  43.421  24.167   3.679
35747W        W99955  17.102  27.032   0.841
35748W        W99956  42.835  27.971   2.319
35749W        W99957  39.882  40.934   0.851
35750W        W99958   3.784  44.391   2.866
35751W        W99959  15.786  43.781  11.887
35752W        W99960  28.532   7.377   4.126
35753W        W99961  44.391   4.375   4.349
35754W        W99962  28.081  12.670   0.326
35755W        W99963  16.771  39.925   2.844
35756W        W99964  20.150  38.535   9.454
35757W        W99965  22.500  20.615   3.319
35758W        W99966  26.047  39.432  13.876
35759W        W99967   1.421  13.601  10.950
35760W        W99968  21.079  11.296  13.826
35761W        W99969   0.304  22.562  11.375
35762W        W99970   2.727   4.428   1.433
35763W        W99971  44.811  21.072  12.083
35764W        W99972  25.019   6.239  11.931
35765W        W99973   5.840  39.391   4.183
35766W        W99974  41.443  29.487  13.404
35767W        W99975  15.256  13.275  14.797
35768W        W99976  32.402   2.929   2.838
35769W        W99977  20.220  20.108   0.750
35770W        W99978  36.043  39.850   3.288
35771W        W99979  31.110   3.231   4.155
35772W        W99980  16.751  36.467  11.438
35773W        W99981  13.723  31.128   1.721
35774W        W99982  11.838  10.315   2.807
35775W        W99983  29.461  19.275   0.387
35776W        W99984   3.357  22.708  13.055
35777W        W99985  15.758  42.799   1.385
35778W        W99986  37.421  35.881   2.704
35779W        W99987  35.593  19.754   1.922
35780W        W99988   1.443  37.866   2.291
35781W        W99989  41.988  34.381  11.015
35782W        W99990  36.931  10.716  14.921
35783W        W99991  31.011  14.737   3.160
35784W        W99992  44.272  28.486   1.422
35785W        W99993  20.136  38.343   5.320
35786W        W99994  15.757   4.704  13.868
35787W        W99995  11.664  37.979  10.635
35788W        W99996  40.852  43.970   2.194
35789W        W99997  42.783  24.087  13.987
35790W        W99998  37.842  27.110  13.478
35791W        W99999   7.817  19.717  10.898
35792W        W    0   0.354  24.718  13.017
35793W        W    1  31.578   7.416   1.248
35794W        W    2   6.231  26.163  14.278
35795W        W    3   0.386  17.762  12.579
35796W        W    4   1.355   3.831   1.325
35797W        W    5   2.957  17.691  12.458
35798W        W    6  37.443   4.432   2.180
35799W        W    7  19.538  32.446   4.331
35800W        W    8  28.532  40.437   4.273
35801W        W    9  12.180  31.936  12.838
35802W        W   10  20.092   6.356   2.362
35803W        W   11   3.363  36.526   2.664
35804W        W   12  33.528  27.174  14.986
35805W        W   13  37.557  39.926  12.937
35806W        W   14  34.992   4.903  13.844
35807W        W   15  41.347  27.030   1.698
35808W        W   16  16.716  29.458   0.248
35809W        W   17  12.197  18.558  13.882
35810W        W   18  43.508  19.105   0.839
35811W        W   19  12.738   9.345   0.836
35812W        W   20  41.381   3.314   1.811
35813W        W   21  14.833   4.228   3.708
35814W        W   22  27.027  37.080  11.124
35815W        W   23  14.690  38.886  10.419
35816W        W   24  19.571  23.585   1.804
35817W        W   25  37.028  15.599  13.943
35818W        W   26  32.094  41.017  14.284
35819W        W   27   2.455  12.311  12.889
35820W        W   28  27.951  33.952  12.844
35821W        W   29  40.931   2.862  14.421
35822W        W   30  14.631  26.156  12.541
35823W        W   31  36.438  21.549   3.692
35824W        W   32  34.020  21.554  13.811
35825W        W   33   8.780  10.728   4.288
35826W        W   34  22.734   4.435  11.438
35827W        W   35   6.291  13.652   4.128
35828W        W   36  22.172  37.558  12.032
35829W        W   37  38.551   4.394   3.646
35830W        W   38  11.311   1.353  14.876
35831W        W   39  39.929  44.459  12.390
35832W        W   40  31.897  40.537  13.504
35833W        W   41   0.820  43.888  14.885
35834W        W   42  27.060  34.443  13.449
35835W        W   43   7.181   4.909   3.672
35836W        W   44  15.773  14.148  11.395
35837W        W   45  17.563  12.281  11.456
35838W        W   46   8.674  37.365  12.865
35839W        W   47  32.028  22.098  11.032
35840W        W   48  22.667   9.721   4.201
35841W        W   49  25.190  39.535   0.783
35842W        W   50  27.188  42.448  13.791
35843W        W   51  19.058  22.623  12.380
35844W        W   52  42.401   6.918   3.338
35845W        W   53  43.934  32.135   2.244
35846W        W   54  34.980   4.364  11.509
35847W        W   55  26.114  40.882  13.988
35848W        W   56  25.509  44.482   5.164
35849W        W   57  11.370   9.861  12.547
35850W        W   58  26.585  11.357  10.463
35851W        W   59  24.207  40.997   4.148
35852W        W   60  37.053  13.683  12.024
35853W        W   61  12.805   2.911  14.485
35854W        W   62   7.886   5.824   4.348
35855W        W   63  21.255  37.044  13.432
35856W        W   64  22.544  34.515  14.915
35857W        W   65  22.515  40.892  13.846
35858W        W   66  31.563  24.589  11.973
35859W        W   67   5.356  24.210   4.672
35860W        W   68  33.584   7.179  12.883
35861W        W   69  10.374  32.551   0.432
35862W        W   70   3.728  37.457   3.355
35863W        W   71  17.696  18.140  14.903
35864W        W   72  44.410  11.366  12.914
35865W        W   73  38.972  34.439   3.757
35866W        W   74  12.240  18.255   0.878
35867W        W   75  39.822  10.260   2.760
35868W        W   76  28.018  32.558  13.483
35869W        W   77  17.662  43.000  12.844
35870W        W   78  29.132  43.845   4.310
35871W        W   79  21.664  13.701   4.273
35872W        W   80  31.949  24.136  10.612
35873W        W   81  23.612  39.808   3.332
35874W        W   82  20.625   0.419   1.850
35875W        W   83   6.717  25.527  11.437
35876W        W   84  19.636   8.193   0.923
35877W        W   85  19.242  40.991  10.973
35878W        W   86  30.575   1.480   1.259
35879W        W   87  17.659  13.772   1.344
35880W        W   88   2.262   6.806   1.273
35881W        W   89  29.641   5.407   2.351
35882W        W   90  21.593  24.495  13.520
35883W        W   91  30.036  31.549   3.340
35884W        W   92  15.235  17.181   2.871
35885W        W   93  27.151  41.359  10.562
35886W        W   94  38.031  25.576   4.797
35887W        W   95  18.294  38.413   2.278
35888W        W   96  25.669  34.604   4.280
35889W        W   97  10.273  33.962   2.413
35890W        W   98   8.206  15.681   2.398
35891W        W   99  35.538   8.848  12.475
35892W        W  100  32.108  34.083  14.340
35893W        W  101  44.943   4.735  14.462
35894W        W  102  42.399  13.200   2.403
35895W        W  103  10.774  38.878  12.473
35896W        W  104  38.831  22.145  12.514
35897W        W  105  24.703   5.204   3.659
35898W        W  106  35.975  37.995   2.398
35899W        W  107  25.201  22.188  13.528
35900W        W  108  42.362   6.813   4.117
35901W        W  109   1.351   4.206   3.779
35902W        W  110  29.957   3.842  11.583
35903W        W  111  31.574  24.163   4.635
35904W        W  112  22.209  29.613   3.283
35905W        W  113  19.048   3.444  12.463
35906W        W  114  27.179   4.359  12.026
35907W        W  115  16.298  30.497  13.795
35908W        W  116  38.920  12.161  11.397
35909W        W  117  14.753  30.476   2.192
35910W        W  118  37.506  22.162  12.029
35911W        W  119  23.083  25.190   4.297
35912W        W  120   0.450   8.825   5.282
35913W        W  121   6.203  39.552   1.840
35914W        W  122   1.783  21.646   4.786
35915W        W  123  44.486   5.396   3.321
35916W        W  124  29.028   8.202   3.218
35917W        W  125  34.928  38.551   2.389
35918W        W  126  16.585  35.968   0.402
35919W        W  127  17.091  39.364  11.529
35920W        W  128  13.207  23.734   3.367
35921W        W  129   5.393  34.467  13.813
35922W        W  130  36.379   7.223   2.665
35923W        W  131   6.366  18.605   2.871
35924W        W  132  30.440  32.921   4.710
35925W        W  133   3.429   5.409  13.988
35926W        W  134  15.295   4.208   0.402
35927W        W  135  28.582   4.325  13.315
35928W        W  136  36.583   2.872  13.406
35929W        W  137   6.709  28.047  14.920
35930W        W  138  35.089  32.093  10.965
35931W        W  139  27.089  29.991  10.941
35932W        W  140  24.683  25.487  14.784
35933W        W  141  11.714  44.284   3.172
35934W        W  142  25.004  44.899  11.944
35935W        W  143  21.686  30.975  11.013
35936W        W  144  20.715  10.239   4.228
35937W        W  145  34.979  24.537   2.822
35938W        W  146  19.694  15.646   4.126
35939W        W  147   0.468  33.889  13.044
35940W        W  148  20.631  25.199  14.001
35941W        W  149  31.045  24.179  14.995
35942W        W  150  19.126  42.925  14.491
35943W        W  151  28.617  43.846   2.752
35944W        W  152  36.443  22.698  10.121
35945W        W  153   8.320  13.662  13.527
35946W        W  154   4.292   9.870   2.279
35947W        W  155  43.513  17.740  11.074
35948W        W  156  16.248  35.033   0.318
35949W        W  157  12.817  29.056  13.976
35950W        W  158  42.929   7.201  12.560
35951W        W  159  26.017   3.357   3.182
35952W        W  160  42.346   9.885   3.724
35953W        W  161  33.420  43.936   3.697
35954W        W  162  27.645  22.568   2.275
35955W        W  163  16.139  22.221  13.029
35956W        W  164   2.951   6.801  14.333
35957W        W  165  32.529  22.148  14.918
35958W        W  166  34.572  38.385  14.330
35959W        W  167   5.800  19.687   1.427
35960W        W  168  42.842  14.769   5.224
35961W        W  169  34.463  26.151  10.481
35962W        W  170  12.230   7.897  14.850
35963W        W  171  26.034  24.976  11.019
35964W        W  172  31.989  12.179   0.834
35965W        W  173  32.088  36.421  12.939
35966W        W  174  22.570  29.961  11.899
35967W        W  175  41.042  13.725  12.896
35968W        W  176  38.530  24.482  12.826
35969W        W  177  31.118  17.592  11.960
35970W        W  178  39.544   2.378  14.472
35971W        W  179   7.884  43.925  14.021
35972W        W  180  10.727  28.116  10.054
35973W        W  181  32.910   8.785  14.916
35974W        W  182  36.064  13.237   1.439
35975W        W  183  29.076  21.518  14.948
35976W        W  184  18.059  23.583   0.904
35977W        W  185  17.643   0.946   2.407
35978W        W  186  19.546   1.753  12.569
35979W        W  187  42.848  23.093  13.428
35980W        W  188  36.037  15.197  12.923
35981W        W  189  25.972  39.476   4.326
35982W        W  190   4.701  12.182  10.432
35983W        W  191  15.787  37.054   2.396
35984W        W  192  27.609  33.881  11.035
35985W        W  193   0.411  32.002   0.250
35986W        W  194  16.144   5.255   0.392
35987W        W  195  22.519  44.364   1.833
35988W        W  196   6.257  19.688  13.544
35989W        W  197  36.870  43.857  13.970
35990W        W  198  34.981   8.762   5.244
35991W        W  199   4.869   2.325  13.877
35992W        W  200   9.278  41.787   4.222
35993W        W  201  10.838  43.001   1.852
35994W        W  202  31.537  25.541   0.824
35995W        W  203  29.541   6.219   3.760
35996W        W  204   2.727  37.556   4.204
35997W        W  205   9.825  44.315  12.038
35998W        W  206  38.551  12.654  10.446
35999W        W  207  14.209  22.006  14.874
36000W        W  208   5.403  27.026   1.387
36001W        W  209  39.315  37.971   0.848
36002W        W  210  12.360  21.603  14.421
36003W        W  211   5.360  17.746   1.369
36004W        W  212  31.097  32.048   3.772
36005W        W  213   6.256  23.177   3.334
36006W        W  214  24.149  35.094   0.894
36007W        W  215  39.013  28.572  14.794
36008W        W  216  42.819  27.011  10.911
36009W        W  217  33.597  28.547  11.960
36010W        W  218  33.957  29.926   0.868
36011W        W  219  26.953  26.518   2.192
36012W        W  220  34.019  23.489   0.482
36013W        W  221  14.137  26.054  12.900
36014W        W  222  21.579  21.601   2.822
36015W        W  223  33.059  40.838   2.241
36016W        W  224  42.491  40.321  14.766
36017W        W  225  17.617   3.947  14.435
36018W        W  226   8.855  38.374   4.812
36019W        W  227  21.144  35.419  12.928
36020W        W  228  18.132   2.394   4.769
36021W        W  229   7.342  31.632   3.191
36022W        W  230  24.601  18.547  11.948
36023W        W  231  40.932  41.476  13.424
36024W        W  232   6.333   8.821   5.190
36025W        W  233  14.122  12.639  12.063
36026W        W  234  20.582  34.875  11.500
36027W        W  235  38.375   4.773  14.889
36028W        W  236  25.639  18.787   1.308
36029W        W  237   3.460  27.131   0.422
36030W        W  238  37.037  20.567  13.935
36031W        W  239  42.899  39.475  12.918
36032W        W  240  21.071  24.110  13.889
36033W        W  241   3.351  18.718  10.530
36034W        W  242   7.716   7.368   1.889
36035W        W  243  17.216  20.683   2.712
36036W        W  244  41.342   7.239   0.882
36037W        W  245  25.149   8.873   0.735
36038W        W  246  40.837  16.136   5.566
36039W        W  247   3.725  19.722   4.729
36040W        W  248  36.874   3.817  11.917
36041W        W  249  29.930  17.136  11.510
36042W        W  250   2.416   4.794  10.021
36043W        W  251  19.567   3.324   4.246
36044W        W  252  44.973  26.157   2.868
36045W        W  253  27.674  18.105  14.959
36046W        W  254   2.791  20.743  13.021
36047W        W  255  10.330  13.754   4.233
36048W        W  256   9.889   9.185   2.393
36049W        W  257   6.807  23.554  11.511
36050W        W  258  32.124  31.611   3.748
36051W        W  259   1.350  35.953   1.820
36052W        W  260  18.726  28.151  14.332
36053W        W  261  10.219  17.727  12.495
36054W        W  262   2.856  10.335   2.187
36055W        W  263   9.201  32.021   0.780
36056W        W  264  27.008  42.929  10.924
36057W        W  265  41.529  19.091  14.429
36058W        W  266  41.889  18.266  13.516
36059W        W  267  39.965  35.522  11.070
36060W        W  268  16.738  43.360   4.176
36061W        W  269  33.507  11.131   9.975
36062W        W  270   2.288  24.505  11.450
36063W        W  271  39.496  39.917  11.442
36064W        W  272  24.590  42.291  13.440
36065W        W  273  15.321  31.595  11.532
36066W        W  274  34.117   8.865   0.728
36067W        W  275  36.552  43.435   0.857
36068W        W  276  20.254  43.294   4.236
36069W        W  277  37.082  33.416   1.812
36070W        W  278   8.343  25.096   1.273
36071W        W  279   2.321  40.430  11.377
36072W        W  280  19.118  43.510   0.912
36073W        W  281  18.642   7.350  13.039
36074W        W  282  27.504  18.097   1.344
36075W        W  283  16.291  25.474  12.988
36076W        W  284  23.041  16.312  13.343
36077W        W  285  31.425  35.024   1.337
36078W        W  286  43.938  10.718   2.399
36079W        W  287  20.741  21.209  11.484
36080W        W  288   2.851  14.757  12.571
36081W        W  289   8.790   2.839  14.478
36082W        W  290  39.479  33.541   1.772
36083W        W  291  30.644  17.139  14.291
36084W        W  292  44.367   9.815  12.490
36085W        W  293  25.153  14.131   0.764
36086W        W  294  21.100  29.170   4.726
36087W        W  295  17.741  20.238   3.849
36088W        W  296  38.341  19.197   3.824
36089W        W  297  32.528   0.271  11.928
36090W        W  298  14.813  21.567   3.773
36091W        W  299  27.987  19.711   3.277
36092W        W  300  15.217  17.786   4.319
36093W        W  301   8.330  14.182  11.089
36094W        W  302  27.667  16.174  14.426
36095W        W  303  37.032  27.577  14.767
36096W        W  304  36.579  36.060  12.397
36097W        W  305  12.231  40.012   4.209
36098W        W  306  30.910  28.929  14.492
36099W        W  307  17.276  10.213  12.364
36100W        W  308  33.027  16.144   0.824
36101W        W  309  33.970   3.250   1.757
36102W        W  310  33.063   1.735   4.675
36103W        W  311  39.054  10.714   4.150
36104W        W  312  31.474  39.993  11.558
36105W        W  313  20.582  23.078  10.927
36106W        W  314  35.399   1.836  11.033
36107W        W  315  41.498  16.723   3.770
36108W        W  316   1.295  35.947  14.818
36109W        W  317  26.205  36.952  11.509
36110W        W  318  27.948  28.452  14.457
36111W        W  319  14.716  33.065  13.852
36112W        W  320  12.617  36.553  13.925
36113W        W  321  28.510   2.730   1.284
36114W        W  322  21.224  20.088   1.414
36115W        W  323  19.156  23.490  10.962
36116W        W  324  25.045  40.485  13.954
36117W        W  325  17.612  37.397  11.546
36118W        W  326  20.551  17.064   1.309
36119W        W  327  18.622  15.602  14.408
36120W        W  328  33.566  32.547  13.343
36121W        W  329  31.977  36.442   4.689
36122W        W  330  29.175  14.596   5.788
36123W        W  331   4.747  43.363   0.271
36124W        W  332  16.251   4.444  13.796
36125W        W  333  33.971  16.600   4.651
36126W        W  334  31.612  31.534  14.809
36127W        W  335  33.884  23.655   3.203
36128W        W  336   4.914  27.144   2.686
36129W        W  337  26.152  21.218  14.982
36130W        W  338  25.167   2.729  11.009
36131W        W  339  35.365  29.087   3.777
36132W        W  340  32.427  17.098  11.087
36133W        W  341   6.704  31.978  11.442
36134W        W  342  11.264  16.709   0.416
36135W        W  343   5.858  33.519  13.036
36136W        W  344   7.366  30.577   4.822
36137W        W  345  40.998  10.278   4.134
36138W        W  346  43.863  39.341  13.409
36139W        W  347   1.332   3.870  12.389
36140W        W  348  33.509   9.689  10.547
36141W        W  349  32.608  15.093   3.237
36142W        W  350  39.399  41.401   0.841
36143W        W  351  43.447  43.314  13.806
36144W        W  352   6.856  16.812   0.744
36145W        W  353  22.602   0.898  14.367
36146W        W  354  24.046  13.161   1.346
36147W        W  355  29.114   2.905   4.229
36148W        W  356   5.817   0.857   4.214
36149W        W  357  40.472  17.594   0.302
36150W        W  358  16.141  39.477  12.557
36151W        W  359  25.174   1.463  13.953
36152W        W  360  41.815  25.034  11.383
36153W        W  361  22.686  40.520  14.943
36154W        W  362  32.556   1.422  14.893
36155W        W  363  28.936  19.235  10.420
36156W        W  364   6.324  14.750   2.313
36157W        W  365  14.154  14.175  12.849
36158W        W  366   9.860  20.728   0.387
36159W        W  367   6.691  15.238   0.821
36160W        W  368  18.137  43.387  10.941
36161W        W  369   7.778  19.635  14.404
36162W        W  370  23.213  37.342   2.279
36163W        W  371  34.615  15.577  14.431
36164W        W  372   1.853   8.202  13.976
36165W        W  373  19.533  10.791  10.970
36166W        W  374   6.757  42.978   4.252
36167W        W  375  17.079  21.644   4.741
36168W        W  376  17.796  15.771  13.957
36169W        W  377   7.205  12.635  11.933
36170W        W  378  25.026  12.130   3.159
36171W        W  379   4.445  17.783   4.141
36172W        W  380  24.619   5.339   0.373
36173W        W  381  29.939  21.539  11.090
36174W        W  382  34.039   2.734  14.759
36175W        W  383   1.932  26.146   2.681
36176W        W  384  32.478  13.200   4.177
36177W        W  385  40.934   1.765  10.072
36178W        W  386  44.967  30.577  11.008
36179W        W  387  23.208  13.169   0.792
36180W        W  388  24.982  15.289   4.600
36181W        W  389  42.400  26.015  13.796
36182W        W  390  43.813  10.773   1.258
36183W        W  391  26.167  19.130   4.751
36184W        W  392  15.154  10.854  13.538
36185W        W  393   3.798  22.716   4.792
36186W        W  394  44.932   8.295  10.423
36187W        W  395  29.564  19.766  14.834
36188W        W  396  13.193   5.343   1.777
36189W        W  397  28.483   4.216  12.418
36190W        W  398  15.660  27.691  10.453
36191W        W  399  16.077  17.608   1.288
36192W        W  400  13.702  30.658   3.280
36193W        W  401  40.841  27.572   0.756
36194W        W  402  21.215  38.471   3.302
36195W        W  403   4.739  42.337   3.699
36196W        W  404   5.744   1.745  11.885
36197W        W  405  27.591  29.144   2.682
36198W        W  406   9.244  11.322  11.120
36199W        W  407  22.502  33.570   4.231
36200W        W  408   5.920  24.100  14.337
36201W        W  409  29.106  26.982   3.693
36202W        W  410  23.100  44.838   3.855
36203W        W  411  28.607  42.389   0.460
36204W        W  412  14.227  33.425  12.961
36205W        W  413  34.105   3.295  14.330
36206W        W  414   6.833  20.656   4.320
36207W        W  415  23.179  30.072   3.306
36208W        W  416   2.804  41.483  11.407
36209W        W  417  20.621  30.568  12.938
36210W        W  418   2.282  42.912  14.955
36211W        W  419  33.538  17.787  13.333
36212W        W  420  13.165   3.422   0.358
36213W        W  421  12.349   4.364   0.386
36214W        W  422  43.371   3.893   2.311
36215W        W  423  10.719  39.854   3.267
36216W        W  424   3.348  34.602  14.949
36217W        W  425  43.796   3.912  13.992
36218W        W  426  11.738  42.525  12.079
36219W        W  427   6.211  17.237  12.424
36220W        W  428  13.199   4.906   0.338
36221W        W  429  32.448  37.841  14.336
36222W        W  430  44.336  11.291   3.279
36223W        W  431  34.027  19.096   2.348
36224W        W  432  32.076  32.982  11.509
36225W        W  433  30.575   1.816  12.025
36226W        W  434  23.134  38.903  12.444
36227W        W  435   8.341  12.743  13.056
36228W        W  436  10.284  23.066  12.498
36229W        W  437  42.956  13.313  11.885
36230W        W  438  31.911  18.772   1.283
36231W        W  439  12.155  15.609  14.996
36232W        W  440  39.870   9.755  14.382
36233W        W  441  10.205   6.886  13.966
36234W        W  442  38.935  14.633  10.519
36235W        W  443   9.283   1.817   5.099
36236W        W  444  36.883  22.711   0.769
36237W        W  445  28.442  44.869   4.751
36238W        W  446  12.676  36.997   1.258
36239W        W  447  40.805  39.352   4.312
36240W        W  448  30.921  13.215   3.285
36241W        W  449  16.183  34.514   5.219
36242W        W  450  35.511  34.011   1.875
36243W        W  451  24.694   4.415  14.997
36244W        W  452   6.683  27.068   4.305
36245W        W  453  24.605  22.143   0.796
36246W        W  454  36.878   9.700  12.836
36247W        W  455  42.788  31.980  12.013
36248W        W  456   9.699  22.019   2.388
36249W        W  457  34.385   3.769   3.163
36250W        W  458  17.683  22.251  12.080
36251W        W  459  34.917  17.063  10.136
36252W        W  460  27.966  24.005  13.862
36253W        W  461  19.613  25.603  12.407
36254W        W  462  36.879  42.285  14.791
36255W        W  463   7.860  24.549  11.482
36256W        W  464  22.047  22.732   1.427
36257W        W  465   7.713  26.626  11.877
36258W        W  466  25.672  23.564  12.482
36259W        W  467  42.336  31.481   5.282
36260W        W  468  10.719  35.921   1.718
36261W        W  469   5.345  40.330   1.252
36262W        W  470  33.892  18.646   2.383
36263W        W  471  13.121  40.952   3.190
36264W        W  472  38.908  31.080   2.749
36265W        W  473   7.733  13.215   0.855
36266W        W  474  32.122  20.559  10.486
36267W        W  475  34.046  21.070   1.698
36268W        W  476  20.029  44.919   3.749
36269W        W  477  15.285  18.616   2.348
36270W        W  478  11.826  15.728   1.756
36271W        W  479  20.221  29.061   2.329
36272W        W  480   3.218  40.946  12.369
36273W        W  481  11.643   0.470   3.783
36274W        W  482  22.557  41.470  13.395
36275W        W  483  35.484   1.386   0.342
36276W        W  484  14.834  22.641  11.024
36277W        W  485   0.753   5.386   5.238
36278W        W  486  28.000   5.907  12.848
36279W        W  487  10.373  42.343   3.372
36280W        W  488  26.526  34.405  12.908
36281W        W  489  11.178   1.400   3.862
36282W        W  490  22.218  13.296  12.071
36283W        W  491  21.200  44.271   3.322
36284W        W  492  29.095  26.977   1.297
36285W        W  493  43.290  31.647  12.505
36286W        W  494   7.889  13.169   4.118
36287W        W  495  15.197  36.005   1.408
36288W        W  496  44.262  42.519   4.793
36289W        W  497  35.869   8.871   0.286
36290W        W  498  31.538  23.181  12.030
36291W        W  499  13.233   5.202  13.938
36292W        W  500   7.238  43.998   4.209
36293W        W  501   1.277   7.401  12.381
36294W        W  502  21.111   0.268   0.244
36295W        W  503   1.252  36.484   0.248
36296W        W  504  22.218  43.877   4.130
36297W        W  505   9.390   2.345   0.476
36298W        W  506  20.131  26.993  12.368
36299W        W  507   8.868  42.013   3.816
36300W        W  508  35.595  15.164   0.257
36301W        W  509  36.875  21.191  11.099
36302W        W  510  25.591   2.459   0.462
36303W        W  511  34.376  15.789  14.916
36304W        W  512  36.396  42.836  13.421
36305W        W  513  36.862  44.836  12.937
36306W        W  514  13.166  44.889   2.710
36307W        W  515   7.398   8.737  13.036
36308W        W  516   1.363  22.154   1.843
36309W        W  517   3.255  40.977  12.834
36310W        W  518   4.910  34.557  10.640
36311W        W  519  31.900  43.905  12.909
36312W        W  520  30.941  35.886  12.975
36313W        W  521  14.305   5.387  10.612
36314W        W  522  27.070   6.249  11.077
36315W        W  523  24.207  30.148   2.265
36316W        W  524  19.146  10.381   1.930
36317W        W  525  33.444   5.235  14.904
36318W        W  526  18.254  37.945   0.750
36319W        W  527  32.438  35.372  11.605
36320W        W  528  10.683  12.798   2.750
36321W        W  529   3.941  22.050   4.740
36322W        W  530  31.980  22.607  14.845
36323W        W  531  37.425  12.653   2.277
36324W        W  532   4.367  12.199  12.029
36325W        W  533  11.255  19.223   2.793
36326W        W  534  20.234  42.385   1.710
36327W        W  535  19.580   7.761   1.311
36328W        W  536  20.103  23.670  10.058
36329W        W  537   0.333  21.635  14.357
36330W        W  538   1.247  13.773  13.430
36331W        W  539   3.327  42.520   0.373
36332W        W  540   3.951  19.670   5.283
36333W        W  541  23.636  37.496   4.165
36334W        W  542   4.214  37.834   1.230
36335W        W  543  41.452  33.090   3.819
36336W        W  544  25.625  20.711   1.323
36337W        W  545   4.860   3.378  12.927
36338W        W  546   0.869  21.713   4.764
36339W        W  547   7.327  12.229  13.899
36340W        W  548  26.957  21.554   3.382
36341W        W  549  10.361  19.539  11.094
36342W        W  550  17.559  34.112  10.491
36343W        W  551  41.491  34.876   2.834
36344W        W  552  30.568  17.274   5.083
36345W        W  553  33.973  22.647   3.752
36346W        W  554   1.247  39.959  10.892
36347W        W  555  13.776  21.094  11.518
36348W        W  556   2.425  22.576   0.769
36349W        W  557  33.013  18.655  12.010
36350W        W  558  10.844  36.041  12.897
36351W        W  559   3.342  43.497   4.789
36352W        W  560  16.185  37.967  11.433
36353W        W  561  37.039  38.338  14.978
36354W        W  562   1.763  31.416   4.315
36355W        W  563  22.185  31.932   1.371
36356W        W  564  16.667  25.180  13.435
36357W        W  565  19.686  36.434   5.285
36358W        W  566   2.293   8.364  10.530
36359W        W  567  37.432   6.346  13.378
36360W        W  568   1.397  13.815   4.234
36361W        W  569  17.624   1.782  10.922
36362W        W  570   6.811  29.974   4.804
36363W        W  571   2.309  31.575   4.774
36364W        W  572   7.686   1.803  10.967
36365W        W  573  38.929  25.115   3.289
36366W        W  574  15.189  19.640   3.650
36367W        W  575  21.666  17.680  11.517
36368W        W  576   1.788  22.174   2.282
36369W        W  577  26.136  44.503   3.254
36370W        W  578  21.256  12.646   3.861
36371W        W  579  23.186   4.834  12.060
36372W        W  580  36.589  24.540  10.580
36373W        W  581  10.208  20.130  13.502
36374W        W  582  33.542  19.236   2.234
36375W        W  583   0.918  18.211  10.585
36376W        W  584  23.050   3.324   4.345
36377W        W  585  33.989   4.303  13.946
36378W        W  586  38.894   3.896  11.489
36379W        W  587  16.193  24.173  14.443
36380W        W  588  15.177  20.562   3.239
36381W        W  589  41.522  15.740  14.848
36382W        W  590  20.194  35.904   3.298
36383W        W  591  19.686  28.659  13.005
36384W        W  592  44.788  28.996  12.085
36385W        W  593  41.517  33.624  14.380
36386W        W  594  35.954  41.397   0.887
36387W        W  595  44.920  30.515   3.312
36388W        W  596  31.962  36.450   4.122
36389W        W  597  24.223  16.201   0.269
36390W        W  598   1.763  31.117   1.861
36391W        W  599  11.196  38.986   3.808
36392W        W  600   6.224  38.996   5.311
36393W        W  601   0.941   1.896  11.460
36394W        W  602  22.508  15.172  12.884
36395W        W  603  19.742  26.092  10.904
36396W        W  604   0.799  44.470   1.222
36397W        W  605  35.889   8.885   4.217
36398W        W  606  11.746  30.911   3.704
36399W        W  607  12.238  27.033  12.383
36400W        W  608  40.541  19.695  14.515
36401W        W  609  42.912  29.924   3.281
36402W        W  610  15.629   2.465   4.185
36403W        W  611  12.743   2.931   4.763
36404W        W  612  17.588  11.168  13.905
36405W        W  613  13.267  32.602   4.316
36406W        W  614  16.274  24.067  13.893
36407W        W  615  29.666  38.901   4.209
36408W        W  616   4.385  41.845  13.321
36409W        W  617  39.488   4.285  13.818
36410W        W  618  27.189  40.051   3.644
36411W        W  619  39.014   7.844  13.923
36412W        W  620  25.545  28.144  13.053
36413W        W  621  38.011  27.140   4.274
36414W        W  622  40.896   8.776  14.362
36415W        W  623  28.097   1.361   1.778
36416W        W  624  13.742  33.607   3.692
36417W        W  625  14.197  35.365   0.259
36418W        W  626  43.999  30.121  10.971
36419W        W  627  41.952  18.192   3.193
36420W        W  628  42.281  39.052   3.327
36421W        W  629  37.347  24.183  13.894
36422W        W  630   3.398  42.429   4.709
36423W        W  631  28.596  10.306   4.260
36424W        W  632  43.307   9.162  10.406
36425W        W  633  35.963   6.417  11.954
36426W        W  634  15.286  13.689  11.452
36427W        W  635  40.889  33.062  13.900
36428W        W  636  31.923   5.697  10.929
36429W        W  637  28.587   7.817  11.863
36430W        W  638  14.598   6.807  13.431
36431W        W  639  20.093  28.474   2.789
36432W        W  640  16.696  29.035  10.610
36433W        W  641  39.554  27.039   3.841
36434W        W  642  20.131  14.282  14.403
36435W        W  643  27.006  39.437   4.676
36436W        W  644  26.462  26.685  13.814
36437W        W  645  39.453  21.546   4.677
36438W        W  646  33.912  11.866   3.150
36439W        W  647  26.562  22.093   3.853
36440W        W  648  23.123  30.923   3.177
36441W        W  649  43.892  40.412  13.541
36442W        W  650  36.962  24.058   1.337
36443W        W  651  21.083  15.148   1.773
36444W        W  652  35.604  43.302  11.049
36445W        W  653  44.902  25.493  14.453
36446W        W  654  30.933  31.608   2.708
36447W        W  655  10.155  11.859   5.213
36448W        W  656  24.139  38.969   2.284
36449W        W  657  40.376  23.702   4.785
36450W        W  658  22.601  11.198  11.995
36451W        W  659  43.284   7.747  14.370
36452W        W  660  33.072   0.487   1.707
36453W        W  661  37.501   9.671   1.229
36454W        W  662  38.967  27.568   1.853
36455W        W  663  42.343  22.011  14.968
36456W        W  664  20.179  35.864  12.407
36457W        W  665  38.020  19.113  12.495
36458W        W  666  26.066   0.326  11.992
36459W        W  667  32.984   1.777   0.364
36460W        W  668  31.622  23.639   0.330
36461W        W  669  35.359  38.983  10.953
36462W        W  670  14.211  35.983   2.376
36463W        W  671  17.230   9.155  13.413
36464W        W  672  38.383  17.798   1.927
36465W        W  673  17.714  30.075  11.004
36466W        W  674  30.003   3.406  14.821
36467W        W  675  41.802   6.777   1.269
36468W        W  676   1.364   6.292   1.269
36469W        W  677   3.885  30.474  13.426
36470W        W  678   2.361  43.372   3.278
36471W        W  679  41.938  39.876   2.406
36472W        W  680  14.230   0.461  13.818
36473W        W  681  34.402  21.128  11.507
36474W        W  682   5.793  41.349   3.322
36475W        W  683  42.872  39.913  12.848
36476W        W  684   8.672   1.821   0.867
36477W        W  685   9.748  44.801  11.042
36478W        W  686   2.735  42.914   1.907
36479W        W  687  11.196   9.170  13.541
36480W        W  688  23.101  25.711  14.913
36481W        W  689  32.045  29.666   2.311
36482W        W  690   6.712  21.722  12.404
36483W        W  691  10.285  17.273  12.565
36484W        W  692  25.969  33.615   2.205
36485W        W  693  40.918  37.941  12.548
36486W        W  694  35.884  11.694   2.413
36487W        W  695  36.072   2.894  13.891
36488W        W  696   5.712  13.601   4.145
36489W        W  697  35.997  17.627  13.350
36490W        W  698  34.506  15.579  11.980
36491W        W  699   0.801  33.451  13.818
36492W        W  700  42.486  26.572  10.995
36493W        W  701  13.159  40.998  14.326
36494W        W  702   9.215  18.601  12.978
36495W        W  703  17.758  29.064   1.285
36496W        W  704  43.005  25.621   0.827
36497W        W  705   1.350   7.187  12.868
36498W        W  706   3.308  29.041  14.461
36499W        W  707  18.179  10.650  14.861
36500W        W  708  19.135  20.202  14.881
36501W        W  709  16.103  11.232   0.920
36502W        W  710  37.526  29.453  10.580
36503W        W  711   7.833  17.790  12.445
36504W        W  712  39.552  10.151  11.927
36505W        W  713  27.644  28.565  12.872
36506W        W  714   4.823  44.452   5.083
36507W        W  715  32.110  43.937  14.415
36508W        W  716  12.695  12.753  12.901
36509W        W  717   9.778  22.127  13.973
36510W        W  718   9.332  32.933   3.856
36511W        W  719   5.319  43.337   1.242
36512W        W  720   0.311  31.944   1.736
36513W        W  721   9.260  11.751  10.531
36514W        W  722  30.601  16.797  12.419
36515W        W  723  42.525  13.190  10.909
36516W        W  724   6.735  16.099  14.506
36517W        W  725  24.984  27.567  12.911
36518W        W  726  25.004   4.770   1.802
36519W        W  727  26.056  29.101   4.608
36520W        W  728  36.073  42.025  13.929
36521W        W  729  15.699  22.643   0.965
36522W        W  730  35.974  12.667   3.664
36523W        W  731  34.416  12.157  11.936
36524W        W  732  21.144  35.078  13.972
36525W        W  733  39.493  25.156   4.704
36526W        W  734   5.247  36.972   2.738
36527W        W  735  32.600  31.044   2.717
36528W        W  736  17.791  18.160   3.272
36529W        W  737  11.853  16.217  13.923
36530W        W  738  14.756   9.375  12.995
36531W        W  739  37.427  41.854  14.968
36532W        W  740   7.901  20.748  10.564
36533W        W  741  31.963   9.783   3.204
36534W        W  742  44.787  27.459   5.258
36535W        W  743  38.053  37.947   3.733
36536W        W  744   7.307  19.229  13.998
36537W        W  745  25.173  17.619  11.414
36538W        W  746   8.374  36.401   2.766
36539W        W  747  15.211  26.683   2.363
36540W        W  748   1.900  18.657   3.648
36541W        W  749  10.310  22.151   2.743
36542W        W  750   1.360  44.817   2.356
36543W        W  751  25.044  40.495  11.069
36544W        W  752   3.246  31.625   1.360
36545W        W  753  16.144  23.186  11.402
36546W        W  754  20.080  35.932  10.583
36547W        W  755  42.965  25.666  10.442
36548W        W  756  14.201  19.149  10.941
36549W        W  757  34.503   5.370  12.024
36550W        W  758  14.640  16.750  12.847
36551W        W  759   6.699  24.611  13.503
36552W        W  760  13.755  34.032  12.347
36553W        W  761  31.009  27.657  14.430
36554W        W  762  38.842  37.401   2.743
36555W        W  763  35.095  30.935  12.479
36556W        W  764  22.102  15.772  14.790
36557W        W  765  17.286  10.867   4.313
36558W        W  766  35.950  16.286  14.985
36559W        W  767   7.775  35.962   0.891
36560W        W  768  38.417  35.587  11.094
36561W        W  769  31.058  26.647   4.245
36562W        W  770  44.278  31.640   0.734
36563W        W  771  24.218  10.160   5.153
36564W        W  772   2.396  14.224   3.845
36565W        W  773  33.019  33.552  12.058
36566W        W  774  11.182  29.155  13.465
36567W        W  775  30.932   8.721  14.416
36568W        W  776  43.332   0.429   4.118
36569W        W  777  15.202  12.266  12.906
36570W        W  778  38.398  12.848   4.793
36571W        W  779   1.426  24.071  11.069
36572W        W  780  42.405  16.269   0.432
36573W        W  781   2.891  41.497   3.215
36574W        W  782  16.622  18.617   3.215
36575W        W  783  41.384  38.372   4.198
36576W        W  784   4.776  13.826  13.956
36577W        W  785  14.215  15.315  14.775
36578W        W  786  40.438  20.182  12.999
36579W        W  787  23.993  43.835  13.472
36580W        W  788  17.743  28.128  13.530
36581W        W  789   4.278  30.070  14.961
36582W        W  790  18.549   9.356  14.426
36583W        W  791  17.693   2.271  14.382
36584W        W  792  21.056  41.956   4.796
36585W        W  793  22.207  35.413  11.515
36586W        W  794  30.157  23.189   0.406
36587W        W  795  28.633  30.138  13.026
36588W        W  796  36.553  24.556  12.053
36589W        W  797  43.409   5.327   4.638
36590W        W  798  10.209  27.643   2.386
36591W        W  799  43.433  11.714  14.875
36592W        W  800   6.913  13.717  12.010
36593W        W  801  12.817  15.246  13.403
36594W        W  802  27.572  43.789   1.269
36595W        W  803  15.657  21.642   0.923
36596W        W  804   0.484  10.317  11.912
36597W        W  805  43.270  44.320   1.891
36598W        W  806  40.485  19.282   4.199
36599W        W  807  22.704  22.209  13.947
36600W        W  808  12.659  11.635   2.735
36601W        W  809  25.682  27.015  14.023
36602W        W  810  44.988  31.970  13.452
36603W        W  811  44.838  40.959  13.470
36604W        W  812  17.074  30.930  12.035
36605W        W  813  10.264  40.427  12.852
36606W        W  814  19.157  35.498  12.385
36607W        W  815   5.906   8.870   4.767
36608W        W  816  14.239  12.681   2.747
36609W        W  817   5.901   6.281   4.713
36610W        W  818  35.090   5.776  10.928
36611W        W  819   6.781   4.338  11.944
36612W        W  820  23.194  38.413   0.342
36613W        W  821   6.718  21.152   4.717
36614W        W  822  28.551   2.323   4.775
36615W        W  823  36.878  44.825   4.725
36616W        W  824  38.537   9.649  14.407
36617W        W  825   2.794  44.790   1.410
36618W        W  826  15.601  23.512  14.812
36619W        W  827   8.873  36.347  10.637
36620W        W  828   5.428  17.229  10.506
36621W        W  829  33.095  32.575  11.931
36622W        W  830   5.931   6.326  12.000
36623W        W  831   1.402  25.119  10.464
36624W        W  832  44.006  29.556   1.447
36625W        W  833   4.367  34.546  13.887
36626W        W  834   6.257  42.930   5.307
36627W        W  835  33.883  21.688   4.263
36628W        W  836  31.549   9.651   4.287
36629W        W  837  38.398  15.153   1.755
36630W        W  838  19.630  16.108  11.439
36631W        W  839  34.586  41.961   2.709
36632W        W  840  26.587  44.340  10.443
36633W        W  841  12.308   0.344  10.908
36634W        W  842   4.866  25.598  12.050
36635W        W  843  11.161  21.656   4.199
36636W        W  844  19.566   9.824  14.818
36637W        W  845   6.748   2.839  10.506
36638W        W  846  17.633  41.031   4.832
36639W        W  847  32.072  41.830  10.938
36640W        W  848  25.588  36.360  11.059
36641W        W  849   9.806  12.754  12.907
36642W        W  850   5.800  20.232   3.834
36643W        W  851  35.078  29.093   0.915
36644W        W  852  12.664   6.890   4.299
36645W        W  853   0.464  31.063   1.402
36646W        W  854  42.798  19.674   0.457
36647W        W  855  30.074   5.231  12.968
36648W        W  856   8.172  26.510   1.360
36649W        W  857  10.306  15.818  11.083
36650W        W  858  24.078  23.552   1.903
36651W        W  859  28.016  44.780   4.120
36652W        W  860  17.083   4.315  11.067
36653W        W  861   4.869  40.307   2.185
36654W        W  862  37.087  38.993   1.738
36655W        W  863  39.368  21.127   5.118
36656W        W  864  20.678  29.971  14.788
36657W        W  865  29.091  24.179   2.838
36658W        W  866   7.232  29.516  11.439
36659W        W  867  40.458  13.133   1.451
36660W        W  868  40.018  19.086   0.458
36661W        W  869   3.283  30.628   2.829
36662W        W  870  44.956  38.034   3.184
36663W        W  871  29.424  20.269  10.485
36664W        W  872  15.767  26.564   4.807
36665W        W  873  35.907  21.628  11.865
36666W        W  874  37.839   4.237  13.542
36667W        W  875  16.805  25.168  11.021
36668W        W  876   0.890  31.470   5.270
36669W        W  877  38.985   7.248  10.626
36670W        W  878  36.998   4.351   0.934
36671W        W  879  16.301  25.470  13.349
36672W        W  880  17.756  37.021   0.786
36673W        W  881   8.387  27.068  11.491
36674W        W  882  21.023  33.918  11.513
36675W        W  883  17.771   9.702  13.507
36676W        W  884   7.701  15.225  12.969
36677W        W  885  32.623  25.606   1.229
36678W        W  886   1.758  36.911   2.691
36679W        W  887  32.985  25.507  13.947
36680W        W  888   0.939  21.690   3.835
36681W        W  889  29.655  22.725   0.884
36682W        W  890   1.440  34.040   3.793
36683W        W  891  44.393  13.752  12.538
36684W        W  892   7.879  31.591  11.923
36685W        W  893  44.439  34.550  13.993
36686W        W  894  36.877  14.636  14.377
36687W        W  895  40.024   0.343   2.691
36688W        W  896  21.549  23.670  12.033
36689W        W  897  30.450   2.930  11.547
36690W        W  898   4.899  16.143  14.391
36691W        W  899  17.126  37.007   3.314
36692W        W  900   7.376  37.508   0.839
36693W        W  901  28.457  19.095  10.587
36694W        W  902  43.282  17.642   2.701
36695W        W  903   6.799  11.244  10.598
36696W        W  904  40.348  19.090  12.035
36697W        W  905  43.342   0.290   0.461
36698W        W  906  16.246  20.148  12.409
36699W        W  907  37.831  40.902  12.999
36700W        W  908  26.071   2.438   1.895
36701W        W  909  32.081  10.704  12.057
36702W        W  910  38.964  42.931  10.472
36703W        W  911  36.464  22.620  12.504
36704W        W  912  32.075  17.258   3.256
36705W        W  913   8.680  15.286  11.479
36706W        W  914  31.498  24.125   3.366
36707W        W  915  44.897  20.142   3.687
36708W        W  916  18.274  18.588   0.759
36709W        W  917  28.999   0.387   3.362
36710W        W  918  43.846  36.935   2.314
36711W        W  919  11.178  44.834   0.740
36712W        W  920  16.732  12.836  11.947
36713W        W  921  35.991  13.733  11.457
36714W        W  922  15.760  29.465  11.076
36715W        W  923  23.024  14.805  11.964
36716W        W  924  43.282   2.412  10.612
36717W        W  925  34.105  27.125  14.796
36718W        W  926  12.145  14.102  13.441
36719W        W  927  19.081   1.381   4.336
36720W        W  928  32.398   3.885   2.730
36721W        W  929  31.540  22.703   1.859
36722W        W  930  36.354   5.290   0.749
36723W        W  931  17.621  10.859   2.273
36724W        W  932  25.160  18.554   2.754
36725W        W  933  42.894  29.628  12.967
36726W        W  934  20.253  28.553   3.257
36727W        W  935  33.009  21.746  12.380
36728W        W  936   9.843  44.799  14.322
36729W        W  937   9.830  25.073   2.739
36730W        W  938   9.836  21.083  10.410
36731W        W  939  12.218  38.060   3.771
36732W        W  940  26.503  15.796   4.272
36733W        W  941  18.770  13.614  12.010
36734W        W  942  12.674  11.234  12.084
36735W        W  943  20.534  20.222   3.304
36736W        W  944   0.334  17.192   2.326
36737W        W  945  31.991  43.494  10.519
36738W        W  946  41.924  10.854   1.694
36739W        W  947  34.886  30.582  11.935
36740W        W  948  38.883  32.036  12.415
36741W        W  949  27.009   5.356   4.803
36742W        W  950  34.028   7.911   3.205
36743W        W  951  40.051  40.997  11.089
36744W        W  952  19.577  36.454   1.395
36745W        W  953  23.134  25.970  13.862
36746W        W  954   1.868  32.636   3.193
36747W        W  955   8.839  30.651  14.461
36748W        W  956  34.478  16.257  12.518
36749W        W  957  39.542  12.209  13.955
36750W        W  958  24.495  43.792   4.134
36751W        W  959  28.987   5.214  12.090
36752W        W  960  18.126  16.165  11.479
36753W        W  961  29.600  30.066   3.231
36754W        W  962  14.688  23.107   4.762
36755W        W  963  25.603  15.155  11.606
36756W        W  964   9.734   1.283  14.311
36757W        W  965  26.033  37.831  14.333
36758W        W  966   8.663  32.516   1.753
36759W        W  967  35.981  32.970  13.913
36760W        W  968  43.469  16.112   3.820
36761W        W  969  41.924  41.862   2.754
36762W        W  970  11.305  33.458  12.965
36763W        W  971  10.269  40.898  12.015
36764W        W  972  40.852  29.051  11.485
36765W        W  973  37.449  24.643   2.269
36766W        W  974  33.576   7.312  14.383
36767W        W  975  43.333  36.589   9.957
36768W        W  976  25.545  25.021   4.127
36769W        W  977   5.922  11.263   1.812
36770W        W  978  15.191  19.172  12.364
36771W        W  979   5.760   2.277   1.925
36772W        W  980   7.774  22.642  12.070
36773W        W  981  29.057  33.616   0.358
36774W        W  982  35.053  37.963  10.576
36775W        W  983  28.948  10.878   2.276
36776W        W  984  37.489  36.861   4.176
36777W        W  985   4.759  21.145   3.214
36778W        W  986   2.459  30.981   5.221
36779W        W  987  14.803  25.112   1.252
36780W        W  988  23.687  12.238   1.328
36781W        W  989  27.087  14.747  12.843
36782W        W  990   7.786  35.016  11.567
36783W        W  991  42.322  25.545   0.939
36784W        W  992  16.597  18.124   2.702
36785W        W  993  31.450  10.668   3.378
36786W        W  994  23.232  37.338  14.394
36787W        W  995  17.072  39.435   4.185
36788W        W  996  35.459  43.343  11.895
36789W        W  997   2.373  28.186   0.904
36790W        W  998  22.634  30.157   1.718
36791W        W  999  10.213  38.939   2.275
36792W        W 1000  16.290  18.545   1.712
36793W        W 1001  24.677  23.105   4.620
36794W        W 1002   6.695  35.398   4.306
36795W        W 1003  38.549  14.256  13.016
36796W        W 1004  24.718  40.018  11.437
36797W        W 1005  26.480  42.492  13.396
36798W        W 1006  41.394   3.828   2.374
36799W        W 1007  41.993   3.937   0.925
36800W        W 1008  33.626  16.083  11.895
36801W        W 1009  44.952  12.785  12.093
36802W        W 1010  32.122  10.643   1.864
36803W        W 1011  41.534  38.983  11.055
36804W        W 1012  31.036  19.265   3.793
36805W        W 1013  16.277  40.326  10.065
36806W        W 1014  21.064  37.564   2.836
36807W        W 1015  16.642  21.532  13.498
36808W        W 1016  25.633   4.388   4.352
36809W        W 1017  39.478  13.105  14.961
36810W        W 1018  26.622  10.716   0.309
36811W        W 1019  21.659   6.889   0.339
36812W        W 1020  13.314  19.226   1.314
36813W        W 1021  16.586  41.305   0.837
36814W        W 1022  37.506  11.201  13.326
36815W        W 1023  18.560   0.315   2.304
36816W        W 1024  35.917  36.366  11.104
36817W        W 1025  34.613  38.845   4.613
36818W        W 1026   5.874  38.908   0.307
36819W        W 1027   1.734  32.553  13.374
36820W        W 1028  28.074   5.211   1.847
36821W        W 1029  12.611  36.578  13.546
36822W        W 1030  20.612  41.842  12.022
36823W        W 1031  41.352  15.268   0.278
36824W        W 1032   5.718  29.984   3.645
36825W        W 1033  38.918  14.647   2.219
36826W        W 1034   5.425  13.633   3.339
36827W        W 1035   9.677  16.649  12.000
36828W        W 1036  42.492  21.745   4.831
36829W        W 1037  27.008  42.481   4.788
36830W        W 1038  27.472  28.935   1.308
36831W        W 1039  18.703   4.860   2.209
36832W        W 1040  33.457  21.175   0.431
36833W        W 1041   5.793  36.425  13.412
36834W        W 1042  23.667   3.396  10.974
36835W        W 1043  27.530   3.380   0.295
36836W        W 1044  19.579   6.878  12.021
36837W        W 1045  26.585  28.441  14.786
36838W        W 1046  37.348  16.787   3.722
36839W        W 1047  25.644   3.857  14.843
36840W        W 1048  21.171   0.364  14.383
36841W        W 1049  42.846  31.986  12.985
36842W        W 1050  37.014   6.208   4.266
36843W        W 1051  24.590  34.379   2.792
36844W        W 1052  21.133   6.218   0.393
36845W        W 1053   9.826  27.972  13.493
36846W        W 1054  20.635  28.452   0.943
36847W        W 1055   7.792   4.362  13.334
36848W        W 1056  34.100  26.542  11.407
36849W        W 1057  31.077  19.149  12.462
36850W        W 1058  37.563  24.978   0.330
36851W        W 1059   8.231  30.018  12.939
36852W        W 1060  34.941  37.008   3.837
36853W        W 1061  14.670  16.750   4.289
36854W        W 1062   2.867   1.748   4.771
36855W        W 1063  29.492   1.301   4.710
36856W        W 1064  18.758  41.498   0.306
36857W        W 1065  23.670   3.943  14.450
36858W        W 1066  24.702  12.757  12.540
36859W        W 1067  28.104  17.179   1.429
36860W        W 1068  12.346   6.764   4.253
36861W        W 1069   3.373  13.224   3.312
36862W        W 1070  37.901  16.234  10.481
36863W        W 1071  20.177  12.798  14.452
36864W        W 1072   3.734  25.480   2.385
36865W        W 1073  38.943  43.998  11.056
36866W        W 1074  39.387   0.831   2.396
36867W        W 1075  32.058   0.387  10.940
36868W        W 1076  42.985  21.605  11.440
36869W        W 1077  27.946   1.916  13.052
36870W        W 1078   7.756  15.599  14.773
36871W        W 1079  17.157   6.250   0.418
36872W        W 1080  44.756   7.893   0.890
36873W        W 1081  17.072  21.515   3.717
36874W        W 1082  30.655  28.516   1.395
36875W        W 1083  23.720  41.019  13.845
36876W        W 1084  43.273   2.926  12.341
36877W        W 1085  25.687  32.522  11.998
36878W        W 1086  13.180  20.708   2.203
36879W        W 1087  33.468  17.154   3.816
36880W        W 1088  15.583  27.006   1.748
36881W        W 1089  30.624  33.593   4.242
36882W        W 1090  17.097  35.926  14.299
36883W        W 1091   0.301  35.408  12.913
36884W        W 1092  39.824  20.605  12.906
36885W        W 1093  15.685  33.619   0.841
36886W        W 1094   0.419  40.829   3.804
36887W        W 1095   9.684  20.098  13.898
36888W        W 1096  34.443  32.458   2.319
36889W        W 1097  13.678  37.835   4.330
36890W        W 1098  40.489  37.900  10.591
36891W        W 1099  27.577  41.892  14.923
36892W        W 1100  31.027   3.356   2.334
36893W        W 1101  16.684   3.916  11.393
36894W        W 1102   2.418  13.668  13.525
36895W        W 1103  34.051  23.730  13.406
36896W        W 1104  34.881  33.586  10.931
36897W        W 1105  26.506  35.360   2.881
36898W        W 1106  33.882  33.594  14.861
36899W        W 1107  38.363  38.365   3.703
36900W        W 1108  35.877  39.915   4.253
36901W        W 1109  24.665  35.869   2.773
36902W        W 1110  22.694   2.457   0.871
36903W        W 1111   5.360  10.175   1.742
36904W        W 1112  20.649  35.056   3.785
36905W        W 1113  27.660   8.817  11.560
36906W        W 1114   8.391  40.865   3.774
36907W        W 1115   0.286  24.498  10.492
36908W        W 1116  42.996  16.742   4.199
36909W        W 1117  34.976  15.180  13.926
36910W        W 1118  21.111  31.471   3.652
36911W        W 1119   4.384  21.059  10.540
36912W        W 1120  15.607  33.449  10.116
36913W        W 1121  43.337  24.630   4.351
36914W        W 1122  38.863   9.335  13.370
36915W        W 1123  38.424  41.849   1.433
36916W        W 1124  29.500  42.813  12.441
36917W        W 1125  34.880  41.918   1.335
36918W        W 1126  42.291   1.925   4.306
36919W        W 1127   9.270  36.060  13.329
36920W        W 1128  14.713  10.286  12.455
36921W        W 1129  44.806  27.512   3.631
36922W        W 1130   8.318  43.932   2.416
36923W        W 1131  44.363   3.237  12.846
36924W        W 1132  12.673  24.676  14.398
36925W        W 1133  14.662  29.452  10.082
36926W        W 1134  36.454   5.321  14.445
36927W        W 1135  15.116  13.834   1.723
36928W        W 1136  39.471  26.484   5.251
36929W        W 1137  22.054  44.265   4.174
36930W        W 1138  26.518   2.256  11.939
36931W        W 1139  41.027  40.825  12.855
36932W        W 1140  33.097   1.784   3.354
36933W        W 1141  14.205  25.575   3.786
36934W        W 1142  20.038  11.844   0.306
36935W        W 1143  24.995  37.940  13.793
36936W        W 1144  35.437  44.264  12.447
36937W        W 1145  27.976  24.524   2.369
36938W        W 1146  20.192  44.768   2.877
36939W        W 1147  10.164  20.725   2.812
36940W        W 1148  30.094  27.568   1.766
36941W        W 1149  13.301   9.801   3.723
36942W        W 1150   1.802  22.087   0.386
36943W        W 1151   4.276  43.995  13.464
36944W        W 1152  27.191  31.546   4.676
36945W        W 1153  17.729  18.168   1.771
36946W        W 1154  43.445   4.262  12.063
36947W        W 1155  28.642  18.649   3.153
36948W        W 1156  22.727  29.620   0.732
36949W        W 1157  17.169   1.379   1.300
36950W        W 1158  16.662  13.627   1.220
36951W        W 1159   1.875  30.131  12.435
36952W        W 1160  31.502  16.287   1.724
36953W        W 1161   0.411  23.057  10.947
36954W        W 1162  14.627  37.579  13.901
36955W        W 1163   6.360  44.814  10.636
36956W        W 1164   0.403  21.039   2.395
36957W        W 1165   3.784   8.305   1.794
36958W        W 1166  24.031   4.739  12.003
36959W        W 1167  30.436  10.716  10.472
36960W        W 1168  43.349  29.160  12.093
36961W        W 1169  31.520  39.995   2.320
36962W        W 1170  35.902   3.828  11.067
36963W        W 1171  23.547  19.632  10.591
36964W        W 1172  20.128   0.422   4.834
36965W        W 1173  30.481  29.968  13.444
36966W        W 1174   8.725  35.070   0.371
36967W        W 1175   7.225  38.879   0.826
36968W        W 1176  34.463  13.727  13.409
36969W        W 1177  40.426  11.647  12.425
36970W        W 1178  38.325  25.968  10.974
36971W        W 1179  12.646  16.671   0.362
36972W        W 1180  17.635   8.168  13.436
36973W        W 1181  23.690  44.437   3.159
36974W        W 1182  27.170   7.172  12.344
36975W        W 1183  11.764  40.963   2.789
36976W        W 1184  32.473  32.506  13.843
36977W        W 1185  38.569  28.982  10.994
36978W        W 1186  19.155   1.785   4.207
36979W        W 1187   8.333  29.491  13.795
36980W        W 1188  13.672   3.357   3.830
36981W        W 1189  33.903  41.380   0.344
36982W        W 1190  10.877  16.249   4.239
36983W        W 1191  17.130   6.259  11.602
36984W        W 1192  25.966  24.186   1.789
36985W        W 1193  24.494  39.353  13.920
36986W        W 1194  40.885  33.891  11.114
36987W        W 1195  21.733   3.893  12.047
36988W        W 1196  23.179  28.485  11.037
36989W        W 1197  34.004  18.764   1.226
36990W        W 1198  31.584  41.003  12.984
36991W        W 1199   6.686  20.642   2.246
36992W        W 1200  36.364  39.353   1.928
36993W        W 1201  31.008  36.510   3.344
36994W        W 1202  44.944  33.115   1.842
36995W        W 1203   9.312  10.781  11.404
36996W        W 1204   4.859   2.722   3.724
36997W        W 1205  12.806  22.034  12.568
36998W        W 1206  20.664  13.348   0.916
36999W        W 1207  40.342  28.044   1.914
37000W        W 1208  40.457   1.455   5.303
37001W        W 1209  24.606  43.289  13.317
37002W        W 1210  22.712  19.773  13.859
37003W        W 1211   1.402   0.433   4.175
37004W        W 1212  39.833  10.354  12.406
37005W        W 1213  23.065  41.327   0.244
37006W        W 1214   8.875  39.887   0.251
37007W        W 1215  21.577  42.515   1.844
37008W        W 1216  16.175  29.559   2.229
37009W        W 1217   4.255   6.345   3.861
37010W        W 1218   4.288  22.212   1.837
37011W        W 1219  37.874  18.769  12.456
37012W        W 1220  44.884  11.785  14.813
37013W        W 1221  42.949  30.995  13.014
37014W        W 1222  32.539   0.830  14.887
37015W        W 1223  41.854  19.213   4.742
37016W        W 1224  25.498  18.205   0.446
37017W        W 1225  10.311  26.529   4.188
37018W        W 1226  28.157  40.314  14.358
37019W        W 1227  23.121  30.589  14.912
37020W        W 1228   0.494  11.863   3.640
37021W        W 1229  18.257  30.945   2.846
37022W        W 1230  30.593  21.614  12.992
37023W        W 1231  32.094   3.955   5.084
37024W        W 1232  44.926  24.555   3.206
37025W        W 1233   0.299  43.004  14.429
37026W        W 1234   1.427  41.438   1.279
37027W        W 1235  34.595  38.035  14.489
37028W        W 1236  36.042   7.352  12.418
37029W        W 1237  34.568  36.368   3.270
37030W        W 1238  15.766   2.872   4.251
37031W        W 1239  17.663  44.982   1.889
37032W        W 1240   2.293   9.751   1.815
37033W        W 1241  32.001  43.320   1.746
37034W        W 1242  10.675   4.927  12.580
37035W        W 1243   3.452  42.004   0.431
37036W        W 1244  33.390  23.667  11.879
37037W        W 1245  23.045   7.284  12.521
37038W        W 1246   9.665  19.729   3.365
37039W        W 1247  12.695  17.738   1.794
37040W        W 1248  36.068  24.542  10.437
37041W        W 1249  39.520  42.280  13.477
37042W        W 1250   9.851  14.272  12.579
37043W        W 1251  37.560  26.174   1.383
37044W        W 1252  13.680  16.132  10.899
37045W        W 1253  14.248  42.881  12.034
37046W        W 1254  23.209   9.853   3.723
37047W        W 1255  10.775   2.849   0.907
37048W        W 1256  28.940  33.429   0.949
37049W        W 1257  35.022  41.968  13.842
37050W        W 1258  43.513   4.207   3.196
37051W        W 1259  26.661   1.413   1.421
37052W        W 1260  25.495  12.134  11.405
37053W        W 1261  37.878  36.435   1.904
37054W        W 1262  28.055  27.956  14.917
37055W        W 1263  44.278  18.728   4.153
37056W        W 1264  35.545   9.810   1.853
37057W        W 1265  15.126  15.678   0.265
37058W        W 1266  16.762  23.720  13.457
37059W        W 1267  30.920  42.381   1.354
37060W        W 1268  16.284  40.500   4.701
37061W        W 1269   6.413  24.975  10.424
37062W        W 1270  42.953  26.659  14.449
37063W        W 1271   6.402  25.986  11.011
37064W        W 1272  33.004  29.046  14.423
37065W        W 1273   5.364  24.985   0.350
37066W        W 1274  27.466  42.829   0.371
37067W        W 1275  29.996  13.131  13.474
37068W        W 1276   0.921   5.862  13.918
37069W        W 1277  35.877  25.981   4.216
37070W        W 1278   4.382  41.982   0.924
37071W        W 1279   8.238  11.277  11.510
37072W        W 1280  13.271   5.338   3.267
37073W        W 1281  30.622  35.035  11.042
37074W        W 1282   8.891  17.141  14.918
37075W        W 1283  18.156  38.440  13.923
37076W        W 1284  43.341  14.225  12.377
37077W        W 1285  23.643  16.078   0.942
37078W        W 1286  32.910  44.900  10.611
37079W        W 1287  21.612  15.083  11.381
37080W        W 1288  19.165  43.906  10.551
37081W        W 1289  41.303  18.573  12.884
37082W        W 1290  17.127   0.863   5.106
37083W        W 1291  23.094  30.932   3.646
37084W        W 1292  18.554  23.119   0.264
37085W        W 1293   5.277  19.653   1.315
37086W        W 1294  30.616  23.070  12.390
37087W        W 1295  38.552  21.531  11.472
37088W        W 1296  42.449  33.518   3.259
37089W        W 1297  30.477  20.757  14.837
37090W        W 1298  27.487  17.226   5.244
37091W        W 1299  35.405   8.312   0.810
37092W        W 1300  21.757  41.455  13.827
37093W        W 1301   7.832  17.749   1.364
37094W        W 1302   4.445  16.266  14.334
37095W        W 1303   3.747  33.078  12.921
37096W        W 1304  31.527  27.490   4.201
37097W        W 1305   0.265  25.488  10.539
37098W        W 1306  33.970  26.160  11.594
37099W        W 1307  32.046  23.713  10.504
37100W        W 1308  29.023   6.351   2.881
37101W        W 1309  41.458  44.780   0.774
37102W        W 1310   3.789  11.820  13.861
37103W        W 1311  21.261   3.278  14.811
37104W        W 1312  28.949  27.623  12.401
37105W        W 1313  37.016  15.269  14.429
37106W        W 1314   9.278  40.996   3.153
37107W        W 1315   0.438  39.923   4.666
37108W        W 1316  22.723  23.688   4.780
37109W        W 1317  15.169  38.455   4.754
37110W        W 1318  23.059  23.025  12.518
37111W        W 1319  44.279  30.468  14.758
37112W        W 1320  16.670  20.129  11.519
37113W        W 1321   4.888  23.584   0.964
37114W        W 1322   0.864  28.067   4.279
37115W        W 1323   7.786  32.472  11.426
37116W        W 1324  37.856  40.905  10.899
37117W        W 1325  42.411   8.239   4.786
37118W        W 1326  37.563  13.639   2.205
37119W        W 1327  35.941  36.922  14.921
37120W        W 1328  40.478  33.930  13.381
37121W        W 1329  21.731  29.580  11.895
37122W        W 1330   8.856   8.851   4.645
37123W        W 1331  16.246  11.354   1.902
37124W        W 1332  28.061  32.501   4.813
37125W        W 1333   7.813  23.692   3.329
37126W        W 1334   5.260  10.367  12.431
37127W        W 1335   3.430  22.196   2.773
37128W        W 1336  16.571  42.943   3.181
37129W        W 1337  19.196  23.104   0.287
37130W        W 1338  36.516  22.020  10.417
37131W        W 1339  19.560  23.707   2.818
37132W        W 1340   4.702  17.117  12.512
37133W        W 1341   3.350  12.612  11.100
37134W        W 1342  43.331  15.653  14.276
37135W        W 1343   9.282   1.840   0.727
37136W        W 1344  22.208  38.445  13.860
37137W        W 1345  39.318  26.194  11.097
37138W        W 1346  41.001  25.975   3.671
37139W        W 1347  26.515  28.670   0.787
37140W        W 1348  29.005  43.015   3.248
37141W        W 1349  32.970  43.845   1.906
37142W        W 1350  32.041   8.254  14.345
37143W        W 1351   5.922  28.068  13.374
37144W        W 1352  26.077  12.848   3.220
37145W        W 1353  12.243  40.975  12.014
37146W        W 1354   0.895   4.314  14.839
37147W        W 1355   9.700  35.062   0.930
37148W        W 1356  19.589  42.939   1.799
37149W        W 1357   5.867  43.959  12.434
37150W        W 1358   7.676   3.253  13.956
37151W        W 1359  11.353  19.085   0.855
37152W        W 1360  13.307   4.219  11.608
37153W        W 1361  33.033  33.406   1.215
37154W        W 1362  40.875  27.993  10.415
37155W        W 1363  33.571  33.526  11.128
37156W        W 1364   8.751  24.073   3.150
37157W        W 1365  38.379  33.926   0.250
37158W        W 1366  15.151   9.870   2.223
37159W        W 1367   0.255   6.246   4.777
37160W        W 1368  26.006  39.549   2.703
37161W        W 1369  34.425  12.181  13.051
37162W        W 1370  10.163  23.721  11.383
37163W        W 1371   9.850  34.384  14.003
37164W        W 1372  42.506  19.632   4.758
37165W        W 1373  32.020  34.439  11.523
37166W        W 1374  43.278  12.693  12.482
37167W        W 1375  26.188   1.819  14.905
37168W        W 1376   8.176  16.615   3.694
37169W        W 1377   2.787  32.039  13.064
37170W        W 1378  15.768  16.787   1.914
37171W        W 1379  29.428  15.292   1.708
37172W        W 1380  26.514  31.120  13.456
37173W        W 1381  12.789  14.102  12.492
37174W        W 1382  44.982   9.306  11.526
37175W        W 1383  30.511  24.513   0.823
37176W        W 1384  35.000  34.903   1.256
37177W        W 1385   0.926   0.283   3.174
37178W        W 1386  33.898   9.374   4.746
37179W        W 1387  44.792  28.600   9.966
37180W        W 1388  37.841   5.239  13.030
37181W        W 1389  37.896  19.760   0.295
37182W        W 1390  38.365  25.159   4.283
37183W        W 1391  37.002  24.181   0.384
37184W        W 1392  28.132  32.897  10.996
37185W        W 1393   8.827  37.085   3.330
37186W        W 1394  30.430  24.681   1.901
37187W        W 1395  27.610  12.649  12.510
37188W        W 1396  26.077  42.497   1.395
37189W        W 1397  16.110  16.731  11.120
37190W        W 1398  43.480  44.503   2.300
37191W        W 1399  26.530  39.496   1.330
37192W        W 1400   7.815   1.957  12.030
37193W        W 1401  26.097   5.760   4.345
37194W        W 1402  12.774   5.280  14.951
37195W        W 1403   1.425  32.046   2.324
37196W        W 1404  16.236  13.306  10.488
37197W        W 1405  22.612  44.312   0.784
37198W        W 1406  44.438  38.936  12.009
37199W        W 1407  23.543  25.079   2.252
37200W        W 1408   6.826   8.328  14.029
37201W        W 1409  27.600  34.083   3.354
37202W        W 1410  20.129  37.472  12.489
37203W        W 1411   0.979  41.804   1.731
37204W        W 1412  24.569  26.128  14.314
37205W        W 1413  20.534  14.757   9.940
37206W        W 1414  20.621  23.217  12.917
37207W        W 1415  26.033  23.205   1.809
37208W        W 1416   1.253   5.296   4.726
37209W        W 1417  19.535  33.927  10.899
37210W        W 1418  44.436  31.509  12.892
37211W        W 1419  12.813  20.265   1.859
37212W        W 1420  38.022  36.509   3.154
37213W        W 1421  14.596  29.963  12.513
37214W        W 1422   8.669  41.878  11.429
37215W        W 1423  14.696  41.467   4.673
37216W        W 1424  15.686  18.613  10.414
37217W        W 1425  31.051   1.827   2.357
37218W        W 1426  27.048  11.845   4.663
37219W        W 1427  36.844  12.725  11.905
37220W        W 1428  19.653  15.328  14.883
37221W        W 1429  15.166   0.803  12.446
37222W        W 1430  40.330  15.093  10.145
37223W        W 1431  30.479   2.879  11.878
37224W        W 1432  41.412   4.876   1.783
37225W        W 1433   1.372  38.901  13.377
37226W        W 1434  12.742  44.822   3.838
37227W        W 1435   6.746  29.943   2.260
37228W        W 1436   2.750   1.773   1.288
37229W        W 1437  11.668   8.171  12.377
37230W        W 1438  26.568   8.702   1.897
37231W        W 1439  16.705   6.396  14.468
37232W        W 1440  14.144   5.359   2.302
37233W        W 1441  12.327  21.569   0.875
37234W        W 1442  43.947   8.377   2.186
37235W        W 1443  32.941  23.678  13.483
37236W        W 1444   7.701  38.925  10.626
37237W        W 1445  18.204  28.963  13.044
37238W        W 1446  39.467   9.234   0.781
37239W        W 1447  31.071  38.531  14.831
37240W        W 1448   7.898  15.101  10.436
37241W        W 1449   7.812  30.143  11.569
37242W        W 1450  15.815   7.327   3.170
37243W        W 1451   1.781  44.862  12.447
37244W        W 1452  29.005   0.344  12.412
37245W        W 1453  42.457  14.658   1.420
37246W        W 1454   5.418  22.616   1.716
37247W        W 1455  39.985  36.439  13.962
37248W        W 1456  16.790  11.760   1.371
37249W        W 1457  39.936   9.746   4.334
37250W        W 1458   8.259   0.311   2.195
37251W        W 1459  32.007  25.542  14.006
37252W        W 1460  22.148   5.203  13.437
37253W        W 1461  21.652  27.544   0.771
37254W        W 1462   9.643   2.871  12.907
37255W        W 1463   3.794  33.917   0.383
37256W        W 1464  32.538  27.089   1.820
37257W        W 1465  24.089  24.991   0.907
37258W        W 1466  19.188  27.493   2.795
37259W        W 1467  15.247   5.807  10.616
37260W        W 1468  12.619  12.728  14.961
37261W        W 1469  40.499  42.466  13.018
37262W        W 1470  41.951  15.717   1.868
37263W        W 1471  21.645  38.441  10.405
37264W        W 1472  17.078   3.948  14.488
37265W        W 1473  24.130  19.600  12.495
37266W        W 1474  14.263  42.923  10.512
37267W        W 1475  41.919  12.815  10.425
37268W        W 1476  39.365   8.224  11.474
37269W        W 1477  31.945  36.868   4.128
37270W        W 1478  40.814  27.153  12.362
37271W        W 1479  27.984  10.321  13.321
37272W        W 1480  23.671   5.414  13.871
37273W        W 1481  15.711  34.438  12.523
37274W        W 1482  27.446  14.161   5.084
37275W        W 1483   3.818  12.323   3.258
37276W        W 1484  43.893  43.910   0.369
37277W        W 1485  42.902   1.348   4.783
37278W        W 1486  23.715  17.197  10.502
37279W        W 1487  25.587   6.426  12.404
37280W        W 1488  19.601  16.728   3.372
37281W        W 1489  41.450  41.385  13.953
37282W        W 1490   3.861  38.489  14.934
37283W        W 1491   0.373   1.758   1.256
37284W        W 1492   3.326  22.739  11.084
37285W        W 1493  23.577  23.589  14.770
37286W        W 1494  23.169  17.264  10.062
37287W        W 1495  16.316   4.882  11.530
37288W        W 1496   6.892  40.370  12.912
37289W        W 1497  44.967   8.250  13.021
37290W        W 1498  31.493   6.846  12.857
37291W        W 1499   1.276  39.947  12.573
37292W        W 1500   5.934  42.931  11.032
37293W        W 1501  31.064   0.983  13.504
37294W        W 1502  32.983   8.803   1.294
37295W        W 1503  13.820  11.328  11.038
37296W        W 1504  19.635  15.678   4.815
37297W        W 1505   7.293  34.017   4.744
37298W        W 1506   9.731   9.801  10.601
37299W        W 1507  25.003  25.093  11.007
37300W        W 1508  39.416   4.698   4.729
37301W        W 1509  28.933  15.804  11.453
37302W        W 1510  44.279   1.356   2.672
37303W        W 1511   9.349  42.352   3.678
37304W        W 1512  36.360   0.370   1.412
37305W        W 1513   7.698  13.313  12.376
37306W        W 1514  28.990  12.342  11.056
37307W        W 1515   4.312   8.320   3.218
37308W        W 1516  23.522   6.314  10.963
37309W        W 1517   2.239   7.400  10.102
37310W        W 1518  33.621   0.943  11.597
37311W        W 1519  34.586  10.678  11.043
37312W        W 1520  43.797  27.548   3.347
37313W        W 1521   4.775  38.546   2.187
37314W        W 1522  21.546   9.243  14.927
37315W        W 1523  14.308  20.165   4.711
37316W        W 1524  12.747  41.351   3.375
37317W        W 1525  35.446  27.454   0.922
37318W        W 1526  37.900   4.878   4.736
37319W        W 1527  14.171  25.548  10.568
37320W        W 1528  35.999  26.971   1.248
37321W        W 1529  10.658  39.848   3.637
37322W        W 1530  22.201  14.730  14.318
37323W        W 1531  44.356  22.233  11.490
37324W        W 1532   2.325  19.129   1.346
37325W        W 1533  30.907  17.230   0.961
37326W        W 1534   1.462  22.727   4.765
37327W        W 1535  38.564  34.611  14.378
37328W        W 1536  31.912  13.188   0.876
37329W        W 1537   5.218  26.484   4.285
37330W        W 1538  10.286   8.231  14.512
37331W        W 1539  38.835   2.472  13.921
37332W        W 1540  13.278  42.449  11.923
37333W        W 1541   0.368  20.728  14.877
37334W        W 1542  41.419  29.610   2.671
37335W        W 1543  38.013  17.193   2.772
37336W        W 1544  27.552   6.834   2.325
37337W        W 1545   6.402  20.052   1.210
37338W        W 1546  44.006   2.873   1.760
37339W        W 1547  32.142   1.796  14.512
37340W        W 1548  42.323  15.804  12.890
37341W        W 1549  23.732  21.147  10.977
37342W        W 1550  40.048   4.422  12.457
37343W        W 1551   5.414   5.854   0.741
37344W        W 1552  13.282   8.892   0.771
37345W        W 1553   6.308  36.517  11.973
37346W        W 1554  33.919  24.017  12.002
37347W        W 1555  24.191  21.099  14.370
37348W        W 1556  35.422  29.649  13.851
37349W        W 1557   0.401  17.102   3.651
37350W        W 1558  28.026  27.950   0.373
37351W        W 1559  22.509  21.686   4.318
37352W        W 1560  12.722  34.474  13.965
37353W        W 1561  28.670  26.520  14.286
37354W        W 1562  14.793   4.316  14.808
37355W        W 1563  23.688  37.506  13.060
37356W        W 1564  12.705   2.382   4.317
37357W        W 1565  16.082  35.954  12.924
37358W        W 1566  24.122   4.438  11.903
37359W        W 1567  33.109  33.009   2.330
37360W        W 1568   1.240  10.859   1.211
37361W        W 1569  38.045   0.909   4.677
37362W        W 1570  34.467  12.830   3.799
37363W        W 1571  43.297  39.545   3.368
37364W        W 1572  14.767  38.438   4.601
37365W        W 1573   0.292  11.283   4.725
37366W        W 1574  11.742   6.347  13.345
37367W        W 1575  22.040  14.280  11.020
37368W        W 1576  26.086  29.525   1.935
37369W        W 1577   5.336  22.554  14.512
37370W        W 1578  30.031   9.688  10.923
37371W        W 1579  30.589  32.442   1.371
37372W        W 1580  39.477  20.172   0.935
37373W        W 1581  31.139  34.460   4.173
37374W        W 1582  32.088  14.283  14.020
37375W        W 1583  21.185  20.247  12.876
37376W        W 1584  40.485  11.228   0.348
37377W        W 1585  16.767  19.273   1.785
37378W        W 1586  12.343  36.492  11.877
37379W        W 1587  42.337  23.661   2.253
37380W        W 1588   2.409  21.694  12.546
37381W        W 1589   0.298  10.682  12.546
37382W        W 1590  39.325  19.702  11.437
37383W        W 1591   9.333  29.956  10.613
37384W        W 1592  17.637   2.964  13.879
37385W        W 1593  37.086  37.427   2.324
37386W        W 1594  12.179  32.022  13.514
37387W        W 1595  18.755  12.236  14.971
37388W        W 1596  32.401  17.576   3.355
37389W        W 1597  21.166  13.236   0.455
37390W        W 1598   4.891  37.454  10.936
37391W        W 1599  20.041  31.438  12.394
37392W        W 1600  12.230  15.122   1.280
37393W        W 1601  15.192  36.415   4.192
37394W        W 1602  27.633  19.534   1.377
37395W        W 1603  10.281  15.687  12.843
37396W        W 1604  38.038  10.855   3.214
37397W        W 1605  13.752   0.410  14.426
37398W        W 1606  41.915   4.243   5.214
37399W        W 1607  31.919  44.870   2.827
37400W        W 1608  30.972  36.918  12.478
37401W        W 1609   1.354  36.401   5.091
37402W        W 1610  40.382   1.290  11.541
37403W        W 1611  11.310  44.274   1.278
37404W        W 1612  15.601  28.012   0.759
37405W        W 1613   3.360  32.540   1.432
37406W        W 1614  33.081  17.594   0.899
37407W        W 1615  20.548  38.393  12.574
37408W        W 1616   9.818  28.524   1.869
37409W        W 1617  20.596  26.193   0.949
37410W        W 1618  12.673  43.413  13.001
37411W        W 1619  30.001  26.071  13.054
37412W        W 1620  40.482  40.321   4.142
37413W        W 1621  20.677  27.052  10.512
37414W        W 1622  38.919  19.123   1.381
37415W        W 1623   7.387   3.788   4.625
37416W        W 1624  27.665  30.484   1.724
37417W        W 1625  13.608  26.634   2.328
37418W        W 1626  44.458  39.354   0.963
37419W        W 1627   2.276  21.746   1.891
37420W        W 1628   6.736  11.864  10.643
37421W        W 1629  41.411  24.133   1.314
37422W        W 1630  38.391  13.253  13.877
37423W        W 1631  42.027  38.328  13.845
37424W        W 1632  43.308  12.207  14.794
37425W        W 1633   7.712  32.131  11.397
37426W        W 1634  39.841  31.979  12.927
37427W        W 1635  41.424  13.788  14.458
37428W        W 1636  10.253  35.391   3.793
37429W        W 1637  27.544  21.573  14.020
37430W        W 1638  13.663  37.066  14.827
37431W        W 1639  28.556  30.475   4.125
37432W        W 1640  11.862   6.712  10.922
37433W        W 1641  21.022   8.279   1.826
37434W        W 1642  18.658   0.755   1.416
37435W        W 1643  20.606  35.489  12.090
37436W        W 1644  18.636  40.353   3.358
37437W        W 1645  21.227  26.642  10.076
37438W        W 1646   2.254   2.467   2.686
37439W        W 1647  14.241  28.451   4.257
37440W        W 1648  17.764  10.719   1.863
37441W        W 1649  16.226   4.367   0.863
37442W        W 1650  21.542  43.496   3.667
37443W        W 1651  34.555  15.230   4.161
37444W        W 1652  11.372  36.400   3.822
37445W        W 1653  33.013  18.653   1.801
37446W        W 1654   6.799  38.568   0.892
37447W        W 1655  15.145  33.937  11.028
37448W        W 1656   2.931  41.895   2.331
37449W        W 1657  39.383  36.068   0.954
37450W        W 1658  10.260   0.854  13.011
37451W        W 1659   9.815  14.225   4.154
37452W        W 1660  19.099   5.349  11.966
37453W        W 1661   7.904  33.094   1.732
37454W        W 1662  19.744  35.099  12.462
37455W        W 1663  43.513  26.038   0.886
37456W        W 1664  38.899  21.139   3.315
37457W        W 1665  11.736  42.505   3.359
37458W        W 1666  28.936   7.392   1.922
37459W        W 1667  22.152   5.767  13.920
37460W        W 1668   8.890   6.377   2.806
37461W        W 1669  40.518   8.831   3.384
37462W        W 1670  35.856   3.837   4.304
37463W        W 1671  22.515   3.941   1.384
37464W        W 1672   1.763   5.198   2.726
37465W        W 1673   8.839  22.075   1.365
37466W        W 1674  15.284  33.480   2.332
37467W        W 1675  26.958  36.350  10.485
37468W        W 1676  31.923   2.282   1.371
37469W        W 1677   7.696  28.933   3.789
37470W        W 1678  44.866  34.421   0.417
37471W        W 1679  39.875   8.660   4.164
37472W        W 1680  36.998  23.138   2.803
37473W        W 1681  14.177  35.503  12.012
37474W        W 1682  19.617  13.341   3.335
37475W        W 1683  32.391  42.021  11.568
37476W        W 1684  10.673   2.946  11.534
37477W        W 1685  37.574  13.183   4.808
37478W        W 1686  30.604  23.508  11.475
37479W        W 1687  26.665  26.535  11.095
37480W        W 1688  29.464   9.712   2.670
37481W        W 1689  44.344  43.923   2.685
37482W        W 1690  21.546   1.768  14.336
37483W        W 1691  12.652  30.047   2.401
37484W        W 1692  20.534   6.922  14.974
37485W        W 1693  10.801  10.668   9.676
37486W        W 1694  36.395  14.750   2.263
37487W        W 1695  44.897   0.938   2.686
37488W        W 1696  35.480  32.423  11.566
37489W        W 1697   7.668   0.763  11.062
37490W        W 1698  11.372  16.577   3.352
37491W        W 1699  43.999  13.660   4.306
37492W        W 1700  30.414  33.018  14.845
37493W        W 1701  35.436   3.378   0.293
37494W        W 1702   4.415  38.401   4.292
37495W        W 1703  43.338  18.754  13.464
37496W        W 1704  31.978  44.822   1.303
37497W        W 1705  22.168   2.759   2.888
37498W        W 1706  40.891  25.194  11.588
37499W        W 1707  28.090   4.939   3.798
37500W        W 1708  38.853  18.156  14.340
37501W        W 1709   2.966   1.403  13.820
37502W        W 1710  20.766   9.178   1.888
37503W        W 1711  21.733  29.127  13.899
37504W        W 1712  36.931  20.672  11.071
37505W        W 1713  17.724  38.394   2.867
37506W        W 1714  42.874  18.295  10.129
37507W        W 1715  30.568   8.223  12.527
37508W        W 1716   8.323  41.865  13.518
37509W        W 1717   8.320  21.242   3.171
37510W        W 1718  32.984  21.209   3.679
37511W        W 1719  19.132  21.114   0.279
37512W        W 1720  21.081  12.770  13.923
37513W        W 1721  34.103  44.479  10.065
37514W        W 1722  35.874  31.959   4.793
37515W        W 1723  18.649  23.569  10.912
37516W        W 1724  37.856   1.428   1.811
37517W        W 1725  35.547  28.529  13.837
37518W        W 1726   0.772  39.430   3.784
37519W        W 1727  37.914  39.836  10.550
37520W        W 1728  17.791  28.657  11.097
37521W        W 1729   1.299   5.918   1.327
37522W        W 1730  27.177  20.253  14.285
37523W        W 1731  24.199   2.266  13.805
37524W        W 1732  16.692  16.142  13.451
37525W        W 1733   3.262   1.909   2.355
37526W        W 1734   9.188   2.248  14.007
37527W        W 1735  33.956  36.054  11.987
37528W        W 1736  17.793   7.358  13.374
37529W        W 1737  23.588  35.437  11.076
37530W        W 1738  18.149  42.429   1.880
37531W        W 1739   1.285  17.256   4.172
37532W        W 1740  17.097  21.219  12.021
37533W        W 1741  41.981  14.738  11.055
37534W        W 1742  17.726   2.734   3.359
37535W        W 1743  30.116  11.233   0.475
37536W        W 1744  32.132   0.373  11.543
37537W        W 1745  13.334  29.498  14.401
37538W        W 1746  11.823  38.970  10.580
37539W        W 1747  15.168  44.828  13.320
37540W        W 1748  29.509  24.043  11.022
37541W        W 1749   5.218  36.076  13.465
37542W        W 1750  33.626  34.445   0.356
37543W        W 1751  26.460  15.763  10.474
37544W        W 1752   6.367  34.073  14.289
37545W        W 1753  30.536  21.512   2.730
37546W        W 1754   7.264   7.289   3.812
37547W        W 1755   1.237  30.466   4.318
37548W        W 1756  11.230  23.728  14.898
37549W        W 1757  12.779  33.412   3.161
37550W        W 1758  17.646  34.370   0.826
37551W        W 1759   0.319  17.736  10.612
37552W        W 1760   0.823  17.595   1.709
37553W        W 1761  13.793  38.498   3.679
37554W        W 1762  17.109  16.088  12.859
37555W        W 1763   7.413  10.241   2.382
37556W        W 1764  14.241  28.059   3.353
37557W        W 1765  29.126  39.912  11.970
37558W        W 1766   2.240  26.020   2.756
37559W        W 1767  36.006   9.735  13.053
37560W        W 1768   6.893   0.887   1.796
37561W        W 1769   3.904   7.354  11.914
37562W        W 1770   3.731  13.252   1.811
37563W        W 1771  14.220  13.144   5.290
37564W        W 1772  11.839  10.377  14.929
37565W        W 1773  34.463  12.823   1.758
37566W        W 1774  33.090  17.780  13.397
37567W        W 1775   6.691  43.479  13.443
37568W        W 1776  40.338  18.220  10.565
37569W        W 1777  20.029  27.074  10.624
37570W        W 1778  19.085  39.875  10.557
37571W        W 1779  43.834  15.291   2.814
37572W        W 1780   2.801  32.979   0.277
37573W        W 1781   3.927  42.387  12.456
37574W        W 1782  11.636  11.670  13.465
37575W        W 1783  21.142  26.166   3.278
37576W        W 1784   0.427  16.314   2.710
37577W        W 1785   6.258  16.137   0.874
37578W        W 1786  18.724  25.557   1.247
37579W        W 1787  16.781  40.450  10.992
37580W        W 1788  15.710  44.448  12.571
37581W        W 1789  28.445  21.645  14.831
37582W        W 1790   8.243  10.813   3.331
37583W        W 1791  24.089   8.818   5.260
37584W        W 1792  40.972  17.196  14.408
37585W        W 1793  32.536  43.455  11.862
37586W        W 1794   3.899  42.915   0.442
37587W        W 1795  28.093  38.366  11.083
37588W        W 1796  41.393  10.237   2.842
37589W        W 1797  14.165   1.969   4.790
37590W        W 1798  28.931  30.960   4.607
37591W        W 1799  19.583   1.247   3.151
37592W        W 1800  34.959  35.521  14.497
37593W        W 1801  12.622  28.591  12.013
37594W        W 1802  33.622  39.005   1.841
37595W        W 1803  31.420  33.390  13.060
37596W        W 1804  27.677  44.370  11.412
37597W        W 1805  37.938  41.444  14.474
37598W        W 1806  19.281   1.348   3.333
37599W        W 1807   5.307  33.610   4.335
37600W        W 1808  42.883  13.148  14.277
37601W        W 1809   1.964  21.721  11.548
37602W        W 1810  20.224  11.756   0.880
37603W        W 1811  40.919  44.299   4.128
37604W        W 1812   7.893  41.303  12.872
37605W        W 1813  43.452  23.070  14.482
37606W        W 1814  32.888   3.730  11.878
37607W        W 1815  30.657  23.164   0.825
37608W        W 1816  12.253  26.470   2.868
37609W        W 1817   0.465  30.479  11.078
37610W        W 1818  16.178  40.892  14.444
37611W        W 1819  19.700  28.558  13.354
37612W        W 1820  16.173   7.183   0.830
37613W        W 1821   3.287   1.242   0.836
37614W        W 1822  31.475  28.589  12.363
37615W        W 1823  21.111  34.559  14.958
37616W        W 1824   2.340  40.920   1.738
37617W        W 1825  42.413  42.793   1.359
37618W        W 1826  22.578   2.787  10.553
37619W        W 1827  30.414  27.046   4.129
37620W        W 1828  15.263  22.577  10.412
37621W        W 1829  28.481  23.497   4.276
37622W        W 1830   3.898  21.567   3.312
37623W        W 1831  17.743  32.592   2.228
37624W        W 1832  35.537  30.567   4.771
37625W        W 1833   9.880   1.261  11.940
37626W        W 1834  43.864  38.477  11.085
37627W        W 1835  27.622  37.945  12.580
37628W        W 1836  42.007  15.088   1.919
37629W        W 1837  37.515  19.201   9.948
37630W        W 1838  15.801  38.968   3.671
37631W        W 1839   2.249  27.523  11.569
37632W        W 1840  18.616  29.935  12.471
37633W        W 1841  37.832  33.490   4.237
37634W        W 1842   1.420  37.520   2.691
37635W        W 1843  14.755   1.873  13.826
37636W        W 1844   3.745  19.582  13.959
37637W        W 1845  12.317  23.652   2.336
37638W        W 1846   9.860   1.862   4.647
37639W        W 1847  40.948  13.307  14.432
37640W        W 1848   9.877  38.860   3.722
37641W        W 1849  20.705  26.596  14.790
37642W        W 1850  20.106   5.370   9.525
37643W        W 1851  38.055  20.737  13.921
37644W        W 1852  31.934  15.087   1.397
37645W        W 1853  10.254   1.796  14.452
37646W        W 1854  42.825   1.380   3.353
37647W        W 1855  31.426  27.558  11.397
37648W        W 1856   7.374  27.606   3.818
37649W        W 1857   7.378  42.358   1.337
37650W        W 1858  29.106  42.412   4.236
37651W        W 1859  28.523  36.393  12.397
37652W        W 1860  36.591   4.339   1.241
37653W        W 1861   1.849  30.430   5.579
37654W        W 1862  28.635  22.021   3.189
37655W        W 1863  34.543   7.839   3.717
37656W        W 1864  36.900   6.189   1.724
37657W        W 1865  14.621   8.304  14.283
37658W        W 1866  29.072  35.869  10.498
37659W        W 1867  25.621  15.329  10.559
37660W        W 1868   3.289  22.667   3.352
37661W        W 1869  14.259  16.723   4.270
37662W        W 1870  26.625  25.997   3.740
37663W        W 1871   9.739  36.949  13.905
37664W        W 1872  37.511  17.220  10.522
37665W        W 1873  18.565  20.119  12.836
37666W        W 1874  24.576  22.665   4.720
37667W        W 1875  41.511  26.690   1.847
37668W        W 1876   8.175  34.912   3.190
37669W        W 1877   8.236  25.133  11.981
37670W        W 1878  22.196  32.117   2.810
37671W        W 1879  36.517   8.674   1.935
37672W        W 1880   9.181  43.915  11.868
37673W        W 1881   9.318  35.561   1.816
37674W        W 1882   6.868  16.566  13.352
37675W        W 1883  24.090  22.511  12.038
37676W        W 1884  11.847  35.449  10.524
37677W        W 1885  35.522  37.871   2.386
37678W        W 1886   5.882  13.158  13.541
37679W        W 1887  40.891  35.501  11.483
37680W        W 1888  39.523   0.357  13.542
37681W        W 1889  28.600  44.457   2.882
37682W        W 1890  41.520   1.896   4.651
37683W        W 1891  34.434   9.323   2.703
37684W        W 1892  12.314  17.260  12.840
37685W        W 1893  23.016  11.221   0.328
37686W        W 1894  31.031  33.484  12.564
37687W        W 1895  19.222  28.058  13.807
37688W        W 1896  38.884  32.915   2.793
37689W        W 1897  26.153  32.427  10.948
37690W        W 1898  39.551  24.110  14.950
37691W        W 1899  14.206  25.160   0.881
37692W        W 1900   8.401   4.379   2.365
37693W        W 1901  39.835   9.164  11.569
37694W        W 1902  11.259   5.333   1.794
37695W        W 1903  22.163  21.125  11.121
37696W        W 1904  36.858   2.448  14.994
37697W        W 1905   1.918  19.662  11.924
37698W        W 1906  44.759   3.231  12.378
37699W        W 1907  29.641  41.805   5.112
37700W        W 1908  29.119  30.014  10.527
37701W        W 1909  20.679  11.272  13.387
37702W        W 1910  13.678  38.526  12.934
37703W        W 1911  40.041  14.747  11.941
37704W        W 1912  26.693   2.272   5.109
37705W        W 1913  39.877  41.505   0.248
37706W        W 1914  34.422  33.925   4.240
37707W        W 1915  42.007   8.193  12.427
37708W        W 1916  31.091  33.073  11.514
37709W        W 1917  15.612   1.383   2.662
37710W        W 1918  35.386  37.840  14.400
37711W        W 1919  34.031  21.728  10.486
37712W        W 1920  44.771  40.365  10.537
37713W        W 1921  33.484  44.432   0.443
37714W        W 1922  41.489  40.958  10.550
37715W        W 1923   2.341  15.595   3.245
37716W        W 1924   4.743  11.289  13.792
37717W        W 1925  26.094  27.579  11.906
37718W        W 1926   5.858  11.155   2.846
37719W        W 1927  44.893   0.440   0.869
37720W        W 1928  25.539  31.139   0.265
37721W        W 1929  16.122  10.139   3.647
37722W        W 1930  37.571  43.375   1.870
37723W        W 1931  16.195  36.578  12.964
37724W        W 1932  13.752  39.476   0.891
37725W        W 1933   1.388  37.942  13.802
37726W        W 1934  18.745  28.121   5.265
37727W        W 1935  44.282  23.547  14.428
37728W        W 1936  23.586  21.557  14.379
37729W        W 1937  31.150  44.325  10.641
37730W        W 1938  29.946  22.201  12.561
37731W        W 1939  23.198   9.837   1.364
37732W        W 1940  11.720  27.519  13.912
37733W        W 1941  43.473  18.634   4.729
37734W        W 1942   0.488   1.409   4.766
37735W        W 1943  35.932  41.534  13.335
37736W        W 1944   5.395  36.523   0.929
37737W        W 1945  42.406  13.255   0.881
37738W        W 1946  10.291  16.656  11.538
37739W        W 1947  29.497   4.775   5.295
37740W        W 1948  10.371  12.689   2.820
37741W        W 1949   2.256  12.757  14.854
37742W        W 1950   1.416   0.861  10.916
37743W        W 1951  42.991  28.075   3.674
37744W        W 1952  39.867  15.116   0.903
37745W        W 1953   6.857  43.945   1.391
37746W        W 1954  40.451  34.887   3.313
37747W        W 1955  20.099   7.344  12.494
37748W        W 1956   1.385  15.645   0.376
37749W        W 1957   6.682  32.412  12.917
37750W        W 1958  18.626   8.355  11.424
37751W        W 1959  13.707  40.435  11.484
37752W        W 1960  38.363  13.794  12.011
37753W        W 1961   2.959  37.032   2.403
37754W        W 1962  37.974  29.010  14.439
37755W        W 1963  15.766  36.012   3.821
37756W        W 1964  17.128   4.287   1.782
37757W        W 1965  39.024   1.915   1.761
37758W        W 1966  17.215  32.902   3.709
37759W        W 1967  11.642  41.456   5.175
37760W        W 1968  37.875  38.932   2.309
37761W        W 1969  37.529  35.598  11.053
37762W        W 1970  43.795  30.551   3.740
37763W        W 1971  37.363  38.972  13.358
37764W        W 1972   7.385  34.997   3.179
37765W        W 1973  36.871  19.762  12.360
37766W        W 1974   7.203  32.945   2.754
37767W        W 1975  44.476   5.725  12.938
37768W        W 1976  14.193  38.427   1.881
37769W        W 1977  27.675   8.180   3.296
37770W        W 1978  30.018  21.713   0.409
37771W        W 1979   5.713  14.166   2.188
37772W        W 1980  34.111  44.763  13.331
37773W        W 1981  44.439  28.083  13.920
37774W        W 1982  17.797  33.121   3.249
37775W        W 1983  14.714   7.289  10.456
37776W        W 1984  20.171  44.814  13.361
37777W        W 1985   6.276  40.933   4.755
37778W        W 1986   5.843  10.208   4.631
37779W        W 1987   3.805  26.638  13.510
37780W        W 1988  28.003  22.057   4.826
37781W        W 1989  22.667  13.846  10.064
37782W        W 1990  39.506  40.375   4.709
37783W        W 1991  31.051  32.467  13.438
37784W        W 1992  27.127  10.668   4.619
37785W        W 1993  19.552  26.186   2.257
37786W        W 1994  30.919  40.940  14.914
37787W        W 1995   7.693  42.438  13.457
37788W        W 1996  21.558   1.754   3.366
37789W        W 1997  10.374  13.266   3.856
37790W        W 1998   5.777  39.351  12.000
37791W        W 1999  29.637  29.638  14.028
37792W        W 2000  41.531   7.704  14.913
37793W        W 2001  10.336  43.395   2.355
37794W        W 2002  31.441   5.202  11.452
37795W        W 2003   5.805  23.494   4.312
37796W        W 2004   3.828  16.203   0.256
37797W        W 2005  26.661  37.449   3.314
37798W        W 2006  24.548   3.796  14.976
37799W        W 2007   9.811   3.941  13.057
37800W        W 2008   8.749  17.247  11.425
37801W        W 2009  19.053  41.922  14.447
37802W        W 2010   4.446   6.827   4.776
37803W        W 2011  18.227  19.202   4.666
37804W        W 2012   4.204  23.147   2.719
37805W        W 2013   2.398  12.272  13.793
37806W        W 2014  22.242  10.665  12.412
37807W        W 2015  33.113  22.211   2.400
37808W        W 2016  20.136   6.240  10.500
37809W        W 2017   5.315  14.597   3.152
37810W        W 2018  33.075   1.911  13.823
37811W        W 2019  24.617  38.448  12.015
37812W        W 2020  32.418   9.191   2.259
37813W        W 2021  35.465  41.457   4.834
37814W        W 2022  27.186  17.261   2.671
37815W        W 2023   6.723  26.497  10.521
37816W        W 2024   1.309  16.769  12.354
37817W        W 2025   1.944  22.234   1.789
37818W        W 2026  41.501  34.117  14.878
37819W        W 2027  12.838  12.269  13.804
37820W        W 2028   7.298   3.922  10.595
37821W        W 2029   5.212  34.381  10.645
37822W        W 2030  41.495   9.339  13.862
37823W        W 2031   2.918  38.481  12.847
37824W        W 2032  37.833  16.790   3.201
37825W        W 2033  24.080  21.554  11.442
37826W        W 2034  23.734  35.030  13.970
37827W        W 2035   8.806   1.793   4.264
37828W        W 2036  15.669  42.803  10.425
37829W        W 2037  34.600  31.539   0.260
37830W        W 2038   3.451  42.328  12.946
37831W        W 2039  19.263   7.696   5.156
37832W        W 2040  20.605  44.754  12.055
37833W        W 2041   5.876  32.544  14.387
37834W        W 2042  36.954  22.658   3.352
37835W        W 2043  15.731  19.595   1.447
37836W        W 2044  30.637   0.268  10.982
37837W        W 2045  17.216  10.288   1.303
37838W        W 2046   7.250  37.037  10.922
37839W        W 2047  28.995   3.863   4.251
37840W        W 2048  13.291  42.417  13.355
37841W        W 2049  39.549  39.347   0.862
37842W        W 2050  30.093  11.760  13.846
37843W        W 2051  21.086   5.377  12.096
37844W        W 2052   6.335  38.876   1.747
37845W        W 2053  28.136  16.691   9.555
37846W        W 2054  16.192  16.174   2.273
37847W        W 2055  11.333  25.487   2.394
37848W        W 2056  27.603   7.324   0.925
37849W        W 2057  26.106   5.404   1.783
37850W        W 2058  15.178  44.850   3.160
37851W        W 2059   1.335   6.860  14.354
37852W        W 2060  18.210  24.187  13.499
37853W        W 2061  28.584   2.918   4.820
37854W        W 2062  41.484  26.040  10.531
37855W        W 2063  12.294  31.981   0.305
37856W        W 2064  38.065   2.832   0.303
37857W        W 2065   6.714   8.715  14.502
37858W        W 2066  34.908  36.900  12.972
37859W        W 2067  28.442  34.010  11.563
37860W        W 2068  24.097  38.874  11.561
37861W        W 2069  28.680  21.113   1.878
37862W        W 2070   7.175  23.090  13.953
37863W        W 2071  26.040   6.831  12.878
37864W        W 2072   6.425  26.063  11.442
37865W        W 2073  29.973  14.182   0.753
37866W        W 2074  25.540  22.631  13.389
37867W        W 2075  18.546   2.756  10.903
37868W        W 2076   5.348  20.127  11.012
37869W        W 2077  44.973  28.631   2.295
37870W        W 2078  21.075  17.168  10.993
37871W        W 2079   8.709  38.424  13.038
37872W        W 2080  15.116  29.154   4.160
37873W        W 2081   2.964   4.443   4.269
37874W        W 2082  44.994  28.472  14.875
37875W        W 2083  40.514  30.590   0.787
37876W        W 2084  14.242  40.491  13.507
37877W        W 2085   8.207  34.390  13.454
37878W        W 2086  24.510   3.757   1.225
37879W        W 2087  41.035  39.018  14.307
37880W        W 2088  16.618  21.147  12.080
37881W        W 2089   4.717   6.884  14.822
37882W        W 2090  17.295   6.187   5.228
37883W        W 2091   7.796   5.789  11.410
37884W        W 2092  29.117  16.083   3.157
37885W        W 2093  41.867  10.730   4.296
37886W        W 2094  40.821  11.749   4.130
37887W        W 2095   0.356  42.475   1.238
37888W        W 2096  29.079  38.515   0.379
37889W        W 2097  29.008  44.376   0.256
37890W        W 2098  12.856  31.629  10.583
37891W        W 2099  36.544  33.425   0.314
37892W        W 2100  40.327  36.993   0.859
37893W        W 2101  39.856  31.499   3.672
37894W        W 2102  23.664  40.319   1.419
37895W        W 2103   0.810  26.167   1.216
37896W        W 2104   8.797   7.840   1.410
37897W        W 2105   2.904  37.357  11.898
37898W        W 2106   4.290  10.644  11.042
37899W        W 2107   5.229  23.127  10.918
37900W        W 2108  10.342  15.267   1.297
37901W        W 2109  43.506   3.882   4.771
37902W        W 2110   6.382   3.712   1.767
37903W        W 2111   2.338  34.050   4.235
37904W        W 2112  44.402  36.959  12.872
37905W        W 2113  42.933  38.937   1.878
37906W        W 2114  31.459  39.549  14.979
37907W        W 2115   2.863  10.820  14.026
37908W        W 2116  20.597  20.174  12.435
37909W        W 2117  43.004   5.852  14.994
37910W        W 2118  39.969  36.924   4.296
37911W        W 2119  17.120   0.845   0.802
37912W        W 2120  43.470  35.074  12.966
37913W        W 2121  23.639  43.874   2.283
37914W        W 2122  31.914   8.756  12.013
37915W        W 2123  44.322  14.178  12.413
37916W        W 2124  36.493  17.210   1.272
37917W        W 2125  31.017  41.363  13.473
37918W        W 2126  25.522  29.006  13.363
37919W        W 2127  23.146  41.811   1.782
37920W        W 2128  30.644  20.220   0.408
37921W        W 2129   7.772   0.931   4.180
37922W        W 2130  10.634  17.183  11.465
37923W        W 2131  40.815  41.968  13.952
37924W        W 2132  25.199  20.133   1.443
37925W        W 2133   6.298  37.967  14.505
37926W        W 2134  15.274  33.539   0.874
37927W        W 2135   9.190  44.980  14.446
37928W        W 2136  10.271   0.781   2.751
37929W        W 2137  16.212  21.733  10.632
37930W        W 2138  29.663  42.932   0.888
37931W        W 2139   8.230  12.765  11.411
37932W        W 2140  13.745  21.642   3.180
37933W        W 2141  18.550  35.467  11.452
37934W        W 2142  35.547  35.947   4.215
37935W        W 2143  22.073   8.190   4.178
37936W        W 2144  13.165  19.557  10.103
37937W        W 2145  24.494   5.729  11.447
37938W        W 2146  16.593  33.620   3.708
37939W        W 2147  31.996  12.693   0.854
37940W        W 2148  17.172  23.731  13.868
37941W        W 2149  23.045   3.382  13.001
37942W        W 2150   1.417  29.997   2.396
37943W        W 2151  28.462   8.192   3.325
37944W        W 2152  22.646  32.916  14.885
37945W        W 2153  21.046  12.612  11.399
37946W        W 2154  43.277  30.548   1.776
37947W        W 2155  43.460  30.536  12.359
37948W        W 2156  22.084  27.608   3.748
37949W        W 2157  37.429   0.415  13.436
37950W        W 2158  39.811  40.371   4.755
37951W        W 2159   4.704  23.534  10.474
37952W        W 2160  33.433  12.280  11.023
37953W        W 2161   6.684  23.582  14.362
37954W        W 2162  35.380  36.865  13.532
37955W        W 2163  12.121   8.388  14.869
37956W        W 2164  34.921  22.575   1.909
37957W        W 2165  37.071  43.799  11.410
37958W        W 2166   4.359  16.573  10.623
37959W        W 2167   9.357  30.494   5.193
37960W        W 2168  19.126  31.947  14.029
37961W        W 2169  10.842  28.085   3.355
37962W        W 2170   3.449   7.238   1.725
37963W        W 2171  24.058   3.269   5.250
37964W        W 2172  19.061   0.271   2.757
37965W        W 2173  22.161   4.359   0.481
37966W        W 2174  25.597  36.028   1.441
37967W        W 2175  23.579  25.652   2.779
37968W        W 2176   2.265  11.654  11.076
37969W        W 2177   9.813   6.852   3.637
37970W        W 2178   6.730  35.390   3.799
37971W        W 2179  39.359   5.403   2.206
37972W        W 2180  18.080  25.140  12.833
37973W        W 2181  42.284  44.311  14.444
37974W        W 2182   1.379   5.705  14.487
37975W        W 2183  22.025  35.507   1.326
37976W        W 2184  40.870  36.436  14.498
37977W        W 2185  20.711  13.653   4.746
37978W        W 2186  34.410  36.015   4.745
37979W        W 2187   2.390  33.415   3.690
37980W        W 2188  19.695   5.291   5.581
37981W        W 2189  36.852   1.275   0.802
37982W        W 2190  15.278  32.417  10.457
37983W        W 2191   6.783  22.681  14.958
37984W        W 2192   8.275   4.923   2.395
37985W        W 2193   8.713  10.275  14.345
37986W        W 2194  14.213  43.463   0.338
37987W        W 2195   9.303  34.952  11.579
37988W        W 2196   7.826  31.056   4.142
37989W        W 2197  24.545   9.228  14.830
37990W        W 2198  17.588  40.334  10.509
37991W        W 2199   7.878  12.116  14.487
37992W        W 2200  32.438   2.358  14.916
37993W        W 2201   9.706   2.441   0.854
37994W        W 2202  42.332   0.805  10.896
37995W        W 2203  19.648  21.124  10.592
37996W        W 2204  44.468  26.569   3.818
37997W        W 2205  35.858  28.099   3.384
37998W        W 2206  36.581  31.100   4.734
37999W        W 2207   4.831  43.332  14.491
38000W        W 2208   0.920   7.261   5.082
38001W        W 2209  25.532  26.042   2.215
38002W        W 2210  22.651  12.740   3.242
38003W        W 2211  33.522  43.947   0.780
38004W        W 2212  39.520  21.623  13.455
38005W        W 2213  17.167  22.207  13.508
38006W        W 2214  24.063  18.246   4.741
38007W        W 2215  29.460  31.625   4.686
38008W        W 2216   3.861  32.026  13.910
38009W        W 2217   4.897  17.617  14.423
38010W        W 2218  29.003  14.100   0.267
38011W        W 2219  36.500  31.511  12.828
38012W        W 2220  35.034  30.615  13.311
38013W        W 2221   4.932  15.792  11.117
38014W        W 2222  41.043  35.422  11.944
38015W        W 2223  21.660  40.863   1.311
38016W        W 2224  32.446  27.584   1.902
38017W        W 2225  15.263   4.345  11.014
38018W        W 2226   6.329  21.545  13.544
38019W        W 2227   5.315  42.027   2.264
38020W        W 2228  42.442  40.493   3.769
38021W        W 2229  34.515  31.931   0.376
38022W        W 2230  16.206  41.799  12.499
38023W        W 2231  42.443   4.745  14.982
38024W        W 2232  17.181  34.394  10.094
38025W        W 2233   9.286   1.859  11.866
38026W        W 2234  18.748   0.759   4.340
38027W        W 2235  25.496   9.788  14.981
38028W        W 2236  44.847  25.068   1.796
38029W        W 2237  11.212  30.028  10.982
38030W        W 2238   7.806  16.086  11.009
38031W        W 2239  12.819  40.436  14.808
38032W        W 2240  42.999  41.978  13.492
38033W        W 2241   3.905   4.288   0.246
38034W        W 2242  28.963  20.728   2.759
38035W        W 2243  36.458  43.873  13.373
38036W        W 2244  31.933   8.188   4.232
38037W        W 2245  20.641  36.447   3.214
38038W        W 2246  18.088  30.131   4.761
38039W        W 2247  17.736  38.053  14.870
38040W        W 2248  10.861  12.251  12.051
38041W        W 2249  19.039  16.661   0.796
38042W        W 2250   1.247  12.147  12.853
38043W        W 2251  28.595  14.206  10.049
38044W        W 2252  42.015  15.721  12.519
38045W        W 2253  36.067  11.693  13.882
38046W        W 2254  10.245   8.296   0.773
38047W        W 2255  20.087  11.811  10.142
38048W        W 2256   5.810  40.889  14.410
38049W        W 2257  39.882  29.112  14.007
38050W        W 2258  23.132  18.590  10.004
38051W        W 2259  21.554   5.858   2.731
38052W        W 2260  28.061  36.369  14.330
38053W        W 2261  10.355  37.028  11.864
38054W        W 2262  22.092  28.594   3.838
38055W        W 2263  34.015  43.904  12.527
38056W        W 2264  38.409  39.913  14.282
38057W        W 2265   6.215  20.533  14.419
38058W        W 2266   7.746  14.135   0.266
38059W        W 2267  22.081  16.252  10.934
38060W        W 2268  25.469   1.242   1.231
38061W        W 2269  38.018  44.500   1.445
38062W        W 2270   2.389  22.080   2.726
38063W        W 2271   7.196  31.596  12.446
38064W        W 2272   8.859  33.944   1.746
38065W        W 2273   2.780  44.758  10.515
38066W        W 2274  12.815  22.050  11.482
38067W        W 2275   5.931  23.092  11.055
38068W        W 2276  42.792   7.196  10.617
38069W        W 2277  31.114  43.862   4.606
38070W        W 2278   6.333  21.082  14.988
38071W        W 2279  13.221  42.503  11.400
38072W        W 2280  25.591   4.277   1.789
38073W        W 2281  23.145  21.103   1.913
38074W        W 2282  37.039  15.778   4.715
38075W        W 2283  29.434  31.025  13.380
38076W        W 2284   7.856  17.171   1.818
38077W        W 2285  44.793  17.724  10.908
38078W        W 2286  11.289   7.306   4.164
38079W        W 2287   9.304  35.975   0.737
38080W        W 2288  29.980  13.292   9.632
38081W        W 2289  37.535  20.537  12.000
38082W        W 2290  16.575  28.634  12.944
38083W        W 2291  39.393  18.193  14.319
38084W        W 2292  27.643  29.570  10.444
38085W        W 2293  11.639  19.752  14.315
38086W        W 2294  26.106   3.386   2.352
38087W        W 2295  41.981  28.045  10.613
38088W        W 2296   6.884  27.970  13.929
38089W        W 2297  17.730  44.505  13.840
38090W        W 2298  10.676  22.057   0.899
38091W        W 2299  11.626  12.247  12.524
38092W        W 2300   1.364  32.057   1.727
38093W        W 2301  40.379  43.498  13.487
38094W        W 2302  37.897  14.809   1.448
38095W        W 2303   0.897  34.479   0.348
38096W        W 2304  35.875  24.703  13.539
38097W        W 2305  27.026  22.628   1.364
38098W        W 2306  33.113  26.954   4.148
38099W        W 2307  39.997  38.997  12.057
38100W        W 2308   1.318  37.996  14.408
38101W        W 2309  22.707  10.705   4.204
38102W        W 2310  15.298  13.113  13.047
38103W        W 2311  31.083  31.483  14.283
38104W        W 2312  15.629  26.650   5.231
38105W        W 2313  26.096  23.573   2.227
38106W        W 2314   0.962  29.647   2.825
38107W        W 2315   0.793  12.829  10.097
38108W        W 2316  19.137   5.859  14.452
38109W        W 2317  44.310  39.891   0.467
38110W        W 2318  21.095  13.221  13.416
38111W        W 2319   4.397   7.806  10.445
38112W        W 2320   2.884  39.039   0.859
38113W        W 2321   2.838   1.261  10.151
38114W        W 2322  12.253   6.842  10.644
38115W        W 2323  25.206  16.574  12.467
38116W        W 2324  20.059  14.338   4.782
38117W        W 2325  37.000  27.044   2.418
38118W        W 2326  38.422  44.354  13.810
38119W        W 2327   7.728   0.292  10.989
38120W        W 2328   6.686  22.220  14.428
38121W        W 2329  44.000  16.580   1.358
38122W        W 2330  32.582  31.485   2.698
38123W        W 2331  37.505  21.550  11.380
38124W        W 2332   9.374  44.963  10.598
38125W        W 2333  40.048  30.581  13.831
38126W        W 2334  32.467  20.087   0.805
38127W        W 2335  10.288  43.844   3.352
38128W        W 2336  16.757  29.503  14.470
38129W        W 2337   5.858  22.710  11.056
38130W        W 2338   6.792   3.214   0.810
38131W        W 2339  31.074  27.977  13.329
38132W        W 2340  39.546  24.674   4.711
38133W        W 2341  27.996  42.978  12.001
38134W        W 2342  25.003  35.043  14.937
38135W        W 2343  41.507  33.610   2.832
38136W        W 2344  39.010  21.594   2.356
38137W        W 2345  28.062  26.953  10.529
38138W        W 2346  24.988  25.163   4.293
38139W        W 2347  28.115  23.041   1.860
38140W        W 2348  10.280  15.144   0.765
38141W        W 2349  11.762  32.974  14.425
38142W        W 2350  12.611  13.333   4.822
38143W        W 2351  25.535  29.520   2.213
38144W        W 2352  41.301  30.415  14.887
38145W        W 2353  30.124   0.323  11.005
38146W        W 2354  31.045  14.337  11.581
38147W        W 2355  34.989  44.990  11.416
38148W        W 2356   1.375   2.453   1.343
38149W        W 2357  31.010  27.468   4.131
38150W        W 2358  40.845  19.754  14.972
38151W        W 2359  19.658  38.449   9.572
38152W        W 2360   8.719  32.441   3.842
38153W        W 2361  22.719   3.944  12.530
38154W        W 2362  40.420   5.257   0.892
38155W        W 2363   6.372  30.468  11.003
38156W        W 2364  42.779  34.037   4.141
38157W        W 2365  14.131  27.141   3.195
38158W        W 2366  13.195  14.128   5.274
38159W        W 2367  40.526  38.057   1.429
38160W        W 2368  30.454  15.742   0.382
38161W        W 2369  27.637  18.258  13.914
38162W        W 2370  44.412  30.064  10.556
38163W        W 2371  29.016  20.136   4.782
38164W        W 2372  25.000  10.859  11.582
38165W        W 2373  20.233  33.573   5.256
38166W        W 2374  11.842  26.485  14.775
38167W        W 2375  43.021   3.813   5.184
38168W        W 2376  40.438  35.906   1.409
38169W        W 2377  25.637  19.739   0.286
38170W        W 2378  27.046  30.523   3.204
38171W        W 2379  11.740   1.732   4.251
38172W        W 2380   3.362  20.593  12.878
38173W        W 2381  42.938  16.600  10.520
38174W        W 2382  40.035  11.857  12.462
38175W        W 2383   9.809  32.577   3.778
38176W        W 2384  22.622  34.379  11.472
38177W        W 2385  37.831  27.057   2.799
38178W        W 2386   4.395  15.783  13.809
38179W        W 2387   1.916  22.528   4.778
38180W        W 2388   7.273   1.279  12.084
38181W        W 2389  27.993  40.003  13.014
38182W        W 2390  38.858  31.932   1.821
38183W        W 2391  22.652   5.854   5.639
38184W        W 2392   3.776  18.557   1.276
38185W        W 2393  12.129  31.963   4.290
38186W        W 2394  33.055   4.407  13.386
38187W        W 2395  19.073  14.770   1.237
38188W        W 2396  25.653  15.114   2.320
38189W        W 2397  36.039  13.133  13.828
38190W        W 2398  27.998  21.557  11.587
38191W        W 2399  38.924  42.470  11.923
38192W        W 2400  36.042  28.180  13.421
38193W        W 2401   6.261  14.722  12.062
38194W        W 2402  30.010  44.406  13.031
38195W        W 2403   7.769  36.528  11.013
38196W        W 2404  20.057  36.841   0.906
38197W        W 2405  20.034   5.407   2.792
38198W        W 2406  41.915  28.179  10.051
38199W        W 2407  41.421  14.800   2.239
38200W        W 2408  16.585  19.665   1.387
38201W        W 2409  36.508   7.677   3.775
38202W        W 2410   1.863  21.690   1.841
38203W        W 2411   8.698  26.643  14.403
38204W        W 2412   1.469  27.541  14.456
38205W        W 2413  22.543  39.524   3.316
38206W        W 2414  30.643   5.357   4.807
38207W        W 2415  23.647   3.832   2.804
38208W        W 2416  15.284   3.857   0.794
38209W        W 2417  22.055  21.037   2.258
38210W        W 2418  12.249   6.782  14.363
38211W        W 2419  30.963  15.115   4.227
38212W        W 2420  23.034  39.888  12.577
38213W        W 2421  10.331   0.988  11.991
38214W        W 2422  29.006  15.145  12.044
38215W        W 2423  38.567  22.626   2.759
38216W        W 2424  35.931  19.765   3.169
38217W        W 2425  41.508  20.110  13.341
38218W        W 2426  26.672   5.285  14.500
38219W        W 2427  27.605  25.015  13.009
38220W        W 2428  11.705  29.045  12.949
38221W        W 2429  44.361  29.015   2.885
38222W        W 2430  31.468   7.770   0.770
38223W        W 2431   8.250   3.766  11.102
38224W        W 2432   1.435   6.308   2.857
38225W        W 2433   2.354   5.378   0.323
38226W        W 2434  34.543  18.081  10.602
38227W        W 2435  35.476  13.632  13.801
38228W        W 2436   7.344  17.065   1.366
38229W        W 2437  16.109  20.659   0.426
38230W        W 2438  18.120   0.374   4.117
38231W        W 2439   4.930  36.472  10.637
38232W        W 2440  29.504   2.391  13.520
38233W        W 2441  36.437  13.810  14.373
38234W        W 2442  20.268  33.890   3.771
38235W        W 2443  29.574   1.791   4.795
38236W        W 2444  21.259   9.878  11.526
38237W        W 2445  32.550  39.487   4.758
38238W        W 2446   8.185  26.127  13.314
38239W        W 2447  24.010  22.690   5.300
38240W        W 2448  17.743   5.340   4.690
38241W        W 2449  20.267  17.162  14.387
38242W        W 2450  25.479  15.106   4.807
38243W        W 2451  25.048   4.415  14.852
38244W        W 2452  25.984  27.125   0.745
38245W        W 2453  37.531  34.001  11.918
38246W        W 2454  24.013  30.086  14.861
38247W        W 2455  35.538  22.629   3.645
38248W        W 2456  17.588  11.698  14.766
38249W        W 2457  31.633   0.276  12.928
38250W        W 2458   0.248   8.380   3.870
38251W        W 2459  25.526  32.406   4.303
38252W        W 2460  30.518  42.808  14.799
38253W        W 2461  31.621  40.963   2.235
38254W        W 2462   8.314  25.608   3.848
38255W        W 2463  31.987  17.580  12.449
38256W        W 2464  34.441   4.416  12.057
38257W        W 2465   1.395  24.532  13.798
38258W        W 2466   0.439  25.666  11.923
38259W        W 2467   4.736  13.136  13.859
38260W        W 2468   8.205  36.479  13.880
38261W        W 2469   8.257  37.070   4.133
38262W        W 2470   5.890   6.730   2.241
38263W        W 2471  37.948  44.799   4.257
38264W        W 2472  44.765  29.037   0.741
38265W        W 2473   9.233  24.595  10.896
38266W        W 2474  19.050  15.824  14.999
38267W        W 2475  16.748   3.758   0.908
38268W        W 2476  25.036   2.803  11.987
38269W        W 2477  25.549   3.869  10.978
38270W        W 2478  30.545  35.432  11.947
38271W        W 2479   6.424  28.642  11.988
38272W        W 2480  36.023  36.954   4.798
38273W        W 2481  12.738  37.476  12.840
38274W        W 2482  35.109  36.369  10.977
38275W        W 2483  14.283  40.996   2.374
38276W        W 2484  28.580  38.360  12.840
38277W        W 2485  32.549  32.941  11.030
38278W        W 2486  28.100  27.461   2.735
38279W        W 2487  25.643   4.277  14.842
38280W        W 2488  19.057  36.370   3.831
38281W        W 2489  32.066  24.057   5.108
38282W        W 2490   6.420   3.287   5.097
38283W        W 2491   2.282  12.777   2.402
38284W        W 2492  23.164  24.203   0.898
38285W        W 2493   8.859  28.180   5.286
38286W        W 2494  27.141   1.481   2.264
38287W        W 2495  13.683  14.771  13.416
38288W        W 2496  24.504   5.209   0.742
38289W        W 2497   1.354  31.465  11.413
38290W        W 2498  13.144  38.343  13.917
38291W        W 2499  11.351   3.765  11.959
38292W        W 2500  34.554   1.378   3.642
38293W        W 2501  44.802  38.384  11.494
38294W        W 2502  30.080  16.185   2.854
38295W        W 2503  35.540  40.978  14.447
38296W        W 2504   4.833  33.441   2.328
38297W        W 2505  31.545  39.924  10.526
38298W        W 2506  38.009  18.163  13.895
38299W        W 2507  37.345  15.819  10.486
38300W        W 2508  42.870   6.219  13.858
38301W        W 2509   1.891  24.586   4.185
38302W        W 2510  11.633  15.131  10.895
38303W        W 2511  32.605  18.058   2.293
38304W        W 2512  31.413  42.505   4.285
38305W        W 2513   5.217  33.582   3.290
38306W        W 2514  37.494  41.799   5.231
38307W        W 2515   3.950   4.899   1.888
38308W        W 2516  44.407  15.598  11.894
38309W        W 2517  13.185  37.539  11.594
38310W        W 2518  31.127  42.843   1.449
38311W        W 2519  28.514  44.368  12.917
38312W        W 2520   8.348  24.189  13.506
38313W        W 2521  40.443  25.178  10.937
38314W        W 2522   3.362   8.341  14.878
38315W        W 2523  36.073  30.049   1.330
38316W        W 2524  39.313   0.797  13.041
38317W        W 2525   7.690  24.001   4.616
38318W        W 2526  20.128  15.223   0.735
38319W        W 2527  33.504  13.137  14.395
38320W        W 2528   4.204  27.043   4.176
38321W        W 2529  16.256   8.280   3.846
38322W        W 2530  38.550  22.547  14.023
38323W        W 2531  25.689  39.891  10.601
38324W        W 2532  33.462  33.468  10.572
38325W        W 2533  18.682  30.621   4.228
38326W        W 2534  42.399  24.125   3.661
38327W        W 2535  28.572  22.652   1.827
38328W        W 2536  23.014  14.265  10.967
38329W        W 2537  43.017  36.478   0.930
38330W        W 2538  39.985   4.752  10.980
38331W        W 2539  43.862  15.275  14.348
38332W        W 2540  28.132  30.451   1.917
38333W        W 2541  10.149  41.442  11.049
38334W        W 2542  14.591  42.412   4.816
38335W        W 2543  41.908   8.802   3.224
38336W        W 2544  19.256  10.764  14.766
38337W        W 2545  24.027  11.764   4.162
38338W        W 2546  18.246  36.950  13.894
38339W        W 2547  18.619   8.268   0.891
38340W        W 2548  32.904  43.324  13.893
38341W        W 2549  40.549  31.096  10.530
38342W        W 2550  35.021   9.395  11.376
38343W        W 2551  11.651  16.094  13.358
38344W        W 2552   7.862  38.384  12.975
38345W        W 2553   4.446  36.355   1.701
38346W        W 2554   6.397  15.138  11.870
38347W        W 2555  42.000  20.523  14.999
38348W        W 2556  21.226  42.890   1.766
38349W        W 2557  24.182   4.917   2.376
38350W        W 2558  41.791   5.732  12.861
38351W        W 2559  28.048  33.946  13.350
38352W        W 2560  17.078   1.369   0.795
38353W        W 2561   6.903  35.522  12.456
38354W        W 2562  24.716  18.164   1.913
38355W        W 2563  23.518  19.772   1.350
38356W        W 2564  13.618  30.498  13.883
38357W        W 2565  35.094  24.037   2.184
38358W        W 2566  38.524  18.650   3.326
38359W        W 2567  25.487  17.627  11.566
38360W        W 2568  23.718   8.260  12.566
38361W        W 2569  29.032  22.626  14.885
38362W        W 2570  32.486  44.423  12.542
38363W        W 2571  32.489  35.524  12.044
38364W        W 2572   3.364  12.189  12.008
38365W        W 2573  41.511   9.172   2.262
38366W        W 2574  43.976  30.149   3.785
38367W        W 2575  24.112  30.536  10.148
38368W        W 2576  42.913  27.074  12.523
38369W        W 2577  20.678  30.481   0.297
38370W        W 2578   0.790  37.943  14.960
38371W        W 2579  27.628  23.139   1.216
38372W        W 2580  41.371  33.532   3.295
38373W        W 2581  34.013   9.264  13.923
38374W        W 2582  24.560   1.305   4.279
38375W        W 2583  32.636  14.685   0.471
38376W        W 2584  28.586   5.361   3.195
38377W        W 2585   7.789  13.726  12.084
38378W        W 2586  39.544  14.711  14.760
38379W        W 2587  22.711  18.175   5.099
38380W        W 2588  25.984   1.401   4.837
38381W        W 2589   5.856   0.294   0.785
38382W        W 2590  16.118  30.930  14.278
38383W        W 2591   2.381  14.740  13.057
38384W        W 2592  24.657  30.540   1.445
38385W        W 2593  18.132  24.590   3.783
38386W        W 2594  39.809  31.940   2.679
38387W        W 2595   7.744  43.986   0.355
38388W        W 2596   4.315  11.207   1.400
38389W        W 2597  28.553   8.252   4.166
38390W        W 2598  15.622  30.114  11.536
38391W        W 2599  23.714  38.964  11.443
38392W        W 2600   1.953  38.844  11.860
38393W        W 2601  43.875  13.301   0.463
38394W        W 2602   4.747  26.167  14.386
38395W        W 2603  26.058  31.040  14.447
38396W        W 2604  24.090  13.679   3.240
38397W        W 2605  26.693  13.752   4.241
38398W        W 2606   1.425  44.261  12.839
38399W        W 2607   8.712   9.373  11.483
38400W        W 2608  38.392  16.271   1.318
38401W        W 2609  41.532  41.337   0.881
38402W        W 2610   6.314  23.489   3.716
38403W        W 2611  23.583   3.297   1.315
38404W        W 2612  12.122  14.306  14.984
38405W        W 2613  23.528  36.493   4.687
38406W        W 2614  37.881   0.970  14.456
38407W        W 2615  15.742   4.756  14.945
38408W        W 2616  12.144  41.889   3.193
38409W        W 2617  10.326   6.344  11.873
38410W        W 2618  19.047  12.744   3.788
38411W        W 2619  38.558  38.888   2.711
38412W        W 2620  42.393  32.935  10.929
38413W        W 2621  44.794   7.697  11.948
38414W        W 2622  22.562  24.667   2.266
38415W        W 2623  11.801   9.223  12.860
38416W        W 2624  12.671  41.875  12.867
38417W        W 2625   0.984  35.582   3.667
38418W        W 2626  44.837   6.244  11.904
38419W        W 2627  43.903  11.228  11.896
38420W        W 2628  21.223  41.330  14.286
38421W        W 2629  24.181   3.385  12.354
38422W        W 2630  16.074   5.793   2.369
38423W        W 2631  38.068   0.775  12.374
38424W        W 2632  44.300  18.632   2.664
38425W        W 2633   1.747  30.547   1.747
38426W        W 2634  18.767  35.034   9.967
38427W        W 2635  29.960  39.317  14.305
38428W        W 2636  26.614  28.135   5.148
38429W        W 2637   3.297  40.005   4.153
38430W        W 2638  27.549  44.974   4.817
38431W        W 2639   2.724  14.132   2.274
38432W        W 2640  20.049  21.230  13.453
38433W        W 2641  23.720  29.668   0.762
38434W        W 2642  14.131   0.953  13.794
38435W        W 2643  44.464   4.753   1.303
38436W        W 2644   4.842   9.362   3.827
38437W        W 2645   4.933  19.256  11.050
38438W        W 2646  26.076  24.221  10.589
38439W        W 2647  17.105  27.125  10.431
38440W        W 2648  12.676  36.469  10.965
38441W        W 2649   9.299  17.242   1.797
38442W        W 2650  24.223  43.796  11.503
38443W        W 2651  34.389  40.966   4.731
38444W        W 2652   1.376  30.053   3.251
38445W        W 2653  31.619  12.335   0.760
38446W        W 2654   8.310   3.888  14.761
38447W        W 2655  21.215  19.535  13.494
38448W        W 2656  42.330  22.633  13.843
38449W        W 2657   6.421  37.561  13.847
38450W        W 2658   4.373  10.757  14.837
38451W        W 2659   3.818  31.406  13.933
38452W        W 2660  44.308  18.281  11.540
38453W        W 2661  27.691   7.184   1.217
38454W        W 2662   7.758  42.436   1.783
38455W        W 2663  26.612  29.502  13.848
38456W        W 2664  14.668  33.535  13.334
38457W        W 2665  18.608  28.576   3.192
38458W        W 2666  16.593  27.581  12.479
38459W        W 2667  18.134  42.800  12.050
38460W        W 2668  33.069  22.548  10.931
38461W        W 2669  37.010  11.280  10.637
38462W        W 2670  43.926  21.609  12.860
38463W        W 2671  22.715  11.343   1.708
38464W        W 2672  41.846   1.416  12.524
38465W        W 2673   8.800   6.908   3.770
38466W        W 2674  43.480   1.320   1.798
38467W        W 2675   0.904  38.345   2.901
38468W        W 2676  21.540   2.813  11.871
38469W        W 2677  33.576  25.580   4.235
38470W        W 2678  39.907  33.990  12.065
38471W        W 2679  29.044  27.665   4.159
38472W        W 2680  13.292  43.339   4.786
38473W        W 2681   9.321  10.751  13.494
38474W        W 2682  25.563  38.363   1.899
38475W        W 2683   6.212  40.876  13.468
38476W        W 2684  44.444  35.997   2.852
38477W        W 2685  18.642  11.321  14.815
38478W        W 2686  13.237  13.820   3.833
38479W        W 2687  23.614  28.107  14.904
38480W        W 2688  29.497  44.486  13.466
38481W        W 2689  33.623  10.367   1.840
38482W        W 2690   0.822  22.595  11.880
38483W        W 2691  12.827   7.812  13.314
38484W        W 2692  44.452  41.298  12.023
38485W        W 2693  37.925  37.357   5.313
38486W        W 2694   3.918  16.718  14.477
38487W        W 2695  37.559  22.539   0.831
38488W        W 2696  21.054  10.313   2.736
38489W        W 2697  22.672  26.549  10.521
38490W        W 2698  17.265  26.469   5.176
38491W        W 2699  25.650  33.102   2.364
38492W        W 2700  39.370  25.623  11.971
38493W        W 2701  10.776  18.163  11.532
38494W        W 2702  22.137  20.680  10.593
38495W        W 2703  40.513  42.837   1.376
38496W        W 2704  44.761  34.537   5.672
38497W        W 2705  33.022  24.487   3.330
38498W        W 2706  42.816   1.274  12.925
38499W        W 2707   0.773  34.608   3.327
38500W        W 2708  24.720  20.204   3.340
38501W        W 2709  41.330  28.448  12.520
38502W        W 2710  25.216  30.515   3.231
38503W        W 2711  19.618   5.869  14.368
38504W        W 2712  34.605  34.529  12.404
38505W        W 2713  26.197  43.413   3.761
38506W        W 2714   1.776  20.259   2.679
38507W        W 2715  19.205   4.308   9.980
38508W        W 2716  39.535  37.917  14.496
38509W        W 2717  23.988   7.207  10.909
38510W        W 2718  34.478  16.180  11.456
38511W        W 2719  40.016   1.915  13.428
38512W        W 2720   2.425  36.586   0.949
38513W        W 2721  30.425  11.856   3.687
38514W        W 2722  34.562  20.121   0.478
38515W        W 2723   7.909  42.354  11.590
38516W        W 2724  41.859  42.016   0.376
38517W        W 2725  20.212  11.669  12.079
38518W        W 2726  36.065  38.348  14.286
38519W        W 2727   8.365  10.695  11.593
38520W        W 2728  37.561  23.570   0.286
38521W        W 2729  36.381  25.079  14.849
38522W        W 2730  34.063  26.543  10.047
38523W        W 2731  41.990  17.295  11.003
38524W        W 2732  40.326   1.325  14.406
38525W        W 2733  31.047  20.146  14.807
38526W        W 2734  26.088  33.401  13.027
38527W        W 2735  36.899   7.233  12.498
38528W        W 2736  15.809  27.956   2.258
38529W        W 2737  36.003  21.129   4.723
38530W        W 2738   5.294  24.646   4.165
38531W        W 2739   2.292  14.621   0.826
38532W        W 2740  37.060  15.304  11.980
38533W        W 2741  31.143  29.580  13.308
38534W        W 2742  14.286   2.263  14.997
38535W        W 2743  16.655  20.574   4.674
38536W        W 2744  27.591  32.398  11.944
38537W        W 2745  29.957  20.682  12.374
38538W        W 2746  27.502  22.199  11.458
38539W        W 2747  41.341   2.290   5.260
38540W        W 2748   7.729  37.929  14.298
38541W        W 2749   8.731  17.086  13.431
38542W        W 2750  44.840   5.731  14.947
38543W        W 2751  41.006  40.990  10.912
38544W        W 2752  10.792  35.592  10.556
38545W        W 2753  17.588   7.242   1.225
38546W        W 2754  15.794  34.590   4.152
38547W        W 2755  13.741  24.017  14.859
38548W        W 2756   4.796   9.252   2.799
38549W        W 2757   4.256   0.833   3.154
38550W        W 2758  11.655  14.149   1.722
38551W        W 2759   6.833  43.472   3.155
38552W        W 2760  38.989   5.274   4.262
38553W        W 2761  25.200  30.617  10.510
38554W        W 2762   9.791  31.114  14.822
38555W        W 2763  43.973  16.294  14.472
38556W        W 2764  23.709  33.381   2.359
38557W        W 2765  24.574  40.366  13.427
38558W        W 2766  27.061  24.580  12.060
38559W        W 2767  35.979  43.389  12.937
38560W        W 2768  25.077  20.098   1.700
38561W        W 2769  21.127  15.821  11.543
38562W        W 2770   6.372  27.985  10.518
38563W        W 2771   1.810   4.788  12.893
38564W        W 2772   6.367  24.520  13.000
38565W        W 2773  26.086   0.946  13.907
38566W        W 2774  32.014  36.433  11.540
38567W        W 2775  23.618  16.131   0.309
38568W        W 2776  27.190   8.890   4.822
38569W        W 2777  18.218   4.343   3.197
38570W        W 2778  23.524   7.315   1.303
38571W        W 2779  11.186  33.525   1.266
38572W        W 2780  39.868  29.064   3.729
38573W        W 2781  28.990  10.648  13.381
38574W        W 2782  11.148  31.639   0.261
38575W        W 2783  16.801   5.331  13.456
38576W        W 2784  24.557  41.901   3.690
38577W        W 2785  24.134  29.030   0.924
38578W        W 2786  18.233  25.525  14.906
38579W        W 2787  32.892  42.391  10.616
38580W        W 2788  13.723  34.450  13.462
38581W        W 2789  43.322  39.989   5.136
38582W        W 2790  35.973  18.191  13.517
38583W        W 2791  27.597  39.530   3.809
38584W        W 2792  41.018   0.889   2.734
38585W        W 2793  36.370  30.474  14.793
38586W        W 2794   2.756  32.613   2.709
38587W        W 2795  30.936   0.858   2.194
38588W        W 2796  10.222  13.236   1.237
38589W        W 2797  13.805  12.303  11.437
38590W        W 2798  35.077  22.737   0.786
38591W        W 2799  23.532   5.810  12.526
38592W        W 2800  44.302   6.236   1.862
38593W        W 2801  24.225  11.723   2.351
38594W        W 2802  35.861   7.201   2.754
38595W        W 2803   0.856  36.097   0.839
38596W        W 2804  23.127   0.249  14.371
38597W        W 2805   5.315   7.363  13.890
38598W        W 2806   4.372   6.844   1.888
38599W        W 2807  13.705  32.429   0.439
38600W        W 2808  12.729  26.060  14.809
38601W        W 2809   4.355  24.137  12.371
38602W        W 2810  14.279   1.350   1.920
38603W        W 2811  25.629  10.752  14.016
38604W        W 2812  42.446  30.040  12.036
38605W        W 2813  30.143  43.294   2.363
38606W        W 2814  23.582  18.292   4.829
38607W        W 2815  19.660  25.634   0.355
38608W        W 2816  11.326  42.792  14.821
38609W        W 2817  25.011   4.803   2.227
38610W        W 2818  25.666   6.677  10.515
38611W        W 2819  40.983  32.967  10.487
38612W        W 2820   2.236   9.751  13.032
38613W        W 2821  11.337  16.284   2.367
38614W        W 2822   3.870  43.467   2.412
38615W        W 2823  12.849  16.584   3.802
38616W        W 2824  12.662  38.992  12.839
38617W        W 2825   7.383  15.128  14.002
38618W        W 2826  20.080   5.823  13.791
38619W        W 2827  12.829  31.535   1.252
38620W        W 2828  37.483  28.080   1.246
38621W        W 2829  12.253  22.531   0.244
38622W        W 2830   0.460  12.211  12.374
38623W        W 2831  22.572  34.064   4.311
38624W        W 2832   6.701   0.945  13.518
38625W        W 2833  22.199  16.657   0.470
38626W        W 2834   7.346  34.446   1.861
38627W        W 2835  39.544   7.907  10.502
38628W        W 2836  43.977   0.254   3.641
38629W        W 2837  23.537  18.273  13.960
38630W        W 2838  31.421  37.841  10.971
38631W        W 2839  20.682  25.105  12.904
38632W        W 2840   3.449  34.866   1.925
38633W        W 2841  31.511  39.515  10.577
38634W        W 2842  33.492  41.368   4.230
38635W        W 2843   2.860   3.333   4.253
38636W        W 2844  21.237  43.890   0.307
38637W        W 2845   3.724  44.289  11.577
38638W        W 2846  26.523  27.527   3.833
38639W        W 2847  43.493   5.876  12.462
38640W        W 2848  18.206  36.499  10.944
38641W        W 2849  21.704   7.400   2.392
38642W        W 2850  20.694  33.590   1.321
38643W        W 2851  12.640  21.041   1.277
38644W        W 2852   0.930   7.783   2.201
38645W        W 2853  32.421  27.691   0.347
38646W        W 2854  33.574  34.447   3.206
38647W        W 2855  44.980  44.385  10.425
38648W        W 2856   8.263  42.313  13.357
38649W        W 2857  35.360  10.241  12.991
38650W        W 2858  12.236  41.016  13.477
38651W        W 2859  29.921  25.152  13.887
38652W        W 2860   4.718  20.230  12.350
38653W        W 2861  44.973  25.694   2.892
38654W        W 2862  32.053  30.046   0.850
38655W        W 2863  40.533  23.584  10.435
38656W        W 2864  29.098  19.674   3.807
38657W        W 2865   9.350  15.092   3.731
38658W        W 2866   0.444  17.645  13.940
38659W        W 2867  39.825  24.018   2.224
38660W        W 2868  38.045   0.886   0.295
38661W        W 2869   4.918  16.271   2.234
38662W        W 2870  44.390   8.367  13.928
38663W        W 2871  25.556   7.226   1.735
38664W        W 2872  25.173  15.136  13.994
38665W        W 2873  36.092   6.712  13.957
38666W        W 2874  27.553  18.121   4.641
38667W        W 2875  41.399  38.419   2.780
38668W        W 2876  25.168  26.008  11.513
38669W        W 2877   9.759  31.063  13.824
38670W        W 2878  40.330  21.099  13.984
38671W        W 2879  36.532  39.451  12.920
38672W        W 2880  40.479  10.849  12.348
38673W        W 2881   2.288  38.463   4.133
38674W        W 2882   4.855  38.845   0.449
38675W        W 2883  19.105  13.814  10.489
38676W        W 2884  31.057  18.604  14.434
38677W        W 2885  28.100  37.010  11.589
38678W        W 2886  42.883  40.363  12.826
38679W        W 2887  42.901  21.061   3.183
38680W        W 2888  33.087  23.007  10.974
38681W        W 2889  34.369  30.508   4.150
38682W        W 2890   7.250   3.223  12.037
38683W        W 2891  38.045  11.849   3.342
38684W        W 2892  41.933  18.066   2.413
38685W        W 2893  31.639  16.238  12.464
38686W        W 2894  23.551   7.738   2.814
38687W        W 2895  16.763   2.831  12.973
38688W        W 2896  26.570  26.580  13.520
38689W        W 2897  42.976  39.372  14.371
38690W        W 2898  42.848   8.192   3.313
38691W        W 2899  11.657  37.565   2.664
38692W        W 2900   6.347  22.674  13.870
38693W        W 2901  42.802   8.686  10.474
38694W        W 2902  35.960  21.677   3.334
38695W        W 2903  17.773  33.882   1.249
38696W        W 2904  20.070  31.044  11.606
38697W        W 2905  36.511  22.094  11.096
38698W        W 2906   1.754  38.920  12.576
38699W        W 2907  10.791  36.959   4.223
38700W        W 2908  36.516  40.478   0.843
38701W        W 2909  21.193   7.677   2.200
38702W        W 2910  31.981  17.718  12.961
38703W        W 2911  40.370  15.119   4.155
38704W        W 2912  28.159   4.274  10.040
38705W        W 2913  39.919  25.983  12.060
38706W        W 2914  24.587  29.942  11.446
38707W        W 2915  29.454  31.899  11.877
38708W        W 2916   3.399   5.715  14.018
38709W        W 2917  11.131  19.204   1.809
38710W        W 2918  25.701  31.627  10.420
38711W        W 2919   4.919  20.627   0.445
38712W        W 2920   0.327  24.193   0.350
38713W        W 2921  21.226  15.099  13.836
38714W        W 2922  37.353  43.341   4.662
38715W        W 2923   2.384   0.296  10.103
38716W        W 2924  36.968  10.241   2.334
38717W        W 2925  27.548  14.192   2.669
38718W        W 2926  19.601  10.262  14.313
38719W        W 2927  16.646  29.970  13.462
38720W        W 2928  10.671  42.973  10.103
38721W        W 2929  30.533  12.345   0.331
38722W        W 2930  29.449  17.118  11.883
38723W        W 2931  31.099  29.969   2.302
38724W        W 2932  39.422  17.723  14.416
38725W        W 2933  29.983  20.205   2.789
38726W        W 2934  42.798   6.392   4.209
38727W        W 2935   9.804   7.412  13.434
38728W        W 2936  42.336  34.037   1.824
38729W        W 2937  43.324  34.901  11.399
38730W        W 2938  38.516  24.486  14.303
38731W        W 2939  37.345   3.725  10.487
38732W        W 2940  37.359  16.578   0.726
38733W        W 2941  15.223  10.341   1.881
38734W        W 2942  38.416  24.041  13.826
38735W        W 2943   5.357  13.320  14.368
38736W        W 2944   1.756  33.431  12.506
38737W        W 2945  32.588  24.991  12.476
38738W        W 2946  10.346  30.127  13.469
38739W        W 2947  37.576  31.580   1.704
38740W        W 2948  23.992   0.816   2.819
38741W        W 2949  22.203   5.341   2.878
38742W        W 2950  16.582  17.103   4.293
38743W        W 2951  13.608   2.273   0.403
38744W        W 2952   1.840  33.534   2.817
38745W        W 2953  27.168  19.549  12.000
38746W        W 2954  21.158  22.692   4.239
38747W        W 2955  20.028  35.527   3.809
38748W        W 2956  30.025  12.216  13.994
38749W        W 2957  33.473  11.344   1.357
38750W        W 2958  16.187   8.858   2.295
38751W        W 2959   9.177  36.996  13.540
38752W        W 2960  18.190   0.777   4.275
38753W        W 2961  32.901  26.627  12.376
38754W        W 2962  30.148   3.357   1.719
38755W        W 2963   2.319   5.277  12.463
38756W        W 2964  31.537  36.354   0.355
38757W        W 2965  34.527  14.633  10.406
38758W        W 2966  17.771   6.406  13.892
38759W        W 2967  23.719  35.451  11.873
38760W        W 2968  17.729  27.617   3.680
38761W        W 2969  23.069  42.976  10.895
38762W        W 2970  16.230  37.057  14.806
38763W        W 2971  37.545  24.683  10.542
38764W        W 2972  41.482  28.631  14.366
38765W        W 2973  42.431  29.512  12.441
38766W        W 2974  34.994   9.237   3.261
38767W        W 2975  37.945   4.757  10.951
38768W        W 2976  13.752   8.343   0.962
38769W        W 2977  43.846  12.774   3.247
38770W        W 2978   9.320   8.660   1.739
38771W        W 2979  35.363  10.738   3.815
38772W        W 2980  17.163  40.376   5.239
38773W        W 2981  32.982  12.763   3.226
38774W        W 2982  17.234  22.119  14.350
38775W        W 2983   0.800  12.173   3.303
38776W        W 2984  28.656   6.730  10.893
38777W        W 2985   6.914   7.851   3.782
38778W        W 2986  42.403   2.456   5.250
38779W        W 2987  27.601  15.670   0.963
38780W        W 2988   0.763  14.613  11.066
38781W        W 2989  27.988  38.357   2.311
38782W        W 2990  14.688  22.102  12.475
38783W        W 2991  15.165   2.823  11.052
38784W        W 2992   8.777  14.198   5.172
38785W        W 2993  25.105  41.936   1.261
38786W        W 2994   6.201  28.561   0.385
38787W        W 2995  41.380  36.963   2.677
38788W        W 2996  25.603   7.893   1.824
38789W        W 2997  34.007   6.881   4.283
38790W        W 2998  15.151  21.695   2.774
38791W        W 2999  43.827  15.688   0.933
38792W        W 3000  38.437  29.501   0.403
38793W        W 3001  14.740   7.245   2.276
38794W        W 3002  37.425  27.678  14.502
38795W        W 3003  13.247  32.593  12.572
38796W        W 3004  20.529   2.868  13.907
38797W        W 3005  42.849  14.300  10.902
38798W        W 3006  39.422  43.332  11.434
38799W        W 3007  44.486  27.998  13.497
38800W        W 3008  23.044   3.768  11.050
38801W        W 3009  39.883  15.741  12.400
38802W        W 3010  18.277  37.545  14.951
38803W        W 3011  36.371  23.656  12.863
38804W        W 3012  42.422   8.867  12.477
38805W        W 3013  22.038   3.899   0.387
38806W        W 3014  27.061  44.460   2.297
38807W        W 3015  36.845   7.836  11.468
38808W        W 3016  41.415  40.489  10.505
38809W        W 3017  42.979  16.304   4.756
38810W        W 3018  40.866  41.456   0.878
38811W        W 3019  33.567  31.079  11.023
38812W        W 3020  43.456   4.807   2.718
38813W        W 3021  22.746  16.233   4.669
38814W        W 3022   5.708  24.998  11.028
38815W        W 3023  41.942  37.915  14.784
38816W        W 3024  29.484   0.746   1.741
38817W        W 3025  17.066  30.155   0.803
38818W        W 3026   2.250  31.457   4.335
38819W        W 3027  25.646  21.019   2.900
38820W        W 3028  13.703   9.321   0.431
38821W        W 3029  39.900  15.740   1.416
38822W        W 3030  38.534   5.341  13.513
38823W        W 3031   7.896  30.515  10.128
38824W        W 3032  10.280  21.166   4.749
38825W        W 3033  18.615   6.250  13.882
38826W        W 3034   4.788  33.005  14.893
38827W        W 3035   8.884  23.043  13.884
38828W        W 3036  23.175  24.977  12.076
38829W        W 3037  20.216   1.465  13.823
38830W        W 3038  20.159   0.934   1.227
38831W        W 3039  25.585   6.789   3.772
38832W        W 3040  35.540  31.001   1.215
38833W        W 3041  16.285  19.133  10.445
38834W        W 3042  23.056  41.929   1.435
38835W        W 3043  19.558   8.279   1.393
38836W        W 3044  18.129  44.884   1.746
38837W        W 3045  12.196  11.641   3.218
38838W        W 3046   1.816  38.984  13.382
38839W        W 3047  31.079  20.271  13.925
38840W        W 3048   6.772   3.361  12.853
38841W        W 3049   2.442  25.190   1.250
38842W        W 3050  35.525  28.016  14.351
38843W        W 3051   0.487  27.123   3.654
38844W        W 3052   7.310  18.596   4.347
38845W        W 3053  24.677  24.981  11.512
38846W        W 3054  24.668  25.491   0.439
38847W        W 3055  30.474  29.667   3.157
38848W        W 3056  36.473  17.143   4.173
38849W        W 3057   9.767  14.249   1.828
38850W        W 3058  40.401  16.656  13.920
38851W        W 3059  39.462  24.146   0.736
38852W        W 3060  42.288  35.036   3.332
38853W        W 3061  15.107  38.872  11.915
38854W        W 3062  18.570  26.040   3.775
38855W        W 3063  42.310  23.233   1.915
38856W        W 3064  13.759  43.481   2.331
38857W        W 3065   0.901  24.687  13.811
38858W        W 3066  10.195  16.174   3.315
38859W        W 3067  38.053   1.383   4.668
38860W        W 3068   0.353  18.582  12.531
38861W        W 3069  18.766   7.794   1.237
38862W        W 3070  42.856  21.182  13.853
38863W        W 3071  38.048  28.451   1.815
38864W        W 3072  16.239  14.681  13.815
38865W        W 3073  35.579  19.640  13.928
38866W        W 3074  10.253  31.422  14.782
38867W        W 3075  24.579  40.527   1.877
38868W        W 3076  19.696  38.349   0.265
38869W        W 3077   1.970  35.418   2.357
38870W        W 3078  43.847  43.819  10.530
38871W        W 3079   0.485   9.768  11.944
38872W        W 3080  17.246  21.615  14.429
38873W        W 3081   0.857  41.371   3.286
38874W        W 3082  18.104  22.045  13.487
38875W        W 3083  27.165  14.757  11.442
38876W        W 3084  19.167   9.866   1.788
38877W        W 3085  18.694  29.138   1.782
38878W        W 3086  13.640   7.402   1.450
38879W        W 3087  12.151  20.050  12.085
38880W        W 3088   6.885  37.078  14.947
38881W        W 3089  15.738  14.705   5.227
38882W        W 3090  30.910  17.213  10.113
38883W        W 3091   1.309  38.566   0.258
38884W        W 3092  23.555   5.362  14.877
38885W        W 3093  17.629  33.915  13.519
38886W        W 3094  43.516  18.135  14.314
38887W        W 3095  36.033  25.544  12.405
38888W        W 3096  23.067   8.874  11.000
38889W        W 3097   4.738   8.818   1.921
38890W        W 3098  19.768  20.556   2.293
38891W        W 3099  11.184  34.593  14.292
38892W        W 3100  13.780  29.557  11.527
38893W        W 3101  12.232   4.889   4.624
38894W        W 3102  38.508   2.280   9.468
38895W        W 3103  20.101  33.007  11.034
38896W        W 3104  15.096  36.900  13.399
38897W        W 3105  10.650  19.742  12.501
38898W        W 3106  25.709  22.103   0.252
38899W        W 3107  26.565  11.632  13.024
38900W        W 3108  40.019  14.641   4.680
38901W        W 3109  39.465   4.761   3.705
38902W        W 3110  28.531  15.728  10.514
38903W        W 3111  32.608  44.006   2.395
38904W        W 3112  19.614  10.853   0.904
38905W        W 3113  28.442  21.524   4.702
38906W        W 3114  43.008  33.893   1.386
38907W        W 3115   6.428  13.611  14.392
38908W        W 3116  23.571  41.815  11.499
38909W        W 3117  36.540   3.714  13.960
38910W        W 3118  13.286  20.641  14.998
38911W        W 3119  41.357  15.642   0.810
38912W        W 3120  28.005   9.772   0.353
38913W        W 3121   8.358  27.134   0.769
38914W        W 3122  31.599  16.184  11.468
38915W        W 3123   7.776  11.373   4.246
38916W        W 3124  24.120  35.421  10.629
38917W        W 3125  41.488  12.843   4.830
38918W        W 3126   1.901   3.401   0.395
38919W        W 3127  21.629  39.439  10.610
38920W        W 3128   5.254  14.154   1.436
38921W        W 3129  22.538  13.286   3.212
38922W        W 3130   3.294  40.815   1.820
38923W        W 3131  25.612   8.809  14.335
38924W        W 3132   4.280  28.979  14.357
38925W        W 3133  35.440  39.023  14.434
38926W        W 3134  44.428  10.247   1.395
38927W        W 3135  20.764  16.087   5.640
38928W        W 3136  44.985  44.261   2.680
38929W        W 3137   5.768  11.743   1.389
38930W        W 3138   5.357  39.021  10.077
38931W        W 3139  33.083  28.968  14.912
38932W        W 3140  16.116   7.674   0.398
38933W        W 3141  14.184  16.117  11.441
38934W        W 3142  19.748   3.768   2.709
38935W        W 3143   2.445  25.983  10.915
38936W        W 3144  19.245  29.163   0.460
38937W        W 3145  21.261  30.908  11.483
38938W        W 3146  30.530  15.735   4.113
38939W        W 3147  20.187  14.594   4.187
38940W        W 3148   8.853  38.860  13.015
38941W        W 3149  16.253  36.347  11.930
38942W        W 3150   9.819  32.012   4.799
38943W        W 3151  22.069  44.900  10.572
38944W        W 3152  30.557  10.313   1.884
38945W        W 3153  40.852  10.362   3.690
38946W        W 3154   3.793  41.319   2.285
38947W        W 3155  30.124  11.311  10.894
38948W        W 3156  31.439  40.910  13.320
38949W        W 3157  41.914  34.429   3.761
38950W        W 3158  21.537  44.766   1.367
38951W        W 3159  40.967  12.713   4.127
38952W        W 3160  16.180  35.896  11.969
38953W        W 3161  34.609   6.736   3.647
38954W        W 3162   9.364  42.363  12.403
38955W        W 3163  42.947   7.202   4.162
38956W        W 3164  23.984  17.745  10.428
38957W        W 3165  38.466  20.244  10.060
38958W        W 3166   8.877   0.333   3.744
38959W        W 3167  35.028  31.043   3.676
38960W        W 3168  42.401  20.233   5.573
38961W        W 3169  39.429  31.932  12.950
38962W        W 3170  17.754  20.574   3.840
38963W        W 3171  43.835   1.335  14.368
38964W        W 3172  16.169  20.214  12.893
38965W        W 3173   1.811   1.840  13.817
38966W        W 3174  42.323  23.527  10.445
38967W        W 3175  28.185  18.551  11.455
38968W        W 3176  15.144  10.757   2.216
38969W        W 3177   2.802  36.953  11.867
38970W        W 3178  27.595  11.814   0.922
38971W        W 3179  28.158   5.364   1.433
38972W        W 3180  12.336  19.218   4.145
38973W        W 3181  27.133  11.645  11.039
38974W        W 3182  11.719  35.513  13.829
38975W        W 3183  23.155   8.374  10.571
38976W        W 3184  26.484  32.119  13.933
38977W        W 3185  19.602  19.583   4.654
38978W        W 3186   2.367  31.482  13.354
38979W        W 3187  44.284   4.289  12.883
38980W        W 3188  27.988  28.600   3.197
38981W        W 3189   0.397  16.756   0.396
38982W        W 3190  27.641  10.723  11.006
38983W        W 3191  31.525  39.933  12.019
38984W        W 3192  44.348  12.781   4.208
38985W        W 3193  15.756  15.283  13.835
38986W        W 3194   9.324  18.230  13.040
38987W        W 3195  25.171  41.349   4.764
38988W        W 3196  38.922   2.901  11.483
38989W        W 3197  13.630   6.364  14.840
38990W        W 3198  10.267   7.404   2.319
38991W        W 3199  25.141  20.243  11.564
38992W        W 3200  40.469  20.147   4.737
38993W        W 3201  25.620  20.705   4.694
38994W        W 3202  14.664  27.134  11.103
38995W        W 3203  36.938  39.335   4.805
38996W        W 3204  21.088  32.970   0.385
38997W        W 3205   9.231   0.325   0.344
38998W        W 3206  34.543  44.413   3.846
38999W        W 3207  19.697  28.669   3.818
39000W        W 3208  25.055  26.054   0.892
39001W        W 3209  32.631   6.815  14.989
39002W        W 3210   8.289  17.715  13.389
39003W        W 3211  41.852  42.882   0.376
39004W        W 3212  35.940  44.385  10.621
39005W        W 3213  32.021  43.294  12.083
39006W        W 3214  24.125  38.968   0.464
39007W        W 3215  33.622  16.124   0.370
39008W        W 3216   1.782  19.705  13.829
39009W        W 3217  28.507   2.350  10.408
39010W        W 3218   6.296  31.030   1.705
39011W        W 3219  39.886  20.704   2.373
39012W        W 3220  19.269  10.145  12.084
39013W        W 3221   3.256  21.167   4.141
39014W        W 3222  19.224  18.588  13.869
39015W        W 3223  30.024  15.133  13.841
39016W        W 3224  14.691  40.490   3.266
39017W        W 3225  38.505  10.343  10.430
39018W        W 3226  32.932   7.244  13.839
39019W        W 3227  30.071   5.881  11.431
39020W        W 3228  29.485  40.376  10.892
39021W        W 3229  36.846  11.700   1.401
39022W        W 3230  16.593  44.361  13.994
39023W        W 3231   7.382  38.525  12.927
39024W        W 3232   2.352   3.774  12.445
39025W        W 3233  17.774  42.443   4.651
39026W        W 3234  19.565  16.799   2.822
39027W        W 3235  22.553  29.456  12.924
39028W        W 3236  24.030   1.779  12.009
39029W        W 3237  23.135  29.630   4.685
39030W        W 3238  42.337   3.320   2.837
39031W        W 3239   0.976  32.893   4.650
39032W        W 3240  33.517  20.086  13.851
39033W        W 3241   0.421  41.989   2.811
39034W        W 3242  27.465  35.484  12.375
39035W        W 3243  29.667  40.968  13.910
39036W        W 3244  25.008  42.793   3.746
39037W        W 3245  18.765  14.337   1.314
39038W        W 3246   3.276  18.552   3.740
39039W        W 3247  28.052  21.755  14.926
39040W        W 3248  11.771   1.921   4.754
39041W        W 3249  38.029  16.113  14.453
39042W        W 3250  42.305  42.498   4.721
39043W        W 3251  23.613   5.908  11.074
39044W        W 3252   6.717  27.159   2.815
39045W        W 3253  25.583  36.070   2.408
39046W        W 3254  18.628   2.261  12.468
39047W        W 3255  34.000  23.729   2.803
39048W        W 3256  19.058  42.334   1.291
39049W        W 3257  18.116  34.114   3.243
39050W        W 3258   7.910  40.936   3.800
39051W        W 3259   3.222   1.867  14.898
39052W        W 3260  29.081   4.351  11.397
39053W        W 3261  42.398   7.692  12.432
39054W        W 3262  27.944  11.273   4.619
39055W        W 3263  19.074   0.444  12.438
39056W        W 3264  17.678  28.012   3.238
39057W        W 3265  14.621   2.294   1.722
39058W        W 3266  41.423   2.379  10.066
39059W        W 3267  40.353  25.628   2.678
39060W        W 3268  32.022  23.140   2.775
39061W        W 3269  10.234  40.049  14.513
39062W        W 3270  35.056  42.880   3.680
39063W        W 3271   6.695   0.868  14.889
39064W        W 3272  43.361  28.589   4.310
39065W        W 3273  10.848  31.449   2.807
39066W        W 3274  32.564   0.933   3.235
39067W        W 3275  33.877  30.511  14.001
39068W        W 3276  30.104  32.459   3.157
39069W        W 3277  14.292   7.239   2.397
39070W        W 3278  25.968  22.228   3.862
39071W        W 3279  42.950  10.751   4.692
39072W        W 3280  27.140   2.335   4.188
39073W        W 3281   4.706  16.756   2.400
39074W        W 3282  14.183  17.566  14.472
39075W        W 3283  40.315  18.715  10.034
39076W        W 3284  37.427  38.397  13.476
39077W        W 3285   0.297  10.336  14.032
39078W        W 3286  17.617  10.663   4.283
39079W        W 3287   0.364  40.877  15.000
39080W        W 3288  31.410   4.708   1.404
39081W        W 3289   6.884  28.598  12.450
39082W        W 3290  21.583   0.318   4.224
39083W        W 3291  22.581  44.811  11.968
39084W        W 3292  36.061  11.643  13.356
39085W        W 3293   8.193  41.360   0.755
39086W        W 3294  22.207  32.633  13.342
39087W        W 3295  33.489   5.755  11.468
39088W        W 3296  28.019  32.478   3.162
39089W        W 3297  10.787  37.431  13.044
39090W        W 3298  25.545  32.086   1.910
39091W        W 3299   3.460  43.516   2.733
39092W        W 3300   4.386  32.105   3.683
39093W        W 3301  10.862  11.700  13.038
39094W        W 3302  28.545  39.440  14.990
39095W        W 3303  27.072  24.090  14.799
39096W        W 3304   3.330  21.099  14.849
39097W        W 3305  27.052  39.437  14.494
39098W        W 3306   1.384  36.917   9.613
39099W        W 3307  44.437  35.089   3.759
39100W        W 3308  24.590  20.079   2.223
39101W        W 3309  21.638  25.485  12.036
39102W        W 3310  14.319  38.028   2.373
39103W        W 3311  42.400  22.095  12.578
39104W        W 3312  14.292  20.627   2.682
39105W        W 3313   8.868   9.202  10.548
39106W        W 3314  36.891  22.715  10.516
39107W        W 3315  19.780  40.515  10.034
39108W        W 3316  15.299  26.693  13.383
39109W        W 3317  43.421  21.605  13.537
39110W        W 3318  28.594  23.233   0.911
39111W        W 3319  38.388  37.047  10.970
39112W        W 3320  11.717  11.695   4.300
39113W        W 3321  44.969  27.066  11.105
39114W        W 3322  11.800  37.003  14.307
39115W        W 3323  39.315  42.488   0.299
39116W        W 3324  13.343  28.149   1.319
39117W        W 3325  24.155  41.378  11.093
39118W        W 3326   7.802   7.186  14.427
39119W        W 3327   5.304  39.028  14.022
39120W        W 3328   9.735  42.906   3.729
39121W        W 3329  25.994  44.842  14.314
39122W        W 3330  29.477  35.071   0.311
39123W        W 3331   5.335   4.340   2.344
39124W        W 3332  25.573  21.216  10.447
39125W        W 3333  27.581  25.609  13.412
39126W        W 3334  25.981  34.932   3.223
39127W        W 3335  37.858   2.376  13.980
39128W        W 3336  13.196  22.575  14.286
39129W        W 3337  32.617   9.384  12.060
39130W        W 3338   3.273   3.243  11.910
39131W        W 3339  13.728  27.021  11.939
39132W        W 3340  13.294  41.345   2.716
39133W        W 3341  12.700  21.533  14.492
39134W        W 3342  43.885   2.268   3.352
39135W        W 3343  13.817  40.881   3.234
39136W        W 3344  24.109  43.822   0.937
39137W        W 3345  16.646  23.699   1.745
39138W        W 3346  16.637   5.858  10.993
39139W        W 3347  19.196   4.323  11.467
39140W        W 3348  44.503  38.324  10.127
39141W        W 3349  35.493  35.856  11.914
39142W        W 3350  38.046  42.907   1.211
39143W        W 3351  31.121  13.627   4.604
39144W        W 3352  14.774  36.507   0.316
39145W        W 3353  29.447  39.353   1.860
39146W        W 3354  13.269  12.665   1.414
39147W        W 3355  37.343  20.083  13.495
39148W        W 3356  28.118  14.326   2.728
39149W        W 3357   6.830   7.832  13.933
39150W        W 3358   2.737  20.215   4.758
39151W        W 3359   3.771  14.641   4.183
39152W        W 3360   0.900  17.189   1.402
39153W        W 3361  37.567   3.300  10.158
39154W        W 3362  28.633  27.099   4.347
39155W        W 3363  34.006  28.143  12.398
39156W        W 3364  32.460  27.110  13.504
39157W        W 3365  20.761  13.122   4.657
39158W        W 3366  23.167  41.823  13.889
39159W        W 3367   1.796  27.094   3.701
39160W        W 3368  22.157  18.271   1.882
39161W        W 3369  34.567  28.130  11.931
39162W        W 3370  17.261  29.938   2.297
39163W        W 3371   4.285  41.940  12.930
39164W        W 3372   9.152  16.625   2.179
39165W        W 3373  30.439  20.662   3.758
39166W        W 3374   6.814   9.356   4.214
39167W        W 3375  42.406  44.376   4.776
39168W        W 3376  35.416  33.015   4.652
39169W        W 3377  31.424  11.339  12.083
39170W        W 3378  23.560  36.965   3.311
39171W        W 3379  12.712  44.366  13.993
39172W        W 3380   7.360  18.546  13.986
39173W        W 3381  20.686  37.401   3.693
39174W        W 3382  18.143  32.894   1.808
39175W        W 3383  21.236  13.845  13.453
39176W        W 3384  34.038  10.310  14.296
39177W        W 3385   3.776  28.184   0.769
39178W        W 3386   3.715  11.351  12.008
39179W        W 3387   8.818   2.373   2.815
39180W        W 3388  21.569   1.429  10.996
39181W        W 3389   2.435  25.030   4.157
39182W        W 3390  33.622  24.624   1.882
39183W        W 3391  30.477  25.583  13.463
39184W        W 3392  36.853  41.487  10.471
39185W        W 3393   2.739  15.800   2.265
39186W        W 3394  18.132  32.414   3.633
39187W        W 3395  11.343  40.433   3.716
39188W        W 3396  32.523  12.215   4.622
39189W        W 3397  16.119  30.945   3.759
39190W        W 3398  14.591  42.466  10.431
39191W        W 3399  12.344   6.846  12.019
39192W        W 3400   4.428  31.899   5.302
39193W        W 3401   9.833  31.936  14.938
39194W        W 3402  27.007  30.974  13.467
39195W        W 3403  28.117  44.292  13.414
39196W        W 3404  25.055  32.117   1.346
39197W        W 3405  16.257  41.329   1.862
39198W        W 3406  27.135  17.088   2.388
39199W        W 3407  42.876  35.461   0.451
39200W        W 3408   2.769  27.974   4.665
39201W        W 3409  20.266  33.607  10.934
39202W        W 3410  40.545  11.703  10.623
39203W        W 3411  24.992  12.803  12.527
39204W        W 3412   2.361  30.126   4.246
39205W        W 3413  42.990  18.665   3.361
39206W        W 3414  44.786  18.107   3.189
39207W        W 3415  26.700  20.071  13.364
39208W        W 3416  44.473  15.660  14.977
39209W        W 3417  29.935   9.385   2.763
39210W        W 3418   7.236  31.560   4.243
39211W        W 3419   0.791  14.616  14.926
39212W        W 3420   0.889   2.418  13.486
39213W        W 3421  37.928  40.442  12.965
39214W        W 3422  19.646  11.734  11.571
39215W        W 3423  17.156  43.018   4.164
39216W        W 3424  31.917   5.813  13.006
39217W        W 3425  34.115  19.662  11.118
39218W        W 3426  21.163  43.382  12.942
39219W        W 3427  28.480  28.946   2.268
39220W        W 3428  15.203  28.060   2.738
39221W        W 3429  36.464  29.974  12.006
39222W        W 3430  14.197   8.324   1.405
39223W        W 3431  30.496  25.590   0.952
39224W        W 3432  37.967  23.127   2.755
39225W        W 3433  22.734  41.881  14.023
39226W        W 3434  13.186  19.227   3.199
39227W        W 3435  43.291  18.657  14.766
39228W        W 3436  37.003  32.923   3.849
39229W        W 3437  36.035  41.854  12.384
39230W        W 3438  43.877  20.559  14.493
39231W        W 3439  42.361  31.433   0.740
39232W        W 3440   6.393  18.238   4.206
39233W        W 3441   3.353  37.465   0.940
39234W        W 3442  33.514   9.198   4.139
39235W        W 3443   4.882   9.733   3.240
39236W        W 3444  43.473  39.812   4.634
39237W        W 3445  42.783   9.699  12.520
39238W        W 3446  31.487  10.807  12.429
39239W        W 3447   2.239  16.660   1.746
39240W        W 3448  20.584  42.445  11.506
39241W        W 3449   8.737   5.723   3.856
39242W        W 3450  30.110  11.349   4.783
39243W        W 3451  39.407  15.258   0.875
39244W        W 3452   7.398  11.325  14.968
39245W        W 3453   2.342  38.016  14.334
39246W        W 3454  31.578   0.946   2.728
39247W        W 3455  44.297  44.293   4.749
39248W        W 3456  22.058  19.551  11.125
39249W        W 3457   1.481  44.384  10.524
39250W        W 3458   5.822  18.248  11.506
39251W        W 3459  43.773  40.015   2.218
39252W        W 3460  35.947  12.770   0.426
39253W        W 3461   3.953  20.543  14.281
39254W        W 3462  40.408   7.732  12.851
39255W        W 3463  36.022   1.974   1.800
39256W        W 3464  29.534  43.812   4.202
39257W        W 3465  36.922  10.322   4.332
39258W        W 3466  27.651  18.266   0.428
39259W        W 3467  22.020  30.002  10.438
39260W        W 3468  14.251  34.038  13.546
39261W        W 3469  38.506  43.392  10.511
39262W        W 3470   3.956   4.361  10.416
39263W        W 3471   4.849  34.567   9.935
39264W        W 3472  18.707  33.447  12.876
39265W        W 3473  19.171  33.931   4.220
39266W        W 3474  19.147  12.255   4.830
39267W        W 3475  36.569   8.834  13.055
39268W        W 3476  25.484  40.879  10.457
39269W        W 3477   6.792   3.772  12.030
39270W        W 3478   1.391  18.563   3.231
39271W        W 3479  16.796   5.779   3.794
39272W        W 3480  11.638  18.183  10.115
39273W        W 3481   0.778  34.504   4.245
39274W        W 3482  28.507  11.632  11.950
39275W        W 3483  39.929  37.944   4.677
39276W        W 3484  17.069  21.140  10.477
39277W        W 3485  43.417   6.886  13.310
39278W        W 3486   1.817  29.147   4.718
39279W        W 3487  11.626  43.945   4.774
39280W        W 3488  29.457  31.515  13.464
39281W        W 3489  30.977  36.971  13.936
39282W        W 3490   3.366  44.442   1.383
39283W        W 3491  44.444   3.262   1.406
39284W        W 3492   4.783  32.049   0.760
39285W        W 3493  19.545  39.541   1.268
39286W        W 3494  41.318   7.691  13.031
39287W        W 3495  33.991   0.357  10.891
39288W        W 3496   3.944   1.975  12.483
39289W        W 3497  40.833  29.530   2.871
39290W        W 3498  22.096  32.927  13.062
39291W        W 3499  23.145  33.481  10.483
39292W        W 3500  39.338  13.682  11.512
39293W        W 3501  36.525  28.056   1.844
39294W        W 3502  36.377  32.595  10.488
39295W        W 3503   0.356   9.879   1.371
39296W        W 3504  21.665  35.018  10.449
39297W        W 3505   3.299  31.902   2.272
39298W        W 3506  27.056  42.900   3.843
39299W        W 3507  20.241  43.014  14.486
39300W        W 3508  18.218   0.743   3.255
39301W        W 3509  22.656   5.700  14.405
39302W        W 3510  20.705  30.126   3.861
39303W        W 3511   4.872  23.543  11.998
39304W        W 3512  34.382   9.263  11.896
39305W        W 3513  25.153  23.182   0.247
39306W        W 3514   4.808  41.968  11.593
39307W        W 3515  26.570  17.645   0.904
39308W        W 3516  43.868  30.656   2.820
39309W        W 3517  36.526  26.988   2.691
39310W        W 3518  26.482  15.103   4.730
39311W        W 3519   8.163  29.645   0.367
39312W        W 3520  33.924   7.899  13.499
39313W        W 3521  33.891  16.779  10.905
39314W        W 3522  43.012  37.023   0.354
39315W        W 3523  34.118  27.687  12.374
39316W        W 3524  24.499  41.454   2.189
39317W        W 3525  44.272   2.391  11.038
39318W        W 3526   0.419  26.967   2.677
39319W        W 3527   8.399  11.164   3.195
39320W        W 3528  16.783  29.153  13.918
39321W        W 3529  18.195   7.719  12.571
39322W        W 3530  19.207  21.716   4.733
39323W        W 3531  34.383   4.746  12.048
39324W        W 3532   2.919  20.261   2.401
39325W        W 3533  12.657  25.122   1.695
39326W        W 3534   4.207  23.661  11.593
39327W        W 3535  27.154   7.399  14.763
39328W        W 3536  29.656   3.864   1.716
39329W        W 3537  27.145  39.875   3.306
39330W        W 3538  29.034  28.638  14.434
39331W        W 3539  31.096  42.974  14.008
39332W        W 3540  23.201   8.681  10.466
39333W        W 3541   9.702   1.293   2.374
39334W        W 3542  35.421  24.063   1.404
39335W        W 3543  42.391  12.281   0.300
39336W        W 3544  41.299  10.147  10.495
39337W        W 3545  30.148   8.193   4.668
39338W        W 3546  15.684   3.274   5.150
39339W        W 3547  33.115  41.531   1.393
39340W        W 3548  39.059  11.728  14.330
39341W        W 3549  11.712  42.903  11.905
39342W        W 3550  29.096  16.621   2.856
39343W        W 3551   7.697   3.309   1.348
39344W        W 3552  38.946  43.270   2.874
39345W        W 3553  42.990  38.569  10.581
39346W        W 3554  12.210  27.042   1.389
39347W        W 3555  37.972   4.214  10.971
39348W        W 3556  35.925  10.276   9.940
39349W        W 3557  11.278  36.986   3.217
39350W        W 3558  40.054  17.229  10.474
39351W        W 3559  28.443  21.515  13.936
39352W        W 3560  27.020   8.741  13.940
39353W        W 3561  10.287  12.845   4.300
39354W        W 3562  28.552  30.492   1.729
39355W        W 3563  43.777  16.189   0.819
39356W        W 3564  26.462  23.689  10.510
39357W        W 3565  16.590  44.829  12.506
39358W        W 3566  37.459  19.701  10.903
39359W        W 3567  29.046   7.813   4.227
39360W        W 3568  25.198  37.406  10.469
39361W        W 3569  36.045   9.678   1.380
39362W        W 3570  40.035  40.323   2.198
39363W        W 3571  41.532  23.197   1.434
39364W        W 3572   2.892  31.925   4.778
39365W        W 3573  15.291  18.232   0.371
39366W        W 3574  28.176   9.857  10.611
39367W        W 3575   8.890  43.438  12.419
39368W        W 3576   1.286   3.321  13.923
39369W        W 3577  18.615  26.470   9.970
39370W        W 3578  14.153  33.949  11.409
39371W        W 3579  40.831  13.763  11.460
39372W        W 3580  23.656  34.483  14.959
39373W        W 3581  10.872  35.485  11.018
39374W        W 3582  34.523   2.287  13.828
39375W        W 3583  35.010  42.934   1.905
39376W        W 3584  33.537  41.004   4.633
39377W        W 3585  30.450   7.232   1.296
39378W        W 3586   7.877  22.127  14.844
39379W        W 3587  36.399  26.114   4.164
39380W        W 3588  32.539  32.027   2.211
39381W        W 3589  42.839  38.429   4.763
39382W        W 3590  31.127  27.629  11.572
39383W        W 3591  20.072   6.892   2.902
39384W        W 3592  35.078  40.306  10.095
39385W        W 3593  22.218  36.985   4.697
39386W        W 3594   5.920  16.753   1.787
39387W        W 3595  37.833  16.609   4.773
39388W        W 3596   9.208  13.667  11.474
39389W        W 3597  20.152  24.193   0.948
39390W        W 3598   1.426  33.461  10.042
39391W        W 3599  42.922  34.573  11.991
39392W        W 3600  19.760   1.762  14.940
39393W        W 3601  22.167  22.575   4.343
39394W        W 3602  38.009  37.949  10.511
39395W        W 3603  15.104  30.053  11.610
39396W        W 3604   6.742  19.047   4.780
39397W        W 3605  41.040  22.527  12.380
39398W        W 3606   4.722  44.009  14.288
39399W        W 3607  42.505  13.724  14.514
39400W        W 3608  40.971  30.618   1.726
39401W        W 3609   3.942  30.979   2.850
39402W        W 3610  21.092  44.329   2.854
39403W        W 3611  10.652   7.322   1.862
39404W        W 3612  14.312  40.497   5.189
39405W        W 3613  34.934  29.428  13.937
39406W        W 3614  32.993   4.322   3.180
39407W        W 3615  43.967   4.400   1.929
39408W        W 3616   0.915  22.125  11.053
39409W        W 3617   5.731   2.839   3.812
39410W        W 3618  19.268  12.675  11.527
39411W        W 3619  36.382  44.289  11.993
39412W        W 3620  24.015   5.422   4.802
39413W        W 3621   1.429   4.743   2.393
39414W        W 3622  39.523  27.058  13.494
39415W        W 3623   0.844  43.822   2.857
39416W        W 3624  24.665   7.861  13.316
39417W        W 3625  37.010  25.001   4.195
39418W        W 3626  35.572   5.260   2.714
39419W        W 3627  12.838   2.838  13.459
39420W        W 3628  41.868  12.827   4.684
39421W        W 3629  15.157  43.891  13.428
39422W        W 3630   3.809  25.199  13.792
39423W        W 3631  14.720  40.031  11.071
39424W        W 3632  36.433   8.205   1.878
39425W        W 3633  32.407  30.117   2.783
39426W        W 3634  15.161  37.509  14.435
39427W        W 3635  33.626  31.594   9.922
39428W        W 3636   6.420  12.759   4.273
39429W        W 3637  40.418  15.686   1.358
39430W        W 3638  23.178  38.897   0.479
39431W        W 3639  21.019   6.855   0.314
39432W        W 3640  41.433  19.771   2.830
39433W        W 3641  21.596  13.701  11.564
39434W        W 3642  34.915  38.569   1.408
39435W        W 3643   5.748  34.058  12.555
39436W        W 3644   8.372  13.145   1.835
39437W        W 3645  28.636   4.333  12.951
39438W        W 3646  20.667   2.439  13.007
39439W        W 3647  41.964  10.217   4.184
39440W        W 3648   3.793  17.585   3.169
39441W        W 3649  36.580  14.303   2.359
39442W        W 3650   4.875  37.977   4.163
39443W        W 3651  17.616   7.265   1.855
39444W        W 3652  34.944  24.534  13.004
39445W        W 3653  31.094   4.370  11.950
39446W        W 3654  28.452  20.164   0.731
39447W        W 3655  15.119  38.510   0.279
39448W        W 3656  13.136  44.991   0.817
39449W        W 3657  28.009  19.188  12.960
39450W        W 3658  10.854   7.394   2.255
39451W        W 3659  34.425  20.588  10.412
39452W        W 3660   1.456  32.482   4.761
39453W        W 3661  20.269   3.244   0.362
39454W        W 3662  23.627  17.271  11.418
39455W        W 3663  16.569  15.256   1.784
39456W        W 3664  36.427  22.561  10.971
39457W        W 3665  14.662  28.558   1.803
39458W        W 3666  23.522  14.168   4.315
39459W        W 3667   0.395  28.132   3.760
39460W        W 3668  33.442  38.466   0.409
39461W        W 3669  13.190  14.828   0.294
39462W        W 3670  26.642  39.962  11.088
39463W        W 3671  21.714  18.141  13.456
39464W        W 3672  40.853  39.439   2.878
39465W        W 3673  24.100  28.167  10.039
39466W        W 3674  40.028  38.929   4.679
39467W        W 3675  25.659  33.982  13.039
39468W        W 3676   5.801   6.339   4.216
39469W        W 3677  34.465  43.889   2.342
39470W        W 3678  13.162  38.430  14.972
39471W        W 3679   7.226  21.185  14.778
39472W        W 3680  25.056  14.276  14.951
39473W        W 3681  19.722  44.984   2.358
39474W        W 3682  22.204  29.030  11.471
39475W        W 3683  38.852   0.837   9.953
39476W        W 3684  43.844   2.393   2.712
39477W        W 3685  27.990  43.468  14.406
39478W        W 3686  39.819  26.550  13.506
39479W        W 3687  39.019  44.441   4.694
39480W        W 3688  22.683  38.391   4.680
39481W        W 3689  17.773  11.270   1.422
39482W        W 3690  37.061  29.538  10.488
39483W        W 3691  43.357   7.748  11.096
39484W        W 3692  41.330  23.213  11.085
39485W        W 3693  19.064  41.000   4.795
39486W        W 3694   2.384   2.456   2.353
39487W        W 3695  30.960  36.375  14.962
39488W        W 3696  37.959  31.987   3.170
39489W        W 3697  20.215  38.374  10.087
39490W        W 3698   7.672  41.385  13.806
39491W        W 3699  29.092   2.293  13.003
39492W        W 3700  23.024  22.522   3.146
39493W        W 3701  36.963  28.552  13.798
39494W        W 3702  16.146  44.838  10.965
39495W        W 3703  34.592  24.487   2.775
39496W        W 3704  32.946  12.850   1.295
39497W        W 3705   8.397  34.461   2.773
39498W        W 3706  21.177  24.176   1.695
39499W        W 3707  33.524  23.531   4.153
39500W        W 3708   3.430  39.813  11.611
39501W        W 3709  42.435  41.359  12.854
39502W        W 3710  25.133  39.818   2.838
39503W        W 3711  11.861   5.347  11.506
39504W        W 3712  17.625  17.574  11.046
39505W        W 3713  43.407   6.916   4.836
39506W        W 3714  39.539  33.511   3.835
39507W        W 3715  21.542  39.965  13.432
39508W        W 3716  37.452  39.822   3.363
39509W        W 3717  21.239  26.626  12.473
39510W        W 3718   0.893  17.573  12.965
39511W        W 3719  31.646  22.191  12.890
39512W        W 3720   9.864  23.073  11.107
39513W        W 3721   2.432  35.481   1.882
39514W        W 3722   5.312   4.427   3.167
39515W        W 3723   1.320   4.823   1.350
39516W        W 3724  30.467  19.686  14.829
39517W        W 3725  24.709  29.560  12.015
39518W        W 3726  10.735  12.187  12.956
39519W        W 3727  16.588  20.182   4.724
39520W        W 3728  25.162  39.345   1.429
39521W        W 3729  10.763  13.746  12.047
39522W        W 3730   3.458   8.682  10.073
39523W        W 3731  39.550  38.931  10.627
39524W        W 3732  39.393  19.262   2.717
39525W        W 3733  43.916  26.030   1.276
39526W        W 3734   3.850  26.000  14.759
39527W        W 3735  21.250  42.468  10.525
39528W        W 3736  25.652  14.759  14.308
39529W        W 3737  28.529   8.825  13.885
39530W        W 3738  29.080   1.875   4.729
39531W        W 3739  10.789  37.941  11.060
39532W        W 3740   2.908   3.950   5.165
39533W        W 3741  11.803   8.172  13.804
39534W        W 3742   0.787  17.161  11.963
39535W        W 3743   4.726  15.093  10.428
39536W        W 3744  32.119  22.532  10.970
39537W        W 3745   7.225   9.384   3.207
39538W        W 3746  24.005  34.869   3.848
39539W        W 3747  25.540  18.284   2.863
39540W        W 3748  32.396   3.734   3.739
39541W        W 3749  39.438  38.904  12.464
39542W        W 3750   3.215   3.253   3.155
39543W        W 3751  13.136  28.065   4.707
39544W        W 3752   9.280  36.376   1.743
39545W        W 3753  43.356  38.499   0.306
39546W        W 3754  44.965   3.417   1.833
39547W        W 3755  43.851  40.980  12.089
39548W        W 3756  39.020   9.221  12.825
39549W        W 3757  29.498   5.704   3.637
39550W        W 3758  41.907  16.204   1.314
39551W        W 3759  10.290   2.896  12.462
39552W        W 3760  27.675  39.858   3.671
39553W        W 3761   5.698  15.669   2.394
39554W        W 3762   9.713   3.350   0.909
39555W        W 3763  32.885  35.884   3.251
39556W        W 3764  43.982  24.989  14.284
39557W        W 3765  39.881  20.678  11.977
39558W        W 3766  28.141   8.200  11.871
39559W        W 3767   3.437   9.248   2.334
39560W        W 3768  40.897   1.781   0.412
39561W        W 3769  35.372  22.173  14.370
39562W        W 3770  34.944  14.723   3.805
39563W        W 3771  19.561  18.750   4.239
39564W        W 3772  19.044   6.251   0.299
39565W        W 3773  36.549   9.712  11.996
39566W        W 3774  25.649  13.268   3.232
39567W        W 3775  26.997  34.568   4.220
39568W        W 3776  23.520  41.497   1.257
39569W        W 3777  27.627  31.034  10.477
39570W        W 3778  13.341  16.621   3.225
39571W        W 3779  20.176  23.498  12.368
39572W        W 3780  27.525  21.210  12.925
39573W        W 3781   2.462   8.350  14.906
39574W        W 3782   5.276   0.951   2.898
39575W        W 3783  29.619  32.530   4.231
39576W        W 3784  23.044  28.021  10.405
39577W        W 3785  28.502  19.668  14.400
39578W        W 3786  36.414  42.437  14.024
39579W        W 3787  33.070   7.210   1.333
39580W        W 3788  14.149  14.133  11.919
39581W        W 3789   5.304   7.379   0.904
39582W        W 3790  26.480  37.514   4.264
39583W        W 3791  28.558  30.134  14.815
39584W        W 3792   5.210  40.323   1.760
39585W        W 3793  15.169  27.532   4.224
39586W        W 3794  39.519  10.738   3.239
39587W        W 3795  23.178   3.777  13.454
39588W        W 3796  31.464   7.872   4.695
39589W        W 3797   5.280   8.715  12.854
39590W        W 3798   5.775  26.046  11.902
39591W        W 3799   0.985  26.132  11.127
39592W        W 3800  26.183  42.792   5.109
39593W        W 3801  16.287  27.599  14.795
39594W        W 3802  16.632  13.736   4.331
39595W        W 3803  33.381  22.590   3.852
39596W        W 3804  32.917   9.276  11.126
39597W        W 3805  23.984   3.332  14.764
39598W        W 3806  36.441  29.157   4.141
39599W        W 3807  14.276  13.834   1.261
39600W        W 3808  14.805   2.941  11.482
39601W        W 3809  17.798  43.495   2.681
39602W        W 3810  25.199  11.350  13.405
39603W        W 3811  18.212  10.371   0.934
39604W        W 3812  32.982  11.316   2.369
39605W        W 3813  30.490  14.309   0.845
39606W        W 3814  40.466  15.274   0.910
39607W        W 3815  11.201  21.221   2.227
39608W        W 3816  20.625  21.024  10.513
39609W        W 3817  10.702   3.292   4.666
39610W        W 3818  28.984  14.099  11.924
39611W        W 3819  40.319  27.524   2.199
39612W        W 3820  37.473   1.887   4.214
39613W        W 3821  29.466  38.883   0.452
39614W        W 3822  34.111  25.506   0.243
39615W        W 3823  15.243  32.632  14.504
39616W        W 3824   6.196   8.726  14.314
39617W        W 3825  27.531   1.338  11.597
39618W        W 3826  12.263  16.169  11.384
39619W        W 3827  12.299  36.505  11.111
39620W        W 3828   1.456  35.457   2.401
39621W        W 3829  16.138  34.024   3.172
39622W        W 3830  42.430   6.884  11.393
39623W        W 3831   8.310  42.839   3.677
39624W        W 3832  42.478  33.504  10.413
39625W        W 3833  17.669  12.361   2.684
39626W        W 3834  13.782  36.441   2.701
39627W        W 3835  31.404  20.078   4.242
39628W        W 3836  23.561   6.687  11.511
39629W        W 3837  17.797  22.172  14.338
39630W        W 3838  22.638  39.883   0.965
39631W        W 3839  44.804   5.393  12.861
39632W        W 3840   6.292  14.622   2.735
39633W        W 3841   1.291   9.751   4.616
39634W        W 3842   6.408  11.628   3.840
39635W        W 3843  10.708   7.724  14.323
39636W        W 3844  18.105  26.047  12.547
39637W        W 3845  22.715  40.347  11.093
39638W        W 3846  32.463   0.435  13.408
39639W        W 3847  17.247   6.373  14.777
39640W        W 3848  35.443  40.837   0.477
39641W        W 3849  11.797  35.958  14.998
39642W        W 3850  41.341   7.751  13.897
39643W        W 3851  37.534   6.717  10.512
39644W        W 3852  30.609  32.515   2.250
39645W        W 3853   9.738  29.526   4.291
39646W        W 3854  23.593  17.576   3.850
39647W        W 3855  35.475  30.002  10.924
39648W        W 3856  31.945  11.160  11.928
39649W        W 3857   5.383  28.022   4.618
39650W        W 3858  10.346  19.201   2.862
39651W        W 3859  11.701   0.366  12.902
39652W        W 3860  13.708  44.318  10.593
39653W        W 3861  39.457  10.640  12.006
39654W        W 3862   6.399  26.176   2.296
39655W        W 3863  40.323  43.435  12.542
39656W        W 3864  28.087  34.101   2.664
39657W        W 3865   0.766   0.292   3.650
39658W        W 3866   9.833  18.184  14.019
39659W        W 3867   6.288  34.965  13.985
39660W        W 3868  31.054   2.848   1.229
39661W        W 3869  38.066   8.783   2.691
39662W        W 3870  23.701  30.549   2.807
39663W        W 3871  36.570  41.486  14.784
39664W        W 3872  41.852  27.122  12.552
39665W        W 3873  34.484  25.969   0.333
39666W        W 3874  12.188  34.056  13.505
39667W        W 3875  44.849  35.543   1.894
39668W        W 3876  28.129   4.733   5.204
39669W        W 3877  10.179  40.984  13.922
39670W        W 3878  27.959  20.270   4.152
39671W        W 3879   5.892  19.625  13.868
39672W        W 3880  27.125  30.519  10.065
39673W        W 3881  30.506  28.045   0.879
39674W        W 3882  15.163  13.760  14.911
39675W        W 3883  28.476  18.671  14.408
39676W        W 3884  31.525   3.887   4.176
39677W        W 3885  39.062  24.090  12.340
39678W        W 3886  23.656  36.023   3.206
39679W        W 3887   3.787  10.151  14.934
39680W        W 3888  16.646  22.589   0.332
39681W        W 3889  20.525  40.880  10.915
39682W        W 3890  35.490  12.242  14.440
39683W        W 3891   7.685  25.197  12.863
39684W        W 3892  12.617  33.963  11.531
39685W        W 3893  27.127  27.010  11.940
39686W        W 3894   8.749  21.205  11.926
39687W        W 3895  25.970  39.963  11.547
39688W        W 3896  41.424  12.251   2.681
39689W        W 3897  39.347  29.117  10.630
39690W        W 3898  12.166  10.651   0.740
39691W        W 3899   3.371  16.720   0.834
39692W        W 3900  39.949   8.747   0.467
39693W        W 3901  16.180  36.492   0.794
39694W        W 3902   1.305   3.276  12.920
39695W        W 3903   5.919   2.266  12.447
39696W        W 3904   3.440   4.849  14.978
39697W        W 3905  23.650   1.951  14.419
39698W        W 3906  35.404  17.227   0.463
39699W        W 3907   4.274  42.838  11.552
39700W        W 3908   3.376  15.787   0.748
39701W        W 3909  28.148  31.553   0.270
39702W        W 3910   8.402   6.397  11.417
39703W        W 3911   0.305  16.135   4.660
39704W        W 3912   2.903  16.796  11.996
39705W        W 3913   6.376  41.859   1.359
39706W        W 3914  29.442  37.043   2.808
39707W        W 3915  37.581   5.402   4.240
39708W        W 3916  23.631   5.770   4.325
39709W        W 3917  14.133   3.353  10.563
39710W        W 3918  19.213  12.181  14.409
39711W        W 3919   5.880  15.208   3.290
39712W        W 3920  28.585  11.322  11.414
39713W        W 3921   3.901  16.274  13.842
39714W        W 3922  28.049  43.977   0.274
39715W        W 3923  27.152  11.179   0.760
39716W        W 3924  33.491  42.936   1.855
39717W        W 3925  18.660   6.358  13.514
39718W        W 3926  20.113  33.402   3.731
39719W        W 3927  14.655  14.733  13.431
39720W        W 3928  13.320  14.632  14.400
39721W        W 3929  11.314   7.834   1.873
39722W        W 3930  37.015  29.052  11.436
39723W        W 3931  44.819  41.458  13.012
39724W        W 3932  40.495   1.848   1.426
39725W        W 3933  21.562  42.901  10.962
39726W        W 3934  27.463  22.639   3.814
39727W        W 3935  29.106  36.997   1.895
39728W        W 3936  43.795  21.623  13.490
39729W        W 3937  44.284  25.678   1.875
39730W        W 3938  44.400  28.105  11.521
39731W        W 3939  38.831  30.125   1.384
39732W        W 3940  11.671   4.771   4.806
39733W        W 3941  38.502   5.691  13.353
39734W        W 3942  11.266   8.366   2.868
39735W        W 3943  33.415  42.870  11.376
39736W        W 3944  24.630   3.795  10.523
39737W        W 3945  38.517  44.829   1.212
39738W        W 3946  10.877   0.305   2.366
39739W        W 3947   2.239  44.353   9.990
39740W        W 3948  12.791  27.526   1.392
39741W        W 3949  26.996  38.376  13.901
39742W        W 3950   0.877  19.663  14.027
39743W        W 3951  23.624  17.587  10.908
39744W        W 3952  30.924  36.567  13.394
39745W        W 3953  10.692  35.365   2.715
39746W        W 3954   5.383   1.777  11.057
39747W        W 3955  27.482  14.686  13.832
39748W        W 3956  10.236   4.283  12.915
39749W        W 3957   0.894  17.165   0.345
39750W        W 3958  30.063  40.968   2.273
39751W        W 3959  16.283  43.849   1.315
39752W        W 3960  33.404  24.503  11.438
39753W        W 3961  44.921  16.273   1.284
39754W        W 3962  32.926  41.896  11.126
39755W        W 3963  15.285  39.960  12.562
39756W        W 3964  32.451  35.543  14.500
39757W        W 3965  39.488   6.414  10.996
39758W        W 3966  36.489  30.463   1.897
39759W        W 3967  39.484  39.535  13.814
39760W        W 3968  22.564  19.724   2.700
39761W        W 3969  38.064   4.396   0.382
39762W        W 3970  26.106   1.456  12.533
39763W        W 3971   0.905  17.251   2.709
39764W        W 3972  21.249  21.597   4.348
39765W        W 3973  41.455  36.582  12.983
39766W        W 3974   7.200   0.967  13.462
39767W        W 3975  32.068   6.258  10.902
39768W        W 3976  20.652  23.215   0.361
39769W        W 3977  33.531   4.229  11.455
39770W        W 3978  40.539  34.065  13.822
39771W        W 3979  17.070  28.075  13.407
39772W        W 3980  11.718   1.319  12.346
39773W        W 3981   9.867  31.629   0.270
39774W        W 3982  24.656  23.675  13.909
39775W        W 3983  11.259  22.713  10.508
39776W        W 3984  30.159  11.292   2.347
39777W        W 3985   2.825  42.823   3.754
39778W        W 3986  30.484  13.699   2.400
39779W        W 3987  31.548  43.861   3.865
39780W        W 3988   3.296  17.132  14.397
39781W        W 3989   5.311  28.125   2.413
39782W        W 3990  34.370  26.518  14.879
39783W        W 3991  44.479  21.071   4.170
39784W        W 3992  40.394  44.840  12.347
39785W        W 3993  24.029  18.290   2.901
39786W        W 3994  14.125  28.037  14.992
39787W        W 3995  42.294  10.650  13.488
39788W        W 3996  40.801   6.363   4.280
39789W        W 3997   7.333  10.827   3.150
39790W        W 3998  33.437  35.048  13.419
39791W        W 3999  41.859  10.704  12.936
39792W        W 4000  20.103  20.143   4.299
39793W        W 4001  12.678  17.777  10.532
39794W        W 4002  33.565   9.192   1.436
39795W        W 4003  15.784  44.455   1.739
39796W        W 4004  23.679  16.674   3.714
39797W        W 4005  44.755  14.827   2.845
39798W        W 4006   9.293  36.428   2.276
39799W        W 4007  27.032  24.521  14.393
39800W        W 4008  30.621  43.819  13.330
39801W        W 4009  44.415   7.267   4.808
39802W        W 4010  16.103   3.434   4.202
39803W        W 4011  20.599  10.811   2.386
39804W        W 4012  21.514  37.020   2.865
39805W        W 4013  37.053  10.712   3.696
39806W        W 4014   2.776  36.023  14.485
39807W        W 4015  12.307   4.266  11.432
39808W        W 4016  42.776  33.573   4.805
39809W        W 4017  19.271  35.975  10.619
39810W        W 4018   4.784  10.829  11.912
39811W        W 4019  13.738  29.084   4.786
39812W        W 4020   3.236  13.155  10.907
39813W        W 4021  16.239  11.228  12.389
39814W        W 4022   8.318  34.379   0.251
39815W        W 4023   8.374  41.511  10.910
39816W        W 4024  44.939   1.255   3.189
39817W        W 4025  11.224   5.816  13.478
39818W        W 4026  40.811  42.419  13.921
39819W        W 4027  34.578  39.865  13.395
39820W        W 4028   0.432  32.407  10.989
39821W        W 4029   0.385  26.000  11.518
39822W        W 4030   1.462   5.811  12.446
39823W        W 4031  11.210  20.109   0.868
39824W        W 4032  11.182   4.773   4.637
39825W        W 4033   2.381  22.013   2.257
39826W        W 4034  18.123  14.256  14.378
39827W        W 4035  12.256  44.464   0.355
39828W        W 4036  13.726  12.729  12.506
39829W        W 4037  43.431  24.986   3.354
39830W        W 4038   1.828  36.865  10.901
39831W        W 4039   0.762   4.243   0.313
39832W        W 4040  41.862  23.220   3.373
39833W        W 4041  32.404  28.955  12.845
39834W        W 4042  17.618  42.015  11.876
39835W        W 4043   9.701  36.857   3.703
39836W        W 4044  23.575  28.965  11.386
39837W        W 4045  17.636  27.189  14.435
39838W        W 4046  25.079  14.094   1.404
39839W        W 4047  32.021  26.956  12.835
39840W        W 4048   8.783  41.408  11.430
39841W        W 4049  29.168  17.229   0.837
39842W        W 4050  42.474  10.164  14.809
39843W        W 4051  34.997   2.415  12.020
39844W        W 4052  44.808  33.399   2.707
39845W        W 4053   5.808   1.430  10.970
39846W        W 4054  21.181  43.956  13.307
39847W        W 4055  32.448  16.649  10.503
39848W        W 4056  34.387  22.569   3.738
39849W        W 4057  44.876   9.875  13.909
39850W        W 4058  42.855   0.864  12.470
39851W        W 4059  20.225  40.341   0.301
39852W        W 4060  22.553  36.562  10.895
39853W        W 4061  13.261   8.678   1.429
39854W        W 4062  37.051  24.982  14.416
39855W        W 4063  25.046   3.368   3.836
39856W        W 4064  23.710  14.592   4.703
39857W        W 4065  14.640   1.844   1.785
39858W        W 4066   4.810  29.115  12.009
39859W        W 4067  26.581  24.155  12.085
39860W        W 4068   9.699  31.623  14.832
39861W        W 4069  31.095   9.797  12.565
39862W        W 4070  19.704   9.795  10.484
39863W        W 4071   2.230  34.452  11.996
39864W        W 4072   5.348  32.599   1.416
39865W        W 4073  33.442  36.542   4.138
39866W        W 4074  12.292   6.318   2.347
39867W        W 4075  19.686  31.588   0.794
39868W        W 4076   3.804  19.752   1.812
39869W        W 4077  30.972   4.416   0.790
39870W        W 4078   8.271  34.032   3.316
39871W        W 4079   3.410  19.195   0.953
39872W        W 4080  24.688  33.393  13.359
39873W        W 4081  26.015  43.838   2.675
39874W        W 4082  40.484  21.029   0.856
39875W        W 4083  28.615  13.786  13.873
39876W        W 4084  37.484   4.270   3.275
39877W        W 4085  25.651   0.782  12.375
39878W        W 4086  31.012   4.354  12.407
39879W        W 4087  25.191  21.018   2.754
39880W        W 4088  12.141   0.316   3.160
39881W        W 4089  10.734  13.177  14.795
39882W        W 4090  13.182   1.317  11.018
39883W        W 4091   7.912  11.655   9.929
39884W        W 4092  24.013  18.107   0.314
39885W        W 4093  35.091  19.198   4.304
39886W        W 4094   5.239   5.225   2.728
39887W        W 4095   5.834  33.946   2.411
39888W        W 4096   1.368  33.049   1.410
39889W        W 4097  23.659   6.839  10.905
39890W        W 4098  30.488  28.644   2.729
39891W        W 4099  13.675   7.903  11.031
39892W        W 4100  39.004  28.592  12.088
39893W        W 4101  24.592  13.307   2.287
39894W        W 4102  16.163  38.569   3.794
39895W        W 4103  35.580  34.388   4.305
39896W        W 4104  36.019  36.429  11.522
39897W        W 4105  42.457  28.518   2.214
39898W        W 4106  12.707   3.950  14.353
39899W        W 4107  43.272  14.702  11.082
39900W        W 4108   5.745  29.511  12.485
39901W        W 4109   5.819  18.243   4.624
39902W        W 4110  32.563  26.679  14.983
39903W        W 4111  26.511   5.345   0.363
39904W        W 4112   2.294   3.319  14.982
39905W        W 4113  34.583  27.140   3.246
39906W        W 4114  39.541  17.063  13.803
39907W        W 4115  20.743  27.075   0.944
39908W        W 4116  10.871  10.154  12.523
39909W        W 4117  30.081   0.906  11.430
39910W        W 4118  31.101  38.521  13.410
39911W        W 4119  27.547  13.807   2.820
39912W        W 4120  43.858  32.563  10.996
39913W        W 4121  42.835  15.778   5.252
39914W        W 4122  41.943  36.950   3.252
39915W        W 4123   6.197  23.586   4.350
39916W        W 4124  26.697  36.533   3.246
39917W        W 4125   8.282   6.341  14.355
39918W        W 4126  31.905  30.437   4.625
39919W        W 4127  21.237   5.249  14.915
39920W        W 4128  34.114  23.651  10.926
39921W        W 4129  30.428   3.799  13.520
39922W        W 4130   6.374  39.355   2.400
39923W        W 4131   3.443  14.250   1.296
39924W        W 4132   0.343  26.683  12.965
39925W        W 4133   7.880   0.953  14.456
39926W        W 4134  16.672   8.182  14.951
39927W        W 4135  16.248  34.561   2.793
39928W        W 4136  36.022  21.743   0.752
39929W        W 4137  29.543   6.187   0.848
39930W        W 4138  24.638  25.100   4.804
39931W        W 4139  20.224  26.069   3.832
39932W        W 4140   2.340  16.208   2.350
39933W        W 4141  32.916  27.982   0.291
39934W        W 4142  28.452  35.963   3.362
39935W        W 4143  20.661  16.074   0.826
39936W        W 4144  37.358  44.465  12.028
39937W        W 4145  29.009  14.622  12.063
39938W        W 4146  27.053  29.530  12.054
39939W        W 4147  30.092  42.348   4.344
39940W        W 4148   5.824  24.576  13.389
39941W        W 4149  25.537  38.932   3.707
39942W        W 4150  12.771  39.444   2.236
39943W        W 4151  20.165  21.183  11.946
39944W        W 4152  39.479   1.862  14.974
39945W        W 4153  21.121  28.175  10.455
39946W        W 4154   3.337   9.869   0.426
39947W        W 4155  21.106  25.505   3.681
39948W        W 4156  20.695  24.039   0.435
39949W        W 4157  11.231  36.055   2.298
39950W        W 4158   0.397  19.716   2.302
39951W        W 4159  13.722   5.884   2.352
39952W        W 4160  25.495  21.232  11.926
39953W        W 4161  27.685  40.360   1.715
39954W        W 4162  13.710  24.548  12.879
39955W        W 4163   6.204  32.002   0.447
39956W        W 4164  32.585  18.700   4.829
39957W        W 4165   7.399  36.940  12.054
39958W        W 4166  16.645  17.236   3.832
39959W        W 4167   8.326  23.649  11.996
39960W        W 4168  32.898  33.018   3.236
39961W        W 4169  38.056  15.817   2.773
39962W        W 4170  26.008   3.319  10.982
39963W        W 4171  41.976  27.598   3.171
39964W        W 4172   7.799  35.101  10.538
39965W        W 4173  44.450  23.635  11.954
39966W        W 4174  32.894   0.284  13.798
39967W        W 4175  44.454  26.632   2.395
39968W        W 4176  33.915  35.054  14.367
39969W        W 4177   8.698  15.166  12.531
39970W        W 4178  19.185  28.643   0.926
39971W        W 4179  18.648  41.804   4.283
39972W        W 4180  35.472  20.082   2.290
39973W        W 4181  18.746  11.654  10.470
39974W        W 4182  43.457  25.085   5.137
39975W        W 4183   6.844  14.120  12.983
39976W        W 4184  18.570  15.660   4.320
39977W        W 4185   1.312  44.852  13.930
39978W        W 4186  16.722  13.265   1.851
39979W        W 4187   5.698  41.862   2.791
39980W        W 4188  31.469  38.895  12.042
39981W        W 4189  38.351   0.951   3.706
39982W        W 4190  31.432  37.955   0.270
39983W        W 4191   4.900  28.452   4.312
39984W        W 4192  15.187  10.789   4.161
39985W        W 4193  37.872   8.750  10.421
39986W        W 4194  26.700   3.876   0.805
39987W        W 4195  40.327  31.546   2.389
39988W        W 4196  15.637  22.207   3.772
39989W        W 4197  39.061  35.908   3.634
39990W        W 4198  32.507  43.419  13.932
39991W        W 4199  40.959  23.172  14.988
39992W        W 4200  26.463  29.167   0.928
39993W        W 4201  25.703  20.724  13.528
39994W        W 4202  36.488   2.928  10.570
39995W        W 4203  10.737  30.920   2.322
39996W        W 4204  31.080  26.992  11.115
39997W        W 4205  35.380  22.543  10.453
39998W        W 4206  43.342   7.823   0.909
39999W        W 4207  10.695   8.746   3.173
40000W        W 4208  40.970  15.203   9.663
40001W        W 4209  26.681  27.034  10.919
40002W        W 4210  29.051  10.191   4.679
40003W        W 4211  19.270  29.052   2.731
40004W        W 4212   4.383  36.427  14.459
40005W        W 4213  40.310  39.983  10.096
40006W        W 4214  17.720  31.579  11.968
40007W        W 4215  36.498  17.762   0.948
40008W        W 4216   1.440  25.987   1.804
40009W        W 4217   5.438  22.199  10.925
40010W        W 4218  15.225  21.028   2.787
40011W        W 4219  29.559  12.804   9.951
40012W        W 4220   7.892  17.739  11.582
40013W        W 4221   9.320  26.672  13.866
40014W        W 4222  14.312  18.598  13.866
40015W        W 4223  19.125  13.242   0.754
40016W        W 4224  24.214  22.161   1.926
40017W        W 4225  23.175   9.825  13.003
40018W        W 4226  21.212  36.362  14.881
40019W        W 4227  44.884  14.233  10.542
40020W        W 4228  24.011  19.615  10.980
40021W        W 4229   8.342  13.604   2.388
40022W        W 4230  22.730  32.989   0.744
40023W        W 4231  26.198   0.756  13.060
40024W        W 4232  33.876  29.120   4.710
40025W        W 4233   0.353   5.868  14.769
40026W        W 4234   1.475   3.368  14.962
40027W        W 4235  39.557  21.127   2.289
40028W        W 4236   5.831  40.848   0.922
40029W        W 4237  34.377  34.601   2.844
40030W        W 4238  21.703   9.213   2.412
40031W        W 4239  30.157  16.250   0.837
40032W        W 4240  22.721  16.794   1.702
40033W        W 4241  18.577  16.244   0.951
40034W        W 4242  36.567  26.676  13.059
40035W        W 4243  40.376  34.017  12.962
40036W        W 4244  10.315  37.570  10.558
40037W        W 4245  38.327  16.167  12.072
40038W        W 4246   2.365  19.186   4.655
40039W        W 4247  23.138  33.087   4.618
40040W        W 4248  25.616   6.708  11.479
40041W        W 4249  20.041  11.865  13.353
40042W        W 4250  35.106  25.672  10.415
40043W        W 4251   0.869  34.469   5.725
40044W        W 4252  34.101  41.800   3.633
40045W        W 4253   2.910  15.806  12.923
40046W        W 4254  18.565  40.399  14.376
40047W        W 4255  26.119  43.775   3.766
40048W        W 4256  21.043   6.220  14.979
40049W        W 4257   9.220  42.968  12.995
40050W        W 4258   2.850  44.313  12.938
40051W        W 4259  15.109  16.280  11.524
40052W        W 4260   4.903  18.581   5.281
40053W        W 4261  24.037   9.679   0.954
40054W        W 4262  39.023  34.528   0.475
40055W        W 4263  30.557   0.375  10.438
40056W        W 4264  43.376  15.631   1.796
40057W        W 4265  31.043  10.238  10.529
40058W        W 4266  39.829  24.686  12.538
40059W        W 4267  10.339   4.803  14.858
40060W        W 4268  27.104   1.377  11.073
40061W        W 4269   0.414  24.558   0.959
40062W        W 4270  21.105  30.508   0.834
40063W        W 4271  12.193  39.038   4.704
40064W        W 4272  27.962  11.860  13.891
40065W        W 4273  30.588  10.202   4.608
40066W        W 4274  10.220   5.799   1.306
40067W        W 4275   7.304  24.986   0.881
40068W        W 4276  21.089  17.575   1.757
40069W        W 4277   5.917   4.758  13.376
40070W        W 4278  43.890  39.464   0.449
40071W        W 4279   3.951  24.022  13.328
40072W        W 4280  12.286   2.355   2.868
40073W        W 4281   2.396  22.539   3.303
40074W        W 4282  40.049  27.628  11.040
40075W        W 4283  12.807  17.764  11.067
40076W        W 4284  15.255  41.329  13.523
40077W        W 4285   8.392  33.049   3.683
40078W        W 4286  14.183  25.501   3.224
40079W        W 4287  17.200  43.841   3.870
40080W        W 4288  38.957  11.622   1.368
40081W        W 4289  18.230  28.608   3.807
40082W        W 4290  13.722  17.720  12.407
40083W        W 4291  12.674  39.817   3.703
40084W        W 4292  42.905  23.659  10.066
40085W        W 4293  30.156  38.566  13.053
40086W        W 4294  32.402  24.190  14.941
40087W        W 4295  31.030   3.904  11.457
40088W        W 4296   1.775   9.210   2.221
40089W        W 4297  24.674  26.497  11.887
40090W        W 4298  23.138  25.628   4.607
40091W        W 4299  38.923  17.775   1.847
40092W        W 4300  12.210  21.097  14.487
40093W        W 4301  37.563   3.449   1.338
40094W        W 4302   0.855  15.586  12.852
40095W        W 4303   5.257  31.905   2.250
40096W        W 4304  15.789  36.050  13.543
40097W        W 4305  43.996  30.432   1.863
40098W        W 4306  24.084  31.501   4.803
40099W        W 4307   2.845  37.050  14.801
40100W        W 4308   1.355  28.186   4.276
40101W        W 4309  12.355   2.852   1.231
40102W        W 4310  33.513  39.515  12.518
40103W        W 4311  22.538  37.581  12.502
40104W        W 4312   5.297  38.383   4.789
40105W        W 4313  21.259  36.444   3.272
40106W        W 4314  38.472  25.572  10.488
40107W        W 4315   3.880   7.819   1.357
40108W        W 4316  27.477  26.033   4.797
40109W        W 4317  17.611  11.653   1.713
40110W        W 4318   2.838  24.636   1.436
40111W        W 4319  34.890  23.206  12.539
40112W        W 4320  11.749  24.579  11.480
40113W        W 4321  13.332  10.808   4.655
40114W        W 4322  44.476   0.248  11.969
40115W        W 4323  17.592  12.164  14.281
40116W        W 4324   7.740  29.428   1.823
40117W        W 4325  36.903  44.497   4.804
40118W        W 4326  15.810  21.618  14.783
40119W        W 4327  14.199   6.317  12.396
40120W        W 4328  27.666  25.507  11.527
40121W        W 4329  34.592   7.410  11.045
40122W        W 4330  36.475  27.112   0.335
40123W        W 4331   1.448  25.050   4.128
40124W        W 4332   7.229  31.137   4.136
40125W        W 4333  32.998  20.208  14.891
40126W        W 4334  34.079  43.480   2.836
40127W        W 4335  14.105  38.904   0.327
40128W        W 4336  33.604  32.566   3.311
40129W        W 4337   8.190  30.595  14.335
40130W        W 4338   9.275  19.642   0.906
40131W        W 4339  39.417  35.534  14.758
40132W        W 4340  19.539   9.859  11.916
40133W        W 4341   6.791  15.233  12.993
40134W        W 4342  24.697  35.564  11.043
40135W        W 4343   4.306  21.040   4.184
40136W        W 4344  11.174   2.254  11.071
40137W        W 4345  32.494   2.905  13.545
40138W        W 4346   6.390  43.352   2.402
40139W        W 4347  24.618  20.688   3.194
40140W        W 4348  10.143  42.321   4.175
40141W        W 4349  24.223  34.374  11.112
40142W        W 4350  20.224  30.043  13.455
40143W        W 4351   9.340  23.142   1.358
40144W        W 4352   1.770  39.896  13.971
40145W        W 4353  12.315  20.214  11.550
40146W        W 4354  27.547   4.296   1.720
40147W        W 4355  19.602  25.108  11.461
40148W        W 4356   0.764  43.354   4.816
40149W        W 4357   9.844  20.749   1.745
40150W        W 4358   9.696  36.575  14.931
40151W        W 4359   7.192  44.947  10.427
40152W        W 4360  42.473  33.024  12.954
40153W        W 4361  24.582   4.932   2.700
40154W        W 4362  10.204  13.201   4.190
40155W        W 4363  21.737  35.518  14.392
40156W        W 4364  35.893  30.617   2.312
40157W        W 4365  31.068  15.662   3.632
40158W        W 4366   1.958  12.674   4.734
40159W        W 4367  31.430   1.734  10.899
40160W        W 4368   7.386  34.120   3.352
40161W        W 4369  38.376  31.518  12.549
40162W        W 4370  24.070   6.709   0.940
40163W        W 4371  22.197   2.407  11.977
40164W        W 4372   7.744   1.749   3.187
40165W        W 4373   4.921  16.138  14.799
40166W        W 4374  41.514  26.541   4.136
40167W        W 4375  36.955   5.927   4.241
40168W        W 4376  28.611  31.495   4.129
40169W        W 4377   7.814  33.436  12.567
40170W        W 4378  38.448  25.507   2.695
40171W        W 4379   7.243   5.248  11.495
40172W        W 4380  40.828   3.384   3.205
40173W        W 4381  19.602   9.821   5.120
40174W        W 4382  14.653  40.807  14.832
40175W        W 4383  44.314  15.162   0.442
40176W        W 4384   3.768  21.074  14.299
40177W        W 4385   4.335  31.973   2.268
40178W        W 4386  43.326  28.543   0.275
40179W        W 4387  41.940  24.997   3.652
40180W        W 4388  28.601  40.506  14.326
40181W        W 4389  23.026  17.720   1.410
40182W        W 4390   6.229  11.838  12.976
40183W        W 4391  14.156  20.128  10.892
40184W        W 4392  38.894   5.301   1.718
40185W        W 4393   9.288  20.198  14.420
40186W        W 4394  12.262  25.497  11.487
40187W        W 4395  16.212  28.625  14.791
40188W        W 4396  41.904  17.708   0.369
40189W        W 4397  20.615  32.891   2.878
40190W        W 4398  33.623  13.797   2.317
40191W        W 4399  12.678  32.423  12.023
40192W        W 4400  14.098  26.699  10.412
40193W        W 4401   5.196  10.660  13.976
40194W        W 4402   3.423  34.431  14.415
40195W        W 4403  38.393  39.894   1.762
40196W        W 4404   6.422  28.146   9.943
40197W        W 4405  20.256  18.073  12.985
40198W        W 4406  22.532  10.222  10.017
40199W        W 4407  31.983   2.252  14.390
40200W        W 4408   6.771  36.580  12.921
40201W        W 4409  33.072  15.194   2.305
40202W        W 4410  17.304  29.142  11.933
40203W        W 4411  39.974  37.537   3.301
40204W        W 4412   7.901   9.648   2.900
40205W        W 4413  37.877  41.365  10.916
40206W        W 4414  24.188  31.090  12.965
40207W        W 4415   3.863  39.357  12.062
40208W        W 4416   8.222  32.909   1.860
40209W        W 4417  18.116  31.045   0.836
40210W        W 4418  42.324  42.310  13.547
40211W        W 4419  44.874  44.500   1.862
40212W        W 4420   6.913  32.931  11.080
40213W        W 4421  44.487  28.159  10.982
40214W        W 4422   5.833   3.399   5.103
40215W        W 4423   1.248  41.825   1.262
40216W        W 4424  40.544  28.560  10.998
40217W        W 4425   6.840  30.591  11.020
40218W        W 4426   4.756  36.509  12.451
40219W        W 4427   8.319  24.632   2.417
40220W        W 4428   4.260  43.021  11.891
40221W        W 4429  28.998  25.035   0.812
40222W        W 4430  33.596  22.648  11.446
40223W        W 4431   9.274  13.618   0.391
40224W        W 4432  12.316  22.234   4.301
40225W        W 4433   8.888  40.461  11.997
40226W        W 4434   1.957   8.396  12.396
40227W        W 4435   2.888  43.940   3.697
40228W        W 4436   9.222  20.741  11.015
40229W        W 4437  35.546  10.634  10.596
40230W        W 4438  38.839  39.053   2.765
40231W        W 4439  18.636  21.567   1.775
40232W        W 4440  37.855  35.876   4.613
40233W        W 4441  37.351  17.211  10.073
40234W        W 4442  12.824  15.765   4.794
40235W        W 4443   8.336  22.228   3.160
40236W        W 4444   4.273  19.225  10.982
40237W        W 4445  13.152  41.935  13.419
40238W        W 4446  17.081  20.111   0.860
40239W        W 4447   8.281  15.764   3.282
40240W        W 4448  39.408  10.322  13.052
40241W        W 4449  32.594   0.428   2.869
40242W        W 4450  36.035   2.259  12.577
40243W        W 4451  34.441  22.615  14.469
40244W        W 4452  22.686  33.506   1.293
40245W        W 4453  10.687  42.963  12.538
40246W        W 4454  40.983  34.496  12.426
40247W        W 4455  17.687  27.509  12.862
40248W        W 4456  23.718  22.179   0.287
40249W        W 4457  18.062  30.647  11.596
40250W        W 4458  22.501  36.846   2.305
40251W        W 4459  33.963   8.321   1.365
40252W        W 4460  21.125   5.908  13.005
40253W        W 4461  22.645  27.050   9.983
40254W        W 4462  11.709  31.561   3.713
40255W        W 4463  33.623  40.963  13.352
40256W        W 4464   8.366  19.645  12.382
40257W        W 4465  17.746  21.584   1.823
40258W        W 4466  17.178  16.159   1.271
40259W        W 4467   9.738  25.004   4.781
40260W        W 4468  43.429  16.083   0.407
40261W        W 4469  27.456  36.053  14.001
40262W        W 4470   7.777  30.473   2.204
40263W        W 4471   1.860  22.576   3.228
40264W        W 4472  32.446  10.793   0.782
40265W        W 4473  35.023  25.137  11.040
40266W        W 4474   2.471  42.787   3.279
40267W        W 4475  28.158   8.167  10.631
40268W        W 4476   0.455  33.103   4.353
40269W        W 4477  41.994  22.613  14.279
40270W        W 4478  29.034  43.982  14.795
40271W        W 4479  11.363  21.640  14.458
40272W        W 4480  38.418  30.091  12.498
40273W        W 4481  10.333   3.815   5.156
40274W        W 4482   4.423  32.945   0.480
40275W        W 4483  21.116   5.863  11.463
40276W        W 4484   2.853  11.198  13.061
40277W        W 4485  31.515  19.150  10.551
40278W        W 4486  40.811  40.022  10.587
40279W        W 4487  26.573  24.217   1.872
40280W        W 4488  21.184  43.768   4.790
40281W        W 4489  16.229   3.294  14.913
40282W        W 4490  44.431   3.728   0.764
40283W        W 4491  13.205  11.711  14.375
40284W        W 4492   3.243   6.337   4.688
40285W        W 4493   5.872   4.724  13.901
40286W        W 4494  11.814  24.000  13.394
40287W        W 4495  18.705  43.800  11.540
40288W        W 4496  38.558  12.678  12.350
40289W        W 4497  18.787   3.266   0.953
40290W        W 4498  17.227  25.561  12.948
40291W        W 4499  27.160  19.253  13.496
40292W        W 4500  40.435  19.173   5.094
40293W        W 4501  24.562  43.345   3.817
40294W        W 4502  14.716   6.262  13.359
40295W        W 4503   5.793  19.659   0.417
40296W        W 4504  22.054  40.318  11.963
40297W        W 4505  33.568  22.107  10.480
40298W        W 4506   1.771  20.042  11.079
40299W        W 4507  31.639  11.729   1.921
40300W        W 4508  37.052   5.751  12.490
40301W        W 4509  22.689  20.253   3.253
40302W        W 4510  35.034  31.027   2.737
40303W        W 4511   7.700   4.796  12.867
40304W        W 4512  21.217   0.962  11.446
40305W        W 4513   8.373   1.328   4.634
40306W        W 4514   6.704   8.285  12.871
40307W        W 4515  41.818  43.482   4.773
40308W        W 4516  40.453  39.913   0.826
40309W        W 4517  44.776   6.298  13.425
40310W        W 4518   9.372  34.396   0.258
40311W        W 4519   0.779   1.293   4.791
40312W        W 4520   4.240  16.290   1.442
40313W        W 4521  41.867  30.062   4.314
40314W        W 4522   0.355  18.183   3.361
40315W        W 4523  24.629  23.103  11.578
40316W        W 4524   2.806  22.107  10.631
40317W        W 4525  42.408  29.930   1.247
40318W        W 4526  26.042  29.622  11.857
40319W        W 4527  24.696  14.238  12.057
40320W        W 4528  20.052   0.284   3.681
40321W        W 4529  28.935  20.556   2.191
40322W        W 4530  33.466  14.599  12.921
40323W        W 4531   1.445  36.406  14.912
40324W        W 4532  15.579  30.496  14.802
40325W        W 4533  28.520  33.127  14.334
40326W        W 4534  32.943  16.618  14.786
40327W        W 4535   7.882  40.495  13.919
40328W        W 4536  36.008  42.351   3.356
40329W        W 4537  14.780  22.649   4.327
40330W        W 4538  11.271  28.556  12.906
40331W        W 4539  18.747  31.452   1.797
40332W        W 4540  30.506   7.911  14.371
40333W        W 4541   1.342  42.420   1.805
40334W        W 4542  44.267  39.948  14.862
40335W        W 4543   6.919  25.641  13.058
40336W        W 4544   2.808  26.063   2.707
40337W        W 4545  15.612  13.305  14.900
40338W        W 4546  43.311  34.594   0.930
40339W        W 4547  35.880  18.146  12.570
40340W        W 4548  40.026   9.376  10.538
40341W        W 4549   4.211   2.790   4.324
40342W        W 4550  44.996  32.622  14.915
40343W        W 4551   6.729  32.470   1.334
40344W        W 4552   4.922   2.399  11.476
40345W        W 4553  15.751  20.263  13.938
40346W        W 4554  11.261  12.722  13.360
40347W        W 4555  31.606  26.067  11.950
40348W        W 4556  38.823  14.637  14.330
40349W        W 4557   8.874  29.944   4.207
40350W        W 4558  17.691  16.567   5.757
40351W        W 4559  27.624   9.652   1.776
40352W        W 4560  33.032  25.626   0.406
40353W        W 4561  43.887  41.507   1.787
40354W        W 4562  31.522  12.690   0.470
40355W        W 4563  33.468  42.290   2.399
40356W        W 4564  37.521  43.961   3.690
40357W        W 4565  30.458  18.143   3.868
40358W        W 4566  15.732   9.378  12.878
40359W        W 4567  36.063  19.271  13.872
40360W        W 4568  28.681  31.983  11.884
40361W        W 4569  37.425  37.866  14.399
40362W        W 4570  25.557  39.508   1.894
40363W        W 4571  21.143  29.168  11.953
40364W        W 4572   7.234  28.083   0.955
40365W        W 4573  13.174  44.888   4.278
40366W        W 4574  26.116  40.017   3.263
40367W        W 4575  29.527  32.563  10.981
40368W        W 4576  44.839  39.410  13.339
40369W        W 4577  16.593  11.766   3.848
40370W        W 4578  34.934   6.851  11.910
40371W        W 4579  40.424  39.337  10.459
40372W        W 4580  10.825  23.118  12.024
40373W        W 4581  10.365  34.470   2.728
40374W        W 4582  16.764  35.477   4.637
40375W        W 4583  15.273  21.191  11.903
40376W        W 4584  16.615  15.119   0.458
40377W        W 4585  10.221   3.929   4.825
40378W        W 4586  43.832  39.855  10.956
40379W        W 4587  27.966  28.968  14.476
40380W        W 4588  27.687  19.130  12.401
40381W        W 4589   4.261  10.257  14.978
40382W        W 4590  33.534  22.517   1.694
40383W        W 4591  24.671  31.952  11.127
40384W        W 4592  28.015  14.261  11.922
40385W        W 4593  20.034   5.867  11.116
40386W        W 4594   8.259  27.691  12.007
40387W        W 4595  39.904  44.346  14.383
40388W        W 4596  42.421  21.051  13.534
40389W        W 4597   9.328   0.857   0.472
40390W        W 4598  26.063  37.388  10.455
40391W        W 4599  12.733  25.174  12.836
40392W        W 4600  13.717  26.040  11.090
40393W        W 4601  20.711  19.146  14.327
40394W        W 4602  34.370  11.360   0.826
40395W        W 4603  15.253   9.704   3.325
40396W        W 4604  29.628  38.359   3.758
40397W        W 4605   4.300  28.506   4.703
40398W        W 4606  38.931  19.257   5.295
40399W        W 4607   2.237  16.803  12.937
40400W        W 4608  27.447  39.343   0.773
40401W        W 4609  36.438  26.969   3.632
40402W        W 4610  40.357  18.063  14.309
40403W        W 4611   3.748  27.110  14.815
40404W        W 4612  27.528  42.874   3.324
40405W        W 4613  19.235   9.225   4.196
40406W        W 4614   5.795   6.401  10.896
40407W        W 4615  39.416   9.757  14.511
40408W        W 4616  22.079   9.353  14.461
40409W        W 4617   8.192   1.807  12.530
40410W        W 4618   2.729  44.414  10.921
40411W        W 4619  43.960  41.534  10.497
40412W        W 4620   4.781  42.948  10.023
40413W        W 4621  35.084  28.029  14.892
40414W        W 4622  14.732  20.217   0.299
40415W        W 4623  32.898  43.004  12.019
40416W        W 4624  42.028  39.851   1.749
40417W        W 4625   8.249  26.035   1.230
40418W        W 4626   9.345   9.775  14.016
40419W        W 4627  23.018  21.667   1.388
40420W        W 4628  38.449   4.383   1.918
40421W        W 4629   5.241  22.723  10.896
40422W        W 4630  44.919  17.253  12.532
40423W        W 4631   8.282  36.007   3.823
40424W        W 4632  17.771  28.479   0.923
40425W        W 4633  15.188  26.985   3.173
40426W        W 4634  29.069  19.667   0.805
40427W        W 4635   8.678  41.342   3.239
40428W        W 4636  29.619  31.567   4.162
40429W        W 4637  32.416  18.651   0.755
40430W        W 4638   1.472   3.886  10.514
40431W        W 4639  40.054  20.580   3.858
40432W        W 4640  23.116  15.199  13.467
40433W        W 4641  31.542  37.562   2.272
40434W        W 4642  42.316  18.236   2.261
40435W        W 4643  15.308   7.300   0.741
40436W        W 4644   6.846  21.084   1.742
40437W        W 4645  16.642  36.856  11.478
40438W        W 4646   5.304  28.569   4.321
40439W        W 4647  27.471  18.262  10.578
40440W        W 4648   2.458  18.167   3.643
40441W        W 4649  18.627  37.935  14.466
40442W        W 4650  13.693  19.235   0.382
40443W        W 4651  40.319  33.886   1.752
40444W        W 4652  12.248  44.357   1.825
40445W        W 4653  40.423  42.844  10.422
40446W        W 4654  26.495  42.420   0.953
40447W        W 4655  11.743   9.266   4.246
40448W        W 4656  33.937  40.011  14.461
40449W        W 4657  37.005   8.266   1.397
40450W        W 4658  28.606  34.101  14.329
40451W        W 4659  30.070  33.557   0.446
40452W        W 4660   2.948  33.062  11.122
40453W        W 4661  43.473  43.489   0.266
40454W        W 4662  19.219  37.421  13.860
40455W        W 4663   5.808  40.874  13.940
40456W        W 4664  36.393   8.693  14.497
40457W        W 4665   9.260  35.387   4.242
40458W        W 4666  41.532  15.182  10.927
40459W        W 4667  29.477  26.163   4.755
40460W        W 4668  13.787  44.892  14.282
40461W        W 4669   8.208  10.799   1.438
40462W        W 4670   4.841  19.692  14.872
40463W        W 4671  43.889  18.736  13.015
40464W        W 4672   2.942  12.260  10.942
40465W        W 4673   6.676  43.011   3.794
40466W        W 4674  44.316  32.886   1.396
40467W        W 4675  43.489  40.470   0.907
40468W        W 4676   9.227  36.006  12.507
40469W        W 4677  33.476  38.887   3.147
40470W        W 4678   4.911   5.342   1.234
40471W        W 4679   7.294  34.953   2.857
40472W        W 4680  21.584  35.563  10.456
40473W        W 4681  14.695  31.009  12.417
40474W        W 4682  43.013  28.578  11.012
40475W        W 4683  21.191   1.381   4.645
40476W        W 4684  10.839   5.212   1.794
40477W        W 4685  22.500  31.553   0.377
40478W        W 4686  19.164  35.376   3.651
40479W        W 4687   4.366  25.166  10.616
40480W        W 4688  23.210  23.528  14.800
40481W        W 4689  41.495  17.607   1.337
40482W        W 4690  11.127  22.593  11.121
40483W        W 4691  28.666  35.940  12.915
40484W        W 4692   2.848   4.736   0.792
40485W        W 4693   7.677  17.277   1.426
40486W        W 4694  25.131   8.167   4.292
40487W        W 4695  37.437  43.764  14.001
40488W        W 4696  38.442   9.177   0.283
40489W        W 4697  16.778  32.432  10.570
40490W        W 4698  44.411  20.211   1.247
40491W        W 4699  15.703   6.863   5.116
40492W        W 4700  20.154  14.105   2.721
40493W        W 4701  37.034  33.018   3.153
40494W        W 4702  25.516  36.084  13.801
40495W        W 4703  41.922   9.847   4.670
40496W        W 4704  40.863  36.500  11.074
40497W        W 4705   9.664  22.720   1.260
40498W        W 4706  13.234  27.122  12.874
40499W        W 4707  17.064   0.386   2.810
40500W        W 4708  39.899   8.843   0.791
40501W        W 4709  20.726  14.327   0.907
40502W        W 4710  27.614  24.152   1.871
40503W        W 4711  38.871  40.389  11.452
40504W        W 4712  27.092  30.097   4.714
40505W        W 4713  11.245  35.015   4.178
40506W        W 4714   0.914  26.072  14.790
40507W        W 4715  44.803   5.797  13.039
40508W        W 4716   5.305  11.710  11.513
40509W        W 4717  17.571  29.548   1.722
40510W        W 4718  17.256  12.144   1.264
40511W        W 4719  22.022  42.974   0.784
40512W        W 4720  20.640  26.168   3.286
40513W        W 4721  31.087   7.769  12.944
40514W        W 4722  26.538   2.898   0.376
40515W        W 4723  20.105   8.760  10.451
40516W        W 4724  15.112  37.489   9.586
40517W        W 4725  13.731  24.515   1.394
40518W        W 4726  20.601  15.628   5.782
40519W        W 4727  13.728  42.307   1.416
40520W        W 4728  14.207   4.385   1.362
40521W        W 4729  17.067  11.183   3.192
40522W        W 4730  33.911  14.759   3.252
40523W        W 4731  12.157  23.507  11.556
40524W        W 4732  26.456   6.912  14.794
40525W        W 4733  31.062   0.828  14.476
40526W        W 4734  29.924  39.474   1.340
40527W        W 4735  19.256   7.758   3.771
40528W        W 4736  37.047  30.566   1.347
40529W        W 4737  12.246  12.770   2.292
40530W        W 4738   4.728  16.689   4.776
40531W        W 4739  44.792  21.158  14.375
40532W        W 4740  38.510  10.329  11.879
40533W        W 4741   6.705  25.029   0.378
40534W        W 4742   5.388  42.945  13.350
40535W        W 4743  35.452  25.520  11.484
40536W        W 4744  21.141   0.425  13.817
40537W        W 4745  23.607  19.150  13.902
40538W        W 4746  38.855  12.292  12.977
40539W        W 4747  17.581  30.049   2.729
40540W        W 4748  17.263  24.166  13.480
40541W        W 4749  25.480  30.053   3.796
40542W        W 4750  40.451  44.845  14.468
40543W        W 4751   1.776   3.253  13.481
40544W        W 4752  42.953  39.824   1.398
40545W        W 4753  12.224  16.156  12.449
40546W        W 4754  30.436   5.221  12.033
40547W        W 4755  33.574  14.734   4.203
40548W        W 4756   9.194  35.463  11.054
40549W        W 4757  36.487  11.740  11.071
40550W        W 4758  35.471   8.403  13.061
40551W        W 4759  23.700   7.361   2.761
40552W        W 4760  39.410  14.668   3.697
40553W        W 4761  18.150  15.815   2.289
40554W        W 4762  31.437  32.951   2.716
40555W        W 4763  15.247   0.789  12.080
40556W        W 4764  33.110  33.119   3.768
40557W        W 4765  29.992  24.615   3.297
40558W        W 4766   1.419  27.149  14.297
40559W        W 4767  36.055  29.120  11.418
40560W        W 4768  15.706   2.407   2.767
40561W        W 4769   5.875  29.531   4.168
40562W        W 4770  34.933  19.685   5.196
40563W        W 4771  15.124  33.951   4.759
40564W        W 4772  41.941  23.094  11.908
40565W        W 4773  18.222  23.601  10.574
40566W        W 4774  36.029  23.674   3.236
40567W        W 4775  33.002  11.163  10.558
40568W        W 4776  22.593   5.933  10.977
40569W        W 4777  35.454  39.006   0.899
40570W        W 4778  37.411  12.265  12.478
40571W        W 4779  27.180  41.440   0.313
40572W        W 4780  37.521   7.862   2.191
40573W        W 4781   5.201  37.367   0.962
40574W        W 4782  15.706   0.437   3.241
40575W        W 4783  32.128   4.394  11.422
40576W        W 4784  38.927  20.158  14.838
40577W        W 4785  40.435  33.874   4.237
40578W        W 4786  11.263   1.891  12.917
40579W        W 4787  28.662  11.244   3.281
40580W        W 4788  23.115  41.409  10.555
40581W        W 4789  38.347   6.775   4.813
40582W        W 4790  43.854  44.983  14.032
40583W        W 4791  15.683   9.811  12.446
40584W        W 4792  14.140  44.497   0.429
40585W        W 4793  26.978  30.007  13.378
40586W        W 4794  37.542  40.444  14.384
40587W        W 4795  31.983   5.725   0.381
40588W        W 4796  43.945   9.673  11.500
40589W        W 4797  33.128   8.788   4.155
40590W        W 4798   5.295  13.326  10.623
40591W        W 4799  43.353  43.318  14.347
40592W        W 4800  38.343   6.192  11.025
40593W        W 4801  22.580  25.019  10.924
40594W        W 4802  29.149  36.975  12.493
40595W        W 4803  35.582  29.075  10.497
40596W        W 4804  18.739  30.086   4.340
40597W        W 4805  42.312  23.659   0.327
40598W        W 4806  21.675  39.514  12.838
40599W        W 4807   8.355  39.942  13.950
40600W        W 4808   8.772  38.985   0.476
40601W        W 4809  25.490  14.603   4.738
40602W        W 4810  16.803   6.266  12.048
40603W        W 4811  33.436  18.125   3.245
40604W        W 4812  14.662  14.112  11.107
40605W        W 4813  41.410  41.862  12.359
40606W        W 4814  34.499  43.486  13.990
40607W        W 4815   4.843   4.267   4.652
40608W        W 4816  16.758  37.378  11.571
40609W        W 4817  41.904  14.253   3.374
40610W        W 4818  28.132  14.790  10.488
40611W        W 4819  34.444  11.306  11.991
40612W        W 4820  38.324   7.876   4.764
40613W        W 4821   8.379  16.186   2.693
40614W        W 4822  20.711  29.499   3.727
40615W        W 4823  25.134  44.441   4.698
40616W        W 4824  42.874  41.388   0.936
40617W        W 4825  14.655  36.903   1.349
40618W        W 4826   5.333  41.298   4.658
40619W        W 4827  19.149  30.120   4.704
40620W        W 4828  44.800  10.677  11.407
40621W        W 4829  40.514   1.745   4.126
40622W        W 4830   5.772  12.307   1.694
40623W        W 4831   3.812   7.334   4.817
40624W        W 4832  42.807  26.008  12.909
40625W        W 4833  27.033  24.601  10.893
40626W        W 4834  11.660  40.507   4.737
40627W        W 4835  39.869  28.028   4.214
40628W        W 4836  26.629  17.245   4.327
40629W        W 4837   0.349  16.101  11.516
40630W        W 4838   1.337  11.810  11.116
40631W        W 4839  10.320  15.698   4.604
40632W        W 4840  14.317   2.735   2.894
40633W        W 4841  15.640  34.548   1.898
40634W        W 4842  37.895  41.859  10.894
40635W        W 4843  14.291  40.037   0.841
40636W        W 4844  21.537  29.141  12.574
40637W        W 4845  38.460  34.549   3.866
40638W        W 4846  42.424  35.451  14.380
40639W        W 4847  37.842  31.051  12.014
40640W        W 4848  34.046  31.631   3.324
40641W        W 4849  16.606  31.570  12.941
40642W        W 4850  18.145  43.992   4.672
40643W        W 4851   9.176  11.713  12.925
40644W        W 4852  25.971  34.502  12.863
40645W        W 4853  37.876  24.483   1.793
40646W        W 4854  38.389   8.858  11.872
40647W        W 4855  36.424  20.226   4.251
40648W        W 4856  35.466   1.348   1.729
40649W        W 4857  43.004  24.517  14.009
40650W        W 4858  10.219  22.618  13.409
40651W        W 4859   2.793  44.760  12.052
40652W        W 4860   4.821  35.544   0.348
40653W        W 4861  35.966  11.321   3.201
40654W        W 4862  26.121  11.637  11.517
40655W        W 4863   2.344  34.614   4.215
40656W        W 4864   2.409  41.517  12.828
40657W        W 4865  12.636  40.450  13.308
40658W        W 4866  28.484  30.482   4.767
40659W        W 4867  17.076  24.067   3.848
40660W        W 4868  43.434  28.581  10.462
40661W        W 4869  25.556   8.885   3.171
40662W        W 4870  21.513  22.198   4.786
40663W        W 4871  44.259  44.007  14.981
40664W        W 4872  25.066  43.271   3.179
40665W        W 4873  36.926  12.795  13.547
40666W        W 4874  25.979   5.807   2.231
40667W        W 4875  25.160  36.400   4.145
40668W        W 4876   4.286  10.744  11.420
40669W        W 4877   5.250   1.350  12.384
40670W        W 4878  40.956  43.337   1.809
40671W        W 4879  28.096  16.573   3.375
40672W        W 4880  28.937  41.917   4.308
40673W        W 4881  17.235  13.730   2.836
40674W        W 4882   0.355  32.058   5.281
40675W        W 4883  12.799  25.565  14.976
40676W        W 4884  38.459  40.491   1.349
40677W        W 4885  17.085  32.893  12.952
40678W        W 4886  10.320  41.373   2.323
40679W        W 4887  38.003  12.621  11.042
40680W        W 4888  34.579  42.392   1.302
40681W        W 4889  43.287  40.927  14.380
40682W        W 4890  20.047  26.571  13.423
40683W        W 4891  31.896   7.318  13.461
40684W        W 4892   3.383  13.806   1.299
40685W        W 4893  33.071   1.850   2.384
40686W        W 4894  10.211  27.002   1.929
40687W        W 4895  10.689  42.435   3.656
40688W        W 4896  34.895  35.007  11.447
40689W        W 4897  33.034  17.233  10.122
40690W        W 4898  14.798  43.332   2.227
40691W        W 4899  20.055   9.235   1.309
40692W        W 4900  13.113  42.417   1.729
40693W        W 4901  42.957  19.667  12.339
40694W        W 4902  30.417  44.348  11.460
40695W        W 4903   0.254  19.142  13.362
40696W        W 4904  35.584   5.791  10.637
40697W        W 4905   8.860  31.586  13.929
40698W        W 4906  11.670  43.854  12.493
40699W        W 4907  31.639  44.927  11.449
40700W        W 4908  36.048  40.950  11.946
40701W        W 4909  29.591  22.085   1.250
40702W        W 4910  13.754  36.998   0.295
40703W        W 4911  43.991  30.127   1.406
40704W        W 4912  35.070  30.520  12.882
40705W        W 4913   7.212  25.530   3.643
40706W        W 4914  34.426  20.599  14.401
40707W        W 4915  34.980  35.545  11.484
40708W        W 4916  37.414  34.396  13.466
40709W        W 4917  24.723  18.630   1.401
40710W        W 4918  42.417  12.131  11.121
40711W        W 4919   0.491  44.874  13.312
40712W        W 4920  35.545   4.702   4.153
40713W        W 4921  32.600  37.081  11.541
40714W        W 4922  13.744   7.229  13.926
40715W        W 4923  10.349  43.907  11.988
40716W        W 4924  27.016  38.461  13.063
40717W        W 4925  31.000  16.136   0.865
40718W        W 4926  25.128   2.410   1.378
40719W        W 4927  24.489  12.700  12.864
40720W        W 4928   4.784  38.435   0.324
40721W        W 4929   6.718  19.278  11.951
40722W        W 4930  40.888  28.579  13.412
40723W        W 4931  40.840  14.643   0.912
40724W        W 4932  42.017  27.114   2.211
40725W        W 4933   5.895  19.562   4.303
40726W        W 4934   3.712  41.841   2.795
40727W        W 4935  41.036  44.906  12.874
40728W        W 4936  10.665  36.472   3.381
40729W        W 4937  30.627  43.001   3.680
40730W        W 4938  30.456  36.476   0.812
40731W        W 4939   9.785   4.368  12.917
40732W        W 4940  34.042  25.499   3.845
40733W        W 4941  39.334  28.624  14.371
40734W        W 4942  38.342  41.996  14.453
40735W        W 4943  15.650  39.447   0.439
40736W        W 4944  29.562  21.591   2.865
40737W        W 4945   7.282   4.791   3.384
40738W        W 4946  34.005  35.893   1.285
40739W        W 4947  27.064  10.667   2.299
40740W        W 4948   6.272  17.140   2.263
40741W        W 4949  32.108  39.873   4.142
40742W        W 4950  12.272  26.990  13.967
40743W        W 4951  14.123  19.286   2.359
40744W        W 4952  10.300  43.997   1.895
40745W        W 4953  42.343  11.739  10.584
40746W        W 4954  34.374  38.565   4.320
40747W        W 4955  28.560  26.664  13.940
40748W        W 4956  38.958  22.680  10.470
40749W        W 4957  42.865  18.699   1.780
40750W        W 4958  35.556   3.261  14.961
40751W        W 4959  10.344   5.388  14.987
40752W        W 4960  17.062  34.486   3.700
40753W        W 4961  43.905  14.791  12.346
40754W        W 4962  18.674  17.114   4.252
40755W        W 4963  41.848  21.061  11.495
40756W        W 4964  40.441  26.071  11.405
40757W        W 4965  37.547  42.358   0.857
40758W        W 4966  25.168  30.443   4.226
40759W        W 4967   7.787   3.363  11.382
40760W        W 4968  10.776  43.952   0.749
40761W        W 4969  36.090   1.769   2.721
40762W        W 4970  30.630  30.418   1.713
40763W        W 4971  37.009  24.148  12.037
40764W        W 4972  13.827  42.911  11.065
40765W        W 4973  28.931   0.773  12.362
40766W        W 4974  42.936  11.834   0.817
40767W        W 4975  37.368  36.528  14.335
40768W        W 4976   0.850  28.555  12.428
40769W        W 4977   4.353  37.984   2.822
40770W        W 4978  44.300  26.473  13.462
40771W        W 4979  25.153  38.902   3.690
40772W        W 4980  20.206  12.146   2.855
40773W        W 4981   2.726  18.239   0.861
40774W        W 4982  37.550  21.695   4.198
40775W        W 4983  10.821  11.756  14.428
40776W        W 4984  11.315  29.061   0.729
40777W        W 4985   9.257   9.758  13.369
40778W        W 4986  43.453  10.340   3.187
40779W        W 4987  28.637  18.144  13.363
40780W        W 4988  13.282  18.266  13.945
40781W        W 4989   6.400  38.038   4.268
40782W        W 4990  19.115   7.406   0.298
40783W        W 4991  29.054  27.576   0.764
40784W        W 4992  22.617  11.367  13.896
40785W        W 4993  11.726  44.459  13.791
40786W        W 4994   9.799  35.916   0.938
40787W        W 4995  35.892  41.507   4.316
40788W        W 4996  28.962  42.780   3.866
40789W        W 4997  30.514  14.147  11.448
40790W        W 4998  18.104   2.858   4.605
40791W        W 4999  14.617  24.512  11.041
40792W        W 5000  10.646  10.331  11.917
40793W        W 5001  12.843   7.700  11.918
40794W        W 5002   1.830   6.685  14.980
40795W        W 5003  18.732  18.158  10.936
40796W        W 5004   2.301   5.783   4.801
40797W        W 5005  31.070  29.075   4.647
40798W        W 5006   9.663  29.613   2.300
40799W        W 5007   0.309  27.958   3.386
40800W        W 5008   9.232  40.861  11.575
40801W        W 5009  42.957  23.627  13.416
40802W        W 5010  39.043  29.498  10.594
40803W        W 5011  14.241  42.466   3.664
40804W        W 5012   3.240  14.687  11.586
40805W        W 5013  14.263  20.135   1.317
40806W        W 5014  16.192   5.888  14.351
40807W        W 5015  19.720  33.059   4.812
40808W        W 5016  26.506  31.132   0.356
40809W        W 5017  12.648  29.016  12.489
40810W        W 5018  26.694  37.579   2.778
40811W        W 5019   1.271  21.747   0.358
40812W        W 5020  16.686  36.999   3.774
40813W        W 5021  31.960   7.677   5.134
40814W        W 5022  40.849  23.035   1.283
40815W        W 5023   6.359  19.674  10.632
40816W        W 5024  17.244  16.683  12.456
40817W        W 5025  11.296   6.213  13.540
40818W        W 5026   5.735  31.937  11.584
40819W        W 5027  34.949   6.237  12.916
40820W        W 5028   7.809  32.447  13.457
40821W        W 5029   0.308   0.263  10.644
40822W        W 5030   4.784  27.447  14.767
40823W        W 5031   5.300  21.531   2.670
40824W        W 5032  28.444  41.292  14.292
40825W        W 5033  38.508  30.645   2.682
40826W        W 5034  35.392  25.008  10.428
40827W        W 5035  16.710  31.118  12.830
40828W        W 5036   0.807  15.791   1.394
40829W        W 5037  33.986   4.378   4.221
40830W        W 5038  27.672  10.200   3.301
40831W        W 5039  39.401  19.223  14.857
40832W        W 5040  44.422  39.917   2.736
40833W        W 5041  20.136  28.031  12.018
40834W        W 5042  31.541  33.477  14.390
40835W        W 5043  19.554  34.502  13.014
40836W        W 5044  16.769  12.288   2.663
40837W        W 5045  33.909  13.292   4.249
40838W        W 5046  17.610  29.044  11.050
40839W        W 5047  13.348  28.939   1.813
40840W        W 5048  27.586  15.739   4.201
40841W        W 5049   5.926  38.950  13.896
40842W        W 5050  25.652  24.539   1.441
40843W        W 5051  36.098  43.850   0.844
40844W        W 5052   5.892  42.509  14.819
40845W        W 5053   3.801   8.250  10.567
40846W        W 5054  34.611  25.665   3.821
40847W        W 5055  24.724   7.784   2.698
40848W        W 5056  31.117  18.123   9.931
40849W        W 5057  21.647  26.624  13.388
40850W        W 5058  43.451  36.095   4.297
40851W        W 5059  10.748  27.454   2.797
40852W        W 5060  37.850  15.122  10.577
40853W        W 5061   3.951  17.089   1.706
40854W        W 5062  34.532   0.777  11.514
40855W        W 5063  12.648  23.186   3.791
40856W        W 5064  20.744  25.163  10.481
40857W        W 5065  28.109   5.286  14.337
40858W        W 5066  42.843  41.851   1.422
40859W        W 5067   5.708  36.931   2.739
40860W        W 5068  38.542  13.335  13.336
40861W        W 5069  33.941   6.301  13.502
40862W        W 5070  21.743   1.854  10.418
40863W        W 5071  26.078  21.253  14.359
40864W        W 5072  10.803  36.354  10.593
40865W        W 5073   6.188  42.928  14.862
40866W        W 5074   4.918  32.096   4.662
40867W        W 5075   0.481  13.185  13.409
40868W        W 5076  16.306  32.915   0.371
40869W        W 5077  26.467  13.135  11.561
40870W        W 5078  40.321   4.714  13.986
40871W        W 5079  17.301  31.406  14.994
40872W        W 5080  16.701  43.014   4.812
40873W        W 5081  25.174  32.574  11.947
40874W        W 5082   2.902  15.222  13.043
40875W        W 5083  23.556  37.896  11.077
40876W        W 5084   9.385  18.573   4.212
40877W        W 5085   1.337  22.725  13.951
40878W        W 5086  14.300   1.457   3.187
40879W        W 5087  24.721  29.076  14.474
40880W        W 5088  37.537  21.617   4.732
40881W        W 5089  34.038  32.983   3.796
40882W        W 5090   0.853  33.888  11.438
40883W        W 5091  31.131  10.252  12.384
40884W        W 5092   4.778  40.933  10.575
40885W        W 5093   9.841   2.432  12.515
40886W        W 5094  33.393  42.002   4.205
40887W        W 5095  13.732   6.732  12.374
40888W        W 5096  15.246   9.250  12.052
40889W        W 5097  17.715   4.774  11.107
40890W        W 5098   1.237  30.983  11.526
40891W        W 5099  15.143  42.456  13.471
40892W        W 5100  41.870  30.458   5.100
40893W        W 5101  15.176  44.492   3.175
40894W        W 5102  27.993  23.700  13.948
40895W        W 5103  27.182  19.739  13.808
40896W        W 5104  14.756  41.974  12.463
40897W        W 5105  20.179  38.523   2.853
40898W        W 5106  10.871  32.098   4.706
40899W        W 5107  14.300  30.045  14.279
40900W        W 5108  17.291  42.431  14.390
40901W        W 5109  27.090  36.347   1.411
40902W        W 5110   3.423  17.647   0.359
40903W        W 5111  11.625   6.386  13.881
40904W        W 5112   2.236   9.756  13.857
40905W        W 5113  32.475  31.949  11.074
40906W        W 5114  21.237  17.120  12.466
40907W        W 5115  12.328   1.833  13.796
40908W        W 5116   9.295   8.812   0.431
40909W        W 5117  22.040  30.955   2.843
40910W        W 5118  43.309   5.722   0.367
40911W        W 5119   7.188  30.066   1.787
40912W        W 5120  35.445  10.260   1.307
40913W        W 5121   2.417  31.056  13.364
40914W        W 5122  12.317  20.173   1.932
40915W        W 5123   1.310  37.959  12.522
40916W        W 5124  25.531  40.465   1.839
40917W        W 5125   3.924  28.461  12.850
40918W        W 5126  42.431   3.231  13.335
40919W        W 5127  36.887  20.741   0.403
40920W        W 5128   8.310  15.266  11.419
40921W        W 5129  36.863  43.415  10.492
40922W        W 5130  26.517  41.991   4.264
40923W        W 5131  23.089  10.366   0.247
40924W        W 5132   8.766  34.542  10.578
40925W        W 5133  13.158  38.387   0.312
40926W        W 5134  41.375  29.618  10.639
40927W        W 5135  42.366   0.849  11.471
40928W        W 5136  28.546  27.156  12.936
40929W        W 5137   5.239  37.893  13.360
40930W        W 5138  28.077  29.658  11.502
40931W        W 5139  23.093  36.003   3.858
40932W        W 5140  16.713   1.964   0.332
40933W        W 5141  22.578  28.043   0.468
40934W        W 5142  18.625  37.363  14.443
40935W        W 5143   6.217  30.045   1.833
40936W        W 5144  37.416  13.237  10.581
40937W        W 5145  43.814  26.473  11.015
40938W        W 5146   3.814  21.215  10.543
40939W        W 5147  10.232  17.113   3.360
40940W        W 5148  33.088  27.644  14.826
40941W        W 5149  31.494  34.379   2.320
40942W        W 5150   4.759  32.965  12.497
40943W        W 5151  11.694  20.726  13.472
40944W        W 5152   6.380  25.113  14.283
40945W        W 5153  11.648  18.769   0.450
40946W        W 5154   3.367  33.938   0.479
40947W        W 5155   3.452  32.394   4.135
40948W        W 5156   4.345  20.528   1.767
40949W        W 5157  13.339   3.793  10.913
40950W        W 5158  14.223  14.816   4.199
40951W        W 5159  37.041  12.332   1.871
40952W        W 5160  44.962   3.282   2.714
40953W        W 5161  12.160  15.206   5.205
40954W        W 5162  39.926   0.892   2.345
40955W        W 5163  36.959  40.869   1.221
40956W        W 5164  25.627  25.004  13.994
40957W        W 5165  30.094  11.794   3.260
40958W        W 5166   7.762  18.649   0.432
40959W        W 5167  41.514  24.114   3.709
40960W        W 5168   9.292   1.856  13.984
40961W        W 5169  41.828  13.235  11.917
40962W        W 5170  36.071  37.072   0.738
40963W        W 5171  21.659   2.799   4.241
40964W        W 5172  41.293  24.581   1.792
40965W        W 5173  20.113  22.629   9.953
40966W        W 5174  38.335  43.457   2.742
40967W        W 5175  38.901   0.480   3.377
40968W        W 5176  27.653   6.710  14.377
40969W        W 5177  43.417   0.918   3.817
40970W        W 5178   3.248   2.806  13.416
40971W        W 5179  21.104   3.307  10.128
40972W        W 5180   6.693  14.738   1.814
40973W        W 5181  13.171  15.197   3.146
40974W        W 5182   4.855   3.353   3.663
40975W        W 5183  33.465  19.269   0.459
40976W        W 5184   1.860  28.679  13.900
40977W        W 5185   5.213  22.666  13.912
40978W        W 5186  39.907  28.043   2.211
40979W        W 5187  10.755  26.623   4.656
40980W        W 5188  39.025  16.579  14.886
40981W        W 5189  10.298  39.023   5.267
40982W        W 5190  20.689  22.621  12.349
40983W        W 5191  44.955  19.670   4.141
40984W        W 5192   5.404  22.556  13.343
40985W        W 5193  17.254   2.876   0.750
40986W        W 5194   6.777  35.076  14.283
40987W        W 5195  26.187  38.882   2.338
40988W        W 5196  12.199  29.931  13.833
40989W        W 5197  37.942  10.665  14.830
40990W        W 5198  44.263  29.122  14.947
40991W        W 5199  29.438  42.869  12.932
40992W        W 5200  32.038  18.201   1.793
40993W        W 5201  28.482  19.566  10.546
40994W        W 5202  44.410   1.249  13.992
40995W        W 5203  37.342   3.378   3.856
40996W        W 5204  40.453  31.910   0.267
40997W        W 5205   4.713  33.450  12.988
40998W        W 5206   4.782  26.503  14.503
40999W        W 5207  23.111  29.631  14.501
41000W        W 5208   5.408  25.138   0.792
41001W        W 5209   6.736  39.952  10.628
41002W        W 5210  30.487  27.122  12.969
41003W        W 5211  26.608   3.941   1.288
41004W        W 5212  23.649  13.205  10.576
41005W        W 5213   2.762   2.730   3.696
41006W        W 5214   3.341  42.000  10.960
41007W        W 5215   8.756  16.605  11.864
41008W        W 5216  38.013  28.661   1.334
41009W        W 5217  31.558  28.960  12.952
41010W        W 5218  23.505  40.520  11.879
41011W        W 5219   5.218  31.543  12.022
41012W        W 5220  42.319   0.929  14.362
41013W        W 5221  11.774  22.237  11.055
41014W        W 5222  18.217  22.626  14.908
41015W        W 5223  14.188  19.771  13.486
41016W        W 5224  16.576  36.571  12.907
41017W        W 5225  43.313   2.358   9.446
41018W        W 5226  23.548  36.357  14.801
41019W        W 5227  33.944  37.909   2.378
41020W        W 5228  39.912  44.844   3.825
41021W        W 5229   9.247  37.448  12.528
41022W        W 5230  15.101  10.227   2.671
41023W        W 5231  23.159   0.781  13.439
41024W        W 5232  34.564  39.416   1.823
41025W        W 5233  17.653   4.400  13.980
41026W        W 5234  19.643  43.345  11.610
41027W        W 5235  24.202  39.965   2.243
41028W        W 5236  17.253  37.532  14.379
41029W        W 5237  41.988  43.483  11.594
41030W        W 5238  44.894   5.242   1.844
41031W        W 5239   6.409  17.250   4.212
41032W        W 5240   3.751  39.332  10.898
41033W        W 5241  12.286  35.096   2.802
41034W        W 5242  35.516  21.142  13.537
41035W        W 5243  10.710  23.239  14.000
41036W        W 5244  11.633   4.813   1.910
41037W        W 5245  26.664  25.070   4.774
41038W        W 5246  13.214  23.095   2.672
41039W        W 5247  24.585  10.148   3.827
41040W        W 5248  14.828  10.742  12.442
41041W        W 5249  22.538  43.330  13.370
41042W        W 5250  12.622  41.896   1.327
41043W        W 5251  33.488   2.397   3.185
41044W        W 5252  35.528  12.668  14.464
41045W        W 5253  38.385  34.544  13.861
41046W        W 5254  16.579  26.088  14.513
41047W        W 5255  33.030   9.876  12.487
41048W        W 5256   0.925  27.196   1.407
41049W        W 5257  31.080   3.230   0.432
41050W        W 5258  22.078  12.178  13.837
41051W        W 5259  29.453  21.607   1.451
41052W        W 5260  32.916  16.582   4.277
41053W        W 5261  13.807  19.652  14.420
41054W        W 5262  26.194   6.189   2.250
41055W        W 5263  36.961  34.563  11.874
41056W        W 5264  26.579  21.678   0.459
41057W        W 5265  14.149   8.806  14.342
41058W        W 5266   7.207   3.854   2.236
41059W        W 5267  14.734   8.885   0.383
41060W        W 5268   6.323  41.484   1.899
41061W        W 5269  11.822  22.165  11.500
41062W        W 5270  41.997  27.060   3.371
41063W        W 5271   3.274  20.764  13.314
41064W        W 5272  20.079  42.852   0.873
41065W        W 5273  16.113  27.034   2.404
41066W        W 5274  12.613  21.663  11.463
41067W        W 5275  41.915  26.675   1.775
41068W        W 5276  30.653  29.120  11.014
41069W        W 5277   6.782  30.085   1.696
41070W        W 5278  17.067  42.898  14.331
41071W        W 5279   7.243  27.026   1.754
41072W        W 5280  34.111   4.807  11.022
41073W        W 5281  27.572   4.935  11.388
41074W        W 5282   5.724  33.047  10.525
41075W        W 5283  31.025   4.722  14.020
41076W        W 5284  30.583  28.479   4.765
41077W        W 5285   2.847  27.034   4.170
41078W        W 5286  13.742   2.946  14.893
41079W        W 5287  28.092  39.843  13.941
41080W        W 5288  32.941  29.571   4.126
41081W        W 5289  14.140  43.302  14.003
41082W        W 5290  40.992  13.626   2.332
41083W        W 5291  11.640  35.387   0.279
41084W        W 5292  23.125  15.643  14.509
41085W        W 5293  24.693  37.352   0.479
41086W        W 5294  25.977  43.382   4.146
41087W        W 5295  41.465  37.344   0.869
41088W        W 5296  19.162  40.857  13.332
41089W        W 5297   8.847   2.890  13.418
41090W        W 5298  36.497  24.084  11.385
41091W        W 5299  26.990  12.182   3.801
41092W        W 5300  11.862  38.405  10.482
41093W        W 5301  37.013  27.097  12.938
41094W        W 5302  37.453   1.381  13.809
41095W        W 5303  14.605  43.939  14.878
41096W        W 5304  15.613  40.432   4.284
41097W        W 5305   5.769  35.550  13.831
41098W        W 5306  12.790  36.568  14.371
41099W        W 5307  31.566  27.020  14.302
41100W        W 5308  19.674  40.431  13.515
41101W        W 5309  31.482  33.914  12.051
41102W        W 5310   7.306   7.247  10.445
41103W        W 5311  39.506  30.020  11.381
41104W        W 5312   3.331  35.567  14.298
41105W        W 5313  10.791  17.174  13.527
41106W        W 5314  20.665   7.830  14.940
41107W        W 5315   8.174  23.551   0.857
41108W        W 5316  43.417  10.147   1.831
41109W        W 5317   0.836  16.263   4.727
41110W        W 5318  13.281  41.456   4.181
41111W        W 5319   5.381  14.322  14.326
41112W        W 5320  17.061  12.658   1.389
41113W        W 5321  40.466  14.653   3.689
41114W        W 5322  18.293   8.844  11.082
41115W        W 5323  34.532   1.755   3.183
41116W        W 5324  38.948  11.863   2.256
41117W        W 5325  38.873  40.887   4.683
41118W        W 5326  43.961  10.655   0.349
41119W        W 5327  42.799   6.183  12.847
41120W        W 5328  36.484   8.831   4.282
41121W        W 5329  38.045  21.606  11.380
41122W        W 5330  25.641  26.135   1.857
41123W        W 5331  12.802  24.981   3.652
41124W        W 5332  16.597  33.958  12.519
41125W        W 5333  26.514  35.364  12.923
41126W        W 5334  10.201  25.010   1.424
41127W        W 5335  19.046  32.489   4.202
41128W        W 5336  41.937  26.676  11.406
41129W        W 5337   8.893  14.778   2.675
41130W        W 5338  21.242  44.788   2.241
41131W        W 5339  30.136   6.408   2.357
41132W        W 5340  23.181  17.189  13.351
41133W        W 5341   3.281   6.837  14.956
41134W        W 5342  37.869  29.571  12.366
41135W        W 5343   3.845   8.735   4.324
41136W        W 5344  43.954  13.609  11.395
41137W        W 5345  35.590  38.921   1.906
41138W        W 5346  36.004  37.374  12.550
41139W        W 5347  15.262   3.229   2.888
41140W        W 5348  23.076   8.268  11.017
41141W        W 5349   7.739   9.661  11.469
41142W        W 5350  24.013  38.050   4.165
41143W        W 5351  37.454  36.534   1.881
41144W        W 5352  10.220  28.569  12.956
41145W        W 5353  41.490  37.019  10.571
41146W        W 5354  32.957  25.506  11.612
41147W        W 5355  27.117  25.002  14.885
41148W        W 5356  10.634  22.014  13.482
41149W        W 5357  27.577  10.243  14.021
41150W        W 5358  41.387  21.068   2.852
41151W        W 5359  26.961  14.136  11.547
41152W        W 5360  42.358   3.324  12.960
41153W        W 5361   2.947  31.963   2.211
41154W        W 5362   8.243   7.695   4.146
41155W        W 5363  11.372  20.202   3.640
41156W        W 5364   6.229   8.687   0.251
41157W        W 5365  19.187  42.812  11.397
41158W        W 5366   9.342  34.864  10.131
41159W        W 5367  14.823   2.887   4.267
41160W        W 5368   2.945  34.569  13.456
41161W        W 5369  34.119  34.009   3.146
41162W        W 5370  34.942  17.591  11.035
41163W        W 5371   1.938  17.742  11.414
41164W        W 5372  24.662   4.412   4.332
41165W        W 5373  32.907  26.974   2.891
41166W        W 5374  32.604  26.088   4.608
41167W        W 5375  44.319  31.074   0.244
41168W        W 5376  21.244  17.144   0.379
41169W        W 5377  25.217  17.299   4.762
41170W        W 5378  14.116  13.672  11.116
41171W        W 5379  24.632  26.987  11.122
41172W        W 5380   7.904  30.072   1.880
41173W        W 5381  17.761  19.273   3.752
41174W        W 5382  24.015  12.171  14.986
41175W        W 5383  31.532  27.030  12.531
41176W        W 5384  32.994  32.415   0.344
41177W        W 5385  31.507  24.541  12.871
41178W        W 5386   4.757  32.115  14.026
41179W        W 5387  28.930  37.852   1.891
41180W        W 5388  19.190  26.075   3.786
41181W        W 5389  10.148   4.838   1.893
41182W        W 5390  31.462  18.754  12.352
41183W        W 5391  16.591   3.754   3.753
41184W        W 5392   2.828  14.324  12.823
41185W        W 5393  30.937   2.771   2.775
41186W        W 5394  11.812  34.540  10.074
41187W        W 5395   2.370  24.985  13.437
41188W        W 5396  15.593  18.628  14.353
41189W        W 5397  17.132   9.319   3.687
41190W        W 5398   1.954  29.970   2.406
41191W        W 5399  18.675   2.330   3.704
41192W        W 5400  43.931  19.661   4.301
41193W        W 5401  21.203  21.087  13.035
41194W        W 5402   5.394  25.210   1.930
41195W        W 5403  35.580  16.803   1.269
41196W        W 5404  12.630  11.225   4.787
41197W        W 5405   0.879  32.603  11.061
41198W        W 5406  44.272  43.273  12.959
41199W        W 5407  17.630   3.248  13.329
41200W        W 5408   8.304  44.319  14.882
41201W        W 5409   9.234   5.370  13.436
41202W        W 5410  41.831  31.068  12.029
41203W        W 5411  15.171   5.762   1.821
41204W        W 5412  42.956  35.051  14.359
41205W        W 5413  43.372  31.428  12.086
41206W        W 5414  16.694  15.806   0.262
41207W        W 5415   2.800  30.110   0.335
41208W        W 5416   2.928  34.013   4.223
41209W        W 5417  21.127  26.655   3.229
41210W        W 5418   5.843  29.513   1.757
41211W        W 5419   6.254  33.447   4.821
41212W        W 5420  41.329  43.856   4.165
41213W        W 5421  35.573  34.096  11.929
41214W        W 5422  41.936  44.288  14.949
41215W        W 5423   1.271  29.976   5.601
41216W        W 5424  35.503  31.935  13.943
41217W        W 5425  24.575  41.001  12.072
41218W        W 5426  18.235  23.566   4.253
41219W        W 5427   0.446  42.297   0.902
41220W        W 5428  17.102  38.894  13.314
41221W        W 5429   5.434  19.118  14.423
41222W        W 5430  16.128  32.522  13.480
41223W        W 5431  19.573  37.495  14.331
41224W        W 5432  27.590  41.904  11.531
41225W        W 5433  24.199  25.981   1.225
41226W        W 5434  10.696   0.898   3.223
41227W        W 5435   3.351  42.937  10.443
41228W        W 5436   9.777   1.416   2.773
41229W        W 5437  41.520  11.176  13.939
41230W        W 5438  14.783  29.011   4.345
41231W        W 5439   9.173  16.204   2.298
41232W        W 5440  26.546  14.721   3.697
41233W        W 5441   1.272   6.814   0.451
41234W        W 5442  21.559  23.221  14.007
41235W        W 5443  15.760  36.049  12.070
41236W        W 5444  10.359  23.108   4.199
41237W        W 5445  19.054  12.220   3.230
41238W        W 5446   2.820  24.121   1.761
41239W        W 5447  35.368  22.070  12.482
41240W        W 5448   1.909  18.644   2.791
41241W        W 5449  26.475  21.739  11.546
41242W        W 5450   7.265   7.171   4.186
41243W        W 5451  26.591  44.503   4.645
41244W        W 5452  18.689   9.214   2.730
41245W        W 5453  41.883  19.642   4.226
41246W        W 5454  20.748  19.065  12.922
41247W        W 5455  12.620  44.491   1.445
41248W        W 5456  11.287   4.925  14.306
41249W        W 5457   4.838  42.396   3.181
41250W        W 5458  25.611  14.097   1.821
41251W        W 5459  41.862  29.065  14.789
41252W        W 5460  32.049  29.669   4.786
41253W        W 5461  19.258  11.318   2.245
41254W        W 5462  25.182  43.003  11.411
41255W        W 5463  34.974  36.062   9.938
41256W        W 5464  33.077  23.180   1.696
41257W        W 5465  36.903  24.974  12.389
41258W        W 5466  39.058   5.891  10.046
41259W        W 5467   1.337   7.698   4.117
41260W        W 5468  32.414  21.124   3.254
41261W        W 5469   3.934  33.947   3.198
41262W        W 5470  39.463  27.024   0.256
41263W        W 5471  43.277  42.871   2.375
41264W        W 5472  25.615  37.023   1.851
41265W        W 5473  11.660  36.413   3.684
41266W        W 5474  29.539   9.250  13.325
41267W        W 5475   6.393  24.640   0.417
41268W        W 5476  19.227   3.718   5.296
41269W        W 5477   6.815  32.890   2.826
41270W        W 5478   7.214  34.375   4.808
41271W        W 5479  26.058   2.396   2.386
41272W        W 5480  44.937   8.679   4.205
41273W        W 5481  41.012  17.776   1.829
41274W        W 5482  24.039  37.949  14.285
41275W        W 5483  43.814  28.975  11.973
41276W        W 5484  42.843  27.084   4.295
41277W        W 5485  39.510  11.771  11.120
41278W        W 5486  31.487  27.039  11.925
41279W        W 5487  42.490  15.674  10.541
41280W        W 5488  13.632  27.164   2.826
41281W        W 5489  10.221  41.935   0.733
41282W        W 5490   2.885   0.328   0.477
41283W        W 5491  44.364  14.832  13.394
41284W        W 5492   0.910   3.751   9.447
41285W        W 5493  44.846  17.196   9.988
41286W        W 5494  14.194  39.352  13.922
41287W        W 5495  16.626   7.895   2.806
41288W        W 5496  28.670   7.836   2.697
41289W        W 5497  26.679  11.851  10.640
41290W        W 5498  39.064   0.848  12.009
41291W        W 5499  36.514  29.173  10.572
41292W        W 5500  42.420  11.290   0.806
41293W        W 5501   6.360  33.889  12.368
41294W        W 5502   0.948  16.626  13.460
41295W        W 5503  17.207  34.520   0.315
41296W        W 5504  31.039   5.226  14.795
41297W        W 5505  19.069  15.277  11.983
41298W        W 5506  34.562  40.412   4.136
41299W        W 5507  29.608  34.429  10.903
41300W        W 5508  41.981  10.772   3.273
41301W        W 5509  24.123  10.266   4.118
41302W        W 5510  42.293  12.172   2.278
41303W        W 5511  21.650  34.004  14.028
41304W        W 5512  14.590  35.468   1.363
41305W        W 5513   9.652  11.670  10.921
41306W        W 5514  28.094   2.345   4.249
41307W        W 5515  40.475  30.426   4.185
41308W        W 5516   4.345   2.409   0.962
41309W        W 5517  21.057  33.460   0.481
41310W        W 5518   3.740   0.893  13.859
41311W        W 5519  24.554  44.339   1.904
41312W        W 5520   7.903  24.623   4.341
41313W        W 5521  10.340  36.006   1.695
41314W        W 5522   6.185  35.015  11.082
41315W        W 5523   8.399  40.313  12.090
41316W        W 5524  18.062  22.704  11.930
41317W        W 5525  24.488  17.586  10.436
41318W        W 5526  33.451  44.962  11.048
41319W        W 5527  26.966   9.368   2.186
41320W        W 5528  27.624  37.341  14.410
41321W        W 5529   5.290  30.936  10.533
41322W        W 5530  34.879  42.297  14.479
41323W        W 5531  21.588  10.643  13.504
41324W        W 5532  18.770   3.238   3.787
41325W        W 5533  27.630  29.429  11.516
41326W        W 5534  42.444  15.147   0.362
41327W        W 5535  38.982  43.805  11.517
41328W        W 5536  42.518  10.790   2.875
41329W        W 5537   5.723  41.880  13.851
41330W        W 5538  32.058  26.519   4.768
41331W        W 5539  33.962  44.996  11.013
41332W        W 5540  39.007  21.520  14.504
41333W        W 5541  20.551  22.575  10.935
41334W        W 5542  40.860  19.748   9.626
41335W        W 5543  19.070  12.723  10.968
41336W        W 5544  34.445  43.504   3.770
41337W        W 5545  14.745  33.938  13.415
41338W        W 5546  20.715  43.948   0.875
41339W        W 5547  33.407  44.910  14.282
41340W        W 5548   9.284  26.983   4.767
41341W        W 5549  38.348  25.999  14.821
41342W        W 5550  41.804   7.363   4.713
41343W        W 5551   7.758  14.598  12.443
41344W        W 5552  20.116  33.498   4.252
41345W        W 5553  14.244   4.832   5.144
41346W        W 5554  30.998  35.482  13.008
41347W        W 5555   8.868  15.612   3.218
41348W        W 5556  20.662   1.910  10.550
41349W        W 5557  39.002  21.160   0.268
41350W        W 5558   5.873   6.691  12.951
41351W        W 5559  26.616  42.904  11.969
41352W        W 5560  28.958  26.491  13.037
41353W        W 5561  11.746   1.926   3.213
41354W        W 5562  32.493  16.728   2.399
41355W        W 5563  27.137   8.697  14.978
41356W        W 5564  41.020   1.318   1.386
41357W        W 5565  34.446   1.360  10.916
41358W        W 5566  42.475  27.673   2.813
41359W        W 5567  44.488   9.164  13.033
41360W        W 5568   5.693  27.071  13.981
41361W        W 5569  34.892  42.321   0.788
41362W        W 5570  29.497  40.885   4.598
41363W        W 5571  22.232  11.131  11.115
41364W        W 5572  21.146   5.864   2.725
41365W        W 5573  29.486  39.522  12.371
41366W        W 5574  22.130  18.104   4.247
41367W        W 5575  36.942  22.624   4.830
41368W        W 5576  37.360  37.436   3.831
41369W        W 5577   3.775  11.315  12.835
41370W        W 5578  22.180  35.510  14.767
41371W        W 5579  24.044  27.565  12.477
41372W        W 5580  28.079  24.621  12.569
41373W        W 5581  29.124  23.515   3.159
41374W        W 5582  41.935   8.730   0.385
41375W        W 5583  40.421  37.055  11.042
41376W        W 5584  18.278  39.523   1.695
41377W        W 5585  34.993  27.531   4.149
41378W        W 5586  38.517  20.745   0.789
41379W        W 5587  35.947  39.850  12.994
41380W        W 5588  27.191   1.354  11.374
41381W        W 5589  11.764  38.384  12.493
41382W        W 5590   7.788  22.021  10.494
41383W        W 5591  37.442  37.919   3.756
41384W        W 5592  42.483  12.127  13.871
41385W        W 5593  19.254  40.393  12.906
41386W        W 5594  26.605  34.374  10.602
41387W        W 5595  32.444  22.996   0.808
41388W        W 5596   0.820  25.196  10.471
41389W        W 5597  25.197  34.091   4.158
41390W        W 5598  28.086  10.187  10.417
41391W        W 5599  42.496  32.102   2.348
41392W        W 5600  41.327  22.217   4.184
41393W        W 5601  43.429  28.527  13.526
41394W        W 5602  33.412  12.715   2.293
41395W        W 5603  16.792  35.580   3.306
41396W        W 5604  39.371  23.065   0.246
41397W        W 5605  44.957  44.343   0.362
41398W        W 5606   4.772  32.137  14.440
41399W        W 5607   6.330   5.226  10.536
41400W        W 5608  23.727  10.227  10.999
41401W        W 5609  30.427   2.965   2.331
41402W        W 5610  16.705  44.978   3.657
41403W        W 5611  22.694  41.313  11.919
41404W        W 5612  37.368  23.023   2.230
41405W        W 5613  21.661   8.270   1.696
41406W        W 5614  31.074  22.189  14.896
41407W        W 5615  12.694  22.179  11.932
41408W        W 5616  14.814  44.275   0.804
41409W        W 5617  16.269   2.271   2.416
41410W        W 5618   1.380  22.600  11.942
41411W        W 5619  13.634   1.847  11.915
41412W        W 5620  44.987  12.672  12.968
41413W        W 5621  26.474  36.394  10.966
41414W        W 5622  36.070  27.687  13.449
41415W        W 5623  33.073  21.158  14.793
41416W        W 5624  29.039  42.462   2.903
41417W        W 5625   3.898  25.187  10.408
41418W        W 5626  42.936  33.551   5.260
41419W        W 5627  13.828  37.062   2.800
41420W        W 5628   1.801   9.658   2.729
41421W        W 5629  30.459  30.454   1.316
41422W        W 5630  18.228  44.874   3.825
41423W        W 5631  18.174   8.890   3.246
41424W        W 5632  28.648  40.033  11.916
41425W        W 5633  44.914  31.548   0.747
41426W        W 5634  34.029   3.951  12.978
41427W        W 5635  38.558   5.869  10.910
41428W        W 5636   6.679  25.189   3.671
41429W        W 5637  44.926  28.182   3.853
41430W        W 5638  29.533  29.961   2.345
41431W        W 5639  26.005  31.041  12.342
41432W        W 5640  29.580  28.516  10.450
41433W        W 5641  33.576  18.589   2.889
41434W        W 5642  15.583   1.253  14.410
41435W        W 5643   2.806  17.691  10.981
41436W        W 5644  24.022  19.734  14.857
41437W        W 5645  13.338  28.989  14.369
41438W        W 5646  42.996  12.165  13.489
41439W        W 5647  24.078  13.805  14.954
41440W        W 5648   9.262   8.191   0.803
41441W        W 5649  25.572  37.442  10.992
41442W        W 5650  27.518  13.154   2.860
41443W        W 5651  24.202  32.110  13.944
41444W        W 5652   4.861  36.567   4.154
41445W        W 5653  11.175  27.025   3.843
41446W        W 5654   8.342  44.365   2.284
41447W        W 5655  11.220  41.924  12.395
41448W        W 5656  23.517   7.767   3.780
41449W        W 5657  39.484  18.748  13.422
41450W        W 5658  29.119  28.077   1.826
41451W        W 5659  14.129   7.348  11.099
41452W        W 5660  21.753  18.098  14.390
41453W        W 5661  25.196  38.453   4.666
41454W        W 5662  17.780  14.115  11.548
41455W        W 5663  41.529  32.470  11.075
41456W        W 5664  34.910  17.115   5.230
41457W        W 5665   9.150  10.348   2.714
41458W        W 5666   5.399  40.478   3.148
41459W        W 5667  24.031  10.290   0.763
41460W        W 5668  28.635  15.758  12.049
41461W        W 5669   4.744   1.273  14.776
41462W        W 5670  41.971  33.408  12.541
41463W        W 5671  39.497  31.502  12.470
41464W        W 5672   8.792  35.020   5.322
41465W        W 5673  25.655  16.263   3.159
41466W        W 5674  15.586   9.668   4.260
41467W        W 5675  15.320  37.019   2.689
41468W        W 5676  35.853  14.719   1.914
41469W        W 5677  43.913  29.506  12.823
41470W        W 5678  20.222   1.260   3.254
41471W        W 5679  44.933  14.261   2.288
41472W        W 5680  22.698  24.491   3.227
41473W        W 5681  41.374  44.311  14.372
41474W        W 5682  44.318  37.447   0.425
41475W        W 5683  35.049  40.876   3.643
41476W        W 5684  24.126  20.571  14.834
41477W        W 5685  30.101   6.729  10.468
41478W        W 5686  24.119  36.073   2.234
41479W        W 5687  16.271   6.258  14.988
41480W        W 5688  28.978  24.537   3.201
41481W        W 5689  10.682   8.317   1.437
41482W        W 5690  13.730  17.195  13.534
41483W        W 5691  41.950  34.957   1.816
41484W        W 5692  19.149  43.415   2.883
41485W        W 5693  13.730  26.170  10.452
41486W        W 5694  22.657  23.988   3.659
41487W        W 5695  17.125   0.317  13.862
41488W        W 5696   8.702   6.920  10.518
41489W        W 5697  34.096  42.886  13.979
41490W        W 5698  34.491  36.408  12.381
41491W        W 5699  25.175  21.667  12.892
41492W        W 5700   0.403  34.867  11.432
41493W        W 5701  18.621  39.970  11.376
41494W        W 5702  40.981  37.547  11.986
41495W        W 5703  11.353   5.705   1.284
41496W        W 5704  20.698   5.805  10.892
41497W        W 5705  39.913  44.968   1.733
41498W        W 5706  33.412  28.016   1.769
41499W        W 5707  25.041  22.216  10.403
41500W        W 5708  44.421   7.330   2.192
41501W        W 5709  17.621  23.577   2.671
41502W        W 5710  14.746  27.121   2.776
41503W        W 5711  29.069  10.654   3.764
41504W        W 5712  35.959  26.548   1.781
41505W        W 5713  27.467   4.889  10.582
41506W        W 5714  22.621  37.411   0.249
41507W        W 5715  16.270   0.795   4.798
41508W        W 5716  13.205   0.973  12.473
41509W        W 5717   8.723  28.653   4.195
41510W        W 5718   8.363  12.636   2.731
41511W        W 5719  18.077  33.923   1.423
41512W        W 5720  38.045  35.527  11.858
41513W        W 5721  20.653  37.960   2.793
41514W        W 5722  24.107  31.537   3.840
41515W        W 5723  44.492  27.485  14.024
41516W        W 5724  39.421  18.190  12.440
41517W        W 5725  18.625  43.851   2.762
41518W        W 5726  38.333   9.338   1.783
41519W        W 5727  12.191  25.971  14.759
41520W        W 5728  17.100  21.594   4.274
41521W        W 5729   8.343  42.482   0.877
41522W        W 5730   1.819  24.513   1.312
41523W        W 5731  17.090   6.898   0.885
41524W        W 5732  29.459  41.818   4.692
41525W        W 5733  13.701   1.826  12.517
41526W        W 5734  28.992  33.085   1.316
41527W        W 5735  28.654  33.600   1.750
41528W        W 5736   1.430  24.478   1.905
41529W        W 5737  25.983  15.754  10.141
41530W        W 5738  34.098  39.873  12.567
41531W        W 5739  38.411  32.043   2.310
41532W        W 5740  24.718   0.873  13.446
41533W        W 5741  18.731  40.522   3.667
41534W        W 5742  38.063   1.378   3.345
41535W        W 5743   7.788  37.514  13.931
41536W        W 5744  28.942   8.215  11.914
41537W        W 5745  11.821  10.700  13.450
41538W        W 5746  24.521  32.108   0.845
41539W        W 5747  43.869  21.192  10.571
41540W        W 5748   7.701   0.427   2.878
41541W        W 5749   7.247  30.647  14.820
41542W        W 5750  41.463  35.976  11.110
41543W        W 5751  12.639  34.382  14.337
41544W        W 5752   7.864  38.067  12.023
41545W        W 5753   6.277  20.556  11.610
41546W        W 5754  35.409  39.434  10.570
41547W        W 5755  31.601  20.611  11.094
41548W        W 5756  29.168  28.027   3.380
41549W        W 5757   4.895  35.480   3.821
41550W        W 5758  23.201  38.026   1.267
41551W        W 5759  12.228   3.802  14.810
41552W        W 5760  14.716  34.065  10.556
41553W        W 5761   6.677  44.307   1.254
41554W        W 5762  22.092  28.471  12.844
41555W        W 5763  13.840  12.659   0.830
41556W        W 5764   6.275  10.799  13.003
41557W        W 5765  37.055  33.445   2.236
41558W        W 5766  16.184  27.547   3.871
41559W        W 5767  40.841  39.954   2.292
41560W        W 5768  42.507  24.123   1.441
41561W        W 5769   9.793   5.337   1.263
41562W        W 5770  23.560  25.157  11.495
41563W        W 5771  37.022  27.966   4.142
41564W        W 5772  29.997   5.374   0.731
41565W        W 5773  14.152  25.595   4.798
41566W        W 5774  12.361  29.587   3.213
41567W        W 5775  21.112  38.068  10.965
41568W        W 5776  27.992  28.651   2.273
41569W        W 5777  15.233  24.213   0.420
41570W        W 5778  24.202  15.608  12.082
41571W        W 5779  34.369  36.981  12.085
41572W        W 5780  19.608  32.552  14.485
41573W        W 5781  24.531  31.600  13.423
41574W        W 5782  26.961  34.442   3.149
41575W        W 5783  23.537  32.521  14.961
41576W        W 5784   8.890  39.833   0.849
41577W        W 5785   1.743   1.416   4.651
41578W        W 5786  29.045   8.885   3.276
41579W        W 5787  33.959  41.915  12.918
41580W        W 5788  39.534  37.996  10.917
41581W        W 5789  21.558  16.124  11.506
41582W        W 5790  35.019  18.585   3.386
41583W        W 5791  28.454  36.393  13.383
41584W        W 5792   9.856  38.050   4.655
41585W        W 5793  36.035  42.458  14.292
41586W        W 5794  17.782  13.281  14.371
41587W        W 5795  31.084   8.165  11.439
41588W        W 5796  18.756  13.739   4.712
41589W        W 5797  11.363  32.021  13.846
41590W        W 5798  19.638  26.496   4.292
41591W        W 5799  23.602  33.956  13.863
41592W        W 5800  16.595  32.066  12.853
41593W        W 5801   9.721  44.896  14.934
41594W        W 5802  10.779  44.387  14.828
41595W        W 5803  25.990  18.121  11.008
41596W        W 5804   6.392  13.750   3.277
41597W        W 5805  39.548  16.159  11.856
41598W        W 5806  27.041  16.761   3.698
41599W        W 5807  30.044  31.494  12.873
41600W        W 5808  16.108  16.695   4.601
41601W        W 5809   4.757   2.366  12.578
41602W        W 5810  10.331  13.688  10.508
41603W        W 5811   8.700   1.325  12.450
41604W        W 5812  24.560  25.039   3.172
41605W        W 5813   1.978  21.577   0.402
41606W        W 5814  19.712   8.869   3.167
41607W        W 5815  21.179   1.368  13.953
41608W        W 5816  21.152  20.176   2.411
41609W        W 5817  36.962  41.869  11.590
41610W        W 5818  24.501  19.560   2.717
41611W        W 5819   8.270  32.887  14.498
41612W        W 5820   2.422   6.270  10.948
41613W        W 5821  25.052  28.644   4.734
41614W        W 5822   8.857  20.544   1.799
41615W        W 5823  40.810  12.617   2.697
41616W        W 5824  19.575  22.692  12.339
41617W        W 5825  32.632  10.738   0.313
41618W        W 5826  25.592   3.386   0.907
41619W        W 5827   7.725  37.385   4.196
41620W        W 5828  23.499  44.368  14.997
41621W        W 5829  40.526   7.314  13.355
41622W        W 5830   1.308  20.663  12.494
41623W        W 5831  41.310  33.875   0.893
41624W        W 5832  16.124  35.372  11.856
41625W        W 5833  21.175  39.052   2.209
41626W        W 5834   0.469  34.981   2.668
41627W        W 5835  43.274  16.688   9.454
41628W        W 5836  13.661  32.528  13.050
41629W        W 5837  33.380   8.793  10.454
41630W        W 5838  24.665  20.171  11.896
41631W        W 5839  24.170  16.133   3.687
41632W        W 5840   3.861  17.183   0.411
41633W        W 5841  31.515  20.687  13.865
41634W        W 5842  28.672   2.755  11.120
41635W        W 5843  44.429  32.457  14.418
41636W        W 5844  31.608  28.076  10.586
41637W        W 5845  21.114   8.223  14.303
41638W        W 5846  35.966  42.411  11.594
41639W        W 5847  28.611  32.632   1.749
41640W        W 5848  14.300  27.578  11.470
41641W        W 5849  18.283  32.038  10.947
41642W        W 5850  10.652  22.074   4.792
41643W        W 5851  28.514  38.434   4.233
41644W        W 5852  28.498  37.937  14.430
41645W        W 5853  36.857  18.147  11.408
41646W        W 5854  24.231  23.678   2.889
41647W        W 5855   4.439  15.164  14.891
41648W        W 5856  29.528  43.932   2.758
41649W        W 5857  33.512   9.741   4.352
41650W        W 5858  20.601  16.664  11.500
41651W        W 5859  15.117  29.067   3.653
41652W        W 5860  13.123   4.426  12.974
41653W        W 5861   2.829  18.646  13.958
41654W        W 5862  24.997   3.375   4.152
41655W        W 5863  44.987  10.303   5.246
41656W        W 5864  42.819  31.421  14.763
41657W        W 5865  32.021  26.536   2.383
41658W        W 5866  24.502  19.195   0.870
41659W        W 5867   3.873  34.934  11.102
41660W        W 5868  14.123  27.183   2.301
41661W        W 5869  41.816   2.296   9.986
41662W        W 5870  15.816  31.493   1.923
41663W        W 5871  32.938  24.478   1.325
41664W        W 5872  28.450  40.962  11.455
41665W        W 5873  29.981  33.972   2.233
41666W        W 5874   0.744  21.718  12.398
41667W        W 5875  13.260  33.124  14.930
41668W        W 5876  37.560  38.947   0.930
41669W        W 5877  28.115  21.125   4.648
41670W        W 5878   6.233  18.715  12.396
41671W        W 5879   0.782  16.583   0.852
41672W        W 5880  13.190   8.371   3.679
41673W        W 5881  26.201  18.100   0.875
41674W        W 5882   4.362  10.858   2.367
41675W        W 5883   9.205  44.498  11.918
41676W        W 5884  10.158  42.494   3.845
41677W        W 5885  23.544  30.914  10.474
41678W        W 5886  41.374  42.798   4.680
41679W        W 5887  17.097  24.178   2.717
41680W        W 5888  38.964  14.764   3.836
41681W        W 5889   3.456  15.782   4.745
41682W        W 5890  21.601  16.671  13.353
41683W        W 5891  20.532  42.016  14.931
41684W        W 5892  21.638   5.415   3.266
41685W        W 5893   1.949  11.691   4.145
41686W        W 5894  14.170  21.640   3.192
41687W        W 5895  37.937  18.654   4.187
41688W        W 5896  27.042  23.524   2.201
41689W        W 5897   0.390  17.799  13.506
41690W        W 5898  41.037  14.269   0.899
41691W        W 5899  18.692  10.292  11.103
41692W        W 5900  33.487  13.282   1.917
41693W        W 5901  42.483   2.379   2.371
41694W        W 5902   7.890  19.136  10.506
41695W        W 5903   1.435  27.668  13.373
41696W        W 5904  38.902  32.562   2.703
41697W        W 5905  26.987   1.953   2.299
41698W        W 5906  17.605   1.351   2.237
41699W        W 5907   4.252  23.713   3.329
41700W        W 5908   1.460   5.792   2.715
41701W        W 5909  18.614  18.728   0.919
41702W        W 5910  34.601  32.129   1.413
41703W        W 5911   4.812  17.784   2.736
41704W        W 5912  11.860  33.421   4.832
41705W        W 5913  22.147  29.548   0.388
41706W        W 5914  17.072  26.621  11.491
41707W        W 5915  40.989  36.434   4.622
41708W        W 5916  41.956  29.168   0.759
41709W        W 5917  16.276  35.880   5.110
41710W        W 5918   8.822  23.629   1.432
41711W        W 5919   6.316  43.927   1.336
41712W        W 5920  42.319  41.438  14.935
41713W        W 5921  34.562  41.510  12.429
41714W        W 5922  24.587  32.082   9.925
41715W        W 5923  29.065  34.080   0.890
41716W        W 5924  43.891  24.547   4.126
41717W        W 5925  25.468  30.642  11.057
41718W        W 5926   5.741  41.333  14.345
41719W        W 5927  37.569  32.086  13.485
41720W        W 5928  36.572   6.192  10.892
41721W        W 5929  10.282  41.907  13.931
41722W        W 5930   7.880  19.277  10.998
41723W        W 5931  16.270  38.839   2.279
41724W        W 5932  13.315  43.313   0.933
41725W        W 5933  16.750   9.788   2.389
41726W        W 5934  41.497   2.963  11.036
41727W        W 5935  21.162   1.942  13.515
41728W        W 5936   1.442  35.467  12.472
41729W        W 5937   8.385  17.102  14.398
41730W        W 5938  22.163  13.609   2.758
41731W        W 5939  24.060  18.730   0.305
41732W        W 5940   2.931  38.063   5.804
41733W        W 5941  12.755  11.216   9.926
41734W        W 5942  17.633  10.321  13.339
41735W        W 5943   2.344  39.990   4.639
41736W        W 5944  13.803  15.729  13.899
41737W        W 5945   2.347   0.351   3.352
41738W        W 5946  18.721  42.328   2.738
41739W        W 5947  20.761   5.410   4.159
41740W        W 5948  10.377  15.799   1.319
41741W        W 5949   2.961   5.316  13.478
41742W        W 5950  26.036  16.280   0.919
41743W        W 5951  25.115  43.476  14.515
41744W        W 5952  16.073   6.422  13.375
41745W        W 5953  10.282   7.751   0.926
41746W        W 5954  40.373  11.303  12.384
41747W        W 5955  13.337  24.525  11.605
41748W        W 5956  27.493  13.261   3.192
41749W        W 5957   5.282  20.060  13.371
41750W        W 5958  42.962  13.667   3.225
41751W        W 5959  37.019  29.100  13.405
41752W        W 5960  41.486  24.107  13.978
41753W        W 5961  38.040  10.795  10.618
41754W        W 5962  30.020  20.684   2.372
41755W        W 5963  42.803  23.498  10.998
41756W        W 5964  39.368  24.536   3.360
41757W        W 5965  17.590  31.090  12.432
41758W        W 5966  41.339   2.318  12.516
41759W        W 5967  30.633  22.206   4.704
41760W        W 5968   4.321  14.193   0.912
41761W        W 5969  32.553  14.233  12.504
41762W        W 5970  20.036  33.874   2.773
41763W        W 5971  19.548  24.484   0.459
41764W        W 5972  35.545  18.266  11.575
41765W        W 5973   8.405  17.628  14.787
41766W        W 5974   6.268   1.341   4.713
41767W        W 5975  14.612  20.232  12.906
41768W        W 5976   0.970  10.231   2.874
41769W        W 5977  44.903  26.032  11.016
41770W        W 5978  22.673   4.352  10.975
41771W        W 5979  41.809  14.246  13.844
41772W        W 5980   9.255  25.535  12.353
41773W        W 5981   5.207  17.162   2.816
41774W        W 5982  39.512  14.747  13.323
41775W        W 5983   3.313   2.335  10.425
41776W        W 5984  29.540   4.328   0.929
41777W        W 5985  37.986  43.903  12.401
41778W        W 5986  43.920   5.737  12.439
41779W        W 5987  36.562  37.853   3.156
41780W        W 5988   8.365  21.697  12.833
41781W        W 5989  15.676   5.429  10.582
41782W        W 5990   5.891  39.851   0.270
41783W        W 5991   7.303  28.002  12.073
41784W        W 5992   5.896  35.423  13.005
41785W        W 5993  41.965   7.713  14.460
41786W        W 5994  37.015  23.120  10.906
41787W        W 5995  26.635   9.232   2.178
41788W        W 5996  15.109  31.491  14.821
41789W        W 5997  36.562   1.301  14.009
41790W        W 5998  41.859  11.795   1.249
41791W        W 5999  11.331   9.348  11.075
41792W        W 6000  12.262  25.171  12.069
41793W        W 6001  41.388  28.179  11.549
41794W        W 6002  28.522  23.609  12.001
41795W        W 6003  36.078  34.081   2.188
41796W        W 6004   3.826  29.970   3.367
41797W        W 6005  40.911   5.705   9.992
41798W        W 6006  38.851  12.687   4.757
41799W        W 6007  18.571   5.391  11.908
41800W        W 6008  23.205  39.549  14.824
41801W        W 6009  28.147  41.000  14.806
41802W        W 6010   5.893  35.941   3.320
41803W        W 6011  25.564  42.795   1.368
41804W        W 6012  26.532  44.414   1.813
41805W        W 6013  15.172  17.264  12.034
41806W        W 6014  16.677  37.069   4.254
41807W        W 6015   4.402  27.535  12.339
41808W        W 6016  41.923  20.624   3.218
41809W        W 6017  27.961  41.415  11.919
41810W        W 6018  14.783   6.770   1.933
41811W        W 6019   3.844  41.829  14.475
41812W        W 6020  34.515   4.250   2.736
41813W        W 6021  24.041   6.209  13.344
41814W        W 6022  20.622  23.666  11.933
41815W        W 6023  11.800  33.534  10.984
41816W        W 6024   6.866  32.976   0.744
41817W        W 6025  14.781  29.662   2.844
41818W        W 6026  22.621  19.568  13.516
41819W        W 6027  44.260  33.573   0.445
41820W        W 6028  19.053  19.593   4.267
41821W        W 6029  13.188  17.577  10.624
41822W        W 6030  24.677  13.733  14.807
41823W        W 6031  35.516  19.159  14.863
41824W        W 6032  38.438  25.598  12.895
41825W        W 6033  23.986  17.239   2.832
41826W        W 6034  16.625  28.527  14.327
41827W        W 6035  19.089  10.772  11.596
41828W        W 6036  20.577  14.822   2.689
41829W        W 6037  27.949  10.152  11.114
41830W        W 6038   3.809  30.159  11.470
41831W        W 6039  12.694  36.015   2.308
41832W        W 6040  33.522   2.426  11.477
41833W        W 6041  13.167  14.328   0.960
41834W        W 6042  40.433  35.995  11.082
41835W        W 6043  43.485  14.624  12.985
41836W        W 6044  44.300  16.214   4.118
41837W        W 6045  35.983   5.398   1.888
41838W        W 6046  18.109  25.493   0.427
41839W        W 6047  19.168  17.292  11.045
41840W        W 6048   5.719  29.945   4.308
41841W        W 6049  36.558  43.815  12.545
41842W        W 6050  42.805  11.351   3.781
41843W        W 6051  41.536  12.821  10.535
41844W        W 6052  11.766  42.994  14.962
41845W        W 6053  34.404  16.796  14.296
41846W        W 6054  18.120  34.612   0.454
41847W        W 6055   0.300   0.376   4.252
41848W        W 6056  19.555  43.840  11.527
41849W        W 6057  28.547  12.317  12.995
41850W        W 6058  24.528  43.297  10.915
41851W        W 6059  39.506  14.128  14.882
41852W        W 6060  30.484  20.243   4.645
41853W        W 6061   2.727  16.568  14.433
41854W        W 6062  38.910  21.251   5.096
41855W        W 6063  44.378  21.621   3.725
41856W        W 6064  11.693  14.663   3.735
41857W        W 6065  41.307  42.991  13.365
41858W        W 6066  22.248  26.490  11.522
41859W        W 6067  34.973  22.244  13.975
41860W        W 6068  35.402  34.082  13.890
41861W        W 6069  44.934  33.076  11.948
41862W        W 6070  33.492  34.996   4.295
41863W        W 6071  33.513  31.984  11.048
41864W        W 6072   4.806   2.829  12.942
41865W        W 6073  21.533  44.483  11.375
41866W        W 6074  30.999   3.442  12.955
41867W        W 6075  32.454  12.338   2.786
41868W        W 6076  28.455  41.392  10.914
41869W        W 6077  12.853   5.726   4.677
41870W        W 6078  18.748  27.522  12.571
41871W        W 6079  32.947   5.428  14.500
41872W        W 6080  43.432   1.403  14.945
41873W        W 6081  33.584  31.494  13.054
41874W        W 6082  33.558  41.490   5.309
41875W        W 6083  31.985  34.508  12.457
41876W        W 6084  14.278  29.556   2.785
41877W        W 6085  28.078  19.276   2.738
41878W        W 6086   6.820  11.710  13.867
41879W        W 6087  14.727  13.646  14.991
41880W        W 6088  24.153  39.413  11.514
41881W        W 6089  28.600  14.177   1.323
41882W        W 6090  13.172  30.637   5.181
41883W        W 6091  13.807  43.912   4.311
41884W        W 6092   2.871  22.249  12.085
41885W        W 6093   5.723  12.309   0.288
41886W        W 6094   4.765  30.608  13.829
41887W        W 6095  43.323  25.551  14.031
41888W        W 6096  32.086   9.241   1.720
41889W        W 6097   9.762  15.116   3.289
41890W        W 6098   8.774  16.173   2.230
41891W        W 6099  20.629  12.279   2.418
41892W        W 6100  29.014   9.190   0.380
41893W        W 6101   5.207  41.992   1.231
41894W        W 6102  40.397  38.905   0.324
41895W        W 6103  23.180  25.570  14.435
41896W        W 6104  36.995  12.176   0.254
41897W        W 6105   7.726   1.434   2.235
41898W        W 6106   4.379  35.425  14.800
41899W        W 6107  12.140  19.614  12.551
41900W        W 6108  32.095  12.751   1.771
41901W        W 6109  22.079  32.004  11.955
41902W        W 6110  44.967   4.913  10.427
41903W        W 6111   1.417  37.434   0.775
41904W        W 6112  21.031  20.713  11.484
41905W        W 6113  10.864   4.217  13.487
41906W        W 6114  33.544  16.726   3.761
41907W        W 6115  17.146  14.631   3.149
41908W        W 6116  17.223   4.745   2.359
41909W        W 6117   8.676   5.375   2.825
41910W        W 6118  35.996  42.826   3.382
41911W        W 6119  24.488   1.947  10.585
41912W        W 6120  43.399  26.545  13.047
41913W        W 6121  37.482  43.936   2.380
41914W        W 6122  13.323  30.584  14.446
41915W        W 6123  36.479   6.922   0.456
41916W        W 6124  29.568  30.596  11.921
41917W        W 6125  43.514  16.177  14.009
41918W        W 6126  33.954   2.226   2.720
41919W        W 6127  19.233  36.088  12.525
41920W        W 6128  14.221  14.133  11.555
41921W        W 6129   5.257  31.138   1.362
41922W        W 6130  19.630  38.971  14.472
41923W        W 6131   8.202  14.617   2.900
41924W        W 6132  21.690  13.106  14.864
41925W        W 6133  12.125  41.322   3.302
41926W        W 6134   5.740  13.742   1.856
41927W        W 6135  33.898  10.774  12.929
41928W        W 6136  33.998  10.331  14.976
41929W        W 6137  15.593   3.420   2.185
41930W        W 6138  27.605   3.926   0.941
41931W        W 6139   8.717   6.401   5.190
41932W        W 6140  19.235   5.257  12.576
41933W        W 6141  13.777   6.387  13.338
41934W        W 6142  39.923  25.506  10.480
41935W        W 6143   4.738  10.164  10.456
41936W        W 6144  32.570  28.111   4.623
41937W        W 6145  28.026   4.304   3.152
41938W        W 6146  10.783   3.220   1.278
41939W        W 6147  29.981  30.526   4.299
41940W        W 6148   0.853  13.671  13.913
41941W        W 6149  44.845  12.245   4.721
41942W        W 6150  29.034  42.934   1.813
41943W        W 6151  41.934  40.434  13.326
41944W        W 6152  42.352  39.402  14.289
41945W        W 6153  44.865   5.694   3.669
41946W        W 6154   2.472  20.134   0.351
41947W        W 6155   4.398  11.625  13.448
41948W        W 6156  28.512   1.316  10.549
41949W        W 6157  38.438  33.009   3.157
41950W        W 6158   2.909  26.132  10.949
41951W        W 6159  31.977  27.180   0.844
41952W        W 6160  43.275  17.162  11.039
41953W        W 6161  18.178  11.624  13.491
41954W        W 6162  13.231  36.408   0.927
41955W        W 6163  38.385   0.784  14.433
41956W        W 6164   1.416  31.556   0.275
41957W        W 6165  40.977  33.994   4.166
41958W        W 6166  24.717  13.209  10.907
41959W        W 6167  33.544  40.452   0.369
41960W        W 6168   1.392   9.795  12.943
41961W        W 6169   3.920   5.737   4.271
41962W        W 6170  31.638  15.223  12.478
41963W        W 6171   6.715  15.656  14.346
41964W        W 6172   1.812  30.659  13.369
41965W        W 6173  21.665  25.631   4.616
41966W        W 6174  16.289   7.321   3.203
41967W        W 6175  31.094  15.664  12.917
41968W        W 6176   2.297  16.147  11.097
41969W        W 6177  19.699   9.346   1.420
41970W        W 6178  15.593  37.440  10.561
41971W        W 6179  37.962  15.181  11.940
41972W        W 6180  40.519   4.376   5.181
41973W        W 6181  20.623  27.185  11.919
41974W        W 6182   7.882  34.509   0.741
41975W        W 6183  43.472  31.456  14.925
41976W        W 6184   8.733  37.970   2.842
41977W        W 6185   7.852  18.601   3.818
41978W        W 6186  34.072  32.433   0.415
41979W        W 6187  40.409   3.890   0.302
41980W        W 6188  23.635  36.512  13.895
41981W        W 6189  22.230  26.549  13.493
41982W        W 6190   4.872   6.235   3.690
41983W        W 6191  31.972  39.429   0.816
41984W        W 6192  18.105   2.785   3.196
41985W        W 6193   8.742  20.049   1.704
41986W        W 6194  41.986   2.819   5.755
41987W        W 6195  35.604   0.748  13.946
41988W        W 6196  26.524   2.264   3.866
41989W        W 6197  32.536  23.534  12.950
41990W        W 6198  22.122  31.992   2.322
41991W        W 6199   3.899  34.434   1.220
41992W        W 6200   9.259   5.368  14.015
41993W        W 6201  13.743  39.337   0.328
41994W        W 6202  11.311  40.014  11.034
41995W        W 6203   9.366  10.754  14.790
41996W        W 6204  30.454  11.272  10.640
41997W        W 6205  21.639  20.634  11.459
41998W        W 6206   5.317   2.883  14.890
41999W        W 6207  32.431   7.755  14.886
42000W        W 6208  26.205   7.831  14.309
42001W        W 6209  17.172  32.990   1.443
42002W        W 6210  17.565   4.750  14.031
42003W        W 6211  20.591  13.722  13.542
42004W        W 6212  28.112  26.681   4.261
42005W        W 6213  40.960   4.234  12.354
42006W        W 6214   4.233  29.477  14.513
42007W        W 6215  15.584  43.332   1.696
42008W        W 6216  21.513  38.539  13.826
42009W        W 6217  22.594  25.127  12.367
42010W        W 6218  18.769  44.785  14.370
42011W        W 6219  13.317   0.855   4.612
42012W        W 6220  10.343  31.905  10.156
42013W        W 6221   2.358   6.857  11.973
42014W        W 6222  13.729   7.836   3.649
42015W        W 6223   8.787   9.310  12.855
42016W        W 6224  17.712  17.692   0.424
42017W        W 6225  37.381  11.795   2.392
42018W        W 6226   8.699  44.888   4.206
42019W        W 6227  22.526  17.169   2.788
42020W        W 6228  20.589  16.147  11.059
42021W        W 6229   3.256  22.571   0.362
42022W        W 6230  41.326   8.296   4.786
42023W        W 6231  24.164  19.711   3.667
42024W        W 6232  30.587  34.540  10.015
42025W        W 6233  35.918  30.433  14.379
42026W        W 6234   0.843  34.012   9.946
42027W        W 6235  30.063   6.830   4.116
42028W        W 6236  14.132  35.474  14.330
42029W        W 6237   3.274  20.117  14.841
42030W        W 6238  43.428  26.691   4.340
42031W        W 6239  39.839  18.268   0.944
42032W        W 6240   1.911  29.635   0.324
42033W        W 6241  26.033  37.354   2.205
42034W        W 6242   2.754   5.753  11.037
42035W        W 6243   5.882  10.265  13.923
42036W        W 6244  33.894  18.646  11.095
42037W        W 6245  40.935  37.382   0.463
42038W        W 6246  41.312  31.955   3.815
42039W        W 6247  36.460  24.194   4.284
42040W        W 6248  22.082   1.361  12.383
42041W        W 6249   8.397  42.405   4.831
42042W        W 6250  37.972  21.600  13.903
42043W        W 6251  15.257  27.044  12.971
42044W        W 6252  36.998  33.514  11.024
42045W        W 6253  18.267  35.559  10.406
42046W        W 6254   8.262   8.292   0.411
42047W        W 6255  40.824  10.850  11.968
42048W        W 6256  28.578  35.401  13.893
42049W        W 6257  37.482   2.390  12.558
42050W        W 6258  29.121   5.879  12.474
42051W        W 6259  35.555  27.525  14.915
42052W        W 6260  14.295   4.302   4.241
42053W        W 6261   8.772   1.878   1.694
42054W        W 6262   4.704   6.317   1.286
42055W        W 6263  10.772  28.541   2.311
42056W        W 6264  40.983   5.766  13.885
42057W        W 6265  32.469  39.915  14.446
42058W        W 6266  27.521  16.109  12.917
42059W        W 6267   7.410  23.730   1.352
42060W        W 6268   1.293   3.955  12.849
42061W        W 6269  13.302   4.899   1.791
42062W        W 6270   9.154  42.368  12.943
42063W        W 6271   1.862  44.768  13.847
42064W        W 6272  43.475   9.315   3.251
42065W        W 6273  21.700  40.990   2.757
42066W        W 6274  19.104  39.051  12.536
42067W        W 6275   7.415  36.521   3.249
42068W        W 6276  34.977  21.208  14.972
42069W        W 6277  44.385  42.292   3.306
42070W        W 6278   8.202   3.864  12.359
42071W        W 6279  21.041  12.308   2.266
42072W        W 6280  14.675  17.634   4.815
42073W        W 6281  14.615  30.611   4.209
42074W        W 6282  22.709  29.559   1.848
42075W        W 6283   6.677   0.431   4.180
42076W        W 6284  14.326  36.856  13.904
42077W        W 6285   9.681  33.592   4.323
42078W        W 6286   2.821   4.945   2.372
42079W        W 6287  21.054  39.463  11.022
42080W        W 6288   0.981  12.291   3.798
42081W        W 6289  42.871  41.850  12.904
42082W        W 6290  20.199  43.955  12.573
42083W        W 6291  27.962  22.539   2.776
42084W        W 6292  43.965  38.482  12.471
42085W        W 6293  14.728  35.900   2.874
42086W        W 6294  30.612  10.733   0.404
42087W        W 6295   8.193  12.654  13.312
42088W        W 6296   7.335  40.029  13.547
42089W        W 6297  43.853   8.254   3.180
42090W        W 6298   3.313  18.200   0.246
42091W        W 6299  27.969   5.765  11.084
42092W        W 6300  35.381  31.542  14.828
42093W        W 6301  27.094   2.816  10.567
42094W        W 6302   4.435  44.927   4.686
42095W        W 6303  17.084   2.324  11.402
42096W        W 6304  13.622  44.770  11.608
42097W        W 6305  44.321   4.776   0.299
42098W        W 6306   1.780  27.473   0.950
42099W        W 6307  17.768  24.140  10.611
42100W        W 6308  20.740   7.747   1.410
42101W        W 6309   2.386  16.570  11.055
42102W        W 6310  36.415  15.295  12.536
42103W        W 6311  10.243  31.077  10.508
42104W        W 6312  43.859  42.387  11.495
42105W        W 6313  21.201  26.578   4.206
42106W        W 6314   0.276  10.757  13.528
42107W        W 6315  16.213  23.713   2.686
42108W        W 6316  38.044   2.861   1.272
42109W        W 6317  36.409   6.227  11.900
42110W        W 6318  34.092  38.429  13.059
42111W        W 6319  19.708   0.757   2.233
42112W        W 6320   0.979  24.569  13.389
42113W        W 6321  32.977   4.825   0.807
42114W        W 6322   6.821  24.478  14.969
42115W        W 6323  20.178  35.935  12.092
42116W        W 6324  35.537  16.102  11.922
42117W        W 6325   0.259  14.672   0.453
42118W        W 6326   8.816  21.732   1.317
42119W        W 6327  30.075  38.530  10.544
42120W        W 6328  44.268  38.830  12.852
42121W        W 6329  41.485  35.084  14.368
42122W        W 6330  34.500  21.255   2.367
42123W        W 6331  44.913  27.456   3.159
42124W        W 6332  24.008  21.259  12.024
42125W        W 6333  18.220  18.661   2.280
42126W        W 6334  15.614  20.553   2.788
42127W        W 6335  16.736  41.840  14.864
42128W        W 6336   4.914  35.531   0.867
42129W        W 6337  31.930  23.095   4.598
42130W        W 6338  33.077  24.057   4.829
42131W        W 6339  10.724   8.393  11.471
42132W        W 6340  35.373  26.458  11.965
42133W        W 6341  23.062  41.417  14.480
42134W        W 6342  20.231   1.846  11.942
42135W        W 6343  31.982  37.570  11.606
42136W        W 6344  14.142  44.437  11.904
42137W        W 6345   9.649   8.866   3.238
42138W        W 6346   4.889  23.147   1.290
42139W        W 6347   3.318  44.805   3.270
42140W        W 6348  11.659  37.359  12.903
42141W        W 6349  41.980  29.581  10.497
42142W        W 6350  21.518  33.504   1.405
42143W        W 6351  18.589   1.904  11.414
42144W        W 6352  23.552  11.808  11.973
42145W        W 6353  38.845  39.036  10.438
42146W        W 6354   2.918   6.868  13.037
42147W        W 6355  16.123  36.388   2.690
42148W        W 6356  16.613  38.836  11.981
42149W        W 6357  16.601  43.422   2.861
42150W        W 6358   3.888  44.489  12.355
42151W        W 6359   5.806  16.674  11.506
42152W        W 6360   4.859  22.234  14.811
42153W        W 6361  31.076   3.864  14.362
42154W        W 6362  43.365   8.331   3.356
42155W        W 6363  32.060  16.305   2.277
42156W        W 6364   4.793   2.276  12.947
42157W        W 6365  13.138  20.601  10.572
42158W        W 6366   2.760  37.990   0.285
42159W        W 6367  17.077  32.608   0.786
42160W        W 6368  24.559  30.618  13.921
42161W        W 6369  33.118   7.877  11.103
42162W        W 6370   4.932  25.503   0.286
42163W        W 6371  14.272   8.676  11.434
42164W        W 6372   2.869  35.400   1.270
42165W        W 6373  28.055  15.329   4.138
42166W        W 6374  42.400  22.097  11.464
42167W        W 6375  14.185   6.197   2.804
42168W        W 6376  42.435  30.594  14.482
42169W        W 6377  33.078  37.061  14.759
42170W        W 6378   0.257  39.048   9.994
42171W        W 6379  22.233  14.109   2.383
42172W        W 6380   1.969  24.991  12.885
42173W        W 6381  33.398  32.021  14.463
42174W        W 6382   5.789  18.786   1.785
42175W        W 6383  18.211   6.227  12.424
42176W        W 6384  32.988  30.070   3.746
42177W        W 6385  14.171  37.897  11.375
42178W        W 6386  26.485   4.446  13.881
42179W        W 6387  21.682  11.709  11.451
42180W        W 6388  13.821  10.343   2.267
42181W        W 6389  22.145  38.942   4.598
42182W        W 6390   1.919  24.063  14.847
42183W        W 6391  10.320   4.843   3.639
42184W        W 6392  43.428  40.356   4.834
42185W        W 6393  34.116   2.802   1.933
42186W        W 6394  43.461  24.613   0.953
42187W        W 6395  26.520  14.702   1.707
42188W        W 6396  21.608  40.838   0.264
42189W        W 6397  21.196  38.024   1.342
42190W        W 6398  14.712   3.746  13.048
42191W        W 6399  17.630  36.870   5.214
42192W        W 6400  43.355   0.958   4.143
42193W        W 6401  30.424   3.364   1.372
42194W        W 6402   6.750  25.209  12.420
42195W        W 6403  15.700  18.559  13.888
42196W        W 6404  25.697  27.989  12.502
42197W        W 6405  31.074  19.643   0.456
42198W        W 6406  43.003  34.984  12.975
42199W        W 6407  37.075  30.536   4.784
42200W        W 6408  10.750  17.180  10.122
42201W        W 6409   1.306  20.670   0.447
42202W        W 6410   9.272  17.614   3.679
42203W        W 6411  34.410  22.996   3.859
42204W        W 6412   4.845  17.580   1.740
42205W        W 6413   0.489  35.434  14.383
42206W        W 6414  33.956   9.870  11.610
42207W        W 6415  26.670  12.190   3.839
42208W        W 6416  26.170  13.762  14.370
42209W        W 6417  13.213  32.536   0.433
42210W        W 6418  25.488   8.747  11.613
42211W        W 6419  42.003  42.783  10.460
42212W        W 6420  13.290  14.186  11.017
42213W        W 6421  23.572  30.989  11.061
42214W        W 6422  17.557   3.219   4.274
42215W        W 6423  31.021  27.498   3.205
42216W        W 6424   8.273  34.503   4.645
42217W        W 6425  33.078  30.611  11.605
42218W        W 6426   7.375  42.834  14.938
42219W        W 6427  42.314  40.368  10.972
42220W        W 6428  44.399  19.276  12.075
42221W        W 6429   9.285   3.885  12.397
42222W        W 6430  19.215  20.200  13.969
42223W        W 6431   9.346  42.808  14.956
42224W        W 6432  23.091  13.737   4.146
42225W        W 6433  25.534  23.053  12.482
42226W        W 6434  23.163  11.152  10.644
42227W        W 6435  10.143  14.319   4.230
42228W        W 6436  10.328  18.203  13.388
42229W        W 6437  15.140  27.150   1.722
42230W        W 6438  18.778  39.509  14.021
42231W        W 6439   6.194  14.123   3.173
42232W        W 6440  13.346  19.282   0.247
42233W        W 6441   2.341  20.147   2.715
42234W        W 6442   9.282  26.044   3.331
42235W        W 6443  41.805  22.713  13.032
42236W        W 6444  18.579   0.962   1.815
42237W        W 6445  41.859  25.033  14.454
42238W        W 6446  15.721  11.738  11.560
42239W        W 6447   7.851  42.301   0.330
42240W        W 6448  27.169   1.338   3.253
42241W        W 6449  35.570  25.629  12.841
42242W        W 6450   9.651  20.209   2.840
42243W        W 6451  20.262  22.661   4.662
42244W        W 6452  11.763   4.738   2.776
42245W        W 6453  43.991  19.696  13.343
42246W        W 6454   1.244  41.983  11.423
42247W        W 6455   5.412  29.132   4.127
42248W        W 6456  32.071  25.997   1.303
42249W        W 6457   0.409  35.515   1.237
42250W        W 6458  28.005  35.977  10.928
42251W        W 6459   8.862  39.980  11.612
42252W        W 6460  17.718  23.547   1.451
42253W        W 6461  26.460  42.312   3.685
42254W        W 6462  32.615  41.042  14.432
42255W        W 6463   9.374  11.234  10.515
42256W        W 6464   2.882   3.301  14.373
42257W        W 6465  31.909  21.026   2.696
42258W        W 6466   6.312  20.169  14.865
42259W        W 6467  26.606   9.169  11.024
42260W        W 6468  18.139  20.654   4.667
42261W        W 6469  40.042  21.239   3.651
42262W        W 6470   5.414  14.295  12.960
42263W        W 6471   5.376  41.498  11.022
42264W        W 6472   0.385  12.322  13.052
42265W        W 6473  10.863  16.261   5.278
42266W        W 6474  38.847  37.050  11.408
42267W        W 6475   3.272  28.142   1.698
42268W        W 6476  20.738  13.199   3.645
42269W        W 6477  22.185  41.796  10.965
42270W        W 6478   4.283   8.766  12.084
42271W        W 6479  44.870  24.545  12.987
42272W        W 6480  35.423  19.604  12.006
42273W        W 6481  11.731  37.420   3.722
42274W        W 6482  25.677  41.529   4.274
42275W        W 6483  44.784  12.286  14.428
42276W        W 6484  11.262  11.662   4.223
42277W        W 6485  36.437  33.571  10.545
42278W        W 6486   8.866  30.476  11.873
42279W        W 6487   7.861   6.342  13.321
42280W        W 6488  23.108   2.813  13.981
42281W        W 6489  12.851  23.627   0.279
42282W        W 6490  29.642  22.125  10.967
42283W        W 6491  44.972  33.459  13.001
42284W        W 6492  21.032  15.118   1.267
42285W        W 6493  35.085  17.585   1.758
42286W        W 6494  43.357  10.301   0.742
42287W        W 6495   2.250  29.541  14.862
42288W        W 6496  11.373  40.533   1.696
42289W        W 6497  30.534  13.223  12.370
42290W        W 6498  43.445  40.381  11.103
42291W        W 6499   9.743  33.423  13.851
42292W        W 6500  13.250  17.286  10.413
42293W        W 6501  16.608  41.375   3.220
42294W        W 6502  22.146  17.241   1.217
42295W        W 6503   1.873  26.534   1.432
42296W        W 6504  40.385  35.403   1.413
42297W        W 6505   9.323  35.100   2.855
42298W        W 6506  30.005  31.023  14.464
42299W        W 6507  23.521  26.624   4.703
42300W        W 6508  24.549  21.732  14.797
42301W        W 6509  24.218   0.470  11.887
42302W        W 6510  38.893  35.983  10.145
42303W        W 6511  41.874  28.487   0.287
42304W        W 6512   2.277  30.582   5.301
42305W        W 6513  10.331   5.882   2.362
42306W        W 6514  43.410  12.778  12.069
42307W        W 6515  33.465  32.431   3.867
42308W        W 6516  22.055  15.106   0.834
42309W        W 6517  23.062  39.445   4.810
42310W        W 6518   2.433  28.451   3.345
42311W        W 6519  25.703   6.842  14.013
42312W        W 6520  16.808  37.548  14.909
42313W        W 6521  12.799  44.428   2.403
42314W        W 6522  13.753  43.912  12.995
42315W        W 6523  33.916   5.239   1.221
42316W        W 6524  44.995  21.751   2.816
42317W        W 6525  34.021  43.769  14.373
42318W        W 6526   7.873  32.017   2.376
42319W        W 6527  36.041  22.732  11.579
42320W        W 6528  22.224  40.467  13.828
42321W        W 6529  10.179  26.167  10.525
42322W        W 6530  38.028  21.052   2.230
42323W        W 6531   4.271   4.399  12.079
42324W        W 6532   8.360   6.874   2.313
42325W        W 6533  41.964  25.495  14.909
42326W        W 6534  12.775  22.588  14.921
42327W        W 6535   2.832  34.484   2.418
42328W        W 6536  15.662  41.863  13.844
42329W        W 6537  14.718  42.879  12.042
42330W        W 6538   9.795  34.403   0.283
42331W        W 6539  22.577  16.314  12.041
42332W        W 6540  42.341  42.030  10.919
42333W        W 6541  42.426   5.881   4.234
42334W        W 6542  14.772  24.132   1.823
42335W        W 6543  43.907  35.468   4.793
42336W        W 6544  18.108  24.532  13.380
42337W        W 6545  37.420  22.159  11.020
42338W        W 6546  32.085   8.669   1.912
42339W        W 6547  21.555   5.694   4.121
42340W        W 6548   9.165   2.331  14.369
42341W        W 6549  28.616  23.677   5.104
42342W        W 6550  35.593  40.454  12.023
42343W        W 6551   7.690  16.766   3.201
42344W        W 6552  32.423  33.953  14.782
42345W        W 6553  37.871  31.421   1.369
42346W        W 6554   9.866  28.933  12.826
42347W        W 6555  40.913   7.387  11.099
42348W        W 6556  34.578   8.707   0.326
42349W        W 6557  34.893  25.481   4.182
42350W        W 6558  26.552  11.823  11.899
42351W        W 6559  15.738  33.551   1.394
42352W        W 6560   0.907  36.393  12.900
42353W        W 6561  12.849  11.200   3.146
42354W        W 6562  36.483   4.856  14.910
42355W        W 6563  19.269  16.098  10.420
42356W        W 6564  19.208  41.462  11.454
42357W        W 6565  28.664  40.335   0.358
42358W        W 6566  15.120  34.552  11.414
42359W        W 6567  36.935  29.147  11.916
42360W        W 6568  31.030  33.540   3.753
42361W        W 6569  11.137  22.608  12.453
42362W        W 6570  32.080   2.325   4.173
42363W        W 6571  19.170  38.834   0.749
42364W        W 6572  23.211  21.563   3.349
42365W        W 6573  12.708   9.301   4.728
42366W        W 6574  22.652  40.917  11.530
42367W        W 6575  37.011   1.873  12.520
42368W        W 6576  20.655  42.988   5.309
42369W        W 6577  44.328  25.497  13.398
42370W        W 6578  13.210  17.256   3.778
42371W        W 6579  15.219  27.454  14.450
42372W        W 6580  35.933  35.008  10.558
42373W        W 6581   8.392  13.268  11.028
42374W        W 6582  15.736   3.882   2.787
42375W        W 6583  25.074   2.856  10.466
42376W        W 6584  19.244   2.857  11.541
42377W        W 6585  41.412   2.732  14.830
42378W        W 6586  28.007  20.112   3.267
42379W        W 6587  22.192  12.760  14.331
42380W        W 6588   5.757  10.868  14.960
42381W        W 6589  18.090  26.473   3.306
42382W        W 6590   3.408  26.043  12.062
42383W        W 6591  12.118  38.955   2.769
42384W        W 6592  20.619   9.312   1.247
42385W        W 6593   4.878  18.788   2.387
42386W        W 6594   5.689   0.915   3.788
42387W        W 6595   1.838  23.523  13.318
42388W        W 6596  33.045   6.918   4.783
42389W        W 6597  43.446  40.394  10.548
42390W        W 6598  10.252  24.675  13.974
42391W        W 6599   8.724  14.208  12.941
42392W        W 6600  12.345  36.429   2.280
42393W        W 6601   9.771  44.994  12.954
42394W        W 6602  42.472  14.332  13.536
42395W        W 6603   4.725   3.275   4.202
42396W        W 6604  36.973  35.047  12.486
42397W        W 6605  24.143  39.335  11.119
42398W        W 6606  22.729  31.461  13.866
42399W        W 6607  43.395  41.039  13.050
42400W        W 6608  11.670  33.002   0.872
42401W        W 6609  38.870  19.190   4.290
42402W        W 6610  33.094   5.193  13.959
42403W        W 6611  37.042  11.330   1.720
42404W        W 6612   1.822   9.819   0.855
42405W        W 6613  37.468  31.983  14.297
42406W        W 6614  36.062  22.243  11.524
42407W        W 6615  44.430  35.453   2.744
42408W        W 6616  16.635   1.760  12.884
42409W        W 6617  44.350   8.353  14.820
42410W        W 6618   5.817  36.095   0.456
42411W        W 6619  43.338  24.067   2.395
42412W        W 6620  14.130   5.315  13.934
42413W        W 6621   0.380  42.014  14.363
42414W        W 6622   8.280  18.119  11.069
42415W        W 6623  11.700  14.219  14.339
42416W        W 6624  21.678  31.002  12.531
42417W        W 6625   7.385   0.814  12.041
42418W        W 6626  38.847  27.985   0.472
42419W        W 6627  34.049  14.741  13.468
42420W        W 6628   6.831  10.314   2.346
42421W        W 6629  35.541  21.522   2.345
42422W        W 6630  23.507   9.316  10.993
42423W        W 6631  19.203   5.308  11.575
42424W        W 6632  19.659  17.259  10.955
42425W        W 6633  35.406   4.276  14.409
42426W        W 6634  23.212  42.902  12.563
42427W        W 6635  23.491  27.088  14.467
42428W        W 6636  20.751   2.756  13.419
42429W        W 6637  10.826  35.970   3.278
42430W        W 6638  31.618  28.058   4.275
42431W        W 6639  14.280  38.036  14.816
42432W        W 6640  11.660  13.691   1.339
42433W        W 6641  22.093  10.829   4.316
42434W        W 6642  43.289  37.519  10.496
42435W        W 6643  32.915  21.558   2.373
42436W        W 6644  27.551   3.216   2.310
42437W        W 6645   9.311  42.373   2.687
42438W        W 6646  10.359  21.147  11.912
42439W        W 6647   6.314  34.061   2.721
42440W        W 6648  14.618  31.431  12.944
42441W        W 6649  32.391  44.259   1.766
42442W        W 6650  36.074  16.098   0.848
42443W        W 6651  11.679   6.239  12.828
42444W        W 6652  26.505   0.452   3.794
42445W        W 6653  10.833   4.913  13.040
42446W        W 6654  32.409  29.648   4.745
42447W        W 6655  24.141   2.454   2.295
42448W        W 6656  20.049  23.040  13.983
42449W        W 6657  26.555  33.007   3.722
42450W        W 6658  25.546  19.086   3.868
42451W        W 6659  19.735  17.669  13.882
42452W        W 6660  42.910  36.944   1.346
42453W        W 6661  21.622  22.133   3.295
42454W        W 6662  14.200  18.173  10.408
42455W        W 6663  22.544  44.273   4.828
42456W        W 6664  39.820  29.986   2.359
42457W        W 6665  32.543  10.214  11.410
42458W        W 6666   7.765  32.448  12.385
42459W        W 6667   0.848  18.064   1.377
42460W        W 6668  43.983  26.076  14.871
42461W        W 6669  31.982  42.836  14.510
42462W        W 6670  40.858   8.659   2.787
42463W        W 6671   5.271   8.673   2.886
42464W        W 6672  25.487  43.475   1.211
42465W        W 6673   3.383   6.239   5.149
42466W        W 6674  24.534  15.122   0.310
42467W        W 6675  24.048  12.636  11.440
42468W        W 6676  10.699  23.192   2.411
42469W        W 6677  28.107   1.328   4.781
42470W        W 6678  40.453  42.002   0.391
42471W        W 6679  40.505  18.225  10.974
42472W        W 6680  27.551  24.610   3.797
42473W        W 6681  32.008  29.589   0.857
42474W        W 6682  14.668  42.480   2.262
42475W        W 6683  36.404  29.045   0.902
42476W        W 6684   8.696  24.042   4.136
42477W        W 6685  32.913  20.643   1.239
42478W        W 6686  37.890  39.548  11.530
42479W        W 6687  23.617  13.717   2.731
42480W        W 6688   2.359  14.619  10.939
42481W        W 6689  20.601  39.849   1.857
42482W        W 6690  20.573   9.300  14.953
42483W        W 6691  26.590   2.409  14.977
42484W        W 6692  23.059  37.517   0.736
42485W        W 6693  27.487   1.372   3.791
42486W        W 6694  29.442  28.089   3.682
42487W        W 6695  36.517   2.902   2.687
42488W        W 6696  12.143   2.231   0.292
42489W        W 6697  21.573   6.838  12.497
42490W        W 6698  25.220  39.005   0.413
42491W        W 6699   6.783  16.713  14.973
42492W        W 6700  31.419  17.779   2.830
42493W        W 6701  42.472  16.210  12.055
42494W        W 6702  13.150  33.893  13.342
42495W        W 6703  43.932  36.472  10.517
42496W        W 6704  24.485  20.534  11.077
42497W        W 6705  34.935   1.377  13.523
42498W        W 6706  25.554  17.279  11.041
42499W        W 6707  26.670  17.724  14.279
42500W        W 6708   2.881  29.444   4.150
42501W        W 6709  24.523   4.710   0.243
42502W        W 6710  30.150  42.956   4.689
42503W        W 6711  24.568   6.388   2.665
42504W        W 6712  17.722   5.409  12.022
42505W        W 6713  41.352  39.881   2.261
42506W        W 6714  11.642   9.341   2.829
42507W        W 6715   5.707   4.376   2.334
42508W        W 6716  19.157  17.664   3.751
42509W        W 6717   7.714  41.432   4.303
42510W        W 6718   2.782  40.512   3.153
42511W        W 6719  41.510   9.302  13.383
42512W        W 6720  33.055   2.419  10.938
42513W        W 6721   6.248  23.523  13.885
42514W        W 6722  38.555  14.310   0.823
42515W        W 6723   5.439  32.081   3.870
42516W        W 6724   5.255  37.941   0.868
42517W        W 6725  29.513   9.212   4.348
42518W        W 6726  25.091  40.916  14.449
42519W        W 6727   1.325   3.721   2.413
42520W        W 6728  26.081   5.925   2.890
42521W        W 6729  12.778  43.320   2.803
42522W        W 6730  10.829   4.401  14.322
42523W        W 6731   5.800  43.276  13.055
42524W        W 6732  28.476   4.927  10.549
42525W        W 6733   4.790  14.696   2.744
42526W        W 6734  17.708  34.865   0.295
42527W        W 6735  33.472  38.475   1.227
42528W        W 6736  32.017   5.281   2.367
42529W        W 6737  19.585  30.475  11.081
42530W        W 6738   8.376  40.838  12.825
42531W        W 6739   7.410   6.908   0.809
42532W        W 6740  30.024  13.336   2.730
42533W        W 6741   9.181  26.152   0.255
42534W        W 6742  10.662  17.568  11.472
42535W        W 6743  40.916   3.719   3.179
42536W        W 6744   6.377  11.165  14.950
42537W        W 6745  16.581   1.898   0.792
42538W        W 6746  19.129   4.254   5.619
42539W        W 6747  36.562  33.555  11.976
42540W        W 6748  24.107   0.367  10.541
42541W        W 6749  37.432  41.480   2.671
42542W        W 6750   2.941  37.376  13.813
42543W        W 6751  30.991  39.977  11.033
42544W        W 6752  34.542  21.147   4.200
42545W        W 6753  23.217  33.517  12.388
42546W        W 6754  25.564  30.941   0.783
42547W        W 6755   1.376  22.240   2.321
42548W        W 6756  22.619  16.124  12.355
42549W        W 6757  29.502  30.920   0.799
42550W        W 6758  24.176  30.613   0.279
42551W        W 6759  44.503  31.547  11.026
42552W        W 6760  28.435  38.023   0.728
42553W        W 6761   1.785   9.819  11.051
42554W        W 6762  13.737  17.676  10.537
42555W        W 6763  16.748  12.181  10.479
42556W        W 6764  41.318  23.682   1.763
42557W        W 6765  24.613  15.713   2.767
42558W        W 6766   4.848  16.644  12.406
42559W        W 6767  11.344  27.551  11.998
42560W        W 6768  33.932   2.825   2.783
42561W        W 6769   0.942  26.462  14.851
42562W        W 6770  34.985  40.539   3.833
42563W        W 6771  40.956  34.553   2.859
42564W        W 6772  20.581  37.055   9.677
42565W        W 6773   3.414  42.974  14.871
42566W        W 6774  10.670  19.130  12.838
42567W        W 6775  28.932  28.519   4.611
42568W        W 6776  38.059  43.375  14.933
42569W        W 6777  40.822   8.188  14.406
42570W        W 6778  26.630  38.455   0.312
42571W        W 6779  18.566  21.050   5.163
42572W        W 6780  40.943  37.975   4.191
42573W        W 6781  29.432  30.550   2.713
42574W        W 6782   6.333  19.156   4.164
42575W        W 6783  13.223  39.446   4.665
42576W        W 6784  12.840  26.694  13.383
42577W        W 6785  28.986  39.432  12.346
42578W        W 6786  24.000   0.442   4.165
42579W        W 6787  20.738   4.210  14.883
42580W        W 6788  33.402  11.298   2.282
42581W        W 6789  30.439   1.914   3.181
42582W        W 6790  33.418  28.024  13.513
42583W        W 6791   0.965  40.955  14.963
42584W        W 6792  44.321  12.249  10.409
42585W        W 6793  26.507  30.469   4.263
42586W        W 6794  12.125  14.805  10.641
42587W        W 6795  26.060   8.739  12.854
42588W        W 6796  22.194  37.489   0.322
42589W        W 6797  43.918  16.755   3.327
42590W        W 6798  17.714  39.327  13.365
42591W        W 6799  17.134   5.780  13.904
42592W        W 6800  34.459  20.094   4.716
42593W        W 6801  29.568  41.493   4.619
42594W        W 6802  25.569  22.138   3.710
42595W        W 6803   1.392  28.073   1.930
42596W        W 6804  37.885   5.275  14.788
42597W        W 6805  40.434  40.042   1.224
42598W        W 6806  16.795   8.685   2.307
42599W        W 6807  27.509  37.536   2.806
42600W        W 6808  41.416  12.640  13.482
42601W        W 6809   6.320  28.560   3.313
42602W        W 6810  41.527  23.543   3.783
42603W        W 6811  19.772   7.367  12.921
42604W        W 6812  10.353  13.629   3.373
42605W        W 6813  39.941  23.492  14.025
42606W        W 6814  42.891  17.191   0.758
42607W        W 6815   9.271  40.501   1.371
42608W        W 6816  15.806  38.850   0.423
42609W        W 6817   7.335  40.413  13.362
42610W        W 6818   5.871  44.366  11.057
42611W        W 6819   8.343  40.453   1.444
42612W        W 6820  32.555  44.364   2.876
42613W        W 6821  36.059  10.694  12.386
42614W        W 6822  43.471  44.371   3.790
42615W        W 6823   3.872   5.431  10.894
42616W        W 6824  38.545   4.334  12.359
42617W        W 6825  14.183  33.428   2.190
42618W        W 6826  27.960  12.142   4.345
42619W        W 6827   0.343  27.681  11.458
42620W        W 6828   6.378   9.193   4.718
42621W        W 6829  20.596  16.742   0.759
42622W        W 6830  26.669  13.106  10.952
42623W        W 6831  25.531  36.956  13.467
42624W        W 6832   9.319  44.380  13.970
42625W        W 6833  33.095  39.346  10.488
42626W        W 6834  10.185  30.510  14.929
42627W        W 6835  13.186  44.380   9.962
42628W        W 6836  25.213  43.976   2.225
42629W        W 6837  28.969  23.049   1.910
42630W        W 6838  21.757   1.258   1.223
42631W        W 6839  35.905  38.021   3.202
42632W        W 6840  43.321  13.757  11.010
42633W        W 6841  16.123  32.573   4.146
42634W        W 6842  16.733  34.423   0.357
42635W        W 6843  40.029   1.842  10.496
42636W        W 6844  35.997  14.778   1.216
42637W        W 6845   9.351  42.932  10.922
42638W        W 6846  10.156  43.507   1.424
42639W        W 6847  14.681  23.545   4.283
42640W        W 6848   4.943  17.744  14.814
42641W        W 6849  14.608  27.188  12.352
42642W        W 6850  13.140   2.962   3.351
42643W        W 6851  18.598   0.358   4.242
42644W        W 6852  41.352   5.821   1.243
42645W        W 6853  19.711  39.893   2.693
42646W        W 6854  34.049  23.721   2.409
42647W        W 6855   4.869  13.348   0.794
42648W        W 6856  33.937   0.355  12.838
42649W        W 6857  30.034   5.830  10.512
42650W        W 6858  13.143  30.446   2.887
42651W        W 6859  27.170  35.561   3.629
42652W        W 6860  38.571  39.413  13.036
42653W        W 6861  43.509  13.261   4.741
42654W        W 6862  27.467  11.850   3.758
42655W        W 6863  42.814  11.369  12.057
42656W        W 6864  32.528  17.255  12.392
42657W        W 6865  43.380  12.667  14.918
42658W        W 6866   2.263  13.243   0.313
42659W        W 6867  17.210  40.003  13.502
42660W        W 6868  41.922  10.376  11.061
42661W        W 6869  20.556  32.007   4.336
42662W        W 6870  27.015  27.490  14.782
42663W        W 6871  22.546  18.646  14.376
42664W        W 6872  36.033   9.703  14.326
42665W        W 6873  22.555  44.294  11.489
42666W        W 6874  15.731  44.806   0.292
42667W        W 6875   3.728  32.517   3.315
42668W        W 6876   0.363   9.152  13.931
42669W        W 6877  37.025  19.555   1.697
42670W        W 6878  27.140  18.084   0.341
42671W        W 6879  34.484  22.715  10.996
42672W        W 6880   8.272   5.881   1.916
42673W        W 6881  28.934  38.400  12.895
42674W        W 6882  40.856   6.270   2.858
42675W        W 6883  37.081  30.614  11.877
42676W        W 6884  41.295  21.027   2.337
42677W        W 6885  19.235  34.541   3.663
42678W        W 6886  13.191   7.262  12.506
42679W        W 6887  32.955  29.093   0.745
42680W        W 6888  24.025  44.931  12.370
42681W        W 6889  23.006  23.018   0.790
42682W        W 6890  15.795   7.264  13.992
42683W        W 6891  17.261  24.593  11.871
42684W        W 6892  24.516  28.436  12.074
42685W        W 6893  30.513   8.882   2.763
42686W        W 6894  44.401   8.771  13.505
42687W        W 6895  22.210  38.527  12.848
42688W        W 6896  11.679  39.385   2.206
42689W        W 6897  24.184  18.198  12.884
42690W        W 6898  32.474  16.744   5.191
42691W        W 6899  10.310  37.002   1.405
42692W        W 6900  20.096  43.363  12.512
42693W        W 6901   0.786  23.198   0.921
42694W        W 6902  12.753  15.698   1.331
42695W        W 6903  14.800  16.136   0.923
42696W        W 6904  38.982  23.558   2.762
42697W        W 6905   3.843  29.132  13.349
42698W        W 6906  43.792  22.158   0.912
42699W        W 6907  34.447  10.849   3.292
42700W        W 6908   7.742  34.510   0.352
42701W        W 6909  20.234  10.690   3.232
42702W        W 6910  34.553   2.296  11.423
42703W        W 6911  28.052  35.900  13.963
42704W        W 6912  12.692  25.492  12.432
42705W        W 6913  21.173  44.404   1.748
42706W        W 6914  30.936  12.177  14.422
42707W        W 6915  29.453  20.690  11.059
42708W        W 6916  31.637  13.349   2.284
42709W        W 6917  43.403  43.884   4.143
42710W        W 6918  12.795  24.639  12.862
42711W        W 6919  27.169  16.155   2.305
42712W        W 6920   8.333  29.997   4.816
42713W        W 6921   5.865  40.506  11.036
42714W        W 6922  27.517  19.158   3.677
42715W        W 6923  10.139   1.242  14.323
42716W        W 6924   7.325  12.119  10.006
42717W        W 6925  26.545  36.488   1.288
42718W        W 6926  26.583  15.647  11.408
42719W        W 6927  15.113   3.223  14.011
42720W        W 6928   1.246  38.028  10.476
42721W        W 6929   0.864  14.297  12.404
42722W        W 6930   0.894   3.814   5.626
42723W        W 6931  28.570  16.202   9.578
42724W        W 6932  40.865   4.413  13.308
42725W        W 6933  35.940  40.972   3.275
42726W        W 6934  14.739  44.991  13.522
42727W        W 6935  36.019  20.690  13.346
42728W        W 6936   2.811  20.692   3.146
42729W        W 6937  23.121  32.891   0.911
42730W        W 6938   6.384  36.079   1.256
42731W        W 6939  28.097   0.494   0.384
42732W        W 6940  33.557  21.717   1.405
42733W        W 6941  14.173  10.252  11.909
42734W        W 6942  33.465   2.251  14.900
42735W        W 6943  21.050  25.194   0.862
42736W        W 6944   7.713  24.991  13.433
42737W        W 6945  23.581  33.959  14.455
42738W        W 6946   4.447  39.528   0.796
42739W        W 6947  41.468  32.886  10.490
42740W        W 6948   3.402   3.263  13.014
42741W        W 6949  12.231  17.632   4.167
42742W        W 6950  38.363  25.125  10.978
42743W        W 6951  15.659   8.797   3.338
42744W        W 6952  32.116  26.574   1.422
42745W        W 6953  23.592  25.149  12.079
42746W        W 6954  15.210  33.095  12.076
42747W        W 6955   7.374  32.472  14.471
42748W        W 6956  12.641  22.567  11.564
42749W        W 6957   2.275   2.415  13.798
42750W        W 6958   0.376   4.427   3.341
42751W        W 6959  27.515   7.743  11.412
42752W        W 6960  20.716  33.041  12.917
42753W        W 6961  17.595   4.836   3.299
42754W        W 6962  42.419  13.262   3.789
42755W        W 6963  29.512   7.685   0.799
42756W        W 6964   1.286   7.275   3.663
42757W        W 6965  11.787  23.692   0.894
42758W        W 6966  24.669  36.383  10.407
42759W        W 6967  27.585  27.054   1.919
42760W        W 6968  44.384  36.958   4.673
42761W        W 6969  24.208  27.192  11.521
42762W        W 6970   0.356  15.592  14.302
42763W        W 6971  36.430  13.768   1.753
42764W        W 6972  27.082  12.819  10.542
42765W        W 6973  14.635  22.510  13.830
42766W        W 6974   3.948  43.408   3.346
42767W        W 6975  33.441   9.159   2.711
42768W        W 6976  41.828  23.731  11.064
42769W        W 6977  38.387   2.926   4.346
42770W        W 6978  18.567  30.517  10.499
42771W        W 6979  14.821  38.034  13.429
42772W        W 6980  24.204  19.103   2.879
42773W        W 6981   2.852  43.822  13.426
42774W        W 6982   3.363   7.230   2.347
42775W        W 6983  36.899  44.864   1.864
42776W        W 6984  35.988  27.129  11.544
42777W        W 6985  27.961  23.605   1.720
42778W        W 6986  14.193   9.679   1.338
42779W        W 6987  41.296  21.705  10.431
42780W        W 6988  27.015  30.003  11.935
42781W        W 6989  35.377  21.529  12.438
42782W        W 6990  25.990  28.061  11.970
42783W        W 6991   3.895   1.285   2.358
42784W        W 6992   6.404  26.080   2.881
42785W        W 6993  33.948  32.125  13.840
42786W        W 6994  20.669  40.969   2.771
42787W        W 6995  34.377  43.793  10.447
42788W        W 6996   1.427  33.050  13.369
42789W        W 6997  32.111  24.994  13.385
42790W        W 6998   5.402  20.731   3.852
42791W        W 6999  16.247   5.366  14.842
42792W        W 7000  18.746   8.730  12.981
42793W        W 7001  28.467   8.856  12.000
42794W        W 7002  34.574  37.056   0.896
42795W        W 7003   7.813   7.820  11.570
42796W        W 7004  24.229  33.973  12.009
42797W        W 7005   7.769  36.494  13.808
42798W        W 7006   3.901  26.001   0.831
42799W        W 7007   6.414  23.681  11.609
42800W        W 7008  26.458  25.606   2.772
42801W        W 7009  12.216   1.385   4.297
42802W        W 7010  17.704  17.764   3.230
42803W        W 7011  11.822  20.077   2.805
42804W        W 7012  42.334  43.381   1.879
42805W        W 7013  25.115  29.166  12.371
42806W        W 7014  36.886  15.267   2.313
42807W        W 7015   2.259  16.188   0.777
42808W        W 7016   8.672  28.500  13.911
42809W        W 7017   6.361  14.252   4.617
42810W        W 7018  12.330  11.324   2.855
42811W        W 7019  33.889  13.754   2.868
42812W        W 7020  29.009  18.643   2.354
42813W        W 7021  41.473  26.698  11.058
42814W        W 7022  30.498   0.306   2.251
42815W        W 7023   6.705  34.919   3.374
42816W        W 7024   4.260   9.315   4.215
42817W        W 7025  24.207  34.112  12.987
42818W        W 7026  19.635  38.473  11.022
42819W        W 7027  17.190   7.356   3.853
42820W        W 7028  25.616   0.441   0.782
42821W        W 7029   2.936  41.329   0.761
42822W        W 7030  22.577   4.859   1.913
42823W        W 7031  13.635  13.732   1.271
42824W        W 7032   6.731  21.075   5.198
42825W        W 7033   4.725  37.031   4.599
42826W        W 7034  42.491  39.061   2.419
42827W        W 7035  41.491   1.791   1.413
42828W        W 7036  22.628  38.340   3.865
42829W        W 7037   8.358  24.224   4.670
42830W        W 7038   3.298  36.351  14.400
42831W        W 7039  23.147  26.542  12.468
42832W        W 7040   5.701  35.096   1.428
42833W        W 7041  44.871  20.728   3.170
42834W        W 7042  22.710  27.019  14.444
42835W        W 7043  23.490   1.911   3.636
42836W        W 7044  23.201  36.555   4.166
42837W        W 7045  36.484  44.930  10.925
42838W        W 7046  29.626   9.655  13.020
42839W        W 7047   9.274  42.897   2.692
42840W        W 7048  20.724  31.899   3.859
42841W        W 7049  29.637  21.153  14.962
42842W        W 7050  15.818  29.440   1.219
42843W        W 7051  34.567  24.634   2.236
42844W        W 7052   9.802  33.896   3.183
42845W        W 7053  38.459  27.583   4.197
42846W        W 7054  39.902   0.861  13.023
42847W        W 7055  35.482   9.796  12.398
42848W        W 7056  16.693   6.290   2.806
42849W        W 7057  13.615   7.815   4.354
42850W        W 7058  28.558  43.312   0.819
42851W        W 7059  17.072  42.032   2.763
42852W        W 7060   9.326  22.204   3.798
42853W        W 7061  31.641  37.916  10.515
42854W        W 7062  10.841  26.193  14.008
42855W        W 7063  28.942  12.225   0.477
42856W        W 7064  15.691  39.527   4.772
42857W        W 7065  13.139  34.970   0.339
42858W        W 7066  13.693  11.204   2.186
42859W        W 7067  10.327  40.987  12.909
42860W        W 7068  20.726  37.516   0.359
42861W        W 7069  26.183  37.948   1.790
42862W        W 7070  24.508  31.436  14.772
42863W        W 7071  17.707  31.012   2.385
42864W        W 7072   0.453   0.912   9.984
42865W        W 7073  24.211  44.964  13.468
42866W        W 7074  41.368  21.562  14.935
42867W        W 7075  38.421  35.399   1.842
42868W        W 7076  44.449  11.216   1.912
42869W        W 7077   0.390  41.385   0.367
42870W        W 7078   9.788  29.515  10.549
42871W        W 7079  10.257  23.107   0.821
42872W        W 7080  28.078  20.610  13.831
42873W        W 7081  36.928  31.048   0.811
42874W        W 7082   9.678  43.840   4.231
42875W        W 7083  12.724  43.772  14.017
42876W        W 7084  43.911  32.556   3.697
42877W        W 7085  29.922  17.649  12.831
42878W        W 7086  34.527   6.191  12.823
42879W        W 7087  37.846   7.783  12.010
42880W        W 7088  20.187  24.091   2.686
42881W        W 7089  43.441  37.529  13.025
42882W        W 7090  23.119  29.135  10.591
42883W        W 7091   5.814   7.361  13.917
42884W        W 7092  16.191  25.198  13.027
42885W        W 7093  12.798  13.111  11.095
42886W        W 7094   4.703  21.566   0.277
42887W        W 7095  24.690  28.577  13.536
42888W        W 7096   2.460  44.465  13.007
42889W        W 7097  32.490   5.404  11.530
42890W        W 7098  13.319  22.658   3.203
42891W        W 7099  34.921   4.752   1.835
42892W        W 7100  36.424  29.544   2.408
42893W        W 7101  27.982  27.598  12.541
42894W        W 7102  36.593  31.986   4.658
42895W        W 7103   2.418  41.981  14.863
42896W        W 7104  24.666   6.874  14.946
42897W        W 7105   9.798  26.520   2.798
42898W        W 7106  42.015  32.573  14.772
42899W        W 7107  40.538  15.769  14.987
42900W        W 7108   4.325  39.347   4.274
42901W        W 7109  17.738  16.148  12.837
42902W        W 7110   6.370  41.809  11.036
42903W        W 7111  10.642  33.068  14.905
42904W        W 7112  19.720  26.067  13.312
42905W        W 7113  18.143  29.136  14.897
42906W        W 7114  43.364  39.943  12.508
42907W        W 7115  22.141  14.747   3.287
42908W        W 7116  44.361  42.287  11.079
42909W        W 7117   5.206   1.361  11.047
42910W        W 7118  11.317   2.395  14.374
42911W        W 7119   9.366  20.641   4.768
42912W        W 7120  11.352  15.150  13.911
42913W        W 7121  41.041  26.677   2.379
42914W        W 7122  16.595  32.434   3.702
42915W        W 7123  10.314  34.875  11.507
42916W        W 7124  20.253  13.791   1.733
42917W        W 7125   5.295   2.936  11.532
42918W        W 7126  16.734  22.665   4.342
42919W        W 7127  15.115  33.519  12.091
42920W        W 7128  28.485   7.270  12.922
42921W        W 7129  26.983  16.761  11.954
42922W        W 7130  35.365  43.876  10.889
42923W        W 7131  24.203   0.857  10.024
42924W        W 7132   9.889  25.121   1.895
42925W        W 7133  34.114  31.432  11.073
42926W        W 7134  24.591   4.381   0.328
42927W        W 7135  32.036  12.166   3.718
42928W        W 7136   1.778   1.295  13.791
42929W        W 7137  32.559  17.657   1.759
42930W        W 7138  37.876   9.278  11.053
42931W        W 7139  26.523  40.414  12.855
42932W        W 7140  19.771  30.104   1.412
42933W        W 7141  21.519  29.628   3.335
42934W        W 7142  33.951   3.921  13.401
42935W        W 7143  22.709  19.181  14.508
42936W        W 7144   2.734  28.929   4.822
42937W        W 7145  35.857  22.035  13.050
42938W        W 7146  29.642  15.241  12.487
42939W        W 7147  20.132   1.372  14.284
42940W        W 7148   2.304  14.290  14.474
42941W        W 7149  42.476  19.670  11.500
42942W        W 7150  19.717  31.488   1.256
42943W        W 7151  15.229   0.400   2.375
42944W        W 7152  24.139  39.985   2.865
42945W        W 7153   1.831  27.063  14.494
42946W        W 7154  23.505  35.061  10.998
42947W        W 7155   3.450  18.277   4.612
42948W        W 7156  19.096  44.982  10.475
42949W        W 7157  26.954  33.054  14.940
42950W        W 7158   8.779  35.929   1.267
42951W        W 7159   3.305  42.991   5.314
42952W        W 7160  37.508  25.134  14.811
42953W        W 7161  21.638  40.020  10.633
42954W        W 7162  27.978  11.675   3.192
42955W        W 7163  33.909   8.356   2.298
42956W        W 7164   3.368  19.584  14.430
42957W        W 7165  13.772   0.343  14.934
42958W        W 7166  10.346  40.866   3.744
42959W        W 7167  39.896   0.783  12.409
42960W        W 7168  25.658  34.583  14.007
42961W        W 7169  36.355   2.410  14.902
42962W        W 7170  36.421  19.120   3.655
42963W        W 7171  43.310  41.879  10.888
42964W        W 7172  41.920  41.037   4.114
42965W        W 7173  33.071   5.872   2.901
42966W        W 7174  20.141  21.115   0.447
42967W        W 7175  38.978  35.538  10.891
42968W        W 7176  27.096  21.602  13.976
42969W        W 7177  10.661  27.491   3.786
42970W        W 7178  31.953   5.727   1.845
42971W        W 7179  42.956  40.034   3.718
42972W        W 7180   0.964  16.309   3.785
42973W        W 7181  31.562  16.095  14.350
42974W        W 7182  34.612  34.438  13.007
42975W        W 7183  35.365   2.420  12.385
42976W        W 7184  14.230  22.717  14.798
42977W        W 7185  30.094  12.244   2.848
42978W        W 7186  44.938  18.627  14.999
42979W        W 7187   8.698  31.976   4.303
42980W        W 7188  13.197  22.556  10.059
42981W        W 7189  38.002  15.675   1.238
42982W        W 7190  23.998  21.183   0.727
42983W        W 7191  14.696  12.717   4.352
42984W        W 7192  43.003  20.051   1.255
42985W        W 7193   8.724  19.173  11.013
42986W        W 7194  25.155  11.674   4.216
42987W        W 7195  12.357  12.340   3.270
42988W        W 7196  26.560  24.486  11.929
42989W        W 7197   5.808   4.765  14.306
42990W        W 7198  28.078  12.153  10.473
42991W        W 7199   4.890  14.108  10.047
42992W        W 7200  32.078  39.949   4.802
42993W        W 7201  27.594  33.999  12.361
42994W        W 7202  24.706  12.821  11.424
42995W        W 7203  22.217  17.754  13.428
42996W        W 7204   9.386   1.315  14.482
42997W        W 7205  25.543  37.885   1.927
42998W        W 7206   0.317   0.280   2.699
42999W        W 7207  37.917  35.547  13.479
43000W        W 7208   1.887   6.900   2.851
43001W        W 7209  13.299  22.650  11.500
43002W        W 7210  39.401  19.254  12.505
43003W        W 7211  20.097  17.111   0.473
43004W        W 7212  13.316  18.189   1.450
43005W        W 7213  44.396  43.779   4.712
43006W        W 7214  12.213  29.090  10.618
43007W        W 7215  39.890  22.670  12.091
43008W        W 7216  27.510  18.156  14.325
43009W        W 7217  29.937  19.555   0.874
43010W        W 7218  43.351  18.732  11.947
43011W        W 7219  25.217  11.371  14.381
43012W        W 7220  29.640  40.925  13.542
43013W        W 7221   1.289  18.636   1.775
43014W        W 7222  22.083  25.479   1.891
43015W        W 7223   1.742  22.558  12.951
43016W        W 7224   6.288   7.333   4.641
43017W        W 7225  42.365  41.460   0.467
43018W        W 7226   3.819  26.700   1.349
43019W        W 7227  39.313  29.461  14.983
43020W        W 7228  12.320  37.439  14.339
43021W        W 7229  11.352  27.586  13.961
43022W        W 7230  36.095  39.811  10.542
43023W        W 7231  42.965  33.887   2.180
43024W        W 7232  13.630  34.919  12.427
43025W        W 7233  43.507  37.376   1.710
43026W        W 7234  39.494  32.510  12.573
43027W        W 7235   1.313  10.229  10.979
43028W        W 7236  13.160  42.320   2.798
43029W        W 7237  30.636  14.825  12.987
43030W        W 7238  16.108  34.413   2.386
43031W        W 7239  12.806  18.072   4.787
43032W        W 7240  36.392  16.097  14.410
43033W        W 7241   8.828  28.610   2.770
43034W        W 7242  13.604   3.787   2.294
43035W        W 7243   2.935  44.824   3.258
43036W        W 7244  29.530   7.759  12.831
43037W        W 7245  24.159  17.649   2.312
43038W        W 7246  11.826  19.076  14.929
43039W        W 7247  35.534  21.544   1.334
43040W        W 7248  28.611  24.514  14.279
43041W        W 7249   2.250  27.647  10.539
43042W        W 7250  34.927   9.653  14.876
43043W        W 7251  19.639  17.300  12.500
43044W        W 7252  30.617  43.490  12.413
43045W        W 7253  39.399  42.284   0.957
43046W        W 7254   1.321  16.148   4.207
43047W        W 7255  31.554  31.587   3.244
43048W        W 7256  33.042  19.646  13.531
43049W        W 7257  11.297  38.955  14.985
43050W        W 7258  40.899  13.180  10.638
43051W        W 7259  44.464  36.054   4.241
43052W        W 7260   9.152  35.359  11.950
43053W        W 7261  18.684   4.840  13.341
43054W        W 7262  10.272  39.058  11.903
43055W        W 7263  14.665  11.347  11.441
43056W        W 7264  42.954  41.328   1.790
43057W        W 7265  34.001  39.556  13.876
43058W        W 7266  32.048  23.072   0.400
43059W        W 7267  14.649  19.555  10.519
43060W        W 7268   5.430  36.508   3.336
43061W        W 7269   0.841  41.492   2.747
43062W        W 7270   0.902  35.889  14.368
43063W        W 7271  35.893  15.743  12.394
43064W        W 7272  31.409  21.226  14.990
43065W        W 7273  34.594  10.270   1.897
43066W        W 7274   7.722  42.331  13.886
43067W        W 7275  33.540  22.014  12.897
43068W        W 7276  41.467   0.962  10.595
43069W        W 7277  33.935  37.938   4.282
43070W        W 7278  20.103   2.879   3.764
43071W        W 7279  26.516  19.141  14.454
43072W        W 7280   1.839  34.405   1.425
43073W        W 7281  32.036  30.124   1.831
43074W        W 7282  10.314  40.887   4.134
43075W        W 7283  42.826  12.840  12.020
43076W        W 7284  12.162  12.837  13.457
43077W        W 7285  17.211  19.634   0.867
43078W        W 7286  37.866  34.949  13.396
43079W        W 7287  19.697  31.436   4.114
43080W        W 7288   7.907  20.684   1.217
43081W        W 7289  13.625  12.680   2.407
43082W        W 7290   1.969  12.222  12.465
43083W        W 7291  19.216  40.914   0.318
43084W        W 7292  26.645   7.675   2.888
43085W        W 7293   7.863  36.447  14.497
43086W        W 7294  38.488  27.627  12.364
43087W        W 7295  23.697   5.421  12.441
43088W        W 7296  28.545  15.709   1.874
43089W        W 7297  37.542  42.472  13.415
43090W        W 7298  23.491  16.682   4.240
43091W        W 7299  25.608   3.294   2.330
43092W        W 7300  41.819  40.873   1.375
43093W        W 7301  27.670  10.349   4.665
43094W        W 7302  31.599  25.576  10.890
43095W        W 7303  11.165  44.757   3.777
43096W        W 7304   4.249  40.015  10.459
43097W        W 7305  41.309  44.940  10.899
43098W        W 7306  39.022  36.845   0.864
43099W        W 7307  22.506   5.389  12.939
43100W        W 7308   9.828   8.656   2.414
43101W        W 7309  43.343   8.358   1.374
43102W        W 7310  44.413  14.253   4.793
43103W        W 7311  23.655  18.297  10.478
43104W        W 7312  28.610  12.640  10.557
43105W        W 7313  39.930  44.852   0.928
43106W        W 7314  44.311  30.515   0.256
43107W        W 7315  22.560  37.443  13.355
43108W        W 7316   8.696  34.583   0.309
43109W        W 7317  25.985  19.145   2.839
43110W        W 7318  34.874  24.980  13.504
43111W        W 7319  21.715  36.586   1.237
43112W        W 7320   2.936   4.404  12.438
43113W        W 7321  14.242  23.627   2.851
43114W        W 7322  35.033  10.275  10.092
43115W        W 7323  31.026  40.016  13.472
43116W        W 7324  16.228  40.542   4.174
43117W        W 7325   1.914  38.855  14.943
43118W        W 7326  40.473  26.572  12.033
43119W        W 7327  36.028   8.332  12.477
43120W        W 7328  43.791   1.896   5.168
43121W        W 7329  22.235  24.222   1.800
43122W        W 7330  15.112  33.043  13.945
43123W        W 7331  38.523  14.786   0.445
43124W        W 7332  27.127  35.990  11.885
43125W        W 7333  39.515  31.012   2.313
43126W        W 7334  35.979  37.339   2.845
43127W        W 7335  13.651  31.623  14.373
43128W        W 7336   5.391  12.154   0.326
43129W        W 7337   7.236  40.470   0.383
43130W        W 7338  42.861  42.417   0.875
43131W        W 7339  36.490  28.655   1.281
43132W        W 7340   4.822  10.791  10.458
43133W        W 7341   8.172   2.896   2.250
43134W        W 7342  19.158   5.314   5.197
43135W        W 7343   6.373  28.619  10.498
43136W        W 7344  35.997  18.206  11.546
43137W        W 7345  31.440  26.509  14.278
43138W        W 7346  11.312  36.382  13.501
43139W        W 7347   3.395   9.324   0.743
43140W        W 7348  13.631  41.433  11.522
43141W        W 7349   9.858  35.449  13.036
43142W        W 7350  25.076  17.198   4.248
43143W        W 7351  18.702  20.664  13.802
43144W        W 7352  30.148  15.773   1.735
43145W        W 7353  27.512  14.722   0.836
43146W        W 7354  40.459  42.927  11.380
43147W        W 7355  33.485   6.364   2.286
43148W        W 7356   8.276  44.761  11.405
43149W        W 7357  26.177   2.772  14.854
43150W        W 7358  36.003  22.037   1.361
43151W        W 7359   4.347  24.654  13.419
43152W        W 7360   5.295  42.954  11.866
43153W        W 7361  17.712  21.665   0.480
43154W        W 7362  30.966  31.595  13.338
43155W        W 7363  22.683  44.344  12.074
43156W        W 7364   5.237  15.743  12.523
43157W        W 7365  21.640  28.470  12.485
43158W        W 7366   7.348   7.408  11.009
43159W        W 7367   7.698  19.126   4.303
43160W        W 7368  30.510  37.940   0.798
43161W        W 7369   2.343  30.080  13.947
43162W        W 7370  22.640  36.957   1.921
43163W        W 7371  34.389  43.815   1.850
43164W        W 7372  32.125  39.381  13.794
43165W        W 7373  43.012  42.010   3.180
43166W        W 7374  12.667  17.135   1.707
43167W        W 7375  29.130   1.911  10.930
43168W        W 7376   3.281  36.484   3.217
43169W        W 7377  22.719  16.716  13.373
43170W        W 7378  29.140  28.140  11.554
43171W        W 7379  12.221  20.697   1.846
43172W        W 7380  21.547  25.133  14.813
43173W        W 7381  12.323  44.771   2.795
43174W        W 7382   3.808  20.106  13.810
43175W        W 7383  36.483  23.992  12.887
43176W        W 7384  14.280  25.519  13.529
43177W        W 7385  41.813  14.244  13.525
43178W        W 7386  23.225  27.128   3.854
43179W        W 7387  18.654  17.648  11.077
43180W        W 7388   0.486   0.329  13.803
43181W        W 7389   6.756  44.947   1.871
43182W        W 7390  26.077   4.811  13.823
43183W        W 7391  26.131  19.179   0.796
43184W        W 7392  35.005  15.269   0.763
43185W        W 7393  13.839  30.110  13.867
43186W        W 7394  32.888  21.237  14.413
43187W        W 7395  12.724  28.521  14.381
43188W        W 7396  18.578  34.991  11.463
43189W        W 7397  31.527  26.194  13.471
43190W        W 7398  43.444  43.989   3.689
43191W        W 7399  12.675  26.189   1.790
43192W        W 7400  19.636  21.729  14.859
43193W        W 7401  33.587  15.244   0.460
43194W        W 7402  41.830  14.274   9.947
43195W        W 7403  19.718  14.219  14.497
43196W        W 7404   4.711  44.308  13.332
43197W        W 7405  31.636  24.111   0.959
43198W        W 7406   3.402   6.278   0.441
43199W        W 7407   8.300   3.306  14.852
43200W        W 7408  43.883   3.266  10.022
43201W        W 7409  43.316  14.229  10.443
43202W        W 7410  27.533  38.076   0.365
43203W        W 7411  11.738  36.411   3.307
43204W        W 7412  29.938  43.941   4.329
43205W        W 7413  21.541   4.773   0.370
43206W        W 7414  34.938  20.212  13.470
43207W        W 7415  38.888   8.825  10.476
43208W        W 7416  24.169  34.046   1.427
43209W        W 7417  22.561  42.360  12.510
43210W        W 7418  11.172  31.565  14.428
43211W        W 7419  10.294  13.706  13.037
43212W        W 7420   8.794  36.878  12.823
43213W        W 7421  21.055   1.463  14.870
43214W        W 7422   8.726  34.585  14.008
43215W        W 7423   0.983  21.146   3.834
43216W        W 7424  40.013  12.331   2.833
43217W        W 7425  36.547  19.274  13.396
43218W        W 7426   6.361  44.471   4.785
43219W        W 7427  12.727   0.490  14.925
43220W        W 7428  23.527   8.870  13.807
43221W        W 7429  21.196  37.551   9.974
43222W        W 7430  20.654  33.507   2.224
43223W        W 7431  22.658  10.733  10.906
43224W        W 7432  36.353   6.395  12.343
43225W        W 7433   4.412   5.808   4.791
43226W        W 7434  38.385  21.666   2.306
43227W        W 7435  11.806  26.622   2.762
43228W        W 7436  28.462  43.911  14.404
43229W        W 7437  37.554  30.121   3.356
43230W        W 7438  17.098  31.154   0.923
43231W        W 7439  33.982  37.481  13.944
43232W        W 7440  42.951  43.942   3.300
43233W        W 7441  26.617  28.631  12.061
43234W        W 7442   0.305  15.823   2.752
43235W        W 7443   2.761  25.006  12.887
43236W        W 7444  16.186  36.987   0.326
43237W        W 7445  15.661  21.635  12.484
43238W        W 7446  41.834  12.857   0.833
43239W        W 7447  15.771  29.519  13.825
43240W        W 7448   0.883  26.689  13.309
43241W        W 7449   7.367  23.522   0.434
43242W        W 7450   8.866  24.216  12.952
43243W        W 7451  12.740  41.818  12.008
43244W        W 7452   9.184  28.665   1.766
43245W        W 7453   3.278  35.909   4.290
43246W        W 7454  39.972  40.523   1.349
43247W        W 7455  29.095  26.657   0.295
43248W        W 7456  30.062  14.245  11.094
43249W        W 7457  33.388  41.354  13.868
43250W        W 7458  31.421  31.925   2.689
43251W        W 7459  16.141  36.963  11.566
43252W        W 7460  25.496  16.598   1.340
43253W        W 7461  27.106  30.955   4.631
43254W        W 7462  18.251  22.100  11.556
43255W        W 7463  28.632  23.716   3.861
43256W        W 7464   6.303  13.286   1.373
43257W        W 7465  11.832  22.594  13.914
43258W        W 7466  34.105  16.306   1.698
43259W        W 7467  15.609   7.753   1.814
43260W        W 7468   9.668  37.482   0.805
43261W        W 7469  29.009   4.729  13.528
43262W        W 7470   3.289  34.524   4.676
43263W        W 7471  12.291  35.497   3.369
43264W        W 7472   4.858   3.216   3.239
43265W        W 7473  31.911  26.121   0.957
43266W        W 7474   8.878  26.179  11.039
43267W        W 7475  15.681  40.988  14.416
43268W        W 7476  13.132  15.145   9.971
43269W        W 7477   4.316   1.968  13.547
43270W        W 7478  31.105   8.237   2.883
43271W        W 7479  26.656  19.217   1.703
43272W        W 7480  32.923  11.839  14.892
43273W        W 7481   7.372  14.139  10.975
43274W        W 7482   4.924   3.354   0.822
43275W        W 7483  30.487  44.826   0.440
43276W        W 7484  10.218  20.216  12.372
43277W        W 7485  43.347  27.684  11.095
43278W        W 7486  19.041  39.337  12.535
43279W        W 7487  39.868   6.863  12.920
43280W        W 7488   1.351   7.253   0.274
43281W        W 7489  44.795  19.744   2.193
43282W        W 7490  27.006  10.147  12.999
43283W        W 7491  32.625  37.937  11.604
43284W        W 7492  23.195  32.975   3.251
43285W        W 7493  13.621  22.179  13.840
43286W        W 7494  23.607  32.983   4.284
43287W        W 7495  31.503   6.750  14.838
43288W        W 7496  38.839  44.972  14.846
43289W        W 7497  28.997  28.186  14.819
43290W        W 7498  32.002  33.443   4.600
43291W        W 7499  10.743  20.628   1.733
43292W        W 7500  42.945   1.439  10.497
43293W        W 7501  26.692   1.420  14.826
43294W        W 7502  25.647  19.052  14.936
43295W        W 7503  43.846  34.415  12.900
43296W        W 7504   2.285  28.952  10.606
43297W        W 7505  17.306  29.449  10.475
43298W        W 7506  20.250  23.603  10.567
43299W        W 7507  39.842  19.255   3.358
43300W        W 7508  14.153  24.618   2.230
43301W        W 7509  33.921  17.759  13.908
43302W        W 7510  24.178   3.234   4.618
43303W        W 7511  11.359  22.237  10.936
43304W        W 7512  37.929  14.194  13.850
43305W        W 7513   5.829  19.172   1.818
43306W        W 7514  16.285  40.829   4.126
43307W        W 7515  11.248  13.111  13.522
43308W        W 7516   3.288  31.017   4.614
43309W        W 7517  35.892  36.481   1.415
43310W        W 7518  27.505  17.132   1.849
43311W        W 7519   2.843  41.341  11.075
43312W        W 7520  18.561   7.853  12.964
43313W        W 7521  37.477  36.513  11.460
43314W        W 7522  11.190  15.617  11.932
43315W        W 7523  25.671  19.730   2.419
43316W        W 7524   7.267  24.541  11.096
43317W        W 7525  44.358  25.986   2.178
43318W        W 7526   1.901  40.410   2.837
43319W        W 7527  30.412  14.166   5.694
43320W        W 7528  14.748   4.717   3.342
43321W        W 7529  17.295  18.737   4.657
43322W        W 7530  38.400  38.821  13.001
43323W        W 7531  11.308  20.126  14.811
43324W        W 7532  42.526  25.164  14.769
43325W        W 7533  32.898  31.491  10.891
43326W        W 7534  25.641   6.869  14.857
43327W        W 7535  42.449  34.011  11.515
43328W        W 7536  38.402   7.333   4.769
43329W        W 7537  20.588  36.080  14.797
43330W        W 7538  23.503  39.984  12.410
43331W        W 7539  13.281  38.935  10.934
43332W        W 7540  24.480  13.608   1.828
43333W        W 7541   8.838  26.520   2.884
43334W        W 7542   7.260   7.707  11.608
43335W        W 7543  38.057  24.531   3.679
43336W        W 7544  40.889  14.667   1.339
43337W        W 7545  37.937   4.367   4.316
43338W        W 7546  43.338   4.931   0.469
43339W        W 7547  14.178  43.311  11.085
43340W        W 7548  16.763  10.374   1.333
43341W        W 7549  19.056  19.721  13.823
43342W        W 7550  34.378   9.679   1.302
43343W        W 7551  37.455  34.114   2.228
43344W        W 7552  44.908   9.769   2.314
43345W        W 7553  36.092  22.029  11.954
43346W        W 7554  34.484   4.286  14.904
43347W        W 7555  30.623  17.103  11.942
43348W        W 7556  44.270   3.246   4.693
43349W        W 7557  22.661  10.784   2.815
43350W        W 7558  23.069  16.690  11.058
43351W        W 7559   7.331  29.953   4.726
43352W        W 7560  35.469  14.742   0.750
43353W        W 7561  41.356  21.081  13.452
43354W        W 7562   1.352  24.197   2.190
43355W        W 7563  41.962  36.547  12.829
43356W        W 7564  17.242  20.707   3.715
43357W        W 7565  21.168  39.376   3.730
43358W        W 7566  30.537  32.913  11.515
43359W        W 7567  41.530  39.472  13.411
43360W        W 7568  38.359   9.724   1.278
43361W        W 7569   6.208  27.500  13.813
43362W        W 7570  38.844  30.040  11.945
43363W        W 7571  29.164   6.324  12.531
43364W        W 7572  38.052   3.824   9.518
43365W        W 7573  16.796  23.554  14.469
43366W        W 7574   8.750   0.478   0.957
43367W        W 7575  40.471  10.771  11.034
43368W        W 7576   7.708  19.186   4.713
43369W        W 7577  44.364   0.414   0.385
43370W        W 7578  33.969   1.285   0.384
43371W        W 7579  26.146   6.227   3.282
43372W        W 7580  29.622  32.573  14.363
43373W        W 7581  44.284   2.913   2.410
43374W        W 7582  29.524   9.286   3.274
43375W        W 7583  29.478  10.166  14.927
43376W        W 7584  44.295  34.866  11.968
43377W        W 7585   1.271  18.120  14.972
43378W        W 7586   5.336  34.024  13.826
43379W        W 7587  39.332  16.121  12.965
43380W        W 7588   4.400  38.848   2.810
43381W        W 7589   6.856  14.645   2.880
43382W        W 7590   6.280  16.652  13.878
43383W        W 7591   8.335  25.625   0.831
43384W        W 7592   4.855   2.416  13.382
43385W        W 7593  16.730  42.493   3.270
43386W        W 7594  28.601  44.799   2.294
43387W        W 7595  20.578  42.857  11.061
43388W        W 7596  42.943  37.846   4.260
43389W        W 7597  22.132  25.684  13.944
43390W        W 7598  35.415  28.955   2.207
43391W        W 7599   3.824  34.528   4.341
43392W        W 7600  36.869   2.929   5.088
43393W        W 7601  41.966  33.481   1.275
43394W        W 7602  34.574  39.325   3.380
43395W        W 7603   5.921   0.786  13.964
43396W        W 7604  38.021  11.718   2.333
43397W        W 7605  25.546  25.015   1.440
43398W        W 7606  27.172   9.759   2.378
43399W        W 7607  40.801   3.286  13.813
43400W        W 7608   3.879  19.699   1.416
43401W        W 7609  30.432  19.189   3.195
43402W        W 7610  38.492  19.656   3.318
43403W        W 7611  16.781  44.340  14.988
43404W        W 7612  22.201  17.302   2.860
43405W        W 7613   7.228  27.531  10.992
43406W        W 7614   8.788  35.076   0.835
43407W        W 7615   2.396   9.376   0.805
43408W        W 7616  34.543  30.962   0.963
43409W        W 7617   6.203  34.459   2.192
43410W        W 7618  44.866   1.265   5.606
43411W        W 7619   3.854   1.324   4.635
43412W        W 7620   5.227  13.220   0.761
43413W        W 7621  18.672  30.990   3.146
43414W        W 7622  27.529   6.836  12.450
43415W        W 7623  12.761  44.873   1.221
43416W        W 7624  20.745  25.701  10.938
43417W        W 7625   5.403   7.408  14.313
43418W        W 7626  35.977  43.841  10.926
43419W        W 7627  21.172  10.353   3.360
43420W        W 7628  29.606   1.828  11.913
43421W        W 7629  15.245   2.366   2.740
43422W        W 7630  26.594  21.082   4.598
43423W        W 7631   0.819  44.447  12.924
43424W        W 7632  38.012  25.970  11.466
43425W        W 7633  19.155   5.797  12.580
43426W        W 7634  37.974  16.647  11.120
43427W        W 7635  14.189  21.665   0.434
43428W        W 7636   2.768   3.922   4.353
43429W        W 7637  30.529  29.591  11.612
43430W        W 7638   9.371  18.102   1.717
43431W        W 7639  30.480  34.994  12.360
43432W        W 7640  22.195  41.335  12.010
43433W        W 7641  24.534  25.965  14.959
43434W        W 7642  11.212  35.906   0.878
43435W        W 7643  22.104  37.898  14.395
43436W        W 7644  29.450  27.592  11.013
43437W        W 7645  39.844  36.034   4.156
43438W        W 7646   0.935  38.944  14.489
43439W        W 7647  31.078  28.172   0.924
43440W        W 7648  11.649   4.722   2.368
43441W        W 7649  38.414  16.744  12.567
43442W        W 7650   0.964   6.391   4.209
43443W        W 7651  13.233  28.449   3.184
43444W        W 7652  21.163  27.108   0.441
43445W        W 7653   7.348  26.199  12.915
43446W        W 7654  40.502  33.067   4.351
43447W        W 7655   4.767  13.766   2.362
43448W        W 7656  21.208  37.565  14.309
43449W        W 7657  12.626  28.471  11.420
43450W        W 7658  24.104  20.179   2.792
43451W        W 7659   5.332  26.000   3.311
43452W        W 7660  10.323  43.783  14.946
43453W        W 7661   1.859  17.201  10.643
43454W        W 7662  36.866  33.475   4.211
43455W        W 7663  37.454  20.112   4.832
43456W        W 7664  39.850  36.458   4.258
43457W        W 7665  21.045   9.863  14.409
43458W        W 7666   1.442  27.496  11.934
43459W        W 7667   6.719  40.418  11.894
43460W        W 7668  39.888  36.593  11.114
43461W        W 7669   1.933  14.312  11.879
43462W        W 7670  41.872  36.497   4.126
43463W        W 7671   5.387  21.661   1.421
43464W        W 7672  14.202  35.045  11.511
43465W        W 7673  40.472  29.648  14.011
43466W        W 7674   3.764  28.988  14.957
43467W        W 7675  44.464  22.226  10.437
43468W        W 7676   4.702  32.055   4.243
43469W        W 7677   2.794   2.444   2.306
43470W        W 7678  34.420  21.238   2.746
43471W        W 7679   7.786   4.255  12.436
43472W        W 7680  42.013   6.766   0.899
43473W        W 7681  35.576  14.683   4.297
43474W        W 7682  11.760  11.698  14.868
43475W        W 7683  27.997   7.184  10.050
43476W        W 7684   0.932  38.006  13.848
43477W        W 7685   3.772   6.772   1.751
43478W        W 7686  12.133   3.950  13.796
43479W        W 7687  18.782   4.859  12.410
43480W        W 7688  19.265   5.719   3.323
43481W        W 7689  29.931  35.030   1.352
43482W        W 7690  19.565  30.055  14.882
43483W        W 7691  29.471   4.757  14.368
43484W        W 7692  44.304  40.918   0.393
43485W        W 7693  38.986  10.362  10.518
43486W        W 7694  13.600  29.596   2.749
43487W        W 7695   8.774  29.518   2.889
43488W        W 7696  36.543  34.949  12.483
43489W        W 7697  16.649  19.180   0.398
43490W        W 7698  41.042  19.697  12.948
43491W        W 7699   2.773  33.086  12.373
43492W        W 7700  10.178  18.761  14.438
43493W        W 7701  27.457  43.914  13.533
43494W        W 7702  12.209  23.655  14.279
43495W        W 7703  13.272  24.073  10.918
43496W        W 7704  39.466  28.628  13.035
43497W        W 7705  38.050  23.512  13.420
43498W        W 7706  41.940  36.580   2.394
43499W        W 7707   3.435  24.617   1.277
43500W        W 7708  31.628  35.928   4.184
43501W        W 7709  11.741  29.494  10.929
43502W        W 7710  28.597  12.192   4.794
43503W        W 7711  29.639  40.888   3.636
43504W        W 7712  21.090   7.729  12.932
43505W        W 7713  23.550  27.619   1.803
43506W        W 7714  19.628   8.765  14.380
43507W        W 7715  39.902  36.876   1.418
43508W        W 7716  37.372   4.807   9.970
43509W        W 7717  25.660  35.468  11.013
43510W        W 7718  38.443  37.505  11.584
43511W        W 7719  37.426  43.390   2.848
43512W        W 7720  25.980  25.519  11.394
43513W        W 7721  31.537   0.428  11.976
43514W        W 7722  10.743  14.773   9.517
43515W        W 7723  27.119   8.346   2.894
43516W        W 7724   1.479  16.622   0.435
43517W        W 7725   8.700   7.855   1.924
43518W        W 7726  26.685   7.185   3.820
43519W        W 7727  18.633  14.180   2.268
43520W        W 7728  38.895   7.680   0.957
43521W        W 7729  10.659   2.251  13.518
43522W        W 7730  19.675  20.652  10.595
43523W        W 7731  43.413  38.038   2.811
43524W        W 7732   6.396  38.378  14.833
43525W        W 7733   7.274   3.848   1.868
43526W        W 7734  13.299  20.109  12.909
43527W        W 7735  12.671  25.498  12.018
43528W        W 7736  21.084  26.998  11.110
43529W        W 7737  34.376  33.034  13.415
43530W        W 7738  15.604  17.246   3.199
43531W        W 7739  29.126  34.534   1.220
43532W        W 7740   6.851  37.981  10.895
43533W        W 7741   3.368  35.890   5.106
43534W        W 7742  28.471  38.327  10.914
43535W        W 7743  14.758  10.686  14.950
43536W        W 7744  15.091  31.068  11.891
43537W        W 7745  30.532   4.321   3.171
43538W        W 7746  44.435  42.980   0.917
43539W        W 7747  14.809  14.278   0.279
43540W        W 7748  44.804  36.040   0.435
43541W        W 7749  34.450  11.337   3.285
43542W        W 7750   9.848   0.856   3.752
43543W        W 7751   6.869   3.769  14.413
43544W        W 7752   4.320  21.546   1.323
43545W        W 7753   4.941  29.534   2.754
43546W        W 7754   0.378  27.073  14.952
43547W        W 7755  41.841  21.681   3.201
43548W        W 7756  24.497   9.181  14.355
43549W        W 7757   0.300  15.129   4.153
43550W        W 7758   3.775  22.518  12.543
43551W        W 7759  10.817  32.117  14.440
43552W        W 7760   1.256  30.448   0.742
43553W        W 7761  26.482   6.900  11.868
43554W        W 7762   7.861  34.008  13.421
43555W        W 7763  36.893  15.653   0.894
43556W        W 7764  21.515   7.332  13.373
43557W        W 7765  22.150  19.105   4.729
43558W        W 7766  26.066  19.543  11.897
43559W        W 7767  40.986  30.653  13.362
43560W        W 7768   9.269  12.152  12.934
43561W        W 7769  35.099  16.112   3.293
43562W        W 7770   7.673   5.749   2.770
43563W        W 7771  43.371  33.946   0.748
43564W        W 7772  13.126  39.008   5.152
43565W        W 7773  14.686  13.600   2.827
43566W        W 7774  33.533  42.837  12.345
43567W        W 7775  41.409  32.457   2.683
43568W        W 7776  30.565  29.429   4.610
43569W        W 7777  19.083  24.120  13.830
43570W        W 7778  12.190   6.222   2.754
43571W        W 7779  44.396  28.640   4.794
43572W        W 7780  19.622  37.339   3.325
43573W        W 7781  11.292  26.101   2.688
43574W        W 7782   7.193  22.614  11.874
43575W        W 7783  40.427  36.987  12.944
43576W        W 7784  25.053   5.729   2.254
43577W        W 7785  43.009   3.421  12.344
43578W        W 7786   4.940  16.312   4.745
43579W        W 7787  26.496  24.573  12.459
43580W        W 7788  34.011  16.179  10.524
43581W        W 7789  41.524   9.846   4.124
43582W        W 7790  27.462  27.575   1.850
43583W        W 7791  16.208  31.106  12.986
43584W        W 7792  31.586  37.435   0.297
43585W        W 7793  42.524  18.595  13.475
43586W        W 7794  37.034  14.326  13.040
43587W        W 7795   4.738  23.557  11.044
43588W        W 7796  27.156  27.541   3.163
43589W        W 7797  39.956  43.004   3.232
43590W        W 7798  33.470  38.571  10.032
43591W        W 7799  22.546  41.902  10.445
43592W        W 7800   3.406  16.096   3.793
43593W        W 7801  40.040   5.746  13.913
43594W        W 7802  43.853  31.567  10.098
43595W        W 7803  37.061  19.635   3.831
43596W        W 7804  24.169  27.118  13.013
43597W        W 7805   1.829  18.161  11.572
43598W        W 7806  27.532  23.672  14.513
43599W        W 7807  41.474  21.541  11.896
43600W        W 7808  26.167  39.364  10.934
43601W        W 7809   4.848  39.411   2.839
43602W        W 7810  43.906  21.149  13.828
43603W        W 7811  18.187  34.614   4.687
43604W        W 7812   0.800   4.921  12.059
43605W        W 7813  15.631   9.689  12.008
43606W        W 7814  18.572  18.637  12.353
43607W        W 7815   4.814  32.925  13.926
43608W        W 7816   7.735  35.579   0.814
43609W        W 7817   1.380  35.439   2.844
43610W        W 7818  44.292  12.757   1.770
43611W        W 7819   7.322   6.873  14.807
43612W        W 7820  11.641  21.532   0.849
43613W        W 7821   5.378  31.587  13.354
43614W        W 7822  21.660  26.130  10.551
43615W        W 7823  31.010  17.113  14.908
43616W        W 7824   5.333   8.380   4.710
43617W        W 7825  44.905  31.520   1.735
43618W        W 7826   3.441  18.598   4.642
43619W        W 7827  35.040  40.868   4.328
43620W        W 7828  27.970  28.948   3.370
43621W        W 7829  15.320  16.582  14.820
43622W        W 7830  21.028  28.644  11.413
43623W        W 7831  18.790   4.300  11.044
43624W        W 7832  39.540   5.894   3.242
43625W        W 7833  17.150  20.072  14.430
43626W        W 7834  35.503   2.278   2.730
43627W        W 7835   1.885  44.499   4.727
43628W        W 7836  11.266   1.934  14.773
43629W        W 7837  33.968   5.345  13.493
43630W        W 7838   4.448   8.803  11.391
43631W        W 7839  34.592  13.699   3.264
43632W        W 7840  41.947  27.546   4.700
43633W        W 7841  20.580  24.629  14.773
43634W        W 7842  38.935  32.394   1.408
43635W        W 7843  43.879  19.615  12.887
43636W        W 7844  12.629   9.331   1.825
43637W        W 7845  31.910  10.328  11.981
43638W        W 7846  28.155  32.466   0.282
43639W        W 7847  42.813  44.994  14.932
43640W        W 7848  34.587  28.029  13.983
43641W        W 7849   2.958  26.141   4.756
43642W        W 7850  40.359  22.156   0.364
43643W        W 7851   6.210  43.414  11.086
43644W        W 7852  13.288  33.416  10.071
43645W        W 7853   4.923  40.008  12.021
43646W        W 7854   3.273   5.764  10.089
43647W        W 7855  24.724  36.463   4.794
43648W        W 7856  44.908   2.813  11.529
43649W        W 7857  16.199  12.355   1.236
43650W        W 7858   4.803  34.549   1.813
43651W        W 7859  28.178  27.688  13.926
43652W        W 7860  12.270  26.038  12.371
43653W        W 7861   3.949  28.137   1.711
43654W        W 7862   0.390  32.029  13.924
43655W        W 7863  21.534  42.853  11.976
43656W        W 7864  36.952   8.258   3.868
43657W        W 7865   8.253  11.159  14.782
43658W        W 7866   3.441  40.519  12.880
43659W        W 7867   9.304  11.668  10.902
43660W        W 7868   8.777  14.641   4.703
43661W        W 7869  33.415  33.529  11.582
43662W        W 7870  34.395  34.080   3.229
43663W        W 7871  32.428  11.309  11.047
43664W        W 7872  41.003  19.043  12.398
43665W        W 7873   4.348  29.025   0.838
43666W        W 7874  41.471  38.416  11.506
43667W        W 7875  40.466  10.218   3.164
43668W        W 7876  31.132   6.323   3.676
43669W        W 7877   0.309  20.592   3.374
43670W        W 7878   9.735  31.487   2.840
43671W        W 7879   7.678  10.769   4.340
43672W        W 7880   7.322  15.777   1.391
43673W        W 7881  15.626  29.966   0.333
43674W        W 7882   4.266  40.460   1.784
43675W        W 7883  31.511  27.945  14.475
43676W        W 7884   4.819   3.916  10.987
43677W        W 7885  42.521   1.303  12.381
43678W        W 7886  35.493   8.753   4.293
43679W        W 7887   9.881  30.643   0.810
43680W        W 7888  13.699  20.130  11.096
43681W        W 7889  36.580  21.038  13.390
43682W        W 7890  40.940  41.017   0.818
43683W        W 7891  23.024  36.026   4.640
43684W        W 7892   1.801   8.779  14.415
43685W        W 7893  35.039  13.695  11.898
43686W        W 7894  24.644   9.363   0.309
43687W        W 7895  31.147  29.174   0.271
43688W        W 7896   1.851  14.257  13.890
43689W        W 7897  20.752  42.297   0.262
43690W        W 7898  29.645  44.501   0.253
43691W        W 7899   4.378  41.369   1.385
43692W        W 7900  27.158  14.169  10.604
43693W        W 7901  14.825   8.776   1.869
43694W        W 7902  41.454   2.393   3.849
43695W        W 7903   6.352  31.100   0.781
43696W        W 7904   9.828  14.236   1.286
43697W        W 7905  19.745  36.538  11.381
43698W        W 7906  44.806  37.551  14.848
43699W        W 7907  31.552   6.713   4.225
43700W        W 7908  44.360  18.121   4.601
43701W        W 7909  25.547   8.191   3.770
43702W        W 7910  14.801  35.877  11.984
43703W        W 7911   8.764  17.796  14.835
43704W        W 7912   8.753  23.133   3.860
43705W        W 7913   9.702  29.459   0.967
43706W        W 7914  42.477  28.943   3.368
43707W        W 7915  39.471   4.813  10.547
43708W        W 7916  41.389  40.515  11.069
43709W        W 7917  33.026   2.232   2.684
43710W        W 7918   8.735  15.701   1.234
43711W        W 7919   0.295   3.399   2.834
43712W        W 7920  40.489   8.381   2.312
43713W        W 7921  23.637  29.117   2.703
43714W        W 7922  11.658   4.900   1.323
43715W        W 7923   5.286  22.717   3.711
43716W        W 7924   5.247  23.197  14.393
43717W        W 7925   0.313  24.627  13.529
43718W        W 7926  29.092  32.968   3.775
43719W        W 7927  13.728  33.047   4.778
43720W        W 7928  28.565   3.876   4.791
43721W        W 7929  39.389   1.424   1.217
43722W        W 7930  33.004   8.771  10.925
43723W        W 7931  42.400  23.565   2.862
43724W        W 7932   2.867  12.206   3.233
43725W        W 7933  29.464  33.419   4.126
43726W        W 7934  14.309  29.558  14.407
43727W        W 7935   5.781  19.123  11.594
43728W        W 7936   8.176   0.453  13.949
43729W        W 7937  23.121  15.294  11.018
43730W        W 7938  19.282  29.104   4.180
43731W        W 7939  13.698   6.232   1.216
43732W        W 7940  11.278   6.898   1.346
43733W        W 7941  22.683  27.163   2.266
43734W        W 7942  19.214  43.847  12.576
43735W        W 7943   9.731  20.119   3.329
43736W        W 7944   1.300  19.165   0.251
43737W        W 7945  14.182  19.599  11.480
43738W        W 7946   6.698   8.721   2.710
43739W        W 7947  19.199  11.179  14.313
43740W        W 7948  11.171  31.645  10.458
43741W        W 7949  44.449  33.512   0.781
43742W        W 7950  10.744  29.052   3.673
43743W        W 7951   5.894  35.403  11.529
43744W        W 7952  10.707   9.739  11.538
43745W        W 7953  19.739  27.120  10.512
43746W        W 7954  21.254  31.480  10.479
43747W        W 7955  17.633  38.569  11.979
43748W        W 7956   8.249   0.382  11.978
43749W        W 7957  34.609  26.070   2.361
43750W        W 7958  31.078   6.801   2.706
43751W        W 7959   7.890  11.718   2.765
43752W        W 7960   7.903   5.296  12.569
43753W        W 7961  15.747  41.945   2.847
43754W        W 7962  29.945   4.284   2.696
43755W        W 7963  28.094  34.595   2.243
43756W        W 7964  20.632  37.343   4.202
43757W        W 7965  35.473  41.313  13.885
43758W        W 7966  41.844  20.751   3.825
43759W        W 7967   5.348   8.690  11.916
43760W        W 7968   5.832  18.221  14.275
43761W        W 7969  16.619  29.936   1.270
43762W        W 7970  44.987   3.397  11.857
43763W        W 7971  34.598  18.605   2.327
43764W        W 7972  37.891  43.282  12.388
43765W        W 7973   2.395  44.777   1.728
43766W        W 7974  19.596  32.408   1.444
43767W        W 7975   4.213   2.905  10.416
43768W        W 7976  33.434  38.046  11.124
43769W        W 7977   5.361  39.979  13.397
43770W        W 7978  19.144   2.837   0.954
43771W        W 7979  35.097  22.111   4.220
43772W        W 7980  36.888  32.555  12.534
43773W        W 7981  21.542   1.282  12.027
43774W        W 7982  37.423  11.218   3.257
43775W        W 7983  11.626  12.338  10.579
43776W        W 7984  11.133  41.438  12.342
43777W        W 7985  17.615  27.682  13.416
43778W        W 7986  42.424  42.444   3.187
43779W        W 7987  11.365  12.295  11.566
43780W        W 7988  10.795   0.343  12.578
43781W        W 7989  37.484  33.003   0.356
43782W        W 7990   7.255  18.632   3.811
43783W        W 7991  33.110  11.167  12.891
43784W        W 7992  27.982  15.620   2.684
43785W        W 7993  32.632   9.182   4.191
43786W        W 7994  14.648  33.939   4.771
43787W        W 7995  24.038  29.541  12.555
43788W        W 7996  34.873  40.810   3.240
43789W        W 7997   6.267  18.129  14.388
43790W        W 7998   2.832  42.331   0.310
43791W        W 7999   6.713   9.704   4.238
43792W        W 8000  27.953  37.980   2.231
43793W        W 8001  38.516  23.647   3.672
43794W        W 8002  38.434  15.326   2.369
43795W        W 8003  27.516   4.436   2.233
43796W        W 8004   4.269  27.530   3.772
43797W        W 8005  32.614  19.189  13.862
43798W        W 8006  23.492  44.975   1.803
43799W        W 8007  40.456  40.042  10.479
43800W        W 8008  18.054  36.543   0.742
43801W        W 8009  27.678  33.397   2.362
43802W        W 8010  27.998  26.125   1.289
43803W        W 8011  32.096  30.585  11.489
43804W        W 8012  15.638  14.792  13.504
43805W        W 8013  19.647   4.843  13.529
43806W        W 8014  25.691  12.171  13.414
43807W        W 8015  14.125  38.516   2.774
43808W        W 8016  11.822   2.927  13.799
43809W        W 8017  10.842  20.541   3.293
43810W        W 8018  34.484   4.388  10.615
43811W        W 8019  21.553  44.391  13.403
43812W        W 8020   9.361  43.820  10.603
43813W        W 8021  30.423  39.465  13.916
43814W        W 8022  20.185  20.036  13.534
43815W        W 8023  27.464  34.907   0.358
43816W        W 8024  11.333  11.320   2.830
43817W        W 8025  36.017  23.726  12.000
43818W        W 8026  42.017   4.853  13.933
43819W        W 8027  13.107  25.981  11.376
43820W        W 8028  44.839  28.620   2.823
43821W        W 8029  10.370  44.866  12.057
43822W        W 8030   3.840  42.496  13.533
43823W        W 8031   3.920  30.976   4.115
43824W        W 8032  29.131  41.929   3.214
43825W        W 8033  21.141  38.480  14.978
43826W        W 8034  21.031  38.022  12.987
43827W        W 8035  38.066  18.246  11.025
43828W        W 8036  18.123  29.441   1.701
43829W        W 8037   0.935  12.142  10.487
43830W        W 8038   1.754  39.963   0.891
43831W        W 8039  16.701  31.579  13.397
43832W        W 8040  43.821  24.590   2.385
43833W        W 8041  11.199  12.243  13.454
43834W        W 8042  44.364  11.779  14.789
43835W        W 8043  35.036  36.505   3.744
43836W        W 8044  10.638   6.886  11.985
43837W        W 8045  11.177  14.686   4.798
43838W        W 8046  22.716  23.995  11.880
43839W        W 8047  41.023  23.667  13.892
43840W        W 8048  18.679  34.423  14.804
43841W        W 8049   9.793   9.766  13.526
43842W        W 8050  38.499  31.590   0.428
43843W        W 8051  42.797  36.093  13.846
43844W        W 8052  17.222  15.628   0.367
43845W        W 8053   2.922  24.050  13.985
43846W        W 8054  26.660   4.211  12.859
43847W        W 8055  12.248  30.448   1.859
43848W        W 8056  36.940  10.176   0.444
43849W        W 8057  14.765  10.876   3.262
43850W        W 8058  24.716  33.897  11.893
43851W        W 8059  23.136   1.424  13.930
43852W        W 8060  22.588  40.389   0.959
43853W        W 8061  13.845   5.386  12.535
43854W        W 8062  37.896  39.353   0.965
43855W        W 8063  18.286   1.735   1.223
43856W        W 8064  41.872  19.677   0.869
43857W        W 8065  21.037   7.884   9.944
43858W        W 8066   3.715   9.205  11.407
43859W        W 8067  44.464  26.556  11.565
43860W        W 8068  32.431  10.370  13.527
43861W        W 8069  14.168  24.072  12.879
43862W        W 8070  31.959  33.903  11.903
43863W        W 8071  22.152  27.632   0.470
43864W        W 8072  21.075  32.012  12.995
43865W        W 8073  44.006  40.494   3.226
43866W        W 8074  14.146  24.197  14.934
43867W        W 8075  41.349  39.023   1.786
43868W        W 8076   2.415   9.200   4.831
43869W        W 8077  40.450  22.013  14.015
43870W        W 8078   2.750  20.050  13.874
43871W        W 8079  22.141   4.840  14.301
43872W        W 8080   7.691  39.902  13.902
43873W        W 8081  28.120   7.695  11.997
43874W        W 8082  39.447  30.593   0.797
43875W        W 8083   3.431   2.887  11.101
43876W        W 8084  35.414  39.321  12.950
43877W        W 8085   4.235  40.897  12.038
43878W        W 8086  15.216  28.459   3.256
43879W        W 8087  33.099   5.775  10.493
43880W        W 8088   2.945  21.062  10.463
43881W        W 8089  31.042  30.597  14.414
43882W        W 8090   6.207  34.499   0.827
43883W        W 8091   2.951  41.868   0.416
43884W        W 8092   8.235  41.425  14.961
43885W        W 8093  34.567   1.771  11.001
43886W        W 8094  43.283  39.410  12.901
43887W        W 8095   5.918   5.229  12.095
43888W        W 8096  29.529  28.128   5.221
43889W        W 8097   3.835  26.701  14.022
43890W        W 8098   3.901  29.104   3.798
43891W        W 8099   2.912  21.594  13.877
43892W        W 8100  43.942   3.907  11.064
43893W        W 8101  33.580  43.434  12.861
43894W        W 8102  11.146  29.443   2.728
43895W        W 8103  33.581   3.230   5.281
43896W        W 8104   4.256   3.438  13.398
43897W        W 8105  33.493  29.134  12.016
43898W        W 8106  13.724  25.546   1.800
43899W        W 8107  25.150  26.032   4.728
43900W        W 8108  21.694  37.945   0.313
43901W        W 8109  22.657   0.807  12.480
43902W        W 8110  28.117   5.717   2.711
43903W        W 8111   7.363  11.130  13.900
43904W        W 8112  34.863  21.169  12.562
43905W        W 8113  17.175  19.136  12.517
43906W        W 8114  11.746  19.604  14.763
43907W        W 8115  26.626  31.637  11.074
43908W        W 8116   4.826  14.167  12.451
43909W        W 8117  39.996  11.222  11.575
43910W        W 8118  37.368   1.323  12.529
43911W        W 8119  19.251  19.130   0.872
43912W        W 8120  24.147  29.155   3.162
43913W        W 8121  11.637  42.295   0.382
43914W        W 8122   9.151  18.780   1.214
43915W        W 8123   0.399  16.285   0.941
43916W        W 8124   1.815  31.084   4.805
43917W        W 8125   5.301   2.432  12.365
43918W        W 8126  26.504   5.912   1.262
43919W        W 8127  38.515  44.380  11.392
43920W        W 8128  23.554  20.118   1.767
43921W        W 8129   1.327  25.688  11.450
43922W        W 8130  44.265  38.494  12.535
43923W        W 8131   9.182  21.655  10.419
43924W        W 8132  17.186   4.745  11.032
43925W        W 8133   4.206  30.007  12.506
43926W        W 8134  23.554  15.217  10.472
43927W        W 8135  11.726  10.168   3.796
43928W        W 8136  19.078   7.223  14.782
43929W        W 8137  32.951  30.449   3.869
43930W        W 8138  24.072  13.785  11.563
43931W        W 8139  15.273  11.221  11.889
43932W        W 8140  30.554  36.411  11.555
43933W        W 8141  42.502  23.717   1.287
43934W        W 8142  32.496  34.971   3.718
43935W        W 8143  21.171  13.235  12.394
43936W        W 8144  12.209  34.594  13.352
43937W        W 8145  29.968  13.621  10.515
43938W        W 8146  33.076   6.898  13.948
43939W        W 8147   4.414  35.430  11.083
43940W        W 8148  40.428  12.630   9.995
43941W        W 8149   2.365   6.281  14.308
43942W        W 8150  20.051  14.725   2.359
43943W        W 8151   9.259   2.952  11.064
43944W        W 8152  27.013  43.314  14.020
43945W        W 8153  40.820   7.311   3.868
43946W        W 8154  13.329  39.054   1.770
43947W        W 8155  12.814   8.305  14.515
43948W        W 8156  17.094  12.274  14.461
43949W        W 8157   6.392  29.979   4.744
43950W        W 8158  18.559  30.959   4.259
43951W        W 8159  39.912  14.792  14.391
43952W        W 8160  11.168  31.980   2.410
43953W        W 8161   5.909  16.279   0.469
43954W        W 8162  38.495  30.062   2.707
43955W        W 8163   6.790  27.015  13.315
43956W        W 8164  13.745   3.897  13.449
43957W        W 8165   6.368  15.214  12.497
43958W        W 8166  19.706   9.178  13.804
43959W        W 8167  16.621   4.711   4.599
43960W        W 8168  31.451  42.903  14.400
43961W        W 8169   3.741  30.501   0.483
43962W        W 8170  11.201  22.208   2.236
43963W        W 8171  39.425  44.467   4.350
43964W        W 8172  37.390  36.869  11.404
43965W        W 8173  34.451  21.527  14.769
43966W        W 8174  34.567  39.510  13.463
43967W        W 8175  18.729  10.143   4.163
43968W        W 8176  17.714  44.482   3.798
43969W        W 8177  27.507  38.335  10.941
43970W        W 8178   1.844   2.830  14.979
43971W        W 8179  42.982   4.411  12.525
43972W        W 8180  28.478  19.141   2.868
43973W        W 8181  23.238  15.329  14.808
43974W        W 8182  41.509  29.057  11.064
43975W        W 8183  25.156  32.035  13.891
43976W        W 8184  31.990   3.230  12.894
43977W        W 8185  19.756  40.364  10.602
43978W        W 8186  19.638  29.924  14.458
43979W        W 8187  15.087   6.373  14.859
43980W        W 8188   6.369  38.838   1.386
43981W        W 8189  40.942  17.676   2.376
43982W        W 8190   7.193  38.570  11.377
43983W        W 8191  44.278  16.642   0.891
43984W        W 8192  36.878  25.476   2.394
43985W        W 8193  39.018  29.641  13.340
43986W        W 8194   2.277  16.160   1.751
43987W        W 8195   5.714  38.057   4.744
43988W        W 8196  41.847  29.444   1.774
43989W        W 8197  22.606  29.948   4.221
43990W        W 8198  43.475  39.528   1.225
43991W        W 8199  19.048  23.702   3.350
43992W        W 8200  28.101  36.554   2.369
43993W        W 8201  40.049  28.983   0.866
43994W        W 8202  29.444  15.159   0.371
43995W        W 8203   6.244  18.657   0.853
43996W        W 8204  22.521  21.724   4.631
43997W        W 8205  18.061  10.210  14.908
43998W        W 8206   2.829  27.642   0.374
43999W        W 8207   0.851  43.784   0.393
44000W        W 8208  26.207  26.673   1.911
44001W        W 8209  14.631  24.095   3.335
44002W        W 8210  42.981  29.151  12.550
44003W        W 8211  32.052  40.422  12.567
44004W        W 8212  27.647   8.262  13.818
44005W        W 8213   4.870  18.591  13.351
44006W        W 8214  38.895  15.806   2.288
44007W        W 8215   1.327   2.874  14.972
44008W        W 8216   8.687   8.741   0.278
44009W        W 8217  21.676   7.417  13.858
44010W        W 8218  13.319  13.713   4.320
44011W        W 8219  43.850  24.624   0.289
44012W        W 8220   5.314   4.365  11.951
44013W        W 8221  17.145  30.515   4.250
44014W        W 8222  29.471  27.144  13.491
44015W        W 8223  28.606  15.146  12.901
44016W        W 8224  21.583   8.827   1.260
44017W        W 8225   0.410   7.241  12.532
44018W        W 8226  39.394  29.023   4.281
44019W        W 8227  14.134  16.210   4.680
44020W        W 8228  43.954   6.292  14.015
44021W        W 8229  38.937  41.399   2.832
44022W        W 8230   1.241  12.749   0.805
44023W        W 8231   3.711  20.551  10.409
44024W        W 8232   9.337  30.060   0.861
44025W        W 8233  26.488  14.729  14.365
44026W        W 8234  22.241  23.689  14.013
44027W        W 8235  21.200  22.088   1.243
44028W        W 8236  44.459  29.524  14.770
44029W        W 8237  20.170  20.135  10.957
44030W        W 8238   1.878  12.303   1.849
44031W        W 8239  38.005  15.654   3.761
44032W        W 8240   4.851   7.682   2.813
44033W        W 8241  11.829  11.663   0.457
44034W        W 8242  36.905  19.640   1.428
44035W        W 8243  20.547  35.443  12.538
44036W        W 8244   3.858   6.691  13.390
44037W        W 8245   2.856  26.008   0.735
44038W        W 8246  12.839  42.793   3.837
44039W        W 8247  22.213   5.803  14.282
44040W        W 8248  11.212  26.155   4.310
44041W        W 8249   1.240  12.779  10.480
44042W        W 8250  16.292  37.582   4.311
44043W        W 8251  29.136  13.215   3.671
44044W        W 8252  22.085   1.818   0.841
44045W        W 8253  22.720  27.022  14.994
44046W        W 8254  24.610   1.390   1.312
44047W        W 8255  20.566   3.877  10.127
44048W        W 8256  33.560  27.123   4.701
44049W        W 8257  10.735  33.529   2.303
44050W        W 8258  20.158   2.740  12.950
44051W        W 8259  11.733  12.668   4.730
44052W        W 8260   6.881  42.030   2.723
44053W        W 8261  42.810  18.745  12.841
44054W        W 8262  26.509   6.394  14.836
44055W        W 8263  18.225  24.031   3.733
44056W        W 8264  36.497  29.120  14.429
44057W        W 8265  30.541  12.124   4.628
44058W        W 8266  40.010   8.242  13.398
44059W        W 8267  33.522  14.208   5.141
44060W        W 8268   7.349  22.589  11.010
44061W        W 8269   4.730  12.307   2.389
44062W        W 8270  44.330  10.828   0.875
44063W        W 8271  20.262  28.972   2.902
44064W        W 8272   8.800  43.838  13.323
44065W        W 8273  32.542   3.954  11.570
44066W        W 8274  10.843  31.038  11.873
44067W        W 8275   0.987   7.220   1.721
44068W        W 8276  14.257  18.679  14.417
44069W        W 8277  31.994   1.960  12.499
44070W        W 8278  36.912  37.496  10.412
44071W        W 8279  27.178  35.925   3.713
44072W        W 8280  25.165  43.915   1.266
44073W        W 8281  39.428   3.770   0.926
44074W        W 8282  13.717   7.388  11.514
44075W        W 8283  21.555   8.869  14.279
44076W        W 8284  10.379   3.247  13.389
44077W        W 8285   0.477   5.346   2.194
44078W        W 8286   7.886   0.748  12.518
44079W        W 8287  28.477   5.321   1.292
44080W        W 8288  33.059  15.689  14.006
44081W        W 8289  33.429  27.626   0.271
44082W        W 8290  16.304  25.482   4.607
44083W        W 8291  39.422  40.367  11.377
44084W        W 8292  24.626  40.331  14.303
44085W        W 8293  28.942  30.432  11.933
44086W        W 8294  32.116  31.955  12.087
44087W        W 8295  37.952  23.600   0.842
44088W        W 8296  21.553  34.574   1.350
44089W        W 8297  41.958  19.083  10.624
44090W        W 8298   6.750  35.948  13.804
44091W        W 8299  37.839  15.677  13.428
44092W        W 8300  17.121  35.027   1.337
44093W        W 8301  40.353  37.985   3.313
44094W        W 8302   0.307   3.930   2.767
44095W        W 8303  15.754  18.658   4.211
44096W        W 8304  25.714   8.844   4.277
44097W        W 8305   9.250  28.476   4.597
44098W        W 8306  24.514  11.163   0.441
44099W        W 8307  12.321  15.782   4.700
44100W        W 8308  20.257  24.721   2.729
44101W        W 8309  34.034  39.319  11.963
44102W        W 8310  29.029  43.424  12.089
44103W        W 8311  32.136  39.314   3.761
44104W        W 8312  35.496  15.183   3.297
44105W        W 8313  13.143  10.770   1.292
44106W        W 8314   3.271  22.089  12.392
44107W        W 8315  35.369   7.810  12.373
44108W        W 8316  18.791   3.432   0.352
44109W        W 8317  24.145  30.576   4.132
44110W        W 8318  33.522  28.968   0.318
44111W        W 8319   9.340  43.963   1.788
44112W        W 8320  36.058  22.553   0.959
44113W        W 8321  33.950   0.771  13.925
44114W        W 8322  40.350  11.842   4.832
44115W        W 8323  24.512   2.742   0.333
44116W        W 8324  27.168  28.564  13.990
44117W        W 8325  40.509  18.737  11.111
44118W        W 8326  19.554   3.757  12.952
44119W        W 8327  16.235   4.216   3.342
44120W        W 8328   6.910  16.748   1.732
44121W        W 8329  28.016   1.964  11.968
44122W        W 8330  40.397   9.765  13.834
44123W        W 8331  21.574  40.961  14.487
44124W        W 8332  22.155   5.699  12.533
44125W        W 8333  42.366  44.942   1.357
44126W        W 8334  28.552   7.712  14.431
44127W        W 8335   4.301  19.140  13.975
44128W        W 8336  30.007  22.674   4.318
44129W        W 8337  25.668  40.342   3.370
44130W        W 8338  25.012   5.279   2.329
44131W        W 8339   8.807  42.952   0.371
44132W        W 8340  31.915  25.056   3.865
44133W        W 8341  24.025  13.215   3.201
44134W        W 8342  28.021   0.452  12.399
44135W        W 8343  28.012  20.584  11.600
44136W        W 8344  22.521  14.318  11.038
44137W        W 8345  13.628   0.296  13.495
44138W        W 8346  31.917  16.630  13.848
44139W        W 8347   1.335  14.827  12.067
44140W        W 8348  20.191  35.013   0.830
44141W        W 8349  14.305   5.409   0.736
44142W        W 8350   3.393  36.458  10.159
44143W        W 8351  11.793   1.316  13.040
44144W        W 8352  30.922  37.982  12.856
44145W        W 8353  16.288  27.488   2.188
44146W        W 8354  19.136  19.698  10.977
44147W        W 8355   9.347   6.739   3.650
44148W        W 8356  43.383  44.963   4.331
44149W        W 8357  40.911  43.404  10.887
44150W        W 8358  18.694  15.628  13.347
44151W        W 8359   5.904  35.590   3.852
44152W        W 8360  36.548  41.797  11.567
44153W        W 8361  38.820  19.549  10.587
44154W        W 8362  43.956  32.414   4.284
44155W        W 8363  31.453  18.274   3.254
44156W        W 8364  42.364  43.821   4.224
44157W        W 8365  38.338  41.037   2.797
44158W        W 8366  40.033  21.560  10.902
44159W        W 8367  12.764  26.094  14.430
44160W        W 8368   4.281   4.864  12.879
44161W        W 8369   3.442  38.477   3.808
44162W        W 8370  40.898   2.428   1.274
44163W        W 8371  19.241  21.668  12.579
44164W        W 8372  38.357  12.650  13.893
44165W        W 8373  12.161  25.979   1.779
44166W        W 8374  42.480   6.421   3.293
44167W        W 8375  38.042  41.890  12.949
44168W        W 8376  13.206  41.291  13.442
44169W        W 8377   7.377  43.299   3.831
44170W        W 8378  41.381  15.682   2.812
44171W        W 8379  28.072  43.795  13.535
44172W        W 8380   1.277  13.323   1.868
44173W        W 8381  22.704  16.294   0.804
44174W        W 8382  38.398   6.798   2.770
44175W        W 8383   9.701  38.473  10.995
44176W        W 8384  37.544  40.840  14.380
44177W        W 8385   1.970  43.793  11.044
44178W        W 8386  44.332  13.182  13.882
44179W        W 8387   6.406  15.800  13.858
44180W        W 8388  27.041  37.514   1.901
44181W        W 8389  37.349  22.717   0.313
44182W        W 8390   6.305   6.238  13.049
44183W        W 8391  19.684   5.863  13.835
44184W        W 8392  39.318  41.836  14.901
44185W        W 8393  39.999   2.841  12.977
44186W        W 8394  32.017  20.694   3.187
44187W        W 8395   6.872   5.910  12.373
44188W        W 8396  27.505  37.989   3.212
44189W        W 8397  42.398  26.152   1.365
44190W        W 8398  23.989  33.000  10.986
44191W        W 8399   4.772  43.915   2.221
44192W        W 8400  35.017   3.274  11.583
44193W        W 8401   0.771   1.239  11.058
44194W        W 8402   9.370   4.433  13.458
44195W        W 8403  34.585  21.232   4.611
44196W        W 8404  40.984  26.672   1.374
44197W        W 8405  44.442   7.397  11.060
44198W        W 8406  29.057   7.784  14.760
44199W        W 8407  43.987  24.547  14.025
44200W        W 8408  41.501  12.245   0.362
44201W        W 8409  19.085  42.455   3.268
44202W        W 8410   6.196   4.811  14.805
44203W        W 8411  34.921  38.413   0.936
44204W        W 8412  14.705  35.095   0.339
44205W        W 8413   4.353  40.819   0.827
44206W        W 8414  15.645  29.570  13.503
44207W        W 8415   8.343  23.655   2.407
44208W        W 8416   3.273  15.629   2.815
44209W        W 8417   0.303  10.830   3.678
44210W        W 8418   9.774  12.195   1.316
44211W        W 8419  18.565  29.535   4.302
44212W        W 8420  30.034  40.465   2.381
44213W        W 8421  32.071  26.639   1.784
44214W        W 8422  39.479  22.137  12.366
44215W        W 8423   9.775  33.044   0.397
44216W        W 8424  20.585  21.546  14.509
44217W        W 8425  22.534  13.634  10.644
44218W        W 8426   2.438   5.703   2.874
44219W        W 8427  10.759   2.934  10.601
44220W        W 8428  15.139  23.143   4.315
44221W        W 8429  30.420  16.091  14.508
44222W        W 8430   8.738  11.264  11.127
44223W        W 8431  21.086  14.729   2.181
44224W        W 8432  36.520  24.022   0.359
44225W        W 8433   3.380  12.342  11.457
44226W        W 8434  30.087  38.874  14.958
44227W        W 8435  26.630  13.796   3.795
44228W        W 8436  31.133   9.200  14.771
44229W        W 8437  32.898  35.994  13.420
44230W        W 8438  25.998  35.518  11.435
44231W        W 8439   5.733  11.371   2.309
44232W        W 8440  23.153   4.211   4.165
44233W        W 8441  12.354   5.887  12.393
44234W        W 8442  19.768  25.027   1.357
44235W        W 8443  33.600  35.471  11.036
44236W        W 8444  39.449  27.495   3.695
44237W        W 8445   1.441  21.041  14.885
44238W        W 8446  44.769  32.135  14.881
44239W        W 8447  40.540  41.301  14.997
44240W        W 8448  18.240  38.001   1.366
44241W        W 8449  37.849  14.763  13.509
44242W        W 8450  41.043  31.081  13.453
44243W        W 8451  15.605   9.835  14.865
44244W        W 8452  13.821  18.108  14.356
44245W        W 8453  18.790  34.379   4.692
44246W        W 8454  18.110  10.313   1.871
44247W        W 8455  17.585   5.828   3.796
44248W        W 8456   5.886  23.606  12.499
44249W        W 8457  13.807  37.976  14.290
44250W        W 8458  22.012  33.086  10.450
44251W        W 8459  10.846   7.338  12.579
44252W        W 8460  31.139  42.399   4.642
44253W        W 8461  19.256  26.658   0.291
44254W        W 8462  18.291  41.465  12.544
44255W        W 8463  35.604   1.241   4.838
44256W        W 8464   8.239  44.458   3.256
44257W        W 8465  28.059  42.327   2.382
44258W        W 8466  22.633  35.484   3.381
44259W        W 8467  23.670  11.141   2.215
44260W        W 8468  36.363   0.295  13.935
44261W        W 8469   1.264   4.874   3.357
44262W        W 8470  43.456  15.094  12.573
44263W        W 8471   7.315  12.737   4.210
44264W        W 8472   9.729  37.072  14.343
44265W        W 8473  24.015  17.253  14.433
44266W        W 8474   8.868  11.201  12.407
44267W        W 8475   0.746   2.821   3.656
44268W        W 8476  23.724   7.771  11.955
44269W        W 8477   8.871  38.553   4.223
44270W        W 8478   6.876  29.064   3.256
44271W        W 8479  28.662  15.588   3.298
44272W        W 8480  43.376  42.335  10.452
44273W        W 8481  24.488   0.466   4.608
44274W        W 8482   8.776   6.805  14.389
44275W        W 8483  39.045  39.420  11.573
44276W        W 8484  34.994  31.003  10.514
44277W        W 8485  42.286  23.612  12.828
44278W        W 8486  28.653  33.044   4.300
44279W        W 8487   7.732  39.384  11.424
44280W        W 8488   0.933  39.330  14.323
44281W        W 8489  11.306  11.300  12.953
44282W        W 8490  18.281  25.692  11.594
44283W        W 8491  40.389  20.632  14.830
44284W        W 8492  30.142  43.383  11.453
44285W        W 8493  22.188  30.925   4.117
44286W        W 8494  28.534   4.295   3.823
44287W        W 8495  25.523  30.569  13.833
44288W        W 8496   3.233   8.847   3.825
44289W        W 8497  13.720   3.379  14.031
44290W        W 8498  21.068   0.917  14.281
44291W        W 8499  38.370  44.347  13.410
44292W        W 8500  20.226  33.535  12.947
44293W        W 8501   3.300   8.219  11.536
44294W        W 8502   5.931  41.894  14.910
44295W        W 8503  23.707   5.822  14.023
44296W        W 8504   5.840   5.383  11.430
44297W        W 8505  31.605  20.768   2.711
44298W        W 8506  10.646   9.388  14.969
44299W        W 8507  13.236  15.229  12.452
44300W        W 8508  20.734  18.617   0.409
44301W        W 8509   7.865  42.025  14.447
44302W        W 8510  10.189   0.486   4.685
44303W        W 8511  43.877  41.350  10.894
44304W        W 8512  38.073  25.158   2.666
44305W        W 8513  27.488  37.900  14.442
44306W        W 8514  25.167  13.673  13.441
44307W        W 8515   2.775  37.412   1.383
44308W        W 8516  29.949  20.232   3.856
44309W        W 8517  25.142  14.772   0.377
44310W        W 8518  34.557  18.135  10.956
44311W        W 8519  42.523  39.503   2.343
44312W        W 8520  43.516   1.876   0.783
44313W        W 8521  12.322  25.061   0.437
44314W        W 8522  44.350  22.109  12.868
44315W        W 8523   4.262   6.272  10.935
44316W        W 8524   6.778  12.284  12.825
44317W        W 8525  31.481  22.731   2.809
44318W        W 8526   4.845  16.607  14.432
44319W        W 8527  13.298  27.549  14.326
44320W        W 8528   4.437  27.154   4.718
44321W        W 8529  23.645  36.030   4.246
44322W        W 8530  19.575  12.233   4.641
44323W        W 8531  19.249  38.870   1.698
44324W        W 8532   8.164  22.106  13.040
44325W        W 8533  23.996  14.197  14.362
44326W        W 8534  14.746   5.219  12.447
44327W        W 8535  44.338   5.302  14.384
44328W        W 8536  24.719  16.677   1.917
44329W        W 8537  41.986  38.997  13.887
44330W        W 8538  40.453  31.612   3.205
44331W        W 8539  24.603   3.746   4.693
44332W        W 8540   7.753   2.254   0.873
44333W        W 8541  13.298   2.743   3.820
44334W        W 8542   1.444  31.951   3.298
44335W        W 8543  26.632  28.596  14.489
44336W        W 8544  17.221  13.121  11.020
44337W        W 8545   3.928  12.331  13.465
44338W        W 8546  20.709  13.263  14.892
44339W        W 8547  29.464  44.349   0.808
44340W        W 8548  21.688   9.241  12.956
44341W        W 8549  23.649  13.188   2.805
44342W        W 8550   8.878  41.396   2.256
44343W        W 8551  18.200  19.692   3.327
44344W        W 8552  16.639  16.775  13.057
44345W        W 8553   1.845  28.141   3.176
44346W        W 8554  15.637  15.741  11.076
44347W        W 8555  34.046  34.900  10.499
44348W        W 8556   3.757  19.660  12.023
44349W        W 8557  17.277  41.879  11.426
44350W        W 8558  38.525  21.713  10.943
44351W        W 8559  26.196   4.829   0.966
44352W        W 8560   9.657  16.164   9.938
44353W        W 8561  27.593  15.197  12.871
44354W        W 8562  15.255  27.461   0.949
44355W        W 8563  15.286  36.416   3.748
44356W        W 8564  29.135  23.553  12.829
44357W        W 8565  30.934  22.073   0.397
44358W        W 8566   9.372   4.282   3.689
44359W        W 8567  15.273  17.230   3.169
44360W        W 8568  41.427  39.352   3.263
44361W        W 8569  14.731  26.135   3.850
44362W        W 8570  14.669   4.794   0.728
44363W        W 8571  22.117   3.803  12.401
44364W        W 8572  15.649  44.906   0.919
44365W        W 8573   7.744  12.662  11.876
44366W        W 8574   9.334   6.226   4.602
44367W        W 8575  19.562  27.483   0.759
44368W        W 8576  40.814  17.061   4.182
44369W        W 8577  26.167  16.133  12.507
44370W        W 8578  29.026  29.574   3.208
44371W        W 8579  26.488  25.986   4.609
44372W        W 8580  38.909  22.204   0.877
44373W        W 8581   7.383  21.223  10.436
44374W        W 8582   6.222  19.145  14.768
44375W        W 8583  16.264   5.746  14.945
44376W        W 8584  26.701  42.779  14.501
44377W        W 8585   3.370  29.582   1.712
44378W        W 8586   4.762  19.776  11.380
44379W        W 8587   8.360  18.064   4.336
44380W        W 8588  41.816  15.105   2.830
44381W        W 8589  37.561  23.072  12.072
44382W        W 8590  40.819  43.815   4.797
44383W        W 8591  15.177  42.326  10.440
44384W        W 8592   7.904  11.234  10.557
44385W        W 8593   4.758  23.087   3.253
44386W        W 8594   3.873   7.797   0.294
44387W        W 8595  41.508  35.049  12.502
44388W        W 8596  40.382  24.705   0.755
44389W        W 8597  25.691   0.272  14.815
44390W        W 8598  17.630  29.082   3.663
44391W        W 8599  10.644  37.501   2.240
44392W        W 8600   2.949   9.287  12.478
44393W        W 8601   9.707  43.009  14.030
44394W        W 8602  25.182   2.230  11.491
44395W        W 8603  22.726  42.988  10.099
44396W        W 8604   0.416  23.078   2.693
44397W        W 8605  11.816  26.167   0.351
44398W        W 8606  35.571  13.206  14.916
44399W        W 8607  33.977  10.825  11.545
44400W        W 8608   3.346  21.047   0.446
44401W        W 8609  31.639  31.135   4.291
44402W        W 8610  12.809  28.619  13.499
44403W        W 8611  11.271  11.311   0.905
44404W        W 8612  15.812  17.692  12.934
44405W        W 8613   4.208  29.102   3.725
44406W        W 8614   5.731   9.184  11.875
44407W        W 8615  14.721  28.973  13.413
44408W        W 8616  20.567  34.952   0.402
44409W        W 8617  11.688  19.669   5.240
44410W        W 8618   8.724   7.293   3.233
44411W        W 8619  22.117  34.040   0.452
44412W        W 8620  17.738   7.309   2.309
44413W        W 8621   6.187  27.196  13.358
44414W        W 8622   4.934  25.504  10.471
44415W        W 8623  42.959  41.469  14.868
44416W        W 8624  25.636  40.905  13.877
44417W        W 8625  40.493  12.307  12.441
44418W        W 8626  33.953  20.754  14.962
44419W        W 8627  20.139  25.103  10.563
44420W        W 8628  26.492  24.170   2.236
44421W        W 8629  43.800  29.135  13.355
44422W        W 8630  37.949  22.618  10.528
44423W        W 8631  23.610  28.438  14.930
44424W        W 8632  41.439  10.300  13.899
44425W        W 8633  28.966  38.962   3.360
44426W        W 8634  28.662   8.256  13.463
44427W        W 8635  23.719   5.329  11.923
44428W        W 8636  24.157  38.968  12.044
44429W        W 8637  17.708   6.901  10.964
44430W        W 8638   5.690  14.832   1.431
44431W        W 8639   8.174  36.099  11.495
44432W        W 8640  21.042  40.826  12.922
44433W        W 8641   9.203  22.584   4.254
44434W        W 8642  32.991  17.103   2.267
44435W        W 8643  29.952  44.289   1.282
44436W        W 8644   0.871  19.146  14.972
44437W        W 8645   0.799  41.827   1.236
44438W        W 8646  43.428  15.771  14.944
44439W        W 8647  36.468   9.150  13.040
44440W        W 8648  13.735  17.584   0.344
44441W        W 8649   6.760  35.938   1.869
44442W        W 8650   0.294  24.148   2.663
44443W        W 8651  38.872  41.941  14.416
44444W        W 8652  38.983  43.445  13.361
44445W        W 8653  40.499  33.506  13.881
44446W        W 8654  41.514  34.513   4.254
44447W        W 8655  27.446  17.567  13.358
44448W        W 8656  21.126  28.676   2.802
44449W        W 8657   9.778  31.526  13.524
44450W        W 8658  23.593   4.852   2.288
44451W        W 8659  11.196  42.457  13.013
44452W        W 8660  35.947  35.553   1.391
44453W        W 8661  14.305   5.198   4.808
44454W        W 8662  16.284  44.365   9.968
44455W        W 8663  41.348  12.208  11.582
44456W        W 8664   2.925  32.531   2.349
44457W        W 8665  30.583   3.952  12.995
44458W        W 8666  11.621  28.029   3.318
44459W        W 8667  34.576  26.177  14.394
44460W        W 8668  37.032  42.963   0.748
44461W        W 8669  32.023  31.945  12.828
44462W        W 8670  18.263  33.626   1.933
44463W        W 8671  40.342  30.415  11.069
44464W        W 8672  17.724  41.347  10.615
44465W        W 8673  19.097  23.130   4.159
44466W        W 8674  38.418  27.124   2.307
44467W        W 8675  19.598  22.745  13.827
44468W        W 8676   6.919  31.621  11.935
44469W        W 8677  27.546   9.245  11.507
44470W        W 8678   5.294  28.002  12.969
44471W        W 8679  15.168  18.258   4.230
44472W        W 8680   7.684   8.301   3.181
44473W        W 8681  40.505   9.350   3.152
44474W        W 8682  26.191  24.121  14.433
44475W        W 8683   6.845   6.903  14.771
44476W        W 8684  18.771  10.186   9.932
44477W        W 8685   3.216  24.661  14.771
44478W        W 8686  30.041   6.260  11.072
44479W        W 8687  44.402  12.341   0.933
44480W        W 8688   4.448  26.567  12.063
44481W        W 8689  16.308  30.478   2.896
44482W        W 8690  20.063  15.276   5.127
44483W        W 8691  14.122  31.031   3.316
44484W        W 8692  28.554  31.018   3.387
44485W        W 8693  38.840  43.808   4.183
44486W        W 8694  29.044  25.560   2.278
44487W        W 8695  27.963  22.185   1.706
44488W        W 8696  27.985   3.345  10.488
44489W        W 8697  21.233  40.359  12.524
44490W        W 8698   1.314  11.823   0.763
44491W        W 8699   8.773  26.110   4.239
44492W        W 8700   8.294  31.065   0.913
44493W        W 8701  14.658   0.928  12.014
44494W        W 8702  10.329  24.572  13.048
44495W        W 8703  14.219   1.254   3.771
44496W        W 8704  14.787   0.786   3.200
44497W        W 8705  22.744  26.518   0.951
44498W        W 8706  38.400  40.891  13.974
44499W        W 8707   3.796  38.849   0.899
44500W        W 8708  10.272   6.340   0.896
44501W        W 8709  20.265  31.034   2.808
44502W        W 8710  33.029   8.755  10.635
44503W        W 8711   0.387  18.578  11.985
44504W        W 8712  18.231  17.714   1.885
44505W        W 8713  35.528  22.074  13.980
44506W        W 8714  21.208  42.908  13.016
44507W        W 8715  12.195  29.075   1.297
44508W        W 8716  13.685  35.381  10.590
44509W        W 8717  28.680  42.919   2.235
44510W        W 8718   1.342  30.552   1.334
44511W        W 8719  17.573   0.948  12.946
44512W        W 8720  13.673  44.495   3.226
44513W        W 8721  19.101  16.123  12.528
44514W        W 8722  42.418   0.823   2.355
44515W        W 8723  39.456  11.712  13.912
44516W        W 8724  21.029  38.991  12.372
44517W        W 8725  43.329  24.572  10.922
44518W        W 8726  32.554   2.783   2.296
44519W        W 8727  18.247  44.425  11.462
44520W        W 8728  43.380  37.984  12.975
44521W        W 8729  32.126   8.252   2.782
44522W        W 8730  32.076  21.021  10.418
44523W        W 8731   9.847  19.733  10.509
44524W        W 8732   9.247  39.841  11.104
44525W        W 8733   4.288  21.022   1.227
44526W        W 8734  41.449  17.693   0.756
44527W        W 8735  24.657  34.466  10.931
44528W        W 8736  35.525  24.072  10.617
44529W        W 8737  36.948   3.288  12.925
44530W        W 8738  18.699  17.615   4.335
44531W        W 8739   3.403  16.713  13.424
44532W        W 8740   2.266   3.401  11.389
44533W        W 8741  11.637   4.729  14.939
44534W        W 8742  40.476  29.006  11.475
44535W        W 8743  14.710  16.572  14.318
44536W        W 8744  31.106  42.339  13.513
44537W        W 8745  36.933  18.258   0.336
44538W        W 8746  19.699  15.634   3.841
44539W        W 8747   9.322  30.110  12.463
44540W        W 8748  24.652  39.507   3.352
44541W        W 8749   6.308  13.715  12.021
44542W        W 8750  15.148  32.957   2.690
44543W        W 8751  34.027  41.459   4.787
44544W        W 8752   6.329  12.226  11.603
44545W        W 8753  44.325  34.573  14.446
44546W        W 8754  15.699   7.233   2.387
44547W        W 8755  20.178   9.774  13.989
44548W        W 8756  34.567   8.294  14.827
44549W        W 8757  41.494  29.614   0.472
44550W        W 8758  38.009  38.566  14.991
44551W        W 8759  21.736  29.171   1.795
44552W        W 8760  11.224  10.211   3.167
44553W        W 8761   2.467  26.145  14.785
44554W        W 8762  28.153  32.412  11.897
44555W        W 8763   6.369  19.236   0.939
44556W        W 8764  31.441  23.725  13.380
44557W        W 8765  22.547  22.671  13.901
44558W        W 8766  13.106  43.811  12.479
44559W        W 8767   4.775  31.966   0.431
44560W        W 8768   6.799  22.198   0.359
44561W        W 8769  28.953   6.707  13.396
44562W        W 8770  38.018  26.669   2.812
44563W        W 8771  34.002  28.991   2.234
44564W        W 8772   4.343  34.893   2.885
44565W        W 8773  25.085   2.431  12.352
44566W        W 8774  13.113   5.384  14.485
44567W        W 8775  33.431   1.250  10.421
44568W        W 8776   6.861  10.148  11.460
44569W        W 8777  34.964  34.110   2.767
44570W        W 8778  25.012  43.817  14.987
44571W        W 8779  11.302  33.018  13.977
44572W        W 8780  10.217  42.783   4.665
44573W        W 8781  39.904  36.921  14.382
44574W        W 8782  32.041   7.240  10.968
44575W        W 8783   2.435  37.415   3.173
44576W        W 8784  14.695  32.087  14.311
44577W        W 8785  25.999   9.242   3.679
44578W        W 8786  20.201  28.497   0.340
44579W        W 8787  24.030  13.677  10.627
44580W        W 8788  14.142  19.611  13.984
44581W        W 8789  44.827   1.746   3.690
44582W        W 8790  40.907  19.253   4.670
44583W        W 8791  40.525  30.983   3.382
44584W        W 8792  12.718  35.086  10.501
44585W        W 8793   5.840  28.474   2.806
44586W        W 8794   2.794  23.135   4.671
44587W        W 8795  19.049   4.874   4.343
44588W        W 8796  38.436  14.264   4.254
44589W        W 8797  36.515  42.292  10.991
44590W        W 8798  27.560  17.780   1.873
44591W        W 8799  23.242   5.267   1.725
44592W        W 8800  32.072  37.412  12.004
44593W        W 8801   2.918  15.770  11.574
44594W        W 8802  41.922  32.561   1.907
44595W        W 8803  18.745   2.385   0.249
44596W        W 8804  42.484  35.948   1.217
44597W        W 8805  25.069  31.415   4.254
44598W        W 8806  36.509  13.648   2.348
44599W        W 8807  20.632  32.625  14.279
44600W        W 8808  11.255   4.247   1.431
44601W        W 8809  32.113  32.626  13.900
44602W        W 8810  36.464  20.263   0.264
44603W        W 8811  38.855  15.768   1.311
44604W        W 8812  34.879  29.486  12.360
44605W        W 8813   3.921   5.782  13.342
44606W        W 8814  16.772  32.455  14.993
44607W        W 8815  11.352  12.267   4.802
44608W        W 8816  11.866   0.854   1.291
44609W        W 8817  35.525  10.169   9.967
44610W        W 8818  20.738  25.524  13.354
44611W        W 8819  34.594  18.779  11.889
44612W        W 8820  42.860   7.246   4.746
44613W        W 8821  13.754  38.052   0.439
44614W        W 8822   4.389   0.786   3.670
44615W        W 8823  42.285  22.608  12.967
44616W        W 8824   5.777  27.561  13.941
44617W        W 8825  44.372  18.096   4.243
44618W        W 8826   6.228   1.972   3.740
44619W        W 8827  23.120  41.998   3.257
44620W        W 8828   4.888  40.532   2.836
44621W        W 8829  36.518  39.361  14.803
44622W        W 8830  20.689  17.792  10.608
44623W        W 8831  33.041  30.977  11.400
44624W        W 8832  23.635  32.434  10.622
44625W        W 8833  44.844  23.634  11.039
44626W        W 8834  30.972  26.576   4.652
44627W        W 8835  31.147   8.781  10.541
44628W        W 8836   1.832  19.229   0.929
44629W        W 8837  23.076  44.377  12.870
44630W        W 8838   5.312  33.611   1.238
44631W        W 8839  30.045  28.556  11.983
44632W        W 8840   3.443  27.566  13.343
44633W        W 8841  26.620  23.987  14.973
44634W        W 8842  21.648  23.653   0.814
44635W        W 8843  43.002  14.257  14.027
44636W        W 8844  27.967  15.754   5.262
44637W        W 8845   0.976   8.319   1.768
44638W        W 8846  41.524   5.927  11.984
44639W        W 8847  36.953  32.049   3.721
44640W        W 8848  13.220  20.704   0.400
44641W        W 8849  23.127   5.827   5.082
44642W        W 8850  25.083  30.427  12.039
44643W        W 8851   8.407  14.731   0.417
44644W        W 8852  22.606   8.661  10.601
44645W        W 8853  16.083  34.412  11.613
44646W        W 8854  26.050   8.356  10.569
44647W        W 8855   1.295   7.275   0.740
44648W        W 8856  26.102   3.237   2.844
44649W        W 8857  14.755  11.247  11.916
44650W        W 8858   9.829  39.326   1.317
44651W        W 8859   7.196   5.833  14.951
44652W        W 8860   7.367  17.692  14.821
44653W        W 8861  33.439  43.962  14.495
44654W        W 8862   5.248  22.575   3.331
44655W        W 8863  41.031  17.288  11.945
44656W        W 8864  41.844  14.330  10.414
44657W        W 8865  27.595  29.504  14.420
44658W        W 8866  35.463  25.593  14.470
44659W        W 8867  16.235  18.247  14.289
44660W        W 8868  28.500   1.917   3.709
44661W        W 8869   3.303  34.401  13.053
44662W        W 8870   1.807  30.116  14.399
44663W        W 8871  36.445  11.706  12.051
44664W        W 8872  37.859  37.521   3.287
44665W        W 8873   8.309  21.100  13.799
44666W        W 8874  36.851  28.967   1.425
44667W        W 8875  20.662  19.177   5.600
44668W        W 8876   4.802  25.484  11.085
44669W        W 8877  44.340  19.626  10.613
44670W        W 8878  35.978  21.200   3.146
44671W        W 8879  11.861   1.866   5.107
44672W        W 8880  22.053  10.169  11.118
44673W        W 8881  38.908  26.156  13.414
44674W        W 8882   5.858  13.214  11.414
44675W        W 8883  34.943   8.741   0.320
44676W        W 8884  39.063  18.690  14.444
44677W        W 8885  32.140  15.745   1.694
44678W        W 8886  21.597  26.624  11.437
44679W        W 8887   6.260  41.337  11.023
44680W        W 8888  42.957  15.196  14.873
44681W        W 8889  33.487  28.531  14.300
44682W        W 8890  15.242  29.644  11.549
44683W        W 8891  17.215  14.324   2.797
44684W        W 8892  36.028  44.970   2.214
44685W        W 8893   3.709  42.861  12.561
44686W        W 8894  38.564  32.901   2.225
44687W        W 8895  34.558  20.270  13.803
44688W        W 8896  10.274   7.788  11.540
44689W        W 8897  28.435  21.110   0.886
44690W        W 8898  16.568  14.233   1.240
44691W        W 8899  17.794  30.977  14.284
44692W        W 8900  35.393  38.329   2.777
44693W        W 8901  36.917  44.488   0.896
44694W        W 8902  34.889  18.191  14.334
44695W        W 8903  20.727  22.738  10.561
44696W        W 8904   3.311  21.121  11.012
44697W        W 8905  40.385  31.923   4.824
44698W        W 8906  44.798   8.324   0.453
44699W        W 8907  23.679  33.576  12.523
44700W        W 8908  43.357  29.959   3.203
44701W        W 8909  40.311   5.287   0.290
44702W        W 8910  41.381  32.953  13.494
44703W        W 8911  30.467  16.236   1.434
44704W        W 8912  27.014  12.623   1.241
44705W        W 8913   3.305  32.946  13.391
44706W        W 8914  15.620   2.725  12.458
44707W        W 8915  44.763   0.743  14.830
44708W        W 8916  28.485   9.841  11.599
44709W        W 8917  33.090  22.565   2.747
44710W        W 8918  22.157  44.426  11.049
44711W        W 8919  29.146  27.615   3.246
44712W        W 8920  33.497  35.859   1.395
44713W        W 8921  43.904  38.048  13.856
44714W        W 8922  27.966  27.098  14.277
44715W        W 8923  36.085  22.592  12.043
44716W        W 8924  11.338  38.415  13.517
44717W        W 8925   4.728  19.169   1.859
44718W        W 8926  22.613  35.861  13.991
44719W        W 8927  36.990  39.374   2.206
44720W        W 8928  19.136   1.745   1.278
44721W        W 8929  22.026  27.657   3.294
44722W        W 8930  38.072  16.717   1.375
44723W        W 8931  31.130  17.157   4.212
44724W        W 8932  32.599  15.732  12.351
44725W        W 8933   8.299   3.873  13.342
44726W        W 8934  28.129  23.689   4.189
44727W        W 8935  19.216  29.624   0.737
44728W        W 8936   3.418  40.402  11.087
44729W        W 8937   7.824   2.437  13.503
44730W        W 8938  10.154  41.502  12.023
44731W        W 8939  17.715   4.774   4.269
44732W        W 8940  22.522  15.690  10.104
44733W        W 8941  21.046  38.942  11.573
44734W        W 8942  12.669  23.056  12.872
44735W        W 8943   7.356   6.683   1.429
44736W        W 8944   1.411  33.546   5.113
44737W        W 8945  22.245  11.853  11.060
44738W        W 8946   5.334   7.718  10.992
44739W        W 8947  39.021  27.051  14.508
44740W        W 8948  14.234  19.732   5.134
44741W        W 8949  44.837  25.197  13.960
44742W        W 8950  38.392  29.606  13.934
44743W        W 8951  32.600  35.496   2.779
44744W        W 8952  22.173  19.226   3.159
44745W        W 8953  41.332  20.208   3.631
44746W        W 8954   8.225   9.801  12.433
44747W        W 8955  40.850  13.777  11.882
44748W        W 8956  28.596  13.772   0.819
44749W        W 8957  40.799  38.012  14.004
44750W        W 8958   3.394  30.118   1.835
44751W        W 8959  18.180  27.679   4.644
44752W        W 8960  34.887  21.691   0.378
44753W        W 8961  28.070  40.810  10.637
44754W        W 8962  27.488  33.395   4.608
44755W        W 8963  40.440  27.080  14.509
44756W        W 8964  19.132   2.384   4.155
44757W        W 8965  27.459   9.756   2.338
44758W        W 8966  28.575  33.886  10.889
44759W        W 8967  38.942  38.964   0.403
44760W        W 8968   3.814  43.984  10.913
44761W        W 8969  26.153  13.806  12.472
44762W        W 8970  30.622  44.924   4.355
44763W        W 8971  20.210  41.457   4.759
44764W        W 8972  30.141  10.255  14.926
44765W        W 8973  33.391  17.757   4.664
44766W        W 8974   9.226  31.148  13.001
44767W        W 8975  26.476  23.533   4.124
44768W        W 8976  36.542  31.896   3.162
44769W        W 8977  30.959   1.754   3.175
44770W        W 8978  37.354  11.690  14.486
44771W        W 8979  42.805  41.454  12.059
44772W        W 8980  16.300   2.443  14.444
44773W        W 8981  32.102   0.906  12.066
44774W        W 8982  12.170   9.385   2.700
44775W        W 8983  38.390   7.764   4.134
44776W        W 8984  30.588  23.142  10.425
44777W        W 8985  39.850  27.527   1.230
44778W        W 8986  37.848  17.592  11.036
44779W        W 8987  44.771  35.401   4.178
44780W        W 8988  19.102  20.619  13.401
44781W        W 8989   3.220  36.542  12.426
44782W        W 8990  33.931   0.380  11.867
44783W        W 8991  39.955   2.815  13.501
44784W        W 8992  19.706   9.712  12.935
44785W        W 8993  15.237   9.830  11.002
44786W        W 8994   8.790  38.942  11.475
44787W        W 8995  35.487  16.653  11.568
44788W        W 8996  24.154   6.768   4.687
44789W        W 8997  23.612  20.766   2.683
44790W        W 8998  24.614   3.370  11.601
44791W        W 8999  27.591  44.312  13.378
44792W        W 9000  39.065  24.070  13.472
44793W        W 9001  39.041   9.215   3.172
44794W        W 9002  31.635  43.296   3.707
44795W        W 9003   5.366  34.951  11.542
44796W        W 9004  11.780  16.299   3.381
44797W        W 9005   9.749  18.559   2.193
44798W        W 9006   7.208  10.822  10.928
44799W        W 9007  16.712  36.846   5.286
44800W        W 9008  42.796  23.232  12.430
44801W        W 9009  36.003  35.503   0.475
44802W        W 9010  34.899  37.030  12.387
44803W        W 9011  19.651  44.417  13.310
44804W        W 9012  19.647  24.512   2.228
44805W        W 9013  16.685  29.073   0.463
44806W        W 9014   5.220  13.710   3.835
44807W        W 9015  14.663  39.339  11.888
44808W        W 9016  31.142  19.710   0.861
44809W        W 9017  28.510  44.798  10.428
44810W        W 9018  10.354   4.239   3.368
44811W        W 9019  15.307  38.823  13.521
44812W        W 9020  17.586  25.686  11.859
44813W        W 9021  11.252  43.885   3.786
44814W        W 9022   1.751   4.218  12.447
44815W        W 9023  18.197  12.669   1.767
44816W        W 9024  31.592  35.516   3.366
44817W        W 9025  29.168  23.512  10.607
44818W        W 9026  25.041  19.642  10.445
44819W        W 9027  11.652  36.421   1.852
44820W        W 9028  13.149   1.964   0.951
44821W        W 9029  18.753   6.724  12.064
44822W        W 9030  32.953   7.248   3.154
44823W        W 9031  43.506   3.225  14.991
44824W        W 9032  26.075   0.346   0.460
44825W        W 9033  18.582   8.676   2.823
44826W        W 9034  31.542   4.321  13.035
44827W        W 9035  26.531  33.440   1.697
44828W        W 9036  40.022   5.258   0.460
44829W        W 9037  39.016  31.491  10.964
44830W        W 9038  14.259   5.929   0.746
44831W        W 9039  30.948  15.280  11.869
44832W        W 9040   5.215  31.578  13.978
44833W        W 9041  30.145   2.436  14.509
44834W        W 9042  37.936   0.372  12.863
44835W        W 9043  20.068  11.326   4.339
44836W        W 9044  39.364  25.550   4.165
44837W        W 9045  17.642  21.719   1.341
44838W        W 9046   3.795  23.706   2.233
44839W        W 9047  27.009  24.974   1.293
44840W        W 9048  13.684  21.123  10.133
44841W        W 9049   5.896  28.157  10.548
44842W        W 9050   5.353  38.538  14.808
44843W        W 9051  27.663   0.322  10.953
44844W        W 9052   0.927  38.476   3.698
44845W        W 9053  37.501  33.961  13.027
44846W        W 9054  42.304  18.566   1.328
44847W        W 9055   5.194  41.832   3.303
44848W        W 9056  35.003  10.736  14.386
44849W        W 9057  38.440  43.292  14.388
44850W        W 9058  42.396   1.844  14.948
44851W        W 9059  25.029   0.893  10.934
44852W        W 9060  21.231  17.226  11.913
44853W        W 9061  42.474  24.094  10.965
44854W        W 9062  35.004  21.236  11.079
44855W        W 9063  38.971  43.436  11.424
44856W        W 9064   8.161  20.568  14.771
44857W        W 9065  22.239  12.361  11.376
44858W        W 9066  16.788  43.382  10.622
44859W        W 9067  20.703  24.044   4.348
44860W        W 9068  12.344  20.124   2.743
44861W        W 9069   6.907   7.269   2.707
44862W        W 9070   5.427  44.384   1.302
44863W        W 9071  40.884   3.366   0.809
44864W        W 9072   1.752  35.981  12.089
44865W        W 9073  21.689   0.409   1.385
44866W        W 9074  37.857  21.704   2.259
44867W        W 9075  24.216  11.836   1.783
44868W        W 9076   3.377   1.276  14.965
44869W        W 9077  44.784  41.020   3.818
44870W        W 9078   7.268  16.191  12.869
44871W        W 9079  30.943  28.111  14.919
44872W        W 9080   1.952  12.641   3.373
44873W        W 9081  42.975  21.070   1.442
44874W        W 9082  37.423  31.026   0.806
44875W        W 9083  26.080  40.926   3.716
44876W        W 9084  22.165  38.003  10.930
44877W        W 9085  37.353  32.885  11.104
44878W        W 9086  14.272  15.207  10.507
44879W        W 9087  14.744  36.387   3.815
44880W        W 9088   6.216  28.476   4.630
44881W        W 9089  36.519  41.791   1.696
44882W        W 9090  39.427  40.039   2.363
44883W        W 9091   8.744   4.343  11.002
44884W        W 9092  32.588   1.747   1.228
44885W        W 9093  32.101  41.031  11.374
44886W        W 9094  14.720  26.163  12.055
44887W        W 9095   1.305  22.137  12.848
44888W        W 9096   7.703   0.461   1.873
44889W        W 9097   1.350  32.895   2.225
44890W        W 9098   0.858  22.613   0.434
44891W        W 9099   5.218  33.073   2.209
44892W        W 9100  37.524  36.514  13.327
44893W        W 9101   2.939   0.304   4.315
44894W        W 9102  43.876  20.110   0.374
44895W        W 9103  39.513   6.709  13.028
44896W        W 9104  27.085  33.595   4.247
44897W        W 9105   7.367  34.067  12.403
44898W        W 9106   6.201  24.590   2.346
44899W        W 9107  11.234  17.633  10.918
44900W        W 9108   6.309   4.924  11.054
44901W        W 9109  27.986   4.402  13.810
44902W        W 9110  13.311  23.059   4.309
44903W        W 9111   1.465  38.430  10.074
44904W        W 9112  13.678  27.125  14.434
44905W        W 9113  12.255  27.634  12.831
44906W        W 9114  37.390  41.954  13.515
44907W        W 9115   1.334  29.991  10.956
44908W        W 9116  12.653  30.996  12.539
44909W        W 9117  31.075   6.913  13.464
44910W        W 9118  26.039  26.501   3.170
44911W        W 9119  24.103  44.931   1.227
44912W        W 9120   7.246  42.506   3.201
44913W        W 9121  26.046  36.565   3.636
44914W        W 9122  17.738  19.774  11.002
44915W        W 9123  35.884  22.656  13.433
44916W        W 9124   2.883  32.092   4.235
44917W        W 9125   1.320  38.822   4.802
44918W        W 9126  13.341  26.077  14.994
44919W        W 9127  27.104  16.691   3.255
44920W        W 9128  28.511  38.349  14.406
44921W        W 9129   6.758   4.787  14.961
44922W        W 9130  42.961  20.041   9.476
44923W        W 9131   8.260  44.465  11.386
44924W        W 9132   9.851   0.916  12.364
44925W        W 9133  36.966  27.147   3.712
44926W        W 9134  41.000  19.537  10.554
44927W        W 9135  32.980   1.428  11.960
44928W        W 9136   4.836  12.140   1.244
44929W        W 9137  17.757   9.269  13.504
44930W        W 9138  35.496   4.352   3.643
44931W        W 9139  11.309  38.019   0.306
44932W        W 9140  27.175  17.155   3.694
44933W        W 9141   7.717  16.642   3.666
44934W        W 9142  43.799   0.492  11.409
44935W        W 9143  29.467  24.530   3.150
44936W        W 9144  19.651  27.546  11.596
44937W        W 9145  35.079   4.324   3.272
44938W        W 9146  33.096   4.242   2.794
44939W        W 9147   5.850   7.231  14.504
44940W        W 9148   3.815  25.659   2.860
44941W        W 9149  40.023  26.535  12.928
44942W        W 9150  43.345  29.582   0.302
44943W        W 9151   9.282  11.353  14.371
44944W        W 9152   9.835  43.312   3.783
44945W        W 9153  18.611   4.340   3.730
44946W        W 9154   6.901  20.572   1.312
44947W        W 9155   9.236   6.690   4.619
44948W        W 9156  30.656  22.669   0.436
44949W        W 9157  26.607   1.887  10.563
44950W        W 9158  32.594  14.208  11.551
44951W        W 9159  43.493  12.776   0.243
44952W        W 9160  27.113   9.337  13.331
44953W        W 9161  26.464   6.243  10.593
44954W        W 9162  35.108  29.098   4.197
44955W        W 9163  18.201   7.324   5.224
44956W        W 9164  13.247  20.159  12.002
44957W        W 9165  44.304  36.985   1.746
44958W        W 9166  15.226   6.775   0.302
44959W        W 9167  42.329   5.353   4.163
44960W        W 9168  17.232  43.980  11.911
44961W        W 9169  20.673  11.201  11.554
44962W        W 9170  38.537  39.390   0.244
44963W        W 9171  23.131   0.327  13.964
44964W        W 9172  39.475  21.669  11.078
44965W        W 9173  38.484  43.428  13.335
44966W        W 9174  37.505  41.823  11.403
44967W        W 9175  44.464   9.226   1.799
44968W        W 9176  44.452  22.734  13.857
44969W        W 9177  36.546  25.037  12.965
44970W        W 9178  31.906   3.795  12.085
44971W        W 9179  24.619  26.178   3.631
44972W        W 9180  28.008  26.600  11.999
44973W        W 9181  43.872   8.345  14.853
44974W        W 9182  20.561  43.462   4.148
44975W        W 9183  36.892   6.921  14.401
44976W        W 9184   9.860  10.702   0.834
44977W        W 9185  35.107  34.397   1.736
44978W        W 9186  19.730  10.844   2.704
44979W        W 9187  42.910  31.093   0.302
44980W        W 9188  25.139  32.432   2.400
44981W        W 9189  25.004  32.604  12.527
44982W        W 9190  37.558   2.831   2.248
44983W        W 9191  41.853   2.443   4.304
44984W        W 9192  26.604  16.116   2.680
44985W        W 9193   4.712  42.932   5.288
44986W        W 9194  32.606   1.955   3.847
44987W        W 9195  27.542  21.156  10.987
44988W        W 9196   6.310  11.313  11.016
44989W        W 9197  37.921  36.587   1.259
44990W        W 9198  36.014  23.237   2.265
44991W        W 9199  10.181  40.007  10.152
44992W        W 9200  20.115  37.528  10.122
44993W        W 9201   0.772  27.475  13.359
44994W        W 9202  43.841  27.554  12.991
44995W        W 9203  26.978  35.061   1.224
44996W        W 9204  26.139  42.505  10.425
44997W        W 9205   0.439  24.998  14.349
44998W        W 9206  33.971  30.480  10.456
44999W        W 9207  32.912  13.270  13.037
45000W        W 9208  16.684  15.145   3.254
45001W        W 9209  22.639  14.230  12.501
45002W        W 9210  28.972  44.466   0.911
45003W        W 9211  17.711   4.771   4.629
45004W        W 9212  26.695  38.863  11.892
45005W        W 9213  27.468  23.590   0.442
45006W        W 9214   7.757   5.196   1.300
45007W        W 9215   6.882  20.630  10.612
45008W        W 9216  23.529   9.362   0.948
45009W        W 9217   8.900  15.220  14.871
45010W        W 9218  36.523  32.928   2.417
45011W        W 9219  28.578  11.157  13.920
45012W        W 9220  18.098   6.204   3.855
45013W        W 9221  37.495  44.383   4.114
45014W        W 9222  37.081   2.811   0.726
45015W        W 9223  11.324  40.020   4.752
45016W        W 9224  22.211  43.337  11.880
45017W        W 9225  37.041  25.541   4.779
45018W        W 9226  38.872  13.327  13.959
45019W        W 9227  34.062  26.019  12.450
45020W        W 9228  16.275  17.152  14.297
45021W        W 9229  31.049  26.591  13.479
45022W        W 9230  17.122  26.616   0.885
45023W        W 9231   3.900   4.813   0.749
45024W        W 9232  25.190   2.441   4.792
45025W        W 9233   2.932  15.666   1.261
45026W        W 9234   7.761  22.663   0.431
45027W        W 9235  33.943  12.622   2.820
45028W        W 9236  30.980  32.955   1.799
45029W        W 9237  17.742   7.264   3.259
45030W        W 9238  11.358  15.103   0.754
45031W        W 9239  18.602  13.286  14.868
45032W        W 9240  41.352  24.712   4.241
45033W        W 9241  20.768  27.465  11.924
45034W        W 9242   4.254  32.123  11.947
45035W        W 9243  42.434  39.384  14.009
45036W        W 9244  16.576  27.053  14.840
45037W        W 9245  32.984  16.739  12.899
45038W        W 9246  12.736  17.284  14.914
45039W        W 9247  30.626  22.662  14.376
45040W        W 9248   1.890  40.451  10.425
45041W        W 9249   2.902  29.002   1.450
45042W        W 9250  22.633  39.900  10.627
45043W        W 9251  37.076  35.034   0.392
45044W        W 9252   3.320  19.252  14.285
45045W        W 9253   4.294  10.307  14.442
45046W        W 9254  30.094   4.893   4.244
45047W        W 9255  25.084  25.020  10.580
45048W        W 9256  37.508  25.026   5.161
45049W        W 9257   2.820   0.822  13.524
45050W        W 9258  39.352   4.290  10.614
45051W        W 9259  33.039  36.871  11.969
45052W        W 9260   2.819  40.851   2.692
45053W        W 9261  16.309  38.060  13.311
45054W        W 9262  29.524  24.644   0.305
45055W        W 9263   9.313  34.479  14.948
45056W        W 9264  21.754  14.258  12.934
45057W        W 9265  14.787  30.515  13.976
45058W        W 9266  12.695  11.302   2.401
45059W        W 9267  39.377  25.963   2.321
45060W        W 9268  20.732  34.596   2.740
45061W        W 9269  38.898  23.578  14.870
45062W        W 9270  18.177  12.160   4.815
45063W        W 9271  32.420  35.456  14.794
45064W        W 9272  40.849   5.251  14.844
45065W        W 9273  41.831  11.244  14.335
45066W        W 9274  20.733   3.910   2.763
45067W        W 9275  18.691  15.233   1.240
45068W        W 9276  34.420  33.532  12.056
45069W        W 9277  29.561   5.931  11.582
45070W        W 9278   0.844  30.546   3.153
45071W        W 9279  28.143   4.205  10.405
45072W        W 9280  39.861  28.965   3.348
45073W        W 9281  26.078  38.563  10.635
45074W        W 9282  30.571   4.231   3.794
45075W        W 9283  11.157  39.009   0.865
45076W        W 9284  21.693  38.409   2.675
45077W        W 9285  22.607   6.279  12.346
45078W        W 9286   2.937  44.787   3.847
45079W        W 9287   8.273  15.296   3.277
45080W        W 9288  17.756  14.690   2.685
45081W        W 9289  11.353  29.587  10.545
45082W        W 9290  13.182  17.088   1.824
45083W        W 9291  40.490  10.364   1.418
45084W        W 9292  16.665   8.329   2.771
45085W        W 9293   0.419   2.298   4.816
45086W        W 9294  39.030  13.831  12.455
45087W        W 9295  16.290  31.606   2.692
45088W        W 9296  37.397  17.291   3.224
45089W        W 9297  43.488  41.294   2.235
45090W        W 9298  25.618  44.364  10.922
45091W        W 9299   5.879  23.643  13.038
45092W        W 9300  15.737   1.766  12.399
45093W        W 9301  26.177   4.385  11.539
45094W        W 9302   7.268  30.530  13.850
45095W        W 9303  39.510   6.835  12.093
45096W        W 9304  31.135   7.229   4.190
45097W        W 9305  34.467  29.452   4.139
45098W        W 9306  24.096  17.618   4.154
45099W        W 9307   3.389   9.774  13.428
45100W        W 9308  28.569  42.950   2.829
45101W        W 9309   8.682   6.276  11.056
45102W        W 9310  12.322   0.965   2.248
45103W        W 9311  26.076  11.182  14.836
45104W        W 9312  41.871  35.461   4.622
45105W        W 9313  44.874  16.734  11.122
45106W        W 9314  42.376  35.481   4.790
45107W        W 9315  26.195  13.201   4.677
45108W        W 9316   9.264  18.228   1.259
45109W        W 9317  24.975   4.863  13.547
45110W        W 9318   4.922  38.849  13.045
45111W        W 9319  44.972  14.762   4.150
45112W        W 9320  21.665  11.171  11.408
45113W        W 9321  27.604  23.630   1.305
45114W        W 9322  44.959  32.095   3.734
45115W        W 9323  38.413  43.936   3.799
45116W        W 9324  30.445   6.896   2.192
45117W        W 9325  34.466   0.251   2.389
45118W        W 9326  32.957  19.122   1.880
45119W        W 9327   4.853  32.921  10.581
45120W        W 9328   7.411  26.076   2.206
45121W        W 9329  41.424  15.641  13.899
45122W        W 9330  40.035  11.183   1.740
45123W        W 9331  25.117  25.061  12.922
45124W        W 9332  15.683  32.532   2.418
45125W        W 9333  17.206  33.033  13.530
45126W        W 9334  44.436   9.686   5.160
45127W        W 9335  13.640  30.934   4.176
45128W        W 9336   4.281   6.293  12.038
45129W        W 9337  19.678  24.561  12.452
45130W        W 9338   8.306  26.534  12.965
45131W        W 9339  16.773  11.250  12.463
45132W        W 9340  24.669  29.628  13.547
45133W        W 9341  14.311  43.457  12.068
45134W        W 9342  39.859  38.928  10.090
45135W        W 9343  40.819   6.872  12.395
45136W        W 9344  37.066  14.245  12.552
45137W        W 9345  29.951   7.321   1.828
45138W        W 9346  28.530  11.237  12.090
45139W        W 9347   0.845  34.073  13.375
45140W        W 9348  13.118  34.398  11.905
45141W        W 9349  11.296  22.067  13.038
45142W        W 9350  17.134  35.485   3.817
45143W        W 9351   1.731  42.282   0.433
45144W        W 9352  32.632  12.328  10.482
45145W        W 9353  27.997  27.096   3.268
45146W        W 9354  17.106   1.842   3.729
45147W        W 9355  19.749  29.986  10.442
45148W        W 9356   4.864  43.925  13.835
45149W        W 9357  12.740  33.521   2.418
45150W        W 9358   5.403   6.210   3.196
45151W        W 9359  21.245  35.915   0.922
45152W        W 9360  20.529   8.217  10.998
45153W        W 9361  26.520  37.983   0.805
45154W        W 9362  38.338  37.923   1.703
45155W        W 9363  17.211   8.814   3.158
45156W        W 9364  15.659  42.920  11.894
45157W        W 9365  37.339  31.584  10.892
45158W        W 9366  35.439   6.213   1.817
45159W        W 9367   8.164  31.631  14.776
45160W        W 9368   6.247   5.709  10.494
45161W        W 9369   3.868  23.056  12.453
45162W        W 9370   8.347  42.809   1.910
45163W        W 9371   1.911   9.710   4.661
45164W        W 9372  26.633   8.824   2.342
45165W        W 9373  44.421   4.280   4.685
45166W        W 9374  14.820   7.243   2.868
45167W        W 9375  18.751  16.691  12.824
45168W        W 9376  22.606   0.356  13.981
45169W        W 9377  43.326  39.836   1.860
45170W        W 9378  31.923  34.592  13.025
45171W        W 9379   6.283  26.165   3.380
45172W        W 9380  10.678   0.483   1.450
45173W        W 9381  27.141  44.409  13.794
45174W        W 9382  28.483   0.484  14.277
45175W        W 9383  32.416  35.417   3.383
45176W        W 9384   7.186  13.334   1.811
45177W        W 9385  41.506  21.210   0.343
45178W        W 9386   9.708  44.366  10.601
45179W        W 9387  22.661   7.225   4.148
45180W        W 9388  23.496  40.812   0.861
45181W        W 9389  34.005  27.990   0.776
45182W        W 9390  22.517  37.931   2.714
45183W        W 9391  44.267  39.993  12.844
45184W        W 9392  32.623  12.814   0.748
45185W        W 9393  26.965  10.300   0.297
45186W        W 9394   3.850   0.366   0.388
45187W        W 9395  20.146  43.398  14.355
45188W        W 9396   5.201  22.184   3.191
45189W        W 9397  18.791  10.149  11.523
45190W        W 9398  17.084  21.241   3.749
45191W        W 9399  25.619   5.319  13.352
45192W        W 9400   5.838  20.217  11.601
45193W        W 9401  23.594   7.795  13.045
45194W        W 9402  33.488  38.532  11.934
45195W        W 9403  28.106  42.920  10.158
45196W        W 9404  16.243   6.198   2.828
45197W        W 9405   9.348   1.794   3.263
45198W        W 9406  24.634  12.362  10.926
45199W        W 9407  10.170  12.207  10.123
45200W        W 9408  43.813   0.764   1.817
45201W        W 9409  15.651   2.930   1.841
45202W        W 9410  34.555  42.361  14.441
45203W        W 9411  34.944  28.039   1.895
45204W        W 9412  44.422  22.718   0.876
45205W        W 9413   1.965  26.638  10.444
45206W        W 9414  36.896  15.639   4.252
45207W        W 9415   7.318  34.417   3.160
45208W        W 9416  21.584   2.369   3.655
45209W        W 9417  38.387  18.642  11.004
45210W        W 9418  43.830  18.127  12.889
45211W        W 9419   8.401  11.824  11.091
45212W        W 9420   6.860  29.551  10.559
45213W        W 9421  35.402   5.814   2.340
45214W        W 9422  19.533   6.419  11.047
45215W        W 9423  22.078   9.301   9.477
45216W        W 9424   8.266  13.315   4.210
45217W        W 9425   7.332   2.358  14.342
45218W        W 9426  17.280  16.800  14.377
45219W        W 9427  40.896   5.347  13.029
45220W        W 9428   6.372  19.555  12.446
45221W        W 9429  36.881  21.115   2.366
45222W        W 9430  13.811   7.238  10.950
45223W        W 9431  16.171  26.032  10.426
45224W        W 9432  34.066  42.792   0.265
45225W        W 9433  23.034  37.364  11.891
45226W        W 9434  13.157  25.697   3.769
45227W        W 9435  36.557   9.708   1.433
45228W        W 9436  28.588  41.445   4.116
45229W        W 9437  30.154   6.234   3.266
45230W        W 9438  15.162  18.610  12.068
45231W        W 9439  37.856   8.320  11.508
45232W        W 9440   5.381  28.454   1.255
45233W        W 9441  34.385  18.551   2.847
45234W        W 9442  23.573   1.314   3.279
45235W        W 9443  31.974  28.653   2.396
45236W        W 9444  21.074  17.757   3.250
45237W        W 9445  23.596  28.006  13.985
45238W        W 9446  10.166  41.425  14.388
45239W        W 9447  28.537  33.912   2.257
45240W        W 9448   0.449  44.289  10.588
45241W        W 9449  24.563  28.087   2.399
45242W        W 9450  22.209   4.730   0.820
45243W        W 9451  37.902   3.456   4.293
45244W        W 9452  19.711  28.982   1.406
45245W        W 9453  27.149  36.460  10.912
45246W        W 9454  27.031   8.382  13.410
45247W        W 9455  14.120  29.941  11.008
45248W        W 9456  10.780  37.364   3.776
45249W        W 9457  44.284  22.188   2.742
45250W        W 9458   3.357  21.529  10.437
45251W        W 9459  21.254   2.766   2.254
45252W        W 9460   3.748   7.886  13.918
45253W        W 9461  26.528  23.023   2.185
45254W        W 9462  21.058  26.134  12.467
45255W        W 9463  12.279   7.834   0.729
45256W        W 9464  16.645  26.964  11.062
45257W        W 9465   6.342  23.519   1.728
45258W        W 9466  24.624  22.205  11.473
45259W        W 9467  18.618  24.624   0.846
45260W        W 9468  25.079  29.545  11.023
45261W        W 9469  39.910  43.407  11.538
45262W        W 9470   3.242   9.671   1.354
45263W        W 9471  43.008   9.221  11.114
45264W        W 9472  23.676  39.840   2.317
45265W        W 9473   1.239  35.388   1.813
45266W        W 9474   5.885   8.363  10.550
45267W        W 9475   6.809  11.856   2.741
45268W        W 9476  11.344   7.898   2.886
45269W        W 9477   0.353   2.449   3.702
45270W        W 9478  24.064  33.563  14.982
45271W        W 9479  15.105  15.633  12.977
45272W        W 9480   5.345  35.422   2.242
45273W        W 9481  17.639  15.255  14.332
45274W        W 9482  40.814  27.064   3.677
45275W        W 9483  12.692   2.789   1.816
45276W        W 9484  30.923   7.240   3.247
45277W        W 9485  32.614  30.437  14.996
45278W        W 9486   0.806  24.993  11.072
45279W        W 9487  43.458  21.183  14.885
45280W        W 9488  43.805   4.913  11.419
45281W        W 9489   1.800  28.572  14.797
45282W        W 9490  35.582   1.325   3.770
45283W        W 9491  20.529  36.024  14.348
45284W        W 9492   9.263  38.914  11.052
45285W        W 9493  26.015  22.606  13.005
45286W        W 9494  38.892  12.642   0.303
45287W        W 9495  38.342  14.158   1.415
45288W        W 9496  16.286  10.687  13.535
45289W        W 9497  44.360   7.870  10.487
45290W        W 9498   0.773  41.354  14.332
45291W        W 9499  31.459  18.190   1.884
45292W        W 9500  39.882  18.693   2.205
45293W        W 9501  31.947  41.380   3.146
45294W        W 9502  27.491  11.163  12.484
45295W        W 9503  42.469  32.071  13.390
45296W        W 9504  32.933  20.704  11.521
45297W        W 9505  27.457  22.511  14.312
45298W        W 9506   3.820  14.235   0.904
45299W        W 9507  33.464  40.873  10.584
45300W        W 9508  14.800  24.556   0.399
45301W        W 9509  17.606  22.539   2.343
45302W        W 9510   2.274  39.821   1.731
45303W        W 9511   9.333  38.939  11.459
45304W        W 9512  28.020   5.393   2.335
45305W        W 9513   6.793  15.750  12.414
45306W        W 9514   8.379   0.324  13.417
45307W        W 9515  31.521  16.738  13.484
45308W        W 9516  43.919  36.998  13.427
45309W        W 9517  29.015  26.612  10.473
45310W        W 9518  18.585   1.376   4.683
45311W        W 9519  21.182  11.235   4.705
45312W        W 9520  20.684  31.025   3.653
45313W        W 9521  43.986  34.927   9.982
45314W        W 9522   2.355  19.544   1.703
45315W        W 9523  24.489  27.052  12.941
45316W        W 9524  41.893  33.104  13.855
45317W        W 9525  11.201   0.342   1.338
45318W        W 9526  44.932  24.988  13.410
45319W        W 9527   8.784  26.568   5.120
45320W        W 9528  42.405  36.543   2.754
45321W        W 9529  13.178  37.449   3.697
45322W        W 9530  10.322  43.990   2.314
45323W        W 9531  39.036  35.378  10.512
45324W        W 9532  14.156  32.922   0.810
45325W        W 9533  36.991  26.610   3.230
45326W        W 9534  20.086  17.268   2.886
45327W        W 9535  25.060   0.831  14.378
45328W        W 9536  44.754  36.049  11.114
45329W        W 9537  18.154  40.045   1.212
45330W        W 9538  23.158  11.726  10.979
45331W        W 9539  35.585  27.618  11.872
45332W        W 9540   1.875  13.235   1.365
45333W        W 9541  26.033  23.641  12.497
45334W        W 9542   7.388  18.709  12.044
45335W        W 9543  34.579  17.784  14.453
45336W        W 9544  34.091   6.248   0.859
45337W        W 9545  41.803  21.137   1.823
45338W        W 9546  16.301  38.534  13.458
45339W        W 9547  26.969  10.365   0.806
45340W        W 9548  40.798  21.048  13.397
45341W        W 9549  34.413   2.915  14.953
45342W        W 9550  19.062  41.335  11.906
45343W        W 9551  36.360  19.237   3.296
45344W        W 9552  23.529  27.518  11.875
45345W        W 9553  42.830   8.828  13.062
45346W        W 9554  16.222  42.816  14.300
45347W        W 9555   7.383   4.293  12.549
45348W        W 9556   3.258  20.155   2.886
45349W        W 9557   0.420  41.869   3.753
45350W        W 9558  26.467  42.387   2.843
45351W        W 9559   0.365  15.266  13.535
45352W        W 9560  44.301  21.032  14.784
45353W        W 9561  24.022  41.396   5.310
45354W        W 9562  14.814  22.170  13.346
45355W        W 9563  14.724   2.952   0.816
45356W        W 9564  17.717   5.921  13.815
45357W        W 9565  39.336  11.147  11.576
45358W        W 9566  20.220   0.797   4.130
45359W        W 9567  16.668  14.317  13.806
45360W        W 9568  22.501  28.069  11.047
45361W        W 9569   7.172  20.031   1.323
45362W        W 9570  44.382  37.364  13.411
45363W        W 9571  34.115  30.547   0.325
45364W        W 9572  15.307  28.549   4.705
45365W        W 9573  32.003  23.593   1.224
45366W        W 9574   2.961  16.095   1.864
45367W        W 9575  26.659  33.878   0.936
45368W        W 9576  41.005   1.326   4.733
45369W        W 9577  36.469  24.710   2.322
45370W        W 9578  23.213  35.364   3.331
45371W        W 9579  12.214   8.731  11.535
45372W        W 9580  17.726  33.955   4.168
45373W        W 9581  33.527  16.136   3.865
45374W        W 9582  18.256   6.364  10.938
45375W        W 9583  26.506  27.081   3.793
45376W        W 9584  11.234  37.947  13.490
45377W        W 9585   5.754   8.877   3.743
45378W        W 9586  35.556  12.801   4.130
45379W        W 9587  16.218  13.726   1.284
45380W        W 9588  12.739  38.971  10.442
45381W        W 9589  25.183  36.427   4.664
45382W        W 9590  20.651   8.403   9.575
45383W        W 9591  37.356  25.136  12.526
45384W        W 9592  35.925   7.312   3.252
45385W        W 9593  13.339  34.434  10.897
45386W        W 9594  18.192  11.345  14.018
45387W        W 9595  25.656  42.867  13.036
45388W        W 9596   9.678  15.266  13.308
45389W        W 9597  28.530  14.815   0.438
45390W        W 9598  25.681  41.811   2.863
45391W        W 9599  15.754  36.014   1.753
45392W        W 9600  13.739   3.397   1.320
45393W        W 9601  17.300  24.138   4.672
45394W        W 9602  44.916  29.072   2.663
45395W        W 9603  15.753  27.591  14.441
45396W        W 9604  31.106   4.757   3.642
45397W        W 9605  26.202  25.138  12.903
45398W        W 9606  30.120  25.648  14.862
45399W        W 9607  38.509  38.438  11.590
45400W        W 9608  21.676  33.454   4.634
45401W        W 9609  27.063  25.712  12.459
45402W        W 9610   4.935  43.474  10.600
45403W        W 9611  34.929  39.023   0.419
45404W        W 9612  29.634  33.931  10.895
45405W        W 9613  23.678  27.028  12.448
45406W        W 9614  11.739  10.216  12.567
45407W        W 9615  31.414  18.565  13.468
45408W        W 9616  19.725  42.003  12.539
45409W        W 9617  29.459   9.726   0.414
45410W        W 9618  28.180  16.181  14.504
45411W        W 9619  43.983  32.467   2.374
45412W        W 9620  13.817  39.417  14.017
45413W        W 9621  23.198  30.543   0.941
45414W        W 9622   5.327   9.748  13.977
45415W        W 9623  11.301  40.420  12.906
45416W        W 9624   9.343  39.488  11.926
45417W        W 9625   8.355  40.954   3.169
45418W        W 9626   4.816  21.711  10.519
45419W        W 9627  25.103  19.536   4.285
45420W        W 9628  31.565   3.824  14.462
45421W        W 9629   5.864   6.700   2.687
45422W        W 9630  15.771  43.439  13.933
45423W        W 9631  42.476  26.525   4.659
45424W        W 9632  29.613  37.504   4.730
45425W        W 9633  14.809  41.882  14.511
45426W        W 9634  26.515   4.270  14.360
45427W        W 9635   1.959  28.591   3.812
45428W        W 9636   8.735   7.228   0.309
45429W        W 9637  14.597  11.198   2.189
45430W        W 9638  28.975   8.235  10.580
45431W        W 9639   7.368   9.210  12.882
45432W        W 9640  36.519  40.371  12.940
45433W        W 9641  11.353  30.632   2.739
45434W        W 9642  37.081  38.861   4.641
45435W        W 9643  35.072  11.733  10.531
45436W        W 9644  28.019  21.259  13.848
45437W        W 9645  34.607  43.330  11.593
45438W        W 9646  25.208   6.760   4.306
45439W        W 9647   9.684  25.589  14.942
45440W        W 9648  27.094   7.282  11.090
45441W        W 9649  26.060  28.999   0.764
45442W        W 9650  44.294   2.401   0.343
45443W        W 9651  31.027  18.146  13.009
45444W        W 9652  13.141  36.056   4.177
45445W        W 9653  42.317  26.509  12.950
45446W        W 9654   3.944   7.335  14.906
45447W        W 9655  24.150   7.193  13.885
45448W        W 9656  37.864  40.945   0.436
45449W        W 9657   0.320  10.275   0.888
45450W        W 9658  36.075  17.131  11.937
45451W        W 9659  32.062  38.971  12.980
45452W        W 9660  10.226  22.117  11.520
45453W        W 9661  36.447  27.538   2.861
45454W        W 9662  17.630  44.485   3.204
45455W        W 9663  18.245  42.357  11.938
45456W        W 9664  16.253  10.771  11.102
45457W        W 9665  19.662  14.764   3.720
45458W        W 9666  12.708  40.492  13.012
45459W        W 9667  15.132  41.948  10.421
45460W        W 9668  21.512  24.489   0.373
45461W        W 9669  38.387   1.775   2.369
45462W        W 9670  38.954  35.547   0.267
45463W        W 9671   2.241  42.010   0.820
45464W        W 9672  15.223  16.629  11.949
45465W        W 9673   7.321  37.960  13.958
45466W        W 9674  41.977   7.368  11.496
45467W        W 9675  43.420  11.707   1.827
45468W        W 9676  39.468  12.224   0.302
45469W        W 9677  26.984  30.514  14.897
45470W        W 9678  10.669  10.718  12.532
45471W        W 9679  33.604  12.744   0.290
45472W        W 9680  11.846  44.905  13.910
45473W        W 9681  39.520  30.080  10.896
45474W        W 9682  42.784   0.842   4.214
45475W        W 9683  18.748  37.991  13.370
45476W        W 9684  23.109  31.916  10.033
45477W        W 9685   0.939  28.986  13.825
45478W        W 9686  38.454   8.670   0.316
45479W        W 9687  37.947  39.393  14.364
45480W        W 9688  26.508  25.070   1.349
45481W        W 9689   2.938  39.415   4.142
45482W        W 9690  39.053  22.746  13.900
45483W        W 9691  17.109  21.046  10.947
45484W        W 9692  31.121   6.387   2.873
45485W        W 9693  39.897   9.332  12.569
45486W        W 9694   9.321  21.541   4.750
45487W        W 9695  10.654  24.669   2.699
45488W        W 9696   3.228  31.618  12.980
45489W        W 9697  22.500  11.267   4.245
45490W        W 9698  14.597  16.201   3.380
45491W        W 9699  27.629   7.234  10.413
45492W        W 9700  36.846  17.789   4.281
45493W        W 9701  44.293  21.684  13.395
45494W        W 9702  44.974  36.887  14.445
45495W        W 9703  23.089   0.281  13.365
45496W        W 9704  40.364  13.789   0.936
45497W        W 9705  24.568  25.523  10.493
45498W        W 9706  28.081  35.465   2.851
45499W        W 9707  21.585  10.791   0.337
45500W        W 9708   2.741  23.702  14.017
45501W        W 9709   5.756  30.052  14.932
45502W        W 9710   0.774  27.162   3.642
45503W        W 9711  26.168   2.375  11.056
45504W        W 9712  28.166  34.914  10.939
45505W        W 9713   5.739  29.028   1.708
45506W        W 9714  24.527  43.002   0.325
45507W        W 9715  42.376  20.602   4.694
45508W        W 9716  40.330  36.036   0.890
45509W        W 9717  26.468  26.135  13.981
45510W        W 9718   5.902  39.392   0.832
45511W        W 9719  26.533  37.018   0.400
45512W        W 9720  42.861   4.263  12.002
45513W        W 9721   5.430  30.910   2.350
45514W        W 9722  15.629   5.325   4.712
45515W        W 9723   4.309  10.828   2.804
45516W        W 9724  25.022   4.907  11.394
45517W        W 9725   7.334   2.439   0.877
45518W        W 9726  35.395  28.680  12.913
45519W        W 9727  41.409  31.952  14.434
45520W        W 9728  38.883  23.699   1.867
45521W        W 9729  10.302  23.510   2.681
45522W        W 9730  13.200  15.665  13.944
45523W        W 9731  19.660  22.572   2.288
45524W        W 9732  10.353  22.576  11.405
45525W        W 9733   3.757   5.204   4.221
45526W        W 9734  20.548  42.828   3.755
45527W        W 9735   3.716  24.980   1.915
45528W        W 9736   5.361  23.721  12.380
45529W        W 9737  23.508   1.780  10.513
45530W        W 9738  33.114  34.537  12.538
45531W        W 9739   7.329  44.476  14.932
45532W        W 9740  39.506  23.177   2.402
45533W        W 9741  20.549  39.053   4.219
45534W        W 9742  19.237  23.546   0.822
45535W        W 9743   3.281   6.352  12.456
45536W        W 9744  28.161  22.115   2.289
45537W        W 9745  36.903  11.865   0.891
45538W        W 9746  18.196  10.638  12.940
45539W        W 9747   2.898  30.506  11.986
45540W        W 9748  16.187   1.406  13.791
45541W        W 9749  17.661  27.683   4.635
45542W        W 9750  11.275  25.208  11.572
45543W        W 9751   3.240   3.382   1.261
45544W        W 9752  19.142  31.924   9.947
45545W        W 9753  21.726  31.001   3.738
45546W        W 9754  44.502  40.854  11.914
45547W        W 9755  28.485  41.823   0.364
45548W        W 9756  32.935  26.588   5.201
45549W        W 9757   1.243  25.645   4.802
45550W        W 9758  34.443  17.689   0.320
45551W        W 9759  28.518  21.046   2.738
45552W        W 9760   2.878   3.456  11.856
45553W        W 9761  34.015  10.669  13.797
45554W        W 9762  42.382   8.762  11.906
45555W        W 9763  14.833   2.367   2.757
45556W        W 9764  36.501  35.369   1.235
45557W        W 9765  26.970  36.440  12.035
45558W        W 9766  10.225  42.032   2.395
45559W        W 9767  11.680  27.675  13.483
45560W        W 9768   1.917  28.149  12.076
45561W        W 9769  17.150  15.289  10.426
45562W        W 9770  12.846  27.159  10.530
45563W        W 9771   6.883  41.939  13.374
45564W        W 9772   6.684  12.775   2.341
45565W        W 9773   7.747  34.507   4.673
45566W        W 9774   8.215  25.060  14.297
45567W        W 9775  23.562   6.867   3.759
45568W        W 9776  32.575   6.896  10.918
45569W        W 9777   3.430  33.912   2.715
45570W        W 9778  24.154  13.311   2.760
45571W        W 9779  43.791  43.448   4.689
45572W        W 9780  16.257   9.244  12.043
45573W        W 9781  34.578   9.174  13.456
45574W        W 9782  21.551  36.498  12.458
45575W        W 9783  24.492   7.770   4.249
45576W        W 9784  15.195   2.286  13.887
45577W        W 9785  22.252   3.891  11.053
45578W        W 9786  26.486   8.244  14.931
45579W        W 9787  11.653  23.106   3.365
45580W        W 9788  10.373  15.811  14.946
45581W        W 9789  44.421  41.892  14.943
45582W        W 9790  37.396  14.778   4.276
45583W        W 9791  27.122  10.280  10.977
45584W        W 9792  35.936  11.308  12.964
45585W        W 9793  14.247  13.329  14.971
45586W        W 9794  30.147  44.422   2.787
45587W        W 9795  16.127   9.711   4.154
45588W        W 9796  31.052  21.160   5.132
45589W        W 9797  31.002  15.712  13.470
45590W        W 9798  34.998   5.931   1.869
45591W        W 9799  13.230  35.027  12.861
45592W        W 9800  17.675  24.042   0.870
45593W        W 9801  28.442  43.391  11.007
45594W        W 9802  25.176  43.500   4.132
45595W        W 9803  22.670  16.289  12.960
45596W        W 9804   9.799   2.450   3.282
45597W        W 9805  21.026   9.163  11.903
45598W        W 9806  36.361  26.512  11.402
45599W        W 9807   1.407  14.722   1.783
45600W        W 9808   9.270   9.330   1.379
45601W        W 9809  26.589  20.095   4.626
45602W        W 9810  35.436  44.490  14.027
45603W        W 9811   1.310  33.103  11.931
45604W        W 9812   3.227  38.488   3.339
45605W        W 9813  18.075   9.317  10.075
45606W        W 9814   6.344  29.974  11.115
45607W        W 9815  40.932  12.842  11.905
45608W        W 9816  39.945  25.984   4.130
45609W        W 9817  22.215  32.534   2.273
45610W        W 9818  37.515  36.045   3.780
45611W        W 9819  35.480  37.574   0.411
45612W        W 9820  22.142  23.086   2.229
45613W        W 9821  26.103  27.954   0.958
45614W        W 9822  16.154  23.999  12.498
45615W        W 9823   0.973   8.898   3.175
45616W        W 9824  26.611  13.318   2.665
45617W        W 9825  38.340  35.047  13.871
45618W        W 9826   2.934  11.782  11.904
45619W        W 9827  29.927  28.650  12.545
45620W        W 9828  19.657   3.919  14.851
45621W        W 9829   5.808  14.291  11.444
45622W        W 9830  24.042  12.292  11.473
45623W        W 9831   2.787  19.150  12.033
45624W        W 9832   7.839  19.605  12.892
45625W        W 9833   5.192  22.744   2.411
45626W        W 9834  26.158  40.367   3.677
45627W        W 9835   5.287  40.989  13.509
45628W        W 9836  44.324  34.009  13.814
45629W        W 9837  18.076  42.988   1.218
45630W        W 9838  25.558  29.059   4.791
45631W        W 9839  29.042   9.725   1.221
45632W        W 9840  30.562  33.547   4.626
45633W        W 9841  41.346  14.170   4.145
45634W        W 9842  13.154  39.037   0.403
45635W        W 9843  43.971  10.235  14.456
45636W        W 9844  35.478  23.635  14.956
45637W        W 9845  41.502   5.838  10.892
45638W        W 9846  41.924  13.311  13.937
45639W        W 9847  22.097  33.498  11.877
45640W        W 9848  37.345  30.582   3.777
45641W        W 9849   7.229   6.260  10.474
45642W        W 9850   2.723  41.468   3.641
45643W        W 9851  22.195  18.256   0.824
45644W        W 9852   0.812  17.183  14.850
45645W        W 9853  38.380   9.341   0.871
45646W        W 9854  36.592   3.223   9.930
45647W        W 9855   7.298  10.811  11.889
45648W        W 9856  25.490  25.576  11.955
45649W        W 9857  21.154  37.999  14.373
45650W        W 9858  41.361  29.148  14.514
45651W        W 9859  17.749  43.292  14.979
45652W        W 9860   2.453  15.602  12.407
45653W        W 9861  14.181   3.397   4.166
45654W        W 9862  38.336  41.949  13.463
45655W        W 9863  11.163  19.756  12.074
45656W        W 9864  41.941   2.926  13.867
45657W        W 9865  29.084  24.608   1.376
45658W        W 9866   6.269  15.252  14.842
45659W        W 9867  19.565  26.011  11.509
45660W        W 9868   9.761  30.116   2.218
45661W        W 9869  44.972  10.211  13.407
45662W        W 9870   3.921   9.311   2.290
45663W        W 9871  21.242  31.613  13.958
45664W        W 9872  26.020  35.586  13.431
45665W        W 9873   2.423  24.193  13.452
45666W        W 9874  24.125  22.143   2.697
45667W        W 9875  23.146   5.261  11.025
45668W        W 9876  44.347  30.620  10.408
45669W        W 9877  22.702  13.211  11.448
45670W        W 9878  41.991  37.342  10.544
45671W        W 9879  42.963  42.409  13.938
45672W        W 9880  11.264   3.303   5.123
45673W        W 9881  26.093  43.434  14.831
45674W        W 9882  43.841  23.099   2.416
45675W        W 9883  38.051  11.142  11.503
45676W        W 9884  15.606   4.292  11.002
45677W        W 9885  23.140  33.995  11.092
45678W        W 9886   0.400  30.575   1.883
45679W        W 9887  30.122   2.834   2.673
45680W        W 9888  20.714  13.289   2.259
45681W        W 9889  39.912   5.926  14.925
45682W        W 9890  26.977  31.530  13.828
45683W        W 9891  32.963   9.799   3.715
45684W        W 9892   0.911  42.405  13.850
45685W        W 9893  16.268  18.192  11.479
45686W        W 9894  30.139  35.399   2.188
45687W        W 9895  33.418  44.384   3.324
45688W        W 9896  17.282  44.974  13.981
45689W        W 9897  19.660   8.403  10.065
45690W        W 9898  40.919  22.111  11.459
45691W        W 9899  36.477  20.243   4.822
45692W        W 9900   2.319  11.621  11.390
45693W        W 9901  30.642  23.679  12.907
45694W        W 9902  43.883  33.909   1.267
45695W        W 9903  21.748  41.823   2.338
45696W        W 9904  12.135   7.704   1.728
45697W        W 9905  17.665  37.884   1.839
45698W        W 9906  22.555   9.775   1.439
45699W        W 9907  13.822   6.409   4.692
45700W        W 9908  28.442  18.659  11.022
45701W        W 9909  37.482  31.028   2.887
45702W        W 9910  13.240  38.546   1.836
45703W        W 9911  24.651  10.200  13.021
45704W        W 9912   1.373   3.750   2.843
45705W        W 9913  35.947   9.828  11.961
45706W        W 9914  17.158  12.761   0.417
45707W        W 9915  26.702  44.316  14.504
45708W        W 9916  14.622  33.981   0.248
45709W        W 9917  19.719  24.570  11.962
45710W        W 9918  20.695  30.016   4.145
45711W        W 9919  34.010  44.448   3.261
45712W        W 9920  26.699  44.454  10.911
45713W        W 9921  30.990  33.932   2.809
45714W        W 9922  38.909  30.438  10.954
45715W        W 9923  43.883  37.943  11.551
45716W        W 9924  13.724  41.486  13.442
45717W        W 9925  40.506  21.666   1.776
45718W        W 9926  18.619   3.861   2.201
45719W        W 9927  22.134  28.453   1.699
45720W        W 9928  15.150  18.732   3.337
45721W        W 9929  20.629  39.336  10.427
45722W        W 9930  13.332  44.479  12.979
45723W        W 9931  21.571  37.511  13.023
45724W        W 9932   7.696   8.743   1.354
45725W        W 9933  28.124  35.604   1.386
45726W        W 9934  19.119  20.532   3.793
45727W        W 9935  38.488   3.834  13.802
45728W        W 9936  35.478  21.230  12.848
45729W        W 9937   6.406  16.804  11.607
45730W        W 9938  19.763  14.789   3.198
45731W        W 9939  34.975  16.193   0.439
45732W        W 9940  12.722   7.204  12.987
45733W        W 9941  34.988  34.959  12.393
45734W        W 9942  30.528  41.407   4.213
45735W        W 9943  23.545   1.431   4.210
45736W        W 9944  15.104  34.884  11.072
45737W        W 9945  19.234   5.780  11.402
45738W        W 9946  40.839  17.792   2.708
45739W        W 9947  15.286   1.976   3.834
45740W        W 9948   8.362  28.954   4.609
45741W        W 9949  32.494  33.579  14.395
45742W        W 9950  42.357  29.171  13.529
45743W        W 9951  22.504  14.175  13.808
45744W        W 9952  36.547  36.398  14.778
45745W        W 9953  13.158  40.031   2.861
45746W        W 9954  38.462  32.401   1.712
45747W        W 9955   7.901  28.600  12.423
45748W        W 9956  17.103  41.838   3.256
45749W        W 9957  33.070   7.768  12.339
45750W        W 9958  20.638  40.366   2.836
45751W        W 9959   3.297  36.069   0.966
45752W        W 9960  39.912   1.434   1.345
45753W        W 9961  30.913  21.544   1.865
45754W        W 9962  18.206  19.193   4.291
45755W        W 9963  10.326   5.828  11.426
45756W        W 9964   6.258   2.385  11.958
45757W        W 9965  16.603  12.717  13.339
45758W        W 9966  22.615  11.785   1.402
45759W        W 9967  21.019  35.474   0.772
45760W        W 9968  25.211  28.500   2.305
45761W        W 9969  33.417   9.369   1.817
45762W        W 9970  28.631   8.360   3.839
45763W        W 9971  36.355  29.974  13.324
45764W        W 9972   6.391   2.803   0.935
45765W        W 9973   3.870  21.604  14.450
45766W        W 9974   5.714  25.033  12.347
45767W        W 9975  13.642  11.167   2.711
45768W        W 9976  12.271  12.641   3.293
45769W        W 9977   0.970  13.750  13.012
45770W        W 9978  27.637   9.378  14.867
45771W        W 9979  16.652  38.912   1.867
45772W        W 9980   4.241   5.769   4.254
45773W        W 9981  18.068   7.180   0.731
45774W        W 9982  37.854  20.569  14.322
45775W        W 9983  21.243   8.781  10.987
45776W        W 9984  36.926  38.476  12.030
45777W        W 9985  23.671  13.644   1.851
45778W        W 9986  39.508  28.672   4.707
45779W        W 9987  22.062  31.990   1.728
45780W        W 9988  40.928  21.259   2.358
45781W        W 9989  20.667  23.576  10.601
45782W        W 9990  14.197  20.544  13.541
45783W        W 9991  11.710  18.066  11.125
45784W        W 9992   5.925  27.608  13.430
45785W        W 9993  42.430  17.207   1.926
45786W        W 9994  17.141  21.200  13.940
45787W        W 9995   6.255  19.169   1.729
45788W        W 9996  11.311  13.818  12.358
45789W        W 9997  25.030  13.334  13.808
45790W        W 9998  41.871  38.447  14.931
45791W        W 9999  44.853  15.588  13.478
45792W        W10000   3.351  30.068  10.511
45793W        W10001  12.695  35.591   2.380
45794W        W10002  18.253  21.576  12.035
45795W        W10003  22.689  44.335   1.411
45796W        W10004  10.293   0.461  12.856
45797W        W10005  33.002  17.276   1.299
45798W        W10006  20.667  18.146   0.964
45799W        W10007  29.061   2.826   2.848
45800W        W10008  34.940  42.894   4.162
45801W        W10009  14.181  24.525   1.920
45802W        W10010  40.532  25.043  13.416
45803W        W10011  29.065  27.140   3.171
45804W        W10012  36.403   1.424   0.275
45805W        W10013  36.052  37.363  13.366
45806W        W10014   1.478   8.816   1.906
45807W        W10015  43.507  35.086   1.909
45808W        W10016  40.841  30.580  14.856
45809W        W10017  36.532   2.248   1.892
45810W        W10018  17.280  31.051  13.864
45811W        W10019   9.784   5.856  11.889
45812W        W10020  10.748  17.146  14.764
45813W        W10021  28.581  27.035   3.857
45814W        W10022  44.419  11.232  14.329
45815W        W10023  18.278  27.677   3.769
45816W        W10024  40.014  33.996   2.708
45817W        W10025  38.448  19.127  10.638
45818W        W10026   1.471   6.232  14.933
45819W        W10027  26.479  12.299  14.287
45820W        W10028  27.108  16.796  14.968
45821W        W10029  31.938  36.365  14.355
45822W        W10030  13.651  28.116   2.268
45823W        W10031   2.338  28.660  13.047
45824W        W10032  28.579  36.983  14.973
45825W        W10033   3.811  26.165  11.507
45826W        W10034  21.021  43.394  10.968
45827W        W10035  34.591  26.494  13.358
45828W        W10036  22.141  35.570  13.979
45829W        W10037  14.685   2.917  13.938
45830W        W10038  25.701   4.818   1.238
45831W        W10039  28.956   5.281   2.228
45832W        W10040  40.463   1.944   0.809
45833W        W10041  10.352   5.259   0.347
45834W        W10042  25.147  19.223  14.463
45835W        W10043  20.135  24.694   4.192
45836W        W10044  32.412  18.702   2.769
45837W        W10045  21.637  10.224  10.628
45838W        W10046  10.236   0.471   0.296
45839W        W10047  18.283  10.759   4.304
45840W        W10048  12.360  33.940   3.196
45841W        W10049  10.648   6.319  10.526
45842W        W10050  34.896  26.019  13.903
45843W        W10051  19.047  16.248   1.736
45844W        W10052  33.493  37.978   3.200
45845W        W10053  39.362  36.397   3.353
45846W        W10054  13.110  43.286  12.020
45847W        W10055  11.729  24.986   1.794
45848W        W10056  13.678   0.792  14.425
45849W        W10057   3.309  15.668  14.361
45850W        W10058   5.829  33.426  14.312
45851W        W10059  34.581  39.432  12.377
45852W        W10060  21.221  27.014  11.430
45853W        W10061   6.381  44.886   3.767
45854W        W10062  12.191  11.176  10.031
45855W        W10063   8.695  35.935  13.899
45856W        W10064  40.307  34.549  11.430
45857W        W10065  24.614  21.164   2.787
45858W        W10066  14.297  13.778   2.868
45859W        W10067  10.737  27.583  12.979
45860W        W10068  43.352  35.966   4.813
45861W        W10069  19.214  30.471  12.516
45862W        W10070   6.205  15.770   2.894
45863W        W10071  37.967  34.873   4.818
45864W        W10072  36.094  20.587   2.750
45865W        W10073   9.325  31.647   2.193
45866W        W10074  39.448  10.777  12.515
45867W        W10075   3.850  22.550  13.458
45868W        W10076  21.755   8.767   3.721
45869W        W10077  37.862   3.261  11.582
45870W        W10078   2.823   0.343   2.851
45871W        W10079  25.072  18.133  12.360
45872W        W10080  39.034  44.970   2.863
45873W        W10081  21.663  25.219   5.114
45874W        W10082  44.871   6.832   1.809
45875W        W10083  34.375   0.316   3.809
45876W        W10084  12.266   8.798  14.864
45877W        W10085  16.673  11.187   2.772
45878W        W10086  26.463  27.577  10.967
45879W        W10087  20.552   9.856  11.012
45880W        W10088   8.275  11.765   5.273
45881W        W10089  14.145  13.223   2.769
45882W        W10090  30.003   5.242   0.428
45883W        W10091  37.906  39.813  10.996
45884W        W10092  29.057  23.608   1.782
45885W        W10093  19.636  12.145   3.198
45886W        W10094  39.552  36.447   2.900
45887W        W10095  14.802  21.585  11.589
45888W        W10096  40.356  19.725   1.218
45889W        W10097  23.570   2.746   1.422
45890W        W10098  14.731  12.346   3.311
45891W        W10099  28.977  10.853   1.867
45892W        W10100  18.140   5.787   2.663
45893W        W10101  24.716  26.620   1.212
45894W        W10102  41.423  19.167   4.225
45895W        W10103  37.888  20.100   1.254
45896W        W10104  25.470  18.157   3.646
45897W        W10105  28.437  28.615  13.368
45898W        W10106  30.071  20.054  13.964
45899W        W10107  30.466  21.243   2.247
45900W        W10108  36.933  12.311   2.837
45901W        W10109   5.422  40.427  14.417
45902W        W10110  40.462  23.241  11.511
45903W        W10111  34.991   3.222  10.981
45904W        W10112  21.691  39.400  13.322
45905W        W10113  10.840  24.516  12.078
45906W        W10114  41.373   6.854   1.820
45907W        W10115  22.220  11.361  13.320
45908W        W10116  31.917  20.698   0.922
45909W        W10117  33.422   0.277  10.557
45910W        W10118  43.816   2.383  14.891
45911W        W10119  24.126  28.002  10.973
45912W        W10120  39.954   2.901   2.873
45913W        W10121  27.472   1.333   1.897
45914W        W10122  13.786  15.609   2.683
45915W        W10123   2.905   8.312  11.407
45916W        W10124  37.365   5.309  13.894
45917W        W10125   7.275  35.604  11.572
45918W        W10126  10.353   6.197  14.327
45919W        W10127  43.418   2.860   3.176
45920W        W10128  40.052  13.328  13.997
45921W        W10129  44.361  39.517   1.698
45922W        W10130  15.584  15.710  10.587
45923W        W10131  16.643  30.501   4.218
45924W        W10132   1.788  31.647  11.377
45925W        W10133  26.640  17.659  11.526
45926W        W10134  19.284  13.151   1.324
45927W        W10135   4.887  44.366   0.474
45928W        W10136  33.608  30.503  12.945
45929W        W10137  38.061  13.267   1.393
45930W        W10138  15.814   0.965   4.351
45931W        W10139   4.358   8.174  13.810
45932W        W10140  32.432  14.781   9.582
45933W        W10141  21.136  22.183  11.450
45934W        W10142  20.137  25.048   5.196
45935W        W10143   7.391  30.086  12.993
45936W        W10144   4.924  38.329  13.446
45937W        W10145  23.207  28.561   3.339
45938W        W10146  29.634   7.224  10.008
45939W        W10147  34.865  40.819  11.101
45940W        W10148  24.976  37.929  10.613
45941W        W10149  39.992  19.572   3.664
45942W        W10150  42.430  27.944   3.802
45943W        W10151   2.237  20.273  14.483
45944W        W10152  32.542  10.774   3.869
45945W        W10153  29.921  35.459  10.479
45946W        W10154  19.215  44.355   1.365
45947W        W10155  32.087  41.397  13.442
45948W        W10156  13.117  36.591  14.921
45949W        W10157  40.899  38.858  14.864
45950W        W10158   1.746  38.346  13.826
45951W        W10159  27.149   5.800  12.848
45952W        W10160  38.346  14.197   3.739
45953W        W10161  35.382  34.047   4.246
45954W        W10162  23.131  44.873   2.787
45955W        W10163   8.816  36.353  11.093
45956W        W10164  27.677  11.352   0.925
45957W        W10165  17.090  39.009   2.884
45958W        W10166   1.265  16.072  12.401
45959W        W10167  28.527   0.863  13.909
45960W        W10168  23.229  27.543   3.664
45961W        W10169  10.656  14.304   3.297
45962W        W10170  22.556   3.843  12.091
45963W        W10171  11.338  27.558   4.659
45964W        W10172  37.878  38.065   0.479
45965W        W10173   2.794   2.375   9.462
45966W        W10174   9.198  27.100  10.927
45967W        W10175   9.178   9.781   3.294
45968W        W10176  21.543   3.395   5.244
45969W        W10177  21.025   5.743  11.940
45970W        W10178  25.051  37.567   3.210
45971W        W10179  37.409  10.331   0.915
45972W        W10180  31.990  20.038   0.266
45973W        W10181  42.027  30.475  11.918
45974W        W10182  36.505  23.649  12.537
45975W        W10183  16.587  26.167  11.955
45976W        W10184  43.472  43.841  12.903
45977W        W10185  31.046  36.018   2.675
45978W        W10186  12.673  39.394   0.808
45979W        W10187  37.938  23.074  10.930
45980W        W10188   5.385   7.673   0.787
45981W        W10189  21.196  30.142  10.505
45982W        W10190  41.941  38.044  11.995
45983W        W10191  33.570  35.460   1.924
45984W        W10192   9.702  19.188  14.289
45985W        W10193  40.422  20.682  14.444
45986W        W10194  10.749  15.221  11.413
45987W        W10195  28.177  33.105   1.856
45988W        W10196  12.205   8.215   1.269
45989W        W10197  37.855  39.883  14.014
45990W        W10198  15.125  32.619  12.343
45991W        W10199  30.919  25.696  13.935
45992W        W10200  12.715  15.729  11.002
45993W        W10201  16.106  39.464   3.689
45994W        W10202  43.326  39.930  11.124
45995W        W10203  24.122  24.133  13.939
45996W        W10204  30.493  40.944   1.696
45997W        W10205  34.613  29.640   2.221
45998W        W10206   4.305  25.594   1.700
45999W        W10207  33.076   9.681   3.269
46000W        W10208   6.850  10.777   0.878
46001W        W10209  16.253  37.471   2.692
46002W        W10210  42.495  40.488   4.735
46003W        W10211  30.154  17.642   1.329
46004W        W10212  18.700  43.304   1.789
46005W        W10213  17.188  14.760   0.264
46006W        W10214  29.161  11.757   0.772
46007W        W10215  30.592  13.750   9.610
46008W        W10216  17.080  31.556   1.877
46009W        W10217   2.940  43.421   4.736
46010W        W10218  28.003   6.382  10.152
46011W        W10219  10.277  34.091  14.430
46012W        W10220  12.301   1.278  13.405
46013W        W10221  22.738  39.003   4.605
46014W        W10222  26.019  36.914   1.289
46015W        W10223  23.080  22.098  14.969
46016W        W10224   1.732  27.534  11.560
46017W        W10225  44.258  15.718  14.366
46018W        W10226  10.301   4.730  14.468
46019W        W10227  36.950  29.635  13.905
46020W        W10228  14.256   2.800   4.292
46021W        W10229   9.778  43.953   0.793
46022W        W10230   3.799  24.567   2.868
46023W        W10231  38.341   7.694  11.530
46024W        W10232  21.080  23.098  11.420
46025W        W10233  17.307  16.152  10.987
46026W        W10234  20.692   4.840  11.090
46027W        W10235  31.128  27.957   2.884
46028W        W10236  22.660  16.131  10.053
46029W        W10237  17.180  31.526  12.411
46030W        W10238  42.978  11.169  12.899
46031W        W10239  36.029  29.042  11.013
46032W        W10240  20.208  41.947   2.701
46033W        W10241  41.371  19.779  10.431
46034W        W10242  18.740  16.585   1.253
46035W        W10243  39.014  18.234   0.332
46036W        W10244  15.781  25.616   4.307
46037W        W10245  38.955   0.259   4.280
46038W        W10246  44.884  24.066  13.924
46039W        W10247  15.624   0.777  11.415
46040W        W10248   2.420  32.011  11.390
46041W        W10249  13.133  24.498  10.616
46042W        W10250  12.709   2.357   4.615
46043W        W10251  12.134  33.451  13.980
46044W        W10252   3.390  16.788   1.777
46045W        W10253  29.013   3.840   3.650
46046W        W10254  31.559  41.800   0.326
46047W        W10255  11.850  31.451   1.911
46048W        W10256   7.315   7.273   0.848
46049W        W10257  19.043  27.532   0.401
46050W        W10258  39.856  17.779  11.931
46051W        W10259  38.876  38.017  13.383
46052W        W10260   2.286  13.148   3.244
46053W        W10261  29.989  35.049  13.898
46054W        W10262  17.581   6.758  13.382
46055W        W10263   2.851   4.284  11.394
46056W        W10264   5.891  14.820   2.697
46057W        W10265  40.902  28.676   0.889
46058W        W10266  33.099  27.035   3.732
46059W        W10267  14.155  15.164   0.259
46060W        W10268  36.464  12.665  14.818
46061W        W10269  24.062  34.544  11.452
46062W        W10270   4.712  35.961  10.561
46063W        W10271   8.225   4.248   0.285
46064W        W10272   4.751  18.296  10.959
46065W        W10273  10.725  43.387   1.834
46066W        W10274   1.252  19.162   3.863
46067W        W10275  14.227  33.402   4.220
46068W        W10276   9.702  23.164   0.289
46069W        W10277  44.435  29.129  12.863
46070W        W10278  35.084   9.189  14.416
46071W        W10279  17.637   7.317  12.395
46072W        W10280   1.269  38.985   2.882
46073W        W10281   7.233  23.540  12.410
46074W        W10282  13.680  28.539  14.886
46075W        W10283  19.628  12.672  12.553
46076W        W10284  39.065  41.888  13.921
46077W        W10285  44.770  25.531   0.323
46078W        W10286  13.215  22.721   0.830
46079W        W10287  21.615  31.060   2.241
46080W        W10288  38.994  15.114  12.824
46081W        W10289  33.538  19.715   2.234
46082W        W10290  10.701  30.560  13.967
46083W        W10291  12.130   7.262   3.778
46084W        W10292  42.958  35.557   1.912
46085W        W10293  31.914  34.427   4.756
46086W        W10294  25.149  27.004   0.745
46087W        W10295  23.099  39.931  11.580
46088W        W10296   7.883  30.581   2.839
46089W        W10297  28.652  29.960   1.407
46090W        W10298  35.021  18.754  14.962
46091W        W10299  38.033  11.281   3.784
46092W        W10300   7.356  28.162  12.507
46093W        W10301   7.860  34.992   0.408
46094W        W10302   3.718  24.149  12.996
46095W        W10303   0.903  25.646  11.024
46096W        W10304  17.181  35.512   1.210
46097W        W10305  18.179  43.511  12.025
46098W        W10306   8.884  37.477   2.192
46099W        W10307  41.522   3.879   1.265
46100W        W10308  11.700  31.007  12.501
46101W        W10309  33.889  21.213   3.156
46102W        W10310  38.453  35.471   2.842
46103W        W10311  11.681  36.998   2.331
46104W        W10312  37.938  14.184   2.412
46105W        W10313  30.422  35.996  14.799
46106W        W10314   2.778  10.239  14.002
46107W        W10315  39.820  20.551   9.963
46108W        W10316  30.626  22.551  11.980
46109W        W10317  30.092   4.709  11.964
46110W        W10318   0.321  39.521   2.195
46111W        W10319  24.125  33.984   1.880
46112W        W10320  24.600   5.229   2.873
46113W        W10321  17.131  31.403  12.059
46114W        W10322  38.846  35.867  13.945
46115W        W10323  25.591   1.318   3.232
46116W        W10324  37.842  24.129  12.039
46117W        W10325  30.147  26.521   2.711
46118W        W10326   7.395  31.947  11.879
46119W        W10327   7.779  28.183  10.056
46120W        W10328  40.320   3.726   2.397
46121W        W10329  26.578  15.273  13.965
46122W        W10330  44.783  32.427   2.702
46123W        W10331  32.001  27.686   3.313
46124W        W10332  26.132   8.283   3.760
46125W        W10333  34.908  22.512   1.381
46126W        W10334  30.974  42.369   3.645
46127W        W10335  37.967  14.250  13.343
46128W        W10336  20.695   0.379   3.806
46129W        W10337  32.419  36.946   3.261
46130W        W10338  13.708  15.318  12.354
46131W        W10339   3.915  10.654  13.868
46132W        W10340  38.389  22.660   4.286
46133W        W10341  40.511  17.067  12.387
46134W        W10342   8.314  19.642  11.547
46135W        W10343  35.951  44.308  11.059
46136W        W10344   0.388  33.621   1.841
46137W        W10345  23.519  36.842  14.376
46138W        W10346  38.505  31.449   3.327
46139W        W10347  30.097  14.761  14.295
46140W        W10348   8.187   0.274  10.931
46141W        W10349  20.029  18.199   5.221
46142W        W10350  18.144  35.556  11.408
46143W        W10351  20.749  13.759   1.932
46144W        W10352   3.830  12.313   3.842
46145W        W10353  14.265  43.319   2.235
46146W        W10354   4.937  26.548  12.480
46147W        W10355  41.442  19.065   2.242
46148W        W10356  25.070   6.333  14.458
46149W        W10357  19.221  18.110  14.021
46150W        W10358  40.506  34.546  10.526
46151W        W10359  16.638  20.149   4.268
46152W        W10360  38.467  26.045  14.408
46153W        W10361  14.222  36.409  11.002
46154W        W10362  11.762   7.248  14.818
46155W        W10363  33.427  12.844   4.791
46156W        W10364   8.221  22.553  14.429
46157W        W10365  10.273  15.772  10.492
46158W        W10366  22.082  18.569   1.761
46159W        W10367   8.730  13.830   1.854
46160W        W10368  19.083   3.770   1.306
46161W        W10369  27.961   6.212  10.636
46162W        W10370  20.243   9.888  14.814
46163W        W10371  30.939  26.188  13.061
46164W        W10372  41.956  38.423  12.049
46165W        W10373  25.703  11.304  10.483
46166W        W10374  10.235  18.186  14.494
46167W        W10375  28.092  32.553  11.024
46168W        W10376  12.268   4.303   2.337
46169W        W10377  21.183  39.978   0.887
46170W        W10378  28.186  30.082   1.292
46171W        W10379  34.534  43.469  10.968
46172W        W10380  17.211   5.253  12.371
46173W        W10381  43.284  24.090   0.401
46174W        W10382  11.712  41.832  14.784
46175W        W10383   8.820   1.288  14.774
46176W        W10384  20.178  29.571  12.036
46177W        W10385  31.144   9.762   1.755
46178W        W10386  31.987  31.621   4.345
46179W        W10387   5.275  29.113  12.527
46180W        W10388  28.112  13.681   4.203
46181W        W10389  36.050   8.861   2.308
46182W        W10390  15.243  21.140  14.932
46183W        W10391  12.813  41.952   2.888
46184W        W10392  25.550  13.309  10.604
46185W        W10393  21.699  16.155   5.219
46186W        W10394  18.059  29.511   4.683
46187W        W10395  30.986   3.409  10.641
46188W        W10396   3.802  24.081   1.227
46189W        W10397  19.054  32.911   2.275
46190W        W10398   9.801  14.603   1.934
46191W        W10399  23.592  41.467  12.358
46192W        W10400  13.764  10.653   4.351
46193W        W10401   5.361  42.028   3.858
46194W        W10402  33.986  26.533   2.785
46195W        W10403   8.284  10.384   1.728
46196W        W10404  32.901  23.706  13.895
46197W        W10405  16.705  18.170   1.288
46198W        W10406   9.745  19.598  13.354
46199W        W10407  42.879   8.763  13.357
46200W        W10408  28.177  39.447  12.968
46201W        W10409  29.005  42.429  13.438
46202W        W10410   3.907  15.636   5.304
46203W        W10411  31.027  27.077   0.424
46204W        W10412  27.961  22.578  12.959
46205W        W10413  34.402   4.776  12.411
46206W        W10414  18.690  35.946   2.226
46207W        W10415  20.766  20.211   4.649
46208W        W10416  42.375  35.433  12.565
46209W        W10417  27.058  26.520  11.445
46210W        W10418  44.452  38.397  12.942
46211W        W10419  31.994  27.966   4.240
46212W        W10420  12.304  10.276  14.795
46213W        W10421  40.889  39.505   1.846
46214W        W10422   5.364  13.198   1.864
46215W        W10423  12.339  42.922  10.419
46216W        W10424  36.378  33.415  12.572
46217W        W10425  24.499   9.210  10.624
46218W        W10426  11.169   5.304  11.020
46219W        W10427   2.727  41.509   1.331
46220W        W10428  17.130  37.360  11.996
46221W        W10429  35.050   6.879   0.884
46222W        W10430  26.103  35.104   2.280
46223W        W10431  31.080  12.746   0.415
46224W        W10432  42.310  14.148   2.729
46225W        W10433  40.543  42.989  11.957
46226W        W10434  38.427  20.178   3.815
46227W        W10435   4.854  43.968  12.855
46228W        W10436   0.291  22.171  12.896
46229W        W10437  31.931  44.344  13.548
46230W        W10438   1.829  30.157   5.586
46231W        W10439   3.244  17.211  14.880
46232W        W10440  44.942   5.834   0.837
46233W        W10441   5.197  34.100  14.760
46234W        W10442  40.326   5.703   4.684
46235W        W10443  34.111  31.453   2.795
46236W        W10444  17.567  30.920  11.059
46237W        W10445   4.924   4.396  14.323
46238W        W10446  43.292  22.083   2.355
46239W        W10447  12.645  18.772   4.821
46240W        W10448   0.744  39.548   2.231
46241W        W10449  26.604  27.153  10.519
46242W        W10450  30.957  29.103  12.070
46243W        W10451  16.297  14.644  12.542
46244W        W10452  25.151  31.612  13.948
46245W        W10453   8.405  19.686  14.009
46246W        W10454  26.183   7.300  14.329
46247W        W10455   9.244  20.572  14.841
46248W        W10456  15.669  42.474   0.383
46249W        W10457  20.085  11.361  13.547
46250W        W10458  41.399  44.815  12.352
46251W        W10459  19.280  28.000  14.991
46252W        W10460  44.346   8.206   3.698
46253W        W10461  30.605  14.752  11.002
46254W        W10462  42.319  31.611   0.410
46255W        W10463  22.546   5.786   0.735
46256W        W10464   5.380   8.272   0.366
46257W        W10465  16.650  23.036   0.875
46258W        W10466  19.576  16.760  12.939
46259W        W10467  40.335  36.419   3.722
46260W        W10468  15.787  13.684   4.353
46261W        W10469   6.377  15.157  10.467
46262W        W10470   4.445  21.517  14.426
46263W        W10471  18.737  26.082  12.367
46264W        W10472  35.935  40.539   1.279
46265W        W10473   1.891  41.892   0.396
46266W        W10474  27.580   2.941   4.166
46267W        W10475   1.806  38.455   4.670
46268W        W10476   9.253  29.984  11.011
46269W        W10477   6.760  18.633  14.861
46270W        W10478  10.710  36.940  13.482
46271W        W10479  34.004  15.578   1.779
46272W        W10480  29.000   3.227   2.239
46273W        W10481  25.002  35.388   2.695
46274W        W10482   1.795   0.407  10.957
46275W        W10483  27.484  10.270  10.085
46276W        W10484  42.325  25.617  10.938
46277W        W10485  21.511  40.983   0.847
46278W        W10486  10.865  24.176  13.310
46279W        W10487  25.088  34.587   0.876
46280W        W10488  12.633  20.684   4.814
46281W        W10489  14.318   3.371  13.454
46282W        W10490  24.198  23.544  14.866
46283W        W10491  25.986  22.214  14.352
46284W        W10492  43.897  13.732   1.288
46285W        W10493  42.976  31.917   2.311
46286W        W10494   8.298   5.823   3.853
46287W        W10495  22.528   4.243   2.240
46288W        W10496  31.946  25.678   2.244
46289W        W10497  20.599  38.917  13.441
46290W        W10498  12.645   8.203   2.813
46291W        W10499  10.755  25.110  10.645
46292W        W10500  30.974  11.768  11.869
46293W        W10501  41.039  41.296  11.485
46294W        W10502  21.670   1.763   0.452
46295W        W10503  21.193   8.710  14.417
46296W        W10504  43.821  30.659  11.519
46297W        W10505  22.672   0.770   0.936
46298W        W10506  18.584  27.125   4.290
46299W        W10507  13.220  10.245   2.351
46300W        W10508  15.577  10.271   1.810
46301W        W10509  19.600  26.047  14.504
46302W        W10510   4.357   2.334   1.448
46303W        W10511  13.840  27.948   4.341
46304W        W10512  21.027   1.403   2.797
46305W        W10513  14.307   7.678  11.553
46306W        W10514  32.922  44.873  13.547
46307W        W10515  41.528  15.698   1.261
46308W        W10516  16.294  10.179   4.812
46309W        W10517  43.793  33.467  13.438
46310W        W10518   5.330  11.226   1.904
46311W        W10519  43.812   2.802  14.002
46312W        W10520  17.662  19.180   2.891
46313W        W10521   0.282  34.549  11.463
46314W        W10522  25.198  14.789  11.462
46315W        W10523  27.059  18.164   2.205
46316W        W10524  25.139  41.348   0.892
46317W        W10525   1.344  34.870   0.892
46318W        W10526  32.595  41.020  13.804
46319W        W10527  12.211  35.405   1.447
46320W        W10528   6.692  12.638   0.754
46321W        W10529   8.738  41.972   0.256
46322W        W10530  21.022  18.695  14.848
46323W        W10531  18.058  25.546   3.667
46324W        W10532   6.397   5.326   3.797
46325W        W10533   4.920  13.716  13.453
46326W        W10534   0.813   1.925   0.272
46327W        W10535  11.284  33.070   2.862
46328W        W10536   7.242  36.897   2.320
46329W        W10537  28.533  25.101  14.305
46330W        W10538  36.843  10.832   2.335
46331W        W10539  21.195  40.022   4.628
46332W        W10540   0.829  20.055  14.884
46333W        W10541  22.026   6.775  11.506
46334W        W10542  13.775  28.610   2.349
46335W        W10543  42.524  33.382   4.144
46336W        W10544   9.769  29.491  11.999
46337W        W10545  11.848   8.176   0.857
46338W        W10546  18.226  32.121  14.794
46339W        W10547  27.675  28.013  12.482
46340W        W10548  29.614  32.926  11.589
46341W        W10549   5.916   8.226   2.816
46342W        W10550  29.548   2.901  12.876
46343W        W10551   9.350  42.812   2.187
46344W        W10552  19.732  24.089  14.458
46345W        W10553   5.278  19.684   2.257
46346W        W10554  29.081  18.070  12.094
46347W        W10555  21.702  44.322   1.734
46348W        W10556   4.918  44.972  11.859
46349W        W10557  30.925  12.348   4.168
46350W        W10558  28.440  32.620   2.700
46351W        W10559   7.902  10.367  12.897
46352W        W10560  28.554  25.979   1.890
46353W        W10561  20.223  27.574   1.234
46354W        W10562   6.813  37.048  12.039
46355W        W10563  27.032  40.411   0.866
46356W        W10564  14.716  22.736   0.799
46357W        W10565  11.827  33.533   4.224
46358W        W10566  44.422  40.546  10.492
46359W        W10567  26.609  30.575  13.853
46360W        W10568  35.886  38.066   1.388
46361W        W10569  21.707   4.750   4.175
46362W        W10570  42.776   1.941   0.850
46363W        W10571  43.849   1.800  11.501
46364W        W10572   6.200  10.234   0.365
46365W        W10573  27.449  18.109  12.342
46366W        W10574   2.310  20.652   0.311
46367W        W10575  29.053  43.386  11.591
46368W        W10576  29.021  24.116  12.354
46369W        W10577  10.181  26.978  14.285
46370W        W10578  38.483  27.054  14.288
46371W        W10579  44.827  19.574   0.276
46372W        W10580  31.492  22.708  11.383
46373W        W10581  34.957  22.233   3.181
46374W        W10582   3.282  34.452  11.032
46375W        W10583  15.270  26.584   0.408
46376W        W10584  15.756  28.681  12.994
46377W        W10585  16.584  24.176  12.571
46378W        W10586  26.113  28.068  13.034
46379W        W10587  37.007  30.644  11.380
46380W        W10588  21.655  19.185   4.348
46381W        W10589   7.240  39.345   3.662
46382W        W10590  27.454  41.537  12.030
46383W        W10591  26.524  15.210   3.688
46384W        W10592  33.573   6.741  10.438
46385W        W10593  37.446  18.736   3.381
46386W        W10594   6.704  18.558   0.882
46387W        W10595  27.144  18.200  14.823
46388W        W10596  10.223  32.604  13.013
46389W        W10597   2.738   1.287  11.108
46390W        W10598  44.442  12.635  13.514
46391W        W10599  29.625  38.543   0.374
46392W        W10600  34.010  32.141  11.409
46393W        W10601  29.948  21.624  11.867
46394W        W10602  23.110  11.733   2.228
46395W        W10603  40.482  43.363   1.262
46396W        W10604   7.761   2.315  14.028
46397W        W10605  16.276  20.607   3.362
46398W        W10606  41.918  26.115   1.832
46399W        W10607   1.795  39.963   1.268
46400W        W10608  24.186   2.926  12.073
46401W        W10609  29.510  29.429  11.057
46402W        W10610   9.190  21.028   5.123
46403W        W10611  15.276  27.491  10.906
46404W        W10612   6.253  38.387  14.431
46405W        W10613  37.403  40.369  13.394
46406W        W10614  24.184  30.934  14.858
46407W        W10615   2.417  30.442   1.261
46408W        W10616  38.416  33.518   0.269
46409W        W10617   2.766  38.431   3.147
46410W        W10618  24.018  13.793   2.386
46411W        W10619  12.747  25.079  13.865
46412W        W10620  31.052  39.368  10.586
46413W        W10621   0.415   8.369  14.471
46414W        W10622  43.941  18.255   3.801
46415W        W10623  32.573   7.409  12.834
46416W        W10624  29.064   5.786  10.978
46417W        W10625   8.734  39.542  11.606
46418W        W10626   9.737   6.370  10.644
46419W        W10627  12.806   1.267  14.390
46420W        W10628   0.362  36.011  13.912
46421W        W10629  26.555  21.210  14.959
46422W        W10630  36.080  16.641  14.376
46423W        W10631  40.943   1.319  12.464
46424W        W10632  16.631  16.608   0.342
46425W        W10633  38.991  31.979  12.051
46426W        W10634  28.105  20.750   2.748
46427W        W10635  27.551  31.428  13.984
46428W        W10636   8.299   7.813   3.743
46429W        W10637  16.695  33.902  11.120
46430W        W10638   0.857  32.123  14.388
46431W        W10639  37.552  16.660   4.329
46432W        W10640  25.011  28.127   1.414
46433W        W10641  28.531  18.551   4.798
46434W        W10642  34.050   9.761   2.260
46435W        W10643  11.671  16.226  14.301
46436W        W10644  23.115   3.387   5.081
46437W        W10645  35.051  40.831  12.441
46438W        W10646  29.986  23.713   1.739
46439W        W10647  31.138  25.196   3.758
46440W        W10648  31.492  21.144   1.287
46441W        W10649   4.437   1.277  13.871
46442W        W10650  35.003  27.086  12.433
46443W        W10651  32.981  21.648  11.961
46444W        W10652  14.270  12.280  11.119
46445W        W10653  44.265  15.707   3.704
46446W        W10654  25.687  27.175   1.318
46447W        W10655  22.016   6.295  14.300
46448W        W10656  40.448  18.129   2.357
46449W        W10657  30.937  16.280  14.339
46450W        W10658  27.078  22.092  13.385
46451W        W10659  19.075  42.011  10.577
46452W        W10660  37.489  18.568   3.787
46453W        W10661  26.153  39.412  10.518
46454W        W10662  29.054  11.802   2.759
46455W        W10663   5.798  44.295  12.368
46456W        W10664  31.583  28.453  14.293
46457W        W10665  33.997  40.386   4.150
46458W        W10666  28.472  17.283  10.021
46459W        W10667   5.428   0.775   3.825
46460W        W10668  19.282  36.952   2.414
46461W        W10669  35.873  16.295  13.427
46462W        W10670  12.279  34.588  12.483
46463W        W10671  14.679   6.320   2.365
46464W        W10672  42.950  31.406   2.330
46465W        W10673   8.359  29.931   3.284
46466W        W10674  25.527  34.491   2.261
46467W        W10675  39.333  10.850  11.084
46468W        W10676  31.973  24.230  13.809
46469W        W10677  30.965  37.032   1.331
46470W        W10678  18.289  32.567  10.579
46471W        W10679  38.828  12.646   3.845
46472W        W10680  25.219  27.025   4.127
46473W        W10681   3.825  33.607  11.876
46474W        W10682  29.435  27.482  13.892
46475W        W10683  18.601  44.762  10.591
46476W        W10684   3.890  27.487   0.420
46477W        W10685  37.343  32.957   1.905
46478W        W10686  29.134   4.322  13.519
46479W        W10687  27.961  26.598  12.857
46480W        W10688  14.640  20.065  12.090
46481W        W10689  41.336  16.151  11.086
46482W        W10690  10.270   5.437  14.311
46483W        W10691  43.371   9.351  14.989
46484W        W10692  19.128  20.763  14.878
46485W        W10693  11.635  39.965   2.193
46486W        W10694  11.274  22.202   3.236
46487W        W10695  16.718  37.396  13.824
46488W        W10696   8.814  39.952   4.791
46489W        W10697   3.861  38.349   3.206
46490W        W10698  15.274   0.795   3.251
46491W        W10699   7.380  23.703   4.309
46492W        W10700  32.100  19.670   3.708
46493W        W10701  42.880  39.877  13.468
46494W        W10702  40.031  35.857  14.975
46495W        W10703  28.622   8.165  10.493
46496W        W10704  34.416  19.580   2.295
46497W        W10705   0.405  44.343  13.427
46498W        W10706  31.086  31.515  12.031
46499W        W10707  39.002   2.294   1.802
46500W        W10708  10.670  16.628   4.780
46501W        W10709  33.489  12.186   2.722
46502W        W10710  11.373  17.627   2.720
46503W        W10711  16.583  31.017  12.033
46504W        W10712  16.143  32.485  13.055
46505W        W10713  19.217  37.346  12.354
46506W        W10714  24.689  34.044  13.443
46507W        W10715  38.916  19.047   1.916
46508W        W10716  37.855   6.728   2.720
46509W        W10717  31.440   0.279   0.821
46510W        W10718  34.598   7.679   1.865
46511W        W10719  28.576  25.648  12.493
46512W        W10720  18.175  43.417  12.969
46513W        W10721  28.630  39.366   3.289
46514W        W10722  32.600  37.900   4.118
46515W        W10723  17.752  43.285   1.424
46516W        W10724  28.661  15.201   4.178
46517W        W10725  14.216   5.389   1.329
46518W        W10726  14.102   6.238   1.920
46519W        W10727  35.854  37.367   1.723
46520W        W10728  17.156  40.439   3.318
46521W        W10729  33.118  30.924   2.666
46522W        W10730   7.211  21.643   2.253
46523W        W10731  37.922  11.791   4.325
46524W        W10732  24.545  33.556   4.682
46525W        W10733  19.085  32.096  10.466
46526W        W10734  29.175  17.098   2.243
46527W        W10735  11.718   7.903   2.776
46528W        W10736  24.102   6.341   2.723
46529W        W10737  20.157   6.762  14.362
46530W        W10738  28.030  31.023   3.803
46531W        W10739  18.638  36.434   4.768
46532W        W10740  25.066  33.537   3.682
46533W        W10741  43.822  38.417   2.676
46534W        W10742   5.383   1.269   3.828
46535W        W10743  25.133   9.373   3.350
46536W        W10744   3.288  37.050   0.963
46537W        W10745  24.018  32.616  11.943
46538W        W10746  42.782  27.984  11.561
46539W        W10747   9.686  36.982   4.193
46540W        W10748  41.998  22.064   0.387
46541W        W10749  36.524   1.871   3.202
46542W        W10750  24.613  14.633  11.088
46543W        W10751  18.629  18.604   2.900
46544W        W10752  11.704  12.351   5.299
46545W        W10753  24.139  42.282  11.024
46546W        W10754   7.747  16.772  14.951
46547W        W10755  20.726  14.146  11.894
46548W        W10756  30.578  11.209   1.442
46549W        W10757   5.395  22.061  14.953
46550W        W10758  31.488  16.236   0.910
46551W        W10759  25.540  34.899   4.323
46552W        W10760  16.613  15.655  10.462
46553W        W10761  26.179  28.448   2.869
46554W        W10762  23.521  14.598  13.944
46555W        W10763   8.729  32.115  11.388
46556W        W10764  26.107  36.906   4.701
46557W        W10765  37.548   6.196   2.689
46558W        W10766  23.630  17.669  12.839
46559W        W10767  22.619  40.472  13.034
46560W        W10768  14.826  37.420   0.879
46561W        W10769  18.548   7.770  12.424
46562W        W10770   2.447  27.076  12.373
46563W        W10771   1.250  10.148  10.634
46564W        W10772   5.397  19.749   3.747
46565W        W10773   0.431  31.608  11.892
46566W        W10774  24.601  15.166  10.552
46567W        W10775  18.636  21.633  11.612
46568W        W10776  27.686  33.509   0.483
46569W        W10777   0.857  17.648   2.218
46570W        W10778  38.532   7.671   2.257
46571W        W10779   5.776   1.306  12.978
46572W        W10780  40.521   6.774   4.211
46573W        W10781  38.827  31.591  14.301
46574W        W10782   2.945  20.646   1.847
46575W        W10783  10.863  29.175  11.084
46576W        W10784   6.381  29.649  13.961
46577W        W10785  41.800  33.056   4.735
46578W        W10786  19.048  41.022   3.374
46579W        W10787  18.182  40.033   1.923
46580W        W10788  15.273  15.640  14.986
46581W        W10789  17.229  19.710   0.448
46582W        W10790  15.752  19.536  10.560
46583W        W10791  16.732   4.898  13.370
46584W        W10792  19.103  32.544  13.423
46585W        W10793  38.371   7.251   1.704
46586W        W10794  13.653  19.160   1.885
46587W        W10795  11.809  18.655   3.807
46588W        W10796  11.625  32.629   9.988
46589W        W10797   0.962  21.138   3.162
46590W        W10798  32.076   2.276   5.093
46591W        W10799   0.874  40.384   4.337
46592W        W10800  21.169  11.754   0.873
46593W        W10801  36.898  25.022  14.959
46594W        W10802  19.704  13.841  13.498
46595W        W10803  43.004  25.011  12.508
46596W        W10804  43.516  44.314   1.422
46597W        W10805  29.662  34.396   1.239
46598W        W10806   8.654  32.582  14.996
46599W        W10807  41.996  41.910  12.955
46600W        W10808  39.407  41.352   2.666
46601W        W10809  39.375  30.969   1.314
46602W        W10810  42.796  41.836   0.857
46603W        W10811  15.261   0.315  12.363
46604W        W10812   0.963  24.577   3.817
46605W        W10813  29.966  44.262   2.266
46606W        W10814  25.009  44.846   4.599
46607W        W10815   7.186  15.269  12.533
46608W        W10816   5.825  17.677   0.913
46609W        W10817   4.833   7.399  14.821
46610W        W10818  28.642  20.237  11.863
46611W        W10819  44.325   9.759  14.461
46612W        W10820  44.007  14.271  14.431
46613W        W10821  18.774  39.446  11.082
46614W        W10822  21.644  16.720   4.270
46615W        W10823  34.999  22.594   4.829
46616W        W10824  39.854  32.461   1.415
46617W        W10825  28.101  18.786  14.880
46618W        W10826   2.758  15.772  14.289
46619W        W10827  27.146   5.792   2.716
46620W        W10828  31.044  15.137  10.934
46621W        W10829   1.287  12.244  11.086
46622W        W10830  44.969  28.140   4.309
46623W        W10831   7.777  39.531  14.914
46624W        W10832  17.176  42.930  11.043
46625W        W10833  44.765   9.334   4.237
46626W        W10834   2.281  34.946   3.862
46627W        W10835   9.831   3.297  10.615
46628W        W10836   0.976   8.332   0.729
46629W        W10837  43.015  32.905   0.937
46630W        W10838  32.635  12.817  11.513
46631W        W10839  18.168  22.139   1.935
46632W        W10840   9.885   4.305  13.868
46633W        W10841  38.987  38.851  14.278
46634W        W10842  32.955  19.683   2.822
46635W        W10843   3.445  26.607  13.005
46636W        W10844  35.891  11.787   3.661
46637W        W10845  15.605  12.349   2.814
46638W        W10846  13.613  43.892  11.857
46639W        W10847  18.654  31.590  14.923
46640W        W10848  24.005  40.993   1.738
46641W        W10849  23.177  38.503   1.926
46642W        W10850  38.325  18.683  11.992
46643W        W10851  27.531  22.218   1.793
46644W        W10852  22.601  14.130   3.213
46645W        W10853  18.677   2.267  14.019
46646W        W10854  43.956  14.758  14.761
46647W        W10855  26.651  15.690   2.342
46648W        W10856  37.908  11.629  11.084
46649W        W10857   6.392   3.385  13.874
46650W        W10858  27.558  30.493   5.151
46651W        W10859  20.140  26.669  14.789
46652W        W10860   7.746  30.911  10.509
46653W        W10861  15.762  31.020  13.424
46654W        W10862  25.152  27.052  12.935
46655W        W10863  33.092  19.638   4.149
46656W        W10864  32.965   4.329  10.441
46657W        W10865   0.408  28.662  14.953
46658W        W10866  22.212   5.769  13.466
46659W        W10867  32.416   1.933   5.212
46660W        W10868  22.030  23.197   3.812
46661W        W10869  31.122  30.091   1.319
46662W        W10870   5.908  37.040  11.974
46663W        W10871  32.047  42.521  13.352
46664W        W10872  37.039  37.035  13.881
46665W        W10873  15.818  41.307   4.722
46666W        W10874   9.658  41.337  11.856
46667W        W10875  43.312  13.721  13.917
46668W        W10876  24.604  36.437  12.090
46669W        W10877  36.492  32.418   4.150
46670W        W10878  20.129   1.323  12.387
46671W        W10879  28.962  31.917   1.895
46672W        W10880  13.264  23.994  10.430
46673W        W10881   3.350  42.834   2.743
46674W        W10882   1.767  21.148  14.028
46675W        W10883  15.245   0.939  13.488
46676W        W10884  34.581  29.460  11.096
46677W        W10885  39.438  40.477   0.948
46678W        W10886  20.115  18.211   1.326
46679W        W10887  20.195  43.894   3.268
46680W        W10888   4.335  40.837  11.478
46681W        W10889   0.867  43.486  12.011
46682W        W10890   7.822   8.761   4.612
46683W        W10891  28.979   3.315   3.282
46684W        W10892   1.303  34.974   3.634
46685W        W10893  35.527  34.083   2.202
46686W        W10894   4.424   0.354  14.865
46687W        W10895   3.389  39.440   2.277
46688W        W10896  34.961  31.022   1.382
46689W        W10897  30.588  30.555  11.957
46690W        W10898  28.633  43.008   3.676
46691W        W10899   2.324  26.544  10.032
46692W        W10900   6.898  33.495  14.901
46693W        W10901  13.716  28.940   2.191
46694W        W10902   0.287  41.981  12.512
46695W        W10903  43.002  25.668  14.896
46696W        W10904   7.745  15.136  12.072
46697W        W10905  24.600   2.273   1.768
46698W        W10906  29.558  40.470   2.872
46699W        W10907  40.309  29.492  13.530
46700W        W10908  31.535  41.527   1.237
46701W        W10909  41.905   8.273   4.643
46702W        W10910  28.932   1.343   3.752
46703W        W10911   5.236  19.693   4.684
46704W        W10912  36.354   9.337   0.442
46705W        W10913  44.475  13.749  13.821
46706W        W10914  12.351   1.302   1.770
46707W        W10915  32.571  43.435   3.236
46708W        W10916  13.672  24.597  13.472
46709W        W10917  19.207  38.421  14.969
46710W        W10918  10.294   8.896   0.742
46711W        W10919   8.179  16.082  10.926
46712W        W10920  12.761  22.585   2.825
46713W        W10921  23.557  19.623   4.673
46714W        W10922  19.576  24.518   3.146
46715W        W10923   1.283  29.511  12.455
46716W        W10924   3.940  29.644   0.771
46717W        W10925  43.006  15.702   4.659
46718W        W10926  25.186  21.544   0.377
46719W        W10927  11.734  38.821   0.273
46720W        W10928  36.950  13.783  10.537
46721W        W10929  12.847  41.990   4.683
46722W        W10930   7.408  13.607   0.865
46723W        W10931  39.457  31.569  14.342
46724W        W10932   8.789  22.171   4.153
46725W        W10933  23.135  10.318   2.865
46726W        W10934  21.553   4.228   1.789
46727W        W10935  37.490  15.609   3.206
46728W        W10936  31.035  20.618   3.787
46729W        W10937  37.949  10.202  12.966
46730W        W10938   1.351  32.606  10.636
46731W        W10939  41.433   9.654  12.532
46732W        W10940   5.361  13.790   1.214
46733W        W10941   9.678  27.965   4.339
46734W        W10942  32.594  39.399   3.797
46735W        W10943  35.101  30.079  14.914
46736W        W10944  29.434  28.057   4.685
46737W        W10945  39.953  16.200   1.312
46738W        W10946  14.136  11.249  14.312
46739W        W10947   2.946  27.061  14.761
46740W        W10948  18.686  25.160  10.112
46741W        W10949  41.491  37.485  14.509
46742W        W10950   7.195   1.953  11.037
46743W        W10951   0.254  19.603   2.771
46744W        W10952  28.929   9.213  14.006
46745W        W10953  15.633  42.797   3.348
46746W        W10954   8.392  11.781   2.353
46747W        W10955   8.269  41.323   3.230
46748W        W10956   8.740  40.883   0.456
46749W        W10957  34.083  22.558   4.754
46750W        W10958   7.197  33.091   0.386
46751W        W10959  31.562  37.038  11.112
46752W        W10960  19.558  41.521  11.945
46753W        W10961  25.667  36.448  13.451
46754W        W10962  14.205  30.439   2.335
46755W        W10963  28.122  13.272  11.921
46756W        W10964  41.490   6.228  11.976
46757W        W10965  28.535  43.500   3.659
46758W        W10966  15.749  16.786   2.799
46759W        W10967  33.034  11.270  11.564
46760W        W10968  20.709  43.978   3.774
46761W        W10969   3.834  30.116   4.645
46762W        W10970   0.380   5.698  13.426
46763W        W10971  29.512  39.025   0.818
46764W        W10972  18.081  14.592   0.447
46765W        W10973   2.912  33.574  11.024
46766W        W10974  36.002  25.124   0.781
46767W        W10975  28.459  29.571  13.541
46768W        W10976  10.257  19.765   3.289
46769W        W10977  31.948  34.454  10.515
46770W        W10978  14.240  21.258   1.744
46771W        W10979  38.863  29.943   4.743
46772W        W10980  40.498  15.748   3.305
46773W        W10981  30.641  18.547  11.486
46774W        W10982  29.508  31.409   2.716
46775W        W10983   8.722  12.251  11.502
46776W        W10984  13.689  21.200   0.286
46777W        W10985   7.694   9.200  12.569
46778W        W10986  35.575  31.532   1.426
46779W        W10987  22.134  32.135  13.903
46780W        W10988  14.135  28.966   2.724
46781W        W10989   3.820  44.384   2.299
46782W        W10990   6.800  31.566   2.873
46783W        W10991  37.543  20.613   4.782
46784W        W10992   1.397  40.488  14.309
46785W        W10993  35.558  41.847   4.314
46786W        W10994   2.840  17.578  13.343
46787W        W10995  44.391   1.970  14.904
46788W        W10996  40.338   5.760   2.306
46789W        W10997   1.934  39.917  11.927
46790W        W10998   2.960  12.764   0.290
46791W        W10999  25.005  20.602  10.950
46792W        W11000  15.771  30.599   3.735
46793W        W11001  13.337   4.359   4.126
46794W        W11002  36.990  16.217   1.913
46795W        W11003  12.294   7.330  11.491
46796W        W11004  22.068  24.574   4.615
46797W        W11005  43.446  25.050   0.849
46798W        W11006  43.781  13.322  11.404
46799W        W11007  30.596   7.828   3.272
46800W        W11008  40.444  18.712   3.747
46801W        W11009  37.580  37.447   3.239
46802W        W11010  19.694   5.907   2.898
46803W        W11011  43.311   5.350   4.267
46804W        W11012  10.633  41.961   3.384
46805W        W11013  44.457   1.784   5.106
46806W        W11014  17.237  24.132   5.086
46807W        W11015   8.834  14.175  11.934
46808W        W11016  21.215  43.462   4.243
46809W        W11017  39.940  32.047   1.260
46810W        W11018  39.444  15.675   0.254
46811W        W11019   1.898  40.408  12.978
46812W        W11020  41.043  15.807  12.086
46813W        W11021  32.010  21.682  10.406
46814W        W11022  17.596  32.990   3.644
46815W        W11023  10.343   6.337  12.353
46816W        W11024  40.549  14.822  11.410
46817W        W11025  25.975  37.081  11.976
46818W        W11026  34.884  18.702   5.258
46819W        W11027   4.910  23.021  11.569
46820W        W11028   0.804  22.097  10.593
46821W        W11029  34.098   1.250  10.437
46822W        W11030  17.148  15.117  11.404
46823W        W11031  37.379  40.984  12.533
46824W        W11032  19.116  25.191   4.673
46825W        W11033  12.842  43.799   4.155
46826W        W11034  43.980  16.101   4.313
46827W        W11035  13.707  24.222  13.469
46828W        W11036   5.894  22.503   1.437
46829W        W11037   6.201  44.400  11.416
46830W        W11038  44.762   3.253  11.511
46831W        W11039  23.564  21.670  11.877
46832W        W11040  20.610  17.252  13.806
46833W        W11041  37.002  23.043   4.705
46834W        W11042   9.242  12.682   1.263
46835W        W11043  23.505   3.785   1.451
46836W        W11044  11.205   3.766  13.319
46837W        W11045   7.669   2.927   1.389
46838W        W11046   2.811  40.935   4.152
46839W        W11047  31.641  29.978  11.890
46840W        W11048  37.027  29.641   1.358
46841W        W11049  30.164  10.195   4.302
46842W        W11050  36.411   1.316   4.684
46843W        W11051  27.172  15.195   2.857
46844W        W11052  33.618  28.517   1.706
46845W        W11053  31.141  23.240  13.311
46846W        W11054   1.750  39.451  14.813
46847W        W11055  22.646   5.721  10.037
46848W        W11056   0.911  27.030  13.493
46849W        W11057   0.823  18.545   3.215
46850W        W11058   9.645   5.767  13.370
46851W        W11059  22.528  40.984   3.161
46852W        W11060   2.842  44.866   1.771
46853W        W11061  44.930   0.866   5.758
46854W        W11062  24.669   7.726   0.775
46855W        W11063  40.002  20.619   3.353
46856W        W11064  23.173   1.878   3.187
46857W        W11065  15.698  16.310  11.590
46858W        W11066  37.498  11.239  13.798
46859W        W11067   6.890  30.610   1.299
46860W        W11068  19.226  22.196  12.924
46861W        W11069  29.985  35.430  12.076
46862W        W11070  33.416  38.370   4.313
46863W        W11071   7.839   0.487  12.869
46864W        W11072  23.701  29.631  11.566
46865W        W11073   0.801  38.828  11.503
46866W        W11074  44.916  19.113   3.644
46867W        W11075   1.305  44.411  14.841
46868W        W11076   1.862  30.489  11.042
46869W        W11077   7.299  34.894   3.770
46870W        W11078   6.786   4.704   2.206
46871W        W11079   9.720  15.690   5.244
46872W        W11080  35.947  12.638  12.936
46873W        W11081  18.106  26.969   4.308
46874W        W11082  24.658  29.996  13.859
46875W        W11083  20.623  22.220   3.712
46876W        W11084  10.321  39.863   2.693
46877W        W11085  34.566  16.221   1.370
46878W        W11086  31.093   1.301  11.490
46879W        W11087  19.061  10.814   3.827
46880W        W11088   1.479  37.558  11.522
46881W        W11089   8.170  29.951  13.359
46882W        W11090  22.239  38.852  11.114
46883W        W11091  38.378   8.209   4.251
46884W        W11092   0.367  19.177  11.412
46885W        W11093  23.653  26.540   4.163
46886W        W11094  35.513  18.672  12.914
46887W        W11095  29.574   8.310  11.921
46888W        W11096  39.508  14.755  13.863
46889W        W11097   4.356  14.101   4.615
46890W        W11098   9.237  17.276   2.789
46891W        W11099   7.231  14.272   1.769
46892W        W11100   8.770  29.656   0.365
46893W        W11101  19.739  33.429  13.981
46894W        W11102  23.581   4.819   4.705
46895W        W11103  19.286  20.718  12.924
46896W        W11104  42.446   0.441   3.821
46897W        W11105  14.252  11.218   3.721
46898W        W11106   8.736  20.048   4.776
46899W        W11107  19.124  17.073  13.529
46900W        W11108  19.767  11.675  13.826
46901W        W11109  35.584  11.192   2.777
46902W        W11110  31.625   0.440  14.387
46903W        W11111  44.799  13.143  10.506
46904W        W11112  31.153  21.633  11.606
46905W        W11113  38.507  27.048  11.594
46906W        W11114  43.834   8.260   4.733
46907W        W11115   8.722  16.219  11.891
46908W        W11116   4.365  19.608   2.311
46909W        W11117  33.928   6.685   0.427
46910W        W11118  23.063  23.705  10.979
46911W        W11119  16.106  14.256   5.208
46912W        W11120  16.072  10.221  10.588
46913W        W11121  25.168  44.831   1.887
46914W        W11122  44.426  33.977  12.491
46915W        W11123  43.914  34.909   1.915
46916W        W11124  12.279  21.606  12.475
46917W        W11125  27.675   3.224  12.482
46918W        W11126  26.696  18.666   5.209
46919W        W11127  10.140  20.264   4.742
46920W        W11128  18.600  39.483   1.210
46921W        W11129  32.537  25.510  10.892
46922W        W11130   0.934   1.407   3.748
46923W        W11131  25.209   6.358   3.636
46924W        W11132  26.693  29.163  12.897
46925W        W11133  12.241  40.326   2.868
46926W        W11134  16.746  14.288   3.163
46927W        W11135  31.934  18.150  12.879
46928W        W11136  21.183  13.806  14.798
46929W        W11137  39.957  33.509  12.476
46930W        W11138  13.809  34.021  10.446
46931W        W11139  21.654  17.093  14.976
46932W        W11140  41.984  37.915  13.365
46933W        W11141  25.198  33.993  10.596
46934W        W11142  43.830  38.030  14.487
46935W        W11143   7.359  24.560  13.885
46936W        W11144  43.471  36.537   1.833
46937W        W11145  30.435  18.610  14.025
46938W        W11146  37.363  37.518   4.765
46939W        W11147  39.005   3.774  11.084
46940W        W11148  14.830  33.033   3.202
46941W        W11149  33.542  29.973  13.834
46942W        W11150   6.724  43.430   1.391
46943W        W11151  13.740  23.223   3.254
46944W        W11152   3.427  36.508  11.074
46945W        W11153   9.827  41.844   3.229
46946W        W11154  23.616  10.317  13.961
46947W        W11155  30.161  19.285  14.993
46948W        W11156  23.228  31.068   0.789
46949W        W11157  24.120  14.662  11.410
46950W        W11158  43.787  35.591  14.469
46951W        W11159  10.704  10.638   4.701
46952W        W11160   0.957  33.518   1.778
46953W        W11161  24.082   7.373  14.777
46954W        W11162  24.600  43.775  13.343
46955W        W11163  15.729  26.169  13.521
46956W        W11164  20.222  21.193   3.817
46957W        W11165  35.481  24.535  12.936
46958W        W11166  17.778  38.450  11.590
46959W        W11167  28.988   7.722  10.437
46960W        W11168   4.914  25.184  13.339
46961W        W11169  33.053  11.857   1.777
46962W        W11170  39.939  11.802  10.557
46963W        W11171  16.079  10.381   2.313
46964W        W11172  38.424  44.946  11.026
46965W        W11173   8.355   9.189  13.800
46966W        W11174   4.371  38.957   3.754
46967W        W11175  27.184  40.437  14.966
46968W        W11176  21.620   0.770  13.507
46969W        W11177   8.278   7.876  14.499
46970W        W11178   0.785  10.162   3.371
46971W        W11179  24.076  18.265  11.058
46972W        W11180  28.165  40.989   2.418
46973W        W11181   7.702  24.050  12.919
46974W        W11182   0.313  13.756   1.311
46975W        W11183  22.105  38.335   4.702
46976W        W11184   5.737  42.291   0.427
46977W        W11185  43.905  28.946   2.303
46978W        W11186  36.507   1.463   0.949
46979W        W11187   7.734  36.987   1.407
46980W        W11188  40.528  41.457   0.963
46981W        W11189   0.899   0.478   1.776
46982W        W11190   4.380  15.239   0.799
46983W        W11191  12.124  19.760   0.320
46984W        W11192  43.388  42.322   1.876
46985W        W11193  30.495  43.310   0.243
46986W        W11194  16.134   3.251  11.427
46987W        W11195  12.686  38.487   1.392
46988W        W11196  20.050  16.288  10.449
46989W        W11197  12.827   1.833   3.699
46990W        W11198  33.060  20.650  12.471
46991W        W11199  34.428  23.049  13.386
46992W        W11200  38.916  25.015  13.437
46993W        W11201  32.488  11.132   0.316
46994W        W11202  42.911  11.764  11.048
46995W        W11203  10.189  20.733  13.412
46996W        W11204   6.686  19.605   3.371
46997W        W11205   8.292  42.433  10.959
46998W        W11206   7.268  24.116   4.775
46999W        W11207   9.777  43.862  12.084
47000W        W11208  37.881  38.856  11.467
47001W        W11209  15.176  12.218  13.310
47002W        W11210   4.327   4.889   1.286
47003W        W11211  23.557   5.797   3.258
47004W        W11212  12.317  23.187   1.806
47005W        W11213  17.700  17.794   4.196
47006W        W11214  27.039  21.182  12.860
47007W        W11215  33.447  31.535   2.241
47008W        W11216  33.986  44.879  14.348
47009W        W11217  26.012  28.029   2.390
47010W        W11218  27.101   0.845   3.266
47011W        W11219  16.696   7.253   3.722
47012W        W11220  27.048  26.997   4.759
47013W        W11221  30.024  29.164  12.426
47014W        W11222  35.855  24.209  11.887
47015W        W11223  27.942   0.796  13.448
47016W        W11224   8.375  20.538  12.944
47017W        W11225  38.548  37.571   3.248
47018W        W11226  15.742  25.677  10.440
47019W        W11227  37.832  13.669  11.006
47020W        W11228   5.886  10.774   0.412
47021W        W11229  13.205   7.410  13.969
47022W        W11230  10.197  32.421   4.704
47023W        W11231   3.406  31.449  14.007
47024W        W11232  43.997  41.996   0.268
47025W        W11233  31.407   0.316  11.518
47026W        W11234   0.808  27.170  12.428
47027W        W11235  41.851  11.167  13.808
47028W        W11236  30.005  29.174   3.342
47029W        W11237   7.348  40.824  11.463
47030W        W11238  41.041  28.451  11.965
47031W        W11239  38.466   2.438  11.025
47032W        W11240  41.912  37.569   4.284
47033W        W11241  30.034   9.184   1.905
47034W        W11242  40.547   5.360  13.957
47035W        W11243  37.384   5.848   4.673
47036W        W11244  38.837  34.879  13.516
47037W        W11245   6.793  24.087   1.853
47038W        W11246  40.040  24.580   0.903
47039W        W11247  32.396  34.916   1.738
47040W        W11248  23.061  15.675   4.793
47041W        W11249  38.047  18.706   1.851
47042W        W11250  29.137   3.375  13.865
47043W        W11251   1.759   2.850   1.393
47044W        W11252  16.720  19.701  12.858
47045W        W11253   9.255   9.788  10.486
47046W        W11254  29.441   3.814  13.457
47047W        W11255   0.889  15.124  10.539
47048W        W11256  34.998  13.128   0.451
47049W        W11257  16.792  40.411   0.797
47050W        W11258  29.154  11.142  12.878
47051W        W11259  41.808  24.156   5.095
47052W        W11260  31.000  43.500  11.868
47053W        W11261  34.496  21.136  14.491
47054W        W11262  14.766  41.043   2.241
47055W        W11263  35.426  21.618   3.270
47056W        W11264  36.962  44.769   2.259
47057W        W11265  31.511  37.474  10.456
47058W        W11266  42.782  32.538  10.915
47059W        W11267   9.773  20.044   1.333
47060W        W11268  39.382  38.435  12.348
47061W        W11269   7.382  19.772  13.355
47062W        W11270  23.635  33.523   1.424
47063W        W11271  41.506  33.894  13.942
47064W        W11272   4.358  16.318   2.353
47065W        W11273  18.703   7.327   4.828
47066W        W11274  19.670  29.499   4.152
47067W        W11275  20.231  40.956   2.821
47068W        W11276  31.603  13.837   0.287
47069W        W11277  34.584  26.549  11.109
47070W        W11278  25.010  26.159  11.952
47071W        W11279  25.560  35.591  12.010
47072W        W11280  32.634  11.323  10.536
47073W        W11281  16.221  43.496  12.445
47074W        W11282  24.539   0.865   1.378
47075W        W11283  19.722   2.468   2.673
47076W        W11284   6.864   6.284  13.393
47077W        W11285  11.843   5.931   1.281
47078W        W11286  28.587  16.088   2.736
47079W        W11287  27.101  23.655   1.423
47080W        W11288  31.943   5.717   3.790
47081W        W11289  25.532  34.042  10.983
47082W        W11290  37.879  39.877   9.944
47083W        W11291  11.193  40.894  10.976
47084W        W11292   0.878  18.644   0.459
47085W        W11293  23.616  40.394   3.752
47086W        W11294   1.752   3.457   2.820
47087W        W11295   9.280  24.977  10.985
47088W        W11296  17.738  11.806  12.864
47089W        W11297   7.200  10.691   4.215
47090W        W11298   3.804  12.712   1.428
47091W        W11299   5.298  14.817   1.748
47092W        W11300   0.823  20.140  13.541
47093W        W11301  44.972  14.817   0.962
47094W        W11302  29.975  28.489  10.999
47095W        W11303   7.308  14.622  14.028
47096W        W11304  40.305  21.561  10.575
47097W        W11305  30.436  29.551  11.926
47098W        W11306  28.622   1.927   4.671
47099W        W11307   3.721  36.957   2.331
47100W        W11308  41.379   8.676  11.004
47101W        W11309  42.459  38.543  10.970
47102W        W11310   5.819   9.323  11.516
47103W        W11311   6.378  13.706  11.042
47104W        W11312  14.758  21.061  10.492
47105W        W11313  23.028   7.190  11.547
47106W        W11314  19.078  12.135  12.964
47107W        W11315  19.557  39.538   1.705
47108W        W11316  18.741   4.235   0.449
47109W        W11317  28.038   4.320  13.307
47110W        W11318  38.512  40.993  10.533
47111W        W11319  44.384  14.295  10.061
47112W        W11320  30.055  41.841   2.207
47113W        W11321  27.032  31.123  14.976
47114W        W11322   1.788  19.240   3.184
47115W        W11323  33.592  16.607  12.531
47116W        W11324  33.448   4.440  11.056
47117W        W11325  31.017  39.065   4.720
47118W        W11326   2.416   4.231   0.756
47119W        W11327  18.678   3.282  10.967
47120W        W11328   5.820  21.655  10.998
47121W        W11329  18.716  44.942  13.520
47122W        W11330   9.851  11.139   2.859
47123W        W11331  30.049  11.809  11.884
47124W        W11332  13.136  12.329   2.200
47125W        W11333  15.610  39.537   2.323
47126W        W11334   3.403  32.493   2.306
47127W        W11335  14.270  29.116   0.958
47128W        W11336  16.297  27.587   2.743
47129W        W11337  22.695  14.771  11.392
47130W        W11338  12.335   5.853   2.412
47131W        W11339   8.176   9.752  10.522
47132W        W11340  32.138  29.536  10.479
47133W        W11341  35.542  11.367  10.444
47134W        W11342  37.921  19.050  10.430
47135W        W11343  13.688  34.933  14.018
47136W        W11344  37.921  11.285   3.312
47137W        W11345  43.483   0.925  11.498
47138W        W11346   1.445  24.608   2.337
47139W        W11347   8.172  35.373   4.268
47140W        W11348  30.453  12.348  10.934
47141W        W11349  16.586  25.550  13.990
47142W        W11350  19.732  13.128  14.858
47143W        W11351  21.114  11.132  14.440
47144W        W11352  20.140  25.479   4.640
47145W        W11353  29.933  26.598   1.880
47146W        W11354  17.282   6.304  14.327
47147W        W11355  13.259  34.388  13.970
47148W        W11356   5.891  33.924   1.705
47149W        W11357  18.629   0.894  14.330
47150W        W11358  39.451  12.653   0.262
47151W        W11359  38.832   9.651  10.994
47152W        W11360   7.224  35.930   4.293
47153W        W11361  22.165  32.963   1.704
47154W        W11362  42.429  18.083   1.373
47155W        W11363  29.089  31.951   2.184
47156W        W11364  43.367  17.610  12.092
47157W        W11365   9.731  37.560  13.004
47158W        W11366  30.533  17.067  10.034
47159W        W11367  40.908   0.457   0.336
47160W        W11368  13.325  10.226  13.429
47161W        W11369   0.907  34.604  12.874
47162W        W11370  43.781  23.512   2.714
47163W        W11371   3.781  31.516   0.371
47164W        W11372   0.797   9.786   1.397
47165W        W11373   8.658   3.301   2.860
47166W        W11374  30.620  30.007   1.737
47167W        W11375   7.693  11.210  10.999
47168W        W11376  17.129  18.268  10.975
47169W        W11377  41.978  31.634   3.374
47170W        W11378  30.053   6.257   1.345
47171W        W11379  13.678  11.255  11.521
47172W        W11380   7.716  12.823   4.657
47173W        W11381  23.585   3.215  13.518
47174W        W11382  19.111  14.211   0.406
47175W        W11383  10.709  15.230   2.182
47176W        W11384  30.609  13.344  11.479
47177W        W11385  27.666  24.201  13.314
47178W        W11386  13.302  29.971  14.964
47179W        W11387  26.142  33.988   0.469
47180W        W11388  16.679   7.407  12.351
47181W        W11389   5.230  16.139   1.752
47182W        W11390  19.275  30.095   3.242
47183W        W11391  13.783  24.202  12.501
47184W        W11392  16.671  37.474   3.682
47185W        W11393  34.508   8.311   2.720
47186W        W11394  31.949  41.434  12.559
47187W        W11395  18.611  27.544   0.324
47188W        W11396  14.209  34.895   4.229
47189W        W11397   4.259  19.586  11.103
47190W        W11398  14.228  11.160   0.269
47191W        W11399  13.616  31.149  11.396
47192W        W11400  10.831  37.359   4.772
47193W        W11401  37.881  44.793   3.773
47194W        W11402  12.156  24.979   3.685
47195W        W11403  31.518  10.168   0.325
47196W        W11404  38.842  16.295   0.387
47197W        W11405  16.107  35.036   3.327
47198W        W11406  22.033   9.667  12.067
47199W        W11407  44.390  25.066  11.597
47200W        W11408  21.198   5.370  13.314
47201W        W11409  16.745  38.538   2.199
47202W        W11410  31.497  38.881   4.781
47203W        W11411  16.084  19.239  10.908
47204W        W11412  39.945   3.815   4.282
47205W        W11413   6.279  26.540   4.626
47206W        W11414  40.901  23.676   0.780
47207W        W11415  15.159  15.141  13.008
47208W        W11416  12.334  10.199  12.057
47209W        W11417  22.718  39.429  13.377
47210W        W11418  17.132  27.984   2.779
47211W        W11419  10.661   3.911   3.380
47212W        W11420  24.985  41.796   3.642
47213W        W11421  24.657  15.224  14.922
47214W        W11422  17.597  23.110  14.766
47215W        W11423  16.623   0.395   0.367
47216W        W11424   0.386  21.700   3.197
47217W        W11425  14.726  21.029  14.917
47218W        W11426  38.028   7.780  11.381
47219W        W11427  31.423  38.495   1.720
47220W        W11428  11.236  29.138  11.542
47221W        W11429  34.486  44.873   2.272
47222W        W11430  32.406  39.426  13.849
47223W        W11431  33.606   3.461  10.898
47224W        W11432  31.562  16.197   0.289
47225W        W11433  10.726  16.730  11.477
47226W        W11434  24.552  26.461  14.465
47227W        W11435  32.085  38.331   4.699
47228W        W11436  15.258   6.364  12.538
47229W        W11437  40.395  20.044  11.883
47230W        W11438  44.446  13.303  14.875
47231W        W11439   9.877  38.549  14.440
47232W        W11440  11.259  11.796   3.840
47233W        W11441  24.700  19.655  14.374
47234W        W11442  18.175  26.985   2.234
47235W        W11443  33.903  14.300  13.038
47236W        W11444   1.759  43.451  10.629
47237W        W11445   3.740  43.810  13.943
47238W        W11446  38.996  27.141   4.768
47239W        W11447  17.740   2.809  13.537
47240W        W11448   9.343  41.452   1.755
47241W        W11449  25.072  25.019  12.403
47242W        W11450  20.714   5.197  10.156
47243W        W11451  20.540   1.852   1.718
47244W        W11452  18.082  30.488   4.299
47245W        W11453  36.951  40.515   2.721
47246W        W11454  13.666  27.073  11.494
47247W        W11455  20.578  29.105   0.462
47248W        W11456  27.593  12.200   4.757
47249W        W11457  23.093  34.884  14.506
47250W        W11458  29.035  29.126   2.678
47251W        W11459  12.857  24.531   0.872
47252W        W11460  17.208  27.061  13.328
47253W        W11461   2.458   2.741  11.956
47254W        W11462  39.431   0.867  10.438
47255W        W11463   3.299   1.474   2.187
47256W        W11464  11.757  20.058   2.229
47257W        W11465  29.531  26.982   0.466
47258W        W11466  31.066  26.959   2.711
47259W        W11467   2.233  41.835  11.878
47260W        W11468  35.433  19.096  11.470
47261W        W11469  16.102  29.165   2.380
47262W        W11470  35.054  31.607   4.748
47263W        W11471  24.161   6.272   5.203
47264W        W11472  12.129  35.461  13.926
47265W        W11473  21.590  22.597  13.458
47266W        W11474  16.158  37.453   9.513
47267W        W11475  22.722   1.340  11.476
47268W        W11476  38.399  37.082  14.333
47269W        W11477  42.289  12.714  13.034
47270W        W11478  10.646  23.593  12.048
47271W        W11479  39.405  16.705   0.834
47272W        W11480  11.773   2.315   3.711
47273W        W11481  23.680  29.438   2.384
47274W        W11482   6.415  32.552   0.726
47275W        W11483  42.857  39.865   0.449
47276W        W11484  20.643  10.270  11.066
47277W        W11485   8.662  40.407   0.751
47278W        W11486  22.602  20.110   2.312
47279W        W11487  30.479  32.886   0.871
47280W        W11488  12.356  41.352   0.322
47281W        W11489   1.442  19.133  12.486
47282W        W11490  40.325  12.646   1.450
47283W        W11491  11.306  26.563   4.195
47284W        W11492  20.134  43.794  14.967
47285W        W11493  30.931  44.441   1.388
47286W        W11494   2.239  15.665   2.808
47287W        W11495  27.085  34.566  11.535
47288W        W11496   7.766  13.245  11.984
47289W        W11497   0.402   0.259  13.450
47290W        W11498  11.845  17.650  14.402
47291W        W11499  24.994  44.319   9.929
47292W        W11500  37.470  17.199  12.029
47293W        W11501  10.865  26.610   2.770
47294W        W11502  34.949  18.207  12.025
47295W        W11503  31.466   9.183   1.385
47296W        W11504  37.365  24.679  11.013
47297W        W11505  25.523  36.572   3.790
47298W        W11506  43.351  26.015  14.302
47299W        W11507  18.781  26.642  11.554
47300W        W11508  26.458  24.483   0.797
47301W        W11509  20.619  13.301   2.696
47302W        W11510  21.536  39.399  14.964
47303W        W11511  21.220   1.397   0.282
47304W        W11512  33.940  19.124  10.976
47305W        W11513   1.907  40.810  14.480
47306W        W11514  27.474   4.290  12.015
47307W        W11515  23.156  11.261  12.844
47308W        W11516  23.640  29.949  11.429
47309W        W11517  37.049  23.083  10.643
47310W        W11518  24.111  42.412  10.640
47311W        W11519  40.815  36.569  13.389
47312W        W11520   8.688  42.960  14.495
47313W        W11521   1.733  22.605  14.998
47314W        W11522   1.391  17.263  12.361
47315W        W11523  39.546   5.846  10.901
47316W        W11524  39.853  36.027  10.566
47317W        W11525   7.908  36.856  11.126
47318W        W11526  27.019   4.337   0.255
47319W        W11527  44.288  27.685  11.032
47320W        W11528  18.785  17.104   0.248
47321W        W11529  23.512   2.729   4.249
47322W        W11530  32.511  44.339   9.930
47323W        W11531  35.553   8.356   1.331
47324W        W11532  23.650   7.692  13.342
47325W        W11533  40.373   3.763  14.978
47326W        W11534  26.700  12.662  10.580
47327W        W11535  16.133  11.781  14.473
47328W        W11536  34.480  13.198  14.465
47329W        W11537  30.007   7.884  12.065
47330W        W11538  11.778   0.449  11.431
47331W        W11539   8.253  32.458  13.009
47332W        W11540   9.685  12.674   0.329
47333W        W11541  20.653  17.569  12.466
47334W        W11542  23.501  38.827   4.179
47335W        W11543  36.441  14.714   0.302
47336W        W11544  37.944  11.695   0.835
47337W        W11545  16.083  42.500  13.460
47338W        W11546  40.415  24.130  11.926
47339W        W11547  19.563  36.515   2.212
47340W        W11548   4.328  31.112  10.452
47341W        W11549  10.252   7.742   2.292
47342W        W11550  12.204  16.202   4.333
47343W        W11551  31.050  40.875   2.860
47344W        W11552  11.173  20.610  13.927
47345W        W11553  29.006   1.406  14.885
47346W        W11554  27.983  40.329   4.744
47347W        W11555  11.848  24.515  14.395
47348W        W11556   8.761  25.704   2.726
47349W        W11557   2.434  34.029  13.312
47350W        W11558   1.266   4.793   4.279
47351W        W11559  32.491   7.384   0.751
47352W        W11560  22.680  33.554   0.369
47353W        W11561  39.820  40.980   2.351
47354W        W11562  30.482  17.223  13.959
47355W        W11563   8.272  14.613   4.146
47356W        W11564  38.839  13.817  14.461
47357W        W11565   4.256  36.082  10.531
47358W        W11566  35.488  13.673   1.871
47359W        W11567  19.535   2.269   1.798
47360W        W11568  30.019  43.401   1.712
47361W        W11569  12.632  16.286  12.543
47362W        W11570  24.719  14.183   2.183
47363W        W11571  36.538  32.045   3.671
47364W        W11572  33.911  19.192   3.243
47365W        W11573  31.639  28.544  13.484
47366W        W11574   6.340  41.832   0.363
47367W        W11575  40.453  35.596   3.824
47368W        W11576   6.678  16.581   4.291
47369W        W11577  25.135  43.448  14.947
47370W        W11578  39.849  29.008   4.790
47371W        W11579   4.366  39.830  11.582
47372W        W11580  32.948  39.881   2.382
47373W        W11581   6.764  44.370  10.924
47374W        W11582  30.113  34.542  13.797
47375W        W11583  36.918  32.096  10.948
47376W        W11584  43.831  14.265   1.244
47377W        W11585  18.562   8.394  13.891
47378W        W11586   1.849  44.929  14.514
47379W        W11587   0.343  25.987  10.429
47380W        W11588   7.415  25.593  11.436
47381W        W11589  17.256  37.476   3.319
47382W        W11590   5.928  12.226   3.362
47383W        W11591  18.157  26.983   3.256
47384W        W11592   1.868  22.575   2.708
47385W        W11593   9.311  22.202  12.857
47386W        W11594   6.328  24.193   5.193
47387W        W11595  38.362  16.147   3.692
47388W        W11596  24.538  30.909   3.747
47389W        W11597  18.233  36.096  11.396
47390W        W11598  13.151  40.000  14.410
47391W        W11599  37.409  10.730   3.328
47392W        W11600  29.436   2.817   3.158
47393W        W11601  12.281  24.500  13.809
47394W        W11602  13.233   3.712  10.507
47395W        W11603   4.347  44.425   1.218
47396W        W11604  23.608  30.485   0.292
47397W        W11605   7.204  23.091   4.174
47398W        W11606  15.196  13.348   0.356
47399W        W11607   8.690  29.039  14.937
47400W        W11608  20.142  15.320  11.067
47401W        W11609  18.553  15.616  11.473
47402W        W11610   6.287  34.121   4.822
47403W        W11611   2.770  33.388  11.471
47404W        W11612  11.793  43.849  13.465
47405W        W11613  40.842  23.618  12.839
47406W        W11614  19.557  33.560  13.532
47407W        W11615   0.942  27.980   2.732
47408W        W11616  14.727  42.330   3.158
47409W        W11617  32.404  24.200   3.228
47410W        W11618  22.205   4.302   0.861
47411W        W11619  43.501   6.831  11.594
47412W        W11620  17.604  25.038  13.507
47413W        W11621  15.215  42.815  12.967
47414W        W11622  11.278  38.834  11.545
47415W        W11623   0.961  44.996   0.428
47416W        W11624  27.035  39.066  12.892
47417W        W11625  12.296  28.543   3.334
47418W        W11626  17.590  12.755  10.539
47419W        W11627  24.658  25.639   4.346
47420W        W11628  36.069  33.874  10.412
47421W        W11629  30.054   6.424   0.950
47422W        W11630  14.697  13.277  12.460
47423W        W11631  24.494  24.724   1.796
47424W        W11632  38.417  36.348  13.466
47425W        W11633   4.909  31.932  10.456
47426W        W11634   1.834  21.172   3.311
47427W        W11635   7.389  11.728  14.786
47428W        W11636   6.709  44.969  14.404
47429W        W11637  18.154  24.686  13.001
47430W        W11638   2.960  34.595   5.189
47431W        W11639  32.427  33.970  12.892
47432W        W11640  28.996   6.228  13.842
47433W        W11641  27.621  19.619   0.464
47434W        W11642  14.095   8.658  13.372
47435W        W11643  18.584  22.028  10.594
47436W        W11644  41.988  37.367  14.977
47437W        W11645   9.689  31.967  13.356
47438W        W11646  37.848   6.235  11.073
47439W        W11647  16.754  37.354   4.174
47440W        W11648  31.983  11.316  10.923
47441W        W11649  13.202   2.742  14.965
47442W        W11650  34.113   9.208   2.740
47443W        W11651   6.200  25.627  13.017
47444W        W11652  20.620  41.950   2.678
47445W        W11653  37.946  33.032  13.524
47446W        W11654   8.818  36.395   2.704
47447W        W11655  27.556   4.299   2.741
47448W        W11656  29.154  15.784  13.493
47449W        W11657   0.470  24.656  12.466
47450W        W11658   0.779  15.633   0.411
47451W        W11659  41.900   6.197   0.435
47452W        W11660  31.552   6.400  11.457
47453W        W11661  44.863   3.833   4.744
47454W        W11662  33.564  23.734  10.932
47455W        W11663   1.866  32.123  12.394
47456W        W11664  42.381  23.095  12.554
47457W        W11665   6.870  17.144   0.420
47458W        W11666   3.289  26.982   2.866
47459W        W11667  36.097   9.778   2.740
47460W        W11668   9.777  17.082   0.734
47461W        W11669   6.400   7.274  14.424
47462W        W11670  32.472  11.370   4.727
47463W        W11671  30.633  23.534   0.911
47464W        W11672  22.085  39.414  12.440
47465W        W11673  25.622  35.915   4.743
47466W        W11674  29.925  12.231  11.456
47467W        W11675   3.428  14.723   2.195
47468W        W11676  10.277  25.197  13.386
47469W        W11677  32.618  17.733   2.810
47470W        W11678  32.111  10.233   2.251
47471W        W11679  34.875  27.449   3.782
47472W        W11680  29.067  24.994   1.402
47473W        W11681   0.464   5.285  14.940
47474W        W11682   4.851  23.599   3.262
47475W        W11683  19.550  29.150   2.397
47476W        W11684   8.854  28.144  13.530
47477W        W11685  44.831  42.786   1.281
47478W        W11686   7.818  41.811  12.019
47479W        W11687   0.477  33.920   4.158
47480W        W11688  11.802   6.404   0.340
47481W        W11689  19.535  29.667   0.888
47482W        W11690  26.204  37.338   4.186
47483W        W11691   1.312  31.493  13.791
47484W        W11692   2.796  21.733  12.084
47485W        W11693  40.398  38.371   1.437
47486W        W11694  19.153  34.039  14.996
47487W        W11695   5.219   3.749  11.864
47488W        W11696   7.412  10.163  14.393
47489W        W11697  41.940  19.578  10.455
47490W        W11698   3.264   3.245   0.745
47491W        W11699  29.538  37.980   2.225
47492W        W11700  25.029  33.988  14.910
47493W        W11701   6.757  29.011   4.834
47494W        W11702  41.332  30.593  11.603
47495W        W11703  20.562  24.160  13.547
47496W        W11704  30.983  33.460   0.941
47497W        W11705  27.065  41.516   1.238
47498W        W11706  11.311  33.919  13.909
47499W        W11707   4.857  15.676  11.557
47500W        W11708  23.638   1.932   4.136
47501W        W11709  39.492  41.961  13.417
47502W        W11710   8.806  15.277  12.852
47503W        W11711   1.790  42.860  12.073
47504W        W11712  42.985  26.007   4.146
47505W        W11713  23.092  31.485   2.391
47506W        W11714  23.734  15.770   2.847
47507W        W11715  29.656  22.006   0.438
47508W        W11716   0.935  29.522  14.030
47509W        W11717   9.660  15.200   3.781
47510W        W11718   7.799  33.381   3.348
47511W        W11719   6.733  18.713   4.675
47512W        W11720  38.551   2.839  12.036
47513W        W11721  39.827  28.475   3.298
47514W        W11722  35.082  19.598  12.080
47515W        W11723  34.607   6.366  11.043
47516W        W11724   6.857  11.706   4.600
47517W        W11725  40.007  14.127   2.793
47518W        W11726  12.696  27.455  12.832
47519W        W11727  43.438  43.849  11.600
47520W        W11728  41.391   0.832  11.474
47521W        W11729  44.798   1.768  14.815
47522W        W11730  13.264  13.112  12.408
47523W        W11731  13.215   1.328   2.803
47524W        W11732  17.201  18.762  11.895
47525W        W11733  20.559  16.161  11.449
47526W        W11734   7.343   0.967   4.660
47527W        W11735  43.287  37.989   0.383
47528W        W11736   5.858  12.784  10.899
47529W        W11737   7.362   6.271  12.827
47530W        W11738  33.486  40.041  14.920
47531W        W11739  37.895  29.011  10.485
47532W        W11740  10.830   9.358   2.418
47533W        W11741  15.661  30.096  14.972
47534W        W11742  43.994  27.449  13.521
47535W        W11743  38.969  22.211  13.504
47536W        W11744  36.511  16.593   3.190
47537W        W11745  38.825   8.246  11.903
47538W        W11746   7.238  37.866  14.481
47539W        W11747  43.791  19.086   4.756
47540W        W11748  41.872   5.696   2.698
47541W        W11749  37.346  40.886  10.891
47542W        W11750  10.727   9.268  13.472
47543W        W11751  14.624  27.071  14.957
47544W        W11752  21.677  44.415  10.992
47545W        W11753  43.346  37.972  12.470
47546W        W11754  14.143  36.352   2.319
47547W        W11755  11.139  19.662  11.438
47548W        W11756  27.552  37.958  11.934
47549W        W11757  29.619   4.406   4.216
47550W        W11758  33.929  26.053  14.779
47551W        W11759  23.649  19.620   0.297
47552W        W11760  40.962  27.949  14.515
47553W        W11761  39.385  39.355   0.297
47554W        W11762  30.087   5.864   2.315
47555W        W11763  33.031   5.301   2.732
47556W        W11764  40.902  28.676   4.262
47557W        W11765  20.709  38.916  11.000
47558W        W11766  37.004  23.709   4.162
47559W        W11767  32.511  14.664   4.646
47560W        W11768  17.780  24.171   4.817
47561W        W11769   9.697  44.473  13.446
47562W        W11770  24.589  26.650  12.976
47563W        W11771   1.816   9.659   4.338
47564W        W11772  12.618  43.797   0.340
47565W        W11773  32.136  18.618   2.792
47566W        W11774  14.610   1.273   4.745
47567W        W11775  13.265   6.282   4.135
47568W        W11776  32.054  11.130   0.740
47569W        W11777  12.618   1.792  12.847
47570W        W11778  21.568  37.933  12.017
47571W        W11779  39.511   9.661  10.921
47572W        W11780  30.422  13.622  10.909
47573W        W11781   6.917   5.794   4.268
47574W        W11782   6.851  26.596  11.446
47575W        W11783  28.594  14.336  13.513
47576W        W11784  24.695  27.558  10.453
47577W        W11785  23.597  33.454   3.678
47578W        W11786   2.744  20.553  11.040
47579W        W11787  42.361  25.156  11.020
47580W        W11788  29.094  39.993  12.857
47581W        W11789  13.644  36.881  10.637
47582W        W11790   1.905   7.906  11.537
47583W        W11791  40.367  11.257   4.160
47584W        W11792   3.907   5.368  13.379
47585W        W11793  17.719  10.826  11.106
47586W        W11794  18.643  33.000  14.285
47587W        W11795   1.733  21.515  12.022
47588W        W11796  35.410  10.276   2.288
47589W        W11797  30.038   9.210   4.210
47590W        W11798   7.753  38.922   2.194
47591W        W11799  36.558   3.767   2.748
47592W        W11800   7.395   1.455  11.394
47593W        W11801   4.813   1.440   4.825
47594W        W11802  41.799  16.615   2.764
47595W        W11803  21.048  27.475   4.605
47596W        W11804  41.406   4.249  13.340
47597W        W11805  18.082  38.877  11.479
47598W        W11806  35.445  39.877   4.788
47599W        W11807  40.843   6.297  14.828
47600W        W11808  39.878  20.700   5.226
47601W        W11809   1.321  15.758  12.970
47602W        W11810  35.973  44.390  12.086
47603W        W11811  28.961  35.482  14.991
47604W        W11812  22.504  42.525   0.823
47605W        W11813  14.237  22.607  10.645
47606W        W11814  19.565   4.363   3.639
47607W        W11815  30.918  19.233   0.909
47608W        W11816   9.737   5.322   4.286
47609W        W11817  33.115  11.219   4.303
47610W        W11818  10.822   7.746   0.481
47611W        W11819  16.618  23.585  10.941
47612W        W11820  30.469  42.892  14.298
47613W        W11821  18.217  31.614  12.870
47614W        W11822  19.747  25.566  12.889
47615W        W11823  35.109  36.487  13.062
47616W        W11824  26.139  24.723   4.736
47617W        W11825  39.856  18.577   1.694
47618W        W11826  33.487  15.691  14.410
47619W        W11827  43.956  39.356  14.462
47620W        W11828  13.823  23.704  10.505
47621W        W11829   2.297  40.310   2.366
47622W        W11830  27.592  26.670   4.815
47623W        W11831  32.000   0.956   3.767
47624W        W11832  32.966   3.219  11.887
47625W        W11833  41.531  27.019   2.795
47626W        W11834   4.778  43.827   4.265
47627W        W11835   6.871  22.514   0.860
47628W        W11836  26.054  19.776  13.912
47629W        W11837   8.773   1.361   3.372
47630W        W11838  41.500  23.734  12.992
47631W        W11839  43.796  26.078  13.963
47632W        W11840   2.864  25.697  13.503
47633W        W11841  29.174  25.514  12.562
47634W        W11842  11.778  23.513   0.390
47635W        W11843  29.028  28.951   1.805
47636W        W11844  13.814  25.682  12.574
47637W        W11845  40.509  13.221  12.350
47638W        W11846   8.679   8.282   0.808
47639W        W11847  15.157  37.472  10.605
47640W        W11848   5.761  19.649   2.188
47641W        W11849  21.589  20.693   0.940
47642W        W11850  20.572  24.605  10.906
47643W        W11851  10.670   8.688  12.529
47644W        W11852   6.256  33.381  14.453
47645W        W11853  14.294  31.016   4.601
47646W        W11854  23.582  24.562   1.862
47647W        W11855  42.893  10.246  10.543
47648W        W11856  28.003   6.352  13.891
47649W        W11857   9.659   8.213   0.955
47650W        W11858  34.897  22.636  10.475
47651W        W11859   0.805  23.674   1.875
47652W        W11860  25.033  44.001   1.752
47653W        W11861  11.643  33.439  11.422
47654W        W11862  32.932  37.434   4.278
47655W        W11863   7.867   7.326   2.830
47656W        W11864  42.499  16.739  11.571
47657W        W11865   5.720  44.394  14.952
47658W        W11866   6.236  32.966   4.234
47659W        W11867  39.326   4.275  12.443
47660W        W11868  14.832  27.676  12.986
47661W        W11869  26.187  41.304  10.515
47662W        W11870  39.956   4.331   9.675
47663W        W11871  18.710  35.517   1.817
47664W        W11872   6.808  34.515   0.365
47665W        W11873  24.555  13.346  13.842
47666W        W11874  30.933  31.986   4.797
47667W        W11875  37.557  42.942  11.954
47668W        W11876   3.883  13.744   3.789
47669W        W11877  44.450   8.382   1.270
47670W        W11878  17.264  38.978   1.240
47671W        W11879  22.536   1.373  12.997
47672W        W11880  33.085  18.062   2.196
47673W        W11881  39.051   3.726   9.610
47674W        W11882   9.257  38.471   2.406
47675W        W11883   6.884  32.533   4.692
47676W        W11884  22.228  24.170  11.920
47677W        W11885  28.931  35.940   2.327
47678W        W11886   1.268   1.248   3.221
47679W        W11887   0.787  40.037   3.866
47680W        W11888  32.391  24.538   4.663
47681W        W11889   7.340  36.912  14.377
47682W        W11890  11.287  10.264   4.827
47683W        W11891   8.337  37.514  10.911
47684W        W11892   7.204   9.856  11.112
47685W        W11893  40.000  25.604   1.328
47686W        W11894  21.728  14.310   3.159
47687W        W11895  27.150  11.370   3.186
47688W        W11896  29.611   0.288  12.089
47689W        W11897  14.707  15.603  12.501
47690W        W11898  27.187  38.539   3.147
47691W        W11899  33.416  20.626   4.797
47692W        W11900  25.600   1.385   4.598
47693W        W11901  19.098  22.712   1.844
47694W        W11902   9.299   8.718  13.973
47695W        W11903  23.670  31.027   3.314
47696W        W11904  19.769  36.437   0.919
47697W        W11905  18.100   0.835  11.046
47698W        W11906   7.390  42.958  13.862
47699W        W11907  16.794  38.372  13.333
47700W        W11908   3.830  16.206  10.938
47701W        W11909  36.514  11.127  13.347
47702W        W11910  31.469  27.606   3.776
47703W        W11911   4.219   9.689  13.357
47704W        W11912  12.754  36.541   0.888
47705W        W11913  41.361  23.562   3.225
47706W        W11914   2.455  42.345   2.256
47707W        W11915   5.924  25.181  13.056
47708W        W11916   9.355  42.849  13.814
47709W        W11917   5.241   5.351  13.864
47710W        W11918  31.486  27.481   3.150
47711W        W11919  20.044  22.718   0.931
47712W        W11920  30.656  20.530  13.804
47713W        W11921   4.435  14.795   2.408
47714W        W11922   4.238  21.612   4.310
47715W        W11923   4.427  28.144   0.904
47716W        W11924  28.603  42.821  12.534
47717W        W11925   8.763  12.723  11.936
47718W        W11926  16.213  27.186   4.828
47719W        W11927  24.628  28.054  10.477
47720W        W11928  12.769  21.077   1.813
47721W        W11929  13.186  43.275  12.944
47722W        W11930  35.990  29.488   4.782
47723W        W11931  17.155  26.644   3.755
47724W        W11932   2.721  34.391  11.048
47725W        W11933  14.201  25.019  13.819
47726W        W11934  23.656  12.226   0.815
47727W        W11935  27.972  28.123  12.058
47728W        W11936  14.197   5.308  10.910
47729W        W11937  27.595  18.747  13.042
47730W        W11938  28.616  10.355   4.621
47731W        W11939  37.933   0.388   0.767
47732W        W11940  29.540  23.155   2.731
47733W        W11941  34.038  23.018  13.483
47734W        W11942  31.911  41.433  11.105
47735W        W11943  44.445  14.798   4.350
47736W        W11944  31.528   0.810   0.781
47737W        W11945   6.801  12.155  13.382
47738W        W11946  23.136  23.709  12.376
47739W        W11947  18.180  35.529   4.759
47740W        W11948  39.523  20.654  14.279
47741W        W11949  18.776  38.980  13.392
47742W        W11950  13.178  27.592  12.474
47743W        W11951   2.792  41.833   4.352
47744W        W11952  18.210  13.259   2.338
47745W        W11953  34.401  20.176   2.252
47746W        W11954  40.033  26.002   1.293
47747W        W11955  15.696  39.546   3.335
47748W        W11956  14.221  21.634   2.296
47749W        W11957  28.616  34.492   1.806
47750W        W11958  29.586  12.215   1.782
47751W        W11959  31.475  10.739  10.935
47752W        W11960  43.315  34.952   4.126
47753W        W11961  19.111  40.960  10.466
47754W        W11962  16.235  38.412  13.979
47755W        W11963  32.953  24.536  14.292
47756W        W11964  23.731  26.151  14.905
47757W        W11965  20.627   5.208   3.182
47758W        W11966  43.965  17.631  12.407
47759W        W11967   4.708  28.071  14.375
47760W        W11968  25.585  35.861   3.176
47761W        W11969  38.870  43.991  13.947
47762W        W11970  33.036  39.033  10.415
47763W        W11971  41.472  21.094   1.869
47764W        W11972   9.298  44.431  12.848
47765W        W11973  15.088  20.710  13.915
47766W        W11974   9.657  38.822  10.094
47767W        W11975  40.483  39.367   3.799
47768W        W11976   2.848  33.483   0.321
47769W        W11977  38.365  20.137   9.588
47770W        W11978  38.425  16.237   3.336
47771W        W11979  44.977  40.034   0.835
47772W        W11980  44.957   0.872  10.989
47773W        W11981  21.205  25.681  14.860
47774W        W11982  13.293  13.196  14.357
47775W        W11983  30.138  34.598   4.257
47776W        W11984  33.624  41.043  13.922
47777W        W11985  42.939  41.039   2.820
47778W        W11986   5.215  25.090  13.927
47779W        W11987  40.359  12.625   2.709
47780W        W11988  14.289  36.918   2.837
47781W        W11989   4.895  42.898   2.320
47782W        W11990   1.854  10.861  14.860
47783W        W11991  30.013  12.337  13.053
47784W        W11992  13.304  36.954   4.810
47785W        W11993  43.421  24.719   3.268
47786W        W11994  39.495  21.155  12.402
47787W        W11995  10.226   3.262  12.039
47788W        W11996  42.949   7.214  14.948
47789W        W11997  13.635  38.334   4.662
47790W        W11998   6.325   6.199  11.970
47791W        W11999  23.119  31.969  13.859
47792W        W12000  27.039  15.730  12.546
47793W        W12001  15.724  28.049   1.872
47794W        W12002  38.464  18.764   2.773
47795W        W12003  17.201   1.977   0.951
47796W        W12004   9.783  17.144  13.383
47797W        W12005  17.559  21.523  12.381
47798W        W12006  25.059  27.592   4.354
47799W        W12007  41.451   0.880   1.884
47800W        W12008  34.507  13.793  11.573
47801W        W12009   5.213  44.883  10.623
47802W        W12010  38.029  40.970  14.994
47803W        W12011   9.208  38.910   3.847
47804W        W12012  11.771  13.635  11.895
47805W        W12013  26.697  16.752  14.393
47806W        W12014  28.607  36.400  12.929
47807W        W12015   4.782  24.125   2.715
47808W        W12016  25.635  44.830  10.633
47809W        W12017  17.643  24.632   4.771
47810W        W12018  11.812  44.296   1.733
47811W        W12019  42.868   3.903   0.851
47812W        W12020  39.880  35.443  11.421
47813W        W12021   9.730  39.963   3.301
47814W        W12022  20.537  27.187   3.314
47815W        W12023   7.340   9.714  11.545
47816W        W12024  32.551  15.136   1.838
47817W        W12025  14.745  35.889  14.901
47818W        W12026   3.822  32.527   0.870
47819W        W12027  25.141  22.186  13.974
47820W        W12028  15.173  31.081  13.846
47821W        W12029  25.501  13.782   2.901
47822W        W12030  26.624  27.958   3.776
47823W        W12031  16.192  10.745   0.831
47824W        W12032  43.002   5.415   4.239
47825W        W12033  29.020   6.798   0.480
47826W        W12034   4.723  26.109  11.416
47827W        W12035   1.454  20.685   4.719
47828W        W12036  24.513  36.013  14.307
47829W        W12037   2.273  37.462   4.324
47830W        W12038  44.861   7.310  12.449
47831W        W12039  11.825   1.938  14.425
47832W        W12040  37.085   8.210  12.535
47833W        W12041  43.928   6.698   4.346
47834W        W12042  44.410  44.951  12.823
47835W        W12043   4.406  25.117   1.365
47836W        W12044  22.152  42.313   0.740
47837W        W12045  21.133  36.498  11.091
47838W        W12046  41.888  10.780  13.494
47839W        W12047  28.045  22.576  14.304
47840W        W12048   0.939  41.425  13.903
47841W        W12049  39.928  25.987   4.783
47842W        W12050   7.235  37.085  14.844
47843W        W12051  25.544   5.334   1.314
47844W        W12052  39.435  13.692  11.865
47845W        W12053   0.860  18.286  13.483
47846W        W12054  34.580  42.845   1.305
47847W        W12055  34.083  19.167   3.825
47848W        W12056  28.631  22.070   1.897
47849W        W12057   4.355  29.140  12.388
47850W        W12058  25.712   9.171   2.670
47851W        W12059  17.204   0.351  14.911
47852W        W12060  31.445  41.366  12.526
47853W        W12061   0.322  25.695   3.793
47854W        W12062   5.922  28.018   2.381
47855W        W12063  35.379  34.531   2.349
47856W        W12064   6.844  19.179   3.207
47857W        W12065  13.654   2.914   0.292
47858W        W12066  30.521  33.508   1.703
47859W        W12067  29.560   7.677  11.031
47860W        W12068   4.217  16.249  11.442
47861W        W12069  27.546  14.742  12.934
47862W        W12070   8.281  28.442   1.741
47863W        W12071  33.015  42.866   2.218
47864W        W12072  10.811  30.031  14.011
47865W        W12073  10.717   3.898   0.461
47866W        W12074   4.733  32.460  11.103
47867W        W12075  16.084  21.567  13.064
47868W        W12076  14.133  18.617  12.038
47869W        W12077  35.461  45.000  13.476
47870W        W12078   4.720  22.737   1.368
47871W        W12079   8.181  40.457  14.453
47872W        W12080   8.761  24.573  11.562
47873W        W12081  36.454  30.428  12.437
47874W        W12082  39.436  26.549  14.982
47875W        W12083   6.873  37.076  13.823
47876W        W12084   8.746  33.076   3.829
47877W        W12085  41.358   1.903  11.416
47878W        W12086   5.276   3.838  13.376
47879W        W12087  12.325  43.393   0.871
47880W        W12088   2.470  30.110  10.149
47881W        W12089  33.930  42.856   3.712
47882W        W12090  32.059  15.145  11.874
47883W        W12091  40.483  36.077  12.544
47884W        W12092   4.423  12.629   1.288
47885W        W12093  44.874  36.948  13.925
47886W        W12094  21.543  32.512   3.783
47887W        W12095  34.531  35.564  13.965
47888W        W12096  32.585  27.500   4.602
47889W        W12097  26.079  18.056   4.823
47890W        W12098  29.659  41.931   0.316
47891W        W12099  15.583  25.484   5.295
47892W        W12100   8.285  39.894  14.781
47893W        W12101  43.389  42.854   4.330
47894W        W12102  34.512  17.186  13.335
47895W        W12103   2.720  10.231  13.327
47896W        W12104  34.930  14.267   2.835
47897W        W12105  35.019   6.304  14.323
47898W        W12106  23.582   0.297   3.789
47899W        W12107  32.927  27.588  12.986
47900W        W12108  25.121  39.952  10.431
47901W        W12109   5.863  31.921  13.800
47902W        W12110  23.661  20.157  14.492
47903W        W12111  24.112  16.572   1.907
47904W        W12112  24.088  37.338  12.528
47905W        W12113   5.398  20.070  11.405
47906W        W12114  25.193   4.739  10.431
47907W        W12115  32.031  12.304  13.877
47908W        W12116  36.000   6.849   0.879
47909W        W12117  24.205   2.355   4.636
47910W        W12118  39.979  19.649   1.420
47911W        W12119  37.871  34.592   0.797
47912W        W12120  35.538  27.138  14.898
47913W        W12121   7.687   9.216   4.743
47914W        W12122  39.431  21.637  11.881
47915W        W12123  34.556  16.207  12.869
47916W        W12124  14.750  16.229  14.961
47917W        W12125  10.371   1.465  13.890
47918W        W12126  14.675  35.877  12.498
47919W        W12127   0.880  37.379   9.557
47920W        W12128  13.800  28.518  13.358
47921W        W12129   2.828   9.644   2.238
47922W        W12130  11.355  43.506  14.285
47923W        W12131  23.600   2.398   3.373
47924W        W12132  17.278  28.958   1.264
47925W        W12133  22.207  15.088   1.452
47926W        W12134  15.223   2.917   3.176
47927W        W12135  15.168   3.841  11.389
47928W        W12136  13.146   0.345   2.776
47929W        W12137  19.637  43.407  14.925
47930W        W12138  35.437  42.321   4.217
47931W        W12139   4.725  34.541  12.933
47932W        W12140  42.997   7.899  14.853
47933W        W12141  37.386  18.265   3.763
47934W        W12142  13.749  30.420  10.930
47935W        W12143  12.303  24.637  14.421
47936W        W12144  24.515  12.267  12.404
47937W        W12145  40.397   9.171  14.282
47938W        W12146  44.839  31.513  13.449
47939W        W12147  28.134  41.828  12.844
47940W        W12148  24.598  18.129   2.352
47941W        W12149   1.917  11.323   0.460
47942W        W12150   5.728  24.000  14.913
47943W        W12151  26.037  22.681   2.856
47944W        W12152   6.817   7.244   0.869
47945W        W12153  33.106  41.941  12.840
47946W        W12154   7.811  13.752  10.580
47947W        W12155  31.897  23.672   2.316
47948W        W12156  30.423  10.738   1.235
47949W        W12157   8.773  18.294   4.751
47950W        W12158   6.319  33.463   2.239
47951W        W12159   3.425  36.014   0.370
47952W        W12160  30.579  27.515   4.332
47953W        W12161  18.141  31.432  14.963
47954W        W12162  42.524  21.714  10.991
47955W        W12163  18.257  14.257   2.871
47956W        W12164   7.768  22.042  12.057
47957W        W12165  18.690   4.350  13.360
47958W        W12166  12.191   8.671  13.058
47959W        W12167  29.638   1.321  11.081
47960W        W12168  42.016   0.927  12.367
47961W        W12169  12.680  29.966  13.447
47962W        W12170  42.827  30.659   3.754
47963W        W12171  12.333  31.447  14.456
47964W        W12172  14.112   1.793   2.820
47965W        W12173  35.856   9.843  12.534
47966W        W12174  40.434  12.752  13.440
47967W        W12175  13.123  34.952  11.922
47968W        W12176  38.563  41.322   3.385
47969W        W12177  28.594  18.685   3.814
47970W        W12178  16.075   8.850  14.005
47971W        W12179  18.112  41.482  14.864
47972W        W12180   7.891  10.644   3.319
47973W        W12181  20.053  37.088   4.613
47974W        W12182  14.758  39.516   4.225
47975W        W12183   2.929  14.754   2.732
47976W        W12184  14.650  25.127   2.779
47977W        W12185  13.289   3.263  14.509
47978W        W12186   5.298  41.481   0.775
47979W        W12187  31.134  39.860   2.231
47980W        W12188  12.804  33.610  13.862
47981W        W12189  30.965  17.720   0.345
47982W        W12190  29.594  43.272  14.984
47983W        W12191   9.786  36.510  10.427
47984W        W12192  21.677   1.372   2.663
47985W        W12193  22.171   7.276   5.100
47986W        W12194  29.644  32.447   3.654
47987W        W12195   1.815  16.298   4.132
47988W        W12196  36.068  15.682  14.325
47989W        W12197  20.703  30.067  13.950
47990W        W12198   8.888  36.902  14.837
47991W        W12199  14.783  39.437   4.829
47992W        W12200  40.002   9.300   3.251
47993W        W12201  24.615  15.314  13.484
47994W        W12202  12.649  28.592   3.284
47995W        W12203  14.702  37.447  12.073
47996W        W12204  39.423  33.896  12.367
47997W        W12205  13.323  18.550   4.298
47998W        W12206  24.205  41.327   2.797
47999W        W12207  27.096  38.544  11.527
48000W        W12208  40.970   0.933  14.943
48001W        W12209  20.117  15.781  13.546
48002W        W12210   9.689   4.379  10.915
48003W        W12211  23.099  40.897   1.892
48004W        W12212  39.442  44.415   3.251
48005W        W12213  16.793   0.815  13.911
48006W        W12214   3.409  34.991  10.951
48007W        W12215  11.780  40.856   1.784
48008W        W12216  11.252  14.687  10.474
48009W        W12217  31.474  36.416  12.043
48010W        W12218   4.750  30.117  13.908
48011W        W12219  30.000  26.986   4.310
48012W        W12220  32.622   3.876  10.632
48013W        W12221  26.206   9.804  14.015
48014W        W12222  43.801  24.049  10.918
48015W        W12223  16.602  22.109   1.707
48016W        W12224  21.153   9.376  13.491
48017W        W12225  17.751  17.254  13.408
48018W        W12226  11.269   8.764  13.492
48019W        W12227  35.603  17.243  13.022
48020W        W12228   1.362  29.515   2.889
48021W        W12229  19.285  40.369   1.695
48022W        W12230  18.713  30.510  13.529
48023W        W12231   1.296   3.864  11.485
48024W        W12232  17.611  13.178   3.822
48025W        W12233  13.605  35.954   4.699
48026W        W12234   0.492   6.741   0.453
48027W        W12235  31.422   3.849  14.988
48028W        W12236  29.448  22.013  14.866
48029W        W12237  42.010  28.492  12.469
48030W        W12238   3.273  16.775  10.570
48031W        W12239   5.365  41.359  12.935
48032W        W12240  16.755  39.819   4.197
48033W        W12241  24.495   9.172   1.707
48034W        W12242   2.450  10.180  11.064
48035W        W12243  13.108  44.791  13.030
48036W        W12244   7.758  21.069   1.810
48037W        W12245  18.738   7.860  14.443
48038W        W12246  38.348  23.710  11.386
48039W        W12247   0.815  13.656  12.535
48040W        W12248  28.501   5.702  13.890
48041W        W12249   8.731  26.090   2.234
48042W        W12250   4.915  35.919   0.751
48043W        W12251  10.335  24.104  13.539
48044W        W12252  42.323  19.674  14.899
48045W        W12253  44.923  22.019   1.370
48046W        W12254  16.191  16.686  13.332
48047W        W12255  19.628  32.997   2.271
48048W        W12256  13.351  32.455  12.028
48049W        W12257  42.476  27.459   3.273
48050W        W12258  33.510  44.390  12.048
48051W        W12259   2.385  43.999  13.933
48052W        W12260  37.909  22.599   2.841
48053W        W12261  36.543  40.925  14.504
48054W        W12262  11.234  29.590   0.890
48055W        W12263   1.799  24.210   3.253
48056W        W12264  30.418  13.182   1.249
48057W        W12265  29.156  12.171  12.826
48058W        W12266  13.252  39.959  10.616
48059W        W12267  40.985  25.643   0.372
48060W        W12268  29.022  37.071   0.961
48061W        W12269  44.771   1.342  13.928
48062W        W12270  29.946  12.610   4.293
48063W        W12271  20.744   4.403  14.474
48064W        W12272  25.015   9.208   3.715
48065W        W12273   1.905  23.032   0.417
48066W        W12274   5.923  43.791   1.228
48067W        W12275   0.903   3.397   1.218
48068W        W12276   3.823  38.000   0.822
48069W        W12277   7.776  34.932   2.870
48070W        W12278  12.248  21.149   4.834
48071W        W12279  26.964  39.986  10.464
48072W        W12280  30.575  31.920   3.263
48073W        W12281   3.715  22.222  11.942
48074W        W12282  17.073   8.858  11.565
48075W        W12283  20.533  16.224   3.829
48076W        W12284  31.089  42.033  13.056
48077W        W12285  10.679  39.924  13.922
48078W        W12286   1.318   5.857  10.893
48079W        W12287   7.874  25.075  14.948
48080W        W12288  30.015   3.810   0.960
48081W        W12289  39.003   4.867   1.711
48082W        W12290   3.249   4.338  12.521
48083W        W12291  29.159   4.215  12.447
48084W        W12292  25.553   4.742  10.055
48085W        W12293  24.003  40.939  13.867
48086W        W12294  19.092  35.897   0.397
48087W        W12295  40.871  17.777  12.857
48088W        W12296  28.112  31.456  11.605
48089W        W12297  29.633  36.550  14.981
48090W        W12298   2.779  22.179   4.197
48091W        W12299  28.079  20.263  11.555
48092W        W12300  41.791  32.587   3.820
48093W        W12301  43.799  30.121   1.931
48094W        W12302  11.677  38.936  10.095
48095W        W12303   8.656  27.678   4.198
48096W        W12304  32.437   7.365   2.340
48097W        W12305  17.225  13.738  11.094
48098W        W12306   2.780  15.163  14.499
48099W        W12307  39.463  30.023   2.234
48100W        W12308  25.055  39.486  13.501
48101W        W12309  11.264   1.425  11.023
48102W        W12310  29.163   7.386  13.491
48103W        W12311   6.705  17.304   1.718
48104W        W12312  10.278  19.575  11.405
48105W        W12313  38.922  17.598   0.821
48106W        W12314  27.541  19.748   3.189
48107W        W12315   2.967  37.023   1.923
48108W        W12316  19.694  29.056  10.601
48109W        W12317  19.536  30.429   1.297
48110W        W12318  43.875  37.498  12.424
48111W        W12319  18.562  17.591  14.003
48112W        W12320  10.308  10.190  14.929
48113W        W12321   7.728   7.205  13.022
48114W        W12322   7.245  13.142  11.552
48115W        W12323  15.601  35.538   0.854
48116W        W12324  12.309  21.242   0.760
48117W        W12325  14.748  23.571  12.415
48118W        W12326  18.725  44.286   4.133
48119W        W12327  44.288  30.061   4.277
48120W        W12328  16.247  18.232  12.949
48121W        W12329  17.259  20.072  13.456
48122W        W12330  37.839  26.586  14.320
48123W        W12331  36.462  38.831  14.861
48124W        W12332   4.783  34.034  10.466
48125W        W12333  34.006  18.728  12.431
48126W        W12334  22.101   5.202  14.406
48127W        W12335  17.708  26.606   4.697
48128W        W12336   8.165  27.634   1.361
48129W        W12337  32.129  41.990   4.274
48130W        W12338   2.238  22.062  10.570
48131W        W12339  40.501  38.008  12.943
48132W        W12340  34.964  34.498  13.391
48133W        W12341  27.990  12.850  11.395
48134W        W12342  18.167  19.141  11.986
48135W        W12343  21.642  15.315   3.148
48136W        W12344   9.664  24.485  11.965
48137W        W12345  38.968  17.792  11.602
48138W        W12346   9.655  27.945   0.922
48139W        W12347   2.737  37.440  14.280
48140W        W12348  26.970  40.435  12.507
48141W        W12349  32.104  38.011   2.190
48142W        W12350  10.264  12.247   2.401
48143W        W12351  11.249  12.834  11.601
48144W        W12352  27.510   7.742   3.783
48145W        W12353   2.731   5.892  12.564
48146W        W12354  30.608  12.620   2.737
48147W        W12355  37.034  37.472   4.718
48148W        W12356  31.927  10.236   4.779
48149W        W12357  18.580  30.459   1.846
48150W        W12358  36.984  38.003   2.363
48151W        W12359   7.302  36.960   1.734
48152W        W12360  18.136  16.218  14.956
48153W        W12361   7.311  38.042  11.422
48154W        W12362  12.707  15.695   0.396
48155W        W12363  10.333  24.057   4.665
48156W        W12364  10.791  40.379   0.944
48157W        W12365  28.510  39.943   1.837
48158W        W12366  19.589   7.401  14.763
48159W        W12367   0.476   0.903   5.136
48160W        W12368  19.640  27.482   0.248
48161W        W12369  12.621  14.632   0.322
48162W        W12370  17.754  32.976  14.494
48163W        W12371  40.959  34.107   2.361
48164W        W12372   7.282   1.780  12.083
48165W        W12373  44.984  39.913  10.970
48166W        W12374  31.061  26.193   3.278
48167W        W12375  37.500   2.306  11.066
48168W        W12376  35.389  30.908  12.499
48169W        W12377  37.423   9.362  10.999
48170W        W12378  13.266  18.773   1.787
48171W        W12379  13.173   1.475   4.719
48172W        W12380  16.721  25.512   2.220
48173W        W12381  26.040  13.196  14.450
48174W        W12382   3.241  19.601  13.799
48175W        W12383  24.976   3.753  13.487
48176W        W12384  22.574  33.428  11.574
48177W        W12385  31.576  31.462  14.417
48178W        W12386  34.522  14.807   0.847
48179W        W12387   9.879  15.192   2.196
48180W        W12388  37.384  13.652  14.311
48181W        W12389  23.171   3.902   2.222
48182W        W12390  19.226  28.604   2.843
48183W        W12391  21.189   8.214  14.999
48184W        W12392  32.916  40.408  14.970
48185W        W12393   0.889  13.281   2.319
48186W        W12394   3.408  21.051   0.758
48187W        W12395  10.187  29.451   2.889
48188W        W12396  38.000  17.589   2.225
48189W        W12397   9.748  37.354  12.429
48190W        W12398  13.757  34.392   0.957
48191W        W12399  13.295  30.930   4.157
48192W        W12400  29.082  21.541   3.204
48193W        W12401  12.828   9.392   3.660
48194W        W12402  18.780  15.166   3.816
48195W        W12403  33.421  36.902  13.010
48196W        W12404   2.763  30.580  14.879
48197W        W12405  12.279  30.028   0.402
48198W        W12406  37.901  17.706  14.979
48199W        W12407  43.377  29.950  13.323
48200W        W12408   4.361  33.459   2.209
48201W        W12409  13.331  21.186   4.748
48202W        W12410   7.286   0.253   4.227
48203W        W12411  11.303   3.283  11.415
48204W        W12412  29.654   5.932   1.805
48205W        W12413  35.472  32.626   2.894
48206W        W12414  43.917  25.095   0.379
48207W        W12415  31.591   8.160  14.901
48208W        W12416  34.607   1.339   0.328
48209W        W12417  39.896  23.497  10.950
48210W        W12418  32.979  33.594  14.872
48211W        W12419  12.263  34.504   4.779
48212W        W12420  12.251  40.538   1.780
48213W        W12421   3.246  41.871   4.699
48214W        W12422   3.781   4.244  12.344
48215W        W12423  20.605   0.943   0.934
48216W        W12424  35.984   1.809   0.442
48217W        W12425  24.084  26.520   2.806
48218W        W12426  18.267  41.871  14.879
48219W        W12427  20.541   6.209  11.482
48220W        W12428   1.341  35.093  12.066
48221W        W12429  38.891  35.070  12.567
48222W        W12430  19.662  41.920  11.468
48223W        W12431  24.074  18.613  10.154
48224W        W12432  19.638  16.175  14.404
48225W        W12433  17.763  22.173   3.813
48226W        W12434  43.906  28.173   2.236
48227W        W12435  19.051  23.088  12.838
48228W        W12436  24.987  42.516  12.579
48229W        W12437   0.284  36.098   2.270
48230W        W12438   3.825   2.459   4.218
48231W        W12439  37.494  34.052   2.868
48232W        W12440  12.350  18.106   1.884
48233W        W12441  28.659   3.827  10.950
48234W        W12442  26.183  23.082   0.785
48235W        W12443  19.557  27.972   1.836
48236W        W12444  12.763   0.285   0.430
48237W        W12445  17.118   3.277   2.778
48238W        W12446  18.120  19.096  13.812
48239W        W12447   3.367  18.708   3.177
48240W        W12448  39.439  35.358   4.662
48241W        W12449  17.147  20.155  14.842
48242W        W12450  19.737  22.696  14.378
48243W        W12451   8.877  43.957   1.837
48244W        W12452  31.461  15.231   0.808
48245W        W12453  21.626  33.436  14.889
48246W        W12454  12.176  22.501   3.211
48247W        W12455  15.166  29.175   3.287
48248W        W12456  19.673   2.431  11.054
48249W        W12457  16.279  10.732  12.565
48250W        W12458  34.555   1.777   1.385
48251W        W12459  12.304  17.560  11.583
48252W        W12460  19.700  41.015   3.227
48253W        W12461  42.368   5.837  11.537
48254W        W12462   0.761   9.737  14.963
48255W        W12463  27.970  39.894   0.302
48256W        W12464  41.428  15.594   3.739
48257W        W12465  39.449  41.001  13.367
48258W        W12466  34.009  23.193   0.463
48259W        W12467   0.905  24.490   1.882
48260W        W12468   9.878  39.918   0.292
48261W        W12469  44.474  40.403  12.841
48262W        W12470  11.672  44.269  12.854
48263W        W12471   0.420  38.989   3.810
48264W        W12472  17.285  42.506   0.806
48265W        W12473  23.609  43.830   3.658
48266W        W12474  17.597  12.744   0.299
48267W        W12475   2.786   3.855  13.326
48268W        W12476  29.024   7.897   1.283
48269W        W12477  21.750  15.752  13.912
48270W        W12478  26.605  32.940   0.966
48271W        W12479  27.951   2.739   2.416
48272W        W12480   0.948   7.730  10.893
48273W        W12481  26.507  19.281  11.072
48274W        W12482  12.293   0.485   1.211
48275W        W12483  38.473  14.592   3.168
48276W        W12484  17.628  24.484  12.375
48277W        W12485   8.770  38.958  11.957
48278W        W12486  28.142   8.837  11.473
48279W        W12487   5.859  24.499   0.423
48280W        W12488   1.876   4.334  11.098
48281W        W12489  19.195  34.098   1.425
48282W        W12490  36.076   3.417  12.974
48283W        W12491  16.601  26.612  13.462
48284W        W12492  12.826   5.263  12.461
48285W        W12493  28.652  35.866  11.385
48286W        W12494  37.977  42.390   2.300
48287W        W12495  35.082  15.609  11.859
48288W        W12496  28.963  25.968  10.619
48289W        W12497  12.184  11.280  12.503
48290W        W12498  19.193  13.836  14.303
48291W        W12499  37.872   2.268  13.401
48292W        W12500  25.099   9.860   0.342
48293W        W12501   0.415   7.795   4.190
48294W        W12502  23.587  11.755  10.615
48295W        W12503  43.412  15.661   3.351
48296W        W12504  31.587  24.209  13.855
48297W        W12505  32.540  20.570   1.781
48298W        W12506  15.756   2.345   0.424
48299W        W12507  24.517  37.550  14.880
48300W        W12508  20.705  11.747  14.340
48301W        W12509  13.728   9.296  13.802
48302W        W12510  28.960  23.063   1.391
48303W        W12511  17.658   0.926  12.348
48304W        W12512  41.829  13.751   0.766
48305W        W12513  27.179  20.089   1.799
48306W        W12514   1.389  13.765   0.962
48307W        W12515  39.871  18.544   3.329
48308W        W12516  39.428  34.466  11.434
48309W        W12517  37.564  13.723   4.686
48310W        W12518  20.723  12.217  10.434
48311W        W12519  14.153  20.041   2.878
48312W        W12520  19.118  21.526   3.680
48313W        W12521   8.345  34.927   0.867
48314W        W12522   7.832  38.333  12.017
48315W        W12523  20.533  41.465   1.755
48316W        W12524  22.218  17.672   2.354
48317W        W12525  36.467  25.040  11.426
48318W        W12526  16.660  19.615   0.962
48319W        W12527  22.526  12.625  11.456
48320W        W12528   2.285  13.604  11.582
48321W        W12529  20.213  15.280  14.369
48322W        W12530   0.885  35.554  13.358
48323W        W12531  17.171   6.215   2.834
48324W        W12532  39.840  22.044   2.830
48325W        W12533  16.310  44.318   2.253
48326W        W12534  20.203   9.198   4.199
48327W        W12535   3.915  41.981   3.278
48328W        W12536   2.925   5.914   1.915
48329W        W12537  43.983   2.855  14.836
48330W        W12538  10.209  37.956  13.961
48331W        W12539   3.425  33.540   2.747
48332W        W12540  10.807  37.015  10.595
48333W        W12541  33.897  36.963  13.831
48334W        W12542   4.356  18.755   3.773
48335W        W12543   8.248  44.789   0.454
48336W        W12544   7.843  28.539   4.152
48337W        W12545   8.264  32.083   1.305
48338W        W12546  28.065  15.621  10.152
48339W        W12547  29.514   9.325  11.986
48340W        W12548   4.765  28.549   0.460
48341W        W12549  35.014   2.253  14.422
48342W        W12550   5.296  24.999  11.458
48343W        W12551   4.834  43.873  12.528
48344W        W12552   2.727  12.271  11.947
48345W        W12553   3.902   3.375  10.512
48346W        W12554   9.323  27.637  11.934
48347W        W12555  31.480  37.997   4.174
48348W        W12556  31.540   5.335  14.302
48349W        W12557  22.571   5.819  13.852
48350W        W12558  21.184  21.153   3.313
48351W        W12559  27.950  38.042   4.129
48352W        W12560  30.555   5.854  12.486
48353W        W12561  20.063  39.356  11.047
48354W        W12562   6.711  18.549  11.976
48355W        W12563  12.122   4.733   2.223
48356W        W12564  42.396   6.808   2.328
48357W        W12565  23.531  18.740  11.515
48358W        W12566  39.035  27.644   2.361
48359W        W12567  19.072   4.344  11.114
48360W        W12568  17.165  37.920   3.818
48361W        W12569  20.173   1.930   0.928
48362W        W12570  17.213  17.178   2.369
48363W        W12571  41.984  19.650   1.841
48364W        W12572  38.470  15.259  12.509
48365W        W12573  26.022  36.347  10.592
48366W        W12574   7.781  16.672  14.505
48367W        W12575  10.827  22.667  12.875
48368W        W12576  32.562   0.252   0.275
48369W        W12577  10.826  17.641  14.855
48370W        W12578  40.467  40.830  14.849
48371W        W12579  36.849  26.135  10.578
48372W        W12580  37.010  26.080  13.966
48373W        W12581   8.717  10.238  13.864
48374W        W12582  35.968  21.565  10.483
48375W        W12583  21.720  44.851   4.186
48376W        W12584  38.463  12.141   0.448
48377W        W12585   2.298  27.016   0.947
48378W        W12586  23.731  15.208  14.810
48379W        W12587   5.315  23.491   0.875
48380W        W12588  28.046  22.162  12.420
48381W        W12589  34.116   0.330  14.484
48382W        W12590  44.762   2.748   2.679
48383W        W12591  21.582  43.778  12.971
48384W        W12592  37.021  25.111  12.828
48385W        W12593  20.595   7.794  12.086
48386W        W12594  10.803  32.951  12.882
48387W        W12595   7.317  23.104   1.265
48388W        W12596  43.860  23.025  14.304
48389W        W12597  43.307  20.671  12.987
48390W        W12598  39.931  12.241  12.354
48391W        W12599  32.890  18.191  12.875
48392W        W12600  31.541   8.875   2.805
48393W        W12601   8.397  31.422   4.655
48394W        W12602  44.358  34.471   3.701
48395W        W12603  19.117  32.015   4.796
48396W        W12604   5.260  33.576   3.735
48397W        W12605   0.966  15.716   1.897
48398W        W12606   5.227   4.271   3.805
48399W        W12607  23.517  26.036   4.120
48400W        W12608  21.606   9.739   2.410
48401W        W12609  30.092   5.259  13.976
48402W        W12610  28.981  37.010  10.546
48403W        W12611  39.009  42.878  12.515
48404W        W12612  34.535   5.326   4.779
48405W        W12613  29.057  33.603  11.428
48406W        W12614  10.217  38.027  11.028
48407W        W12615  35.563  17.611  14.321
48408W        W12616   0.342  43.325   0.899
48409W        W12617   2.271  10.843  11.101
48410W        W12618   2.854  14.735   2.294
48411W        W12619   8.763   1.794  13.491
48412W        W12620  41.336   1.878   4.165
48413W        W12621  16.643  37.076   1.438
48414W        W12622  35.562   0.359  14.365
48415W        W12623  23.007  18.211   3.742
48416W        W12624  36.468  27.107  12.832
48417W        W12625  10.867   5.207  13.809
48418W        W12626  10.160  37.466  10.031
48419W        W12627   3.243  11.254  11.092
48420W        W12628  40.857  31.094   2.866
48421W        W12629  36.024  41.431  10.509
48422W        W12630   5.768  24.068   0.730
48423W        W12631  35.555  13.109  12.384
48424W        W12632  26.994  11.690   2.279
48425W        W12633  38.412   7.344  12.940
48426W        W12634   4.344  37.432   2.323
48427W        W12635  39.023  14.625   4.299
48428W        W12636  26.594  26.138  14.408
48429W        W12637  37.843   8.281  14.429
48430W        W12638   7.802  13.778  13.037
48431W        W12639  26.557  16.750   1.241
48432W        W12640  39.957  31.933   2.193
48433W        W12641  30.040   0.803  10.986
48434W        W12642  25.676  11.809   1.846
48435W        W12643  31.462  11.374   0.307
48436W        W12644  41.535  15.745   4.709
48437W        W12645   6.201  31.916   3.373
48438W        W12646  14.780  38.963   9.988
48439W        W12647   9.681  35.359   1.932
48440W        W12648  15.578  13.278   1.344
48441W        W12649  40.489   0.456   3.201
48442W        W12650  16.290  19.256  14.947
48443W        W12651  34.868  41.482   3.284
48444W        W12652  15.315  15.650   5.186
48445W        W12653  10.240  16.693   0.913
48446W        W12654  18.192   3.348  10.541
48447W        W12655   7.403  17.603   4.836
48448W        W12656   4.840  17.777  12.495
48449W        W12657  19.672  18.191  12.095
48450W        W12658  11.640  22.072   1.357
48451W        W12659   3.901  17.802   1.930
48452W        W12660   3.321  43.421   0.388
48453W        W12661  37.384  17.223   1.811
48454W        W12662   4.232  35.025  13.825
48455W        W12663  11.231   2.724   4.810
48456W        W12664  38.393  44.400  14.450
48457W        W12665  17.588  39.336   4.271
48458W        W12666   7.700  15.233   2.882
48459W        W12667   0.393  38.908  13.491
48460W        W12668   8.839  41.872  12.992
48461W        W12669   6.383   9.316  14.843
48462W        W12670  17.212  34.091  12.894
48463W        W12671  32.990  11.240  13.981
48464W        W12672  12.812  12.155   3.855
48465W        W12673  20.241   0.945  11.483
48466W        W12674  29.638   3.258   3.766
48467W        W12675  12.302  19.596  10.444
48468W        W12676  12.751  11.257   4.211
48469W        W12677  11.132   9.239   1.795
48470W        W12678   7.340  19.144   3.302
48471W        W12679  10.298   3.304   1.248
48472W        W12680   7.790  32.930   0.327
48473W        W12681  40.477   7.853  11.010
48474W        W12682  25.067  30.413   0.358
48475W        W12683  18.081  18.234   3.348
48476W        W12684   6.418  24.666  11.450
48477W        W12685   1.271  24.001  12.957
48478W        W12686   6.254  36.585  12.982
48479W        W12687   4.382  22.168   3.234
48480W        W12688  20.048   7.393   1.797
48481W        W12689  43.003  43.945   0.830
48482W        W12690  44.860   8.344   3.239
48483W        W12691  21.215  23.549  10.465
48484W        W12692  19.055  44.303   2.186
48485W        W12693   3.856   2.252   1.933
48486W        W12694  35.597  11.166  12.419
48487W        W12695  32.965  25.117  11.024
48488W        W12696  33.005  26.146  14.804
48489W        W12697  31.548  30.953  10.525
48490W        W12698  23.132   1.760   5.254
48491W        W12699  21.606   0.375  11.126
48492W        W12700  42.013  40.398  11.608
48493W        W12701  29.159  43.848  10.969
48494W        W12702  40.867  37.883  11.596
48495W        W12703   9.269  21.526  11.427
48496W        W12704  17.789   9.388  11.872
48497W        W12705   4.286   9.662  14.441
48498W        W12706   9.804  43.437   0.319
48499W        W12707   4.832  11.257   3.849
48500W        W12708  29.609  43.853  13.447
48501W        W12709  44.393   7.670  12.540
48502W        W12710  13.284   9.781  11.980
48503W        W12711  19.739  21.070   0.469
48504W        W12712   5.821  10.206  14.998
48505W        W12713  34.543   9.874  14.844
48506W        W12714  37.474  29.478  11.591
48507W        W12715   0.799  23.111  13.910
48508W        W12716  32.909  24.594   4.762
48509W        W12717  15.241  43.871  12.048
48510W        W12718   3.448  40.002  10.467
48511W        W12719  40.331  20.742  10.072
48512W        W12720  16.651   3.914   2.267
48513W        W12721  31.115  16.214  10.982
48514W        W12722  27.012  31.479   2.281
48515W        W12723  16.126  39.873   4.236
48516W        W12724  25.670  13.845   1.210
48517W        W12725  15.214  35.986   1.807
48518W        W12726   8.746  20.752  12.929
48519W        W12727  28.140  44.363  12.832
48520W        W12728  34.383  13.173   3.328
48521W        W12729  17.760  44.996  13.917
48522W        W12730   0.908  35.397  14.835
48523W        W12731  19.647  35.400   3.303
48524W        W12732   5.264   9.740  14.513
48525W        W12733  21.149  15.666   0.308
48526W        W12734   6.187   5.226   0.762
48527W        W12735   6.699  40.823  14.514
48528W        W12736  27.184  27.082  10.550
48529W        W12737   6.800  30.136   3.644
48530W        W12738  24.144  33.403   5.197
48531W        W12739   5.911  39.471   0.349
48532W        W12740  24.543  38.444   1.241
48533W        W12741  21.132   1.819  11.476
48534W        W12742  16.198   7.347   3.668
48535W        W12743  35.566  32.466   0.273
48536W        W12744  32.026  42.783   4.642
48537W        W12745   2.805  23.723  12.841
48538W        W12746  42.913   1.356  12.083
48539W        W12747  42.519  33.531   1.408
48540W        W12748  16.138  29.490  14.338
48541W        W12749  43.319   7.854   4.616
48542W        W12750  23.005  39.337  12.345
48543W        W12751   9.826  29.614   1.800
48544W        W12752  10.777   3.304   2.227
48545W        W12753   4.340  34.084   3.347
48546W        W12754   1.255  40.348   4.159
48547W        W12755  13.316   1.391  14.319
48548W        W12756  16.217  23.165  14.301
48549W        W12757   5.379  12.167   1.223
48550W        W12758   0.892  10.190   1.430
48551W        W12759   9.829  12.120  14.377
48552W        W12760  29.532   1.781  11.013
48553W        W12761  33.946  17.795  11.950
48554W        W12762  25.496   5.904   4.693
48555W        W12763  35.449  10.862   4.623
48556W        W12764  37.058  42.411   0.268
48557W        W12765  13.124   8.885  13.381
48558W        W12766  13.823  18.707  11.993
48559W        W12767   9.183  34.922  11.960
48560W        W12768  11.295  31.500   2.293
48561W        W12769  13.316  35.575  14.341
48562W        W12770  11.179  30.516   0.276
48563W        W12771   0.372  37.874  13.927
48564W        W12772  10.250   8.335  12.976
48565W        W12773  11.718   4.754   0.351
48566W        W12774  23.015   3.269   0.761
48567W        W12775  38.002  22.612   2.212
48568W        W12776  41.313   2.377  12.086
48569W        W12777  41.306  29.150  13.857
48570W        W12778   5.273   6.824  10.893
48571W        W12779  14.122  35.026  13.374
48572W        W12780  25.694  40.361   2.667
48573W        W12781  31.118  33.025  10.554
48574W        W12782  30.530  16.155   0.726
48575W        W12783  20.627  10.307  11.995
48576W        W12784  19.154  40.924   0.955
48577W        W12785  22.080  24.550   4.269
48578W        W12786  14.661  13.251  10.916
48579W        W12787  10.269  38.476  12.963
48580W        W12788  20.714  26.062   2.323
48581W        W12789  25.684  35.006  11.607
48582W        W12790   2.345  18.063   2.802
48583W        W12791   7.189  29.451   3.838
48584W        W12792   8.221  44.784   3.796
48585W        W12793   4.779  15.816   3.648
48586W        W12794  39.460  29.502  10.563
48587W        W12795   6.717  30.526  14.815
48588W        W12796  22.593  16.651   4.140
48589W        W12797  42.014  12.146  12.095
48590W        W12798  38.958  28.524   0.912
48591W        W12799  36.552  24.505   4.791
48592W        W12800  15.245   7.872   0.339
48593W        W12801  18.112  42.810   2.208
48594W        W12802  34.890   8.223   3.743
48595W        W12803  39.815   4.747  10.612
48596W        W12804  36.584  11.360   0.834
48597W        W12805  34.431  41.374  13.482
48598W        W12806  23.196  37.444  10.640
48599W        W12807  24.639   2.249  14.359
48600W        W12808  20.549  36.972   2.311
48601W        W12809  15.259   0.915   4.250
48602W        W12810  43.385  42.485   3.666
48603W        W12811   4.405  17.760   4.732
48604W        W12812  10.368  21.634  11.385
48605W        W12813  35.091  39.008   0.817
48606W        W12814  25.078  17.180   2.748
48607W        W12815  28.679  31.496  10.606
48608W        W12816  37.539  36.545   5.287
48609W        W12817  37.959  33.474  11.942
48610W        W12818  27.606   4.413  14.344
48611W        W12819  16.087  43.492   3.164
48612W        W12820  41.456   4.360   0.443
48613W        W12821   8.216   4.282   2.713
48614W        W12822  38.956  23.527  11.121
48615W        W12823  22.601   9.646  12.877
48616W        W12824  44.832  26.459   4.281
48617W        W12825  12.269  38.562  11.863
48618W        W12826  32.116  16.093  11.470
48619W        W12827  19.755  19.612  14.800
48620W        W12828  15.598   2.786  12.829
48621W        W12829  20.763  15.678   2.205
48622W        W12830  30.138  29.640   0.378
48623W        W12831  10.187  12.220   4.163
48624W        W12832  42.911  33.995   0.789
48625W        W12833   3.217  41.519  10.465
48626W        W12834  35.945  43.868  10.636
48627W        W12835   0.481  37.952   2.822
48628W        W12836  33.428  21.131   5.141
48629W        W12837  33.417  10.160   5.086
48630W        W12838  43.861  30.496  12.831
48631W        W12839  17.249  25.981   3.169
48632W        W12840   7.833  17.221   2.396
48633W        W12841   1.451  22.026   3.321
48634W        W12842  29.123  34.017  10.524
48635W        W12843  38.913   4.915   2.266
48636W        W12844  37.044  23.490  14.401
48637W        W12845   3.771  38.419  13.053
48638W        W12846   9.844  29.958   1.707
48639W        W12847   7.782  17.617   0.433
48640W        W12848  27.004  25.009   3.727
48641W        W12849  12.301  21.039   2.260
48642W        W12850  42.878  38.477  13.503
48643W        W12851  34.519  34.458  14.462
48644W        W12852  41.493   3.229   4.239
48645W        W12853  11.224   8.175  11.443
48646W        W12854  40.330  36.552   4.136
48647W        W12855  23.635  15.128  13.959
48648W        W12856  23.542  43.908  11.896
48649W        W12857  20.227  24.989  10.096
48650W        W12858   7.692  33.944  14.914
48651W        W12859  37.847   6.907  12.389
48652W        W12860  37.987  18.701   3.351
48653W        W12861  11.331  14.314   1.852
48654W        W12862   1.936  37.345   2.785
48655W        W12863  12.621  43.444  11.113
48656W        W12864  27.108  15.741  14.933
48657W        W12865  36.367  44.279   2.791
48658W        W12866  15.699  39.551  14.312
48659W        W12867   4.827  11.677   0.819
48660W        W12868  12.830  22.167  10.539
48661W        W12869  33.441  21.626  14.448
48662W        W12870  35.476  31.477   1.746
48663W        W12871  33.882  38.535   1.328
48664W        W12872  42.427  10.254   2.680
48665W        W12873  38.854   3.778  13.417
48666W        W12874  38.555  29.063   1.845
48667W        W12875  19.245  41.806   0.817
48668W        W12876  41.511  25.104  14.432
48669W        W12877  19.539  37.429  10.022
48670W        W12878  23.491  27.552  13.358
48671W        W12879  28.052  37.083   0.729
48672W        W12880   7.364   7.902  13.449
48673W        W12881   8.214  33.077  13.894
48674W        W12882  39.865  11.860  13.420
48675W        W12883  29.168  29.947  12.849
48676W        W12884  41.458  26.038   1.909
48677W        W12885  25.615  22.204  12.531
48678W        W12886  31.036  34.106   1.399
48679W        W12887  34.080  41.807  11.458
48680W        W12888  37.048  13.696  12.518
48681W        W12889  17.164   5.897   0.836
48682W        W12890  40.040  44.296   4.251
48683W        W12891  13.637  24.116   4.352
48684W        W12892  34.074  24.578  13.421
48685W        W12893  22.527   4.848  10.470
48686W        W12894  17.730  37.891  13.956
48687W        W12895   5.205  42.947   1.435
48688W        W12896   2.727  39.875   1.383
48689W        W12897   2.918   9.822  13.332
48690W        W12898  22.652   6.837  14.981
48691W        W12899  39.439  25.592  14.347
48692W        W12900  16.133  19.085   2.812
48693W        W12901   6.199  32.599   3.630
48694W        W12902  17.596   2.381  11.377
48695W        W12903  44.830   9.305  10.887
48696W        W12904  41.533  44.386  14.763
48697W        W12905  13.771   7.677   4.649
48698W        W12906  15.638  13.105  13.844
48699W        W12907   2.956  36.555   2.867
48700W        W12908  33.120  20.543  10.533
48701W        W12909   6.729   4.729   2.801
48702W        W12910  37.880  16.161  13.062
48703W        W12911   9.870  38.498   1.907
48704W        W12912  42.509  33.935   2.667
48705W        W12913  37.014   4.437  14.280
48706W        W12914  37.951  22.651  12.995
48707W        W12915  37.034  26.527  14.337
48708W        W12916  28.553  23.663  11.466
48709W        W12917  38.543  15.608  13.023
48710W        W12918  22.057  31.101   1.229
48711W        W12919   4.222  18.094  10.942
48712W        W12920   2.873  21.033   3.221
48713W        W12921  13.727  35.519  12.094
48714W        W12922  42.461  28.560  12.579
48715W        W12923   8.318  28.175  13.383
48716W        W12924  34.963  14.193   3.344
48717W        W12925  18.661  41.015   0.966
48718W        W12926   0.981  37.974  13.471
48719W        W12927  34.112  13.105  10.896
48720W        W12928  41.537  26.571  14.424
48721W        W12929  28.101   3.712  14.433
48722W        W12930  12.621  30.148  14.322
48723W        W12931  42.919   6.222   3.632
48724W        W12932   3.311  15.279   0.760
48725W        W12933  28.561   4.899   0.483
48726W        W12934   9.183  10.805   2.375
48727W        W12935  34.530  42.346   0.941
48728W        W12936  18.229  24.685   4.272
48729W        W12937  19.265   7.244   9.476
48730W        W12938   4.423  18.280  10.508
48731W        W12939   4.820  27.019  11.560
48732W        W12940   7.746  42.808   4.162
48733W        W12941  29.145   6.318   1.799
48734W        W12942  33.899  22.648  10.924
48735W        W12943  16.790   4.720   5.168
48736W        W12944  37.432  29.969  11.926
48737W        W12945  42.459  10.152   4.834
48738W        W12946   7.263   6.285   4.656
48739W        W12947  38.863  36.006  14.476
48740W        W12948  28.179   9.173  10.939
48741W        W12949  13.129  13.755  10.934
48742W        W12950  44.399  21.138   1.922
48743W        W12951   4.412  23.648   4.675
48744W        W12952  29.531  34.602   3.310
48745W        W12953  36.053  32.523   1.708
48746W        W12954  19.195  40.547  10.904
48747W        W12955  24.077   8.253  10.573
48748W        W12956  41.836   4.822   2.751
48749W        W12957  14.668  18.597   3.227
48750W        W12958  29.567  29.115  12.018
48751W        W12959   1.775  42.482   3.192
48752W        W12960   6.329  25.549   2.414
48753W        W12961  42.027   5.842   1.348
48754W        W12962   0.922  34.380  11.917
48755W        W12963   3.234  17.572  12.958
48756W        W12964  23.633  14.260   0.860
48757W        W12965  38.962  39.855  12.927
48758W        W12966  16.242  42.820  14.923
48759W        W12967  32.581   4.303   4.723
48760W        W12968  16.642  12.675   4.347
48761W        W12969  30.961  25.031   4.344
48762W        W12970  14.163  43.873   3.839
48763W        W12971  23.621  38.952   2.239
48764W        W12972  35.052  11.329  11.521
48765W        W12973  12.781   8.316  12.969
48766W        W12974  36.031  36.939   0.296
48767W        W12975  21.179  21.202   0.398
48768W        W12976  16.754  39.437   4.317
48769W        W12977  24.994   6.747  14.363
48770W        W12978  20.215  18.128  13.439
48771W        W12979  38.463  30.920  13.045
48772W        W12980  42.809  15.274   3.212
48773W        W12981  26.161  28.045   3.770
48774W        W12982  29.919  27.085  12.477
48775W        W12983  22.021  37.899   0.464
48776W        W12984  25.652   6.786   0.778
48777W        W12985  18.636   0.324   5.105
48778W        W12986  18.146  36.995  13.504
48779W        W12987  38.943  32.098   3.836
48780W        W12988   5.704  10.659   1.832
48781W        W12989  37.545  31.600  13.864
48782W        W12990  32.905  13.234   4.298
48783W        W12991  39.837  23.164   4.629
48784W        W12992  27.061   8.203  14.852
48785W        W12993   3.327  43.370   0.911
48786W        W12994  17.792  33.613   1.236
48787W        W12995  12.146   2.847   4.221
48788W        W12996  25.616  14.281  10.436
48789W        W12997  41.798  35.504  13.796
48790W        W12998   5.882  26.126   4.703
48791W        W12999   1.259   3.956   0.359
48792W        W13000   7.269  36.489   1.436
48793W        W13001  39.902   4.357   1.911
48794W        W13002  37.442  36.056  13.475
48795W        W13003   3.284   8.871   2.721
48796W        W13004  19.761  29.928   2.895
48797W        W13005  41.406  20.659   2.731
48798W        W13006  44.268  35.530  14.887
48799W        W13007  38.987  19.751   1.428
48800W        W13008  36.383   0.775  11.408
48801W        W13009  28.440  19.223   3.386
48802W        W13010   3.876  28.121  14.845
48803W        W13011  27.543  21.164   4.602
48804W        W13012   0.806  14.262   1.850
48805W        W13013   1.292  10.813  11.082
48806W        W13014   4.270  37.445  11.070
48807W        W13015  39.480  41.409  10.623
48808W        W13016  32.477   3.287  11.463
48809W        W13017  23.604  25.168  13.308
48810W        W13018  22.206   5.779   3.302
48811W        W13019  15.087  15.730  10.439
48812W        W13020  40.337  43.511  10.541
48813W        W13021   0.443   5.306  12.864
48814W        W13022  24.148  44.276   1.823
48815W        W13023  34.998  25.500   0.365
48816W        W13024  28.050  41.331   3.684
48817W        W13025  39.532  40.032  11.082
48818W        W13026  35.922   7.809   3.671
48819W        W13027   3.783  17.161  13.386
48820W        W13028  41.363   8.897  13.880
48821W        W13029   0.774  32.984  11.427
48822W        W13030  28.602   4.807  14.026
48823W        W13031   5.825  22.685  13.458
48824W        W13032  13.161   1.901  13.059
48825W        W13033  31.417   9.276  14.405
48826W        W13034  18.081  19.698  13.480
48827W        W13035  15.682  31.997  14.916
48828W        W13036   9.783  24.664   0.299
48829W        W13037  23.642  24.208  10.527
48830W        W13038  26.111   7.374  12.903
48831W        W13039  30.608  21.683  10.961
48832W        W13040  12.833  19.211  12.061
48833W        W13041  19.103  34.098   0.302
48834W        W13042  33.955  22.107   0.460
48835W        W13043  15.102  36.990  10.904
48836W        W13044   0.875  36.943  12.484
48837W        W13045  38.035  28.038   3.632
48838W        W13046  23.230  14.793   1.910
48839W        W13047  30.512  34.595  11.033
48840W        W13048  29.466  36.048   0.331
48841W        W13049  42.291  34.894  14.816
48842W        W13050   2.408  23.173   3.814
48843W        W13051  26.956  41.321  13.356
48844W        W13052  16.639  26.674   4.828
48845W        W13053  38.377  42.452   2.670
48846W        W13054  44.328  31.423   5.777
48847W        W13055  19.778   8.741  13.542
48848W        W13056   3.902  40.382  11.099
48849W        W13057  35.373   7.775   0.817
48850W        W13058  42.007  34.528   0.351
48851W        W13059  17.574  24.185  11.380
48852W        W13060  33.961   3.390   2.259
48853W        W13061  26.633  16.228  13.379
48854W        W13062  14.170  17.559  13.846
48855W        W13063   4.925  42.341  14.431
48856W        W13064  37.946  41.400   0.738
48857W        W13065   7.869  43.490   2.898
48858W        W13066  31.969  30.959  11.392
48859W        W13067  33.061  15.648  13.459
48860W        W13068  13.143  19.214   2.900
48861W        W13069  11.669  15.084  12.882
48862W        W13070  21.160  42.292   0.870
48863W        W13071  38.068  39.542  10.979
48864W        W13072   1.399   0.899  14.803
48865W        W13073  17.275   0.775  13.064
48866W        W13074  34.899   2.298  12.840
48867W        W13075   9.318  16.308   3.782
48868W        W13076  41.986  41.917   2.402
48869W        W13077  41.346   5.238  12.356
48870W        W13078  40.976  35.523   0.736
48871W        W13079  41.036   9.224  11.609
48872W        W13080  11.842   4.436  12.404
48873W        W13081  37.987  14.332   3.731
48874W        W13082  25.655  36.960   1.403
48875W        W13083  38.452   2.472   3.769
48876W        W13084  38.035  24.996  14.951
48877W        W13085  18.746   8.337  12.913
48878W        W13086   8.810  19.729  12.448
48879W        W13087  38.945  33.480  11.962
48880W        W13088  34.016  17.690   0.383
48881W        W13089  35.517  13.138   0.762
48882W        W13090   4.803  11.760   0.294
48883W        W13091  43.409   4.279   0.904
48884W        W13092  19.269   0.480   3.797
48885W        W13093  33.021  27.529  12.538
48886W        W13094  35.085  26.656   5.148
48887W        W13095   0.856  20.036  12.092
48888W        W13096  22.616   7.875  11.908
48889W        W13097  36.882  35.954  11.899
48890W        W13098  37.425  32.972   3.283
48891W        W13099  30.991  42.393  14.891
48892W        W13100  12.186   6.890   2.239
48893W        W13101   5.315  40.533  13.479
48894W        W13102  33.575   4.935   5.101
48895W        W13103  37.363   2.353   0.914
48896W        W13104   5.315  23.663  13.023
48897W        W13105  23.211  42.855   4.615
48898W        W13106  37.038  42.303  13.449
48899W        W13107  10.269   7.241  13.391
48900W        W13108  20.251  13.306  14.335
48901W        W13109  19.744  14.283   0.346
48902W        W13110  28.610  42.803   1.776
48903W        W13111  26.655  40.801   1.351
48904W        W13112   2.352  38.016   2.353
48905W        W13113  12.629  33.600  14.823
48906W        W13114  36.419  27.165   0.834
48907W        W13115  30.914  26.128   2.886
48908W        W13116   9.769  11.811  13.377
48909W        W13117  10.324  34.901   1.297
48910W        W13118  16.282  17.684  11.112
48911W        W13119   0.979   3.741   3.383
48912W        W13120  35.417  17.247  10.405
48913W        W13121  32.607  30.602  11.090
48914W        W13122  15.607  27.191   0.383
48915W        W13123  11.621  33.568   5.128
48916W        W13124   0.344   9.881   2.275
48917W        W13125  10.787  19.056  11.061
48918W        W13126   9.353  12.223  13.814
48919W        W13127   7.216  27.145   4.750
48920W        W13128   1.748  25.621   2.408
48921W        W13129  26.981   2.333   0.735
48922W        W13130  23.053  28.061   4.236
48923W        W13131  34.929  12.333   3.761
48924W        W13132  10.734  42.482  12.491
48925W        W13133  15.739  20.069   1.297
48926W        W13134  42.029  19.243  11.865
48927W        W13135  18.663  13.599  14.282
48928W        W13136  15.321   4.303   2.336
48929W        W13137  16.719   6.396   9.957
48930W        W13138  10.248   9.154  12.530
48931W        W13139  29.986  43.440   1.262
48932W        W13140   4.899  37.502  10.070
48933W        W13141  10.653  30.581   4.304
48934W        W13142  22.702  29.559   0.435
48935W        W13143   5.398  25.038  10.551
48936W        W13144  39.479  32.408  11.414
48937W        W13145  23.723  36.353  10.888
48938W        W13146  41.905  23.180  14.831
48939W        W13147  39.440   8.767  12.453
48940W        W13148  25.009  16.159  13.018
48941W        W13149  20.698  16.085  12.448
48942W        W13150   7.891   0.767   1.245
48943W        W13151  29.427  14.175  12.573
48944W        W13152  24.204  22.655  10.130
48945W        W13153  17.603  23.194   4.273
48946W        W13154   9.674  29.467   3.699
48947W        W13155   1.378   8.697  13.487
48948W        W13156  30.524  15.820   2.890
48949W        W13157   5.769  28.178   3.332
48950W        W13158  17.797   2.812  13.054
48951W        W13159   6.736  28.509   4.682
48952W        W13160  25.696   5.727  14.438
48953W        W13161  19.072   4.260   1.869
48954W        W13162  34.423  42.786  10.983
48955W        W13163  29.160   5.294   2.678
48956W        W13164  15.204  39.393  10.541
48957W        W13165  20.698  15.174   0.962
48958W        W13166  26.998  21.691   4.303
48959W        W13167  37.552  34.533  12.445
48960W        W13168  23.187  19.605  12.931
48961W        W13169  30.489  39.026  11.477
48962W        W13170  12.174  37.536   2.717
48963W        W13171   5.425  13.737   2.225
48964W        W13172  37.360  43.455   0.734
48965W        W13173   3.448  13.180  12.079
48966W        W13174  39.362   1.439   9.503
48967W        W13175  15.304  16.658  14.469
48968W        W13176  35.524  41.787  13.373
48969W        W13177  10.830  35.386  14.784
48970W        W13178  17.223  40.534  14.946
48971W        W13179  24.707   0.848   4.155
48972W        W13180  22.153  41.951  14.288
48973W        W13181   6.790  22.519   1.320
48974W        W13182  32.014  10.341   2.775
48975W        W13183  11.127  30.964  10.489
48976W        W13184   4.448  17.306  10.457
48977W        W13185  22.019  44.825  12.068
48978W        W13186  43.276  31.952  14.781
48979W        W13187  39.886  30.146  14.451
48980W        W13188  34.909  32.913   1.323
48981W        W13189  38.018   5.859  13.835
48982W        W13190  18.719  38.028   0.337
48983W        W13191  21.529   5.800   0.285
48984W        W13192  27.518  20.716  12.572
48985W        W13193   5.354  16.080   4.141
48986W        W13194   5.340  26.053   0.757
48987W        W13195  32.025  24.608  10.915
48988W        W13196  28.101  24.143  10.631
48989W        W13197   6.837  25.587   3.733
48990W        W13198   4.802  17.237   0.798
48991W        W13199  26.066  33.017   1.871
48992W        W13200  10.162  35.574   0.913
48993W        W13201  17.776  28.644  14.877
48994W        W13202  22.185  12.687  13.348
48995W        W13203  27.035  32.123  12.929
48996W        W13204  42.873  33.571   3.786
48997W        W13205  41.792   5.345  14.360
48998W        W13206  14.754  22.651  10.456
48999W        W13207   7.319  41.974   3.286
49000W        W13208   3.773   4.331  12.986
49001W        W13209   8.314   8.662  12.348
49002W        W13210  37.043   2.819   1.319
49003W        W13211  25.048  38.899   2.857
49004W        W13212   2.795   6.891   2.792
49005W        W13213  42.977  37.436   2.802
49006W        W13214   0.265  35.083  14.457
49007W        W13215  13.749   5.921   3.692
49008W        W13216  32.014  44.357   3.741
49009W        W13217  36.993  32.600   3.694
49010W        W13218   9.290   5.340  10.522
49011W        W13219   5.771   2.910   0.446
49012W        W13220  16.645  18.569  13.397
49013W        W13221   4.875  43.448  12.939
49014W        W13222  23.206  24.980   0.866
49015W        W13223  35.935  13.242  11.579
49016W        W13224  26.462  28.505   4.599
49017W        W13225   6.206  37.450  11.594
49018W        W13226  44.787   1.346  12.884
49019W        W13227   1.322  10.801  13.498
49020W        W13228  29.664  11.146  12.922
49021W        W13229  44.440  22.087  12.540
49022W        W13230  23.050  30.506   1.341
49023W        W13231  40.848  25.136  13.837
49024W        W13232  15.600  31.456   3.365
49025W        W13233  20.078   6.825  14.952
49026W        W13234  16.201  25.558  11.982
49027W        W13235  14.590  13.793   1.719
49028W        W13236  39.984  27.546  13.507
49029W        W13237  34.417  27.167  11.968
49030W        W13238  12.841  42.525  14.373
49031W        W13239   0.781  43.493   3.367
49032W        W13240  29.656  20.742   2.827
49033W        W13241  35.927  41.484   0.334
49034W        W13242   0.298  22.594   1.813
49035W        W13243  37.478   9.364  13.431
49036W        W13244  42.303  17.289   2.876
49037W        W13245  22.061  37.457   2.236
49038W        W13246  16.269  19.273  14.341
49039W        W13247  21.533  14.176  14.871
49040W        W13248  31.606  40.309  11.608
49041W        W13249   9.159   4.893   4.116
49042W        W13250   4.265   7.758   1.867
49043W        W13251  17.655  31.050   4.344
49044W        W13252  27.013  11.185   4.245
49045W        W13253  20.223   8.877   5.126
49046W        W13254   5.294  24.536  12.921
49047W        W13255   3.353  29.570  14.952
49048W        W13256   7.174  30.986   3.838
49049W        W13257  18.219  11.191  12.844
49050W        W13258  14.604  44.776  14.952
49051W        W13259  32.560  36.951   0.352
49052W        W13260   9.808   8.812   4.796
49053W        W13261   7.291  27.460   0.878
49054W        W13262  30.118  13.739   3.238
49055W        W13263   1.282  30.588  14.307
49056W        W13264  27.599  24.517  14.895
49057W        W13265   6.228  43.405   4.823
49058W        W13266  12.144  29.078  13.400
49059W        W13267  37.988  10.143  11.912
49060W        W13268   3.848  42.407   2.729
49061W        W13269  31.648   5.837   1.823
49062W        W13270  21.140  16.191  13.946
49063W        W13271  21.109  43.812  11.088
49064W        W13272  13.715   5.735   3.349
49065W        W13273  40.038  24.989   3.817
49066W        W13274  38.354   2.226   4.613
49067W        W13275   5.757   8.224  12.466
49068W        W13276  34.549   4.400  11.052
49069W        W13277  39.460  16.257  11.522
49070W        W13278  42.818  22.517  14.507
49071W        W13279  22.713  26.484  10.001
49072W        W13280   7.887  39.501   0.798
49073W        W13281  42.980  39.490   3.247
49074W        W13282   9.757  16.696  10.556
49075W        W13283  38.830   4.860   0.753
49076W        W13284  28.077  42.908  13.500
49077W        W13285  11.272  22.513  14.447
49078W        W13286  10.760  40.803  13.432
49079W        W13287  41.027   6.728  14.885
49080W        W13288  36.457  32.635  14.479
49081W        W13289   3.221  22.224   4.230
49082W        W13290  43.011   6.920  10.512
49083W        W13291   8.394  10.371  14.463
49084W        W13292  35.968  12.659   2.402
49085W        W13293  42.342  33.440  14.908
49086W        W13294  39.413  42.980   1.871
49087W        W13295  13.128  30.490  11.514
49088W        W13296  17.221   7.214   4.214
49089W        W13297  21.518  19.699  11.393
49090W        W13298  10.764  34.530   1.778
49091W        W13299  15.124  30.618  13.829
49092W        W13300   9.667  33.128  10.942
49093W        W13301  27.498  44.498  10.149
49094W        W13302  18.252  31.623  14.512
49095W        W13303   8.656  22.575   0.421
49096W        W13304  35.884  11.815  10.614
49097W        W13305  28.575  10.686  10.908
49098W        W13306  42.478  20.543  11.042
49099W        W13307  44.274  15.324  10.602
49100W        W13308  17.163  29.090   0.877
49101W        W13309  42.003  24.020  14.942
49102W        W13310  13.339  19.617  12.560
49103W        W13311  28.474  11.836  12.463
49104W        W13312  42.302  28.450   3.803
49105W        W13313  34.957  33.625   0.461
49106W        W13314   0.818   2.414   1.832
49107W        W13315  27.538   9.662  14.406
49108W        W13316  32.618  14.715   4.114
49109W        W13317  28.653  10.729  13.006
49110W        W13318  22.658  29.007  14.414
49111W        W13319  35.070   5.345   3.788
49112W        W13320  14.294  14.305   1.321
49113W        W13321  37.367  32.936  13.338
49114W        W13322  33.990  19.253   0.341
49115W        W13323  33.879  13.338   2.712
49116W        W13324  34.444  38.904   3.184
49117W        W13325  14.306  40.478  13.974
49118W        W13326  20.592   7.727  12.541
49119W        W13327  34.553   2.270   3.201
49120W        W13328   2.375   8.879  10.645
49121W        W13329  19.219  42.825  13.928
49122W        W13330  10.779  31.603  11.469
49123W        W13331  25.000   8.827   0.314
49124W        W13332   8.798  24.539  13.518
49125W        W13333  12.822  14.178  14.811
49126W        W13334  43.003   2.243  11.422
49127W        W13335  22.645  31.960   1.397
49128W        W13336  35.519   0.463  11.402
49129W        W13337  17.701  42.860   2.847
49130W        W13338  35.402  13.749  14.359
49131W        W13339  40.834  18.639   0.267
49132W        W13340  36.034  32.433   2.182
49133W        W13341  39.517  11.153   2.324
49134W        W13342  25.969  14.131  11.959
49135W        W13343  14.235  10.206   1.363
49136W        W13344  14.616  42.903  11.110
49137W        W13345  14.611   4.854   4.260
49138W        W13346  33.118  20.529  11.118
49139W        W13347  35.873  32.056   2.288
49140W        W13348  10.757  37.039   2.309
49141W        W13349  31.645  31.584   3.755
49142W        W13350  31.437  19.730  13.401
49143W        W13351  28.120  15.211  10.465
49144W        W13352   9.852   5.828   4.344
49145W        W13353   1.394   9.148  14.030
49146W        W13354  30.101  38.016   1.396
49147W        W13355  42.930  44.762  14.328
49148W        W13356  11.752  38.537   0.884
49149W        W13357   6.222   8.274  12.091
49150W        W13358  23.588   2.275   3.696
49151W        W13359  11.634  17.301  11.977
49152W        W13360  41.970   8.315  14.371
49153W        W13361  42.027  34.423   4.288
49154W        W13362  27.474   6.398   1.725
49155W        W13363  22.120   6.298   3.370
49156W        W13364  17.634  26.461   3.227
49157W        W13365  14.198  32.440  10.454
49158W        W13366  13.274  29.539  10.899
49159W        W13367  42.859  36.544   2.344
49160W        W13368  20.053  26.613   3.310
49161W        W13369  29.620  12.784   3.311
49162W        W13370  27.074  29.071   2.267
49163W        W13371   9.318  36.563   4.158
49164W        W13372  38.994  28.942  13.015
49165W        W13373  28.563  12.346  10.955
49166W        W13374  43.785  13.283  14.909
49167W        W13375  40.862  31.566  13.533
49168W        W13376   7.394  40.876   4.210
49169W        W13377  34.041   4.887  13.974
49170W        W13378  21.710  41.960  10.952
49171W        W13379  10.290  39.878   0.854
49172W        W13380  43.307  16.678  13.417
49173W        W13381  13.705  31.419   0.333
49174W        W13382  28.497  37.932  13.813
49175W        W13383  41.800  43.400  13.355
49176W        W13384  31.093  10.824   3.188
49177W        W13385  20.081  39.357   2.803
49178W        W13386  29.947  33.429  10.600
49179W        W13387  26.180   2.736  13.420
49180W        W13388   6.196  44.412  12.008
49181W        W13389  16.783  25.482  14.819
49182W        W13390  20.093  41.526  10.536
49183W        W13391  27.973   2.251  10.958
49184W        W13392   6.803  14.177   4.211
49185W        W13393   4.307  16.078  13.341
49186W        W13394  18.604   2.311  14.760
49187W        W13395  26.692  39.517  11.971
49188W        W13396  35.861  13.162   3.691
49189W        W13397  33.619  42.523  14.948
49190W        W13398   5.888  43.497   2.728
49191W        W13399  44.298  14.236  12.990
49192W        W13400   1.441   5.251  12.374
49193W        W13401  33.426  36.387   4.634
49194W        W13402   7.187   5.286   4.641
49195W        W13403  37.513  40.528  11.922
49196W        W13404  30.591  42.848   1.415
49197W        W13405  39.039  11.701   0.471
49198W        W13406  27.638   3.726  14.789
49199W        W13407  40.330   4.305   2.353
49200W        W13408  25.584  30.125  13.411
49201W        W13409  37.369   5.801  11.592
49202W        W13410  21.529  29.975  11.910
49203W        W13411  28.129  38.444  12.027
49204W        W13412  42.894  42.813   4.301
49205W        W13413   7.358  18.279   4.647
49206W        W13414   3.864  25.216  12.390
49207W        W13415  19.780  24.218   4.794
49208W        W13416  26.482  35.417  12.407
49209W        W13417  26.507  42.795   0.930
49210W        W13418  23.582  31.927  14.321
49211W        W13419  33.953   8.320   3.352
49212W        W13420  41.405  25.136  12.870
49213W        W13421   9.217  19.219   2.896
49214W        W13422  29.061   5.856  12.908
49215W        W13423  24.016  14.297   1.728
49216W        W13424  15.706   8.664  13.032
49217W        W13425  36.498  29.578   1.768
49218W        W13426  38.365  29.643  10.556
49219W        W13427  41.506   7.844  14.321
49220W        W13428  20.131  25.651   1.253
49221W        W13429  10.172   7.675   4.313
49222W        W13430   5.279  35.931   4.137
49223W        W13431  11.181   9.250  14.401
49224W        W13432   7.247   4.223   0.807
49225W        W13433  42.932  32.401   2.883
49226W        W13434  32.112   4.898  10.602
49227W        W13435   8.899  16.657  11.403
49228W        W13436   4.840  37.009   2.896
49229W        W13437  36.065  24.543   3.249
49230W        W13438  16.802  44.794   4.118
49231W        W13439  35.525  38.461  10.420
49232W        W13440   1.320  32.577  14.824
49233W        W13441  12.641   6.427   1.220
49234W        W13442  37.457   4.871   4.663
49235W        W13443  18.688  34.486  14.415
49236W        W13444  10.340   6.779  13.459
49237W        W13445   7.869   3.757   3.721
49238W        W13446  44.759  42.803   9.947
49239W        W13447   4.919   6.743   2.259
49240W        W13448  40.448   9.268  12.083
49241W        W13449  33.099  31.997  12.933
49242W        W13450   1.765   3.857  11.040
49243W        W13451  35.044  42.502   1.427
49244W        W13452  10.313  26.590  12.967
49245W        W13453  18.170  20.650  12.858
49246W        W13454  37.957  22.120  12.987
49247W        W13455  39.040  39.958  13.894
49248W        W13456  28.534  29.075  10.425
49249W        W13457   3.426  11.791   0.324
49250W        W13458   8.190  43.274   4.245
49251W        W13459  17.111  21.546   2.843
49252W        W13460  29.597   9.349  12.872
49253W        W13461  15.156  17.278  14.833
49254W        W13462   8.868  39.027   3.331
49255W        W13463   6.311  42.870  10.959
49256W        W13464   4.870  41.029  12.385
49257W        W13465  42.451  12.355  14.355
49258W        W13466  36.440  43.899  13.047
49259W        W13467  36.089   3.275   2.347
49260W        W13468  44.883  39.877   1.821
49261W        W13469  39.387  11.816  14.778
49262W        W13470  22.123  10.834   3.782
49263W        W13471   8.796  26.496  11.507
49264W        W13472   9.705  29.468   0.259
49265W        W13473  38.038  31.427   3.684
49266W        W13474  41.501  35.504   3.223
49267W        W13475  20.647  32.578  11.104
49268W        W13476  27.098  11.248  13.988
49269W        W13477  28.531   9.651   4.127
49270W        W13478  36.066  41.802  11.078
49271W        W13479  10.657  23.135  11.109
49272W        W13480  39.498  41.431  11.976
49273W        W13481  29.068  27.105  10.493
49274W        W13482   4.362  30.570   2.877
49275W        W13483   1.329  33.614  14.444
49276W        W13484   4.331  22.721   1.372
49277W        W13485   1.412  40.389   0.413
49278W        W13486   4.781  37.458   1.912
49279W        W13487   4.290  22.208  10.925
49280W        W13488  30.636  13.769  12.522
49281W        W13489  37.412   9.874   2.878
49282W        W13490   0.293   5.697   3.355
49283W        W13491   5.246   5.436   3.823
49284W        W13492  30.659  27.997   2.201
49285W        W13493   6.304  31.148   2.854
49286W        W13494  15.623   0.793   2.401
49287W        W13495  16.658  35.960  10.015
49288W        W13496  12.158  21.600   1.450
49289W        W13497  29.032  13.116  13.320
49290W        W13498  33.877   1.976  14.468
49291W        W13499  22.525  29.567   2.777
49292W        W13500   7.307  39.956   4.335
49293W        W13501  26.468  11.861  13.814
49294W        W13502  40.826  25.514  13.912
49295W        W13503   0.766  19.260   3.694
49296W        W13504  44.768  15.083   1.314
49297W        W13505  40.362  19.084  13.913
49298W        W13506  44.473   9.748   1.391
49299W        W13507  23.610  34.967   3.852
49300W        W13508   7.903  34.552   3.687
49301W        W13509  41.449   8.697  11.579
49302W        W13510  42.362  22.013   0.950
49303W        W13511  10.374   2.866   2.247
49304W        W13512  23.531  22.114  14.333
49305W        W13513  20.695   9.777   2.725
49306W        W13514  24.680  41.403   3.651
49307W        W13515  33.503  11.759  13.041
49308W        W13516   1.302  36.508  13.380
49309W        W13517  35.881  39.433   2.318
49310W        W13518  35.882   3.291   1.368
49311W        W13519   4.348  31.006   3.662
49312W        W13520  16.184   0.966   3.695
49313W        W13521   4.815   8.276  11.496
49314W        W13522  32.016  18.143  14.022
49315W        W13523  39.501  25.018   1.824
49316W        W13524   4.293  31.001  13.477
49317W        W13525  44.970  25.126  12.046
49318W        W13526  20.550  19.646  13.328
49319W        W13527   4.328  43.931  10.983
49320W        W13528  24.151   9.278   3.779
49321W        W13529  20.237  11.352  11.019
49322W        W13530  23.596  29.020  13.538
49323W        W13531  29.140  42.925   2.715
49324W        W13532  31.477  41.380   2.224
49325W        W13533  14.753   5.784   2.823
49326W        W13534  30.153   1.441   1.890
49327W        W13535   5.854  19.115   2.240
49328W        W13536  17.280  13.600  12.922
49329W        W13537  22.174  27.503  14.450
49330W        W13538  44.337  30.925   1.400
49331W        W13539   1.890  33.494  11.391
49332W        W13540  21.147  33.574   5.170
49333W        W13541   4.701   4.854  11.048
49334W        W13542  33.050   4.933   1.832
49335W        W13543   3.401  23.159  12.401
49336W        W13544  37.454   4.866   4.133
49337W        W13545   0.815  23.152  12.528
49338W        W13546   8.708   7.204   2.337
49339W        W13547  24.106  33.899  11.051
49340W        W13548  44.336  43.976  12.516
49341W        W13549  31.981   6.352   3.760
49342W        W13550  24.066  27.618   2.750
49343W        W13551  43.285   8.266  12.978
49344W        W13552  21.682   1.386   4.808
49345W        W13553  37.395  17.126  11.468
49346W        W13554  21.190  28.618  14.861
49347W        W13555  38.519  42.903  10.954
49348W        W13556  20.583  38.389  13.513
49349W        W13557  32.003   7.873   2.744
49350W        W13558  30.030  18.288  11.910
49351W        W13559  44.285  31.609   3.676
49352W        W13560  25.117  27.070  13.356
49353W        W13561   0.941  10.142   3.757
49354W        W13562  14.654  25.058   1.806
49355W        W13563   2.466  39.400   4.237
49356W        W13564  39.884  17.137   2.853
49357W        W13565  22.537  30.653  13.007
49358W        W13566  24.608  26.200  11.590
49359W        W13567   1.435   5.899   3.212
49360W        W13568  36.479  13.240  14.005
49361W        W13569  29.494  20.202   1.802
49362W        W13570  15.767  40.046   5.180
49363W        W13571  20.714  27.686   3.352
49364W        W13572  27.022   3.746  14.954
49365W        W13573  37.464  43.838   1.284
49366W        W13574  26.700  40.521   1.799
49367W        W13575   8.356  25.711   4.309
49368W        W13576  29.173  26.055  13.385
49369W        W13577  19.637  28.544   3.157
49370W        W13578  10.142  36.387  14.022
49371W        W13579  19.747   9.786   2.234
49372W        W13580  40.413  24.010   0.776
49373W        W13581  40.024  32.637  10.475
49374W        W13582   6.796  36.843   2.303
49375W        W13583  18.059   4.907   0.964
49376W        W13584  38.558  23.654   0.312
49377W        W13585   2.946  27.454  11.371
49378W        W13586  25.047   3.393  10.622
49379W        W13587   5.911  34.004  12.054
49380W        W13588  37.445  33.460   0.924
49381W        W13589   3.337  24.621   1.894
49382W        W13590  42.361  13.279  11.870
49383W        W13591  27.519   2.270   0.743
49384W        W13592   1.897  19.064  12.094
49385W        W13593   0.480  43.909   4.345
49386W        W13594  17.080  32.935   9.923
49387W        W13595   3.930  29.052  12.346
49388W        W13596   4.856   7.216  12.527
49389W        W13597   8.171  13.808   0.750
49390W        W13598  44.925  17.266  13.430
49391W        W13599  38.969   5.812  13.911
49392W        W13600   4.773  30.490   1.807
49393W        W13601  32.557  41.460  10.504
49394W        W13602  29.148  40.853   0.914
49395W        W13603   8.845   5.698  10.920
49396W        W13604  34.046  11.647   2.677
49397W        W13605  13.207  27.564   2.194
49398W        W13606  27.047   4.426   4.827
49399W        W13607  30.613  19.257   1.812
49400W        W13608  21.191  14.150  13.906
49401W        W13609  21.713  10.798   3.748
49402W        W13610   9.858  26.168  14.302
49403W        W13611  12.124   6.378  12.531
49404W        W13612  32.002  35.856   3.653
49405W        W13613  33.080  22.147  11.067
49406W        W13614  40.316  25.512   3.668
49407W        W13615  39.876   7.296  13.026
49408W        W13616  43.801   6.710   2.730
49409W        W13617  15.596  43.923  11.601
49410W        W13618  23.215  34.498  11.514
49411W        W13619  21.622  40.538   1.387
49412W        W13620   9.389  15.093  11.907
49413W        W13621  17.181  38.530  14.958
49414W        W13622  11.209  18.199  10.423
49415W        W13623  32.000  28.081  11.458
49416W        W13624  18.242  20.616   1.375
49417W        W13625   3.940  38.520   4.113
49418W        W13626   9.676  12.286   2.217
49419W        W13627  22.017   3.411   2.856
49420W        W13628  28.570  12.253   4.242
49421W        W13629  41.961  29.122  14.286
49422W        W13630  15.196  30.061  11.960
49423W        W13631  22.536  28.552  13.502
49424W        W13632  11.830  39.438   3.269
49425W        W13633  42.972  32.605   4.686
49426W        W13634  26.574  34.594   0.890
49427W        W13635  40.905  31.610   2.817
49428W        W13636  36.841  17.690  10.502
49429W        W13637  37.504  19.654   4.643
49430W        W13638  30.958  22.505  13.384
49431W        W13639  26.490   1.386   0.868
49432W        W13640  33.081  20.176   2.183
49433W        W13641  41.032  32.469   0.779
49434W        W13642  38.957  36.377  13.416
49435W        W13643  16.642  13.731   3.728
49436W        W13644  34.416  27.582   1.281
49437W        W13645  29.669  13.673  14.389
49438W        W13646  10.158  37.896   4.699
49439W        W13647  22.130  35.934  14.287
49440W        W13648  24.130  43.987  10.893
49441W        W13649  20.619  10.731   1.858
49442W        W13650  12.610  35.990   3.178
49443W        W13651  33.040  28.484   3.739
49444W        W13652  21.207  29.667   2.738
49445W        W13653   3.352  33.594   0.265
49446W        W13654   4.421  12.257   3.734
49447W        W13655  23.583  11.736   1.734
49448W        W13656   4.376  32.058   1.799
49449W        W13657  36.913   2.467   0.353
49450W        W13658   4.306  17.195  11.945
49451W        W13659  11.270  38.416   3.671
49452W        W13660   5.265  11.653   1.411
49453W        W13661  28.071  42.030   1.729
49454W        W13662  14.617  37.948   1.285
49455W        W13663  42.373  26.113  10.928
49456W        W13664  24.681  15.796  13.528
49457W        W13665  36.436  10.147   0.829
49458W        W13666  11.256   5.289   3.332
49459W        W13667  15.318  12.337  10.505
49460W        W13668  18.733   7.310   5.101
49461W        W13669  14.176  40.469   2.854
49462W        W13670   0.473  13.611   0.888
49463W        W13671  25.012  16.783  14.504
49464W        W13672  12.793   3.336   0.952
49465W        W13673  33.919  40.861   3.281
49466W        W13674  30.937   7.350  11.494
49467W        W13675  15.663  26.990  11.553
49468W        W13676  35.887  23.045   2.677
49469W        W13677  22.737   4.724   4.338
49470W        W13678   0.374  43.932  10.938
49471W        W13679  39.873  11.731  13.946
49472W        W13680  26.561  40.943   4.218
49473W        W13681  17.645  27.515  12.571
49474W        W13682  20.688   3.903   0.286
49475W        W13683  32.546   0.885   0.314
49476W        W13684  21.556  36.068   0.944
49477W        W13685  42.775   3.370  12.970
49478W        W13686  31.480  34.470  10.413
49479W        W13687  32.616   5.712  13.819
49480W        W13688  28.055  19.155  11.101
49481W        W13689  22.017  14.605   1.832
49482W        W13690  36.547  28.181   0.349
49483W        W13691  42.961  38.924   4.347
49484W        W13692  31.102   0.860  13.975
49485W        W13693   3.893  14.827  12.547
49486W        W13694  31.540   7.177  12.568
49487W        W13695   7.373  28.483  10.552
49488W        W13696  41.504  10.229  12.079
49489W        W13697  37.391  19.096  13.424
49490W        W13698  43.017  42.508  11.527
49491W        W13699  27.561  25.068   0.769
49492W        W13700  39.333  25.072   0.959
49493W        W13701  29.554  27.143   3.174
49494W        W13702  41.933  32.540   2.901
49495W        W13703  21.025  25.565   1.871
49496W        W13704   1.449  36.864   0.831
49497W        W13705   1.247   2.833  11.505
49498W        W13706  15.316  20.638  14.838
49499W        W13707  34.463  44.449  11.891
49500W        W13708   5.205  17.674   0.309
49501W        W13709   8.326  33.996  14.479
49502W        W13710  22.588  10.257   2.215
49503W        W13711   0.442   9.860  10.952
49504W        W13712  35.459  12.151  12.391
49505W        W13713  13.118   5.784  12.914
49506W        W13714  31.066  36.853   0.928
49507W        W13715  19.091   5.393  10.045
49508W        W13716   7.743  42.985   0.409
49509W        W13717  22.506  37.450   1.400
49510W        W13718  24.152  37.354  14.810
49511W        W13719  43.978  18.234   2.191
49512W        W13720  37.848   2.350  12.440
49513W        W13721  32.943  29.513   2.879
49514W        W13722  19.280  15.724   1.790
49515W        W13723  13.727   3.255  14.362
49516W        W13724  10.729  32.397  12.420
49517W        W13725  20.050  28.019  11.542
49518W        W13726  43.469  40.846   2.204
49519W        W13727   3.270  10.747  11.421
49520W        W13728  30.511  18.771   9.971
49521W        W13729  44.825  40.352  12.002
49522W        W13730  32.093  30.113   4.315
49523W        W13731  30.573  12.242   3.717
49524W        W13732  36.915   5.933   2.787
49525W        W13733   6.381  20.104  11.097
49526W        W13734   3.812  14.743   3.798
49527W        W13735  22.127  15.593  13.329
49528W        W13736  44.973  27.558   9.569
49529W        W13737   8.759  34.874  11.004
49530W        W13738  10.756  11.815  14.840
49531W        W13739  14.165  36.380  12.920
49532W        W13740  21.072  36.458  11.571
49533W        W13741   6.768  30.486   1.700
49534W        W13742  43.922   9.653  11.048
49535W        W13743   6.390  36.984  14.469
49536W        W13744   2.306   4.392   4.816
49537W        W13745  20.737   9.320  10.075
49538W        W13746  37.988  24.581  12.460
49539W        W13747  32.056  22.205   0.864
49540W        W13748   3.955   3.877   3.773
49541W        W13749  38.831  27.587   4.746
49542W        W13750  32.065  10.804   5.250
49543W        W13751   3.802  33.528   3.236
49544W        W13752  32.934  44.878   3.199
49545W        W13753   1.878  13.307   3.723
49546W        W13754   4.443  40.531  12.575
49547W        W13755  30.443  17.750   0.483
49548W        W13756  39.985  31.071  14.951
49549W        W13757   0.794  18.712   2.711
49550W        W13758  39.029   4.813   3.372
49551W        W13759  13.700  15.591  14.998
49552W        W13760  15.635  19.240  11.612
49553W        W13761  10.861  34.083   4.294
49554W        W13762  38.969   2.913   3.325
49555W        W13763   6.303   0.283   2.301
49556W        W13764  12.171  41.439   2.822
49557W        W13765  41.005  23.547   3.652
49558W        W13766  37.499  34.985   4.748
49559W        W13767  11.245  39.338   4.325
49560W        W13768  31.570  17.600   4.737
49561W        W13769  44.405   6.380  12.553
49562W        W13770  29.131   8.689  14.337
49563W        W13771  43.769  13.105  12.900
49564W        W13772   0.968   8.716   0.744
49565W        W13773  41.043  21.104  13.007
49566W        W13774  41.003  43.881  11.108
49567W        W13775   5.733  30.576   3.353
49568W        W13776  14.612  31.075  11.053
49569W        W13777  16.155  14.314   1.842
49570W        W13778  14.177  24.534   4.174
49571W        W13779  43.509   4.716   2.343
49572W        W13780   9.224  25.104  12.519
49573W        W13781  25.104  27.644   2.239
49574W        W13782  44.891   6.211  13.865
49575W        W13783  34.401  18.635  11.561
49576W        W13784  40.430   0.282  12.416
49577W        W13785  24.070  36.507  14.860
49578W        W13786  28.618  33.583   1.349
49579W        W13787   7.803   4.399  10.896
49580W        W13788   6.209  15.785  14.802
49581W        W13789  42.830  20.730  12.843
49582W        W13790  38.499  21.156  10.565
49583W        W13791  26.124  42.029   4.196
49584W        W13792  27.531  25.170   3.314
49585W        W13793   5.846   4.870  10.539
49586W        W13794  42.915  13.220  10.426
49587W        W13795  23.078  15.214   4.780
49588W        W13796  36.000   6.919  11.420
49589W        W13797  10.800   4.246   1.231
49590W        W13798   8.660  20.261   5.154
49591W        W13799   0.855  29.053   2.721
49592W        W13800  44.820  30.596  11.573
49593W        W13801  19.181  14.102   2.824
49594W        W13802  29.991  34.019   0.268
49595W        W13803  41.930  35.491   0.253
49596W        W13804  42.302  38.564   3.266
49597W        W13805   6.423   4.929   0.867
49598W        W13806  40.355  28.089   2.230
49599W        W13807  26.201  27.463   4.207
49600W        W13808  31.541  33.035   4.161
49601W        W13809  23.499  14.275  10.529
49602W        W13810  12.668  27.152  10.902
49603W        W13811  36.876  10.303   9.975
49604W        W13812  14.814  33.525   2.722
49605W        W13813  43.995  38.847  12.475
49606W        W13814  26.043  30.909  11.085
49607W        W13815  38.992   8.250   4.118
49608W        W13816  24.026  37.370  14.315
49609W        W13817  19.689  16.665   4.265
49610W        W13818  21.556  15.594   1.329
49611W        W13819   4.264  40.520  12.979
49612W        W13820  41.392  40.815  14.329
49613W        W13821  33.890  27.673   4.653
49614W        W13822  15.181   2.759   2.400
49615W        W13823   7.235   9.849   1.241
49616W        W13824   4.364   1.460   4.303
49617W        W13825  15.822  24.109   5.145
49618W        W13826  19.265  37.338   2.178
49619W        W13827  17.581  19.663   1.430
49620W        W13828  29.065  29.143  14.806
49621W        W13829  37.569   8.348  13.005
49622W        W13830  21.037  30.421   4.141
49623W        W13831  43.013  29.995   2.837
49624W        W13832  36.401  39.536  11.424
49625W        W13833  25.581  33.007  14.947
49626W        W13834  13.299  22.677  12.398
49627W        W13835   0.442  38.548  13.899
49628W        W13836   8.767  44.853   3.231
49629W        W13837  21.606  30.613  14.391
49630W        W13838  19.710  37.904  13.806
49631W        W13839  36.529  41.321   2.662
49632W        W13840   5.394   7.399   1.824
49633W        W13841  42.933   1.763   1.356
49634W        W13842  43.938   5.369  11.078
49635W        W13843   4.386  29.618   0.311
49636W        W13844   9.258  32.114   4.277
49637W        W13845  26.587   8.750   3.717
49638W        W13846   9.185  23.730  14.765
49639W        W13847  24.481  25.982   3.293
49640W        W13848  21.168  40.543  12.092
49641W        W13849  10.801  15.233  14.006
49642W        W13850  34.498  31.916  10.625
49643W        W13851   6.196  36.090  10.115
49644W        W13852  24.193  31.491  11.908
49645W        W13853  31.594  13.805   1.263
49646W        W13854  17.103  41.874   4.673
49647W        W13855  25.083  26.654   3.194
49648W        W13856  29.161  42.005   0.883
49649W        W13857  28.057   1.301   3.657
49650W        W13858   6.419   0.477   2.816
49651W        W13859  10.688  24.623   3.790
49652W        W13860  43.917  39.011  11.073
49653W        W13861   3.775  28.941  11.537
49654W        W13862  23.095   7.846   3.195
49655W        W13863  15.784  30.440   2.387
49656W        W13864  40.336  19.538   3.149
49657W        W13865  18.617  20.560  10.535
49658W        W13866   4.311   0.473   4.701
49659W        W13867  24.087   0.877   2.198
49660W        W13868  40.798  20.601  12.380
49661W        W13869   9.762  21.249   3.784
49662W        W13870  30.622   4.276  10.603
49663W        W13871  11.348   8.745   1.378
49664W        W13872  18.178   2.962  10.476
49665W        W13873  13.817  31.531   1.307
49666W        W13874   8.208  35.366  12.483
49667W        W13875  39.873   2.461   0.468
49668W        W13876  39.915  10.713  12.015
49669W        W13877   8.337   7.830  10.519
49670W        W13878  12.672  30.069  12.059
49671W        W13879  26.622  10.149   4.705
49672W        W13880  37.434  38.836  12.045
49673W        W13881  32.906  31.122   1.867
49674W        W13882   3.729  34.041  14.771
49675W        W13883  39.022  16.244  13.523
49676W        W13884  38.327  12.826   1.282
49677W        W13885  20.576  42.866  14.784
49678W        W13886   7.875  39.942  11.454
49679W        W13887  26.558   9.174   3.220
49680W        W13888  39.355  18.161  11.485
49681W        W13889   7.391  13.318   0.872
49682W        W13890  12.224  19.685  13.799
49683W        W13891  14.774  12.834   2.397
49684W        W13892  27.475  14.761   5.607
49685W        W13893  18.567  15.810  13.030
49686W        W13894  24.223  36.564  13.036
49687W        W13895   3.937  11.798  14.914
49688W        W13896   1.815   2.895  11.911
49689W        W13897   8.229  23.550   3.819
49690W        W13898  21.042   6.216  11.528
49691W        W13899   7.254   2.799   2.252
49692W        W13900  22.676  29.132   0.261
49693W        W13901  10.215  14.693   5.308
49694W        W13902   9.177  15.772   0.470
49695W        W13903  31.628  22.232  14.788
49696W        W13904   9.844   4.346   3.791
49697W        W13905  23.016  33.504  13.315
49698W        W13906  16.803   4.719   0.800
49699W        W13907  31.153  30.105   4.808
49700W        W13908  34.500  29.968  12.523
49701W        W13909  13.844  21.106   1.223
49702W        W13910  37.886  29.021   2.244
49703W        W13911  39.865  36.078  14.275
49704W        W13912  40.423  39.027  12.353
49705W        W13913  39.006   1.775   0.331
49706W        W13914  15.187  11.847  12.375
49707W        W13915  11.308   3.260  14.439
49708W        W13916  12.742  24.562   2.866
49709W        W13917  37.581  33.440   2.246
49710W        W13918  18.244   5.786  14.981
49711W        W13919  24.493  22.528   0.297
49712W        W13920   6.387   5.220  14.348
49713W        W13921  13.840  44.467  12.993
49714W        W13922   5.233  38.366  12.552
49715W        W13923  30.971  40.363   4.798
49716W        W13924  42.834   2.964  13.494
49717W        W13925  24.060  19.278   3.220
49718W        W13926  43.496  13.703   3.256
49719W        W13927   6.879  28.008   0.960
49720W        W13928  25.617  36.997  11.993
49721W        W13929  20.659  26.978   1.353
49722W        W13930  28.531  34.075  10.631
49723W        W13931  20.591  40.388   2.299
49724W        W13932  21.547  44.350  14.475
49725W        W13933  44.997  25.655  11.129
49726W        W13934  14.275  37.361   1.834
49727W        W13935  38.406  33.574  12.078
49728W        W13936  27.992   1.734   4.708
49729W        W13937  26.101  11.208   4.323
49730W        W13938   9.798  14.705   4.734
49731W        W13939   5.845  23.699   2.729
49732W        W13940  10.351  32.904  13.822
49733W        W13941   9.887  31.978   0.784
49734W        W13942   9.784  25.476   4.646
49735W        W13943  22.512   7.702  11.416
49736W        W13944  22.731  41.390   1.884
49737W        W13945  13.162  12.819   3.244
49738W        W13946  17.140   8.190  14.867
49739W        W13947   3.787   1.437   4.157
49740W        W13948  13.801  15.120  14.915
49741W        W13949  42.890  35.109  10.510
49742W        W13950  32.405  29.000  13.963
49743W        W13951  25.490  43.855  13.915
49744W        W13952   1.386  10.210  13.963
49745W        W13953  18.558  16.746  13.942
49746W        W13954  26.143  24.217  14.903
49747W        W13955  40.884  14.750  14.287
49748W        W13956  10.327  40.391   3.343
49749W        W13957  12.841  11.866  11.466
49750W        W13958  33.464  19.076   0.891
49751W        W13959   0.810  13.146  10.506
49752W        W13960  27.688  17.249  13.972
49753W        W13961   3.294  26.651  14.999
49754W        W13962   1.366  37.065  13.516
49755W        W13963  15.604  13.738  12.490
49756W        W13964  31.423  42.355  12.050
49757W        W13965  20.626  10.341   2.789
49758W        W13966  17.129  12.847  12.853
49759W        W13967  44.011   9.832   0.290
49760W        W13968  14.602  30.029  14.924
49761W        W13969  44.871  35.359   1.224
49762W        W13970  16.634  36.381   3.664
49763W        W13971  26.630  44.870   0.482
49764W        W13972  18.753  26.096   4.213
49765W        W13973  23.215  26.479   2.683
49766W        W13974  19.677  34.928   0.323
49767W        W13975  43.941  42.288   0.936
49768W        W13976  37.960  23.051  11.983
49769W        W13977  33.915  38.439   3.645
49770W        W13978  22.608  26.531  11.963
49771W        W13979  31.593  30.138   2.700
49772W        W13980  37.421  31.091   3.319
49773W        W13981  37.961   8.175  10.588
49774W        W13982  30.095  41.344   2.333
49775W        W13983  42.434  17.576   5.674
49776W        W13984  21.576  18.561   3.370
49777W        W13985   3.359  28.037   2.306
49778W        W13986   8.725  34.434  10.090
49779W        W13987   3.901  42.938   0.798
49780W        W13988  31.112   2.735  14.761
49781W        W13989  28.028  18.605   3.374
49782W        W13990  40.811   1.872   4.834
49783W        W13991   3.716   4.733   3.708
49784W        W13992  20.634  17.645   3.260
49785W        W13993  42.461  36.970  10.562
49786W        W13994  44.406   0.272  13.328
49787W        W13995  24.688  18.194  14.341
49788W        W13996  36.542  39.880  13.061
49789W        W13997  29.439  21.573  12.504
49790W        W13998  17.246  39.401   2.890
49791W        W13999   1.972  36.972  11.517
49792W        W14000  26.503  15.709  12.465
49793W        W14001   5.866  31.517   4.286
49794W        W14002  30.941  42.380   1.878
49795W        W14003  10.297  21.227  10.096
49796W        W14004  21.722  42.424  11.528
49797W        W14005   0.327  37.850  14.858
49798W        W14006  19.179  39.505   4.351
49799W        W14007  28.067  39.889  14.813
49800W        W14008   6.255  41.878   4.272
49801W        W14009  27.628  31.150  11.599
49802W        W14010  30.030  31.634   1.395
49803W        W14011  14.766  43.921   1.839
49804W        W14012  38.414  41.894   3.639
49805W        W14013  14.291  14.719   3.861
49806W        W14014  11.808  22.035   4.293
49807W        W14015   6.806   3.950   1.804
49808W        W14016  26.196  10.305   0.394
49809W        W14017  17.253  32.047  13.954
49810W        W14018  11.365   9.363  11.400
49811W        W14019  28.464  15.278   2.212
49812W        W14020  23.101   5.815  12.512
49813W        W14021  37.029  37.010  10.565
49814W        W14022  14.302  38.029   2.835
49815W        W14023  18.673   8.252  12.516
49816W        W14024   3.930   1.843  11.906
49817W        W14025  23.592  14.095   1.217
49818W        W14026  11.347  24.977   0.895
49819W        W14027  32.478  30.470   1.804
49820W        W14028  38.845   8.248  11.421
49821W        W14029  22.016  36.997  11.865
49822W        W14030   4.439  38.524  12.847
49823W        W14031  25.112  41.441   2.316
49824W        W14032  13.277   2.317  14.404
49825W        W14033  26.518  20.067   0.828
49826W        W14034  41.042  38.067   2.789
49827W        W14035  14.212  26.467  13.840
49828W        W14036   1.316  36.564  12.914
49829W        W14037  16.090  35.037   1.259
49830W        W14038  14.222  28.061  13.997
49831W        W14039  43.276  42.478  11.047
49832W        W14040   1.266  12.146   1.415
49833W        W14041   9.379  23.595   1.824
49834W        W14042  22.204  33.123   1.326
49835W        W14043  12.318  32.899   2.266
49836W        W14044  36.468  23.619   2.726
49837W        W14045  21.636  34.063  11.573
49838W        W14046  34.964  39.995   4.618
49839W        W14047   5.769   5.319   1.721
49840W        W14048  38.039  40.356   0.916
49841W        W14049  15.263   8.256   2.751
49842W        W14050  11.733  23.085  11.972
49843W        W14051  30.486  34.599  14.842
49844W        W14052  33.049  14.806   0.807
49845W        W14053  44.850   4.250   3.785
49846W        W14054   4.718  43.499   2.317
49847W        W14055  41.874  32.098   4.178
49848W        W14056   3.823   9.788  14.772
49849W        W14057  41.823   6.758  14.900
49850W        W14058  24.178  12.305   2.740
49851W        W14059  22.129   2.870   0.476
49852W        W14060  41.521  42.322   0.824
49853W        W14061  25.126  37.086   4.214
49854W        W14062  37.567  26.121  14.950
49855W        W14063   1.266  10.275   1.215
49856W        W14064   7.668   1.392   1.271
49857W        W14065  35.928  15.127   3.851
49858W        W14066  42.373  26.094  14.304
49859W        W14067  39.530  24.593  10.582
49860W        W14068  39.535  24.062  10.559
49861W        W14069  40.864   5.426  12.526
49862W        W14070  30.518   6.701  12.470
49863W        W14071   0.769  32.492   0.782
49864W        W14072  36.593  42.868   4.247
49865W        W14073  13.824  30.076   0.936
49866W        W14074  15.099  31.538   3.671
49867W        W14075  44.938  34.012  12.566
49868W        W14076  29.429  41.951   4.302
49869W        W14077  17.661  40.036   9.575
49870W        W14078  15.650  35.451   3.333
49871W        W14079  25.693  41.014  11.494
49872W        W14080  22.228  39.451   4.228
49873W        W14081  43.352  44.484  10.119
49874W        W14082   4.368   5.845   1.811
49875W        W14083  37.934  39.037  12.881
49876W        W14084  11.154  38.337  12.885
49877W        W14085  16.617  40.466   1.398
49878W        W14086  37.368   4.847   2.832
49879W        W14087  13.799  41.910  13.493
49880W        W14088   8.346  44.906   0.904
49881W        W14089   5.747  34.406   2.809
49882W        W14090  43.391  17.199  14.786
49883W        W14091  20.661  16.640   4.674
49884W        W14092  26.081  20.227  10.566
49885W        W14093  43.499  15.695  10.990
49886W        W14094   0.975  10.835  11.050
49887W        W14095   2.461   7.287  14.406
49888W        W14096  25.147  42.851   2.866
49889W        W14097   7.810  29.167  11.867
49890W        W14098  10.811  35.989  11.080
49891W        W14099   7.745  27.190   2.220
49892W        W14100   8.249  11.766  10.576
49893W        W14101  35.914   9.342  11.454
49894W        W14102  16.172  42.987   0.899
49895W        W14103  20.678  12.320   4.781
49896W        W14104   4.812   1.913   0.784
49897W        W14105  11.254  32.590  11.387
49898W        W14106   8.798  15.651  11.073
49899W        W14107  19.541  43.803  10.567
49900W        W14108  38.841  35.875   4.619
49901W        W14109  43.003  19.043  12.563
49902W        W14110   0.959  10.800   2.298
49903W        W14111  28.549  28.547   2.191
49904W        W14112   1.855  33.593   0.900
49905W        W14113   0.902  33.461  12.012
49906W        W14114  39.554  25.637  11.040
49907W        W14115  36.986   1.271   4.333
49908W        W14116  27.059  14.305   2.353
49909W        W14117  29.501   5.357  10.505
49910W        W14118  14.624  29.608  14.854
49911W        W14119   9.789  26.578  12.851
49912W        W14120   0.284  21.115   3.673
49913W        W14121  28.149  14.758   1.439
49914W        W14122  16.224   4.887  10.076
49915W        W14123  24.224  14.277   4.622
49916W        W14124  18.148  38.428   2.666
49917W        W14125  23.211  27.692  14.888
49918W        W14126   8.213   7.205  11.445
49919W        W14127  14.141  12.797   4.651
49920W        W14128   0.777  40.029  12.025
49921W        W14129  38.939  27.499   2.748
49922W        W14130  17.281  22.124  11.491
49923W        W14131  33.107  32.392   1.898
49924W        W14132  31.471  43.510   4.340
49925W        W14133  35.067  11.725   2.698
49926W        W14134  30.609  14.159   2.280
49927W        W14135  37.924  42.778  10.518
49928W        W14136  38.497  19.652  14.930
49929W        W14137  11.628  42.518  14.924
49930W        W14138  17.768  40.852  11.541
49931W        W14139  44.313  15.667   1.835
49932W        W14140  41.350  40.471  14.819
49933W        W14141  39.520   5.688  12.355
49934W        W14142  23.613  31.611  13.004
49935W        W14143  33.992  14.824   9.653
49936W        W14144  34.882  42.949  13.409
49937W        W14145   6.823   9.300  11.420
49938W        W14146   0.927  11.267   1.851
49939W        W14147  41.409   7.299   3.242
49940W        W14148  28.983   9.841  13.938
49941W        W14149  21.644  17.187  11.128
49942W        W14150  34.450  43.390   1.906
49943W        W14151  29.654  11.773   3.836
49944W        W14152  23.667  16.156   3.266
49945W        W14153  20.624  29.157   4.795
49946W        W14154   4.326  25.633  12.579
49947W        W14155   9.851  20.149   2.285
49948W        W14156  31.060  23.226  11.907
49949W        W14157  35.556  36.575  10.514
49950W        W14158  36.445  38.534  14.342
49951W        W14159  23.149   5.849  14.810
49952W        W14160  44.333  22.196   3.359
49953W        W14161  29.055   7.176  12.866
49954W        W14162  14.242  23.081  14.998
49955W        W14163  15.305   3.425  11.394
49956W        W14164  29.456  23.171   4.624
49957W        W14165  39.822  14.180   0.957
49958W        W14166   3.718  39.397   3.666
49959W        W14167  33.999  38.962  10.452
49960W        W14168   3.797  37.478  13.469
49961W        W14169  16.229  26.648   1.421
49962W        W14170  21.705  43.000   4.160
49963W        W14171   6.911  24.164   3.359
49964W        W14172   4.938   5.285  14.341
49965W        W14173  21.165  16.796  12.951
49966W        W14174  11.688  25.124  11.531
49967W        W14175  17.062  36.096  13.024
49968W        W14176  27.666  28.590   3.870
49969W        W14177  15.318  15.108   2.196
49970W        W14178  32.576  41.868   3.791
49971W        W14179  14.145  12.201   0.306
49972W        W14180   9.174   2.321   4.655
49973W        W14181   1.823  14.295   4.706
49974W        W14182  30.920  22.023  13.529
49975W        W14183  25.478  40.429   4.329
49976W        W14184  36.392  31.464   3.767
49977W        W14185  11.162  30.445  11.476
49978W        W14186   0.488   1.789  13.918
49979W        W14187  14.285  30.038   4.316
49980W        W14188  27.570  17.245   0.745
49981W        W14189  34.956   8.164   4.236
49982W        W14190  15.743  40.020   3.694
49983W        W14191  19.056  25.564  13.819
49984W        W14192  13.341  22.997  14.999
49985W        W14193  15.110  39.852   4.716
49986W        W14194  25.601  37.955   2.379
49987W        W14195  17.265   3.222   2.355
49988W        W14196   0.338  22.072   2.799
49989W        W14197  10.367  33.540   4.684
49990W        W14198  30.933  44.279   3.763
49991W        W14199  24.586  23.071   2.413
49992W        W14200  23.711  30.601   4.124
49993W        W14201  21.224   3.314  10.933
49994W        W14202   8.886  29.078  13.924
49995W        W14203   3.727  16.311  10.427
49996W        W14204  10.712  31.996   1.861
49997W        W14205  15.088   2.372  11.451
49998W        W14206  36.488  40.821   2.864
49999W        W14207   0.781  29.169  10.546
50000W        W14208  28.029  19.536   0.390
50001W        W14209  30.496   1.965   4.247
50002W        W14210  16.733  13.109   1.239
50003W        W14211  28.490  28.528  12.074
50004W        W14212   3.741  13.661  10.624
50005W        W14213   5.699  16.810  13.810
50006W        W14214  10.242  10.846   2.880
50007W        W14215  23.997  27.095  11.958
50008W        W14216   3.429   8.262   4.212
50009W        W14217   5.761  36.477  14.345
50010W        W14218  44.798  44.262  12.021
50011W        W14219  37.496  35.456   4.207
50012W        W14220  28.037  23.038   4.764
50013W        W14221  15.675   1.823  11.543
50014W        W14222  26.568  16.223   0.782
50015W        W14223  16.798   6.374  14.998
50016W        W14224  25.554  24.168   4.684
50017W        W14225  42.380  37.528  13.532
50018W        W14226   5.804  15.603  12.936
50019W        W14227  29.997   7.232  11.869
50020W        W14228  25.078  33.625  10.023
50021W        W14229  18.126  34.911   1.836
50022W        W14230  34.574  36.857  14.344
50023W        W14231  37.363   4.863   0.483
50024W        W14232  42.506   6.243  14.328
50025W        W14233  14.205  38.466  14.780
50026W        W14234  21.616  33.029   4.806
50027W        W14235  44.904  23.098   3.637
50028W        W14236  27.648  12.673  10.450
50029W        W14237  19.566  14.712   0.440
50030W        W14238  11.262  25.029   3.800
50031W        W14239   5.235  12.829   2.381
50032W        W14240  26.956  42.477   2.678
50033W        W14241  43.360  17.763  12.490
50034W        W14242  44.322  11.815  10.954
50035W        W14243   5.392  33.875   1.292
50036W        W14244  44.427  39.467  11.610
50037W        W14245  36.587   8.761  11.603
50038W        W14246   5.810  20.262  14.790
50039W        W14247  22.029  37.008  10.483
50040W        W14248  15.179  31.143  13.511
50041W        W14249  39.849   0.934  14.350
50042W        W14250  22.213  24.198   4.126
50043W        W14251  15.682   6.776   2.377
50044W        W14252   6.334  16.242   0.465
50045W        W14253  35.919  17.255  13.032
50046W        W14254   8.694  21.686  13.913
50047W        W14255   1.792  10.296  11.497
50048W        W14256  39.855  21.754  10.489
50049W        W14257  29.583  23.531   2.781
50050W        W14258  14.199   9.202  12.993
50051W        W14259   0.422  10.377  10.960
50052W        W14260   6.744   4.843  11.584
50053W        W14261  38.938  38.399   2.868
50054W        W14262  13.202  36.962  11.579
50055W        W14263  17.771  34.555  12.993
50056W        W14264  38.957   7.321   1.916
50057W        W14265  11.318  11.856   2.253
50058W        W14266  36.036  25.060  10.986
50059W        W14267  11.674  15.599  10.444
50060W        W14268  21.523  19.597  14.007
50061W        W14269   7.686  41.534  11.535
50062W        W14270  24.072  17.252  11.923
50063W        W14271   3.840  22.706  14.303
50064W        W14272  38.564  20.718  13.009
50065W        W14273  26.634  36.947   1.268
50066W        W14274  20.242  17.739   2.302
50067W        W14275  33.081  29.053  13.356
50068W        W14276  32.508  28.631  11.857
50069W        W14277  25.498  34.955  10.496
50070W        W14278  28.944   7.740   3.277
50071W        W14279  34.954  43.872  10.942
50072W        W14280  11.259  16.802  12.916
50073W        W14281  35.967   1.397  14.384
50074W        W14282  28.561  14.117  13.006
50075W        W14283  41.386  39.484  11.017
50076W        W14284  20.131   7.778   0.257
50077W        W14285   3.393  35.923   2.669
50078W        W14286  35.035  35.868   4.205
50079W        W14287  21.667   9.188  11.536
50080W        W14288  16.650  44.831  13.865
50081W        W14289  41.940   2.343  13.368
50082W        W14290  28.517  42.335   3.864
50083W        W14291  10.343   6.807   0.362
50084W        W14292  10.170  35.520  13.475
50085W        W14293  38.970   7.308  13.329
50086W        W14294  20.067  27.563  10.929
50087W        W14295  42.988  41.462  14.008
50088W        W14296  34.107  42.875  12.439
50089W        W14297  12.721   2.907  12.565
50090W        W14298  10.866  22.047   4.158
50091W        W14299  34.904   7.294  11.109
50092W        W14300  17.072  11.651  14.921
50093W        W14301  34.598  34.955  13.507
50094W        W14302   9.770  19.154   1.841
50095W        W14303   1.341  43.283   2.270
50096W        W14304  22.160  29.174  14.329
50097W        W14305  15.644  37.974   3.298
50098W        W14306   6.382  16.277   1.449
50099W        W14307  26.693  38.568   1.789
50100W        W14308  20.169  31.927  14.013
50101W        W14309  39.357   9.217  13.850
50102W        W14310  12.688  24.107  12.580
50103W        W14311   0.300  22.139   3.752
50104W        W14312   5.804  32.517   2.244
50105W        W14313   4.244   4.820   3.284
50106W        W14314   1.300   1.298   1.267
50107W        W14315   8.709  24.525  13.812
50108W        W14316   8.269  39.879  12.378
50109W        W14317  24.116  19.587  13.538
50110W        W14318  41.889  40.392   2.847
50111W        W14319  42.830  22.198   0.797
50112W        W14320  19.085   7.725  11.478
50113W        W14321  23.704  25.650   4.745
50114W        W14322   1.807  28.585  14.458
50115W        W14323  41.417  29.077   3.803
50116W        W14324  40.000  26.132   2.401
50117W        W14325  21.548  24.040  13.348
50118W        W14326   8.743  11.276  13.387
50119W        W14327  14.200   4.732  13.317
50120W        W14328  35.551  32.054  12.035
50121W        W14329  34.044  18.568  13.824
50122W        W14330  15.212  37.362   0.932
50123W        W14331  23.597  30.638  11.562
50124W        W14332  13.171   0.864  11.398
50125W        W14333   4.294  12.172  13.367
50126W        W14334  44.301  22.708   2.881
50127W        W14335  19.190  42.945   2.739
50128W        W14336   2.310   2.866  14.778
50129W        W14337  20.575  13.252  10.983
50130W        W14338  33.015  38.932   2.757
50131W        W14339  22.094  11.373  13.858
50132W        W14340   1.394  22.183  11.987
50133W        W14341  42.292  26.480  12.037
50134W        W14342  18.221  40.944  10.038
50135W        W14343  30.118  12.761   2.849
50136W        W14344  26.613   1.901  13.863
50137W        W14345  29.028   4.372   2.229
50138W        W14346  18.121  31.561   4.221
50139W        W14347  42.880  44.989   1.794
50140W        W14348  42.843  18.081   0.379
50141W        W14349   5.704  20.701  14.368
50142W        W14350  24.191  37.976  12.541
50143W        W14351  29.429  36.435  11.859
50144W        W14352  30.126  37.463  14.407
50145W        W14353  15.101  33.071  12.881
50146W        W14354   8.723  43.998   1.300
50147W        W14355  33.116  40.525  13.900
50148W        W14356  34.436  37.841  10.606
50149W        W14357  43.866  38.987   4.277
50150W        W14358  40.453   2.354  12.013
50151W        W14359  11.687  24.034  11.907
50152W        W14360  36.916  35.523  10.430
50153W        W14361  34.058  34.561  13.352
50154W        W14362  33.045  38.072   2.266
50155W        W14363  35.031  33.398   4.172
50156W        W14364  40.938  36.866   2.339
50157W        W14365  30.504  31.919  11.009
50158W        W14366   2.370  15.617  14.469
50159W        W14367  29.934   8.826  14.394
50160W        W14368  11.744   3.221  11.985
50161W        W14369  40.993  41.989  12.475
50162W        W14370  40.335   3.237   2.850
50163W        W14371  41.882  22.996  14.335
50164W        W14372  28.171  32.083   5.247
50165W        W14373  21.603  25.503   3.286
50166W        W14374   3.224  17.278   1.370
50167W        W14375   0.824   8.890  13.513
50168W        W14376  10.757  31.086  11.067
50169W        W14377  15.822  26.114   2.744
50170W        W14378  29.083  29.545   1.870
50171W        W14379   0.844  26.031  13.925
50172W        W14380  11.349  16.681  13.441
50173W        W14381   8.769  11.661  10.919
50174W        W14382  43.296   7.215   1.820
50175W        W14383   6.242  40.369  11.941
50176W        W14384  12.354   2.413  11.456
50177W        W14385  13.703   1.354  12.550
50178W        W14386  12.707  41.835  13.535
50179W        W14387  44.311  33.043  13.899
50180W        W14388  39.558   0.783   1.328
50181W        W14389  37.350  32.999  10.518
50182W        W14390  27.682  18.717  13.950
50183W        W14391   7.185  33.109  11.974
50184W        W14392  31.092  32.408   3.633
50185W        W14393  18.610  25.559  12.340
50186W        W14394  15.277  11.347   2.352
50187W        W14395  35.873   3.943   0.919
50188W        W14396  13.309   7.303   2.708
50189W        W14397   0.348  28.599  11.484
50190W        W14398  23.583  14.646   3.286
50191W        W14399   0.377  14.684   1.926
50192W        W14400  40.446  40.430   4.647
50193W        W14401  34.920  13.807   0.446
50194W        W14402  35.891  37.415   0.376
50195W        W14403  21.704  26.121   4.233
50196W        W14404  24.482   0.488   0.796
50197W        W14405   9.750  18.052   3.374
50198W        W14406   3.874  41.909  10.899
50199W        W14407  44.774  17.616  13.921
50200W        W14408  12.170  26.203   0.298
50201W        W14409   2.226  19.661   2.780
50202W        W14410  30.549  16.625  10.122
50203W        W14411  30.607  19.624   4.150
50204W        W14412  11.280  11.724  14.976
50205W        W14413  42.331  30.441  14.942
50206W        W14414   5.881  24.013  11.898
50207W        W14415  32.548  39.834   1.263
50208W        W14416  37.899   1.351  10.939
50209W        W14417  28.668  37.552  11.519
50210W        W14418  24.581  21.073   1.408
50211W        W14419  27.005   4.822   2.277
50212W        W14420   0.390  33.491  10.951
50213W        W14421   1.778  33.587   0.384
50214W        W14422  27.150   6.756  13.873
50215W        W14423  14.704  29.446   4.728
50216W        W14424   6.342  44.430  13.425
50217W        W14425  18.740  16.770  10.998
50218W        W14426  20.154   8.302  14.887
50219W        W14427   0.358   2.872  13.339
50220W        W14428  25.142  36.524  12.471
50221W        W14429  13.831  43.430   1.339
50222W        W14430  30.536  13.779  10.060
50223W        W14431   4.839  28.049   2.754
50224W        W14432  37.861  10.236   5.143
50225W        W14433  37.993  15.803  10.935
50226W        W14434  27.576  30.090  11.413
50227W        W14435  28.110  23.180  13.429
50228W        W14436  44.875  18.656   3.233
50229W        W14437  19.634   4.707  10.958
50230W        W14438   7.702  15.735   2.299
50231W        W14439   9.825  22.627  11.382
50232W        W14440  16.810   9.165  14.886
50233W        W14441  18.288  34.952   4.141
50234W        W14442  39.434  38.912   2.761
50235W        W14443  20.109  35.039  14.871
50236W        W14444  34.445  30.127   0.964
50237W        W14445  44.280  23.132  13.952
50238W        W14446   8.792  33.466   3.224
50239W        W14447  14.601  34.407  13.967
50240W        W14448  29.544  43.984   1.825
50241W        W14449  23.510   8.672   0.263
50242W        W14450  24.019  10.838   1.909
50243W        W14451  13.846  25.075  11.512
50244W        W14452   3.457  36.518   2.337
50245W        W14453  11.756  37.494   4.257
50246W        W14454  32.541  35.971   2.804
50247W        W14455  15.252  39.855   2.244
50248W        W14456  37.086   4.810   2.387
50249W        W14457  35.599   0.961  11.511
50250W        W14458  12.754  38.387   4.277
50251W        W14459  15.238  39.360  12.862
50252W        W14460  18.698  43.279  12.977
50253W        W14461  38.353  10.374  12.543
50254W        W14462   9.739  28.616   4.128
50255W        W14463  12.260  16.606   0.469
50256W        W14464  30.028  36.453   3.773
50257W        W14465  29.145  12.212  13.338
50258W        W14466  16.719  28.037  10.504
50259W        W14467  20.602  15.610   3.769
50260W        W14468  20.071  44.422  11.129
50261W        W14469  40.029  17.777   0.866
50262W        W14470  15.106  16.628  10.968
50263W        W14471  14.766   0.295   0.435
50264W        W14472  41.448  10.279  12.996
50265W        W14473  33.896  28.144  12.062
50266W        W14474   6.694  42.006  11.899
50267W        W14475  10.837  26.175  12.852
50268W        W14476  21.171  30.083  11.571
50269W        W14477  42.503  12.679   3.662
50270W        W14478  15.812  19.605  13.494
50271W        W14479  28.170  44.387   0.872
50272W        W14480  18.156  20.734   4.142
50273W        W14481  30.634  39.413   3.753
50274W        W14482  40.309   9.711   0.327
50275W        W14483  23.604  44.825   3.746
50276W        W14484  36.457  30.977  13.983
50277W        W14485  38.917  30.972  13.474
50278W        W14486  28.039   6.292   3.712
50279W        W14487  41.398   5.819   3.695
50280W        W14488  27.558   7.334  13.887
50281W        W14489   2.345  21.244  13.900
50282W        W14490  41.508  28.133   1.933
50283W        W14491  28.520  13.107  14.275
50284W        W14492  30.638   8.283   0.832
50285W        W14493   9.227  23.176  14.823
50286W        W14494  26.458  13.345   0.321
50287W        W14495  21.531  17.061   0.307
50288W        W14496  35.969  12.692   1.873
50289W        W14497  29.558  31.599   3.309
50290W        W14498  23.193  11.323   1.404
50291W        W14499   2.352   3.788   2.405
50292W        W14500  13.811   9.693   3.266
50293W        W14501  18.693  17.144   9.929
50294W        W14502  29.567  28.466  14.943
50295W        W14503   6.305   1.799   1.358
50296W        W14504  16.673  37.062  11.933
50297W        W14505  31.101  39.366   3.297
50298W        W14506  42.491  34.005  12.345
50299W        W14507  27.646  16.709   4.703
50300W        W14508   7.817  32.398   1.794
50301W        W14509  29.478  40.927  11.086
50302W        W14510  40.429  34.960  10.934
50303W        W14511   9.360   3.919  11.123
50304W        W14512  33.892  27.011  14.491
50305W        W14513  36.958  38.830  13.860
50306W        W14514  25.167   7.743  11.965
50307W        W14515   7.719  10.260  10.955
50308W        W14516  34.035   9.675  12.409
50309W        W14517  22.596  21.105   2.811
50310W        W14518  40.893  13.183   0.904
50311W        W14519  43.809   9.807  10.530
50312W        W14520  18.791   5.362  14.393
50313W        W14521   0.400   1.324   9.955
50314W        W14522  22.139  20.187  12.918
50315W        W14523   6.826  37.351   1.864
50316W        W14524   0.886  29.124   0.405
50317W        W14525   4.857  41.802   1.726
50318W        W14526  11.660  18.149  14.917
50319W        W14527  21.211  34.487   0.460
50320W        W14528   0.913  41.521  12.431
50321W        W14529  26.512  34.108   2.248
50322W        W14530   6.727  20.613  12.466
50323W        W14531  10.151  33.472   2.389
50324W        W14532  35.360  20.709   3.844
50325W        W14533   5.193  34.108  12.932
50326W        W14534  20.720  12.148  13.477
50327W        W14535  24.097  18.768   1.365
50328W        W14536  11.295  32.451  13.527
50329W        W14537  28.507  21.126  11.409
50330W        W14538  35.429  33.057  12.915
50331W        W14539  19.652  36.986  12.011
50332W        W14540   1.481  24.706  12.531
50333W        W14541  37.401  23.722   3.817
50334W        W14542  44.403  11.326  11.995
50335W        W14543  16.698  23.993  13.991
50336W        W14544  31.017   0.746  10.976
50337W        W14545  21.121  10.644   0.365
50338W        W14546  42.971  15.763  13.036
50339W        W14547  37.581  20.601   0.868
50340W        W14548   6.916  38.974   2.381
50341W        W14549  17.173  33.551  14.947
50342W        W14550  14.646   5.707  13.862
50343W        W14551  10.848  24.139  13.034
50344W        W14552  26.012  24.640   0.432
50345W        W14553   5.815  44.887  14.910
50346W        W14554  22.540  33.384   2.756
50347W        W14555  26.049  38.360   3.164
50348W        W14556  21.214  41.304   1.873
50349W        W14557  43.412   3.855  11.558
50350W        W14558  26.511  37.870  11.443
50351W        W14559  19.059   2.948  12.366
50352W        W14560  27.024  42.949  13.982
50353W        W14561  23.181   7.300  14.407
50354W        W14562  10.339  30.995   1.760
50355W        W14563  36.863  15.270   1.280
50356W        W14564  23.022  19.563   2.300
50357W        W14565   2.285  21.135   4.318
50358W        W14566  40.538   8.227  11.930
50359W        W14567   7.365   0.967   2.251
50360W        W14568   6.299  14.283   2.198
50361W        W14569  38.504  34.396  14.842
50362W        W14570  42.452  35.056   0.369
50363W        W14571  16.217   8.725  11.902
50364W        W14572  24.152  18.712  12.840
50365W        W14573  38.912  20.143  11.923
50366W        W14574  38.445  31.901  13.027
50367W        W14575  36.028   4.776   2.874
50368W        W14576  32.112  42.827   3.170
50369W        W14577  33.437  36.049   4.341
50370W        W14578   1.265  20.257  14.311
50371W        W14579  40.495   4.901   1.750
50372W        W14580  37.419  43.894  12.368
50373W        W14581  13.234   7.910   0.897
50374W        W14582  25.069  23.037  13.451
50375W        W14583  37.362   8.809  11.878
50376W        W14584  42.802   0.856  13.902
50377W        W14585  11.196   4.367  12.577
50378W        W14586   2.880  32.060   5.285
50379W        W14587  30.129  25.622   3.247
50380W        W14588   6.268  40.030   2.243
50381W        W14589  18.275  27.184   4.613
50382W        W14590  17.664  18.100  10.417
50383W        W14591  31.109  37.384   1.755
50384W        W14592  28.053  20.571   3.730
50385W        W14593  42.320  11.132  11.419
50386W        W14594  32.555   1.242   0.300
50387W        W14595  25.676  12.619   0.732
50388W        W14596   0.857  41.393  10.611
50389W        W14597   6.822  22.148   2.244
50390W        W14598  10.810  10.155   4.605
50391W        W14599  12.817   7.385  10.576
50392W        W14600   2.964  12.318  11.535
50393W        W14601  16.138  21.547  14.378
50394W        W14602  12.328  15.312  11.089
50395W        W14603   9.650  27.583   4.234
50396W        W14604  18.730  24.540   2.886
50397W        W14605  24.111  31.106  11.375
50398W        W14606  10.379  18.698   1.378
50399W        W14607  37.986  29.960  13.321
50400W        W14608  10.778  43.461  10.537
50401W        W14609   5.733  33.053   0.300
50402W        W14610  14.184   1.439   2.900
50403W        W14611  13.682   0.381   3.826
50404W        W14612   8.802  25.124   1.380
50405W        W14613  24.163  14.108  12.911
50406W        W14614   0.292   2.774  10.945
50407W        W14615  39.022  11.662   5.091
50408W        W14616  19.145  16.259  13.386
50409W        W14617   5.333   4.817   3.152
50410W        W14618  42.281  20.033   3.165
50411W        W14619  35.909   1.285  13.472
50412W        W14620  15.761  23.589   2.698
50413W        W14621  25.629  14.317  14.374
50414W        W14622  12.684  23.240  12.021
50415W        W14623  23.226  36.407  14.890
50416W        W14624   0.933  13.182  12.500
50417W        W14625  24.195  43.769   2.816
50418W        W14626  20.079  43.325   1.794
50419W        W14627  15.698  16.084  13.051
50420W        W14628  37.398  44.293   2.311
50421W        W14629  13.283  26.975   0.775
50422W        W14630  19.236  12.251  11.588
50423W        W14631  16.783  31.983  13.863
50424W        W14632  41.819  24.088  11.389
50425W        W14633  23.721  41.395  11.567
50426W        W14634  40.490   0.277   4.813
50427W        W14635  18.279   1.751   3.340
50428W        W14636  25.211  31.585  14.404
50429W        W14637  29.612  17.192  11.018
50430W        W14638  30.981  26.515   3.636
50431W        W14639  42.885  33.947  11.889
50432W        W14640   3.710  20.568  12.909
50433W        W14641  42.788   9.278  14.008
50434W        W14642  33.540  36.939  11.943
50435W        W14643   5.284  16.614   4.339
50436W        W14644  31.599  18.054   5.180
50437W        W14645  26.592  16.209  11.979
50438W        W14646   0.435  13.642  13.370
50439W        W14647  16.702   2.249  11.919
50440W        W14648   3.231   4.216   3.149
50441W        W14649  32.603  34.502   5.209
50442W        W14650  31.519   5.387  13.535
50443W        W14651  43.333   2.763   0.469
50444W        W14652  10.352  37.084   3.209
50445W        W14653  10.307  10.195   5.304
50446W        W14654   0.842  34.872  12.881
50447W        W14655  35.450   0.377   1.317
50448W        W14656  40.905  44.338   2.225
50449W        W14657   4.728  14.809  14.822
50450W        W14658   5.838  18.165   4.150
50451W        W14659   4.903  14.630   4.254
50452W        W14660   9.734  30.083  12.371
50453W        W14661  37.564   8.287  11.578
50454W        W14662   9.223  16.311  13.024
50455W        W14663  40.885  20.270  12.912
50456W        W14664  31.554  20.248  14.442
50457W        W14665  33.059  16.806  11.099
50458W        W14666  23.553  36.972  13.933
50459W        W14667  41.398  21.566  13.311
50460W        W14668  35.580  14.240  14.420
50461W        W14669  40.009  16.748   1.337
50462W        W14670  18.295  14.225   4.151
50463W        W14671  24.104   3.365  14.416
50464W        W14672   5.401  20.660   3.219
50465W        W14673  27.462  18.687  10.911
50466W        W14674  34.080  19.733  13.036
50467W        W14675  36.540   3.306  14.958
50468W        W14676   4.383  36.084  12.339
50469W        W14677  27.577   6.743   4.347
50470W        W14678   7.340  31.494  14.276
50471W        W14679  37.904   6.417   3.181
50472W        W14680  37.856  36.962  14.333
50473W        W14681  22.235  37.413   1.374
50474W        W14682  12.279  14.256   1.869
50475W        W14683  32.046   3.920  12.529
50476W        W14684  42.838  43.417  11.492
50477W        W14685   8.382  13.298   2.662
50478W        W14686  10.773  44.405  12.488
50479W        W14687  11.360  40.052   3.206
50480W        W14688  10.735  28.587   2.876
50481W        W14689  31.512  37.052  10.545
50482W        W14690  20.204  29.555  12.865
50483W        W14691  30.530   7.172   2.753
50484W        W14692  32.532  33.944   4.765
50485W        W14693   9.791  16.795   1.245
50486W        W14694  25.060   3.347  11.504
50487W        W14695  22.664  17.793  11.006
50488W        W14696   5.698  26.591   0.879
50489W        W14697   7.815   1.901  10.528
50490W        W14698  40.923  44.890   0.385
50491W        W14699   6.705  28.022  10.970
50492W        W14700  12.610   2.229  11.103
50493W        W14701  25.128  18.067   2.206
50494W        W14702  36.904  15.131  12.437
50495W        W14703  36.931   3.826  11.564
50496W        W14704  41.944  41.494   1.239
50497W        W14705  15.113  17.751  12.009
50498W        W14706  38.031  31.956  12.076
50499W        W14707  27.158  42.409   1.906
50500W        W14708  35.431  26.065  10.562
50501W        W14709  44.010   0.365   3.384
50502W        W14710  18.759  11.176  13.911
50503W        W14711  43.925   7.279   2.695
50504W        W14712   9.158  16.086   0.443
50505W        W14713  13.733  38.407   3.253
50506W        W14714  34.607  11.721   0.789
50507W        W14715  19.655  22.524   4.714
50508W        W14716   2.399  29.632  11.396
50509W        W14717   8.729  25.602  14.364
50510W        W14718   8.293  13.703  11.882
50511W        W14719  26.539  37.406   0.894
50512W        W14720  12.705  19.185   0.326
50513W        W14721   2.431  28.496  12.035
50514W        W14722  40.007  31.447   1.233
50515W        W14723  32.401  39.360   2.323
50516W        W14724   5.834  19.638  11.444
50517W        W14725  17.674  39.433  12.981
50518W        W14726  33.606  29.925   2.301
50519W        W14727   8.863  15.643   5.286
50520W        W14728  10.379  36.480   4.225
50521W        W14729  24.488  39.040  13.877
50522W        W14730   9.705  26.560  11.088
50523W        W14731  43.415  27.547   4.797
50524W        W14732  33.604  39.810   4.323
50525W        W14733  19.236  27.190  10.632
50526W        W14734  12.798  38.444  12.557
50527W        W14735  13.608  20.031   3.354
50528W        W14736  28.005   8.253   0.927
50529W        W14737  35.864  37.493   4.833
50530W        W14738  39.360   9.884  13.373
50531W        W14739   3.348   0.955   3.756
50532W        W14740   6.731  24.997   3.194
50533W        W14741   0.840  34.029   3.644
50534W        W14742  24.981  20.111  14.397
50535W        W14743   6.772  39.951  14.299
50536W        W14744  22.619  17.587   1.320
50537W        W14745  44.801  34.511  12.580
50538W        W14746  30.935  29.618   3.294
50539W        W14747  38.007  42.456   2.766
50540W        W14748  27.605  34.003   0.831
50541W        W14749  42.784  36.935  10.448
50542W        W14750  38.554  37.458   2.820
50543W        W14751  35.511  24.110  13.337
50544W        W14752  32.572  40.348  13.534
50545W        W14753  17.099  25.077  12.389
50546W        W14754  35.910   6.815   2.850
50547W        W14755  40.538  14.230   0.865
50548W        W14756  35.108  35.051   1.849
50549W        W14757  13.152  11.164  11.038
50550W        W14758  11.795  39.958   4.232
50551W        W14759  19.196  27.175  12.381
50552W        W14760  27.473  21.180  14.766
50553W        W14761   7.881  40.372  12.519
50554W        W14762  31.491  29.053   3.856
50555W        W14763  37.851  36.446  11.519
50556W        W14764  39.412   0.864   9.465
50557W        W14765  42.882  12.261  11.075
50558W        W14766  19.176  26.092  13.951
50559W        W14767  25.708  10.839   3.737
50560W        W14768  42.310  15.246   2.249
50561W        W14769  39.979  11.137  12.424
50562W        W14770  36.071  11.351   1.725
50563W        W14771  12.680  28.180  11.006
50564W        W14772  15.156  21.673  10.479
50565W        W14773  29.110  32.043  14.854
50566W        W14774  11.344  30.153  11.391
50567W        W14775  10.672  30.002   3.374
50568W        W14776  44.446  32.415   5.295
50569W        W14777  29.481  18.162  12.506
50570W        W14778  21.080  11.846   0.408
50571W        W14779  26.108  41.437   0.298
50572W        W14780  41.413  19.571   3.288
50573W        W14781  31.948  23.665   1.884
50574W        W14782  19.755  31.468  14.813
50575W        W14783  37.016  16.741  14.295
50576W        W14784  31.554   5.232  11.915
50577W        W14785  20.166  17.163  12.068
50578W        W14786  35.538   0.772  11.859
50579W        W14787  19.179   0.337   1.885
50580W        W14788   6.389  23.184  11.964
50581W        W14789   1.455  12.235   2.673
50582W        W14790   2.870   1.400   3.240
50583W        W14791  44.887  40.853  12.563
50584W        W14792  44.275  20.698   4.655
50585W        W14793  19.569  41.851   3.682
50586W        W14794  12.283  13.676  10.892
50587W        W14795  32.393  21.582  10.443
50588W        W14796  19.614  38.915   3.632
50589W        W14797   8.298  20.231   1.283
50590W        W14798  29.923  42.370   0.757
50591W        W14799  16.705  19.576  12.557
50592W        W14800  41.958  17.117   2.699
50593W        W14801  44.953   3.832  12.932
50594W        W14802  33.883  12.207   3.220
50595W        W14803   6.359  35.386  11.936
50596W        W14804   7.358   0.300  10.477
50597W        W14805   1.969   9.883  13.807
50598W        W14806  12.791  30.467  13.854
50599W        W14807   6.240  15.178   3.343
50600W        W14808  43.009  40.515   1.411
50601W        W14809  43.937  27.022  11.041
50602W        W14810  25.202  12.237  13.799
50603W        W14811  22.252  19.704  10.427
50604W        W14812   6.339  11.141   3.321
50605W        W14813  24.138  40.444  14.882
50606W        W14814  18.167  36.467   4.675
50607W        W14815  12.813  38.024  11.051
50608W        W14816  36.435  42.445   0.456
50609W        W14817  43.925  32.464   0.863
50610W        W14818   3.391  17.064   1.854
50611W        W14819  19.078  43.814  13.797
50612W        W14820   7.391  36.033  14.846
50613W        W14821   1.260  38.010  10.957
50614W        W14822  12.174  34.443  11.423
50615W        W14823   2.753  22.561  13.849
50616W        W14824  35.919  20.566  13.918
50617W        W14825  37.571  42.778   5.093
50618W        W14826  40.995  35.465   1.234
50619W        W14827   2.816  25.007  14.957
50620W        W14828  39.337  11.622   1.831
50621W        W14829  19.698  24.136   2.675
50622W        W14830  29.100   9.835  12.481
50623W        W14831  23.646  39.910   0.832
50624W        W14832  44.325  44.811   3.669
50625W        W14833   3.849  32.487   1.729
50626W        W14834  19.570   7.231  11.113
50627W        W14835  26.954  33.626   4.602
50628W        W14836  23.984  32.983   2.839
50629W        W14837  37.947  14.731  13.022
50630W        W14838  40.859  15.123   5.100
50631W        W14839  40.465   6.754   1.758
50632W        W14840   1.306  41.845  14.952
50633W        W14841   0.463  41.387   2.283
50634W        W14842   1.276  18.187   3.817
50635W        W14843   8.711  19.578   0.257
50636W        W14844  23.546  42.362  14.868
50637W        W14845   6.250  34.012   3.240
50638W        W14846  23.072  36.528   2.856
50639W        W14847  17.791  32.567   1.266
50640W        W14848  39.412  17.138  11.394
50641W        W14849  31.953  44.262   5.121
50642W        W14850  17.167  11.809  10.617
50643W        W14851  12.324   0.352   0.919
50644W        W14852  41.974  14.737  14.813
50645W        W14853  41.041  31.142  12.394
50646W        W14854  11.840  11.742  12.948
50647W        W14855  21.553  31.648   1.902
50648W        W14856  23.705  25.672  14.862
50649W        W14857  14.258  36.077  14.774
50650W        W14858  14.325   1.380  12.543
50651W        W14859   8.729   2.909   3.803
50652W        W14860  20.083  12.210   0.353
50653W        W14861  23.696  23.714   2.855
50654W        W14862  38.902  33.124  11.578
50655W        W14863  33.897  19.646   1.443
50656W        W14864   0.465  26.063   1.838
50657W        W14865  17.149  33.617   1.726
50658W        W14866  17.599  25.630  10.974
50659W        W14867  10.661  44.302   3.207
50660W        W14868  41.300  41.013   0.800
50661W        W14869  13.283  15.180  11.531
50662W        W14870  33.985  28.527   1.308
50663W        W14871  24.181  18.709   4.713
50664W        W14872  12.351  42.861   0.321
50665W        W14873  24.106  36.047  13.319
50666W        W14874  36.973  32.573  12.971
50667W        W14875  36.934  28.533   2.366
50668W        W14876  23.168  29.031   4.834
50669W        W14877  40.942  41.003   2.216
50670W        W14878  30.963  31.151   1.264
50671W        W14879   4.407  28.638   0.891
50672W        W14880  12.830  13.791   1.849
50673W        W14881  34.464  33.012   1.760
50674W        W14882  31.907  23.613  14.471
50675W        W14883  13.254  12.765   0.912
50676W        W14884  15.821  29.024  10.904
50677W        W14885   1.387   2.373  11.069
50678W        W14886  36.097  12.295   3.365
50679W        W14887   4.711  25.680   3.702
50680W        W14888  32.424   1.952  11.020
50681W        W14889  41.513  25.694   3.192
50682W        W14890  38.416  21.723   4.151
50683W        W14891   3.734  37.571  12.070
50684W        W14892   6.772  29.472   2.820
50685W        W14893  15.676  15.153  12.080
50686W        W14894  38.339  18.560   1.833
50687W        W14895  14.654  27.692   2.365
50688W        W14896  32.534   6.315   2.304
50689W        W14897  10.359  27.115   1.229
50690W        W14898   5.919   9.214  13.806
50691W        W14899  19.641  31.537  10.973
50692W        W14900  27.686  18.725  13.508
50693W        W14901  23.655  13.651  13.947
50694W        W14902   6.415  25.565  14.481
50695W        W14903   2.854  30.106   1.406
50696W        W14904  18.137   8.711   0.432
50697W        W14905   7.321  16.313  11.940
50698W        W14906  12.301  15.613  14.354
50699W        W14907  30.438  12.832   1.775
50700W        W14908   2.440  43.909   0.417
50701W        W14909  10.701  36.841  14.760
50702W        W14910  23.725   5.228   1.449
50703W        W14911  40.468   3.876  14.480
50704W        W14912  15.630   0.898  10.455
50705W        W14913   2.779  31.121   2.361
50706W        W14914  28.678   5.812  14.454
50707W        W14915  11.180  38.967  13.961
50708W        W14916  19.619  11.184   0.372
50709W        W14917  15.669  28.598   0.335
50710W        W14918  39.366  33.083  14.831
50711W        W14919   9.311  26.581   4.323
50712W        W14920   8.213  18.768   3.236
50713W        W14921  42.994  39.817  11.440
50714W        W14922  37.884  43.367  11.011
50715W        W14923  33.032   0.374  14.385
50716W        W14924   9.263  24.974   4.323
50717W        W14925  31.612   1.277  13.855
50718W        W14926  26.135  15.326   3.661
50719W        W14927  14.753  17.572   0.864
50720W        W14928  31.411  14.329   2.702
50721W        W14929  19.686  41.523  10.540
50722W        W14930   4.313   2.949  13.969
50723W        W14931  31.966   9.754   0.434
50724W        W14932  24.165  35.454   4.243
50725W        W14933  39.020  35.055  10.922
50726W        W14934  22.194  11.678  12.906
50727W        W14935  42.379  33.885  10.467
50728W        W14936  37.978  23.705  14.432
50729W        W14937   9.247  17.101   3.698
50730W        W14938  28.483  31.540  11.486
50731W        W14939  35.549   3.267   2.192
50732W        W14940  22.673  22.560   3.714
50733W        W14941  32.617  12.826   1.772
50734W        W14942  16.634   7.678  14.965
50735W        W14943  29.475  17.235  14.766
50736W        W14944  24.212  20.713  12.948
50737W        W14945  23.639  30.657   4.692
50738W        W14946  13.127  12.199  10.417
50739W        W14947  15.644   0.346   3.686
50740W        W14948  22.229  24.004  13.464
50741W        W14949  17.771   1.940  11.543
50742W        W14950  32.408   7.285  13.873
50743W        W14951   9.291  14.181   0.365
50744W        W14952  39.863  20.057  12.559
50745W        W14953  23.671  39.360   1.409
50746W        W14954   6.720  12.803  10.929
50747W        W14955  17.604  41.296   4.794
50748W        W14956  15.283  38.841   3.242
50749W        W14957  42.972  17.661   2.692
50750W        W14958  35.465  20.263   3.348
50751W        W14959  36.561  34.534   2.762
50752W        W14960  25.172  31.590  11.858
50753W        W14961  11.239  36.388   4.676
50754W        W14962  30.095   7.878  13.890
50755W        W14963  19.684  44.868   4.261
50756W        W14964  40.842  22.196   2.741
50757W        W14965  18.295  31.078   3.357
50758W        W14966  38.487  28.439  13.931
50759W        W14967  44.368  35.420   4.316
50760W        W14968  38.421  26.600  12.543
50761W        W14969   6.786  10.268  14.002
50762W        W14970   8.328  37.858   4.182
50763W        W14971  33.391  27.071   2.725
50764W        W14972  13.231  12.182  12.380
50765W        W14973  12.139  11.641   4.743
50766W        W14974  13.826   8.772  14.924
50767W        W14975   4.718  19.220  12.016
50768W        W14976  40.340   0.492  14.305
50769W        W14977   2.328   3.891   0.471
50770W        W14978   3.291  28.108  12.465
50771W        W14979  11.335   0.986   3.733
50772W        W14980   1.935   0.961   0.417
50773W        W14981  30.580  40.549  11.954
50774W        W14982  10.294   5.741   4.734
50775W        W14983  29.436  14.768   1.222
50776W        W14984  10.242  15.279  13.942
50777W        W14985  35.363  27.049   4.675
50778W        W14986  22.623  16.769   0.380
50779W        W14987   6.831  27.952  10.487
50780W        W14988  19.087  29.992  13.495
50781W        W14989  13.661   2.727   1.781
50782W        W14990   5.223   7.403   2.872
50783W        W14991   9.857   6.890  11.107
50784W        W14992  37.539   5.824   0.480
50785W        W14993  36.415  39.550  12.505
50786W        W14994  29.532  40.340  13.027
50787W        W14995  43.840  11.221  11.470
50788W        W14996  19.177  18.192   0.480
50789W        W14997  23.022  18.219  14.902
50790W        W14998  14.713  42.396  12.978
50791W        W14999   9.737  34.513   1.700
50792W        W15000   3.866  13.135  13.820
50793W        W15001  35.474  16.794  12.875
50794W        W15002  35.399   2.338  13.884
50795W        W15003  41.033  22.095  13.984
50796W        W15004  16.643  29.098   1.829
50797W        W15005  41.833   3.457  13.959
50798W        W15006  35.571  28.469   1.780
50799W        W15007  36.086  40.328   2.879
50800W        W15008   0.751  44.005  12.956
50801W        W15009  10.665  30.000   1.379
50802W        W15010  43.486  32.562   0.314
50803W        W15011   6.806  12.170   1.394
50804W        W15012   5.748  40.952  10.472
50805W        W15013   8.822  41.316  14.801
50806W        W15014  31.068  15.714   4.167
50807W        W15015  33.489  11.645   3.813
50808W        W15016   1.850  23.225   2.669
50809W        W15017  28.121  35.571  10.628
50810W        W15018   0.443   7.178  14.785
50811W        W15019  11.626  44.919   1.707
50812W        W15020   5.786   3.729   2.385
50813W        W15021  34.864   5.198   1.766
50814W        W15022   1.773  17.194  11.506
50815W        W15023  16.207  37.024  10.428
50816W        W15024  17.773  34.495  14.476
50817W        W15025  12.777  34.070  10.639
50818W        W15026  40.321   8.361   1.831
50819W        W15027  17.730  22.137  11.569
50820W        W15028   2.777  40.954  14.426
50821W        W15029  42.018  28.621  13.893
50822W        W15030  43.797   3.334  15.000
50823W        W15031  29.563   8.710   4.806
50824W        W15032  21.206  28.106   0.467
50825W        W15033  35.586  31.579   4.267
50826W        W15034  44.816  21.218   2.743
50827W        W15035  24.987   9.807  12.035
50828W        W15036   6.873  21.117  12.934
50829W        W15037  35.021   1.402   0.300
50830W        W15038   4.849   4.706  11.558
50831W        W15039   6.910  12.308   1.799
50832W        W15040  40.917   2.425  11.018
50833W        W15041   5.284  43.955  11.482
50834W        W15042  31.939   5.293  10.421
50835W        W15043  19.273  42.969   2.358
50836W        W15044  22.136  28.970  13.875
50837W        W15045  20.615   1.739  13.375
50838W        W15046  35.856  42.314  14.006
50839W        W15047  32.013   8.280   1.426
50840W        W15048  21.073  10.675   2.897
50841W        W15049  24.190   9.189   4.781
50842W        W15050  31.051   0.315   3.785
50843W        W15051  19.697  15.711  14.516
50844W        W15052  33.486   3.819  14.388
50845W        W15053  26.123  10.698  14.824
50846W        W15054  33.606  15.314  12.535
50847W        W15055   3.788   5.814   0.280
50848W        W15056   0.919  30.466  12.401
50849W        W15057  38.406  11.862   3.374
50850W        W15058  43.914   0.400  13.008
50851W        W15059  28.164   3.286   2.876
50852W        W15060  40.808  40.512  12.074
50853W        W15061  23.188  19.680  14.992
50854W        W15062  21.679  37.953  11.056
50855W        W15063  26.144  30.532   2.707
50856W        W15064  42.009  33.913   0.382
50857W        W15065   7.395   9.874   4.339
50858W        W15066  13.827   7.320  13.533
50859W        W15067  32.110  27.097  13.417
50860W        W15068  24.191  34.492   1.888
50861W        W15069  33.126  43.430   3.173
50862W        W15070  26.534  33.875   2.733
50863W        W15071  23.139  12.271  14.759
50864W        W15072  44.432  39.836  10.949
50865W        W15073  27.157  24.662  13.061
50866W        W15074  38.493   5.714  14.309
50867W        W15075   9.677  35.092  14.961
50868W        W15076  16.312  44.413  14.861
50869W        W15077  38.921  43.480   3.742
50870W        W15078   3.907   5.752  12.551
50871W        W15079  13.726  42.511   2.414
50872W        W15080  23.622  40.883  12.576
50873W        W15081  12.296   6.301   4.685
50874W        W15082  19.725  11.246   3.822
50875W        W15083   2.923   1.908   5.302
50876W        W15084  39.480  39.513  10.972
50877W        W15085  35.076  11.767  12.519
50878W        W15086  33.486  27.135  13.520
50879W        W15087   9.773  24.529  11.042
50880W        W15088  24.583  34.085   0.780
50881W        W15089   5.410  34.478   3.689
50882W        W15090  43.283   8.697   3.224
50883W        W15091  19.135  36.521  12.934
50884W        W15092  13.121  20.256   2.234
50885W        W15093   8.694  40.890   4.772
50886W        W15094  27.474  34.024   4.672
50887W        W15095  44.967  28.676  14.486
50888W        W15096  28.032  42.347  13.991
50889W        W15097  12.780  44.855  14.323
50890W        W15098  16.301  22.636   4.656
50891W        W15099  15.755  43.925   3.186
50892W        W15100  11.778  11.764   0.906
50893W        W15101  27.041   8.755   2.291
50894W        W15102  29.087  41.827  14.467
50895W        W15103   0.753  23.581   4.834
50896W        W15104  29.606  19.681   3.759
50897W        W15105  29.572  25.115  13.884
50898W        W15106   5.756   4.751   0.312
50899W        W15107  10.308  23.490   0.335
50900W        W15108  24.549   9.717  12.466
50901W        W15109   9.687  10.248   1.213
50902W        W15110  33.088   3.777  13.338
50903W        W15111  20.203  44.289   1.438
50904W        W15112  30.959  29.103  13.434
50905W        W15113   1.892  34.005   2.684
50906W        W15114  31.146  20.270   3.275
50907W        W15115   3.314  39.555  10.948
50908W        W15116   4.807  41.348  13.422
50909W        W15117  31.537  18.264   0.863
50910W        W15118  17.136  29.670  13.907
50911W        W15119  43.457   0.417   2.258
50912W        W15120  19.546  14.330  11.059
50913W        W15121  35.425  38.998   4.176
50914W        W15122   7.886  10.819   0.278
50915W        W15123   0.300  22.136   2.327
50916W        W15124  29.033  34.411  11.064
50917W        W15125  15.641   5.705   3.801
50918W        W15126  14.137  26.546   2.384
50919W        W15127   4.221  22.710  10.999
50920W        W15128   9.768  13.774  11.971
50921W        W15129   4.860  33.424   4.775
50922W        W15130  22.121  16.305  13.978
50923W        W15131   8.366   8.780  11.430
50924W        W15132  44.806  20.108   0.849
50925W        W15133   3.726  26.657   2.836
50926W        W15134  31.022  41.792  10.965
50927W        W15135  15.651  21.097   1.694
50928W        W15136  28.461   6.262  14.829
50929W        W15137  36.511  10.701   4.824
50930W        W15138   3.889  22.031  12.425
50931W        W15139  16.076  22.734  14.017
50932W        W15140  40.458  30.443   3.815
50933W        W15141  10.207  29.921   4.256
50934W        W15142  43.485  16.113   3.324
50935W        W15143  32.917   9.208  14.889
50936W        W15144   7.735  20.632  14.775
50937W        W15145  37.927  19.061  11.444
50938W        W15146  25.181  39.035  13.421
50939W        W15147  18.111  40.360   4.810
50940W        W15148  15.214  24.076  13.485
50941W        W15149   0.929  24.651  14.493
50942W        W15150  23.550  26.178  11.046
50943W        W15151   9.783  38.560  11.592
50944W        W15152   2.966  10.747   1.737
50945W        W15153  22.051   8.801  13.492
50946W        W15154  20.228  34.866   0.439
50947W        W15155   6.792  39.497  10.403
50948W        W15156  12.181   3.824  12.443
50949W        W15157  22.126  17.773   3.325
50950W        W15158  16.767   2.373  13.995
50951W        W15159  14.152  33.060   2.373
50952W        W15160  31.957   5.759   9.940
50953W        W15161   3.795  29.433  12.961
50954W        W15162  41.909  26.492   4.161
50955W        W15163  42.375   0.824   2.810
50956W        W15164  24.132  20.157  13.501
50957W        W15165   8.882   1.751   2.725
50958W        W15166  12.293   0.989  13.803
50959W        W15167  38.829  28.001  14.875
50960W        W15168   5.846  18.197  10.919
50961W        W15169  30.992  20.227   4.199
50962W        W15170  44.308  26.698   0.436
50963W        W15171  40.847  21.716  12.470
50964W        W15172   3.745  30.954  14.306
50965W        W15173  12.777  23.540  14.845
50966W        W15174  31.906  43.324  13.481
50967W        W15175  31.571  15.293   2.179
50968W        W15176  41.916  40.948   0.453
50969W        W15177  29.559  31.088   0.260
50970W        W15178  39.527  12.130   1.847
50971W        W15179  13.136  12.621   3.672
50972W        W15180  21.647  34.461  10.941
50973W        W15181  25.608  40.924   0.943
50974W        W15182  41.408  29.091  10.587
50975W        W15183  26.206  20.086  13.007
50976W        W15184   8.704  10.191  10.548
50977W        W15185  16.240  39.433   2.902
50978W        W15186  21.156  39.974  14.297
50979W        W15187  43.813  19.718  11.041
50980W        W15188   6.911  42.477  11.093
50981W        W15189  36.968  10.199  14.934
50982W        W15190   7.682  20.098   2.412
50983W        W15191  24.671   5.765   1.243
50984W        W15192  18.553  33.946   1.829
50985W        W15193  20.711  13.698   1.439
50986W        W15194  12.340   8.375   4.273
50987W        W15195   5.722  43.439   2.293
50988W        W15196   0.930  11.637   2.297
50989W        W15197  37.852   5.435  10.636
50990W        W15198   9.752  31.591  12.374
50991W        W15199  29.081  35.907   4.348
50992W        W15200  41.335  23.042   1.707
50993W        W15201  16.310  29.044  12.519
50994W        W15202   2.394   1.887  13.963
50995W        W15203   4.726   8.271  13.857
50996W        W15204  44.424   7.296  10.155
50997W        W15205  28.050  18.606   0.458
50998W        W15206  23.587   8.897  12.881
50999W        W15207  22.049  35.413  12.967
51000W        W15208  37.001  42.014   4.203
51001W        W15209  23.731  33.389  10.915
51002W        W15210  44.313  28.441  14.856
51003W        W15211   3.916  24.629  10.462
51004W        W15212   4.705  15.121   0.280
51005W        W15213  28.645  16.809   4.231
51006W        W15214  42.016   5.355   1.875
51007W        W15215  18.153   8.727  10.036
51008W        W15216  28.585  44.001   0.405
51009W        W15217   1.975  31.118   5.101
51010W        W15218  29.607  15.627  14.423
51011W        W15219  34.413   2.937  14.024
51012W        W15220  20.718  35.889   3.739
51013W        W15221  23.680  13.287   3.714
51014W        W15222   4.336  18.054  13.873
51015W        W15223  39.390  27.604  11.937
51016W        W15224   2.333  23.653  14.277
51017W        W15225  10.867   5.817  14.782
51018W        W15226  43.956   3.319  11.528
51019W        W15227  19.260  35.855  14.415
51020W        W15228  29.643  15.117   3.789
51021W        W15229  17.575   3.344  12.906
51022W        W15230  27.028  13.649  12.877
51023W        W15231  16.627  21.607  14.955
51024W        W15232   2.298  44.303   4.726
51025W        W15233  23.528  37.434   4.605
51026W        W15234   2.871  21.693  14.927
51027W        W15235   0.437   0.463   1.880
51028W        W15236   2.815  18.563  14.346
51029W        W15237   5.391  26.528  11.554
51030W        W15238  16.736  41.925   1.810
51031W        W15239  22.177   1.941   4.228
51032W        W15240  23.658   9.206   2.221
51033W        W15241  14.697  18.279   1.434
51034W        W15242  16.261  41.898   3.853
51035W        W15243  24.010  17.561  14.388
51036W        W15244  22.082  39.839  14.307
51037W        W15245  14.215  16.655  14.417
51038W        W15246  20.182   6.836   1.313
51039W        W15247  28.975  35.442   2.289
51040W        W15248  30.950  15.594   1.299
51041W        W15249  35.506   4.243  10.414
51042W        W15250   1.286   4.880   5.566
51043W        W15251  41.911  30.635   2.369
51044W        W15252  34.479  35.511  11.057
51045W        W15253   2.857  27.645   0.882
51046W        W15254  11.758   7.855   3.258
51047W        W15255  20.171   0.979  10.973
51048W        W15256  10.785  20.593  12.563
51049W        W15257   3.783  19.684  14.362
51050W        W15258  30.917  29.452   2.786
51051W        W15259  18.562   4.760  11.458
51052W        W15260  25.705   7.815  11.876
51053W        W15261   5.918  39.018  11.945
51054W        W15262  34.866  17.651  12.428
51055W        W15263  24.051  44.888   4.761
51056W        W15264  21.543  18.149  11.376
51057W        W15265  23.662   6.284  13.832
51058W        W15266  44.309   8.764   1.931
51059W        W15267  25.061  42.341   1.378
51060W        W15268  13.343  32.629  11.387
51061W        W15269  19.235  28.511   3.245
51062W        W15270  25.066  37.997   3.824
51063W        W15271  41.819   2.754  10.966
51064W        W15272  16.725   4.439   3.665
51065W        W15273  14.204  15.734   4.298
51066W        W15274  11.732   8.868  12.934
51067W        W15275  24.664  16.767  10.577
51068W        W15276   9.666  32.420   1.302
51069W        W15277   6.865   8.816   4.838
51070W        W15278  14.717  16.291   4.597
51071W        W15279  41.913  33.551  12.041
51072W        W15280  20.669  21.620   4.187
51073W        W15281   5.271   6.270  14.869
51074W        W15282  24.708   1.834   4.619
51075W        W15283  22.516  40.866   0.256
51076W        W15284   6.217  19.051  10.537
51077W        W15285   8.758  10.681   0.751
51078W        W15286  33.507  15.219  12.062
51079W        W15287   8.164   6.298   1.267
51080W        W15288  41.343  10.197   0.453
51081W        W15289  12.319   7.750  13.949
51082W        W15290  27.677   9.374   1.933
51083W        W15291  12.800  41.305   1.760
51084W        W15292  20.649  12.641  13.948
51085W        W15293   3.431   0.273   0.841
51086W        W15294  19.146  15.735   4.761
51087W        W15295  34.432  42.345   2.212
51088W        W15296  37.462  43.377  14.853
51089W        W15297   9.816  41.537  14.406
51090W        W15298  43.799  29.134   5.247
51091W        W15299  17.084  28.480  10.451
51092W        W15300  14.159  32.052  11.529
51093W        W15301  15.757  20.107   3.242
51094W        W15302  18.789  27.493  11.576
51095W        W15303  16.736  26.960  13.864
51096W        W15304  28.521  41.941   2.758
51097W        W15305   2.467  35.539   4.202
51098W        W15306  35.047   1.254   4.242
51099W        W15307  28.085   1.480   3.292
51100W        W15308  25.214   3.735   0.404
51101W        W15309  25.576   9.369  13.976
51102W        W15310  36.378  28.023  11.428
51103W        W15311  24.657  42.845  13.016
51104W        W15312   7.338  30.124   3.744
51105W        W15313  27.031   1.750  11.856
51106W        W15314  30.079  26.482  11.009
51107W        W15315  42.401   6.238  10.892
51108W        W15316   9.809   7.751  12.367
51109W        W15317   6.823  18.137  12.423
51110W        W15318  24.578  22.067  10.476
51111W        W15319  30.917  14.589   0.473
51112W        W15320  44.366  24.556  10.561
51113W        W15321   2.386  36.358  13.344
51114W        W15322  33.504  35.080   0.768
51115W        W15323  17.257  21.019   1.251
51116W        W15324  35.883  38.924   1.396
51117W        W15325   5.352  44.421  14.913
51118W        W15326  35.901  43.335   4.815
51119W        W15327  19.130  44.766   2.796
51120W        W15328  44.369  14.098  11.066
51121W        W15329  32.497   7.358   1.749
51122W        W15330   6.219  36.456   2.381
51123W        W15331  27.096   0.965   4.258
51124W        W15332  27.612  10.305   2.837
51125W        W15333  37.891  26.478  12.429
51126W        W15334  29.448  19.545  10.988
51127W        W15335  11.666  11.206  13.323
51128W        W15336  31.053  33.966   4.252
51129W        W15337  13.827  41.423   3.384
51130W        W15338   4.358   3.763   0.444
51131W        W15339   7.697   7.907  11.043
51132W        W15340  12.234  42.402  13.817
51133W        W15341  44.289  12.355   1.701
51134W        W15342  15.621  26.190   1.230
51135W        W15343   9.318  19.118  12.093
51136W        W15344   7.193  35.460   1.347
51137W        W15345  29.490  36.544   4.650
51138W        W15346  22.078  32.533   4.161
51139W        W15347   4.860  12.301   0.839
51140W        W15348  16.668  20.738  11.479
51141W        W15349  18.227  25.025  11.869
51142W        W15350   1.784  35.522  12.377
51143W        W15351  16.251  32.036   4.202
51144W        W15352  29.024  27.092  11.915
51145W        W15353  20.529   5.737   3.195
51146W        W15354   7.173  20.640  13.466
51147W        W15355  23.610  16.578  12.990
51148W        W15356  12.619  35.423  13.821
51149W        W15357  15.206  33.395  11.066
51150W        W15358  38.898  39.468  14.481
51151W        W15359  44.353  29.514  12.411
51152W        W15360  32.959  30.487   4.157
51153W        W15361  15.820  38.880  14.511
51154W        W15362  13.636  15.614  13.445
51155W        W15363  36.930  29.106   1.771
51156W        W15364   2.735  44.274  14.336
51157W        W15365  41.452  38.003   0.271
51158W        W15366  42.919   7.881   3.691
51159W        W15367  12.171   9.295   3.780
51160W        W15368  44.449   3.773   2.241
51161W        W15369  44.264  32.925  10.540
51162W        W15370  11.865  29.640   2.713
51163W        W15371  42.314   3.348  13.880
51164W        W15372  39.042   6.847   3.772
51165W        W15373  26.049   9.794   4.173
51166W        W15374  37.085  29.044  10.518
51167W        W15375  11.310  36.592   0.784
51168W        W15376   0.863  22.127   1.744
51169W        W15377  33.084  38.514   4.331
51170W        W15378  21.193  36.477   4.782
51171W        W15379  12.712  31.034  10.478
51172W        W15380  31.411  16.628   1.845
51173W        W15381  33.458  12.843  14.933
51174W        W15382  32.621  30.118  11.597
51175W        W15383   6.318  21.143  11.968
51176W        W15384  19.755  36.466  12.999
51177W        W15385   4.753  30.998   4.216
51178W        W15386   2.413  32.395   2.854
51179W        W15387  16.249  10.865   0.456
51180W        W15388  10.682  26.550   1.698
51181W        W15389   5.245  11.165   4.268
51182W        W15390  11.782  28.580  10.625
51183W        W15391  37.562  32.582  12.052
51184W        W15392  34.485  29.094   1.755
51185W        W15393   7.905  35.989   4.194
51186W        W15394  17.158  34.008  13.966
51187W        W15395  15.731  38.542  14.925
51188W        W15396  24.623  39.552   0.279
51189W        W15397  39.956  29.922   3.189
51190W        W15398   5.822  29.937  11.990
51191W        W15399  21.017  19.534  11.904
51192W        W15400  35.906  33.456  12.574
51193W        W15401  36.845  11.714   3.252
51194W        W15402   6.188   4.294  14.999
51195W        W15403  32.078  11.682   1.441
51196W        W15404  25.590   9.378   1.910
51197W        W15405  28.553  20.121  12.485
51198W        W15406  16.276   2.726  13.377
51199W        W15407  31.076  18.657   5.230
51200W        W15408   2.286   1.739  13.355
51201W        W15409  21.199  12.180  11.871
51202W        W15410  28.055  44.008  14.786
51203W        W15411  13.230   0.253  14.446
51204W        W15412  44.260  33.393   2.250
51205W        W15413  10.229  24.191   1.802
51206W        W15414  39.963  19.735  12.410
51207W        W15415  12.804  40.983  12.384
51208W        W15416  39.872  22.731   2.221
51209W        W15417  24.542   8.715   1.804
51210W        W15418  25.209   8.863   1.925
51211W        W15419  32.618  30.990   4.754
51212W        W15420  27.165  33.609   2.873
51213W        W15421  21.154  42.454  10.923
51214W        W15422  15.602  20.076  12.026
51215W        W15423  28.016   1.760   1.794
51216W        W15424  29.114   7.895   0.795
51217W        W15425  15.106  32.008  12.571
51218W        W15426  40.000  29.561  13.054
51219W        W15427  38.852  11.167   4.801
51220W        W15428  16.785  35.096  11.902
51221W        W15429  33.623  26.681   3.222
51222W        W15430   4.856  43.828  10.892
51223W        W15431  15.259  37.878   2.264
51224W        W15432  38.502  44.288  10.632
51225W        W15433   5.742  27.600  11.454
51226W        W15434  38.910  42.368   1.769
51227W        W15435   8.870  29.955   4.627
51228W        W15436  23.160  14.302   0.848
51229W        W15437   6.843  17.269   3.191
51230W        W15438  17.701  19.726   2.348
51231W        W15439   6.728  32.628   2.338
51232W        W15440  39.880  35.960  10.892
51233W        W15441  38.045   7.812  13.847
51234W        W15442  14.131  21.065  13.803
51235W        W15443  22.605  11.816  11.952
51236W        W15444   6.911  21.254  14.996
51237W        W15445  38.863  22.503  14.276
51238W        W15446  41.442  37.417  10.994
51239W        W15447  35.084  36.455  13.464
51240W        W15448   7.677  20.267   3.710
51241W        W15449  37.460   6.383   4.165
51242W        W15450  10.221  27.016   2.357
51243W        W15451  37.836  39.502  14.964
51244W        W15452   3.429  21.633  13.381
51245W        W15453  43.916  20.755  13.891
51246W        W15454   8.160  19.634   3.644
51247W        W15455  43.805  33.542   1.435
51248W        W15456  14.224  22.617  13.509
51249W        W15457  14.808   7.678   4.607
51250W        W15458   4.274  19.712  11.432
51251W        W15459   7.782  17.220   0.409
51252W        W15460  17.177  41.339  12.906
51253W        W15461  16.266  20.623   2.285
51254W        W15462  23.654   4.731  13.365
51255W        W15463   0.443  19.196   1.316
51256W        W15464   3.746  13.693   2.831
51257W        W15465  25.564   3.720  12.038
51258W        W15466  29.165  29.047  13.366
51259W        W15467   9.656  21.205  14.390
51260W        W15468  23.521  12.844   3.631
51261W        W15469  33.575  26.156  12.520
51262W        W15470  44.897  15.699   4.750
51263W        W15471  39.537  12.625  12.915
51264W        W15472  16.309  15.172  14.801
51265W        W15473  18.621  13.260  10.905
51266W        W15474  17.257   3.820   3.363
51267W        W15475   1.371  44.266  12.508
51268W        W15476  37.382  20.757  12.424
51269W        W15477  33.541  33.486  13.808
51270W        W15478  35.087  24.095  12.071
51271W        W15479  38.860  35.381  14.487
51272W        W15480  12.835  17.598   3.156
51273W        W15481  10.825  42.021  11.522
51274W        W15482  22.733   3.277  14.763
51275W        W15483  35.439  40.950  12.953
51276W        W15484   2.348  34.401   5.303
51277W        W15485  27.108  30.619  13.874
51278W        W15486  15.148   3.422  12.986
51279W        W15487  41.327  13.801   2.313
51280W        W15488  17.740  24.001   0.314
51281W        W15489  42.892  10.776  13.350
51282W        W15490  35.477  33.512   3.377
51283W        W15491  11.343  40.491   3.197
51284W        W15492   5.911  36.368   3.359
51285W        W15493   3.841  37.365   1.395
51286W        W15494  15.166  44.377  12.001
51287W        W15495  42.877  42.824   0.480
51288W        W15496  44.427  27.680  12.840
51289W        W15497  30.079  10.854  12.039
51290W        W15498   1.384  40.010  13.461
51291W        W15499  44.804  15.731   2.240
51292W        W15500  31.042  34.460   3.659
51293W        W15501  40.033   3.739   9.491
51294W        W15502   2.268  21.076   3.197
51295W        W15503  28.963  11.242   0.296
51296W        W15504  17.123   6.802   3.266
51297W        W15505  19.256  42.291   2.338
51298W        W15506   8.732   4.424  11.444
51299W        W15507   2.752  16.241  14.318
51300W        W15508  20.120   8.872   0.901
51301W        W15509  16.607  22.163  14.317
51302W        W15510   1.344  26.550   2.868
51303W        W15511  26.159  24.519  11.043
51304W        W15512  22.736  28.540  11.591
51305W        W15513  24.044  44.823  13.063
51306W        W15514  14.725   4.342   3.344
51307W        W15515  40.032   2.844  10.436
51308W        W15516  43.391  44.849  14.511
51309W        W15517  14.819   6.417  13.051
51310W        W15518  17.205   0.814  14.484
51311W        W15519  24.601  43.894   0.950
51312W        W15520  33.042   8.673  12.842
51313W        W15521   1.253   7.352  11.882
51314W        W15522  33.033  10.676   3.750
51315W        W15523  40.823  32.534  13.025
51316W        W15524  37.921   0.959   9.987
51317W        W15525  37.074  27.164   0.352
51318W        W15526   5.355  34.074   4.191
51319W        W15527   1.957  20.712  13.931
51320W        W15528   3.239  17.559  14.343
51321W        W15529   8.684   2.776   4.797
51322W        W15530  42.903  11.711  13.533
51323W        W15531   3.310  26.672   4.114
51324W        W15532  10.669  41.426  14.014
51325W        W15533   3.415  24.209  10.939
51326W        W15534  37.465   0.891  13.524
51327W        W15535  10.327   0.747  12.450
51328W        W15536  15.620   8.738  12.021
51329W        W15537  22.248  22.128  13.902
51330W        W15538  35.037   7.299  13.809
51331W        W15539   7.784  25.173   4.752
51332W        W15540  34.564  20.581  13.525
51333W        W15541  15.596   1.883  12.829
51334W        W15542  41.442  34.540  14.792
51335W        W15543   9.698  40.889   1.338
51336W        W15544  33.000  44.437  10.982
51337W        W15545  32.544  33.431   3.371
51338W        W15546  36.475  41.969   4.344
51339W        W15547   4.372  25.610  14.958
51340W        W15548   7.715  17.650  14.487
51341W        W15549  18.271   6.729   2.248
51342W        W15550  41.438  25.150  13.541
51343W        W15551   7.788  38.409   3.290
51344W        W15552  37.378   0.289  12.832
51345W        W15553  41.346  33.468  12.900
51346W        W15554  29.141   3.722   0.481
51347W        W15555  19.142   2.944   1.909
51348W        W15556  37.547   2.228  13.403
51349W        W15557  12.817   3.270  14.327
51350W        W15558  26.600  28.674   1.272
51351W        W15559  27.004  35.000   3.212
51352W        W15560  37.859  30.142   4.296
51353W        W15561   5.903  43.311  14.872
51354W        W15562  35.896   7.353   1.886
51355W        W15563   7.407  17.564  12.422
51356W        W15564  24.702   4.209  14.375
51357W        W15565  41.889  28.133   1.266
51358W        W15566  17.255  28.153  10.126
51359W        W15567   0.289  32.494   5.721
51360W        W15568  28.550   9.249  10.529
51361W        W15569   2.743  42.520  13.861
51362W        W15570  33.587  44.385  11.110
51363W        W15571   2.875  35.032   4.166
51364W        W15572  13.665  41.528   2.263
51365W        W15573  28.996  31.037  12.485
51366W        W15574  35.040  16.606  11.472
51367W        W15575  11.787  44.863  11.035
51368W        W15576  38.848   9.155  13.970
51369W        W15577  30.495  15.702   3.359
51370W        W15578  13.123  10.159   0.390
51371W        W15579  13.764  15.612   2.418
51372W        W15580  30.960   1.799  10.088
51373W        W15581  17.307  18.609  14.865
51374W        W15582   9.316  30.553  13.547
51375W        W15583  12.769  39.335  12.418
51376W        W15584  40.345  33.052  14.761
51377W        W15585  31.969  37.962   3.344
51378W        W15586   2.454  27.484  13.925
51379W        W15587  16.117  32.928  11.420
51380W        W15588   2.921  30.567   4.272
51381W        W15589  11.678  30.093  14.329
51382W        W15590  14.695  14.193  14.457
51383W        W15591   5.787   3.263  13.476
51384W        W15592  31.473  30.126  11.594
51385W        W15593   7.801  44.768   1.432
51386W        W15594  21.206  30.436   5.105
51387W        W15595  21.199  39.011   1.359
51388W        W15596  15.797   5.261  13.323
51389W        W15597  24.188  36.491   3.783
51390W        W15598  18.133  23.072   3.273
51391W        W15599  38.441  43.821  13.915
51392W        W15600  43.932  22.095  13.044
51393W        W15601  25.500  39.866   2.858
51394W        W15602  26.036  24.208   2.244
51395W        W15603   4.401   0.858   4.659
51396W        W15604   6.348  10.683   2.226
51397W        W15605  10.263  44.364   4.708
51398W        W15606   6.202   3.810   1.439
51399W        W15607  26.992  43.891   0.762
51400W        W15608   9.883  25.205  14.815
51401W        W15609  36.558   3.342  10.464
51402W        W15610   2.234  24.976  14.431
51403W        W15611  28.516  31.004   0.303
51404W        W15612   3.718  17.152  11.871
51405W        W15613  32.122  32.565  12.878
51406W        W15614  21.679  14.110  11.027
51407W        W15615  25.048  19.066   0.880
51408W        W15616  25.006  18.662  11.497
51409W        W15617   4.248  15.295  10.581
51410W        W15618   9.281   3.750   4.199
51411W        W15619  44.378  32.596  14.860
51412W        W15620  25.677  42.910  11.018
51413W        W15621  40.307   6.908   0.836
51414W        W15622  12.231  20.571   3.297
51415W        W15623  15.213  37.442   0.419
51416W        W15624  25.159  17.615  10.453
51417W        W15625  14.719  30.062   3.243
51418W        W15626  21.146  18.557   0.477
51419W        W15627  12.269  10.836  10.471
51420W        W15628  24.000  19.172   1.924
51421W        W15629  14.829  19.780   2.693
51422W        W15630   3.830  36.921  11.925
51423W        W15631  25.976  28.444   4.803
51424W        W15632  32.551   9.257   1.763
51425W        W15633  35.944   2.812   4.231
51426W        W15634  30.475  18.613   0.863
51427W        W15635  30.478  25.075  13.049
51428W        W15636  42.382  13.638   1.788
51429W        W15637  33.093  10.382   1.245
51430W        W15638  34.520   5.765  14.274
51431W        W15639  14.151  31.603   1.447
51432W        W15640  42.883   4.734   4.208
51433W        W15641   6.698  10.334  10.432
51434W        W15642  20.065  39.859  11.375
51435W        W15643  38.029  16.782  14.285
51436W        W15644  14.139  21.627  11.918
51437W        W15645  37.966  16.301  10.903
51438W        W15646  36.930  33.622   1.257
51439W        W15647  35.567  42.493  12.844
51440W        W15648  11.695  27.665   3.213
51441W        W15649  16.238   1.976   3.638
51442W        W15650  43.827  41.428   4.797
51443W        W15651  10.756  12.636   3.774
51444W        W15652  33.019   0.329  10.498
51445W        W15653  21.598  36.974   3.730
51446W        W15654  41.822   8.369   1.851
51447W        W15655  21.515  22.012  14.350
51448W        W15656   9.822  25.536   3.684
51449W        W15657  44.883   8.729   4.654
51450W        W15658   5.927  13.242   0.351
51451W        W15659  14.687  34.566  12.053
51452W        W15660  35.102  18.056   1.815
51453W        W15661  26.165  41.957  14.875
51454W        W15662  16.317   2.834   4.259
51455W        W15663  40.347  26.208   4.613
51456W        W15664  31.511  43.802  12.059
51457W        W15665  16.101  32.985   3.804
51458W        W15666  38.342  23.681  14.421
51459W        W15667   9.219  12.329   1.873
51460W        W15668  18.731  12.344   2.823
51461W        W15669   8.787  10.236  10.983
51462W        W15670  13.647  31.064  13.461
51463W        W15671   6.781  30.118  13.503
51464W        W15672  31.028  13.626   9.954
51465W        W15673  42.011  25.544   1.341
51466W        W15674   1.273  31.128   2.362
51467W        W15675   5.201  13.650  14.292
51468W        W15676  28.934  43.913  12.013
51469W        W15677  31.610  23.718  13.940
51470W        W15678  29.073  42.874  14.830
51471W        W15679  32.556  42.941  12.345
51472W        W15680   8.270   5.825  13.426
51473W        W15681  20.691  15.653  12.909
51474W        W15682  29.656   3.816   3.857
51475W        W15683  27.133  39.482  14.879
51476W        W15684  35.034   2.457   0.898
51477W        W15685  31.030  10.782  12.365
51478W        W15686  10.801  33.888  14.762
51479W        W15687  20.178  16.080   2.883
51480W        W15688   9.204   1.443   4.209
51481W        W15689   8.768  13.183  14.434
51482W        W15690  14.617  30.415   0.432
51483W        W15691  26.601  43.513  14.923
51484W        W15692  13.267  23.689  11.108
51485W        W15693   4.856  17.658   3.195
51486W        W15694   1.959   9.301  13.460
51487W        W15695  23.544   6.782  12.030
51488W        W15696  15.298  22.603   2.833
51489W        W15697  43.021  17.280  12.402
51490W        W15698  29.142   9.781  13.025
51491W        W15699  11.229  25.968   2.194
51492W        W15700   7.401  14.753   0.419
51493W        W15701  28.086   7.849  11.385
51494W        W15702  26.044  27.051  10.445
51495W        W15703  26.550  20.548  11.525
51496W        W15704  43.805  34.081  14.852
51497W        W15705  14.752   1.438  11.051
51498W        W15706   0.777  33.421  14.440
51499W        W15707   6.769   8.393  10.412
51500W        W15708  10.260  25.047  10.491
51501W        W15709  19.717  23.051  10.524
51502W        W15710   2.365  43.396   1.913
51503W        W15711  28.945  11.264  11.502
51504W        W15712   6.418  14.826  14.511
51505W        W15713   6.825  25.016  14.925
51506W        W15714  31.633  10.635  12.027
51507W        W15715  21.029  31.612  14.975
51508W        W15716  37.985  16.249  14.989
51509W        W15717   0.290  14.667  11.461
51510W        W15718  40.943   8.360  11.974
51511W        W15719  32.523   3.284  13.802
51512W        W15720  40.944  18.767  14.471
51513W        W15721  28.931  22.187  14.339
51514W        W15722  30.447  27.990   0.362
51515W        W15723  23.728  22.718   0.920
51516W        W15724  38.568   7.287   2.302
51517W        W15725  42.948  32.083  11.115
51518W        W15726  33.879  18.280  11.878
51519W        W15727  18.250  24.088   2.196
51520W        W15728  36.901  19.631  10.907
51521W        W15729  31.427  18.623   3.162
51522W        W15730  38.029  13.619   1.246
51523W        W15731  34.488  44.790   4.795
51524W        W15732  13.758  34.984  10.911
51525W        W15733  26.149  21.723  12.574
51526W        W15734  42.364  43.841   4.733
51527W        W15735  19.663  17.680   1.368
51528W        W15736  23.187  21.134   2.791
51529W        W15737  26.529  10.740  11.944
51530W        W15738   1.855   1.944   1.322
51531W        W15739   0.818  40.355   2.881
51532W        W15740  28.616  18.152   3.325
51533W        W15741  22.109  19.616  12.562
51534W        W15742   1.416  27.124  13.454
51535W        W15743  17.165  24.019  11.483
51536W        W15744  29.493  18.768  12.978
51537W        W15745  32.968   7.732  11.887
51538W        W15746  35.359  28.610   2.709
51539W        W15747   5.931   9.332   1.709
51540W        W15748   6.425  25.995   1.255
51541W        W15749   7.815  19.541   0.441
51542W        W15750  19.742   9.391   3.242
51543W        W15751  10.260  44.414   2.683
51544W        W15752   6.870   7.244   3.646
51545W        W15753  33.047  39.998   2.855
51546W        W15754  32.961  38.540   0.922
51547W        W15755   8.398  29.490   3.380
51548W        W15756   5.325  32.001  12.077
51549W        W15757  18.553  25.123  10.544
51550W        W15758  18.746   0.878   3.677
51551W        W15759  44.305  12.199   5.282
51552W        W15760   9.646   1.307   1.409
51553W        W15761   7.294  17.226  11.867
51554W        W15762  17.691  14.636   1.445
51555W        W15763  20.701  14.300  12.568
51556W        W15764  33.509  35.486  12.054
51557W        W15765   3.912  21.128  14.760
51558W        W15766  28.562  40.996   3.251
51559W        W15767   9.311   2.379   3.266
51560W        W15768  40.485  24.141   1.249
51561W        W15769  29.057  27.519   3.638
51562W        W15770  24.536  22.741   4.331
51563W        W15771  35.067  15.297  11.488
51564W        W15772  42.305  17.730   2.682
51565W        W15773  23.541   5.278   2.844
51566W        W15774   3.244   4.218  13.368
51567W        W15775  21.568  41.861  15.000
51568W        W15776  10.871  30.999   3.234
51569W        W15777  17.765  32.455  12.531
51570W        W15778  27.527  42.776   3.661
51571W        W15779  38.064  27.064   3.729
51572W        W15780  33.464  43.988   2.896
51573W        W15781   9.335  27.553  13.845
51574W        W15782  22.704   0.801   5.172
51575W        W15783  32.628  25.559   4.334
51576W        W15784  33.041  41.018  11.426
51577W        W15785  17.792  36.588   9.961
51578W        W15786  35.599   9.762   2.385
51579W        W15787  12.221   1.800   0.778
51580W        W15788  41.028  32.133  14.847
51581W        W15789  27.151  36.052  13.426
51582W        W15790   3.840  42.937   2.411
51583W        W15791  37.956  21.634   1.717
51584W        W15792   5.745  11.622   4.775
51585W        W15793  33.457  41.988  11.977
51586W        W15794  32.886  36.475   3.359
51587W        W15795  12.236  35.374   2.203
51588W        W15796  42.481  18.551   1.699
51589W        W15797  43.797  39.439   2.222
51590W        W15798  30.061  14.683   0.442
51591W        W15799  44.412  31.506  14.375
51592W        W15800  32.573  42.862   4.644
51593W        W15801  33.984  36.964   1.270
51594W        W15802  28.665   5.203  14.911
51595W        W15803  30.930  21.247  12.007
51596W        W15804   6.409  25.705  10.478
51597W        W15805  18.181  33.499   3.641
51598W        W15806  32.587  32.894  12.563
51599W        W15807  22.594   5.353  12.437
51600W        W15808  29.020  14.676   5.085
51601W        W15809  19.039  33.035  11.525
51602W        W15810  11.742  17.630  10.947
51603W        W15811  24.147  37.902   2.344
51604W        W15812  15.219   2.861  14.395
51605W        W15813  25.572   1.972   1.833
51606W        W15814  41.304  29.668  11.563
51607W        W15815  19.117  30.088  10.492
51608W        W15816   5.687  43.962   3.184
51609W        W15817  33.011  20.057   3.354
51610W        W15818  21.633  14.659   4.691
51611W        W15819  24.096  29.084   1.431
51612W        W15820  20.651  38.056  12.916
51613W        W15821   5.739   3.437  13.921
51614W        W15822   0.807  20.628   1.247
51615W        W15823  42.288  26.995  13.052
51616W        W15824  15.221  15.752  10.987
51617W        W15825  29.620  24.030  11.380
51618W        W15826   1.842   8.248   2.307
51619W        W15827  32.399  23.616  14.810
51620W        W15828  28.667   0.917   1.274
51621W        W15829  29.990  28.494  11.383
51622W        W15830  29.492  42.012  13.454
51623W        W15831   0.877  31.500  11.127
51624W        W15832  13.118  33.950   2.200
51625W        W15833  44.502   4.231   2.353
51626W        W15834   8.732  37.988  14.342
51627W        W15835  43.491  42.514   3.169
51628W        W15836  30.532  18.191   9.920
51629W        W15837  31.112  24.162  14.446
51630W        W15838   8.733  19.704  13.802
51631W        W15839  42.855  10.639  11.375
51632W        W15840  37.902  38.457  10.642
51633W        W15841   2.955  42.881  14.844
51634W        W15842  28.117  28.669   3.832
51635W        W15843   5.241  36.459  13.364
51636W        W15844  40.814  33.941  14.429
51637W        W15845   8.855   0.443   4.639
51638W        W15846  18.148  12.223   2.732
51639W        W15847  16.711  30.983  14.423
51640W        W15848   8.217   0.779  11.448
51641W        W15849  10.867  28.045  13.389
51642W        W15850  38.393  41.477  13.831
51643W        W15851   5.693   2.916  10.622
51644W        W15852  13.106  26.546  14.938
51645W        W15853  10.300  15.276   3.692
51646W        W15854  39.537  21.625   0.823
51647W        W15855   4.447  34.887  13.326
51648W        W15856  19.228  11.227   4.606
51649W        W15857  27.034  13.786   0.310
51650W        W15858  41.888  16.694  12.966
51651W        W15859   4.887  35.492   2.834
51652W        W15860  28.516  27.123   1.838
51653W        W15861  32.029  35.601   4.832
51654W        W15862   5.228  31.923  13.375
51655W        W15863  14.806  41.865  14.887
51656W        W15864  38.972  40.021   4.715
51657W        W15865   9.702  20.089  10.499
51658W        W15866   2.326   7.868  14.023
51659W        W15867  25.618  44.984   1.304
51660W        W15868  38.937   9.243   2.379
51661W        W15869   2.737   3.367  10.992
51662W        W15870  40.434   6.799  10.470
51663W        W15871  15.676  40.383  13.030
51664W        W15872  23.020  42.385  12.832
51665W        W15873  18.110   0.857   0.341
51666W        W15874   3.809  36.856   9.514
51667W        W15875   6.289  40.803   3.793
51668W        W15876   4.366  10.143   1.842
51669W        W15877  14.321  21.127   0.276
51670W        W15878  44.967  25.548   1.273
51671W        W15879   8.778  37.442  14.296
51672W        W15880  14.250   6.306   2.315
51673W        W15881   5.351  20.670   0.370
51674W        W15882  12.307  36.997  12.083
51675W        W15883  34.439  35.996   0.733
51676W        W15884  35.853  34.031   2.708
51677W        W15885  13.696  43.875   3.657
51678W        W15886  37.032  39.867  14.024
51679W        W15887  31.438  30.447  12.557
51680W        W15888  25.654   7.241   2.839
51681W        W15889  33.918  28.630  13.892
51682W        W15890   1.845  29.938  13.367
51683W        W15891  20.136  14.677  11.965
51684W        W15892  32.076  42.462  14.893
51685W        W15893   7.860  14.817   0.379
51686W        W15894  29.136  26.000  14.954
51687W        W15895  38.446  44.456  14.931
51688W        W15896  10.746  20.661   3.730
51689W        W15897   4.212  34.098  13.444
51690W        W15898   3.732   4.317  14.821
51691W        W15899  10.238   0.343  14.388
51692W        W15900  10.852  20.668  13.000
51693W        W15901  14.626   4.906   3.793
51694W        W15902  42.340  23.115   4.228
51695W        W15903  37.900   3.744  13.506
51696W        W15904   2.416  29.004  14.475
51697W        W15905  22.693  21.622  10.422
51698W        W15906   3.826   1.439   0.866
51699W        W15907   3.873  37.975  14.858
51700W        W15908  44.274   4.932  11.454
51701W        W15909  13.228  43.380  11.528
51702W        W15910  30.155  10.175   0.321
51703W        W15911  44.842  10.868  12.445
51704W        W15912  37.542   1.765  14.006
51705W        W15913   6.323  41.434   1.276
51706W        W15914  27.687  24.715   2.834
51707W        W15915   0.251  16.732  14.010
51708W        W15916  30.998  43.782  14.935
51709W        W15917  37.877  19.263   1.856
51710W        W15918   7.704  33.557  11.454
51711W        W15919   6.901  28.962  13.458
51712W        W15920  39.043  41.529   3.821
51713W        W15921   8.658  22.043   2.715
51714W        W15922  39.012  35.108   1.373
51715W        W15923  30.490  37.994   1.847
51716W        W15924  29.598  24.020   0.774
51717W        W15925  29.622  38.883   1.868
51718W        W15926  30.582   1.816  14.939
51719W        W15927  44.800  18.075   1.366
51720W        W15928  25.636   2.424  12.547
51721W        W15929  33.874  17.729   0.736
51722W        W15930  36.573  32.019  12.433
51723W        W15931  19.725  30.540   2.342
51724W        W15932  39.972  43.958  11.459
51725W        W15933  18.649   1.784  12.996
51726W        W15934  39.959   0.957  14.893
51727W        W15935  20.108   7.315  14.503
51728W        W15936  17.578  11.632   0.407
51729W        W15937   3.279  13.646   4.323
51730W        W15938  40.422  39.009   4.179
51731W        W15939  41.390  41.332  14.792
51732W        W15940   7.717   2.819   4.800
51733W        W15941  26.659  17.567   3.199
51734W        W15942   9.238   2.450  11.050
51735W        W15943  19.096  31.067   0.343
51736W        W15944  31.120   3.296  14.904
51737W        W15945  10.299  28.013   0.450
51738W        W15946  14.336  32.506  12.078
51739W        W15947  16.783  42.854  10.555
51740W        W15948  36.954  34.409   1.834
51741W        W15949   0.382  43.438  11.505
51742W        W15950  28.515  33.601  13.432
51743W        W15951  33.917  22.237   4.742
51744W        W15952  10.838  12.355   4.604
51745W        W15953  37.542  31.033  10.967
51746W        W15954   9.845  38.032   2.846
51747W        W15955   7.775  16.253  14.875
51748W        W15956   4.831  22.596  12.442
51749W        W15957  44.283  35.571   0.887
51750W        W15958  20.753  26.130  14.883
51751W        W15959  10.236  11.221  14.975
51752W        W15960  20.729  12.691  12.830
51753W        W15961  25.088  34.583  10.986
51754W        W15962  28.078  23.514  11.402
51755W        W15963  43.843   4.241  14.469
51756W        W15964  19.040  13.607   1.875
51757W        W15965  15.236  32.479  13.851
51758W        W15966  33.607  10.632   0.834
51759W        W15967  20.752  24.175  10.434
51760W        W15968  27.497  32.967  12.836
51761W        W15969  13.235  27.543  14.880
51762W        W15970  15.671  21.103  10.480
51763W        W15971  41.034  33.078   0.960
51764W        W15972  38.350  20.202   2.407
51765W        W15973  19.648  22.226   0.752
51766W        W15974  37.498  32.613  12.384
51767W        W15975  10.785  19.204  14.820
51768W        W15976  35.526   2.471  10.607
51769W        W15977   9.767  20.609  13.462
51770W        W15978  37.433  34.511   1.321
51771W        W15979  17.649  14.591  14.476
51772W        W15980  39.944   7.832   1.211
51773W        W15981  19.737  37.549   1.295
51774W        W15982  23.128   3.759  12.010
51775W        W15983  30.028  32.089   4.702
51776W        W15984  18.288  16.129   0.875
51777W        W15985   4.447   9.732  10.925
51778W        W15986  42.401  36.854   3.654
51779W        W15987  17.774   9.796   0.767
51780W        W15988   2.272  31.130  14.317
51781W        W15989   8.750  43.778  14.888
51782W        W15990  40.923  13.169   4.808
51783W        W15991  30.553  24.099  13.434
51784W        W15992  29.591   0.977  12.874
51785W        W15993  34.973  30.588  12.558
51786W        W15994  16.795   7.229   2.281
51787W        W15995  24.098   6.805  12.093
51788W        W15996  33.550   0.762  10.582
51789W        W15997  27.045   6.736  10.597
51790W        W15998  38.987  15.736   3.180
51791W        W15999  24.062  27.961  10.456
51792W        W16000  43.438  16.593   4.806
51793W        W16001  10.362   6.228   4.345
51794W        W16002  33.403  31.039  12.447
51795W        W16003  24.001  21.086  11.586
51796W        W16004  19.142  38.502  11.055
51797W        W16005  24.217  17.108   1.838
51798W        W16006   1.873  19.779   4.661
51799W        W16007   2.944   5.695   4.774
51800W        W16008  34.073  10.175  11.571
51801W        W16009  34.074   1.956  11.903
51802W        W16010  32.982  27.607   3.720
51803W        W16011   4.782   5.869   4.733
51804W        W16012  32.136  37.424   0.250
51805W        W16013  36.465   6.757  14.993
51806W        W16014   5.429  42.777   2.808
51807W        W16015  15.266  40.519   3.198
51808W        W16016  29.663  28.968   0.728
51809W        W16017   4.294  23.625  14.372
51810W        W16018  21.706  28.036  14.002
51811W        W16019  42.361  26.179   1.922
51812W        W16020  14.835  33.625   9.927
51813W        W16021  23.170  35.107  13.308
51814W        W16022   4.738  34.096   1.814
51815W        W16023  26.981  28.564  14.289
51816W        W16024  35.448  12.318  13.036
51817W        W16025  20.233  15.695  10.628
51818W        W16026   6.717   3.920   2.849
51819W        W16027  10.730  43.938  11.987
51820W        W16028   8.393  19.272   0.775
51821W        W16029  35.062  30.468   3.675
51822W        W16030  12.169  30.652  11.412
51823W        W16031   8.724   4.921   2.672
51824W        W16032  21.256   6.686  14.003
51825W        W16033  18.566  24.556   2.265
51826W        W16034  43.927  41.872   1.343
51827W        W16035  24.083   9.172  13.437
51828W        W16036  28.959  29.100   4.605
51829W        W16037  38.947  38.463  14.364
51830W        W16038  25.004  17.765   4.809
51831W        W16039  27.179  37.424  10.540
51832W        W16040  11.258  37.898  14.334
51833W        W16041  35.981  15.192  14.918
51834W        W16042   8.826   0.327  11.963
51835W        W16043  10.832  16.184   2.850
51836W        W16044  11.865   5.290   1.333
51837W        W16045  13.144  35.897   0.306
51838W        W16046  25.666   4.399  11.376
51839W        W16047  30.156  21.627   4.706
51840W        W16048  22.636  23.639   9.932
51841W        W16049   4.205  30.927  14.776
51842W        W16050   8.760  37.013   1.331
51843W        W16051   2.726  34.425  12.499
51844W        W16052  36.438  18.275   2.853
51845W        W16053  28.522  36.574  12.032
51846W        W16054  43.812  21.087   4.601
51847W        W16055  17.194   3.742   2.870
51848W        W16056  42.030  20.581   2.859
51849W        W16057  37.367  18.553   1.721
51850W        W16058   0.255  16.207  12.928
51851W        W16059  42.923  23.013   0.475
51852W        W16060  37.461  35.918   1.777
51853W        W16061  30.912  43.381   3.305
51854W        W16062  17.602  12.280  14.966
51855W        W16063   7.796  13.805   0.270
51856W        W16064  33.428  42.976   0.952
51857W        W16065  12.676   8.301  10.925
51858W        W16066   3.460   1.935  11.032
51859W        W16067  27.064  14.744  14.442
51860W        W16068  23.490   6.794  12.544
51861W        W16069   4.862   9.178  14.824
51862W        W16070   0.981  27.016   0.807
51863W        W16071  12.288  44.901   0.861
51864W        W16072   4.875   0.325   3.696
51865W        W16073  22.227  10.879   1.399
51866W        W16074  13.779   9.844  10.978
51867W        W16075  13.304   3.324  11.873
51868W        W16076   3.888  34.051   2.799
51869W        W16077  28.663   3.429  11.111
51870W        W16078  18.572  10.179  14.345
51871W        W16079  39.050  16.572   1.718
51872W        W16080  41.333  30.501   3.283
51873W        W16081  24.480  26.163   1.366
51874W        W16082  40.510   1.475   4.323
51875W        W16083  37.959  31.408   2.380
51876W        W16084  42.430  16.791   9.977
51877W        W16085  17.693  39.555   2.690
51878W        W16086  38.479  27.014  11.930
51879W        W16087  24.179   4.270   0.265
51880W        W16088  14.821  41.853  13.462
51881W        W16089  15.208   5.797  13.804
51882W        W16090  18.652  23.677   1.214
51883W        W16091  14.101  15.619  14.337
51884W        W16092  33.579  16.135  14.942
51885W        W16093  20.705   5.740  11.577
51886W        W16094  20.102  29.505  10.975
51887W        W16095  40.029  30.981   4.176
51888W        W16096  31.536  32.934   2.219
51889W        W16097   8.240  31.505   1.408
51890W        W16098  26.150  35.958   3.281
51891W        W16099  28.062  31.584  12.501
51892W        W16100  42.465  15.755   2.897
51893W        W16101  19.144  41.436   3.240
51894W        W16102   5.748  12.267   4.680
51895W        W16103  26.100  37.868   0.447
51896W        W16104   9.197  33.981  12.417
51897W        W16105  16.110  38.550  10.935
51898W        W16106  38.021  23.990   0.753
51899W        W16107  34.450  35.897  12.543
51900W        W16108  10.837  26.029   1.409
51901W        W16109  30.128  28.177   4.647
51902W        W16110  44.757  20.104   3.301
51903W        W16111   2.340  44.835   3.799
51904W        W16112  42.802  34.381   4.329
51905W        W16113  23.618  12.756  13.422
51906W        W16114  36.988   2.439  11.613
51907W        W16115  36.884   4.876   4.354
51908W        W16116  30.018  13.146  14.971
51909W        W16117  38.991  31.090  12.838
51910W        W16118   8.796  11.658   0.276
51911W        W16119   8.191  19.118  13.913
51912W        W16120   1.407  19.190  11.450
51913W        W16121  21.617  34.480   4.780
51914W        W16122  21.746  14.643  13.314
51915W        W16123  16.680   7.797  14.508
51916W        W16124  42.510  36.059  12.001
51917W        W16125   9.250   4.881  13.862
51918W        W16126  12.234   8.204  11.964
51919W        W16127  29.440  18.265  11.023
51920W        W16128  13.726  30.143  13.452
51921W        W16129  27.669  29.647   4.309
51922W        W16130  18.653   7.764  13.324
51923W        W16131  30.529   3.916   2.222
51924W        W16132  29.091  16.091   0.913
51925W        W16133  36.499  16.236  10.484
51926W        W16134  12.305  42.943   4.256
51927W        W16135  33.558  41.987  13.443
51928W        W16136  17.618  42.498   2.358
51929W        W16137   4.390   1.419  10.489
51930W        W16138  21.676  27.459  13.914
51931W        W16139  29.152  22.702   2.321
51932W        W16140  11.721  39.851  11.581
51933W        W16141  36.458  29.571   0.416
51934W        W16142  36.956  16.635   3.726
51935W        W16143  16.720  37.567   1.367
51936W        W16144  41.875  36.552  14.874
51937W        W16145  44.939  15.148  13.038
51938W        W16146  14.769  17.208  12.030
51939W        W16147  38.428  38.517   1.307
51940W        W16148  30.095  33.099   4.665
51941W        W16149  17.565  33.594   9.943
51942W        W16150  38.855  26.670  10.464
51943W        W16151   2.460   4.223  13.424
51944W        W16152  41.921  37.387   3.147
51945W        W16153  15.634  17.783  14.957
51946W        W16154  23.715  19.210   1.835
51947W        W16155  32.991  12.223   2.732
51948W        W16156  42.310  14.242   1.740
51949W        W16157  12.165   9.228  14.334
51950W        W16158  16.799   5.216  14.872
51951W        W16159  35.479  20.040   1.391
51952W        W16160  17.604  13.182  12.013
51953W        W16161  43.467  38.565   4.228
51954W        W16162  10.304  43.881  10.462
51955W        W16163  36.346  16.112   3.382
51956W        W16164  37.369  26.161   0.245
51957W        W16165  10.313  10.850   1.794
51958W        W16166  33.923  18.563   1.767
51959W        W16167  23.143  15.683  13.020
51960W        W16168  25.131  16.782   3.260
51961W        W16169  24.203   7.302   0.280
51962W        W16170  26.643  17.771  13.519
51963W        W16171  22.660  21.668   0.368
51964W        W16172  15.633  24.207   0.255
51965W        W16173  42.935  38.074  13.941
51966W        W16174  29.640   0.433   0.909
51967W        W16175  40.823  20.231  13.808
51968W        W16176  11.721  35.046  13.535
51969W        W16177   3.217  29.504  11.562
51970W        W16178   9.667   3.821  14.965
51971W        W16179   8.706  16.220   4.190
51972W        W16180  13.697  33.004   4.197
51973W        W16181  44.340  10.664   0.277
51974W        W16182  11.741  14.592  11.468
51975W        W16183  39.881   3.363  13.946
51976W        W16184   8.178  10.859  14.980
51977W        W16185  44.324  21.141  10.954
51978W        W16186  42.798   9.246   0.286
51979W        W16187  44.286   8.857   3.635
51980W        W16188  32.628  39.357  12.475
51981W        W16189  24.483  14.332   1.906
51982W        W16190  40.497  39.009  13.996
51983W        W16191  25.670  19.732  12.481
51984W        W16192   8.663  23.602   2.375
51985W        W16193  42.360  32.564   0.835
51986W        W16194  11.127  22.613   4.716
51987W        W16195   0.773   9.665   4.208
51988W        W16196  36.490  21.111   1.835
51989W        W16197  19.097  32.591   3.814
51990W        W16198  44.352  35.098  12.394
51991W        W16199  11.337   4.880  11.936
51992W        W16200  30.541   6.919   3.722
51993W        W16201  11.725   1.975   1.893
51994W        W16202  16.176  23.147  14.973
51995W        W16203  37.052  40.980   3.667
51996W        W16204   0.336  38.888   3.371
51997W        W16205  44.366  22.235  10.044
51998W        W16206  32.626  22.503   0.395
51999W        W16207   4.799  43.456  12.437
52000W        W16208  10.367  14.136   5.569
52001W        W16209   1.924  42.362   1.278
52002W        W16210  41.017  13.326  11.051
52003W        W16211  15.631  18.598   3.221
52004W        W16212  18.634  17.583  12.502
52005W        W16213  20.240  16.679  14.872
52006W        W16214  43.278  31.449  14.433
52007W        W16215  14.132   9.839   2.188
52008W        W16216  29.570  41.428   3.723
52009W        W16217  12.774   7.387  13.813
52010W        W16218  12.842  33.998  11.071
52011W        W16219  14.233  22.165  13.826
52012W        W16220  31.013  14.627  14.822
52013W        W16221  18.090  10.361  13.990
52014W        W16222  43.923  24.720  12.990
52015W        W16223  25.070  34.893   1.312
52016W        W16224   6.853  11.643  13.446
52017W        W16225  16.712  32.136   0.966
52018W        W16226  10.200  11.802  12.895
52019W        W16227  44.405   4.352  11.416
52020W        W16228  10.861  11.726  10.601
52021W        W16229  24.553  26.134  10.955
52022W        W16230   4.806  37.428   5.178
52023W        W16231  42.385  36.369   0.885
52024W        W16232  33.431  15.661  12.374
52025W        W16233  34.606  40.872  14.794
52026W        W16234  23.089  35.884   4.345
52027W        W16235  33.100  30.155   4.246
52028W        W16236  21.188   6.251  14.336
52029W        W16237  39.006  19.143   3.722
52030W        W16238  23.647  24.014  11.066
52031W        W16239  16.699   4.826   1.846
52032W        W16240   2.391   4.908   5.228
52033W        W16241  33.114  17.751   4.222
52034W        W16242  35.506  35.907   3.361
52035W        W16243   6.736  18.111  14.843
52036W        W16244  30.549  38.043   4.248
52037W        W16245  28.184  34.588  13.854
52038W        W16246  15.581  13.147  11.435
52039W        W16247   0.767  24.649   0.829
52040W        W16248  14.772  17.061   0.337
52041W        W16249  13.839  39.443   1.778
52042W        W16250   8.304  28.533   4.315
52043W        W16251  29.514   2.946   4.217
52044W        W16252  33.085  33.952  14.462
52045W        W16253  36.504   9.351  11.048
52046W        W16254   0.491  41.856   0.899
52047W        W16255   2.791  21.133   4.237
52048W        W16256  31.939   3.427  12.060
52049W        W16257   3.336  42.322   1.810
52050W        W16258   2.723   2.418   1.926
52051W        W16259   3.448  18.210  10.043
52052W        W16260  35.109  26.605  11.077
52053W        W16261  13.198  36.895   3.869
52054W        W16262  10.656  31.941   0.407
52055W        W16263  16.104  35.086  14.862
52056W        W16264  28.466   5.315  11.415
52057W        W16265   0.834  22.074  14.946
52058W        W16266  32.625   7.266   4.296
52059W        W16267   3.238  10.685  12.838
52060W        W16268  24.071  12.818   3.363
52061W        W16269   1.912  41.346   0.836
52062W        W16270  40.387   5.709  12.506
52063W        W16271  43.971   3.848   4.169
52064W        W16272  18.637   8.200  10.940
52065W        W16273  37.499  36.500   2.313
52066W        W16274  37.964  33.915   4.815
52067W        W16275  15.640   1.247   1.270
52068W        W16276  42.807   5.377  10.506
52069W        W16277  15.321   5.350  11.915
52070W        W16278  41.896  42.858  10.918
52071W        W16279   9.393  31.455  12.507
52072W        W16280  27.088   9.284   0.342
52073W        W16281  11.808  29.056  10.917
52074W        W16282  32.513  38.435  11.486
52075W        W16283  13.119  17.800   1.372
52076W        W16284  23.212   8.179  13.858
52077W        W16285  34.492  37.027   3.868
52078W        W16286   7.377  34.010  14.302
52079W        W16287   2.453  27.175  11.396
52080W        W16288  22.555  35.890   4.830
52081W        W16289   1.307  14.256   0.907
52082W        W16290  10.242  41.354  13.348
52083W        W16291   3.926  37.459   2.862
52084W        W16292   6.294   9.788  10.612
52085W        W16293  18.785  13.211  11.943
52086W        W16294  14.823  12.271  14.316
52087W        W16295  34.925   8.684  12.398
52088W        W16296  19.680  37.917  12.573
52089W        W16297  26.962  27.056  11.520
52090W        W16298   8.199  26.153  11.410
52091W        W16299  29.608  35.037   0.841
52092W        W16300  44.900  25.614   2.381
52093W        W16301  19.182   4.880   3.356
52094W        W16302   4.897  39.383  14.946
52095W        W16303   7.871  14.295   4.192
52096W        W16304  32.515  33.885  10.403
52097W        W16305  38.019  32.957  14.792
52098W        W16306  24.074  10.806   0.306
52099W        W16307  44.982  40.953   4.285
52100W        W16308   1.820   1.449  11.400
52101W        W16309   1.929  44.839   1.714
52102W        W16310   4.869  24.142  10.643
52103W        W16311  10.287  12.359  14.292
52104W        W16312  17.194  17.182  14.312
52105W        W16313  19.567   8.177   3.247
52106W        W16314  10.671   1.810   1.408
52107W        W16315   6.826   8.875   1.351
52108W        W16316  23.041  34.398  14.018
52109W        W16317  40.813   2.349  14.424
52110W        W16318   8.241  43.304   1.304
52111W        W16319   8.755  20.258  14.782
52112W        W16320   6.920   8.194  14.973
52113W        W16321  24.169   2.844   3.800
52114W        W16322  18.743  42.799   0.963
52115W        W16323  38.329  36.022   1.868
52116W        W16324  12.636   0.822  11.443
52117W        W16325  15.243  14.136   3.195
52118W        W16326   0.914  32.087   2.348
52119W        W16327  44.888  21.682   4.341
52120W        W16328   4.788  39.465  12.055
52121W        W16329   3.813  12.289  11.106
52122W        W16330  33.581  28.637   3.285
52123W        W16331  30.453  16.757   1.298
52124W        W16332  25.071  23.203   3.676
52125W        W16333  30.130  38.989  14.372
52126W        W16334  21.066  17.096   0.885
52127W        W16335  25.004  36.378   0.280
52128W        W16336  26.005  17.690  12.438
52129W        W16337  32.494  34.597   3.234
52130W        W16338  36.047  30.415  11.025
52131W        W16339  42.948   4.397   3.841
52132W        W16340  31.529  43.369   1.771
52133W        W16341   6.382   9.836   3.754
52134W        W16342  19.746  28.071  13.043
52135W        W16343  34.449  11.710   0.296
52136W        W16344  22.152  35.544   0.456
52137W        W16345  27.995  17.706   2.186
52138W        W16346   2.838   3.348   5.245
52139W        W16347  27.126  33.621   1.707
52140W        W16348  18.173  33.950   4.684
52141W        W16349  19.066  43.924   0.475
52142W        W16350  42.859  44.843   2.852
52143W        W16351  27.135  18.171   4.166
52144W        W16352  25.565  38.453  13.548
52145W        W16353  20.749  13.147  11.383
52146W        W16354   3.348  41.472  12.394
52147W        W16355  35.501  12.640  12.431
52148W        W16356  11.177  35.588   1.399
52149W        W16357  32.402  31.114   4.258
52150W        W16358   1.469  30.588   3.383
52151W        W16359  10.844  15.614  11.598
52152W        W16360  29.919  11.695   0.318
52153W        W16361  29.063  41.031  12.406
52154W        W16362  39.024  22.573   0.861
52155W        W16363  24.087  31.412   3.169
52156W        W16364  29.594  41.356  13.042
52157W        W16365  24.012  15.198   0.779
52158W        W16366   5.893  36.557  11.563
52159W        W16367  40.531  38.471   2.774
52160W        W16368  29.092  40.883   0.389
52161W        W16369  18.279  32.012   1.754
52162W        W16370  44.326  11.242   0.454
52163W        W16371  32.403   6.867   2.697
52164W        W16372   8.291  19.202  14.321
52165W        W16373  28.985  35.429   1.294
52166W        W16374  11.702  40.996  12.339
52167W        W16375  17.654   4.924   3.671
52168W        W16376  33.886  30.057  10.627
52169W        W16377   1.904  39.895   2.248
52170W        W16378   3.760   8.731   3.785
52171W        W16379  19.702  24.977   0.876
52172W        W16380  22.601  44.404  12.378
52173W        W16381   0.826   5.730  13.364
52174W        W16382  18.181  33.118   1.212
52175W        W16383  40.876  28.049   2.237
52176W        W16384  13.841  22.726  14.758
52177W        W16385   6.320  17.069   1.868
52178W        W16386  25.197   5.859   3.375
52179W        W16387  12.618  22.206   1.227
52180W        W16388  41.492  34.971  11.475
52181W        W16389  11.151  38.831   3.166
52182W        W16390  16.729  10.788   3.668
52183W        W16391  37.581   8.852   4.127
52184W        W16392  32.030  23.161  10.459
52185W        W16393   0.380  44.003   3.658
52186W        W16394   2.285  33.094  10.921
52187W        W16395  39.342  32.493   0.368
52188W        W16396  20.209  16.735  11.930
52189W        W16397   5.232  35.400  10.430
52190W        W16398   3.316  44.377   1.731
52191W        W16399  10.862  43.461   0.336
52192W        W16400  41.902  27.034   1.230
52193W        W16401  34.503  12.684  11.940
52194W        W16402  23.706  22.537   3.317
52195W        W16403   1.270  41.521   4.134
52196W        W16404  34.383  27.010   3.802
52197W        W16405  16.812  21.157   3.175
52198W        W16406   0.787  24.991  11.539
52199W        W16407   1.974  20.064  14.001
52200W        W16408  18.630  16.141   2.221
52201W        W16409  25.512  35.999  13.312
52202W        W16410  23.027   0.914   2.282
52203W        W16411  21.206  13.641   2.768
52204W        W16412  18.738  33.500   3.157
52205W        W16413  39.058  12.123   3.767
52206W        W16414  12.613   8.307   3.253
52207W        W16415   6.348  37.550  14.458
52208W        W16416  13.264  20.257  10.532
52209W        W16417  43.846  17.113  11.917
52210W        W16418   1.816  42.893   3.803
52211W        W16419  24.060   7.755  12.441
52212W        W16420  20.632  28.558  11.382
52213W        W16421  24.534  35.905   0.910
52214W        W16422   3.330  18.744   1.315
52215W        W16423  21.175  22.641  14.801
52216W        W16424   3.404  28.598   2.793
52217W        W16425  30.098  20.197  13.464
52218W        W16426  23.135   5.857   0.879
52219W        W16427  13.127  39.492   0.375
52220W        W16428  18.710  20.626  11.540
52221W        W16429  15.677  34.460   0.908
52222W        W16430   0.767  27.572  12.488
52223W        W16431  37.577  38.501   3.634
52224W        W16432  32.470  24.675  12.400
52225W        W16433  26.523   0.264   2.721
52226W        W16434  27.552  35.989   1.874
52227W        W16435  32.539   2.876  10.552
52228W        W16436  38.444  28.143   1.834
52229W        W16437  21.132  14.120  10.607
52230W        W16438   8.348  15.688   4.827
52231W        W16439  33.586  16.732  10.643
52232W        W16440  32.402  10.139  10.091
52233W        W16441  11.200  16.702   2.404
52234W        W16442  15.278   6.427  10.434
52235W        W16443  41.359  36.852  14.367
52236W        W16444  29.106   2.383   1.727
52237W        W16445  15.715  41.959  13.385
52238W        W16446  43.478   2.931  10.431
52239W        W16447  42.786  34.998   9.963
52240W        W16448  26.986  29.581   2.878
52241W        W16449  34.998  29.566   2.872
52242W        W16450  15.816  18.784   1.335
52243W        W16451   0.946   8.870  14.449
52244W        W16452  42.815  44.466   2.397
52245W        W16453  22.543   8.689   4.316
52246W        W16454   7.810  32.051   4.641
52247W        W16455   6.855  28.651  11.027
52248W        W16456  29.518  16.755   1.282
52249W        W16457  25.114  29.579   3.772
52250W        W16458  21.108  22.178   0.465
52251W        W16459  18.113  35.508   1.907
52252W        W16460  30.597  21.685   4.639
52253W        W16461  40.920  25.028   1.714
52254W        W16462  41.033   7.296  13.811
52255W        W16463  31.060  14.114  14.024
52256W        W16464   3.426  40.902   0.840
52257W        W16465  39.531  37.355   4.824
52258W        W16466  18.577  44.983   3.780
52259W        W16467  36.039  14.276  13.421
52260W        W16468   5.223  21.646   2.200
52261W        W16469  28.941   1.244   4.647
52262W        W16470  35.893  20.593   2.397
52263W        W16471  18.057  21.042  10.960
52264W        W16472  30.022  34.009   3.212
52265W        W16473  11.852   8.842  13.796
52266W        W16474  28.053  32.919   0.402
52267W        W16475  22.578  33.123   1.810
52268W        W16476   7.238  23.227   2.801
52269W        W16477  20.247  23.103  14.960
52270W        W16478  27.053  41.002   1.875
52271W        W16479  11.269   9.884  10.472
52272W        W16480  37.081  40.053   2.879
52273W        W16481  34.518  44.853  13.519
52274W        W16482  18.681  23.542  12.993
52275W        W16483  35.017  23.552  10.482
52276W        W16484   8.873  27.565  11.980
52277W        W16485   0.450  27.550  10.552
52278W        W16486  30.535  25.112   2.854
52279W        W16487  17.165  15.258  13.035
52280W        W16488   8.198   3.417   0.813
52281W        W16489   1.832  44.996  13.419
52282W        W16490  33.425  42.496   4.253
52283W        W16491  28.498   8.368   1.868
52284W        W16492  28.522  29.666  12.481
52285W        W16493  22.136  40.848  12.549
52286W        W16494  28.076   4.259   3.744
52287W        W16495  42.802   3.859   9.642
52288W        W16496  38.493   5.822   1.293
52289W        W16497  41.987   0.389  13.354
52290W        W16498  31.429  16.278  13.991
52291W        W16499   3.266  23.030  11.483
52292W        W16500  31.136  40.390   2.832
52293W        W16501  20.755   9.681   4.635
52294W        W16502  18.572  32.098   4.626
52295W        W16503  28.052  32.092  13.347
52296W        W16504  21.037  22.138   9.955
52297W        W16505  22.183  23.055   0.293
52298W        W16506  22.606   2.782   1.293
52299W        W16507  10.654   1.817  12.872
52300W        W16508  44.362  39.382   2.694
52301W        W16509   2.940  17.112  10.446
52302W        W16510   2.230  28.642  13.994
52303W        W16511  30.032  32.110   1.726
52304W        W16512  41.029  38.877  11.941
52305W        W16513  22.616  23.131  11.494
52306W        W16514   7.802  16.669  12.494
52307W        W16515  35.449   5.864  12.493
52308W        W16516  22.190  31.081   0.313
52309W        W16517   7.798  29.050  13.895
52310W        W16518  16.230  41.916   2.249
52311W        W16519  30.493   8.278  14.432
52312W        W16520   2.452  37.369  10.973
52313W        W16521  12.817  16.601   3.211
52314W        W16522  41.023  35.429  14.876
52315W        W16523  36.403  15.610  11.554
52316W        W16524  44.955  36.466  14.012
52317W        W16525  35.957  32.962   0.934
52318W        W16526  41.467   3.239  12.495
52319W        W16527  44.297  40.910   3.778
52320W        W16528  29.025  39.495  10.949
52321W        W16529  30.499   6.375  14.004
52322W        W16530  34.946   5.797   1.291
52323W        W16531  21.560  29.932   1.733
52324W        W16532   2.883   4.917   1.287
52325W        W16533   0.269  41.791  13.457
52326W        W16534  22.641  25.498  13.805
52327W        W16535   7.746  38.847  13.913
52328W        W16536   4.722  22.245   3.700
52329W        W16537  42.874  12.249  13.911
52330W        W16538   7.345   2.855   3.342
52331W        W16539  23.621  26.534   0.320
52332W        W16540   0.762  19.049   3.328
52333W        W16541  39.337  25.524   2.786
52334W        W16542  34.027  36.881  14.864
52335W        W16543  37.356  43.973   4.222
52336W        W16544  24.627  28.516  12.488
52337W        W16545  14.187  25.570  13.859
52338W        W16546   2.884   9.324   4.143
52339W        W16547  18.736   0.300   4.674
52340W        W16548  32.069  25.981   2.408
52341W        W16549   4.388  37.518  11.519
52342W        W16550  39.014  26.697   4.242
52343W        W16551  30.111   6.824  11.858
52344W        W16552  38.417   6.808  13.419
52345W        W16553  16.163  43.851  11.004
52346W        W16554  15.216  26.500  10.084
52347W        W16555  18.581  24.023   3.679
52348W        W16556  10.820   4.345   1.886
52349W        W16557  11.201  41.437  14.939
52350W        W16558  27.132  43.513  12.909
52351W        W16559  25.508  34.904   0.445
52352W        W16560  22.532  37.496  14.383
52353W        W16561  10.859  34.989  11.475
52354W        W16562  42.318  43.986  10.593
52355W        W16563  29.611  14.627   3.645
52356W        W16564  32.405  36.022   4.602
52357W        W16565   7.349  26.202  11.977
52358W        W16566  40.418  40.018  14.951
52359W        W16567  42.498  32.993   3.712
52360W        W16568  29.516   5.299   0.349
52361W        W16569  26.111  31.598   2.822
52362W        W16570  17.783  27.660  10.603
52363W        W16571  44.278  38.366   1.328
52364W        W16572  20.143  16.754  10.992
52365W        W16573  14.183  21.728   1.801
52366W        W16574  29.598  33.118  13.355
52367W        W16575  30.478  13.653  11.381
52368W        W16576   6.396  24.169  11.006
52369W        W16577  12.815  24.095  13.393
52370W        W16578  36.415  31.059   2.231
52371W        W16579  27.009  15.308  10.583
52372W        W16580  24.634  16.281   2.249
52373W        W16581  27.508  13.306  14.498
52374W        W16582  38.358  42.453  14.384
52375W        W16583   3.920   3.269   4.188
52376W        W16584  33.003   5.702  14.367
52377W        W16585  21.617  31.930   2.188
52378W        W16586   3.237  21.568  14.351
52379W        W16587  22.244   2.884   2.277
52380W        W16588   9.365  39.039  14.419
52381W        W16589   9.242  28.572  11.444
52382W        W16590  36.430   6.676   4.230
52383W        W16591   3.906   3.338   3.341
52384W        W16592   6.375   9.208  10.404
52385W        W16593  43.922   3.715  13.450
52386W        W16594  19.180  28.156   1.409
52387W        W16595  44.889   9.666  12.959
52388W        W16596   1.422  19.631   0.351
52389W        W16597  24.990   5.430  13.903
52390W        W16598   8.275  34.524  11.901
52391W        W16599  24.124  11.737   0.411
52392W        W16600  11.778  39.509  13.830
52393W        W16601  39.018  23.599  14.386
52394W        W16602  42.519  24.208   3.265
52395W        W16603   8.383  15.730  11.093
52396W        W16604  10.874  14.679  13.366
52397W        W16605  37.004   7.291   1.729
52398W        W16606   2.361  26.965  14.822
52399W        W16607  25.580  32.942  11.885
52400W        W16608  36.571  26.105   0.858
52401W        W16609   1.918  21.698  13.472
52402W        W16610  44.915  13.763  13.967
52403W        W16611  11.664  37.471   5.134
52404W        W16612  33.027   5.894  13.487
52405W        W16613  41.001  38.877   3.848
52406W        W16614   7.864  16.206   2.893
52407W        W16615   6.390  24.216  12.046
52408W        W16616  35.051  12.213  11.591
52409W        W16617  12.210  24.663   3.301
52410W        W16618  29.662  23.579  10.470
52411W        W16619  11.242  14.727  12.577
52412W        W16620   3.225  29.573   5.286
52413W        W16621  30.645  12.171   2.738
52414W        W16622   4.939  41.343  13.985
52415W        W16623   5.824  22.717   1.860
52416W        W16624  16.090  39.417  11.400
52417W        W16625  25.648  26.985   4.613
52418W        W16626  28.029  22.740   1.274
52419W        W16627  33.976  13.330   3.185
52420W        W16628  11.663  15.791  10.898
52421W        W16629  15.671  17.609  11.555
52422W        W16630  24.165  40.504   2.402
52423W        W16631  31.572  18.666  11.087
52424W        W16632   8.183  42.991  13.337
52425W        W16633   6.786   6.324  10.418
52426W        W16634  41.924   9.686  10.908
52427W        W16635  40.458  23.075   3.381
52428W        W16636   3.372   5.716   1.385
52429W        W16637   3.336   4.429   1.740
52430W        W16638   2.456  36.402   5.200
52431W        W16639  28.054  33.597  12.396
52432W        W16640  17.081   6.292  13.461
52433W        W16641  40.938  32.621   1.443
52434W        W16642  29.068  24.999  10.521
52435W        W16643   2.337  11.711   5.290
52436W        W16644  13.301   4.804  11.056
52437W        W16645  20.039  26.560  10.096
52438W        W16646  11.167  24.708  11.074
52439W        W16647  28.674  21.185   2.196
52440W        W16648  27.524  28.175  11.448
52441W        W16649  35.982  12.820   1.324
52442W        W16650  28.472   5.429  11.860
52443W        W16651  29.950  40.940   0.764
52444W        W16652   7.220  32.931  12.470
52445W        W16653  25.521  27.658   4.809
52446W        W16654  20.166  13.748  13.512
52447W        W16655  16.093  12.139   4.779
52448W        W16656  29.063  38.989   4.164
52449W        W16657  37.485  24.512  11.610
52450W        W16658   6.918  10.873   3.710
52451W        W16659  36.400  21.610  12.935
52452W        W16660  36.437  13.653   4.626
52453W        W16661  25.115  24.103   0.884
52454W        W16662  35.519   8.168   3.353
52455W        W16663  31.448  42.905  11.577
52456W        W16664  41.797   9.168  10.474
52457W        W16665   3.906  43.018   4.133
52458W        W16666   4.793  38.536   1.271
52459W        W16667  15.101  10.685  11.442
52460W        W16668  29.484  40.848   2.251
52461W        W16669  28.597  14.826   9.970
52462W        W16670  15.143  36.550   2.412
52463W        W16671  23.192  11.817   0.320
52464W        W16672  27.178  28.583   3.217
52465W        W16673  20.161  33.093  13.009
52466W        W16674  41.375  11.650   2.714
52467W        W16675  10.797  13.682   1.268
52468W        W16676   0.484  18.078   3.651
52469W        W16677   0.471   0.835   0.832
52470W        W16678   9.195  14.318   1.909
52471W        W16679  33.609  33.020  13.328
52472W        W16680   9.246   4.855  12.873
52473W        W16681  12.620  43.867   1.749
52474W        W16682   1.337  26.097   3.742
52475W        W16683  38.550  35.982  13.895
52476W        W16684   9.349  30.992  13.440
52477W        W16685  24.156   3.444  13.814
52478W        W16686   1.262   3.770  13.339
52479W        W16687  31.964  14.650   2.805
52480W        W16688  10.269   0.790  13.431
52481W        W16689  40.969  36.458   4.163
52482W        W16690  24.704   0.457  13.442
52483W        W16691  15.173  32.028   4.212
52484W        W16692  14.234  36.371   5.291
52485W        W16693  40.958  44.363  14.919
52486W        W16694  25.085  33.991  11.071
52487W        W16695  23.677  36.376  14.315
52488W        W16696  26.157  34.876  11.420
52489W        W16697   4.401  16.684  14.861
52490W        W16698   4.892  31.646   1.317
52491W        W16699  34.965  22.203  12.913
52492W        W16700   1.903  11.216  13.495
52493W        W16701  20.273  19.108   3.706
52494W        W16702  12.773   6.261  14.904
52495W        W16703  15.087   2.273   1.856
52496W        W16704  15.583  17.742   4.251
52497W        W16705  17.559  43.847   3.667
52498W        W16706  33.494  10.655   2.293
52499W        W16707   5.732  12.238   2.277
52500W        W16708  15.113  22.587   1.807
52501W        W16709   6.694  30.473   3.197
52502W        W16710  39.882   3.249  12.392
52503W        W16711  24.167   1.370   0.391
52504W        W16712   2.396  23.081  11.090
52505W        W16713   2.323  10.381  14.380
52506W        W16714  15.152  21.199  14.412
52507W        W16715  10.765   9.214  13.791
52508W        W16716   1.251   8.177   1.429
52509W        W16717  10.182  22.027   4.152
52510W        W16718  44.765  27.054   4.152
52511W        W16719  37.066  27.495  11.976
52512W        W16720  28.001   1.462  12.013
52513W        W16721  25.970  15.323   4.194
52514W        W16722  16.126  13.692  14.918
52515W        W16723  36.405  42.520   4.267
52516W        W16724  34.591  14.747  13.900
52517W        W16725  38.555   4.795  13.506
52518W        W16726  36.078  21.021  11.959
52519W        W16727  18.086   1.452  12.897
52520W        W16728  14.638  12.702   3.755
52521W        W16729  26.617  18.744  10.961
52522W        W16730  26.064  22.062   2.321
52523W        W16731  16.134  40.872   3.226
52524W        W16732  44.471  12.640   4.598
52525W        W16733  20.738   0.964   2.313
52526W        W16734  39.361  10.807  10.627
52527W        W16735  17.246  39.474  13.978
52528W        W16736  34.419  36.892  10.523
52529W        W16737  43.805  31.143  14.814
52530W        W16738   6.905  39.924   3.847
52531W        W16739   5.880   2.827  14.305
52532W        W16740  26.694  18.604   2.393
52533W        W16741  35.987  17.657   2.712
52534W        W16742  13.780  30.430   4.344
52535W        W16743  44.898  41.521   3.365
52536W        W16744  28.084  34.917  13.541
52537W        W16745  39.360  26.555   4.630
52538W        W16746  37.496   0.373   0.726
52539W        W16747  24.529  31.519   4.739
52540W        W16748  22.107  34.921   4.308
52541W        W16749   7.903  42.785  13.524
52542W        W16750  24.026  37.520   5.096
52543W        W16751  26.598  25.591   5.185
52544W        W16752   8.719   0.487  14.827
52545W        W16753   5.267  10.253   0.306
52546W        W16754  15.100  13.176  11.447
52547W        W16755  39.448  28.088  11.894
52548W        W16756  24.501  11.141   4.681
52549W        W16757  28.448  25.103  14.806
52550W        W16758  32.410   4.804   2.891
52551W        W16759   4.840  29.097  11.411
52552W        W16760  19.062  25.588   2.842
52553W        W16761   9.159  24.013   3.797
52554W        W16762  12.797  29.129   4.785
52555W        W16763  35.971   5.846  11.026
52556W        W16764  17.296  18.681  13.361
52557W        W16765   8.246  25.108  11.491
52558W        W16766  13.641  32.568  10.961
52559W        W16767  35.969   3.887  10.505
52560W        W16768  26.489  20.656  10.440
52561W        W16769  21.204  23.114  14.902
52562W        W16770  41.044   1.309  10.418
52563W        W16771  15.176   4.364  14.779
52564W        W16772  33.949  10.182   0.353
52565W        W16773  31.079  44.950   2.360
52566W        W16774  31.024  23.686  12.039
52567W        W16775  13.792  16.115  12.904
52568W        W16776  32.131   2.744   3.154
52569W        W16777  38.367  18.294  13.838
52570W        W16778  22.162  42.914  14.840
52571W        W16779  33.448  36.484   2.255
52572W        W16780  20.751  28.087   2.811
52573W        W16781  30.061  33.600  13.361
52574W        W16782  35.010  17.614   3.354
52575W        W16783  37.344   4.856   1.432
52576W        W16784   8.258  20.536  13.984
52577W        W16785  16.214  17.656  14.811
52578W        W16786  22.184  38.493   1.402
52579W        W16787  37.364   0.493   4.782
52580W        W16788   0.431  30.121  13.019
52581W        W16789  29.074  35.077  11.082
52582W        W16790  34.069   8.246   0.791
52583W        W16791   0.411  17.760   4.210
52584W        W16792  11.343  23.113   1.307
52585W        W16793  29.621   3.380  11.118
52586W        W16794  30.530  16.717   0.309
52587W        W16795  43.402  39.846  13.012
52588W        W16796   6.883   1.274   2.889
52589W        W16797  43.975  14.821   1.851
52590W        W16798  44.356  31.982  13.846
52591W        W16799  19.727  10.285   2.248
52592W        W16800  44.818   9.737   2.903
52593W        W16801  24.201  11.144   3.271
52594W        W16802  41.950   3.311   2.729
52595W        W16803  25.057   5.689   1.316
52596W        W16804  36.026  23.168   1.799
52597W        W16805  30.090  36.006   4.734
52598W        W16806  32.097  20.575   2.388
52599W        W16807  15.812  25.566   2.281
52600W        W16808   6.847  42.502  11.925
52601W        W16809  15.307  27.450  13.993
52602W        W16810   7.851  29.544   0.401
52603W        W16811   4.324  39.976  12.913
52604W        W16812  39.060  25.599   1.242
52605W        W16813  26.465  39.528   1.872
52606W        W16814   9.227   9.886   3.835
52607W        W16815  17.611  38.992   1.430
52608W        W16816  15.816  30.103  12.351
52609W        W16817  26.991  21.021  11.086
52610W        W16818   6.872  38.056   1.750
52611W        W16819  42.516  21.077   3.710
52612W        W16820   5.789   2.304  13.062
52613W        W16821  30.440  18.150  13.976
52614W        W16822  16.297  38.904  13.413
52615W        W16823  27.459  37.516  10.496
52616W        W16824   3.307  28.940  12.066
52617W        W16825   3.753  28.003   3.784
52618W        W16826  28.551  38.048  13.020
52619W        W16827  44.927   3.265  14.310
52620W        W16828  12.658  36.593   1.306
52621W        W16829  31.457  18.200   4.114
52622W        W16830  24.708   5.329   4.745
52623W        W16831  13.323  42.838   4.336
52624W        W16832   8.897  23.652  12.837
52625W        W16833  31.960  38.373   0.858
52626W        W16834  22.535   7.331  12.031
52627W        W16835  35.043  26.959   2.347
52628W        W16836  17.185  22.711   3.664
52629W        W16837  18.696   1.742  10.915
52630W        W16838  33.015   1.456  14.387
52631W        W16839  43.461  20.096  14.462
52632W        W16840  34.944  43.287  12.536
52633W        W16841  13.281  29.964  12.378
52634W        W16842  30.456  23.620  13.889
52635W        W16843  12.687   2.409  14.810
52636W        W16844  42.857  40.311   4.250
52637W        W16845  32.951   9.710  11.064
52638W        W16846  40.947  10.710   1.915
52639W        W16847   4.710   4.440  11.601
52640W        W16848   0.771  35.466   0.855
52641W        W16849  11.334  25.008  13.515
52642W        W16850   3.220  23.991  12.547
52643W        W16851  25.608  18.711   5.319
52644W        W16852  17.593  33.540   2.787
52645W        W16853   9.877  20.707   3.685
52646W        W16854  43.334  27.564   1.343
52647W        W16855  21.240   5.342   2.826
52648W        W16856  32.055   9.178   4.348
52649W        W16857  21.208  28.678   1.854
52650W        W16858  18.203  27.649   1.433
52651W        W16859  33.899  27.085   0.293
52652W        W16860  40.892  12.729  14.761
52653W        W16861  10.802   1.790   1.897
52654W        W16862  41.980  19.199  10.140
52655W        W16863   3.722  37.033  13.039
52656W        W16864  23.491   1.339  14.978
52657W        W16865   5.349  11.750  13.963
52658W        W16866  38.985   2.788  13.421
52659W        W16867  17.211  22.031  14.977
52660W        W16868  38.500  15.165  13.032
52661W        W16869  19.762  37.507   4.649
52662W        W16870   3.335  17.688   2.220
52663W        W16871   9.253  44.264   4.194
52664W        W16872   8.266  38.442  12.498
52665W        W16873  27.627  43.323  14.359
52666W        W16874   5.727  17.594  11.950
52667W        W16875  40.998  22.141  10.408
52668W        W16876   0.419  33.037  12.469
52669W        W16877  37.038  38.505  10.516
52670W        W16878   5.904  29.108  13.878
52671W        W16879  33.024  41.792   0.277
52672W        W16880  30.656  11.274   1.725
52673W        W16881  18.273  37.532   3.843
52674W        W16882  26.571  29.110  10.559
52675W        W16883  20.232   5.723   5.096
52676W        W16884  21.625  43.276  12.454
52677W        W16885  44.848  33.060  13.349
52678W        W16886  26.467  15.192   0.315
52679W        W16887  39.392  18.064   3.240
52680W        W16888   3.412   9.878  13.032
52681W        W16889  20.579  34.432   4.193
52682W        W16890  33.103  19.043  11.062
52683W        W16891  39.835   2.253   4.281
52684W        W16892  19.743  40.807   2.872
52685W        W16893  34.414   0.284   0.357
52686W        W16894  32.453  43.424   0.312
52687W        W16895  33.952   4.250   0.436
52688W        W16896  19.629  24.122  14.897
52689W        W16897  28.079  44.887   2.680
52690W        W16898  36.489  33.460  13.041
52691W        W16899  11.843  10.821  11.861
52692W        W16900  10.835  15.243   3.158
52693W        W16901   2.815   2.895  10.561
52694W        W16902   5.817   9.162   3.337
52695W        W16903  26.126  17.204   0.827
52696W        W16904  14.759  30.984   0.273
52697W        W16905   7.245  36.537   0.483
52698W        W16906  41.884  11.669  13.868
52699W        W16907   4.380   6.923  13.017
52700W        W16908  43.956  44.898   1.750
52701W        W16909   1.411  12.283  13.838
52702W        W16910  37.009  31.132   2.798
52703W        W16911  34.384  42.924   0.899
52704W        W16912  19.736  15.746  13.867
52705W        W16913  26.676  44.350   4.265
52706W        W16914  34.560   7.683  12.064
52707W        W16915   8.890   4.348   2.845
52708W        W16916  14.815  12.837  10.073
52709W        W16917  29.650  15.237  11.032
52710W        W16918  12.225  35.928   0.765
52711W        W16919   1.268   7.348  11.459
52712W        W16920  36.536   5.808   2.750
52713W        W16921  10.349  19.148   4.286
52714W        W16922  37.342   9.653  12.527
52715W        W16923  14.804  23.616   3.661
52716W        W16924  17.662  20.657   0.249
52717W        W16925  44.909   2.826   1.860
52718W        W16926  30.982  13.732   3.242
52719W        W16927  19.540  34.542   4.209
52720W        W16928  38.374  30.564   0.401
52721W        W16929  25.573  25.571  14.763
52722W        W16930  40.505  13.813   3.769
52723W        W16931   9.199  17.099  11.418
52724W        W16932  31.498  21.175  10.502
52725W        W16933  34.376  14.678   4.796
52726W        W16934  20.192   5.329   3.833
52727W        W16935  27.601   8.897  14.953
52728W        W16936   6.224  26.201   4.286
52729W        W16937  26.957  39.836   4.729
52730W        W16938  10.325  39.029   2.796
52731W        W16939  21.652  14.304  12.552
52732W        W16940  37.552  26.640  14.785
52733W        W16941   2.392  14.326   4.224
52734W        W16942  21.703  14.145  13.909
52735W        W16943  18.709  36.590  11.129
52736W        W16944  20.540   3.227  10.906
52737W        W16945  27.618  36.059  14.795
52738W        W16946   7.175  21.521  14.413
52739W        W16947  34.077  15.676  10.575
52740W        W16948  11.865  29.541   3.242
52741W        W16949  22.242  42.423   3.774
52742W        W16950  10.306   5.436   3.766
52743W        W16951   9.211  18.256   0.797
52744W        W16952  23.560   1.454  14.277
52745W        W16953  26.465   5.694   0.438
52746W        W16954  19.643  44.883  13.456
52747W        W16955   1.858   5.800  11.931
52748W        W16956  37.528  16.317  11.460
52749W        W16957  31.902  19.202  14.412
52750W        W16958  11.127  14.826  12.894
52751W        W16959  29.506  34.614  14.761
52752W        W16960  38.920   1.812  10.530
52753W        W16961   7.267  13.289  13.544
52754W        W16962  11.639   0.371   0.745
52755W        W16963  26.008  35.995  14.442
52756W        W16964  29.505   6.742   4.827
52757W        W16965  20.085  43.786   1.319
52758W        W16966  25.690  19.138   4.274
52759W        W16967  34.882  10.796  11.027
52760W        W16968  24.676   1.848  14.341
52761W        W16969   1.269  31.910   1.320
52762W        W16970   3.377  34.418   3.700
52763W        W16971  27.492   8.309  10.533
52764W        W16972   9.805  35.026  12.974
52765W        W16973  28.600  41.396   4.720
52766W        W16974  38.834   3.279   3.768
52767W        W16975  34.021   8.687  14.309
52768W        W16976  23.705  26.555   2.759
52769W        W16977  18.272   0.468  11.441
52770W        W16978  10.302  40.306   0.785
52771W        W16979  26.067  14.226   4.700
52772W        W16980  30.129  44.365  11.611
52773W        W16981  31.428   2.862  14.313
52774W        W16982  35.981  17.188  14.281
52775W        W16983  27.007  12.701  14.998
52776W        W16984  13.787   1.278  12.835
52777W        W16985  12.771  41.492  14.892
52778W        W16986  14.764   9.274   0.331
52779W        W16987  40.902  23.107  10.962
52780W        W16988  38.529  24.686   2.330
52781W        W16989   4.885  13.341   3.265
52782W        W16990  19.259   3.289   5.092
52783W        W16991  41.906   8.850  11.997
52784W        W16992  29.527  42.972  12.081
52785W        W16993  28.988  28.526  12.416
52786W        W16994   6.266  36.055  14.925
52787W        W16995  35.041  36.890  10.891
52788W        W16996  15.313  18.253   3.693
52789W        W16997  11.858  43.866  10.540
52790W        W16998  26.506  29.060   1.230
52791W        W16999  34.562  35.009  12.072
52792W        W17000  21.181   2.875  11.424
52793W        W17001  29.999   0.402  14.349
52794W        W17002  43.283  19.214   5.151
52795W        W17003  41.422  22.101  14.338
52796W        W17004  21.573  40.505   1.873
52797W        W17005  18.704   6.768  13.887
52798W        W17006  26.181  10.258   1.894
52799W        W17007  33.613  32.971   3.644
52800W        W17008  42.361   4.333   2.315
52801W        W17009  35.581  36.952  14.460
52802W        W17010   4.845  29.931   1.712
52803W        W17011  34.095  11.316  11.123
52804W        W17012  26.022  16.125   4.696
52805W        W17013   4.747  11.708   5.220
52806W        W17014  32.125   6.773   0.895
52807W        W17015  25.503  30.993  10.422
52808W        W17016  29.423  27.596   0.941
52809W        W17017   4.882  33.884   4.830
52810W        W17018  13.301  27.598   0.818
52811W        W17019  25.708  44.277  11.879
52812W        W17020  29.941  35.384  13.020
52813W        W17021  20.114   2.251  14.448
52814W        W17022  19.553  21.077  11.411
52815W        W17023  17.242  37.063  11.934
52816W        W17024  23.183  39.813  11.895
52817W        W17025  13.311   7.418  14.792
52818W        W17026  15.672  28.050  13.984
52819W        W17027  10.226  38.857  10.888
52820W        W17028   1.933   3.366   1.283
52821W        W17029  18.667  21.176   2.664
52822W        W17030  40.309  32.969  13.953
52823W        W17031  37.053  30.637   2.218
52824W        W17032  24.589   2.864   0.733
52825W        W17033  41.476  41.020  11.555
52826W        W17034  17.567  19.171  13.064
52827W        W17035   0.810  27.956  13.064
52828W        W17036  32.063   1.280   1.858
52829W        W17037  26.644   3.332   4.226
52830W        W17038  17.130  24.483   2.365
52831W        W17039  44.460  22.745  14.839
52832W        W17040  20.637  25.575   2.868
52833W        W17041  28.452  14.265  10.434
52834W        W17042  15.114  10.149  12.829
52835W        W17043  29.425  31.415   3.669
52836W        W17044  23.642  41.003  11.437
52837W        W17045  38.074  13.121   2.183
52838W        W17046  36.490  38.526   3.213
52839W        W17047  24.081  14.216   2.223
52840W        W17048  23.532  22.578   2.822
52841W        W17049   0.774  27.998  13.814
52842W        W17050  33.098  35.974  14.295
52843W        W17051  40.884  41.885   1.913
52844W        W17052  16.296  44.463   1.856
52845W        W17053  38.927  21.692   1.382
52846W        W17054  23.695   8.788   3.790
52847W        W17055   3.312  10.750   1.742
52848W        W17056   6.334  18.152   4.668
52849W        W17057  29.458  16.704   3.355
52850W        W17058  15.735  16.680  10.034
52851W        W17059  34.964   8.275  11.579
52852W        W17060   5.926  31.925  12.356
52853W        W17061   4.418  13.173   4.615
52854W        W17062  37.447  37.876  12.040
52855W        W17063  41.440  12.204  12.522
52856W        W17064  10.213  35.943   4.601
52857W        W17065  21.125  33.474  11.980
52858W        W17066  22.126  25.667   2.196
52859W        W17067  25.525  14.173  12.074
52860W        W17068  28.504   4.757  12.492
52861W        W17069   5.251   3.410  10.899
52862W        W17070  18.664   7.284  13.939
52863W        W17071   3.948  30.417  11.894
52864W        W17072   3.416  39.913   3.641
52865W        W17073   4.892  18.118   2.187
52866W        W17074  39.813  10.215  10.638
52867W        W17075  31.025  31.127  12.904
52868W        W17076  23.717  10.158  12.579
52869W        W17077  38.447  17.084   3.695
52870W        W17078  19.209   8.823  13.905
52871W        W17079  14.273  32.449  14.844
52872W        W17080  25.608  41.806   0.348
52873W        W17081  26.469  12.165   2.686
52874W        W17082   2.871  34.895   1.918
52875W        W17083  12.668  27.517   2.237
52876W        W17084  21.200  34.904   3.302
52877W        W17085  14.282  35.030  13.832
52878W        W17086  22.647  23.716  10.990
52879W        W17087   9.718  19.171   2.744
52880W        W17088  39.498  12.255  14.482
52881W        W17089  35.511  12.619  13.986
52882W        W17090  36.452  39.823   3.768
52883W        W17091  18.189  34.890  13.435
52884W        W17092  44.505  30.944  12.880
52885W        W17093   8.773  31.425  14.774
52886W        W17094  38.890  37.068   2.861
52887W        W17095  35.057  29.054   2.335
52888W        W17096  30.443  41.935   0.739
52889W        W17097  26.039  44.001  12.059
52890W        W17098  15.086  25.559   4.651
52891W        W17099  17.688   6.363   1.850
52892W        W17100  38.550   3.777   2.356
52893W        W17101  38.369  39.444  11.952
52894W        W17102  13.824  28.671  14.028
52895W        W17103  41.354  34.610  14.009
52896W        W17104  26.481  40.994   5.228
52897W        W17105  27.480   2.913   2.284
52898W        W17106  37.879  28.948   5.187
52899W        W17107   9.873   5.199  10.896
52900W        W17108   6.229  31.058   1.420
52901W        W17109  29.494  44.357  12.885
52902W        W17110  39.392  40.519  14.383
52903W        W17111  19.630  26.201   3.691
52904W        W17112   9.253   3.884  11.980
52905W        W17113  36.974  12.299  12.885
52906W        W17114  10.323  41.408   9.999
52907W        W17115  21.704  16.607  12.036
52908W        W17116   1.409  22.040   4.822
52909W        W17117  38.936   5.440  14.281
52910W        W17118   6.682  32.929  13.918
52911W        W17119  26.158  40.476   1.392
52912W        W17120  14.226  40.485   0.379
52913W        W17121   2.729  20.630  13.834
52914W        W17122  26.035  20.250  10.936
52915W        W17123  13.836  13.260   2.316
52916W        W17124  43.856  26.116   4.248
52917W        W17125   1.739  26.615  12.906
52918W        W17126  36.966   4.735  14.837
52919W        W17127   4.838  19.071  12.441
52920W        W17128  36.021  33.902  11.410
52921W        W17129  13.765  11.279  10.625
52922W        W17130  39.881  42.017  12.542
52923W        W17131  43.815  25.102   3.330
52924W        W17132  18.702   6.329   3.836
52925W        W17133  44.418  16.598   5.205
52926W        W17134  12.132  42.900  12.570
52927W        W17135  40.493  28.041   9.936
52928W        W17136  40.861  31.579   1.260
52929W        W17137   0.874  15.300  11.886
52930W        W17138  11.177  30.643   1.888
52931W        W17139  35.869  35.499   0.861
52932W        W17140  27.198  18.612  14.873
52933W        W17141  28.608  11.315   1.343
52934W        W17142  16.261  14.805   4.263
52935W        W17143   2.471  31.911   3.834
52936W        W17144   3.430  37.835  14.446
52937W        W17145  11.218  35.087   2.297
52938W        W17146  37.367  21.223  13.503
52939W        W17147  44.945  37.450  13.380
52940W        W17148  27.177  40.484  10.432
52941W        W17149   2.962  17.303  12.504
52942W        W17150  26.490  39.551   3.857
52943W        W17151  25.500   2.379  10.975
52944W        W17152  37.027   4.445   2.255
52945W        W17153   2.760  21.090   1.777
52946W        W17154  20.542  37.923   3.169
52947W        W17155   5.911  36.564   4.208
52948W        W17156  20.593  14.171  13.791
52949W        W17157  24.060  34.578  14.841
52950W        W17158  22.020   3.724   3.321
52951W        W17159  14.738   3.948   0.427
52952W        W17160  17.691  32.452   0.847
52953W        W17161   2.335   9.316   4.149
52954W        W17162  15.624  15.140   4.322
52955W        W17163  38.045  34.501   1.917
52956W        W17164  39.974  41.831   4.811
52957W        W17165   1.960  20.673   1.730
52958W        W17166  31.533  26.089   0.947
52959W        W17167   0.780  30.525   3.838
52960W        W17168  16.584  42.449  14.361
52961W        W17169  16.145  40.379  13.522
52962W        W17170   4.236   0.783  12.339
52963W        W17171  13.638  44.361  12.057
52964W        W17172   4.805  43.278   4.638
52965W        W17173   2.470  29.523  14.278
52966W        W17174   9.194  35.064   1.292
52967W        W17175  43.934  18.239   3.303
52968W        W17176  44.350  26.518  13.792
52969W        W17177  41.443  34.475   3.738
52970W        W17178   3.367  34.994  12.890
52971W        W17179  35.935  44.424   4.181
52972W        W17180  30.121  33.926  12.900
52973W        W17181  22.737  16.251   4.299
52974W        W17182  23.148  31.495  13.907
52975W        W17183   6.359   3.310  14.880
52976W        W17184   5.732  24.058  13.496
52977W        W17185  37.406   0.426  12.049
52978W        W17186  33.583   7.895  13.003
52979W        W17187  36.546  36.068  14.914
52980W        W17188   4.391   0.872  13.887
52981W        W17189  34.490  21.183   5.185
52982W        W17190  14.139  29.551  12.025
52983W        W17191  10.775   4.727  11.559
52984W        W17192  18.129  39.948  10.514
52985W        W17193  26.492  23.221   3.180
52986W        W17194  36.854  22.077   4.352
52987W        W17195   9.275  31.090   0.832
52988W        W17196  43.805  20.042   0.778
52989W        W17197  26.207  14.197  11.453
52990W        W17198   9.842  17.287   2.415
52991W        W17199  12.751  31.135   2.188
52992W        W17200  16.101   2.760  13.931
52993W        W17201  23.618  12.256   2.726
52994W        W17202  18.689   9.234   2.226
52995W        W17203  12.266  37.561   1.360
52996W        W17204  44.363  11.770  12.985
52997W        W17205  19.607  20.168  14.362
52998W        W17206  44.763  42.437  10.422
52999W        W17207  10.748  15.126   4.616
53000W        W17208  19.591  38.051   1.421
53001W        W17209   6.328   4.313  14.301
53002W        W17210   5.375  34.119  11.129
53003W        W17211  15.106  20.060   4.173
53004W        W17212  12.120  36.958  14.802
53005W        W17213   5.805  11.347  11.942
53006W        W17214  25.081  29.112   4.616
53007W        W17215  16.609  27.056  13.373
53008W        W17216  26.702  28.101  10.623
53009W        W17217   2.322  39.021   0.884
53010W        W17218  31.456  12.720  12.078
53011W        W17219  38.915   4.738   3.723
53012W        W17220  34.502  22.129   0.897
53013W        W17221   6.743  19.147  11.054
53014W        W17222  21.065   6.769   1.290
53015W        W17223   9.817   2.284   2.401
53016W        W17224  25.628   2.249  12.011
53017W        W17225  16.196  15.759   3.776
53018W        W17226  27.552  37.393  13.026
53019W        W17227  18.199  32.071  10.464
53020W        W17228   7.810   8.309   1.804
53021W        W17229   7.749  35.437   4.285
53022W        W17230  38.996  43.472   3.353
53023W        W17231  44.804  33.908  14.427
53024W        W17232  27.966  40.800  14.346
53025W        W17233   3.772  38.898  11.048
53026W        W17234   6.386  20.251   2.272
53027W        W17235  18.709  12.746   1.218
53028W        W17236  11.351  25.539   2.765
53029W        W17237  19.110  16.258  10.020
53030W        W17238  11.307  39.011   2.360
53031W        W17239  32.045   2.826  11.905
53032W        W17240   2.866   3.242  13.851
53033W        W17241  31.618  37.519  14.764
53034W        W17242  18.095  30.120   3.265
53035W        W17243  40.047  42.295  11.915
53036W        W17244  36.967  39.892   0.962
53037W        W17245   1.758  44.407  13.348
53038W        W17246  10.279  40.908  10.504
53039W        W17247  43.271  36.446   4.792
53040W        W17248  37.986  44.759   0.441
53041W        W17249  33.619  34.058   2.295
53042W        W17250  27.680   7.326  14.428
53043W        W17251  10.209   1.756  12.960
53044W        W17252  20.699  12.761   3.643
53045W        W17253  20.620  16.683  11.899
53046W        W17254   0.481  35.431   3.777
53047W        W17255   5.925   0.973  13.473
53048W        W17256  35.560  12.325  14.008
53049W        W17257   0.810  16.309  10.513
53050W        W17258  33.492  27.993   2.351
53051W        W17259   4.716  25.147  14.023
53052W        W17260  35.995  24.038   3.708
53053W        W17261  43.795  40.443  12.497
53054W        W17262   0.750  19.174   1.250
53055W        W17263  17.109  18.604   1.445
53056W        W17264  12.165  35.010  11.039
53057W        W17265  41.023  13.155   1.221
53058W        W17266  41.814   4.888   5.186
53059W        W17267  41.036   9.395   2.296
53060W        W17268  11.631  43.978  12.006
53061W        W17269  44.963  39.882  12.357
53062W        W17270  17.125  36.399   5.630
53063W        W17271   7.404  35.901   3.688
53064W        W17272  15.783   8.312   1.260
53065W        W17273  13.343  25.108  10.515
53066W        W17274  25.188  20.264   4.727
53067W        W17275   4.875  14.680  13.804
53068W        W17276  17.664   0.466  12.076
53069W        W17277  44.400  31.118   4.794
53070W        W17278  10.274   4.406  10.586
53071W        W17279   9.886  27.671  11.422
53072W        W17280  31.971  38.564  13.403
53073W        W17281  25.028  27.616  13.464
53074W        W17282   1.342   4.906  10.459
53075W        W17283  40.333  42.951  14.295
53076W        W17284  43.346  20.756   3.715
53077W        W17285   0.466  43.451   1.242
53078W        W17286  27.495  42.527  14.981
53079W        W17287  18.737  34.445   3.806
53080W        W17288  26.461  18.235  12.557
53081W        W17289  25.203  43.941  14.013
53082W        W17290  15.125   1.825  11.079
53083W        W17291  31.966  22.109   2.384
53084W        W17292  35.098   2.308  11.074
53085W        W17293  43.936  35.394   2.884
53086W        W17294  40.540  12.145  12.070
53087W        W17295  39.926  42.446  11.501
53088W        W17296   4.926  32.899  13.440
53089W        W17297  21.172   8.173   0.900
53090W        W17298   8.857   9.837  14.483
53091W        W17299  16.244  30.943  12.374
53092W        W17300  32.888  13.758   3.369
53093W        W17301   2.249  33.042   3.652
53094W        W17302  41.833  14.635   1.904
53095W        W17303  23.718  44.874  11.951
53096W        W17304  37.373  43.942  14.513
53097W        W17305  23.708  28.438  14.439
53098W        W17306  17.649   4.831   0.334
53099W        W17307  16.121  30.550  11.582
53100W        W17308  15.301  37.966  10.070
53101W        W17309  11.768  19.710   1.447
53102W        W17310  10.860  21.093   0.817
53103W        W17311  18.267   4.805   4.139
53104W        W17312   1.744  16.767   2.395
53105W        W17313  23.105  15.671  13.316
53106W        W17314  12.754  23.492  14.012
53107W        W17315   0.892  37.519  12.471
53108W        W17316  27.664  29.646   3.676
53109W        W17317  12.191  25.481  10.555
53110W        W17318  36.854  19.659   0.772
53111W        W17319   1.958  30.048   4.205
53112W        W17320  11.677   9.173   2.219
53113W        W17321   5.813  26.040  14.454
53114W        W17322  11.651  15.156  14.904
53115W        W17323   5.267  32.536  14.394
53116W        W17324  24.191  31.491   2.774
53117W        W17325  37.891   4.875   2.683
53118W        W17326  15.246  17.774  14.377
53119W        W17327  28.618   5.696   1.849
53120W        W17328  26.096  42.476  14.928
53121W        W17329  32.072  22.194   9.930
53122W        W17330  31.980  23.108  13.410
53123W        W17331  15.122  21.231   4.141
53124W        W17332  41.020  29.102  13.358
53125W        W17333  14.624  28.050   9.990
53126W        W17334   7.320  26.648   4.747
53127W        W17335  25.006   2.402  12.835
53128W        W17336  24.020  42.956  13.530
53129W        W17337   3.365  20.066  11.870
53130W        W17338  42.021  35.856   0.942
53131W        W17339  37.914   9.220   0.962
53132W        W17340  38.920  34.376   2.750
53133W        W17341  35.553  32.091   2.828
53134W        W17342  32.627  21.533  11.967
53135W        W17343   9.377  13.114  14.381
53136W        W17344   0.847  12.660   4.268
53137W        W17345  12.854  39.545   4.118
53138W        W17346   1.914  18.253  13.981
53139W        W17347  27.629  14.723   1.378
53140W        W17348  33.582  27.519   4.300
53141W        W17349  27.662  19.238  11.926
53142W        W17350  44.371   3.853  11.505
53143W        W17351  11.218   4.769   3.286
53144W        W17352  17.114   3.295  11.528
53145W        W17353   4.784   1.400  11.447
53146W        W17354  26.591  25.638   4.244
53147W        W17355  30.502  34.379  13.889
53148W        W17356  44.794  43.274   3.742
53149W        W17357  41.036  10.144   2.714
53150W        W17358  43.455  30.988  12.902
53151W        W17359   3.795   2.368   1.339
53152W        W17360   7.824  21.244   5.117
53153W        W17361   6.762  33.897   2.300
53154W        W17362  22.555  27.041   0.876
53155W        W17363  28.632   5.388  14.400
53156W        W17364  13.314   8.706  14.916
53157W        W17365  27.556  17.786  11.472
53158W        W17366   9.312  20.095   0.439
53159W        W17367  24.536  11.278  10.451
53160W        W17368  20.125   5.828   3.374
53161W        W17369   2.297  37.490  11.611
53162W        W17370   0.302  14.729   3.818
53163W        W17371  22.204  29.118  14.829
53164W        W17372  36.539  19.722   0.841
53165W        W17373  19.173   6.845  13.315
53166W        W17374   6.408  13.124  14.017
53167W        W17375  10.173  30.554  14.003
53168W        W17376  10.361   4.876  11.606
53169W        W17377  19.720   9.764  10.932
53170W        W17378  41.509  41.509   3.748
53171W        W17379   9.712   0.348  12.438
53172W        W17380  10.731  29.632  10.921
53173W        W17381  36.958  27.464  10.981
53174W        W17382  22.623  24.705  12.459
53175W        W17383  20.046   9.352  13.880
53176W        W17384  39.545   5.836   1.355
53177W        W17385  12.291  24.502   1.304
53178W        W17386  25.979   5.738   1.307
53179W        W17387   2.443  40.895  14.433
53180W        W17388  35.566  36.935  13.034
53181W        W17389  35.363  25.110  14.811
53182W        W17390  10.172   5.223  13.970
53183W        W17391  30.508  25.589   4.834
53184W        W17392  20.187   5.740  11.518
53185W        W17393  21.645  34.421   2.299
53186W        W17394  26.701   3.436  13.033
53187W        W17395  22.164   9.193   2.782
53188W        W17396  29.464  23.092  12.472
53189W        W17397   2.879  31.502   2.781
53190W        W17398  24.988   0.323  14.500
53191W        W17399  21.037  23.551  12.872
53192W        W17400  14.729   5.830  14.275
53193W        W17401  14.599  16.812   2.693
53194W        W17402  13.742  16.736   4.632
53195W        W17403  33.541  14.287  13.352
53196W        W17404  43.462  41.296   4.795
53197W        W17405   7.396  28.072   3.773
53198W        W17406  13.303   2.754   1.867
53199W        W17407  23.237  33.882  13.968
53200W        W17408  38.913  26.510  14.849
53201W        W17409  38.827   2.815   3.794
53202W        W17410   6.750  26.675   1.857
53203W        W17411  11.847  31.539  14.831
53204W        W17412  12.208  10.860  12.459
53205W        W17413  39.327   3.338  14.287
53206W        W17414   0.251  38.485   5.197
53207W        W17415   5.194   7.770  11.450
53208W        W17416  39.431  29.612   3.839
53209W        W17417   4.944  21.571  10.954
53210W        W17418  26.175   3.714   1.312
53211W        W17419  11.348  15.621   3.243
53212W        W17420  35.060  13.282   1.785
53213W        W17421   2.776  32.951  13.353
53214W        W17422  44.363  35.936   0.412
53215W        W17423  42.801   5.389  12.947
53216W        W17424  39.883   3.416   3.276
53217W        W17425  37.558   4.353   9.996
53218W        W17426  24.165   1.764  14.354
53219W        W17427  19.562  41.325   4.315
53220W        W17428  32.465   6.232   3.187
53221W        W17429   7.357   6.281  12.413
53222W        W17430  33.591  43.989   9.937
53223W        W17431  25.612  41.961  14.976
53224W        W17432  16.178  11.368  14.430
53225W        W17433   7.719  29.974   3.344
53226W        W17434  14.271   6.304   3.738
53227W        W17435  15.148  10.311   4.235
53228W        W17436   8.775  17.672  12.470
53229W        W17437  29.110  35.362   1.899
53230W        W17438  34.948  17.626   1.451
53231W        W17439   9.863   6.268  12.988
53232W        W17440   4.246   6.272  13.997
53233W        W17441  13.350  20.225  14.971
53234W        W17442  13.154  39.035   4.778
53235W        W17443  44.278  30.164  13.527
53236W        W17444  43.791  31.991  10.632
53237W        W17445  18.627  26.658  13.827
53238W        W17446  43.507  40.887   3.772
53239W        W17447  28.543  43.361  13.436
53240W        W17448   7.206  14.633   1.364
53241W        W17449  10.351  24.062   3.734
53242W        W17450  17.734  34.008  14.428
53243W        W17451  15.581   8.655   4.348
53244W        W17452  31.935  19.053   2.261
53245W        W17453   4.439  30.514   2.332
53246W        W17454  27.001  37.944   1.784
53247W        W17455  42.813   2.928  12.489
53248W        W17456  35.511  35.021   2.727
53249W        W17457  32.049  28.521   4.798
53250W        W17458   8.389  37.565  12.504
53251W        W17459  34.500   5.206  12.373
53252W        W17460  13.351  38.002  13.884
53253W        W17461  12.191  24.559   4.696
53254W        W17462   8.852  37.868  10.533
53255W        W17463  11.627   0.310  14.401
53256W        W17464  33.118  27.993  10.557
53257W        W17465  17.618  25.217  14.006
53258W        W17466  20.107  36.473   4.773
53259W        W17467  43.863  41.787  13.899
53260W        W17468  36.029  22.144   0.892
53261W        W17469  40.920  41.441   1.869
53262W        W17470  12.336  18.581   4.126
53263W        W17471  38.465   1.882   4.282
53264W        W17472  41.998  31.073   1.420
53265W        W17473  36.090   0.308   1.773
53266W        W17474  31.983   8.405   0.762
53267W        W17475   0.956  43.836  12.540
53268W        W17476  13.612  12.620  13.969
53269W        W17477  34.900  12.631  11.994
53270W        W17478  19.141   1.381  12.861
53271W        W17479  26.032  35.957   2.823
53272W        W17480  23.656  32.950  14.375
53273W        W17481  34.927  15.214  14.903
53274W        W17482  35.010  23.688   0.823
53275W        W17483  25.498  33.428  11.534
53276W        W17484  33.453   3.269   1.379
53277W        W17485   9.654  22.687   4.114
53278W        W17486  18.256  33.436  11.984
53279W        W17487  32.507  33.515   3.803
53280W        W17488  39.325  44.321  11.016
53281W        W17489  35.389  18.158   4.307
53282W        W17490   5.327  25.544  11.375
53283W        W17491  13.292   4.240   0.381
53284W        W17492  26.504   2.772   3.321
53285W        W17493  24.202  34.532  13.398
53286W        W17494  35.883  13.163  13.419
53287W        W17495   2.283  10.802  14.812
53288W        W17496  23.731  12.822   1.875
53289W        W17497  38.344   2.327  11.395
53290W        W17498   3.347  43.872   1.290
53291W        W17499  23.016  14.230  12.076
53292W        W17500  19.074  14.304  14.822
53293W        W17501   9.793  44.395   3.233
53294W        W17502  18.185   5.428   1.860
53295W        W17503   5.837  19.564  14.353
53296W        W17504  29.978  16.800   4.795
53297W        W17505  30.603  24.104  12.058
53298W        W17506  29.048  40.504   1.857
53299W        W17507  43.304  19.269   3.644
53300W        W17508  26.507  32.097  13.423
53301W        W17509  15.158  21.137   3.266
53302W        W17510  16.314  18.245   2.312
53303W        W17511  30.613  29.652  13.483
53304W        W17512  26.083   1.758  14.405
53305W        W17513  10.806  43.488  13.044
53306W        W17514  28.120  15.618   4.601
53307W        W17515  20.632  33.917   2.388
53308W        W17516  19.651   7.330  13.935
53309W        W17517  22.051   0.834  12.522
53310W        W17518   5.330  24.512  13.898
53311W        W17519   8.320  29.037  10.517
53312W        W17520  42.347  19.650  13.026
53313W        W17521   2.894  27.645  14.289
53314W        W17522  25.214  23.609   1.869
53315W        W17523  40.034  37.556   3.774
53316W        W17524   0.258  13.342   0.309
53317W        W17525   0.870  30.451  11.550
53318W        W17526  19.583   7.190  11.580
53319W        W17527   1.889  43.877  11.402
53320W        W17528  11.276  29.096   0.451
53321W        W17529   4.762   1.918   3.302
53322W        W17530   9.172  18.123  13.385
53323W        W17531   0.868  36.017  14.920
53324W        W17532  21.178  20.077  13.810
53325W        W17533  20.174  30.648  14.775
53326W        W17534  11.179   1.475  13.011
53327W        W17535  22.558  24.008  11.491
53328W        W17536  20.204  26.492  11.437
53329W        W17537  14.144  30.995  12.368
53330W        W17538  23.006  13.211   4.740
53331W        W17539  11.245  42.319  11.414
53332W        W17540  28.996  26.480   3.172
53333W        W17541   1.799  30.054   3.818
53334W        W17542   4.410  38.475  13.853
53335W        W17543   4.702   6.301  12.398
53336W        W17544  13.810   4.774  11.009
53337W        W17545  20.136  12.347   0.817
53338W        W17546  23.129  37.839  13.895
53339W        W17547  19.766  17.693  11.031
53340W        W17548  10.310   2.964   2.663
53341W        W17549  44.322   5.799   3.744
53342W        W17550   2.746  11.747  11.499
53343W        W17551  10.694  23.134   0.829
53344W        W17552  14.657  23.037  12.063
53345W        W17553   9.783  30.495   3.759
53346W        W17554  31.541   1.382   4.152
53347W        W17555  39.369  31.500  13.369
53348W        W17556  17.734  13.324   3.216
53349W        W17557  42.438  20.231  11.385
53350W        W17558  10.315  19.254  13.993
53351W        W17559  26.055  35.859  14.976
53352W        W17560   2.772  35.367  12.062
53353W        W17561  43.793  17.587   2.803
53354W        W17562  39.470  13.347  11.105
53355W        W17563  34.011  20.529   2.326
53356W        W17564  35.993   5.432   3.819
53357W        W17565  37.059   6.919   1.712
53358W        W17566  34.429   1.766  14.026
53359W        W17567  44.464  13.347   4.618
53360W        W17568  28.965  11.253   3.171
53361W        W17569  23.673  15.640  10.113
53362W        W17570  36.531  29.602  14.441
53363W        W17571  27.995  25.657  14.342
53364W        W17572  20.273   5.796  10.113
53365W        W17573  40.306  23.643  10.081
53366W        W17574  44.374   8.212   2.741
53367W        W17575  20.687  29.941   2.787
53368W        W17576  37.993  33.927   2.739
53369W        W17577  30.059   3.746  10.564
53370W        W17578  12.323  37.861  10.463
53371W        W17579  27.599  42.501   4.117
53372W        W17580   5.390   4.915   0.728
53373W        W17581  12.291  38.470   0.950
53374W        W17582  18.761  39.451   3.334
53375W        W17583  42.027  41.959   1.929
53376W        W17584  44.452  20.249  11.574
53377W        W17585  27.644  16.683  13.424
53378W        W17586   0.486  36.541   2.189
53379W        W17587   1.735  30.658  11.443
53380W        W17588   9.790   4.413  14.377
53381W        W17589  25.966  14.188   0.255
53382W        W17590  26.160   1.751   1.417
53383W        W17591   3.736  33.450  13.453
53384W        W17592  17.778  23.102   0.805
53385W        W17593   0.453  24.656  14.826
53386W        W17594   5.294  19.545  10.603
53387W        W17595   0.465  27.975   2.726
53388W        W17596  38.440  29.624   2.781
53389W        W17597  35.433  34.459   3.766
53390W        W17598  42.826  14.762   0.871
53391W        W17599  21.534  29.533  13.472
53392W        W17600  36.483   1.334   3.672
53393W        W17601   1.885  20.733   4.226
53394W        W17602  11.302  36.554  12.097
53395W        W17603  42.379   2.850   0.941
53396W        W17604  22.541  15.250  14.330
53397W        W17605  44.433   0.830  10.950
53398W        W17606  43.011   5.768   3.709
53399W        W17607  38.483  23.678  13.978
53400W        W17608  23.507  16.805  10.937
53401W        W17609  38.975  34.936  12.849
53402W        W17610  12.652  26.508   0.924
53403W        W17611   7.735  34.036   2.799
53404W        W17612  20.165  41.965  11.562
53405W        W17613  33.383   1.367   1.804
53406W        W17614  28.041   4.817  12.088
53407W        W17615  10.383  28.530  13.855
53408W        W17616  25.502  24.189  13.804
53409W        W17617  41.039  30.097   4.654
53410W        W17618   4.729   3.760  10.550
53411W        W17619  22.095   7.396   1.317
53412W        W17620  43.960  34.530  13.410
53413W        W17621  12.141  33.918   3.661
53414W        W17622  17.631  24.545   0.312
53415W        W17623   9.384  30.413   9.937
53416W        W17624  13.748  35.483  13.484
53417W        W17625  25.625   3.448  11.932
53418W        W17626   9.781  44.404   4.187
53419W        W17627  39.410  26.456  10.578
53420W        W17628  17.733  20.130  12.907
53421W        W17629  44.837  18.742  11.862
53422W        W17630  38.331  24.724   4.804
53423W        W17631  27.689  44.265   2.707
53424W        W17632   8.900  27.554   0.467
53425W        W17633   2.317  22.704   5.296
53426W        W17634   7.675   5.829  11.109
53427W        W17635  22.552   9.704   2.757
53428W        W17636  41.503  39.468   0.412
53429W        W17637  16.207   6.716   1.780
53430W        W17638  17.615  15.746  12.945
53431W        W17639   6.197  11.677   4.273
53432W        W17640   7.793  43.310  12.521
53433W        W17641  41.860  43.416   0.730
53434W        W17642  40.846   9.782   2.361
53435W        W17643   9.297   5.421  12.565
53436W        W17644   2.859  31.449   3.274
53437W        W17645  36.002   7.908  11.396
53438W        W17646  23.490  26.457  11.530
53439W        W17647   8.267   2.434   3.759
53440W        W17648  23.727  42.975  11.552
53441W        W17649  33.466  33.448  13.507
53442W        W17650  11.148  39.538  14.509
53443W        W17651  32.114  14.733  12.541
53444W        W17652  17.739  40.332  10.937
53445W        W17653   5.369   9.180  11.500
53446W        W17654  34.614  40.431  14.358
53447W        W17655  21.088   2.450  12.394
53448W        W17656  32.623  29.980   3.238
53449W        W17657  20.738  32.076  10.040
53450W        W17658  29.941  32.597   4.736
53451W        W17659  41.971  39.029   4.831
53452W        W17660  42.329  34.057   3.661
53453W        W17661  42.462  14.777  13.977
53454W        W17662   2.354  40.970  12.358
53455W        W17663   4.797  39.060   2.314
53456W        W17664  10.704  16.648   0.920
53457W        W17665  25.706  31.596  11.394
53458W        W17666   0.933  20.594  13.475
53459W        W17667  40.505   0.925   0.435
53460W        W17668  20.204  27.156  11.456
53461W        W17669   4.402  38.942   4.173
53462W        W17670   2.285  12.179   3.372
53463W        W17671  33.057  10.371   4.338
53464W        W17672  25.169  39.907  14.449
53465W        W17673  27.576  30.995   3.783
53466W        W17674  40.835  24.618  11.442
53467W        W17675  16.782  20.093   2.274
53468W        W17676  32.996  11.247  10.893
53469W        W17677  37.460  42.780  12.963
53470W        W17678  37.925  41.897   2.851
53471W        W17679  44.804   6.418   4.728
53472W        W17680  44.766   1.261   5.096
53473W        W17681  30.631  11.719   4.669
53474W        W17682  27.533  40.391   0.451
53475W        W17683   4.430   5.838   1.303
53476W        W17684  14.754  24.211  12.858
53477W        W17685  24.985  27.173   2.663
53478W        W17686  36.966   9.792  14.880
53479W        W17687  39.514  10.383  14.899
53480W        W17688   6.760  11.347   3.261
53481W        W17689  40.925   7.333  12.542
53482W        W17690  40.374   7.291  10.617
53483W        W17691   2.737   6.816  12.510
53484W        W17692   1.462  44.975  10.560
53485W        W17693   6.359   8.847   0.910
53486W        W17694  17.098  38.900   1.855
53487W        W17695  25.639  16.646  14.338
53488W        W17696  23.100   6.812  12.089
53489W        W17697  28.569   2.909  10.439
53490W        W17698  34.107  36.925   0.312
53491W        W17699  36.953  35.446  13.463
53492W        W17700  42.507   0.950  14.926
53493W        W17701  28.102  43.855  12.923
53494W        W17702   5.205  38.991   4.268
53495W        W17703  11.202  43.810  10.506
53496W        W17704  39.821  43.406  12.348
53497W        W17705  43.962  33.465  10.138
53498W        W17706  19.596  36.349   3.147
53499W        W17707  28.508   5.837  12.826
53500W        W17708   5.799  30.632  13.410
53501W        W17709  30.159  38.014  12.485
53502W        W17710  26.462  25.969  10.541
53503W        W17711   1.284  28.010   3.230
53504W        W17712   0.902  31.480  11.993
53505W        W17713  17.780  20.591   0.798
53506W        W17714  18.771  23.682   3.662
53507W        W17715  36.998  19.052   1.374
53508W        W17716  40.528  19.242  14.314
53509W        W17717  42.320   6.898  11.974
53510W        W17718  31.448  27.049   4.186
53511W        W17719  41.325  41.477  12.389
53512W        W17720   1.785  13.709   4.257
53513W        W17721   5.205  21.141   2.789
53514W        W17722  36.006   2.375  14.949
53515W        W17723   8.681  34.037  11.931
53516W        W17724   8.248  40.873  11.075
53517W        W17725   6.370  29.071   2.310
53518W        W17726  10.257  39.985  13.347
53519W        W17727   5.748  40.444   0.339
53520W        W17728  29.071  22.073   1.331
53521W        W17729   6.731  13.815   3.299
53522W        W17730   8.675  17.746   4.776
53523W        W17731   3.225  14.774  14.390
53524W        W17732  44.356  39.949   2.250
53525W        W17733  36.504  34.893  10.405
53526W        W17734   7.822  16.167  10.641
53527W        W17735  38.416   1.429  13.902
53528W        W17736  42.006  37.545   4.675
53529W        W17737  37.067   8.767  14.982
53530W        W17738  12.847  13.328  12.968
53531W        W17739  33.415  29.133  13.307
53532W        W17740  23.515  38.870  10.456
53533W        W17741  15.115  43.354   1.796
53534W        W17742  21.669   3.824  12.418
53535W        W17743  30.057  14.096  13.794
53536W        W17744  32.056  43.369   3.680
53537W        W17745  41.356   3.745   3.767
53538W        W17746  21.610  24.615  12.079
53539W        W17747   3.800  21.697   4.233
53540W        W17748  41.859  43.422   1.727
53541W        W17749  44.301  11.835   1.736
53542W        W17750  24.002  20.764  10.631
53543W        W17751  29.967   2.241  10.409
53544W        W17752  31.137  27.521   2.675
53545W        W17753  27.977   6.290   3.285
53546W        W17754  10.863   5.808   3.370
53547W        W17755  37.578  37.463  10.567
53548W        W17756  26.567   6.224   0.853
53549W        W17757  25.492  43.342   4.348
53550W        W17758   2.236  14.120   5.130
53551W        W17759  25.962  21.619   2.400
53552W        W17760  33.067  31.965  13.424
53553W        W17761  44.812  21.575  14.784
53554W        W17762  44.485   6.776   4.768
53555W        W17763   5.268   9.693   0.899
53556W        W17764  16.628  35.361   1.716
53557W        W17765  15.242  40.522  12.042
53558W        W17766  14.597  43.870  12.951
53559W        W17767  15.095  28.078   1.863
53560W        W17768   5.830  23.578   2.225
53561W        W17769   3.360  14.303   0.845
53562W        W17770  16.788   3.447   1.228
53563W        W17771  15.179  39.467   5.205
53564W        W17772  21.630  40.488   4.306
53565W        W17773  32.060  34.946  13.985
53566W        W17774   7.909  40.331   4.238
53567W        W17775  21.651   0.756   2.305
53568W        W17776   7.849   4.831   1.434
53569W        W17777  34.939   5.809   4.613
53570W        W17778   4.362  38.357   4.816
53571W        W17779   0.368   6.901  10.588
53572W        W17780   9.854   6.828   0.956
53573W        W17781  24.041  11.267   3.795
53574W        W17782  42.879  21.034  12.407
53575W        W17783   1.248  24.207  14.797
53576W        W17784   1.314  43.514   4.227
53577W        W17785  33.606   4.407   1.240
53578W        W17786  24.585  42.905   1.236
53579W        W17787  41.859  39.910   0.349
53580W        W17788  24.179  28.625  10.955
53581W        W17789  10.662  11.167  12.363
53582W        W17790  23.643  19.218   9.642
53583W        W17791   3.893  21.068   2.887
53584W        W17792  17.664  44.789   0.897
53585W        W17793  21.610  39.041   3.228
53586W        W17794  43.364   4.927   1.450
53587W        W17795  27.016  44.780  12.034
53588W        W17796  10.243  32.971  13.026
53589W        W17797  11.757  27.533  12.445
53590W        W17798  11.842  41.357  13.512
53591W        W17799  34.888  34.484  10.483
53592W        W17800   1.915   4.743  13.807
53593W        W17801   4.239  39.849  13.521
53594W        W17802  19.658   8.287  11.386
53595W        W17803  24.107  26.671   3.227
53596W        W17804  20.214  39.455  12.452
53597W        W17805  40.930  34.017  11.875
53598W        W17806  21.191  38.947   1.900
53599W        W17807  34.445  13.110   4.604
53600W        W17808   9.811  29.556  13.340
53601W        W17809  36.045  27.545   2.241
53602W        W17810  16.201  42.438  12.054
53603W        W17811  21.126  40.962   4.221
53604W        W17812  27.459  24.174  11.574
53605W        W17813  16.163   3.893  11.869
53606W        W17814  13.222  16.095   3.717
53607W        W17815  10.697  21.721  11.915
53608W        W17816  24.691  26.023   4.332
53609W        W17817  32.100  38.376   2.665
53610W        W17818  23.221  12.664   2.225
53611W        W17819   7.745  12.806   5.217
53612W        W17820  13.780  43.426   3.326
53613W        W17821   7.220  26.205   4.736
53614W        W17822  25.041  36.441  12.981
53615W        W17823  22.066  36.352  10.634
53616W        W17824  35.520  37.451  11.547
53617W        W17825  18.293   3.839   0.303
53618W        W17826  40.817  19.193   0.310
53619W        W17827   4.401  42.302  12.862
53620W        W17828   6.405  29.593  11.412
53621W        W17829   8.354  25.997   4.350
53622W        W17830   2.387  28.615   3.786
53623W        W17831  27.131  42.959   9.969
53624W        W17832  42.343  12.809   2.354
53625W        W17833   0.447  15.731   0.898
53626W        W17834  16.213  44.393  10.448
53627W        W17835  39.964  12.813  10.428
53628W        W17836  33.121  24.101  13.382
53629W        W17837   7.385   5.825  11.940
53630W        W17838  31.622  35.580   0.299
53631W        W17839  20.119  25.160   2.213
53632W        W17840  23.020  10.747  11.088
53633W        W17841  26.987  40.513  13.895
53634W        W17842  20.718  19.773   5.224
53635W        W17843  20.117  14.751   3.851
53636W        W17844   1.479  19.168  10.520
53637W        W17845  34.032  34.019  11.006
53638W        W17846  22.696   8.377  12.432
53639W        W17847   1.806  37.528   0.387
53640W        W17848  15.120  11.168  14.881
53641W        W17849   4.779  37.541   4.791
53642W        W17850  29.997  22.248  13.441
53643W        W17851  19.670  30.940  10.551
53644W        W17852  25.074  20.763  13.837
53645W        W17853  32.534  18.677  14.918
53646W        W17854  34.378  40.434   3.261
53647W        W17855  10.660  11.845   5.132
53648W        W17856  29.443  30.414  12.498
53649W        W17857  23.126  40.537  11.389
53650W        W17858  43.871   3.742  12.929
53651W        W17859  30.451   7.740  13.412
53652W        W17860  12.730   6.403  12.032
53653W        W17861  37.434  11.306  11.107
53654W        W17862  11.813   8.706  14.782
53655W        W17863  13.655   8.733  12.406
53656W        W17864  43.788  30.546   1.366
53657W        W17865  27.020  13.317   1.352
53658W        W17866  33.988  30.153  14.877
53659W        W17867  12.632  28.999  11.095
53660W        W17868   9.160   7.412   3.863
53661W        W17869  32.994  39.502  12.939
53662W        W17870  44.894  21.747  11.016
53663W        W17871  20.625  29.155   2.790
53664W        W17872  38.379  27.042   3.211
53665W        W17873  12.646  12.219   4.710
53666W        W17874  29.048  42.860  10.439
53667W        W17875  23.618  10.874   0.333
53668W        W17876  20.572  12.701   0.819
53669W        W17877  13.841  43.825  10.903
53670W        W17878  31.521  11.165   4.792
53671W        W17879  37.950   5.218   4.252
53672W        W17880  16.122  34.607  11.015
53673W        W17881   0.305  43.329   2.793
53674W        W17882   7.384  14.275  14.761
53675W        W17883  28.485  32.887   0.328
53676W        W17884   4.754  39.047  14.783
53677W        W17885  41.962  17.656   1.381
53678W        W17886  19.619   0.340   4.604
53679W        W17887  14.631  19.710  13.519
53680W        W17888  43.973  31.950  12.862
53681W        W17889   4.260  40.030   4.816
53682W        W17890   9.806   4.372  13.432
53683W        W17891   0.302  11.165  13.834
53684W        W17892  25.564  43.376  12.982
53685W        W17893  37.871  26.588  11.536
53686W        W17894  14.825  30.944  13.312
53687W        W17895  32.946   0.353   0.931
53688W        W17896  31.438  37.402   4.285
53689W        W17897  21.233   7.232  11.464
53690W        W17898   8.400  33.622   4.813
53691W        W17899  17.258   1.477   4.759
53692W        W17900  43.902  35.526  13.015
53693W        W17901  42.365  29.621  14.987
53694W        W17902  39.433  11.651  13.356
53695W        W17903  39.995  28.050   4.621
53696W        W17904  31.898   0.374   0.472
53697W        W17905  32.108  11.633   0.956
53698W        W17906   7.803  16.301   3.250
53699W        W17907  31.000  23.039  11.472
53700W        W17908  17.778  36.449  10.455
53701W        W17909   3.713  13.235   3.675
53702W        W17910  34.460   0.467   3.281
53703W        W17911  27.669  12.316   0.729
53704W        W17912  13.125  12.298  13.905
53705W        W17913  36.385  22.043  11.577
53706W        W17914  34.047  42.419   0.389
53707W        W17915   0.356  25.606   1.391
53708W        W17916  38.040  15.269   0.475
53709W        W17917  37.360  25.992  13.450
53710W        W17918   4.229  43.001  14.806
53711W        W17919  28.034   1.364  13.826
53712W        W17920  14.620  28.068  14.820
53713W        W17921  26.140  25.051   2.848
53714W        W17922   3.780  14.745   4.597
53715W        W17923  33.961  22.542  12.855
53716W        W17924  41.950   9.321   2.326
53717W        W17925  10.275  14.748  13.817
53718W        W17926  11.764   8.769   2.224
53719W        W17927  30.503  22.728   2.901
53720W        W17928  28.084  18.594   3.791
53721W        W17929  16.151  42.010  14.913
53722W        W17930   4.936  36.440  14.317
53723W        W17931  40.318  25.680  11.011
53724W        W17932  44.762  30.593   0.403
53725W        W17933  11.837  29.424  13.866
53726W        W17934  37.941  18.296  12.505
53727W        W17935  42.894  11.192   0.949
53728W        W17936  41.037  17.259  13.364
53729W        W17937  27.180  29.573   0.391
53730W        W17938  22.604  33.381   3.845
53731W        W17939  10.194  35.007  11.051
53732W        W17940  16.100  31.607   0.909
53733W        W17941   9.878   2.407  13.792
53734W        W17942   2.376  33.924   3.716
53735W        W17943  34.937  42.812  13.899
53736W        W17944  17.294  36.552  12.397
53737W        W17945  22.551  27.546   3.732
53738W        W17946  26.017   3.337   3.680
53739W        W17947  12.626  17.258  13.944
53740W        W17948  35.965  19.723  10.922
53741W        W17949  44.907  21.192  13.441
53742W        W17950  19.053  22.190   0.915
53743W        W17951   7.215   0.450   4.680
53744W        W17952  11.324  25.560  13.843
53745W        W17953   0.765   8.302   1.291
53746W        W17954  29.940   9.745  11.379
53747W        W17955   7.191   8.699  11.564
53748W        W17956  24.010  41.366   1.449
53749W        W17957  44.809  19.232   0.441
53750W        W17958   9.256  25.189   3.696
53751W        W17959  14.289   1.849  13.350
53752W        W17960  22.010  11.183   0.837
53753W        W17961  25.626   8.705   2.732
53754W        W17962  16.570   7.358  11.468
53755W        W17963  39.853  13.168   2.791
53756W        W17964  18.102   5.430  14.472
53757W        W17965  24.616  26.181   4.791
53758W        W17966  18.788  26.625   5.289
53759W        W17967  33.030  29.476  10.453
53760W        W17968  17.654  44.770  11.008
53761W        W17969   3.722   6.307   3.749
53762W        W17970  33.061  25.089   0.951
53763W        W17971  11.326  30.063   0.333
53764W        W17972  25.158  18.169   0.823
53765W        W17973  23.492   6.284  10.444
53766W        W17974  43.768   5.408  14.887
53767W        W17975  14.787   0.872   4.161
53768W        W17976  39.501  18.639   3.773
53769W        W17977  16.222  36.871   2.800
53770W        W17978  27.097  26.484   5.155
53771W        W17979  27.032   1.293   4.286
53772W        W17980  40.001  34.955  14.797
53773W        W17981  34.606  29.426  14.504
53774W        W17982  13.142   2.383  10.578
53775W        W17983  24.126  29.457  11.878
53776W        W17984  40.981   0.787   4.762
53777W        W17985  23.168   1.262   4.797
53778W        W17986  28.037  16.612  11.883
53779W        W17987  34.378  44.968  10.495
53780W        W17988  27.476  31.445   4.178
53781W        W17989  37.539  23.728  12.016
53782W        W17990  41.518   7.862  10.625
53783W        W17991  35.365  37.426  11.119
53784W        W17992  42.328  42.383  13.941
53785W        W17993  22.548  25.648   0.277
53786W        W17994   4.800  21.225  11.524
53787W        W17995  20.101  27.463  14.940
53788W        W17996  10.634  23.733   1.418
53789W        W17997  38.982  19.574   2.790
53790W        W17998  11.635  10.802   1.820
53791W        W17999   5.721   4.404   0.892
53792W        W18000  18.105  24.714   1.316
53793W        W18001  30.450  38.921  14.970
53794W        W18002  41.408  12.221   3.687
53795W        W18003  27.164  14.179  14.006
53796W        W18004  44.502  11.148   4.135
53797W        W18005  33.438  14.614   9.663
53798W        W18006  29.087   9.315   2.759
53799W        W18007  14.615  16.104  13.326
53800W        W18008  23.159  19.600   2.791
53801W        W18009   3.442  33.563   5.143
53802W        W18010  28.600  36.078  13.855
53803W        W18011   9.750  26.490   4.326
53804W        W18012   3.736   1.789  14.467
53805W        W18013   9.362  28.009   1.856
53806W        W18014   5.308  17.220  11.995
53807W        W18015  11.801   7.273   0.350
53808W        W18016  42.806  33.080  12.837
53809W        W18017  31.897  12.838  13.952
53810W        W18018   4.278  33.525   4.229
53811W        W18019  10.725  12.798  13.314
53812W        W18020  24.196   7.786  10.416
53813W        W18021  42.340  37.386   1.390
53814W        W18022  18.051  36.447   2.715
53815W        W18023  17.794  28.679  14.330
53816W        W18024  17.194  15.108  13.800
53817W        W18025  28.049  10.326  13.858
53818W        W18026  35.433  22.541   4.190
53819W        W18027  10.287  26.590   1.359
53820W        W18028  19.089  27.498   3.254
53821W        W18029   7.905  36.507  12.495
53822W        W18030  42.810  38.364   3.646
53823W        W18031   7.190  21.086  13.456
53824W        W18032  40.874   6.787  10.997
53825W        W18033  12.686   7.908   2.387
53826W        W18034  38.411   7.783  11.104
53827W        W18035   9.859  37.384  13.366
53828W        W18036  19.591  27.087   4.774
53829W        W18037  27.095  18.729   0.935
53830W        W18038  20.271   3.215   2.685
53831W        W18039  27.595  32.448   1.931
53832W        W18040  10.345  28.650   0.921
53833W        W18041  42.414  35.440  14.820
53834W        W18042   9.383  11.769   2.725
53835W        W18043   5.212  21.622   0.362
53836W        W18044  44.767  28.467   4.199
53837W        W18045  20.052  40.526  13.400
53838W        W18046  44.872  29.666   3.378
53839W        W18047  34.982   7.780   4.688
53840W        W18048   0.400  23.086  12.854
53841W        W18049  22.998  43.975   1.830
53842W        W18050  18.553  44.994   2.192
53843W        W18051  42.352  43.860  12.849
53844W        W18052   2.804  21.038  11.555
53845W        W18053  23.134   1.299  12.915
53846W        W18054  10.790  15.279   5.635
53847W        W18055  38.328  34.508   2.824
53848W        W18056  40.350  33.619   0.763
53849W        W18057  22.185  30.909   3.866
53850W        W18058  30.092  26.471  11.524
53851W        W18059  15.633   8.375  10.462
53852W        W18060  35.857  38.391   3.825
53853W        W18061  14.189  32.424   1.745
53854W        W18062  33.620  42.829  12.928
53855W        W18063   8.898  13.255   1.805
53856W        W18064  16.599  27.026   3.678
53857W        W18065  40.989  25.686   3.212
53858W        W18066  10.833  36.549  12.500
53859W        W18067  25.633  35.482   3.721
53860W        W18068  37.341  37.468   0.793
53861W        W18069  35.982   1.466   4.680
53862W        W18070  18.565   7.853  10.493
53863W        W18071  14.308  24.679   0.764
53864W        W18072  37.427  26.646   2.288
53865W        W18073  28.104   2.792   0.379
53866W        W18074  38.884   7.309   2.675
53867W        W18075  24.489  18.710  10.974
53868W        W18076   2.955  21.249  11.099
53869W        W18077  13.664  16.794   2.242
53870W        W18078  34.864  23.231   1.802
53871W        W18079  43.826  36.456  13.844
53872W        W18080  25.172   2.417   3.654
53873W        W18081  41.497  42.435  14.913
53874W        W18082  25.156  37.388  11.461
53875W        W18083   1.971  25.147  14.454
53876W        W18084  28.511  22.678   4.798
53877W        W18085  14.688  40.004   1.291
53878W        W18086  15.808  24.708  12.502
53879W        W18087  19.734  18.721   0.771
53880W        W18088  40.855  16.685   2.315
53881W        W18089  41.492   8.321   1.266
53882W        W18090  19.590   5.783  10.903
53883W        W18091  36.478  32.141   2.761
53884W        W18092  39.444   9.313   2.355
53885W        W18093  23.528  42.303   1.812
53886W        W18094  28.026  20.156  13.498
53887W        W18095  29.480   8.362   3.273
53888W        W18096  22.745  28.156  14.505
53889W        W18097  43.448  43.475   4.195
53890W        W18098   6.365  13.634   0.891
53891W        W18099  20.172  10.771   1.254
53892W        W18100  11.273  10.348  14.398
53893W        W18101  12.777  10.351   0.470
53894W        W18102  10.796  30.455   3.685
53895W        W18103  28.159  24.110  13.448
53896W        W18104  17.649  41.040   5.204
53897W        W18105  33.951  35.028  13.936
53898W        W18106   5.917  33.608  12.540
53899W        W18107  40.923  36.895   3.372
53900W        W18108  40.962  43.767  13.960
53901W        W18109  20.560   4.806  14.463
53902W        W18110  17.118   6.864  10.644
53903W        W18111   8.195  31.961  10.616
53904W        W18112  26.972   8.267   1.427
53905W        W18113  14.290  10.724  14.332
53906W        W18114  26.506  18.268   2.234
53907W        W18115  13.132  37.446   0.850
53908W        W18116  31.091  25.205   5.261
53909W        W18117  12.131  24.556   4.273
53910W        W18118  26.571  37.054   2.193
53911W        W18119  24.656  42.490   4.687
53912W        W18120  17.696  12.770   4.237
53913W        W18121  43.810  27.135  13.897
53914W        W18122   0.856  11.199  11.442
53915W        W18123  14.597  26.523  11.506
53916W        W18124  23.141  29.459   1.856
53917W        W18125   7.860  39.977   2.257
53918W        W18126  25.606  21.746   1.294
53919W        W18127   7.205  14.742   3.721
53920W        W18128  14.106  12.654  13.478
53921W        W18129  15.103  19.106  10.930
53922W        W18130   1.954   8.339   4.750
53923W        W18131   4.263   1.885   1.420
53924W        W18132  34.003  18.630  10.631
53925W        W18133  19.185  11.364  13.885
53926W        W18134  22.152  31.476  14.818
53927W        W18135  10.715  39.360  12.449
53928W        W18136  37.957   5.338   9.950
53929W        W18137   7.317  32.948   4.775
53930W        W18138  27.115  26.546   0.403
53931W        W18139   7.218   2.364  12.414
53932W        W18140   7.243  10.758  13.796
53933W        W18141  24.636  31.001   4.785
53934W        W18142   0.287   7.182  11.612
53935W        W18143  12.788  27.111   4.249
53936W        W18144  31.956   3.869   2.831
53937W        W18145  18.124  10.292  14.361
53938W        W18146   7.839   3.321   2.268
53939W        W18147  15.154  41.356  13.873
53940W        W18148   3.855  18.731   1.903
53941W        W18149  43.918  23.500   3.365
53942W        W18150  20.267  17.129   3.802
53943W        W18151  28.485  26.460   5.302
53944W        W18152   0.750   3.290  14.395
53945W        W18153  24.677  15.586   2.293
53946W        W18154  13.222  35.952   3.158
53947W        W18155  26.140  40.844   1.426
53948W        W18156  37.844  32.478  13.025
53949W        W18157   1.398  31.072  12.932
53950W        W18158  13.163  41.316   1.713
53951W        W18159   9.709   9.695   4.620
53952W        W18160  35.533  32.071  11.092
53953W        W18161  13.144  13.767  12.519
53954W        W18162  31.123  15.654  11.395
53955W        W18163  10.828  22.121   2.222
53956W        W18164  37.452  20.043   2.712
53957W        W18165  44.280  12.754   1.216
53958W        W18166  30.607  19.747   4.754
53959W        W18167  41.973  20.240  13.438
53960W        W18168  20.684  30.632  14.990
53961W        W18169  18.718   2.751   1.702
53962W        W18170  33.054  29.138   1.318
53963W        W18171  27.129  25.540  12.996
53964W        W18172   8.328  14.296   5.124
53965W        W18173   7.358  36.923   2.839
53966W        W18174   9.191  15.673   4.798
53967W        W18175  43.514  34.897   0.761
53968W        W18176  18.068  26.528  12.946
53969W        W18177  23.534  38.511  14.984
53970W        W18178  30.005  38.056  11.127
53971W        W18179  34.533  17.654  13.358
53972W        W18180   0.271  16.173   2.348
53973W        W18181  11.140  38.332  10.631
53974W        W18182  39.317  13.662   4.152
53975W        W18183  34.076  11.148   0.946
53976W        W18184  28.534   2.371   3.269
53977W        W18185   6.250  34.990  10.553
53978W        W18186   5.694  25.486   2.221
53979W        W18187  24.138  44.000   0.400
53980W        W18188  43.461  10.171  14.974
53981W        W18189  41.298  30.068   1.272
53982W        W18190  37.428   4.939   5.143
53983W        W18191  22.128  21.110  14.876
53984W        W18192  37.034  25.626   1.804
53985W        W18193  20.103   4.429   4.244
53986W        W18194  11.654   7.838   0.249
53987W        W18195  18.066  29.928   0.378
53988W        W18196  43.764   9.737  13.031
53989W        W18197  26.185  12.687   1.790
53990W        W18198  35.417   5.889   4.334
53991W        W18199  32.607   4.897   2.203
53992W        W18200  39.002   5.805   1.301
53993W        W18201   0.796  27.475   4.185
53994W        W18202  25.559   6.410  11.375
53995W        W18203  40.834  35.906  14.002
53996W        W18204  11.823  24.113   1.341
53997W        W18205  32.603   6.397  14.952
53998W        W18206  14.107  18.681  10.915
53999W        W18207  44.920  34.554   1.731
54000W        W18208  11.830  31.470   1.380
54001W        W18209   6.330  44.871  11.568
54002W        W18210  15.212   0.273   0.824
54003W        W18211  42.798   1.890   2.799
54004W        W18212  15.618  40.322  12.413
54005W        W18213  28.468  15.286  11.373
54006W        W18214  19.073  18.064  12.539
54007W        W18215  29.512  13.272   3.858
54008W        W18216  27.174  11.784  12.565
54009W        W18217  15.758  16.591  11.005
54010W        W18218  23.669  10.308  11.408
54011W        W18219  33.121  43.283   4.316
54012W        W18220  35.962  31.102  12.465
54013W        W18221  30.042  10.632   1.777
54014W        W18222  11.747   7.390   5.104
54015W        W18223  43.388  23.003  11.892
54016W        W18224   4.388  32.028   0.334
54017W        W18225  21.558  38.517   0.434
54018W        W18226  24.170  26.023  12.087
54019W        W18227  44.798  24.033   1.871
54020W        W18228  39.957  21.212  12.506
54021W        W18229  12.188   3.453  11.585
54022W        W18230  13.688  28.654  12.061
54023W        W18231  18.723  18.179  10.109
54024W        W18232   7.847  34.407   2.858
54025W        W18233  29.958  30.418   2.367
54026W        W18234  35.601  23.501   2.888
54027W        W18235  26.196  10.680   3.820
54028W        W18236  43.927  16.577  10.599
54029W        W18237  40.316  16.646   4.215
54030W        W18238  17.689  43.992  12.434
54031W        W18239  28.550  35.449  10.627
54032W        W18240  40.377  28.573  12.402
54033W        W18241  19.173  15.774  13.879
54034W        W18242  37.830  23.511   3.724
54035W        W18243  18.166  43.927   1.697
54036W        W18244   5.802  22.163   4.696
54037W        W18245  32.491  13.684   1.728
54038W        W18246  20.044  27.450   0.926
54039W        W18247   1.815  25.553   4.197
54040W        W18248  10.816  31.132   4.174
54041W        W18249  43.371  33.012  12.405
54042W        W18250  18.585  10.868   0.732
54043W        W18251  15.225  17.305  10.445
54044W        W18252   4.419  34.888  10.542
54045W        W18253  31.514  10.650   4.266
54046W        W18254  16.095  13.203  13.998
54047W        W18255  44.501  34.400  11.438
54048W        W18256  16.669  34.411  10.628
54049W        W18257  26.641  36.375   1.892
54050W        W18258  16.198  27.550  10.593
54051W        W18259   0.354  19.541   1.916
54052W        W18260   5.845  42.865  14.310
54053W        W18261  23.639   4.743  13.856
54054W        W18262  38.427  10.205  13.521
54055W        W18263  17.701  13.147  10.587
54056W        W18264  21.552  37.510   5.112
54057W        W18265  15.604  12.854   2.851
54058W        W18266  23.611   1.919   2.797
54059W        W18267  34.894  28.657   4.669
54060W        W18268  43.840  39.550  14.013
54061W        W18269  26.646  39.473  12.926
54062W        W18270  44.459  38.398  13.958
54063W        W18271  41.925  17.795  11.863
54064W        W18272   9.165   9.244   0.814
54065W        W18273  42.331  15.175  12.575
54066W        W18274  35.539  35.096   3.836
54067W        W18275  18.188  27.662  13.935
54068W        W18276   4.735  24.593  10.448
54069W        W18277  34.054   7.762  14.012
54070W        W18278  44.845  28.555  10.505
54071W        W18279  41.893  17.065  12.037
54072W        W18280  10.299  32.139  11.916
54073W        W18281  29.610  26.185   3.787
54074W        W18282   1.820  22.681   0.929
54075W        W18283  44.392  13.328  14.335
54076W        W18284  31.972  29.096   4.685
54077W        W18285  10.644   5.736   0.835
54078W        W18286  23.224  19.648   0.746
54079W        W18287  31.507   5.788   4.668
54080W        W18288  42.421   2.947   4.672
54081W        W18289   6.304  38.020   2.676
54082W        W18290  17.555  41.339   3.855
54083W        W18291  27.451  41.531  10.428
54084W        W18292  11.834  31.554  10.485
54085W        W18293   4.791  44.316   1.444
54086W        W18294  38.981  29.081   4.120
54087W        W18295   1.963  44.892   2.336
54088W        W18296   9.274  12.158   0.787
54089W        W18297  23.030  25.491   1.307
54090W        W18298  29.060  20.556  12.064
54091W        W18299   3.720  33.411   2.204
54092W        W18300  11.826   9.743  10.634
54093W        W18301  28.446  19.090   1.268
54094W        W18302  31.924   3.241  14.780
54095W        W18303  28.665  24.197  14.493
54096W        W18304   7.286   7.354  14.300
54097W        W18305   1.372   3.317  14.346
54098W        W18306  30.064  16.614   2.366
54099W        W18307  11.747  23.118  13.345
54100W        W18308   2.839  27.456  12.946
54101W        W18309   1.879  13.310   1.847
54102W        W18310  42.982  21.222  12.072
54103W        W18311  34.053  27.031   2.361
54104W        W18312  39.394   0.845   4.331
54105W        W18313  18.769  37.053  14.840
54106W        W18314  37.049  35.017  12.036
54107W        W18315  27.615  21.689  12.003
54108W        W18316  28.080  39.047  14.452
54109W        W18317   0.414  39.413   1.354
54110W        W18318  29.477  19.151  13.313
54111W        W18319   0.760   9.788  10.889
54112W        W18320  28.942  36.499   3.653
54113W        W18321  33.446  21.051   9.999
54114W        W18322  33.580  35.490   4.719
54115W        W18323  14.264  29.091  13.382
54116W        W18324   1.471  29.438  11.425
54117W        W18325  20.104  27.660   0.368
54118W        W18326  44.989   1.867   1.377
54119W        W18327  43.791  23.234  13.396
54120W        W18328  10.296  41.511  14.821
54121W        W18329  42.400  36.922   1.768
54122W        W18330  30.930  37.906   3.728
54123W        W18331  28.042  28.581   1.382
54124W        W18332  20.201   3.849  14.813
54125W        W18333  29.484  30.117   4.316
54126W        W18334   4.746  38.060  13.832
54127W        W18335  23.489  37.936   4.268
54128W        W18336  31.952  17.677  13.426
54129W        W18337   6.866  10.726   0.348
54130W        W18338  43.775  15.662  10.563
54131W        W18339  27.549  27.977   2.869
54132W        W18340  13.679   6.704  11.013
54133W        W18341  31.116  43.942   1.779
54134W        W18342  24.081   0.442  14.792
54135W        W18343  37.554  22.034   3.653
54136W        W18344   1.271   0.788  11.420
54137W        W18345  26.607  31.137   3.167
54138W        W18346  30.491   2.241   4.824
54139W        W18347  11.280  23.596  12.917
54140W        W18348   1.903  37.042   0.874
54141W        W18349   2.298  12.618  12.405
54142W        W18350  10.697   9.875   4.790
54143W        W18351  30.015  14.818  12.031
54144W        W18352  41.318  25.030  10.423
54145W        W18353  35.555  31.557  12.380
54146W        W18354  10.850   1.422   3.350
54147W        W18355  13.652  24.997   4.660
54148W        W18356   9.247   3.437   3.179
54149W        W18357  20.719  15.703  11.596
54150W        W18358  35.423  33.024  11.974
54151W        W18359  14.603  41.423   1.743
54152W        W18360  33.892  16.608   2.247
54153W        W18361  16.747   1.924   3.212
54154W        W18362  38.025  12.757  10.026
54155W        W18363  30.537  17.248   1.303
54156W        W18364  35.880  26.182   2.715
54157W        W18365  32.104  24.604  13.515
54158W        W18366  28.044  35.077   0.835
54159W        W18367  34.918   5.343  10.457
54160W        W18368  36.410   1.454  14.987
54161W        W18369  43.484  16.190  12.934
54162W        W18370   7.690  41.022   3.174
54163W        W18371  30.965   7.196  12.492
54164W        W18372  28.669  42.958  13.855
54165W        W18373  29.131  34.989  11.458
54166W        W18374  10.156  18.262   1.285
54167W        W18375   3.950   5.402   4.616
54168W        W18376  31.592  10.142  13.058
54169W        W18377  44.311   9.305   2.850
54170W        W18378  19.697  41.430   2.347
54171W        W18379  39.476  30.918  13.960
54172W        W18380  32.944  12.836   2.415
54173W        W18381   0.853  12.150  11.064
54174W        W18382   8.713  19.686   4.694
54175W        W18383   0.494  32.497   9.609
54176W        W18384  42.328  36.914  11.481
54177W        W18385   7.806  20.735   3.150
54178W        W18386  15.265   5.197   0.436
54179W        W18387  12.750  37.898   1.791
54180W        W18388  13.181   6.824  12.505
54181W        W18389  19.055   6.243  14.996
54182W        W18390  37.490  26.993   4.775
54183W        W18391  25.622   5.772   1.857
54184W        W18392  33.576  26.512  10.914
54185W        W18393  35.856  40.350   4.714
54186W        W18394  10.729  44.826  10.515
54187W        W18395  23.132  13.690   2.398
54188W        W18396  38.413  35.080  11.102
54189W        W18397  34.385  37.514  14.824
54190W        W18398  16.267  25.496   3.197
54191W        W18399  23.206  41.940   0.349
54192W        W18400   0.771   7.274   4.829
54193W        W18401  31.065  44.479  14.998
54194W        W18402  23.229  15.317   0.782
54195W        W18403  36.383  20.715  11.380
54196W        W18404   0.387  44.482  11.974
54197W        W18405  33.523  17.128  11.521
54198W        W18406  11.234   5.242  12.515
54199W        W18407  12.750  11.182   9.676
54200W        W18408  11.322   4.390  14.472
54201W        W18409  28.491  12.154   3.680
54202W        W18410  39.535   4.303  14.948
54203W        W18411  42.033  12.258  14.316
54204W        W18412  21.213  29.552  10.603
54205W        W18413  32.491  26.570  12.439
54206W        W18414   5.226  31.430  10.570
54207W        W18415  26.195  32.042  12.064
54208W        W18416  19.124   1.966   1.752
54209W        W18417  15.804  39.050   1.236
54210W        W18418  35.077  24.097   3.788
54211W        W18419  19.691   7.379   3.252
54212W        W18420  16.097   5.296  13.462
54213W        W18421  38.352  21.569   4.748
54214W        W18422  39.494  31.139  11.000
54215W        W18423  15.731  35.569   4.646
54216W        W18424  17.761   3.432   0.871
54217W        W18425   8.194  23.219  13.002
54218W        W18426   2.256  12.209   4.226
54219W        W18427  19.574  40.893   2.232
54220W        W18428  39.930  20.254  11.394
54221W        W18429  10.728  29.590  14.511
54222W        W18430   8.743  34.440  12.500
54223W        W18431  24.680   7.294   2.235
54224W        W18432   7.305  28.095   5.141
54225W        W18433  30.600  21.122   1.221
54226W        W18434  21.021  38.348  13.984
54227W        W18435  17.246  36.362  11.381
54228W        W18436  34.534  39.968  14.431
54229W        W18437  40.333   3.253   0.829
54230W        W18438   7.227  16.244   0.422
54231W        W18439   3.845   0.440  12.879
54232W        W18440  30.132  16.703   3.161
54233W        W18441   0.794   8.761  11.584
54234W        W18442  35.972   6.826   3.664
54235W        W18443  22.697  35.430  13.515
54236W        W18444  40.536  43.856  12.843
54237W        W18445  41.309  44.928  13.404
54238W        W18446  22.580  18.690  13.512
54239W        W18447   9.233   5.872  11.463
54240W        W18448   5.804  14.809  14.007
54241W        W18449  26.100  17.287  13.536
54242W        W18450  10.752  25.628  13.815
54243W        W18451   8.673  16.138  14.969
54244W        W18452  23.148   5.741   3.669
54245W        W18453  32.576  34.947   0.371
54246W        W18454  43.508  11.213   2.354
54247W        W18455  29.129   1.886  12.486
54248W        W18456  27.528   6.758   0.251
54249W        W18457  33.994  31.500  13.916
54250W        W18458   8.389  22.021  13.480
54251W        W18459  43.944   7.765   1.796
54252W        W18460   4.877  11.144   2.890
54253W        W18461  38.428  21.254  14.772
54254W        W18462  20.051  30.475   2.670
54255W        W18463   4.938  39.043   4.279
54256W        W18464  20.262  36.011   5.204
54257W        W18465  32.985  18.129   0.391
54258W        W18466  12.667   1.954  14.785
54259W        W18467  33.919  15.821  10.965
54260W        W18468   0.773  35.102   0.279
54261W        W18469   6.365  43.956  12.464
54262W        W18470  24.720  29.569  12.356
54263W        W18471   9.355  43.315   0.816
54264W        W18472  32.523   9.218  13.482
54265W        W18473  40.051  30.977  12.973
54266W        W18474  39.004  33.588   4.154
54267W        W18475  18.079   0.767  11.515
54268W        W18476   6.413  13.278  11.541
54269W        W18477  38.432   8.893   2.350
54270W        W18478  39.449  35.049   1.901
54271W        W18479  26.130  38.990  11.558
54272W        W18480  25.714  28.039   2.765
54273W        W18481  23.221  11.673  11.468
54274W        W18482  21.540  15.236   0.387
54275W        W18483   2.942  20.710   0.312
54276W        W18484  36.918  23.122  14.903
54277W        W18485  38.960  18.647  13.467
54278W        W18486   5.816  31.432  11.980
54279W        W18487  19.593   1.422   1.383
54280W        W18488   6.807  37.029   4.201
54281W        W18489  39.356  33.954   1.274
54282W        W18490  38.512  12.220  14.497
54283W        W18491  22.172  43.835   0.311
54284W        W18492  44.900  43.963   3.642
54285W        W18493  14.613  15.289  11.888
54286W        W18494  24.686  18.604  12.500
54287W        W18495  18.740   7.816   2.827
54288W        W18496  32.405  40.312   0.354
54289W        W18497  43.444  27.127  13.534
54290W        W18498  43.275   1.894   5.290
54291W        W18499  41.846  34.532  11.860
54292W        W18500   4.706  14.307  11.377
54293W        W18501  22.648  44.824  12.559
54294W        W18502  35.927  28.954  14.436
54295W        W18503  32.591  18.225   2.783
54296W        W18504   0.383  39.871  14.762
54297W        W18505  17.603  17.643  12.554
54298W        W18506  42.505  37.924   4.343
54299W        W18507  15.198   7.862   2.329
54300W        W18508  12.262  44.330   2.809
54301W        W18509  30.915  37.983   2.315
54302W        W18510  31.015   6.714  13.859
54303W        W18511  13.235  18.584  13.538
54304W        W18512   2.360  30.495  11.581
54305W        W18513   0.330  12.758  13.385
54306W        W18514  40.910  26.657   4.157
54307W        W18515  41.868  25.123   1.276
54308W        W18516   7.269   5.213  12.340
54309W        W18517  10.367  20.737  12.397
54310W        W18518   0.266  38.570  12.371
54311W        W18519  42.790  41.328   2.277
54312W        W18520   3.919  25.027   4.153
54313W        W18521  15.121  27.137   0.317
54314W        W18522  37.575  30.995   2.348
54315W        W18523  16.670  31.559  10.931
54316W        W18524   3.813  29.039   2.225
54317W        W18525  29.046  23.122   2.248
54318W        W18526  24.592  27.958  12.437
54319W        W18527  19.133  11.271  11.010
54320W        W18528  43.984  38.495   1.410
54321W        W18529   7.257  20.654  13.055
54322W        W18530   6.862   3.242  11.456
54323W        W18531  32.424   4.765  13.968
54324W        W18532  11.630  38.824   5.268
54325W        W18533  31.951  37.013   3.255
54326W        W18534  31.456  43.801   4.829
54327W        W18535  21.604  38.520  13.539
54328W        W18536  18.702  44.958   1.765
54329W        W18537  18.238  44.824  13.045
54330W        W18538  35.417  40.371  11.395
54331W        W18539  27.476  11.843   0.302
54332W        W18540  39.537  17.742   2.213
54333W        W18541   0.925  40.311   9.984
54334W        W18542  24.696  38.076   4.122
54335W        W18543   8.704  15.296   1.221
54336W        W18544  14.722  44.803   3.758
54337W        W18545   5.309   6.834   1.912
54338W        W18546   3.299  20.107   4.173
54339W        W18547  36.496  43.315   3.768
54340W        W18548  35.978  23.625  12.436
54341W        W18549  15.204   8.169  12.341
54342W        W18550  23.161  14.097  14.510
54343W        W18551  34.009  33.474   4.736
54344W        W18552  25.197  21.106  13.325
54345W        W18553   2.385  32.624  14.353
54346W        W18554  11.805  29.038  14.795
54347W        W18555  40.864  34.911  14.333
54348W        W18556  11.663  33.000  12.984
54349W        W18557  43.400  18.192  12.827
54350W        W18558  30.654   7.711   1.225
54351W        W18559  38.531  35.021   2.301
54352W        W18560  13.802  15.213  12.007
54353W        W18561  30.574  23.655   3.241
54354W        W18562  22.026  11.786   3.206
54355W        W18563   8.720   2.255  10.895
54356W        W18564  34.518  33.524  14.322
54357W        W18565  39.354  38.370   3.697
54358W        W18566  18.194  39.487   2.794
54359W        W18567  15.771  14.199  12.494
54360W        W18568  14.104  35.582  13.055
54361W        W18569   9.886  27.084  12.472
54362W        W18570   6.858  25.014  14.363
54363W        W18571  32.972  16.261   1.317
54364W        W18572  18.200  30.094   3.686
54365W        W18573   9.846  41.868   0.846
54366W        W18574   8.894   9.337   5.252
54367W        W18575  32.924  29.641   0.385
54368W        W18576  25.210   2.947  12.547
54369W        W18577   0.300  36.466  13.353
54370W        W18578  41.334  14.125   1.347
54371W        W18579   3.781  24.092   3.148
54372W        W18580  17.070  28.145  12.441
54373W        W18581   8.193   8.264  14.493
54374W        W18582  21.570  11.658   4.809
54375W        W18583   6.774  23.190  14.836
54376W        W18584   7.306  26.128  13.455
54377W        W18585   8.896  30.506   1.263
54378W        W18586  12.614  16.168   3.656
54379W        W18587  19.618  39.948  11.435
54380W        W18588  11.774  18.719  12.844
54381W        W18589   8.381  15.205  11.910
54382W        W18590  16.250  18.272  12.344
54383W        W18591  13.305  30.451  12.419
54384W        W18592  41.443  39.384   1.860
54385W        W18593   0.408  19.649   1.275
54386W        W18594  27.455   8.750   1.719
54387W        W18595  11.363  21.710  13.821
54388W        W18596  16.709   6.373   2.262
54389W        W18597  20.737  10.306   4.827
54390W        W18598  21.141  38.426  12.574
54391W        W18599  11.642  14.801   4.638
54392W        W18600  20.127   5.248   3.156
54393W        W18601  17.294  44.450   2.386
54394W        W18602  33.946  13.818  13.330
54395W        W18603   2.288  25.198   5.098
54396W        W18604  15.754  25.074   1.764
54397W        W18605  41.021  15.198  11.954
54398W        W18606  40.472  36.393   1.329
54399W        W18607  30.501  10.243   4.212
54400W        W18608  38.941   7.710  14.497
54401W        W18609  44.319  25.076  10.503
54402W        W18610  24.210  30.573  14.976
54403W        W18611  13.685  39.019   0.313
54404W        W18612  12.624  14.733   1.217
54405W        W18613  36.347   7.354  13.438
54406W        W18614  41.988  14.634  14.437
54407W        W18615  36.491  37.016   4.833
54408W        W18616  21.561  34.393   3.335
54409W        W18617  13.697  41.525   1.797
54410W        W18618  20.030  33.905  14.991
54411W        W18619  24.980  39.510  12.373
54412W        W18620  30.508  31.075   0.845
54413W        W18621  16.144  20.114  13.893
54414W        W18622  19.754  39.329  10.071
54415W        W18623   1.323  35.062  11.544
54416W        W18624   7.398  10.753   1.819
54417W        W18625   7.853   8.288   4.280
54418W        W18626  18.737   2.905  14.435
54419W        W18627  31.582  22.611  14.936
54420W        W18628  26.101  33.907   4.235
54421W        W18629  14.692  10.851   2.377
54422W        W18630  39.454  34.873  11.511
54423W        W18631  38.038   0.261  14.484
54424W        W18632  31.463  42.296   0.834
54425W        W18633  43.820  10.163   4.260
54426W        W18634  18.716  19.755  10.500
54427W        W18635   6.777  15.720  10.960
54428W        W18636  42.405  25.659  14.957
54429W        W18637  33.572  37.359   2.257
54430W        W18638   4.787  18.178   3.812
54431W        W18639   5.749  21.173   4.132
54432W        W18640   0.897  44.262  13.826
54433W        W18641  15.764   4.756   4.163
54434W        W18642   8.725   8.165  12.824
54435W        W18643   8.885  37.909   3.845
54436W        W18644  36.490  41.950  10.530
54437W        W18645  32.025   7.185   3.774
54438W        W18646  18.664  18.192   4.317
54439W        W18647  17.791  28.472   2.366
54440W        W18648  23.106  40.871   3.331
54441W        W18649   3.817  43.482   0.402
54442W        W18650  21.700  22.515   1.925
54443W        W18651  14.103  16.174  13.332
54444W        W18652   0.265  10.871   2.877
54445W        W18653  39.054  29.933   0.830
54446W        W18654  34.982  29.014   3.749
54447W        W18655   5.211  29.957   0.375
54448W        W18656  14.146  21.201  10.407
54449W        W18657   5.762  43.966   4.832
54450W        W18658  25.638  16.094  11.031
54451W        W18659  23.160  27.980   1.365
54452W        W18660  20.147  16.148  13.319
54453W        W18661  43.823   9.175   0.791
54454W        W18662  27.063  12.758  13.940
54455W        W18663  34.042  11.623  13.952
54456W        W18664  33.994  37.577   1.821
54457W        W18665  27.163  33.978  14.808
54458W        W18666  11.794  27.151  14.511
54459W        W18667  38.471  15.130   1.446
54460W        W18668  29.061   7.178   0.953
54461W        W18669  35.046  14.808  13.059
54462W        W18670  31.120  24.592  13.431
54463W        W18671  29.655  11.709  13.540
54464W        W18672  30.419  23.026   1.351
54465W        W18673  25.100  25.202  11.437
54466W        W18674  42.460  25.603   3.154
54467W        W18675  25.476  41.297   9.937
54468W        W18676  10.223  12.803  11.033
54469W        W18677  35.501  13.164   1.322
54470W        W18678  13.268  19.256   3.689
54471W        W18679  26.183   4.246   0.924
54472W        W18680  17.280  35.999   0.254
54473W        W18681  40.384  28.137   4.770
54474W        W18682   5.436   2.256  13.928
54475W        W18683   3.777  17.198  14.837
54476W        W18684   0.824   9.389  14.322
54477W        W18685  37.558  24.624   4.296
54478W        W18686  38.919  40.337   5.137
54479W        W18687   3.861  37.935  11.608
54480W        W18688  35.962   0.758   2.371
54481W        W18689  44.338  19.666  12.991
54482W        W18690   1.809  25.024  11.588
54483W        W18691  37.860   9.840   1.351
54484W        W18692   9.705  38.010   2.356
54485W        W18693  16.295  13.261  12.464
54486W        W18694  41.993   3.819  13.972
54487W        W18695  23.535  15.760   1.332
54488W        W18696  27.154  18.751   3.355
54489W        W18697  15.204  42.781  11.430
54490W        W18698  12.716  33.047   1.279
54491W        W18699  38.443   1.372  12.906
54492W        W18700  41.453  27.660  13.978
54493W        W18701  27.025  19.656   3.695
54494W        W18702  27.668  24.156   2.803
54495W        W18703  17.210  37.029  14.884
54496W        W18704  36.385  23.084  13.983
54497W        W18705  20.616  30.651   1.798
54498W        W18706  40.549   6.421  13.408
54499W        W18707  34.058  38.884  12.940
54500W        W18708   5.346  14.714   0.832
54501W        W18709  12.180   7.312  13.442
54502W        W18710  16.276  25.675   0.855
54503W        W18711  11.288  36.404   3.228
54504W        W18712  23.627  35.867  14.396
54505W        W18713  30.907  42.916   4.305
54506W        W18714  11.298   1.383   4.621
54507W        W18715  20.643   7.788  13.492
54508W        W18716  14.772  32.006   2.671
54509W        W18717   0.907  43.475   4.324
54510W        W18718   6.310   7.811   2.371
54511W        W18719  42.801   3.457   0.440
54512W        W18720  39.473  23.709   2.750
54513W        W18721   5.690  20.121  11.029
54514W        W18722  27.643  14.773   3.727
54515W        W18723  40.447  17.285  13.028
54516W        W18724  35.079   1.339  12.998
54517W        W18725  27.597  13.751   2.375
54518W        W18726  28.479  13.254   1.212
54519W        W18727  44.970   5.872  13.470
54520W        W18728  38.947  32.911  11.974
54521W        W18729  31.408  35.109   1.862
54522W        W18730  38.064   9.750   0.958
54523W        W18731   5.879   3.278   3.353
54524W        W18732  28.176   1.745  12.511
54525W        W18733  40.333  37.891  11.517
54526W        W18734  30.480   7.220   4.706
54527W        W18735   5.422   3.295  11.572
54528W        W18736  26.982  30.162  11.581
54529W        W18737  43.021  35.103   2.792
54530W        W18738  40.547   2.349   0.385
54531W        W18739  25.095  31.907  13.332
54532W        W18740  43.435  19.730   1.900
54533W        W18741  25.490   0.376  14.291
54534W        W18742  15.720   8.760   0.305
54535W        W18743  26.124   5.327   4.648
54536W        W18744   8.363   2.356  12.058
54537W        W18745   3.372  40.413  10.521
54538W        W18746  42.998  14.829   4.289
54539W        W18747   4.420  31.404  10.952
54540W        W18748  15.819  33.936   0.427
54541W        W18749  43.947  34.046  12.076
54542W        W18750   1.319  19.234  13.914
54543W        W18751  28.512   2.787   2.206
54544W        W18752  42.806  27.017   2.720
54545W        W18753  17.593  34.564   2.344
54546W        W18754  43.428  32.003  10.431
54547W        W18755   9.658  11.746  12.047
54548W        W18756  37.493  14.151   2.199
54549W        W18757  15.137  12.746  10.568
54550W        W18758  12.851  20.668  10.441
54551W        W18759  36.922  18.237   0.845
54552W        W18760  24.504  39.057  13.401
54553W        W18761  12.204  37.456  12.510
54554W        W18762  33.970   8.875   0.317
54555W        W18763  13.256   3.738  14.458
54556W        W18764  13.231  22.058  11.556
54557W        W18765  24.981  18.713  11.082
54558W        W18766  11.287  24.641   1.736
54559W        W18767  36.949  30.014  11.037
54560W        W18768  42.936  40.870  11.453
54561W        W18769  14.825  43.422  11.507
54562W        W18770  25.579  11.220   4.755
54563W        W18771  24.557   3.295   3.303
54564W        W18772  17.655  11.163   3.768
54565W        W18773   8.343  37.572   1.737
54566W        W18774  44.439  41.876  13.332
54567W        W18775   5.413   6.804   1.349
54568W        W18776  22.639   4.942   5.204
54569W        W18777  29.524  27.033  11.612
54570W        W18778  17.083  32.630  13.384
54571W        W18779  23.645  16.619  13.967
54572W        W18780  16.717  44.345   3.632
54573W        W18781  23.203   5.327  12.520
54574W        W18782  21.757  13.306   1.271
54575W        W18783  42.785  27.509  11.920
54576W        W18784  27.944  37.464  13.958
54577W        W18785  40.025  37.036  10.993
54578W        W18786  20.700  25.565  14.511
54579W        W18787  25.509  44.467   3.206
54580W        W18788  23.155  22.156  14.350
54581W        W18789  38.056  27.035   4.666
54582W        W18790  39.443  24.671  14.306
54583W        W18791  18.774  16.137   1.412
54584W        W18792  28.042  40.470   2.315
54585W        W18793  17.209  23.043  12.551
54586W        W18794   6.293  31.629  12.509
54587W        W18795  15.663  30.523   1.714
54588W        W18796   3.452  11.168   1.262
54589W        W18797   4.417  43.488  11.113
54590W        W18798   5.203  12.844   0.355
54591W        W18799  23.160   6.879  13.520
54592W        W18800  35.999  25.618  13.057
54593W        W18801  15.300  21.622   3.757
54594W        W18802  14.708   3.749  14.954
54595W        W18803  21.708  24.065  11.063
54596W        W18804  34.871  32.506   1.351
54597W        W18805   7.330  36.392  14.474
54598W        W18806  14.300  16.202   2.342
54599W        W18807  35.424  26.967  12.999
54600W        W18808   7.785  19.719   3.261
54601W        W18809   8.738  18.660  13.421
54602W        W18810   3.308   7.714  11.940
54603W        W18811  33.396  18.723   3.736
54604W        W18812  40.806   4.422   2.285
54605W        W18813  41.039  19.152   1.284
54606W        W18814   8.857  20.765  11.494
54607W        W18815  10.661  41.520   2.302
54608W        W18816   7.361   8.376   3.827
54609W        W18817  40.398  40.524  13.377
54610W        W18818  40.023  31.512  10.484
54611W        W18819  38.945  39.824   2.899
54612W        W18820  23.060  17.615   3.811
54613W        W18821  19.552  16.665  11.896
54614W        W18822   7.896  15.153  13.954
54615W        W18823  21.526  31.427   3.218
54616W        W18824  32.907  40.447  12.341
54617W        W18825  29.507  43.344  12.071
54618W        W18826   6.740  11.310  13.924
54619W        W18827   6.187   3.421  13.378
54620W        W18828  23.210  41.894   2.236
54621W        W18829   6.293  32.964  11.024
54622W        W18830  30.908  36.085  12.045
54623W        W18831  12.254   2.440   3.230
54624W        W18832  34.895  34.570   1.349
54625W        W18833  33.588  23.633  13.341
54626W        W18834  21.118   2.757   3.661
54627W        W18835  35.533  13.835   2.764
54628W        W18836   7.322  21.073   1.701
54629W        W18837   0.927   3.451  13.994
54630W        W18838  18.646   0.374  14.985
54631W        W18839  32.635  27.071  11.978
54632W        W18840  44.977  33.534   9.937
54633W        W18841  19.132  36.366  11.445
54634W        W18842  15.705   7.728  13.377
54635W        W18843  18.782  32.488  10.566
54636W        W18844  20.581  43.894   1.343
54637W        W18845  35.026  39.834  11.480
54638W        W18846  13.658  29.041  12.365
54639W        W18847   6.825  29.932  10.979
54640W        W18848  10.269  17.199   3.774
54641W        W18849  32.455  11.161   2.706
54642W        W18850  42.826  39.915  10.971
54643W        W18851   1.473  37.494  10.156
54644W        W18852  37.450   5.338  11.511
54645W        W18853  32.472  42.976  14.830
54646W        W18854  28.169  41.471  13.405
54647W        W18855  40.943   5.213  13.387
54648W        W18856  11.775  36.503  10.433
54649W        W18857   9.183  25.714  10.629
54650W        W18858   4.844  32.087   2.338
54651W        W18859  39.903   5.300   1.847
54652W        W18860  27.612  43.307  14.786
54653W        W18861   3.433  33.429  11.948
54654W        W18862  36.404   3.860   3.641
54655W        W18863   6.336  25.044   1.396
54656W        W18864  12.309  18.288  12.869
54657W        W18865  14.671  24.017   0.753
54658W        W18866  30.128  41.448   3.718
54659W        W18867  16.754   5.843  12.369
54660W        W18868   0.766  38.833   4.622
54661W        W18869  28.604  34.561   4.761
54662W        W18870  43.395   3.953  12.083
54663W        W18871   3.310  17.752   4.161
54664W        W18872  44.348  38.377   3.241
54665W        W18873  35.595  25.151   4.621
54666W        W18874  25.567  26.019  11.377
54667W        W18875   9.313  24.081  11.439
54668W        W18876  29.564  13.689   0.366
54669W        W18877   7.675  40.416   0.804
54670W        W18878  24.160  15.196  12.377
54671W        W18879   6.409  43.013   1.426
54672W        W18880  42.926  16.577   1.841
54673W        W18881  33.946  23.681   4.333
54674W        W18882  37.358  31.440   0.335
54675W        W18883  21.551  17.783   3.244
54676W        W18884  42.936  35.931   3.380
54677W        W18885  35.594  16.634   3.801
54678W        W18886   7.836   7.697   0.257
54679W        W18887  22.545   7.858  13.418
54680W        W18888   9.155   6.362  11.112
54681W        W18889  33.450  19.113   3.725
54682W        W18890  30.587  37.845  12.420
54683W        W18891  33.975  17.216  11.900
54684W        W18892  31.958  30.051   0.444
54685W        W18893  42.841  23.655  12.553
54686W        W18894  36.070  14.175   1.278
54687W        W18895  37.857  34.584  13.429
54688W        W18896  38.343  29.495   4.128
54689W        W18897  41.438  30.612   4.749
54690W        W18898   6.891  14.327  11.042
54691W        W18899  19.145  15.191  13.946
54692W        W18900  44.785  18.767  10.988
54693W        W18901  24.532  31.134   3.292
54694W        W18902  37.001  24.137   1.820
54695W        W18903   6.920  38.886  10.466
54696W        W18904  42.839  10.326   3.803
54697W        W18905   9.169  27.104  11.867
54698W        W18906   8.279  40.939   2.687
54699W        W18907  17.614  30.116   2.327
54700W        W18908  13.335  39.054  13.896
54701W        W18909   4.310  11.682   1.902
54702W        W18910  39.951  18.200   0.324
54703W        W18911   1.896   4.319  10.533
54704W        W18912   7.830   5.412  11.496
54705W        W18913  43.410  27.553   2.287
54706W        W18914  35.971  42.909  14.451
54707W        W18915   3.724  24.502   0.368
54708W        W18916  39.347  40.984  13.055
54709W        W18917  44.460  12.250   3.696
54710W        W18918  41.519  13.618   0.313
54711W        W18919   5.339  43.884  10.889
54712W        W18920  39.819  23.647  13.480
54713W        W18921   8.189  25.493   2.860
54714W        W18922  36.033  28.069  10.981
54715W        W18923  36.974   4.249  12.091
54716W        W18924  29.048   7.308   4.115
54717W        W18925  34.550  11.261  13.842
54718W        W18926   9.190  16.711  11.405
54719W        W18927  29.451   3.450  14.989
54720W        W18928  12.812   4.387  14.006
54721W        W18929  16.088  31.569  12.359
54722W        W18930  40.361  32.473   3.682
54723W        W18931  22.181   7.754  12.954
54724W        W18932  43.441  39.447  10.968
54725W        W18933  24.230   5.926   3.634
54726W        W18934  20.534   4.740   3.357
54727W        W18935  26.457  28.482  11.527
54728W        W18936  11.309  13.236   3.277
54729W        W18937  26.472  38.341   1.225
54730W        W18938   5.801  10.237  14.399
54731W        W18939   0.469  16.734   3.854
54732W        W18940   1.860   5.280  11.983
54733W        W18941   9.353  13.839   1.211
54734W        W18942  11.809  31.986  14.782
54735W        W18943  20.156  25.060  11.609
54736W        W18944  32.446  28.156  10.903
54737W        W18945   7.876  38.940   2.669
54738W        W18946  37.366   4.894  14.842
54739W        W18947  16.602   9.374   4.711
54740W        W18948  15.188  19.211   3.381
54741W        W18949  37.080  26.477  10.998
54742W        W18950  22.125   8.319  14.976
54743W        W18951  33.990  40.986  14.428
54744W        W18952  22.115  35.523   4.651
54745W        W18953   7.289  43.377  11.878
54746W        W18954  44.461  44.834   4.656
54747W        W18955  12.744  24.973  10.464
54748W        W18956  29.135  14.140   3.237
54749W        W18957   7.698   1.328   1.924
54750W        W18958  14.717   8.249   4.265
54751W        W18959  38.468  29.945  11.102
54752W        W18960  25.700  37.923   3.719
54753W        W18961  33.616   1.783   9.993
54754W        W18962   1.435   8.662   0.948
54755W        W18963  31.046  14.218  10.069
54756W        W18964  39.556  10.322   0.283
54757W        W18965  41.434  34.602   4.788
54758W        W18966  30.962  19.096  14.511
54759W        W18967   5.792   0.283  10.459
54760W        W18968   6.742  14.229  14.902
54761W        W18969  22.027   5.263  10.102
54762W        W18970  16.643  23.681   2.301
54763W        W18971  12.207  43.436   1.311
54764W        W18972   9.299  17.555  14.474
54765W        W18973  15.667  35.932  14.440
54766W        W18974  40.023  20.169  14.334
54767W        W18975  23.225   7.884  11.922
54768W        W18976  17.257  12.684  13.856
54769W        W18977  19.571  14.765   2.721
54770W        W18978  12.175   9.667  13.339
54771W        W18979   8.355  13.184  14.849
54772W        W18980   5.378  25.969   2.200
54773W        W18981  32.636  44.972   0.361
54774W        W18982  21.669  25.110  13.835
54775W        W18983  41.526  42.916   3.728
54776W        W18984  11.793  19.715   2.353
54777W        W18985  30.490  14.161  13.827
54778W        W18986  31.418  12.214  14.893
54779W        W18987  32.136  14.598  11.427
54780W        W18988  19.761  19.053  14.988
54781W        W18989  34.570  44.403   4.286
54782W        W18990  34.449  30.534  11.598
54783W        W18991  18.587  26.496  12.346
54784W        W18992   9.830  27.555  14.800
54785W        W18993  37.951  17.795   0.435
54786W        W18994  22.239  23.230  14.907
54787W        W18995  10.159  23.564  12.021
54788W        W18996  40.800  35.534  12.887
54789W        W18997  22.162  27.052   1.788
54790W        W18998  43.420  11.145  13.914
54791W        W18999  10.742  35.977   4.763
54792W        W19000  39.498  19.615  12.946
54793W        W19001  20.194   4.226  11.056
54794W        W19002  20.642  16.607   0.327
54795W        W19003  43.860  27.500  12.477
54796W        W19004  15.730  42.904  11.508
54797W        W19005  27.603   3.795   2.852
54798W        W19006  38.041  38.993  14.801
54799W        W19007   1.905  36.889   3.150
54800W        W19008  22.547   5.915   1.934
54801W        W19009  17.647  14.650   0.433
54802W        W19010  21.118  41.873  10.956
54803W        W19011  36.082  37.977  12.869
54804W        W19012  28.994  10.336   0.475
54805W        W19013   1.786  30.434  11.935
54806W        W19014   3.833  36.998  13.359
54807W        W19015  41.913  21.110  13.336
54808W        W19016  34.428  13.633  14.311
54809W        W19017   2.821   6.884   3.359
54810W        W19018   4.280  12.348   2.393
54811W        W19019   2.299  16.754  10.494
54812W        W19020  41.019  18.061   0.397
54813W        W19021   1.396  25.997  12.486
54814W        W19022  42.317  28.503  10.491
54815W        W19023  30.640  27.104  10.557
54816W        W19024  39.410  28.054   1.715
54817W        W19025  32.922   5.413  12.891
54818W        W19026  11.179  20.608  11.381
54819W        W19027  43.778  43.281  13.968
54820W        W19028  31.576  17.759   2.350
54821W        W19029  26.123  29.169  13.813
54822W        W19030  42.898  22.672  14.012
54823W        W19031  29.433   6.282   2.858
54824W        W19032  42.963  21.561  10.564
54825W        W19033  35.884  19.544   4.833
54826W        W19034   0.396  30.033   3.297
54827W        W19035  22.149   6.835   1.890
54828W        W19036  35.928   0.335  10.632
54829W        W19037  41.406  30.093   2.315
54830W        W19038  28.023  21.554  13.318
54831W        W19039  29.976  34.074   2.889
54832W        W19040  36.443  16.811  13.325
54833W        W19041  35.396  25.127  14.285
54834W        W19042  16.087   5.268   3.793
54835W        W19043  38.063   3.938   1.212
54836W        W19044  23.071   8.887   0.479
54837W        W19045  15.195  14.169  10.996
54838W        W19046  37.924   9.758   3.705
54839W        W19047   9.764  28.121   0.450
54840W        W19048  18.143  23.727   1.442
54841W        W19049   7.752  11.864   4.735
54842W        W19050  22.210  15.737  13.954
54843W        W19051  19.235  23.613  10.596
54844W        W19052  33.562  37.082  10.475
54845W        W19053  19.736  33.388  11.507
54846W        W19054   5.220  27.122  14.280
54847W        W19055  22.203  33.032  13.497
54848W        W19056  15.725  41.874  10.446
54849W        W19057  18.639  33.053  10.493
54850W        W19058  37.351  11.847  11.539
54851W        W19059   0.291  33.480  13.307
54852W        W19060  38.036  12.703  13.995
54853W        W19061  28.618  21.533   0.761
54854W        W19062  39.394  11.212  10.425
54855W        W19063   5.430  10.337   3.358
54856W        W19064  38.381  38.988  14.379
54857W        W19065  37.958   3.337   2.784
54858W        W19066  14.317  16.280  11.937
54859W        W19067  21.231  37.015  11.398
54860W        W19068  38.857  22.744  10.995
54861W        W19069  15.273  26.497  13.047
54862W        W19070  21.134  23.552   2.826
54863W        W19071  26.506  19.621   0.301
54864W        W19072  28.675  44.836   2.710
54865W        W19073  20.599  23.069   0.749
54866W        W19074  12.763  14.148   2.185
54867W        W19075   6.727  17.738  13.522
54868W        W19076  11.781   4.842  11.394
54869W        W19077  13.744  32.985   3.306
54870W        W19078  26.468  24.225   4.323
54871W        W19079  37.921  29.041   0.865
54872W        W19080  43.361   2.297   0.938
54873W        W19081  18.237  11.779  11.020
54874W        W19082  39.462  43.460   3.688
54875W        W19083  30.552   9.208  12.345
54876W        W19084  25.977  40.037  10.438
54877W        W19085   6.233   1.837  10.565
54878W        W19086  31.610  12.127   3.632
54879W        W19087  33.962   8.659   1.808
54880W        W19088  24.574  23.987  12.517
54881W        W19089  25.607  21.626   3.303
54882W        W19090  35.894   6.405  12.825
54883W        W19091  29.925  31.133   4.148
54884W        W19092  31.056  42.310   2.757
54885W        W19093  43.992  12.733  13.902
54886W        W19094  10.365  31.046  14.022
54887W        W19095  44.888  17.250   3.180
54888W        W19096  33.947  25.533  13.955
54889W        W19097  19.538  16.164  13.859
54890W        W19098  15.116   3.729   0.445
54891W        W19099   6.703  13.600  13.480
54892W        W19100   8.689  27.067   2.670
54893W        W19101  11.278  15.660  14.860
54894W        W19102   9.796  16.744   3.328
54895W        W19103  35.089  18.738   4.299
54896W        W19104  24.501   6.324  11.027
54897W        W19105  20.551  13.829  13.850
54898W        W19106   8.669  29.072  13.412
54899W        W19107  39.873   4.323  13.814
54900W        W19108   8.341  12.218  11.479
54901W        W19109  12.214  10.228   1.831
54902W        W19110  40.317  17.073  10.427
54903W        W19111  30.959  26.483   1.866
54904W        W19112   3.292  21.751   4.642
54905W        W19113   1.867  27.190  11.989
54906W        W19114   6.764  42.852  11.557
54907W        W19115   0.276  15.196  14.025
54908W        W19116  29.431  39.543  11.103
54909W        W19117  39.010  36.080   5.278
54910W        W19118  29.021  16.581  14.764
54911W        W19119  35.972  32.933   1.775
54912W        W19120   2.841   9.341   3.179
54913W        W19121  23.053   7.385  13.504
54914W        W19122  28.940  26.980   2.893
54915W        W19123  37.464  19.736   0.405
54916W        W19124  11.301   2.852   4.125
54917W        W19125   3.731  14.774   2.683
54918W        W19126  25.010  36.990  12.035
54919W        W19127   5.398  16.648   1.296
54920W        W19128   0.250   1.962   3.860
54921W        W19129  16.795   7.822   3.258
54922W        W19130  17.246  32.938  12.452
54923W        W19131  30.940  36.365   3.798
54924W        W19132  37.075  21.160   3.857
54925W        W19133  32.888   3.907   4.721
54926W        W19134  23.063  43.020   0.834
54927W        W19135  41.369   2.918  11.907
54928W        W19136  37.372   6.724   4.220
54929W        W19137  32.596  15.253  11.963
54930W        W19138  27.154  35.878  12.986
54931W        W19139  20.118   0.345   0.943
54932W        W19140  26.639  39.821   1.808
54933W        W19141   0.336  44.429   1.312
54934W        W19142  29.122   1.422  13.422
54935W        W19143   4.840   9.884  14.389
54936W        W19144  24.643  12.156   1.933
54937W        W19145   5.775  21.151  10.505
54938W        W19146  20.083   1.921   0.448
54939W        W19147   6.404  40.518  13.940
54940W        W19148  29.552  41.934   2.662
54941W        W19149  37.005  16.147   0.447
54942W        W19150   1.792  24.479  11.411
54943W        W19151  26.588  33.596  12.884
54944W        W19152  35.954  22.119   3.679
54945W        W19153  20.579  39.352  11.892
54946W        W19154  16.753  36.072   2.290
54947W        W19155  34.383  41.420  12.939
54948W        W19156  15.584   6.348  12.518
54949W        W19157  23.146   2.768  11.044
54950W        W19158  12.193  34.538   0.296
54951W        W19159  21.664  43.989   1.383
54952W        W19160   7.670  12.771   1.905
54953W        W19161   1.358  34.062  12.031
54954W        W19162   7.183  37.467  12.418
54955W        W19163  27.547  40.994   4.801
54956W        W19164  15.196   1.431   4.226
54957W        W19165  37.359  34.482   9.996
54958W        W19166  18.236  10.189   2.368
54959W        W19167   1.271  22.661  13.472
54960W        W19168  25.054  12.207   3.681
54961W        W19169  14.097  10.333  13.454
54962W        W19170   6.869  40.493   2.211
54963W        W19171  35.538   7.283   4.620
54964W        W19172  33.570   2.800  12.533
54965W        W19173  15.209  40.357  14.279
54966W        W19174  27.467  24.055  11.893
54967W        W19175  14.630   4.368   4.276
54968W        W19176   4.414   5.341  10.984
54969W        W19177   6.198  28.626   1.780
54970W        W19178   4.360  39.983  11.056
54971W        W19179  37.837  35.997  11.931
54972W        W19180  28.981  19.533  13.853
54973W        W19181  41.509  41.353  13.354
54974W        W19182   4.327   2.379  14.305
54975W        W19183  19.741  30.546  12.851
54976W        W19184   9.820  15.091   0.936
54977W        W19185  26.997  15.126   4.217
54978W        W19186   0.900  13.197   0.923
54979W        W19187  29.948  14.314  12.473
54980W        W19188  19.082  30.929  11.875
54981W        W19189  23.709  26.169   0.926
54982W        W19190  41.978  13.162   2.715
54983W        W19191   7.260  11.754   5.289
54984W        W19192  16.129  15.238   1.719
54985W        W19193  29.581   8.385  13.485
54986W        W19194   6.210  43.355  13.414
54987W        W19195  30.960  33.992  11.032
54988W        W19196  34.536   2.442  14.423
54989W        W19197   0.818  33.893  11.101
54990W        W19198  20.648  19.625  11.506
54991W        W19199  43.835  12.163  14.778
54992W        W19200   6.822   5.699   0.909
54993W        W19201  32.909   6.236   2.883
54994W        W19202  28.051  18.074   1.901
54995W        W19203  27.040  12.625   2.309
54996W        W19204  10.871  37.402   1.405
54997W        W19205   1.790   5.330  14.424
54998W        W19206  11.150  38.850  10.021
54999W        W19207  42.296  16.127  13.411
55000W        W19208  37.434  15.582   5.089
55001W        W19209  44.861  29.918   0.412
55002W        W19210  36.907  26.480   1.799
55003W        W19211  25.680  39.518  12.980
55004W        W19212  32.972  10.289   1.915
55005W        W19213  32.431  41.888  14.911
55006W        W19214  27.569   2.366   0.397
55007W        W19215  38.489  33.066   4.756
55008W        W19216  38.994  22.080  10.430
55009W        W19217   5.812   0.948  10.439
55010W        W19218  15.220  32.594   1.287
55011W        W19219  32.427  16.107   2.318
55012W        W19220   9.367   7.720  11.991
55013W        W19221  14.638   7.274   1.894
55014W        W19222   8.283  14.700  12.480
55015W        W19223   4.833  35.450  12.026
55016W        W19224   8.846  12.782   4.661
55017W        W19225  34.076  42.295   3.189
55018W        W19226   7.761  17.274   3.771
55019W        W19227   7.778  37.867   0.728
55020W        W19228  17.118  42.010  12.955
55021W        W19229  18.214   5.808   3.650
55022W        W19230  20.116  21.721   2.837
55023W        W19231  41.833  37.913  12.900
55024W        W19232  20.670  38.967   4.828
55025W        W19233   0.779  22.074  12.480
55026W        W19234  12.619  40.483  12.407
55027W        W19235  32.037   5.299  13.395
55028W        W19236   8.893  16.742  12.891
55029W        W19237   4.291   1.397  12.060
55030W        W19238  16.302   8.690  14.778
55031W        W19239  43.444   0.839   0.950
55032W        W19240   8.797  38.953   2.236
55033W        W19241  25.200  27.129   0.438
55034W        W19242  37.907  14.318  11.609
55035W        W19243  24.094  39.885  14.353
55036W        W19244  25.694  21.535   4.631
55037W        W19245  16.732  26.121  12.437
55038W        W19246  21.086  40.910  12.570
55039W        W19247  27.984  43.509  13.416
55040W        W19248  21.061  27.963  12.827
55041W        W19249  21.639  16.133  10.951
55042W        W19250   2.418   6.837  14.283
55043W        W19251  40.509  30.573   4.767
55044W        W19252   5.770  12.281  14.311
55045W        W19253  31.528  19.571   4.330
55046W        W19254  44.472  24.091   1.823
55047W        W19255  36.500  12.151  14.497
55048W        W19256  41.921   0.386  14.407
55049W        W19257  40.519  40.874  12.370
55050W        W19258   3.251  22.573  13.941
55051W        W19259  34.003  24.121   1.910
55052W        W19260  22.538   4.801   4.829
55053W        W19261   8.719   0.828   3.277
55054W        W19262   7.178  21.608  13.973
55055W        W19263  14.105   2.362   1.409
55056W        W19264  18.765   1.970  10.153
55057W        W19265  36.397  23.150  10.496
55058W        W19266  10.869  42.860  13.449
55059W        W19267   8.348  41.818   2.780
55060W        W19268  18.643  44.421   3.377
55061W        W19269  25.021   6.274  11.385
55062W        W19270   1.464  18.226   4.636
55063W        W19271  26.610  22.617   0.789
55064W        W19272   1.955  28.060  14.411
55065W        W19273  22.177  18.141  14.380
55066W        W19274   9.762   1.411  10.499
55067W        W19275  27.979  12.273  11.487
55068W        W19276  33.933  19.647  14.951
55069W        W19277  34.929  33.993   3.657
55070W        W19278  28.985  16.675  14.013
55071W        W19279  26.667  33.886   3.162
55072W        W19280   9.328  36.499  14.969
55073W        W19281  36.975  15.094  13.039
55074W        W19282   8.405  39.995   2.719
55075W        W19283  14.285  37.944  12.010
55076W        W19284   8.838  32.970   3.371
55077W        W19285  33.122  40.304   0.415
55078W        W19286   5.264  31.627   1.706
55079W        W19287  44.330   7.738   1.344
55080W        W19288   8.333  42.468   4.165
55081W        W19289  32.027  23.516  11.079
55082W        W19290  18.258  44.260   3.680
55083W        W19291  10.323   0.836  13.921
55084W        W19292  23.161   7.817  14.349
55085W        W19293  36.449  18.610  12.843
55086W        W19294   5.307  11.266   2.384
55087W        W19295  10.677  12.729  14.928
55088W        W19296  17.765   2.345   4.694
55089W        W19297  18.643  39.939   2.385
55090W        W19298  22.101  28.093   0.898
55091W        W19299  39.520  28.080   0.737
55092W        W19300  33.478  29.153   1.413
55093W        W19301  32.453  18.205   3.291
55094W        W19302   2.271  13.181  13.527
55095W        W19303   7.694  18.607  13.061
55096W        W19304  14.694  14.228   5.109
55097W        W19305   0.263   1.772  13.319
55098W        W19306  27.942   5.765   3.213
55099W        W19307   4.731  18.213  14.471
55100W        W19308   1.297  23.655   3.253
55101W        W19309  34.064   8.668  12.456
55102W        W19310  33.422  34.423  12.388
55103W        W19311  19.053   7.381   0.948
55104W        W19312  37.506  14.706   3.666
55105W        W19313  21.724  25.700   3.650
55106W        W19314  44.927  27.064   3.316
55107W        W19315   7.754  33.572   5.279
55108W        W19316  41.813  39.994   4.277
55109W        W19317  37.420  13.738   4.156
55110W        W19318  16.620  38.367  14.929
55111W        W19319  28.627  34.519  13.506
55112W        W19320  11.336  21.058   1.829
55113W        W19321  42.857  14.744   1.734
55114W        W19322  26.583  36.875  11.935
55115W        W19323  17.114  26.610   2.714
55116W        W19324  40.996  44.783   2.751
55117W        W19325   5.841  28.560  11.107
55118W        W19326  27.623  44.429   2.288
55119W        W19327  25.178  33.040   1.725
55120W        W19328  37.556  41.844   2.194
55121W        W19329  12.275  39.974  10.523
55122W        W19330  10.650  31.956   3.373
55123W        W19331  34.499  34.405  10.888
55124W        W19332  28.457  24.045   4.243
55125W        W19333   9.357  10.814  11.021
55126W        W19334  25.522  13.281   4.279
55127W        W19335  22.729  13.304   5.243
55128W        W19336  20.069  37.367  11.032
55129W        W19337  19.259   1.278   2.831
55130W        W19338   3.307  32.140  13.390
55131W        W19339  29.926  23.204   2.762
55132W        W19340  29.551  34.603   0.752
55133W        W19341  22.111   2.263   1.888
55134W        W19342  10.719  14.655   3.266
55135W        W19343  37.020  12.828   3.227
55136W        W19344  21.235  34.893   2.819
55137W        W19345  29.483  26.605   2.351
55138W        W19346   4.416  11.251   1.814
55139W        W19347  23.082   3.440   3.751
55140W        W19348  14.222  38.837   2.286
55141W        W19349  40.385  26.472  14.345
55142W        W19350  23.996  41.493   4.670
55143W        W19351   9.774  34.114  12.340
55144W        W19352  22.507  41.420  10.496
55145W        W19353   8.242  14.163  11.447
55146W        W19354  32.526  33.044   1.290
55147W        W19355  34.038  38.972  10.923
55148W        W19356  20.735   1.388   0.869
55149W        W19357  31.412   0.461   1.236
55150W        W19358  14.304  12.782  11.533
55151W        W19359  25.628   1.349   3.736
55152W        W19360  20.623  39.937  12.495
55153W        W19361  36.879  20.103   1.416
55154W        W19362  12.812  23.109  11.384
55155W        W19363  26.632   9.799  12.454
55156W        W19364   4.793  30.462  11.872
55157W        W19365  43.329  27.667  14.374
55158W        W19366   3.221  11.368  12.010
55159W        W19367   7.275  32.600   0.350
55160W        W19368  27.169  14.619  13.800
55161W        W19369  30.144  12.829  14.289
55162W        W19370  40.340  24.187  14.984
55163W        W19371  20.209  43.500   1.409
55164W        W19372   2.834  27.027   0.845
55165W        W19373  33.513  23.190  10.961
55166W        W19374   0.408  12.167   4.796
55167W        W19375  23.566  11.626   3.755
55168W        W19376  29.054  26.528  11.590
55169W        W19377  30.117   2.722   3.364
55170W        W19378  34.594  39.920  13.989
55171W        W19379  28.458   5.426   4.268
55172W        W19380  11.323  16.635   3.764
55173W        W19381  33.561   6.215  14.505
55174W        W19382   5.274  25.593  12.857
55175W        W19383  12.203  27.973  13.989
55176W        W19384  14.648  10.738   3.706
55177W        W19385   9.162  39.514  13.320
55178W        W19386  10.839  40.447   0.436
55179W        W19387  15.174  14.677  11.077
55180W        W19388  20.183  19.539  11.873
55181W        W19389  25.172  37.551   0.404
55182W        W19390   6.729   4.943   4.741
55183W        W19391  42.920   5.282  14.921
55184W        W19392  18.545  27.525  13.850
55185W        W19393  42.443   2.348  14.994
55186W        W19394  23.610  30.522   3.821
55187W        W19395  41.341  36.473   3.186
55188W        W19396  34.514  21.526   4.285
55189W        W19397   7.775   7.881   2.704
55190W        W19398  12.692  11.204   1.375
55191W        W19399  41.844  11.674   2.718
55192W        W19400   1.804  14.631  10.619
55193W        W19401  39.314  35.092   2.849
55194W        W19402  30.143  36.016   3.689
55195W        W19403   3.294  43.939  12.963
55196W        W19404  36.542  14.119  13.523
55197W        W19405   0.770  32.472   4.636
55198W        W19406   1.780  38.414  12.066
55199W        W19407  29.504  28.450  11.056
55200W        W19408  13.204  28.959   0.911
55201W        W19409   2.861   9.876  14.905
55202W        W19410   7.266  18.232   3.638
55203W        W19411  41.374  41.301   2.724
55204W        W19412  34.428  37.390   1.805
55205W        W19413  40.962  16.610   0.869
55206W        W19414   1.936   2.890  11.460
55207W        W19415  44.802  16.311  11.052
55208W        W19416   5.302  40.511   4.277
55209W        W19417  23.672  37.906   1.265
55210W        W19418  41.788  29.936  14.388
55211W        W19419  13.255  40.991   3.725
55212W        W19420  27.488  36.931   0.785
55213W        W19421  32.113   2.266   1.760
55214W        W19422  25.491  29.120  11.884
55215W        W19423   6.729  17.737   2.687
55216W        W19424   1.321  12.319  11.549
55217W        W19425   2.242  21.741   3.870
55218W        W19426  44.260  18.769  12.468
55219W        W19427  29.008  42.354  10.924
55220W        W19428  28.666  26.045  12.459
55221W        W19429   8.390   2.250  10.620
55222W        W19430   8.364   6.861   2.754
55223W        W19431  35.977  26.672  11.551
55224W        W19432  16.217  42.494  11.506
55225W        W19433  21.231   9.726  13.036
55226W        W19434  13.785  19.178  12.340
55227W        W19435  19.744   9.328  13.365
55228W        W19436   4.408  36.406   0.785
55229W        W19437  29.965  30.929  10.537
55230W        W19438  16.737  19.099   1.268
55231W        W19439   9.687   9.203   1.871
55232W        W19440  29.628  37.378   3.810
55233W        W19441  29.426   9.676  13.984
55234W        W19442   2.343  28.132  14.389
55235W        W19443  14.175  22.995  11.469
55236W        W19444  13.203  18.609  11.982
55237W        W19445  18.195  23.660  13.429
55238W        W19446  16.623  25.111  13.883
55239W        W19447  41.989  40.491   4.334
55240W        W19448   5.388   6.771  12.830
55241W        W19449   1.840   0.352   4.808
55242W        W19450   8.747  17.088  14.434
55243W        W19451  38.819  31.585   2.355
55244W        W19452  38.959   3.384   3.363
55245W        W19453  10.662  43.320   1.251
55246W        W19454   9.159  35.021   4.673
55247W        W19455  17.575   6.298  11.573
55248W        W19456   4.240  13.669   1.426
55249W        W19457  25.997  16.309   1.350
55250W        W19458  28.070  21.098  14.998
55251W        W19459  26.699  14.156  13.347
55252W        W19460   2.797   5.302   3.237
55253W        W19461   8.404   5.714  10.588
55254W        W19462  43.875  43.923   1.317
55255W        W19463  16.095   8.169   0.453
55256W        W19464  25.116  27.030   1.915
55257W        W19465  18.051  24.564  14.311
55258W        W19466  43.405  39.422  11.454
55259W        W19467  25.196  27.157   4.761
55260W        W19468  12.202  13.722   5.281
55261W        W19469  41.863  17.626   4.247
55262W        W19470  31.097   1.340  14.767
55263W        W19471  11.327  25.130  14.400
55264W        W19472  32.569  29.477   0.815
55265W        W19473   2.835  31.140   4.733
55266W        W19474  44.785  18.547   0.872
55267W        W19475  10.185  12.740   1.220
55268W        W19476  43.310  40.901   1.411
55269W        W19477  25.540  30.026  14.954
55270W        W19478  27.114   4.701  11.035
55271W        W19479   3.363   0.942  12.983
55272W        W19480   3.834  20.259   4.637
55273W        W19481  31.642  25.164   4.171
55274W        W19482  24.644  42.511   2.385
55275W        W19483   9.361   9.374  13.844
55276W        W19484  30.140  33.097  14.495
55277W        W19485  16.148  43.511  14.278
55278W        W19486  17.148  41.982   0.797
55279W        W19487  19.574  13.215   1.708
55280W        W19488   2.411  32.135   4.132
55281W        W19489  44.001   2.384  14.351
55282W        W19490  35.519  19.675   4.120
55283W        W19491  12.129  39.837   1.298
55284W        W19492  34.037   7.388   1.823
55285W        W19493  35.030  13.734  13.942
55286W        W19494  40.375  15.262  13.028
55287W        W19495  41.827   2.450   3.692
55288W        W19496  35.939  27.579   3.298
55289W        W19497   0.942  42.364   4.711
55290W        W19498  19.724   2.381   3.665
55291W        W19499   6.790  44.288  10.463
55292W        W19500  37.540  17.099   4.251
55293W        W19501  18.562  36.946   0.730
55294W        W19502   1.934   9.746   1.277
55295W        W19503  41.479  35.505  14.832
55296W        W19504  29.470  33.559  14.487
55297W        W19505  34.479  24.127  13.013
55298W        W19506  19.681   0.923   3.838
55299W        W19507  29.170   4.753  11.431
55300W        W19508  37.369  38.861   2.692
55301W        W19509  11.150  41.311   3.361
55302W        W19510   4.330   9.677  14.953
55303W        W19511  22.239  34.590  12.348
55304W        W19512   6.764  32.111   0.347
55305W        W19513  25.592  23.071   0.962
55306W        W19514  23.177  25.639   1.921
55307W        W19515  21.730  17.304  13.062
55308W        W19516   2.931  42.375   4.350
55309W        W19517  33.976  41.978   3.160
55310W        W19518  27.591  12.741   0.950
55311W        W19519  43.366  33.550  10.541
55312W        W19520  36.537  16.299   4.793
55313W        W19521   6.338  32.433   1.926
55314W        W19522   7.298  23.037   4.771
55315W        W19523  37.945  36.077  11.478
55316W        W19524  16.229  31.997   0.872
55317W        W19525  43.784   7.393   4.324
55318W        W19526  22.995  35.010   4.227
55319W        W19527  44.878  17.790   3.366
55320W        W19528  44.482  34.521  12.478
55321W        W19529  33.944  34.615  11.474
55322W        W19530  34.488  29.945   3.252
55323W        W19531  13.115  43.785  10.442
55324W        W19532  17.169  43.333  14.394
55325W        W19533   9.390   7.222  13.051
55326W        W19534  42.359   0.483  11.544
55327W        W19535   5.886  16.105  12.547
55328W        W19536  11.255  34.529  10.420
55329W        W19537  33.099  40.050   3.310
55330W        W19538   3.256   7.228   4.306
55331W        W19539  25.061  33.890  13.448
55332W        W19540  13.162  24.589   2.284
55333W        W19541  40.871  11.321   1.802
55334W        W19542  28.061  22.665   0.392
55335W        W19543   7.818   3.810   2.662
55336W        W19544  34.034  23.638   1.350
55337W        W19545  14.633  11.298  10.963
55338W        W19546  44.886  44.771   3.746
55339W        W19547  30.604  40.406   0.328
55340W        W19548  32.065  16.094   9.921
55341W        W19549  18.257  44.853  13.352
55342W        W19550  20.254  39.889   5.163
55343W        W19551  17.655  42.403   1.242
55344W        W19552  21.739  35.483   1.823
55345W        W19553   3.359  36.437  12.967
55346W        W19554  39.057   8.729  12.445
55347W        W19555  19.266  30.933   2.202
55348W        W19556  37.057  14.336  14.008
55349W        W19557  15.118  31.415   3.219
55350W        W19558  17.076  36.474   3.794
55351W        W19559  17.781   6.303  13.425
55352W        W19560  35.397  30.591   4.208
55353W        W19561  34.522   1.322   2.405
55354W        W19562  20.184   5.774  10.578
55355W        W19563   1.297  24.526   3.252
55356W        W19564   8.405  38.901   1.872
55357W        W19565  13.231  43.985  14.017
55358W        W19566   9.728  16.682   4.751
55359W        W19567   6.209  36.980   2.833
55360W        W19568   7.862  11.245  13.473
55361W        W19569   9.238  28.929  10.637
55362W        W19570  29.956  39.498   1.757
55363W        W19571  11.829  17.305  12.958
55364W        W19572  41.009   7.760  10.626
55365W        W19573  26.606   8.709   1.374
55366W        W19574   9.364  37.967  14.019
55367W        W19575  18.188  11.853   2.253
55368W        W19576  43.870   2.804  11.490
55369W        W19577  34.418  36.087  10.544
55370W        W19578  21.646  34.063  12.949
55371W        W19579   8.825  43.000  13.058
55372W        W19580   3.352  20.601   4.242
55373W        W19581  23.068  22.007   3.795
55374W        W19582  14.779  40.044  10.491
55375W        W19583  36.090   6.748  12.879
55376W        W19584  40.891  43.457   2.811
55377W        W19585  25.562  39.395  11.933
55378W        W19586   9.747  32.055   1.800
55379W        W19587  43.831  10.759   3.694
55380W        W19588  40.006  35.996   3.669
55381W        W19589   6.718  24.676   4.782
55382W        W19590  11.835   5.397  10.515
55383W        W19591  28.047   5.760   9.939
55384W        W19592  13.255  26.153   4.748
55385W        W19593  42.509  14.275   1.429
55386W        W19594  39.970  37.884   3.847
55387W        W19595  28.542  38.929  12.055
55388W        W19596  40.808  20.604   4.122
55389W        W19597   9.327  38.031   1.934
55390W        W19598  26.479   6.893   3.208
55391W        W19599  34.073   3.276  10.425
55392W        W19600  27.014  32.470   3.278
55393W        W19601  14.771  27.082   1.324
55394W        W19602  34.892  44.353  14.503
55395W        W19603  30.147  36.856  14.512
55396W        W19604  40.493  33.442   9.941
55397W        W19605  25.702   9.154  13.425
55398W        W19606  44.375  18.170  13.443
55399W        W19607  12.270  36.437   1.907
55400W        W19608  38.494  39.415   4.598
55401W        W19609  37.543  19.741  11.473
55402W        W19610   7.849   2.789  10.605
55403W        W19611  25.070  18.291  11.095
55404W        W19612   8.766  24.505  12.042
55405W        W19613  37.342  25.526   3.250
55406W        W19614  32.538   6.878   0.824
55407W        W19615   4.896   2.767  10.007
55408W        W19616  21.143  38.990  12.857
55409W        W19617  13.328  21.122   2.832
55410W        W19618  18.195  38.837  12.954
55411W        W19619  11.260   7.384   2.813
55412W        W19620  44.784  21.702   1.390
55413W        W19621  17.690   2.454  12.827
55414W        W19622  39.384  29.075  12.884
55415W        W19623   7.758  23.047   3.202
55416W        W19624  31.036  15.151   2.785
55417W        W19625  12.273  31.968   3.189
55418W        W19626  19.143  36.451  14.483
55419W        W19627  38.073  35.899  12.464
55420W        W19628  23.510  42.344  13.534
55421W        W19629  19.556  15.783   2.214
55422W        W19630  36.563  38.010   0.834
55423W        W19631   2.822  23.560   3.732
55424W        W19632  29.647  19.054  10.432
55425W        W19633  29.570  29.959  10.489
55426W        W19634  15.580  32.555  11.460
55427W        W19635   9.381  37.479  13.820
55428W        W19636  39.896   5.253   2.260
55429W        W19637  20.557  35.995  12.473
55430W        W19638  37.990  42.894   3.272
55431W        W19639  16.656  39.392  11.517
55432W        W19640  41.427  40.468  13.544
55433W        W19641  32.107  36.382  10.426
55434W        W19642  18.148  35.009   2.676
55435W        W19643  17.113  12.123   2.245
55436W        W19644  18.176  15.160  12.552
55437W        W19645  19.741  21.733   0.411
55438W        W19646  19.642  17.253   2.338
55439W        W19647  24.073  39.835  12.049
55440W        W19648  10.263  26.165  12.548
55441W        W19649  15.778   9.194  14.385
55442W        W19650  38.947  42.305  13.490
55443W        W19651  36.068  40.853  13.484
55444W        W19652  17.128  19.219   1.311
55445W        W19653   7.665  17.208  14.775
55446W        W19654   2.263  30.118  11.941
55447W        W19655   4.447  36.851   1.853
55448W        W19656  19.190   1.961   3.225
55449W        W19657  33.488  41.921  14.976
55450W        W19658  24.663  10.688   0.786
55451W        W19659  28.524  32.001   4.825
55452W        W19660   2.797  13.350   3.758
55453W        W19661  12.230  10.382   3.369
55454W        W19662  24.510  31.919   3.251
55455W        W19663   8.160  22.538   1.860
55456W        W19664  21.053  19.661  12.862
55457W        W19665   4.360  15.165  13.483
55458W        W19666  41.495  14.204  13.821
55459W        W19667  40.987  31.068  13.798
55460W        W19668  11.713  29.937   1.415
55461W        W19669  11.721  29.150  14.016
55462W        W19670  14.721  14.709   3.374
55463W        W19671   0.873  39.560  13.539
55464W        W19672  20.192  42.999   2.306
55465W        W19673  42.334  33.914   2.342
55466W        W19674   6.268  10.365   2.360
55467W        W19675  39.536   8.776   2.685
55468W        W19676  12.828  22.192   4.266
55469W        W19677  29.590  14.641  12.498
55470W        W19678   1.320  13.107  12.390
55471W        W19679  36.028  12.760  10.510
55472W        W19680  17.261  26.020   1.734
55473W        W19681  37.875   5.775  12.420
55474W        W19682  43.422   8.861   3.765
55475W        W19683   9.318  31.918   1.828
55476W        W19684  35.392  43.848  11.976
55477W        W19685  28.940  18.641   2.854
55478W        W19686  11.822  18.621   2.294
55479W        W19687  11.781  25.169   4.336
55480W        W19688   1.309  28.634  11.066
55481W        W19689  41.843  42.869   1.741
55482W        W19690  10.832   5.845   0.482
55483W        W19691  11.167  19.546   3.163
55484W        W19692  23.150  31.040   2.415
55485W        W19693   8.708   1.959  12.566
55486W        W19694  14.716  36.848   3.702
55487W        W19695  10.149   9.232  13.368
55488W        W19696  12.850  11.792  13.983
55489W        W19697   3.875  27.617   3.360
55490W        W19698   4.780  30.919   0.325
55491W        W19699  13.651  10.334   4.144
55492W        W19700  15.597   9.887  14.004
55493W        W19701   2.889  28.616   4.691
55494W        W19702  28.999  21.579   1.346
55495W        W19703   1.268  39.377   0.311
55496W        W19704  27.040  41.300   5.252
55497W        W19705  22.501  37.028  10.572
55498W        W19706  31.423   5.316   4.722
55499W        W19707  32.435  22.589   4.783
55500W        W19708  34.599   2.304   2.321
55501W        W19709   0.928   0.442  14.477
55502W        W19710  43.357  28.613   1.270
55503W        W19711  28.543  10.711   1.269
55504W        W19712  14.699  28.474  12.940
55505W        W19713   1.453  43.386  11.592
55506W        W19714  17.632   6.347   2.263
55507W        W19715  43.989  11.720  13.346
55508W        W19716  28.474  39.548   0.855
55509W        W19717   6.862  21.670  14.991
55510W        W19718   8.319  12.682   4.602
55511W        W19719  43.782  18.687  11.569
55512W        W19720  30.163   4.315  14.494
55513W        W19721  40.862  38.897   1.350
55514W        W19722  41.987  37.442   1.242
55515W        W19723  37.450  13.286  11.987
55516W        W19724  40.369  40.450   2.344
55517W        W19725   8.273  15.168  14.311
55518W        W19726  14.187  41.912  14.880
55519W        W19727  16.138  40.824  12.382
55520W        W19728  10.244  30.453   1.757
55521W        W19729  35.054  13.324   4.726
55522W        W19730  22.688  38.966  14.998
55523W        W19731  44.450  28.610  11.525
55524W        W19732  25.139  13.784   1.272
55525W        W19733  31.444  23.591   3.381
55526W        W19734  31.567  17.629  14.314
55527W        W19735  44.972  12.254   3.690
55528W        W19736  43.964   0.257   0.806
55529W        W19737  27.477  35.406  11.508
55530W        W19738  18.759  22.091   4.227
55531W        W19739  24.045  10.691   2.680
55532W        W19740   2.332   0.787   4.655
55533W        W19741  29.545   8.891   3.161
55534W        W19742  42.306  42.446  13.055
55535W        W19743  37.900  38.947   0.931
55536W        W19744  42.480  30.929   1.258
55537W        W19745  11.692  20.158  14.330
55538W        W19746  38.435   7.402   2.762
55539W        W19747  24.644   7.739   1.751
55540W        W19748   3.746  22.087  11.456
55541W        W19749   2.824  32.021   2.851
55542W        W19750  34.962  17.766  14.892
55543W        W19751  24.199  18.573  14.875
55544W        W19752  12.190  16.252   0.348
55545W        W19753  13.642  27.565   2.875
55546W        W19754   1.854  32.477   1.276
55547W        W19755  11.223  12.780   3.721
55548W        W19756  12.793  14.729  14.868
55549W        W19757  31.491   1.306  13.350
55550W        W19758  37.409   3.874   5.274
55551W        W19759   3.331   4.751   1.280
55552W        W19760  27.150   8.315  11.017
55553W        W19761  38.458  38.828  10.456
55554W        W19762   4.748  13.651   4.141
55555W        W19763  41.983  41.869  11.025
55556W        W19764  44.490  41.330   4.612
55557W        W19765  16.739  12.198   3.782
55558W        W19766  34.386  39.948  10.576
55559W        W19767  15.219  18.689   0.387
55560W        W19768   8.372  24.632   3.324
55561W        W19769  25.617  20.099  13.943
55562W        W19770  15.619  20.645  10.050
55563W        W19771  31.123  39.452  11.376
55564W        W19772  16.727   2.945   4.677
55565W        W19773  19.105  28.450  12.976
55566W        W19774  32.042  22.248   4.832
55567W        W19775   9.251  15.700   4.173
55568W        W19776   7.760  15.148   0.888
55569W        W19777   9.333  22.634   0.844
55570W        W19778   1.859  10.678  11.609
55571W        W19779  33.971  38.461   0.949
55572W        W19780  15.325   7.329  12.562
55573W        W19781   2.262  26.636  14.910
55574W        W19782  42.029  19.160  11.123
55575W        W19783  27.665  12.329  11.071
55576W        W19784   6.847  21.191  10.095
55577W        W19785  10.194  44.797  13.961
55578W        W19786  41.794   5.218   4.772
55579W        W19787  12.218  27.993   3.692
55580W        W19788  31.538  40.943   4.151
55581W        W19789  38.379  11.642  12.930
55582W        W19790  17.719  37.523  13.985
55583W        W19791  32.476  22.563   2.381
55584W        W19792  11.273  41.031  14.832
55585W        W19793  18.758  43.829   3.172
55586W        W19794  31.914   5.859  14.793
55587W        W19795  17.223  30.107  10.618
55588W        W19796  29.534   5.343   4.718
55589W        W19797  16.775  28.524   0.388
55590W        W19798   3.312  42.989  13.033
55591W        W19799  23.526  12.629   0.469
55592W        W19800  44.329  36.538  10.507
55593W        W19801  31.979  36.025  10.924
55594W        W19802  36.366  24.225   3.281
55595W        W19803  25.545   9.768   4.641
55596W        W19804  18.656  40.986   4.355
55597W        W19805  39.002  11.332  12.931
55598W        W19806  38.070  42.398  10.641
55599W        W19807  21.252  38.048   0.447
55600W        W19808   2.329   8.754   3.239
55601W        W19809  27.112  42.490  14.867
55602W        W19810  34.971  15.776   2.694
55603W        W19811   8.730  27.000   3.240
55604W        W19812  10.645   6.363  13.411
55605W        W19813  17.697  26.519   0.829
55606W        W19814  17.731   0.358  10.593
55607W        W19815   3.876   6.712  12.861
55608W        W19816   6.197  15.759   1.729
55609W        W19817  19.641  16.214   5.096
55610W        W19818  11.844   9.371  11.942
55611W        W19819  33.532   6.865   1.786
55612W        W19820   5.352   9.154   3.782
55613W        W19821  27.446   2.771   1.711
55614W        W19822  33.543  40.874   1.375
55615W        W19823  37.433  18.159   1.425
55616W        W19824  22.241  43.880   2.326
55617W        W19825  19.758  43.410  14.393
55618W        W19826  42.370  30.134   2.419
55619W        W19827  43.394  21.568  13.930
55620W        W19828  39.491  14.676   1.737
55621W        W19829  38.885  21.571   3.732
55622W        W19830  13.186  17.266  14.449
55623W        W19831   2.806   0.954   3.817
55624W        W19832  35.018  18.628  11.374
55625W        W19833   5.439  13.759   4.599
55626W        W19834  42.377  30.139   0.891
55627W        W19835  22.575  14.329   5.217
55628W        W19836  30.564  36.428   4.115
55629W        W19837  29.055  39.392  11.558
55630W        W19838  44.314   4.248  10.987
55631W        W19839  22.612   0.799   2.324
55632W        W19840  30.152  13.751  11.606
55633W        W19841  42.794   1.931  14.006
55634W        W19842  27.077  31.131   0.813
55635W        W19843  22.143  32.072  12.847
55636W        W19844   2.725   4.286  14.845
55637W        W19845  27.607   1.844   2.695
55638W        W19846  41.945  18.771   3.680
55639W        W19847   7.755  43.370  11.935
55640W        W19848  18.100  14.643  12.544
55641W        W19849  30.424  18.159  14.422
55642W        W19850  36.397  43.831   2.857
55643W        W19851  39.558  10.770   3.704
55644W        W19852   6.775  14.249   1.874
55645W        W19853  14.219   0.780   4.602
55646W        W19854  38.506  27.456   1.718
55647W        W19855   1.394   6.802   0.872
55648W        W19856  18.569  11.238  10.095
55649W        W19857  37.366  11.360   0.362
55650W        W19858  39.406  16.074  10.515
55651W        W19859  37.538  42.316   4.310
55652W        W19860  16.746  22.215  13.401
55653W        W19861  32.059  42.905  14.947
55654W        W19862  34.413  30.475   1.259
55655W        W19863  25.663  43.011  13.810
55656W        W19864  13.697  35.916   2.769
55657W        W19865  24.632  19.665  11.486
55658W        W19866  26.003  24.595   3.810
55659W        W19867   7.253  35.935  14.336
55660W        W19868   5.693  31.934   3.317
55661W        W19869   7.707  36.518  14.849
55662W        W19870  29.928  37.346   4.293
55663W        W19871   6.283  12.260   3.839
55664W        W19872  34.063  19.076  13.498
55665W        W19873   1.789  14.597   3.686
55666W        W19874   0.842   0.818   3.386
55667W        W19875  43.503  33.512   1.338
55668W        W19876  28.063  19.688   4.252
55669W        W19877  42.998  33.127  13.358
55670W        W19878  29.566  15.652   3.744
55671W        W19879  43.905  44.414  11.911
55672W        W19880  15.311  24.137   4.208
55673W        W19881  34.059   0.889   1.418
55674W        W19882  20.243   7.274   1.391
55675W        W19883   4.909   3.243   4.742
55676W        W19884  19.761  28.135  13.824
55677W        W19885  44.987   6.212  10.421
55678W        W19886  26.166   0.865   1.850
55679W        W19887  15.208  38.388  10.562
55680W        W19888  11.678  24.550  12.917
55681W        W19889   8.191  33.489   3.281
55682W        W19890   2.289  12.317  14.882
55683W        W19891  41.319  13.115   3.848
55684W        W19892  16.714   9.856   3.848
55685W        W19893  10.806  25.666   0.935
55686W        W19894   9.749  19.280  14.946
55687W        W19895  29.083  26.111   1.316
55688W        W19896  24.725  35.083  12.872
55689W        W19897  44.465  34.452   5.120
55690W        W19898  30.917  14.248   1.246
55691W        W19899  10.270  36.085  14.024
55692W        W19900  37.553  22.136  14.956
55693W        W19901  38.899  18.784   0.957
55694W        W19902  26.643  33.571  13.853
55695W        W19903  23.189  25.623  13.341
55696W        W19904  38.986  26.646   9.958
55697W        W19905  41.892   9.767  14.443
55698W        W19906  43.276  43.853   2.339
55699W        W19907  41.969   1.338   2.192
55700W        W19908  37.926  12.708   2.320
55701W        W19909   7.356  19.044  12.879
55702W        W19910  42.780  24.117  11.544
55703W        W19911  27.681  22.151   2.679
55704W        W19912  27.124  25.182   2.375
55705W        W19913  28.164  21.224   2.389
55706W        W19914  19.069  44.785   1.805
55707W        W19915  17.239  29.149   3.664
55708W        W19916  38.504  11.270   1.916
55709W        W19917  36.982   1.815  13.948
55710W        W19918  44.467   4.807  13.824
55711W        W19919  42.433  14.590  10.444
55712W        W19920  32.486  20.104  10.413
55713W        W19921   7.224  33.420  11.064
55714W        W19922  40.961   2.276  11.974
55715W        W19923   9.241  38.536  14.322
55716W        W19924   9.314   7.810  14.884
55717W        W19925  27.076  26.185  11.383
55718W        W19926  44.001   8.360   3.779
55719W        W19927   5.215  17.086  13.395
55720W        W19928  37.536  25.071  14.388
55721W        W19929  10.780  27.566   1.239
55722W        W19930   3.268  18.262  11.099
55723W        W19931  15.180  42.884   3.265
55724W        W19932  33.075  17.784   4.785
55725W        W19933  36.487  36.084  11.595
55726W        W19934   7.704  27.610  12.972
55727W        W19935  25.524  31.440   3.738
55728W        W19936   5.745  27.677   1.805
55729W        W19937  29.559   6.819   3.231
55730W        W19938  20.684  28.496   4.206
55731W        W19939  40.373  26.197   0.308
55732W        W19940  36.083  31.941  12.075
55733W        W19941  13.718  23.027  11.106
55734W        W19942  17.090  34.103  13.471
55735W        W19943  29.424  13.281  11.383
55736W        W19944  28.453  12.664   4.602
55737W        W19945  29.597   1.431   0.416
55738W        W19946  37.575   6.184  12.381
55739W        W19947  30.084  22.196   2.303
55740W        W19948  20.746  32.923  11.379
55741W        W19949  37.437  17.637  14.881
55742W        W19950  19.044   5.404   0.896
55743W        W19951  31.417  10.718   3.795
55744W        W19952   4.392  12.185  13.021
55745W        W19953  14.117   7.683   0.883
55746W        W19954  20.553  21.743  13.831
55747W        W19955  38.921  14.762  12.058
55748W        W19956   5.419  37.445  12.339
55749W        W19957  34.567  27.141  13.880
55750W        W19958  14.264   4.892   1.880
55751W        W19959  39.010   4.901  14.759
55752W        W19960  12.157  15.214   2.716
55753W        W19961  31.102  29.973  10.994
55754W        W19962  19.765  21.721  14.422
55755W        W19963  41.888  33.524   4.750
55756W        W19964  25.650  30.520  13.427
55757W        W19965   7.718   1.266  12.480
55758W        W19966  11.328  40.871  14.032
55759W        W19967   4.761  11.680  13.458
55760W        W19968  35.088   6.424   0.469
55761W        W19969  34.461  15.814   3.729
55762W        W19970  23.055   2.332   1.925
55763W        W19971  24.517  39.945   3.647
55764W        W19972  32.477  17.706  13.896
55765W        W19973   1.417  37.892   1.933
55766W        W19974  24.190   8.680   0.848
55767W        W19975   0.785  28.944  12.947
55768W        W19976  38.838  30.940  11.594
55769W        W19977   5.804  25.017  10.467
55770W        W19978  15.212   4.359  11.517
55771W        W19979   9.881  10.338  11.900
55772W        W19980  31.136  40.325  10.404
55773W        W19981  25.651   3.401  11.582
55774W        W19982  16.243   4.417  11.089
55775W        W19983   1.420   2.421  11.928
55776W        W19984  11.793  40.477  11.860
55777W        W19985  19.714  26.548   2.816
55778W        W19986  18.548   3.240  13.371
55779W        W19987  18.572  37.961   2.324
55780W        W19988  26.566  37.575   1.810
55781W        W19989  43.306  16.158   4.668
55782W        W19990  42.490  17.187  10.970
55783W        W19991  17.301  40.532   1.832
55784W        W19992  43.489  37.071  12.955
55785W        W19993  37.085  34.973  14.328
55786W        W19994  17.246   4.416   0.245
55787W        W19995  23.574  25.012  12.569
55788W        W19996  13.691  23.217  14.933
55789W        W19997   4.433  44.347   2.753
55790W        W19998  28.646  14.628   4.822
55791W        W19999   2.300  36.901   0.848
55792W        W20000   1.398  16.720  13.358
55793W        W20001  34.405  31.002   3.282
55794W        W20002  26.642   3.760  12.999
55795W        W20003  24.606  14.597   4.295
55796W        W20004  26.154  24.981   0.270
55797W        W20005   3.818   4.407   3.762
55798W        W20006  20.184  23.532   3.721
55799W        W20007  21.584   5.422  11.593
55800W        W20008   8.228  29.487  13.328
55801W        W20009  13.641   1.440   2.297
55802W        W20010  40.525  44.373  11.512
55803W        W20011  21.260  10.763  12.856
55804W        W20012  28.186  39.841   5.302
55805W        W20013   2.960  29.144  14.485
55806W        W20014  23.042  35.359  10.642
55807W        W20015  24.605   1.826   3.736
55808W        W20016  30.073   5.322   3.790
55809W        W20017  34.001   8.381  13.445
55810W        W20018  30.010  10.708   0.321
55811W        W20019  30.641  42.305  12.042
55812W        W20020  44.796   3.342   0.275
55813W        W20021   3.273  40.916   4.598
55814W        W20022  25.138  42.923   2.278
55815W        W20023  44.891  37.986  12.454
55816W        W20024   7.905  43.864   3.794
55817W        W20025  34.478  41.802   1.784
55818W        W20026  42.879  23.513  14.810
55819W        W20027  38.420   7.177   3.775
55820W        W20028   1.898  31.487   2.285
55821W        W20029  36.008   8.697   0.821
55822W        W20030  43.433   5.759   2.748
55823W        W20031  44.944  27.087   0.256
55824W        W20032   0.874  22.082  11.514
55825W        W20033  30.583  34.908  14.003
55826W        W20034  38.353  14.303  11.967
55827W        W20035   4.267   5.301  11.392
55828W        W20036  33.517   3.843  13.495
55829W        W20037  14.337  26.664   4.693
55830W        W20038  38.013   9.212   1.760
55831W        W20039  22.205  24.546   0.374
55832W        W20040  17.691  27.168  12.942
55833W        W20041  33.923  17.791  12.360
55834W        W20042  43.280   4.319   4.117
55835W        W20043  31.581  23.705   0.808
55836W        W20044  37.970  20.144   2.841
55837W        W20045  11.708  15.113  11.522
55838W        W20046  12.692  41.313   1.215
55839W        W20047   1.838  34.499  13.025
55840W        W20048   8.209  19.617  10.638
55841W        W20049   8.822  31.497  10.136
55842W        W20050  41.322  32.073   2.720
55843W        W20051   0.809  12.797   2.390
55844W        W20052  31.408  31.919  10.484
55845W        W20053   2.759   9.361  13.537
55846W        W20054  33.971  42.974  11.447
55847W        W20055  40.350  37.026  14.949
55848W        W20056  35.373   7.292  13.339
55849W        W20057  42.891  38.923  13.408
55850W        W20058  14.311  15.108   1.242
55851W        W20059  12.774  10.806  11.107
55852W        W20060   3.450  19.156   3.187
55853W        W20061  22.588  18.200   1.887
55854W        W20062  13.327  31.423   0.942
55855W        W20063  36.847  35.881   2.240
55856W        W20064  35.559  10.272  10.548
55857W        W20065   7.872  10.217  11.487
55858W        W20066  39.390  16.795   2.822
55859W        W20067  38.392  25.105   2.808
55860W        W20068  22.688  20.590  14.325
55861W        W20069  34.939  40.532   3.281
55862W        W20070  12.799   9.777   1.234
55863W        W20071   8.185   5.224   1.920
55864W        W20072  27.038  19.593  12.374
55865W        W20073  14.682  31.969   3.629
55866W        W20074  39.560  23.569   1.278
55867W        W20075  14.152   3.437  14.809
55868W        W20076   9.374  42.363  10.453
55869W        W20077  12.761  30.576  11.977
55870W        W20078  32.591  36.019  13.791
55871W        W20079  22.573  11.185  12.534
55872W        W20080  33.442  16.139  10.590
55873W        W20081  23.491  44.264  13.824
55874W        W20082  11.668  22.698   1.348
55875W        W20083   4.776  18.547   0.864
55876W        W20084  23.632  40.874  13.006
55877W        W20085  31.100  39.049   2.282
55878W        W20086  18.707   3.399  10.037
55879W        W20087  30.598   6.305   4.225
55880W        W20088  17.294  22.225   0.748
55881W        W20089  42.799  20.233  14.801
55882W        W20090  15.300  26.022   3.760
55883W        W20091  30.096  10.783  12.382
55884W        W20092  28.555   5.700   1.212
55885W        W20093  31.548  23.181  11.461
55886W        W20094  17.122  24.559   4.810
55887W        W20095  43.009   2.917  11.051
55888W        W20096  39.326   6.219   3.204
55889W        W20097  42.986  24.617   0.328
55890W        W20098  36.551   2.946  14.397
55891W        W20099  44.939  36.997  10.981
55892W        W20100  41.455  31.488   2.830
55893W        W20101   6.392  42.960  11.914
55894W        W20102  32.026   2.957   0.882
55895W        W20103  22.049  44.390   4.679
55896W        W20104   3.314   2.330   0.335
55897W        W20105   6.710  15.752  11.444
55898W        W20106  28.559  15.226   1.883
55899W        W20107  12.147  41.798  13.540
55900W        W20108  23.122  23.195   3.847
55901W        W20109   0.316  26.506   1.753
55902W        W20110  40.303  32.116   1.356
55903W        W20111  38.489   2.901  14.424
55904W        W20112  18.203   0.961  14.777
55905W        W20113  35.929  17.258  12.571
55906W        W20114  35.536  22.560  11.911
55907W        W20115  19.249   4.751   0.934
55908W        W20116  41.837  26.015  13.867
55909W        W20117  22.662   3.291  13.314
55910W        W20118  27.019  35.359   4.315
55911W        W20119  35.396  12.634  14.892
55912W        W20120  26.608  12.828   4.746
55913W        W20121  30.535  34.090   4.773
55914W        W20122   6.879  28.995   2.254
55915W        W20123  27.000  24.615  11.586
55916W        W20124  36.390   8.386   4.631
55917W        W20125  14.778  29.924   0.882
55918W        W20126   9.791  17.563  12.852
55919W        W20127  27.970  16.695  14.021
55920W        W20128  39.961  41.298   1.870
55921W        W20129  44.799  33.608   1.417
55922W        W20130  22.580  33.921  13.809
55923W        W20131  26.117  25.609  14.954
55924W        W20132   7.720  38.893  13.447
55925W        W20133  27.107   3.376   0.394
55926W        W20134  23.678  19.721  12.944
55927W        W20135   7.399   1.951   2.894
55928W        W20136   4.713  33.919  14.814
55929W        W20137  22.576   6.409  11.036
55930W        W20138  36.371  20.697  12.006
55931W        W20139  43.426   6.913  10.929
55932W        W20140  41.034  14.193   4.639
55933W        W20141  25.173   1.936  14.031
55934W        W20142  14.670  31.622   4.204
55935W        W20143  23.016  40.799   4.132
55936W        W20144  41.922  36.974   4.643
55937W        W20145  35.517  27.583  14.509
55938W        W20146  16.665  40.917   4.180
55939W        W20147  32.433  20.128   2.306
55940W        W20148  11.345  11.171  14.875
55941W        W20149  25.186  40.948   3.246
55942W        W20150  11.806  13.741  14.846
55943W        W20151  13.187  23.564   3.723
55944W        W20152  14.282  33.458  14.908
55945W        W20153  33.955  14.797  11.076
55946W        W20154   9.340  30.537   4.838
55947W        W20155  33.430   6.915  11.967
55948W        W20156  37.065  19.229  12.999
55949W        W20157   3.781  35.587   0.406
55950W        W20158  35.497  36.474  13.490
55951W        W20159  24.530  28.562  12.969
55952W        W20160  16.088  34.534   1.338
55953W        W20161  18.120  14.609  10.925
55954W        W20162  38.354   7.799  14.984
55955W        W20163  42.348  24.088   0.802
55956W        W20164  11.719  24.720  13.381
55957W        W20165  18.767  43.003   3.650
55958W        W20166  36.935  38.506  10.894
55959W        W20167  17.609  21.699   3.369
55960W        W20168  25.098  14.209  14.452
55961W        W20169  11.681   2.414   4.755
55962W        W20170  19.235   9.233  10.433
55963W        W20171  14.282  44.394  13.882
55964W        W20172  23.186  31.578   4.224
55965W        W20173  20.670  34.039  11.393
55966W        W20174  36.581  17.667  11.577
55967W        W20175   7.898   8.780  12.960
55968W        W20176  25.986  10.209  13.860
55969W        W20177  33.585   5.406  11.030
55970W        W20178   5.330  24.082   3.166
55971W        W20179  14.279  24.524   0.432
55972W        W20180  32.066  22.211  12.508
55973W        W20181   9.150  27.450   3.184
55974W        W20182  24.574  38.045  11.537
55975W        W20183  15.285  34.451   0.739
55976W        W20184  18.766  13.684   2.280
55977W        W20185   8.673   8.405  11.026
55978W        W20186  17.724  41.024  11.059
55979W        W20187   4.852  33.980   3.152
55980W        W20188   3.799   5.362  10.448
55981W        W20189  31.422   8.707   4.649
55982W        W20190   1.884  38.360  14.471
55983W        W20191  38.559  44.873  12.980
55984W        W20192   1.733  14.148   2.207
55985W        W20193  42.471   9.803  10.428
55986W        W20194   7.854   5.741   4.640
55987W        W20195  33.473  41.886   3.326
55988W        W20196  38.055  33.508  12.395
55989W        W20197  19.222   6.920  14.486
55990W        W20198   5.293  22.518   1.281
55991W        W20199  11.283   6.384   4.270
55992W        W20200  38.073   6.196   2.360
55993W        W20201  32.941   0.397   2.690
55994W        W20202  12.786  29.489   2.720
55995W        W20203  35.376  41.965  12.415
55996W        W20204  42.781  33.965  13.384
55997W        W20205   7.248   0.406  14.465
55998W        W20206   7.768  28.084   1.917
55999W        W20207  34.105   9.738  10.520
56000W        W20208  18.595  32.018  10.941
56001W        W20209  18.596  17.113  13.382
56002W        W20210  29.650  22.028   3.806
56003W        W20211  32.902  26.013   3.776
56004W        W20212   6.768  15.808  13.496
56005W        W20213  28.986  41.327  14.997
56006W        W20214  13.836   7.417   4.748
56007W        W20215  30.544  31.146   3.684
56008W        W20216  11.745  42.284   1.901
56009W        W20217  39.464   1.790  13.548
56010W        W20218  31.062  44.847   2.848
56011W        W20219  14.824  19.251   4.154
56012W        W20220  33.589   0.920   5.186
56013W        W20221  32.605   6.880   1.247
56014W        W20222  32.463  37.930  11.931
56015W        W20223  27.561  26.667  12.396
56016W        W20224  13.335  17.692  14.297
56017W        W20225  35.876  17.612   1.705
56018W        W20226  37.055  35.441  11.126
56019W        W20227  10.855  26.095   1.874
56020W        W20228  36.013  18.126  14.322
56021W        W20229  37.845   1.464  13.358
56022W        W20230  12.354  22.709  11.988
56023W        W20231   1.863  20.769   1.355
56024W        W20232  16.308  35.526  14.416
56025W        W20233  39.551  22.701   0.825
56026W        W20234   2.856   7.262   2.232
56027W        W20235   3.412  34.490   0.412
56028W        W20236  19.157  33.030   3.247
56029W        W20237  41.915  31.082   0.308
56030W        W20238   8.322  14.128  10.575
56031W        W20239  14.156  25.128  12.880
56032W        W20240  23.120  31.943   0.796
56033W        W20241  40.815  15.187   5.642
56034W        W20242  34.477  38.416  14.803
56035W        W20243  20.093  21.023  14.984
56036W        W20244  29.982   9.166  12.828
56037W        W20245  38.854  41.332  12.494
56038W        W20246  10.696   7.887   2.722
56039W        W20247  24.478  31.955   3.769
56040W        W20248  22.626  38.565  14.807
56041W        W20249  35.005  31.062  14.890
56042W        W20250  10.649   4.376  10.469
56043W        W20251  17.188   0.278  14.416
56044W        W20252   7.726  14.646  14.428
56045W        W20253  36.871   9.381   1.211
56046W        W20254  15.288   4.235   4.789
56047W        W20255   9.237  37.870   3.227
56048W        W20256  25.548  23.099   4.599
56049W        W20257  16.715  36.991  13.017
56050W        W20258  13.718   3.282   0.901
56051W        W20259   3.362  18.068  13.346
56052W        W20260   7.263   1.337  13.839
56053W        W20261   4.812  25.148  10.973
56054W        W20262  10.879  10.875   3.351
56055W        W20263   7.818   0.876  14.851
56056W        W20264  31.501  41.878   3.316
56057W        W20265   6.408  19.164  10.111
56058W        W20266  32.021  17.123  14.761
56059W        W20267  31.057  10.310   2.357
56060W        W20268  42.963  43.884  11.587
56061W        W20269  38.828  22.125   1.845
56062W        W20270  26.458   5.240   0.945
56063W        W20271  41.487  31.970  13.958
56064W        W20272  44.010  18.700  14.822
56065W        W20273  13.190  15.241  10.936
56066W        W20274  40.531  18.061   3.182
56067W        W20275  23.615  22.641  11.927
56068W        W20276  36.370  22.596  12.928
56069W        W20277  26.464  41.466  14.009
56070W        W20278  30.422  10.224  10.426
56071W        W20279  13.802  40.401   4.759
56072W        W20280  14.827   7.888   1.373
56073W        W20281   1.247  33.414   3.763
56074W        W20282   4.232  18.078  14.929
56075W        W20283  15.738  20.738   0.320
56076W        W20284  30.650  35.430  11.387
56077W        W20285  39.498  43.404  14.487
56078W        W20286  44.781  23.227   0.421
56079W        W20287  44.260   5.301   1.886
56080W        W20288   3.789  17.723  13.975
56081W        W20289  23.220   5.346   4.318
56082W        W20290  15.763  41.339  10.993
56083W        W20291  17.622  12.817   3.217
56084W        W20292  39.988  34.395  14.819
56085W        W20293  23.688  40.480   0.895
56086W        W20294  29.168  25.708   0.300
56087W        W20295  11.656   1.958  13.899
56088W        W20296  21.170  41.428  11.855
56089W        W20297  33.049  18.154   2.886
56090W        W20298  37.907  42.857   3.712
56091W        W20299  35.050   8.365  11.961
56092W        W20300  16.211  39.448   0.888
56093W        W20301  20.755  22.132   4.169
56094W        W20302  29.523  12.757  11.058
56095W        W20303  23.084  34.000  14.386
56096W        W20304  10.379  24.012   2.416
56097W        W20305  21.724  33.470  10.933
56098W        W20306  26.977  21.227  14.927
56099W        W20307  39.058  38.435  13.013
56100W        W20308  36.022  37.019   4.155
56101W        W20309  20.034  21.730   2.322
56102W        W20310  21.110  21.714  11.423
56103W        W20311   9.722  43.874   2.327
56104W        W20312  27.194  32.470  13.007
56105W        W20313  37.371  25.526   1.846
56106W        W20314  16.203  44.404   0.729
56107W        W20315  35.424  16.617   3.239
56108W        W20316  37.989  44.334   2.861
56109W        W20317   3.425  28.934  14.891
56110W        W20318  33.463  34.393   1.335
56111W        W20319  34.484   7.355   4.758
56112W        W20320   5.261  28.529  14.407
56113W        W20321  34.512  43.850  11.942
56114W        W20322  34.019  10.300  12.434
56115W        W20323   9.265  11.754  11.915
56116W        W20324   3.712   8.724  12.052
56117W        W20325  36.074   1.935  12.947
56118W        W20326  38.925  44.437   1.859
56119W        W20327  21.552   4.810  11.878
56120W        W20328  30.051  40.310  12.569
56121W        W20329   0.798   4.329  13.372
56122W        W20330  15.157  43.466   4.602
56123W        W20331   4.436  44.389   3.380
56124W        W20332   2.761  36.562  13.850
56125W        W20333  29.989  27.483   4.619
56126W        W20334  11.677  44.441  12.076
56127W        W20335  28.630  35.372   2.870
56128W        W20336  41.328  30.428   2.266
56129W        W20337  12.741  39.370   4.625
56130W        W20338  35.486  19.142   3.340
56131W        W20339  27.685  43.926   1.895
56132W        W20340  25.687   1.739  12.408
56133W        W20341   4.791  40.998   4.267
56134W        W20342   3.773  38.037   1.275
56135W        W20343  18.166  38.846  14.769
56136W        W20344  26.491  36.381   4.240
56137W        W20345  25.631  19.205   0.301
56138W        W20346  35.969   3.402  10.558
56139W        W20347  42.298  15.294  10.434
56140W        W20348  43.994   9.807   2.355
56141W        W20349   3.772   9.186  13.473
56142W        W20350  11.243  42.979   1.244
56143W        W20351  33.036  35.589   4.739
56144W        W20352   9.678   9.658  11.906
56145W        W20353  35.033  36.386   4.229
56146W        W20354  14.271   8.827  12.018
56147W        W20355   9.766  27.456  10.513
56148W        W20356   3.948  44.486  14.492
56149W        W20357  23.549  20.157   4.804
56150W        W20358  39.447  25.513   3.306
56151W        W20359   3.800   5.857   2.804
56152W        W20360  14.287   9.730   3.381
56153W        W20361   7.252  42.858   0.746
56154W        W20362  27.084  10.182  13.471
56155W        W20363  17.559  16.646   3.156
56156W        W20364  34.991   1.308  12.015
56157W        W20365  19.688  31.057   4.653
56158W        W20366  39.534   1.797   4.598
56159W        W20367  20.535  12.230  12.925
56160W        W20368   8.824  18.596  14.457
56161W        W20369  11.332  25.595  11.070
56162W        W20370   9.179  33.596   1.913
56163W        W20371  35.471  16.238   4.823
56164W        W20372  17.773  33.098   1.784
56165W        W20373   8.692  27.163  13.516
56166W        W20374  26.571  37.000  13.976
56167W        W20375  44.348  32.491  10.561
56168W        W20376   3.337  36.952  13.515
56169W        W20377   7.244  15.655  14.772
56170W        W20378  15.168   8.722  14.760
56171W        W20379  39.315   7.295  14.459
56172W        W20380   6.756   9.312  14.846
56173W        W20381  35.491  44.989   2.373
56174W        W20382  38.487  23.989  11.009
56175W        W20383  11.277   0.470  11.907
56176W        W20384   9.659  23.497   3.703
56177W        W20385  30.089  32.094   3.185
56178W        W20386  34.455   3.722  10.618
56179W        W20387  15.312  24.168   2.288
56180W        W20388  36.507  32.392   1.806
56181W        W20389  26.076  30.976  11.885
56182W        W20390  35.881  34.410   1.737
56183W        W20391  21.071  32.502   4.707
56184W        W20392   8.678   8.368  14.431
56185W        W20393  26.002  23.577   1.932
56186W        W20394  42.391  12.644  13.529
56187W        W20395  44.362   6.219   1.362
56188W        W20396  15.796   8.330   3.812
56189W        W20397  17.773  37.044  10.581
56190W        W20398   6.778  41.885   3.691
56191W        W20399  12.234  26.567   3.798
56192W        W20400  24.722  10.174   1.235
56193W        W20401  26.650  14.213   2.683
56194W        W20402  17.615  17.631   2.889
56195W        W20403  21.159  37.466   3.279
56196W        W20404   0.434  15.192   4.609
56197W        W20405  18.259  28.600  11.911
56198W        W20406  42.873  37.494   0.823
56199W        W20407  32.476  15.673  13.971
56200W        W20408  24.200  31.447   4.311
56201W        W20409  11.798  21.664  13.048
56202W        W20410  17.155   1.962   1.326
56203W        W20411  20.603  24.076  14.019
56204W        W20412  36.069  26.952  14.807
56205W        W20413  33.968  17.717   3.152
56206W        W20414  27.115  19.194  13.856
56207W        W20415  25.036  36.507  10.438
56208W        W20416  11.341  28.498  14.014
56209W        W20417  21.042  24.522   0.360
56210W        W20418  14.306  22.613  11.487
56211W        W20419  35.452  20.055   2.892
56212W        W20420  10.732  16.199  13.912
56213W        W20421  22.015  42.340   1.267
56214W        W20422  20.161   3.777   4.812
56215W        W20423  41.510  25.989  12.975
56216W        W20424  16.659   3.800  13.828
56217W        W20425  38.053  10.845   0.374
56218W        W20426   2.809  13.705  13.051
56219W        W20427  42.828  36.353  10.904
56220W        W20428   1.301   8.251  10.567
56221W        W20429  28.441   6.211   1.717
56222W        W20430  28.449  25.208  11.385
56223W        W20431  24.627   1.269   1.819
56224W        W20432   8.764  20.752  11.035
56225W        W20433   7.820   6.404   3.739
56226W        W20434  38.432  29.491  13.485
56227W        W20435   1.829  28.077  10.584
56228W        W20436   6.819   8.682   3.218
56229W        W20437  29.541  38.002   3.228
56230W        W20438  27.490  39.349  12.407
56231W        W20439  40.030  16.754   1.695
56232W        W20440  12.168  29.578  13.466
56233W        W20441  26.167  18.682  13.396
56234W        W20442  43.821  42.938   4.763
56235W        W20443  44.794  29.924  14.901
56236W        W20444  30.413  27.489  14.824
56237W        W20445  42.876  35.474  11.037
56238W        W20446  19.678   9.694   0.955
56239W        W20447   0.460  25.532   0.409
56240W        W20448  36.545  33.524   0.955
56241W        W20449  40.547  32.582  12.840
56242W        W20450  33.935  32.599   0.847
56243W        W20451   3.801  39.939   3.247
56244W        W20452   4.759  32.589   2.843
56245W        W20453  44.910  19.091  11.060
56246W        W20454  18.636  41.839  14.327
56247W        W20455  31.018  11.701   3.796
56248W        W20456  24.064  35.504   3.659
56249W        W20457  22.644  25.539  11.971
56250W        W20458  41.957  21.096   2.404
56251W        W20459  24.019  13.630   4.700
56252W        W20460  33.985  35.934   3.666
56253W        W20461  34.417   2.730   3.671
56254W        W20462   0.966  17.754   3.775
56255W        W20463  37.069  22.236  12.580
56256W        W20464   4.334  20.240  14.867
56257W        W20465  36.567  25.561   4.150
56258W        W20466  34.466  37.939   4.313
56259W        W20467  28.172  22.507   5.295
56260W        W20468   5.318  40.837  12.892
56261W        W20469   5.433  41.429  12.445
56262W        W20470  29.590  25.213   3.643
56263W        W20471  42.356  14.187  12.890
56264W        W20472  33.478  33.083  12.031
56265W        W20473   0.822   0.380  14.837
56266W        W20474  26.187   3.764   4.664
56267W        W20475  19.075  37.479  12.857
56268W        W20476  33.465  32.492  12.489
56269W        W20477  44.828  31.146   1.372
56270W        W20478  18.604  25.981  13.982
56271W        W20479  25.047   8.662   2.213
56272W        W20480  11.282  37.909   4.167
56273W        W20481   1.293  36.359  12.438
56274W        W20482  42.347  17.095   5.113
56275W        W20483  27.660  44.912   1.832
56276W        W20484   0.856  21.060  13.423
56277W        W20485   8.826  36.536   1.428
56278W        W20486   7.890  26.678   3.331
56279W        W20487  29.527   3.840  11.012
56280W        W20488  29.519  37.848   0.833
56281W        W20489  24.645  11.339  10.926
56282W        W20490  29.645  44.857  11.974
56283W        W20491   6.886  39.909  13.423
56284W        W20492  23.631  23.180   1.353
56285W        W20493   5.311  22.630  14.832
56286W        W20494  29.492  20.564   4.174
56287W        W20495  40.303  15.703  13.314
56288W        W20496  36.439  38.479   4.741
56289W        W20497  30.556  22.240   2.210
56290W        W20498   2.338  13.665  12.578
56291W        W20499  32.492  16.656   4.654
56292W        W20500   2.281  28.034  12.851
56293W        W20501   6.231  10.376   1.324
56294W        W20502   5.721  17.233   3.319
56295W        W20503  31.418  25.590  12.895
56296W        W20504  40.820   0.471   4.629
56297W        W20505   8.236  18.566  12.509
56298W        W20506  26.173  21.564  14.323
56299W        W20507  44.938  37.041  12.069
56300W        W20508  12.624  22.122   2.663
56301W        W20509  34.919  29.534  10.972
56302W        W20510  37.558  37.370   0.315
56303W        W20511   1.943  37.970  11.113
56304W        W20512  42.388  23.061  12.829
56305W        W20513  30.157  39.470   3.673
56306W        W20514  43.017  10.203   0.903
56307W        W20515   5.210  16.635  12.368
56308W        W20516   6.382  15.746   4.221
56309W        W20517  38.409  39.976   2.206
56310W        W20518  35.102  42.001   0.459
56311W        W20519  44.757  29.923   4.252
56312W        W20520  19.712  41.019  14.999
56313W        W20521  17.145  44.830  12.522
56314W        W20522  43.021  13.607  14.806
56315W        W20523  17.265  14.277   4.737
56316W        W20524  17.739  16.267   3.796
56317W        W20525  42.313  35.580  13.973
56318W        W20526  20.642  11.822   3.681
56319W        W20527  27.476   2.330   2.359
56320W        W20528  16.636  20.728  10.635
56321W        W20529  20.645  33.085   3.747
56322W        W20530  41.351  41.323   4.622
56323W        W20531  24.626  30.639   3.227
56324W        W20532  15.680  16.724   3.855
56325W        W20533  37.500  22.136  10.612
56326W        W20534   6.877   0.426   3.740
56327W        W20535  25.202  16.676   0.802
56328W        W20536  41.333  26.105   4.770
56329W        W20537  31.075  39.346   1.931
56330W        W20538  28.587  29.078   0.338
56331W        W20539  28.453  17.585  12.916
56332W        W20540  12.812  36.853  12.965
56333W        W20541  11.670  28.545  13.943
56334W        W20542  15.148  33.913   1.273
56335W        W20543  29.979  26.196  13.973
56336W        W20544  25.597  30.002   4.809
56337W        W20545  25.607  31.932  12.435
56338W        W20546   8.820  37.036  13.995
56339W        W20547  40.836   7.372  11.556
56340W        W20548   2.356   5.335   2.255
56341W        W20549  16.186  40.436  14.842
56342W        W20550  34.051  34.055  13.930
56343W        W20551  23.675  21.214  12.076
56344W        W20552  15.126  35.877  11.386
56345W        W20553  12.188  28.961   4.630
56346W        W20554  11.794  41.831   4.143
56347W        W20555  13.120   7.183   9.958
56348W        W20556  41.442  41.961   2.333
56349W        W20557  22.238  30.075   1.415
56350W        W20558  43.018  23.074   4.210
56351W        W20559  15.585   7.195   4.229
56352W        W20560  36.019  35.885   2.753
56353W        W20561   3.389  39.881   9.984
56354W        W20562   2.471  22.736   3.684
56355W        W20563  27.151   7.711  11.477
56356W        W20564  12.656  31.142  14.498
56357W        W20565   2.903   0.296  11.898
56358W        W20566  29.534  31.642  12.571
56359W        W20567   6.351  17.136  10.144
56360W        W20568  33.116  33.604  10.615
56361W        W20569  29.147   2.856  12.467
56362W        W20570  38.504   3.273   3.845
56363W        W20571  16.233  31.535   1.796
56364W        W20572  20.166  43.496  13.408
56365W        W20573  34.375   0.931   0.738
56366W        W20574  29.050  38.479  11.943
56367W        W20575   2.417   1.287   1.817
56368W        W20576  28.606  24.059  11.555
56369W        W20577  25.055  12.167   0.465
56370W        W20578  19.183  44.958  13.837
56371W        W20579  27.644  21.561  12.882
56372W        W20580   8.352  26.039  10.563
56373W        W20581   0.874  33.534  14.768
56374W        W20582  21.108  40.869  13.399
56375W        W20583  22.511  20.679  13.827
56376W        W20584  29.583   9.781  12.003
56377W        W20585  25.658  40.006   3.214
56378W        W20586  31.613   7.267   2.267
56379W        W20587  43.794  16.180   3.194
56380W        W20588  37.559  29.612   4.119
56381W        W20589  18.196  12.824   3.158
56382W        W20590  21.180  42.300  14.960
56383W        W20591  33.094  26.490  14.418
56384W        W20592  10.291   9.852   0.341
56385W        W20593   5.417  19.039   0.482
56386W        W20594   4.234  43.020  12.410
56387W        W20595   8.392  22.740  14.796
56388W        W20596  37.532  40.912   1.769
56389W        W20597  27.666  12.722   4.291
56390W        W20598   6.750  38.532  12.401
56391W        W20599  38.400  23.064   3.210
56392W        W20600  24.181  20.718  11.462
56393W        W20601  33.585  11.711   4.251
56394W        W20602  10.853  22.025  11.885
56395W        W20603  16.672  16.802   1.319
56396W        W20604  23.676   3.761   3.316
56397W        W20605  17.288  17.142  11.467
56398W        W20606  16.747  31.072  13.493
56399W        W20607  37.935  16.703   9.962
56400W        W20608  25.684   0.299  12.468
56401W        W20609   9.269   5.277   2.342
56402W        W20610  39.314   3.278   3.643
56403W        W20611  29.644  37.446  11.082
56404W        W20612  20.745  42.414   4.116
56405W        W20613   5.904  33.111   4.297
56406W        W20614  24.690  14.165  10.999
56407W        W20615  30.094   6.837  12.933
56408W        W20616  22.703  20.147   4.333
56409W        W20617  24.018  22.157  10.985
56410W        W20618   0.490   8.777   0.776
56411W        W20619  38.930  44.983  13.970
56412W        W20620  42.945  17.758  12.003
56413W        W20621  32.411  10.653   3.243
56414W        W20622   9.306  15.777  12.895
56415W        W20623  21.530   7.672   2.828
56416W        W20624  36.407  29.026  10.953
56417W        W20625  27.606  18.079   3.714
56418W        W20626  31.135  28.633  14.849
56419W        W20627   5.195   3.403   4.675
56420W        W20628  16.792  18.223   0.925
56421W        W20629  28.989  24.695   2.339
56422W        W20630   9.348  19.761   0.316
56423W        W20631  18.572  44.327  14.420
56424W        W20632  13.204  31.477  13.839
56425W        W20633  44.855  17.567   4.114
56426W        W20634  24.576  40.510  13.889
56427W        W20635  27.532  39.374  14.878
56428W        W20636  16.094  44.266   4.353
56429W        W20637  36.474  23.155   2.824
56430W        W20638   3.435  27.496   1.278
56431W        W20639  26.649   0.767   0.483
56432W        W20640  19.238  29.619   4.678
56433W        W20641   0.806  27.679   2.383
56434W        W20642  10.648   3.231  13.344
56435W        W20643  28.490  19.056  11.924
56436W        W20644  28.114   2.461   0.893
56437W        W20645  44.906  16.621   4.119
56438W        W20646  13.777  10.322   1.262
56439W        W20647  18.148   3.944  11.482
56440W        W20648  38.862   8.189  10.561
56441W        W20649  18.103  35.552   2.224
56442W        W20650  43.449   1.911  12.852
56443W        W20651  25.516  36.954   0.332
56444W        W20652   0.290  18.065  13.471
56445W        W20653  25.105   9.682   1.892
56446W        W20654  42.840  39.051   4.636
56447W        W20655   5.897  29.562   3.703
56448W        W20656  18.126  19.585  14.305
56449W        W20657  31.996   2.728   4.151
56450W        W20658  35.376  19.662   4.820
56451W        W20659  13.843  26.703   4.129
56452W        W20660  36.047  16.689  13.373
56453W        W20661  21.708   0.447   3.211
56454W        W20662  41.896  19.750  11.587
56455W        W20663  20.138  32.579  13.974
56456W        W20664  19.631  15.304  11.892
56457W        W20665  18.791  12.117   3.657
56458W        W20666  15.808   9.216   0.443
56459W        W20667  24.176   4.221  13.507
56460W        W20668  27.580  15.251   3.666
56461W        W20669  24.990   4.853   3.696
56462W        W20670  35.585  21.223  14.440
56463W        W20671  34.396  12.208  13.791
56464W        W20672   2.420  27.491   1.798
56465W        W20673   3.774  10.690  14.396
56466W        W20674   4.300  16.757   2.713
56467W        W20675  40.857  11.868   2.722
56468W        W20676  30.584  13.679   1.319
56469W        W20677   6.289  25.520  14.765
56470W        W20678  17.308  26.602  12.357
56471W        W20679  38.351  13.187   1.384
56472W        W20680  27.990  29.429  13.063
56473W        W20681   5.914   9.270  14.367
56474W        W20682   6.379   8.739   4.297
56475W        W20683  22.536   0.790   2.747
56476W        W20684   7.905  44.413   3.364
56477W        W20685  42.487  29.082  10.973
56478W        W20686  15.090  29.577  12.830
56479W        W20687   4.288   3.231  12.056
56480W        W20688  39.940   9.767  11.424
56481W        W20689  38.952  22.182   9.960
56482W        W20690  11.836  28.001   0.814
56483W        W20691  26.545   6.888  14.371
56484W        W20692  41.808  44.834   3.866
56485W        W20693  21.734   6.816  14.777
56486W        W20694   8.217  25.135  10.479
56487W        W20695  19.618  11.374   4.823
56488W        W20696  42.409  41.953   3.852
56489W        W20697   8.231  30.427   4.601
56490W        W20698  28.600  28.125  14.782
56491W        W20699  20.107  39.521   0.833
56492W        W20700  15.715   0.885   1.242
56493W        W20701  13.755  16.566   1.373
56494W        W20702  24.622   3.887   3.629
56495W        W20703  21.757  31.042   1.311
56496W        W20704  29.430  29.062  13.858
56497W        W20705  34.397   4.377   0.882
56498W        W20706  38.462  18.292   3.789
56499W        W20707   9.233  28.973  12.515
56500W        W20708  24.202   5.211  11.018
56501W        W20709  43.296   3.716   4.120
56502W        W20710  36.406  40.503   2.765
56503W        W20711  34.002  20.226  14.306
56504W        W20712  15.143   5.905   0.920
56505W        W20713   3.757  32.040   2.346
56506W        W20714  28.082   1.759   3.227
56507W        W20715  16.804   3.372  14.510
56508W        W20716  41.933  30.504  10.581
56509W        W20717  38.423  23.999   2.690
56510W        W20718   7.174  33.382  13.380
56511W        W20719  39.412   3.335   0.448
56512W        W20720  29.093   3.945   0.774
56513W        W20721  26.126  14.653  10.441
56514W        W20722   3.376  14.779   5.109
56515W        W20723  34.121  37.979   1.222
56516W        W20724  44.415  31.905   3.704
56517W        W20725   7.719  30.463   3.329
56518W        W20726  43.822  34.115  12.967
56519W        W20727  25.174  18.634  12.412
56520W        W20728   5.193  17.153  11.098
56521W        W20729  29.583  37.503   0.383
56522W        W20730  18.263  21.692   4.117
56523W        W20731  12.235  25.621  13.508
56524W        W20732   4.724  19.071   4.816
56525W        W20733  38.430  14.757   2.803
56526W        W20734   5.774   1.971  13.408
56527W        W20735  33.552   1.944  14.280
56528W        W20736  39.489  10.287   4.749
56529W        W20737   9.255  24.505  11.453
56530W        W20738  36.368  41.844   2.378
56531W        W20739  17.599  13.137   2.185
56532W        W20740  21.062  15.754  14.778
56533W        W20741  25.045  37.916   3.210
56534W        W20742  18.151  29.470  13.898
56535W        W20743  29.592  20.595   1.919
56536W        W20744  10.281  10.788   0.828
56537W        W20745  25.116  37.360  14.892
56538W        W20746  32.401  34.897  13.849
56539W        W20747  43.321  21.108   0.251
56540W        W20748  39.998   9.841  14.929
56541W        W20749  13.749  31.148  14.929
56542W        W20750  16.290   8.210   4.628
56543W        W20751  11.787  18.551  11.553
56544W        W20752  39.523  10.206  10.926
56545W        W20753  43.512  25.022   0.474
56546W        W20754   8.685  10.276   1.434
56547W        W20755  35.400  44.364  10.479
56548W        W20756  40.994  21.550   2.750
56549W        W20757  40.027   0.312  11.393
56550W        W20758  27.957  23.034   0.371
56551W        W20759   1.971  23.207  14.010
56552W        W20760  24.556  19.114  11.970
56553W        W20761  28.677  18.098  12.360
56554W        W20762   8.899  19.124   2.782
56555W        W20763  28.658  37.522  10.077
56556W        W20764  32.977  21.665  11.045
56557W        W20765  36.536  12.336  13.047
56558W        W20766  12.274  31.935   5.115
56559W        W20767   1.466  15.202  11.504
56560W        W20768  27.114  12.201   2.823
56561W        W20769   6.753  32.589   3.741
56562W        W20770   4.325  22.669   3.709
56563W        W20771  26.123  42.813  12.381
56564W        W20772  35.358   8.711  13.002
56565W        W20773  16.788  30.649  13.329
56566W        W20774  12.144  15.729   0.815
56567W        W20775  16.808  39.953  10.966
56568W        W20776  11.356  33.972  10.619
56569W        W20777  32.495  41.328   5.160
56570W        W20778  14.629  24.572   3.190
56571W        W20779   4.407  41.026   2.736
56572W        W20780  17.697  27.661   3.221
56573W        W20781  30.473  18.669   3.788
56574W        W20782  43.347  40.822   4.830
56575W        W20783  36.928   5.855  14.770
56576W        W20784  26.140  18.628  10.451
56577W        W20785  17.108   6.876  13.345
56578W        W20786  20.694   0.791  14.850
56579W        W20787  27.059  23.639  13.397
56580W        W20788  13.741  28.641  12.859
56581W        W20789  21.263  14.600  11.029
56582W        W20790   9.171  15.094   4.611
56583W        W20791  40.003  29.585   3.645
56584W        W20792   3.222   4.882   4.341
56585W        W20793  24.505  20.737   2.283
56586W        W20794  17.067  32.020   2.886
56587W        W20795  20.067  36.985   0.320
56588W        W20796  39.922  24.121  10.941
56589W        W20797  11.697  44.976  12.340
56590W        W20798  44.754  29.467   0.392
56591W        W20799  28.071  36.919  12.876
56592W        W20800  25.097  34.401  11.926
56593W        W20801   1.255  20.074  10.616
56594W        W20802   7.806  29.483   2.796
56595W        W20803  28.086  10.165   3.746
56596W        W20804   1.903  26.207  11.478
56597W        W20805  40.898  26.090   4.692
56598W        W20806  11.859  28.025  12.930
56599W        W20807  32.979  19.652  10.602
56600W        W20808  35.046  26.525   0.315
56601W        W20809  12.345  44.956   2.293
56602W        W20810  20.131  42.388  12.900
56603W        W20811  26.603   5.929   2.187
56604W        W20812  21.134   3.942   5.241
56605W        W20813  31.128  35.005   4.254
56606W        W20814   0.258  41.819  11.966
56607W        W20815  38.940  30.610   2.774
56608W        W20816  41.924  33.078   1.740
56609W        W20817  25.966   6.840  11.894
56610W        W20818   2.350  12.708  14.474
56611W        W20819  22.553  37.365  10.575
56612W        W20820  41.482   2.265  13.056
56613W        W20821  29.043  41.855   0.442
56614W        W20822   1.406   9.646   0.260
56615W        W20823  18.123  41.814  13.467
56616W        W20824   8.374  39.399  10.636
56617W        W20825  36.527  29.643   4.724
56618W        W20826  30.946  44.501   4.237
56619W        W20827  36.012  26.458   2.829
56620W        W20828   0.322  20.172   4.334
56621W        W20829  19.715  14.733  13.063
56622W        W20830  11.305  23.008   3.826
56623W        W20831  11.683   9.285   3.775
56624W        W20832   3.437  37.521  13.014
56625W        W20833  14.286  20.075  12.959
56626W        W20834   8.673   4.787   5.254
56627W        W20835  14.756   2.399  11.006
56628W        W20836   2.396  19.121  14.003
56629W        W20837   4.244  22.731   4.794
56630W        W20838   8.369  20.651   1.725
56631W        W20839  31.555  20.543   0.466
56632W        W20840   5.883   7.214   4.122
56633W        W20841  36.963  28.438   0.357
56634W        W20842  42.825   1.755   0.298
56635W        W20843  39.440  34.430   2.826
56636W        W20844  13.677  44.431   0.836
56637W        W20845  21.542  14.144  10.506
56638W        W20846  23.104  42.991   1.363
56639W        W20847  41.946  41.354   4.298
56640W        W20848  35.875  12.834  14.496
56641W        W20849  36.554  24.126  11.928
56642W        W20850  35.077   6.356  12.022
56643W        W20851   7.409   2.412   2.410
56644W        W20852  27.195  33.454  13.316
56645W        W20853  38.837  23.231  11.602
56646W        W20854   6.882  26.692  13.051
56647W        W20855  43.847  17.620  11.870
56648W        W20856  27.941   7.341  14.012
56649W        W20857  16.179  32.073  13.993
56650W        W20858  23.101  35.547  11.521
56651W        W20859  23.679  26.085  13.467
56652W        W20860   8.167   6.214   4.824
56653W        W20861  42.779   9.787  11.473
56654W        W20862  20.586  32.938   0.407
56655W        W20863   3.366  35.868   4.712
56656W        W20864  26.952  14.612  12.547
56657W        W20865   5.702   9.367   3.837
56658W        W20866   8.194  20.062   4.682
56659W        W20867  26.633  14.222   0.324
56660W        W20868  31.536  37.879  14.508
56661W        W20869   4.310  38.341   0.317
56662W        W20870  35.905  34.389   0.398
56663W        W20871  14.166  23.648   0.270
56664W        W20872  42.316   4.339   3.358
56665W        W20873   0.375   8.383  11.077
56666W        W20874  22.245   2.466  12.570
56667W        W20875  18.216  12.770  10.516
56668W        W20876  12.785  22.101  14.278
56669W        W20877   7.808  41.869   0.286
56670W        W20878  41.857  18.168  13.794
56671W        W20879   8.396  34.582   1.314
56672W        W20880  21.631   7.248  11.393
56673W        W20881  16.606   0.377   1.720
56674W        W20882  27.650  30.507   1.386
56675W        W20883  22.577  18.603  12.488
56676W        W20884   5.889  21.668  12.406
56677W        W20885  20.239  40.450  14.795
56678W        W20886  10.726  17.582  13.334
56679W        W20887  18.702  37.046  13.909
56680W        W20888  22.651  15.762   5.321
56681W        W20889  24.048  38.412   0.782
56682W        W20890  23.166  36.041   1.745
56683W        W20891  11.632  24.988   2.194
56684W        W20892  14.215  32.479   2.192
56685W        W20893  32.447   7.212   1.328
56686W        W20894   8.405  20.649   3.746
56687W        W20895  30.507   5.323  13.969
56688W        W20896  14.679  10.670  11.499
56689W        W20897  11.266  39.399   1.874
56690W        W20898   9.809  37.410  10.537
56691W        W20899  32.942  41.393   3.792
56692W        W20900  26.016  44.481  13.821
56693W        W20901  18.602   0.489   2.834
56694W        W20902   0.340  21.644  12.380
56695W        W20903  25.990  42.855   3.835
56696W        W20904   2.959  17.236  14.001
56697W        W20905  41.338  38.536  12.500
56698W        W20906  22.231   6.907  10.967
56699W        W20907  44.396  14.275  14.469
56700W        W20908   3.347  12.273  13.968
56701W        W20909   3.305  40.542   3.637
56702W        W20910  27.667  27.001   4.335
56703W        W20911  19.681  38.050  12.951
56704W        W20912  16.199  21.084  10.552
56705W        W20913  12.797  10.259   4.659
56706W        W20914  23.127   2.305  14.012
56707W        W20915   3.953   2.471   3.302
56708W        W20916  18.784  22.007  12.870
56709W        W20917  27.114  21.731   1.324
56710W        W20918  30.117  30.088  10.606
56711W        W20919  43.476  37.541   3.298
56712W        W20920   5.741  35.992   2.283
56713W        W20921  22.244  41.005  11.478
56714W        W20922  29.110  15.697   2.407
56715W        W20923  13.758  25.506   1.290
56716W        W20924  36.542  27.448   1.732
56717W        W20925  33.884  12.216   4.348
56718W        W20926  14.202  38.360   4.716
56719W        W20927  27.024   1.831   5.083
56720W        W20928  12.666   5.388   1.853
56721W        W20929  43.365  20.211   3.762
56722W        W20930   8.227  30.029   0.406
56723W        W20931  11.128  20.659  14.415
56724W        W20932  17.292  42.452   0.298
56725W        W20933   7.733  37.026   2.880
56726W        W20934   8.170  34.931  10.531
56727W        W20935  36.395  30.107   4.616
56728W        W20936  32.525  13.184   3.734
56729W        W20937  10.151   3.870  12.958
56730W        W20938  14.835  12.303  12.407
56731W        W20939   6.324  26.178  14.019
56732W        W20940  20.088  22.175  14.425
56733W        W20941  18.733  35.488   3.679
56734W        W20942  12.790  38.993   3.754
56735W        W20943  13.333  13.784   2.697
56736W        W20944   1.859  12.335  10.930
56737W        W20945  11.220  33.387  14.822
56738W        W20946   6.823  29.665   2.280
56739W        W20947  23.143   4.215   1.896
56740W        W20948  23.734  10.750   2.746
56741W        W20949  12.162  41.534   4.122
56742W        W20950  13.742   4.228  11.949
56743W        W20951  19.652  34.938  14.853
56744W        W20952  17.575  15.627  14.294
56745W        W20953  14.279  16.688  11.903
56746W        W20954   9.175  41.371   4.646
56747W        W20955  21.712  38.852   2.829
56748W        W20956  34.453  26.478   1.748
56749W        W20957  13.776  39.412   2.178
56750W        W20958  35.963   3.461  12.055
56751W        W20959  12.163   6.771  11.473
56752W        W20960   1.242  23.652   1.855
56753W        W20961   3.296  18.055   1.428
56754W        W20962  37.085  12.837   1.266
56755W        W20963   8.376  39.889   4.169
56756W        W20964  26.124  10.170  11.425
56757W        W20965   2.340  38.482  10.590
56758W        W20966   0.861  20.718  14.282
56759W        W20967  12.852  28.571  10.554
56760W        W20968  38.825  37.834   3.775
56761W        W20969  34.987  41.955  12.025
56762W        W20970   2.959  41.004  11.947
56763W        W20971  32.890  40.919  10.900
56764W        W20972   4.251  13.756  10.573
56765W        W20973  37.022  32.084   2.755
56766W        W20974  42.380  43.338  12.939
56767W        W20975  41.309  19.723   2.263
56768W        W20976  28.489  25.197  13.414
56769W        W20977   9.222  10.796   1.279
56770W        W20978  24.577  35.890   3.160
56771W        W20979  26.503  41.969   3.234
56772W        W20980  37.977  26.206   3.158
56773W        W20981  29.011  35.451   0.863
56774W        W20982  21.158   7.838   3.720
56775W        W20983   4.864  14.828   3.764
56776W        W20984   4.228  10.313  12.953
56777W        W20985  43.792  21.208  11.068
56778W        W20986  36.500  29.958   2.254
56779W        W20987   0.986  29.574   0.766
56780W        W20988  25.163   1.879  11.517
56781W        W20989  44.431  28.964   9.994
56782W        W20990  30.529  10.830   4.603
56783W        W20991  13.312  16.115   1.217
56784W        W20992  18.679   9.776  13.031
56785W        W20993  31.900  34.997   2.244
56786W        W20994  36.495  10.729   1.365
56787W        W20995   2.230  23.640  10.058
56788W        W20996   8.374  33.952   4.800
56789W        W20997  11.810  39.444  14.511
56790W        W20998  24.046  36.585   2.822
56791W        W20999  41.838  38.387  14.484
56792W        W21000  42.944  21.757  13.375
56793W        W21001  10.220  30.027   0.868
56794W        W21002  22.205   3.391   1.225
56795W        W21003  44.814   0.316   5.259
56796W        W21004  30.122  44.754   2.793
56797W        W21005  18.289  35.446   5.639
56798W        W21006  24.623  25.592   2.746
56799W        W21007  35.500  20.683  14.442
56800W        W21008  35.363  38.891   2.387
56801W        W21009  19.728   9.192  12.976
56802W        W21010  37.852  28.039   1.421
56803W        W21011  22.729  43.272   3.305
56804W        W21012  27.032   6.796  14.331
56805W        W21013  24.120  27.632  14.015
56806W        W21014   3.415  10.643   2.360
56807W        W21015  34.539  17.176   4.745
56808W        W21016  38.525   3.902   3.185
56809W        W21017  13.756  24.212   4.685
56810W        W21018  35.543  32.898  11.108
56811W        W21019  24.155  29.595   5.152
56812W        W21020  13.174  36.968   0.808
56813W        W21021  37.885  31.120   0.268
56814W        W21022  24.493  26.508  14.995
56815W        W21023   8.175  19.739   1.313
56816W        W21024   3.789  19.560  12.350
56817W        W21025  27.042  15.659   4.813
56818W        W21026  30.055  11.800   1.770
56819W        W21027  19.741  12.627   1.817
56820W        W21028   5.391  42.344   3.823
56821W        W21029  16.690   7.247  11.007
56822W        W21030  40.867  38.521   0.327
56823W        W21031  14.165  13.775   0.285
56824W        W21032   9.790  11.704   5.802
56825W        W21033  44.943  30.097  14.318
56826W        W21034  21.722  38.454  11.502
56827W        W21035  20.766   4.743  12.548
56828W        W21036  11.309  12.795   2.712
56829W        W21037  33.428  20.650   1.373
56830W        W21038   8.694  22.231   3.282
56831W        W21039  41.367   6.323  11.587
56832W        W21040  20.525   3.387  10.425
56833W        W21041  35.991   2.795   2.854
56834W        W21042  10.368  44.500   1.416
56835W        W21043   4.393  24.598   2.233
56836W        W21044  36.412  12.187  10.601
56837W        W21045   0.906  14.677   1.922
56838W        W21046  35.965  41.357   1.750
56839W        W21047  21.033  38.911   2.755
56840W        W21048   6.390   1.920  10.052
56841W        W21049   3.291  19.164   0.263
56842W        W21050  18.724   2.350  14.470
56843W        W21051  23.231   5.334   0.354
56844W        W21052  25.496  36.091  11.920
56845W        W21053  30.584  38.556  12.550
56846W        W21054  34.536  42.378   3.849
56847W        W21055  24.599  32.119  13.330
56848W        W21056  10.200  12.257   5.301
56849W        W21057  14.780  19.119   0.950
56850W        W21058  41.538  40.392  12.373
56851W        W21059   5.397  13.132  13.518
56852W        W21060   5.816  37.428   3.785
56853W        W21061  16.091   7.730  10.954
56854W        W21062  16.112  34.907   4.618
56855W        W21063  44.362   9.816  10.533
56856W        W21064  14.722  44.755  11.424
56857W        W21065   8.714  36.444  13.951
56858W        W21066  12.127  26.188  12.960
56859W        W21067   7.867  26.653  14.955
56860W        W21068  21.565  39.903   1.373
56861W        W21069  11.342  12.207  10.970
56862W        W21070  10.312  37.855  14.290
56863W        W21071  29.967  42.987  14.416
56864W        W21072  28.180  44.960   3.257
56865W        W21073  27.131   7.380   4.825
56866W        W21074  21.724  35.065   4.670
56867W        W21075  16.118  23.526   0.354
56868W        W21076  19.128   7.743   0.943
56869W        W21077  34.395  33.504  11.487
56870W        W21078  39.862  43.391  13.831
56871W        W21079  25.513  40.811   3.207
56872W        W21080  24.639  40.032   4.728
56873W        W21081   2.289  24.087  14.977
56874W        W21082   1.267  14.252   2.702
56875W        W21083  28.679   7.228   4.795
56876W        W21084  27.940  21.238   4.164
56877W        W21085  31.645  27.510   0.828
56878W        W21086  25.712   9.724  11.587
56879W        W21087  35.520   3.736  13.399
56880W        W21088  28.097   8.888  14.019
56881W        W21089  22.157   1.976  13.982
56882W        W21090  13.130  15.282   1.374
56883W        W21091   7.897  34.996  14.994
56884W        W21092  39.915  33.039   1.376
56885W        W21093  17.596   5.339  12.954
56886W        W21094  32.392  21.543   0.927
56887W        W21095   1.268  23.035  12.973
56888W        W21096  32.028  18.620  13.840
56889W        W21097  32.501  36.858   2.397
56890W        W21098   2.237  39.947   4.151
56891W        W21099  13.112   3.438  11.603
56892W        W21100   2.341  27.058   1.245
56893W        W21101  16.705  44.984  13.438
56894W        W21102   5.356   0.370   1.722
56895W        W21103  43.821  10.743  11.858
56896W        W21104  37.889  25.035   3.790
56897W        W21105  27.968  44.418  12.339
56898W        W21106   8.791  35.463   0.847
56899W        W21107  31.078  44.423   0.481
56900W        W21108  10.320   5.395   4.688
56901W        W21109   5.850  21.754  14.462
56902W        W21110   5.410  39.393   0.849
56903W        W21111  31.938  28.499   1.718
56904W        W21112  39.921  19.595   0.740
56905W        W21113  13.727  41.318   4.279
56906W        W21114   8.799  12.261   2.903
56907W        W21115  17.098  12.796  14.345
56908W        W21116  21.580   8.312   4.312
56909W        W21117  16.310  24.569  10.966
56910W        W21118  21.645   6.202  11.027
56911W        W21119  20.113  33.969   0.787
56912W        W21120  14.260   8.687   0.338
56913W        W21121   9.188  11.621  13.990
56914W        W21122  11.629  27.128  11.575
56915W        W21123   5.358   4.771   1.322
56916W        W21124   6.363  35.881  13.540
56917W        W21125  43.848  36.421  13.311
56918W        W21126  28.172  42.943   4.155
56919W        W21127  27.455  12.826   3.383
56920W        W21128  20.616  15.669  14.422
56921W        W21129  44.822  30.106  11.123
56922W        W21130  17.263  23.139   1.802
56923W        W21131  17.587  18.160   4.758
56924W        W21132  33.574  13.758   1.837
56925W        W21133   3.288  21.590   1.871
56926W        W21134  10.155  30.970  13.028
56927W        W21135  32.953  30.150   2.759
56928W        W21136   4.802  34.401  10.891
56929W        W21137  21.584  33.014  10.496
56930W        W21138  27.094  14.605   3.764
56931W        W21139  40.331  15.174   1.385
56932W        W21140  11.298  12.122  13.053
56933W        W21141  15.630   4.756  13.532
56934W        W21142  41.438   3.718  12.358
56935W        W21143  27.164  20.044  11.079
56936W        W21144  41.954   1.255  13.516
56937W        W21145   5.248   1.320   0.862
56938W        W21146  38.064  33.114  11.056
56939W        W21147  29.940  40.003  10.593
56940W        W21148   4.769  27.041  13.478
56941W        W21149  22.689  16.766  11.509
56942W        W21150  26.590  15.097   2.863
56943W        W21151  27.991  21.200  12.561
56944W        W21152  44.870  19.123   2.255
56945W        W21153  21.675  18.781  10.489
56946W        W21154  14.598  34.611  13.364
56947W        W21155  38.965   4.354   3.824
56948W        W21156  16.688  25.036  12.575
56949W        W21157  30.657  23.205   1.912
56950W        W21158  34.483   6.208   1.449
56951W        W21159  42.026  30.422   0.289
56952W        W21160  34.113  27.110  11.032
56953W        W21161  40.306   3.429  11.940
56954W        W21162  16.134  44.881  14.482
56955W        W21163  34.970   8.320  14.993
56956W        W21164  25.138   5.732  12.491
56957W        W21165  12.685  10.293   3.365
56958W        W21166  39.412  11.212   0.768
56959W        W21167  38.821  14.280   3.740
56960W        W21168  23.538  24.534   3.317
56961W        W21169  12.736  38.493  14.984
56962W        W21170  31.085  17.154  10.502
56963W        W21171  35.979  23.696   1.290
56964W        W21172   4.827  12.743  10.579
56965W        W21173   2.436   8.290  12.964
56966W        W21174  24.083  10.657   4.261
56967W        W21175   5.281  26.975   0.290
56968W        W21176  32.905  37.339   4.713
56969W        W21177  10.208  10.662  10.572
56970W        W21178  21.631  20.669  11.938
56971W        W21179  17.710  17.300   0.448
56972W        W21180  20.177  18.666   0.825
56973W        W21181   5.424  43.896  10.629
56974W        W21182  36.502  13.635  11.569
56975W        W21183  32.486   5.399   2.772
56976W        W21184   1.413  29.651   0.922
56977W        W21185  23.519  40.420   4.813
56978W        W21186  10.653  14.694   5.276
56979W        W21187  24.590  29.465  14.962
56980W        W21188  42.966  24.975   4.134
56981W        W21189  26.179   0.276  12.892
56982W        W21190  16.658  39.929  11.554
56983W        W21191  21.580  41.408   2.741
56984W        W21192  18.256  18.147   5.204
56985W        W21193  37.906   1.876   0.392
56986W        W21194  34.514  40.008   3.252
56987W        W21195  31.899  41.402   4.627
56988W        W21196  36.889  19.639  11.891
56989W        W21197  38.408  20.641   3.219
56990W        W21198  28.148  27.464   1.853
56991W        W21199   0.436  35.008  14.883
56992W        W21200  28.151   9.713   5.256
56993W        W21201  25.624  17.723  12.850
56994W        W21202  12.131  26.025   4.770
56995W        W21203  36.407  10.712   2.847
56996W        W21204  20.711  10.778  12.017
56997W        W21205  43.809   1.804   3.158
56998W        W21206  38.055  17.801  12.411
56999W        W21207  22.665  29.648   9.927
57000W        W21208  10.146  39.016   3.738
57001W        W21209  19.667  32.977  11.908
57002W        W21210  33.508  42.508  10.544
57003W        W21211  34.526   9.239   0.747
57004W        W21212  16.620  15.778   2.279
57005W        W21213   2.392  20.598  11.540
57006W        W21214  12.825   9.394  13.878
57007W        W21215  42.312  16.162  10.495
57008W        W21216  34.020  42.480  14.400
57009W        W21217  31.418  30.446   2.778
57010W        W21218  25.559   8.195  11.047
57011W        W21219  34.516  26.030   1.900
57012W        W21220  36.351   7.263   4.808
57013W        W21221   0.978  25.683  14.023
57014W        W21222   5.378  18.666   3.701
57015W        W21223  21.224  39.348   1.247
57016W        W21224  37.436  30.112  11.386
57017W        W21225  36.366  11.627   2.668
57018W        W21226   6.387  19.621  14.001
57019W        W21227   0.370  32.525   1.306
57020W        W21228  16.241  25.007   1.286
57021W        W21229  39.985  15.699   9.943
57022W        W21230  24.066  30.054  12.080
57023W        W21231   8.281  21.164   0.346
57024W        W21232   1.254  18.790  10.423
57025W        W21233  44.456  31.626  14.013
57026W        W21234   6.895  21.070  11.894
57027W        W21235   0.951  41.849  14.979
57028W        W21236  40.809  30.566  11.438
57029W        W21237  40.807  10.161   1.281
57030W        W21238  28.187  44.469  13.820
57031W        W21239  27.163  30.038   1.279
57032W        W21240  43.952   8.189   0.914
57033W        W21241  23.015  10.769  14.993
57034W        W21242  41.852  43.486  10.945
57035W        W21243  33.518   6.820   0.846
57036W        W21244  28.997  34.983  14.849
57037W        W21245  34.542  38.897   2.182
57038W        W21246  36.481  41.313   5.100
57039W        W21247  11.816  30.936   2.722
57040W        W21248   5.286  10.846   3.317
57041W        W21249  19.719  30.992   1.297
57042W        W21250  32.637  14.709  11.995
57043W        W21251  36.555  13.164  14.945
57044W        W21252  41.422  22.014   2.838
57045W        W21253  14.589  27.994   4.740
57046W        W21254   2.430  29.171  14.923
57047W        W21255  37.015  35.943   0.761
57048W        W21256  22.007  42.778  11.504
57049W        W21257   4.923  12.319   3.182
57050W        W21258  21.057  28.556   1.450
57051W        W21259  15.254  21.167   0.867
57052W        W21260  13.669  39.944  14.276
57053W        W21261  41.477   1.401  12.063
57054W        W21262  12.848  39.493  12.004
57055W        W21263   0.285  13.633  12.958
57056W        W21264  40.326  12.357   0.929
57057W        W21265  13.818   7.769  12.497
57058W        W21266  32.942  26.075   2.240
57059W        W21267  20.167  35.409   4.691
57060W        W21268  18.198  22.046  13.897
57061W        W21269  42.484  11.345   3.782
57062W        W21270  40.533   2.464  13.872
57063W        W21271  29.984  33.957  13.418
57064W        W21272  37.364  23.079   3.688
57065W        W21273  23.011  14.158   0.471
57066W        W21274  15.127  15.742  10.158
57067W        W21275  17.718  21.201   3.840
57068W        W21276  22.050   8.741   9.597
57069W        W21277  40.840  28.097   0.326
57070W        W21278  33.529  19.632  14.461
57071W        W21279  28.618  17.064   0.343
57072W        W21280   0.952  41.894   0.909
57073W        W21281  33.498  33.877   4.644
57074W        W21282   2.258  21.523  13.468
57075W        W21283  37.504  12.278  13.827
57076W        W21284  22.249  16.073  11.388
57077W        W21285  32.024   9.167  14.888
57078W        W21286  30.117  32.085   3.781
57079W        W21287   3.756   1.892   4.807
57080W        W21288  13.175  13.196  10.562
57081W        W21289  16.572  34.971   3.653
57082W        W21290   7.210   5.766  12.542
57083W        W21291   1.482   0.304   1.831
57084W        W21292  21.068   7.718   0.258
57085W        W21293  28.503  37.831  11.106
57086W        W21294  36.998  25.529  13.041
57087W        W21295  40.531   1.294  11.911
57088W        W21296   6.287  26.556   0.332
57089W        W21297   1.924  10.706   2.292
57090W        W21298  44.463  10.780   4.611
57091W        W21299  34.038  37.569  13.432
57092W        W21300  34.463  37.946   2.786
57093W        W21301  39.338  28.155  14.846
57094W        W21302   5.695   6.306   1.709
57095W        W21303  17.614  11.152  10.586
57096W        W21304  22.531   2.452   1.260
57097W        W21305   9.763  31.087  11.408
57098W        W21306  21.515  23.685  12.929
57099W        W21307  28.600  28.587  14.942
57100W        W21308   8.226  15.258  10.963
57101W        W21309  19.120  32.521   0.949
57102W        W21310   8.269  33.021  10.425
57103W        W21311   0.378  12.177   0.763
57104W        W21312  21.064  44.775  13.388
57105W        W21313  17.170  41.459   1.779
57106W        W21314  32.070  38.463   9.949
57107W        W21315   6.891  32.443  12.515
57108W        W21316  43.990  35.978  12.854
57109W        W21317  22.229  21.239   0.457
57110W        W21318  15.657  41.996   2.274
57111W        W21319  11.813  16.100   2.217
57112W        W21320   3.412   6.739  13.313
57113W        W21321  18.150  39.846   2.242
57114W        W21322  39.989   1.252   4.830
57115W        W21323  24.614  24.124  10.622
57116W        W21324  16.247  18.131   0.281
57117W        W21325   7.704   1.898   1.263
57118W        W21326  26.201  44.290   2.842
57119W        W21327   6.271  13.330   4.730
57120W        W21328  23.548  23.043  13.863
57121W        W21329  31.022  31.631   3.349
57122W        W21330  21.064  38.331  14.290
57123W        W21331  18.674  24.497  13.406
57124W        W21332  24.150   2.240  14.881
57125W        W21333  40.546  27.649  12.367
57126W        W21334   7.910  33.086   2.341
57127W        W21335  10.196  22.025  14.810
57128W        W21336  44.885  12.713   4.154
57129W        W21337  27.146   9.744  11.390
57130W        W21338  30.948  34.942  13.041
57131W        W21339  30.480  25.548  11.954
57132W        W21340  31.631  23.716   2.252
57133W        W21341  24.520   3.935  11.117
57134W        W21342  25.712  32.541  14.407
57135W        W21343  28.648  42.361  14.767
57136W        W21344  31.132  42.384  13.850
57137W        W21345  24.974  35.557   0.281
57138W        W21346  16.272   3.423  12.429
57139W        W21347   0.777   3.930   3.723
57140W        W21348  37.422   1.359  12.956
57141W        W21349  26.071  33.576   1.749
57142W        W21350   4.797  17.723  10.626
57143W        W21351  31.087  12.781   3.303
57144W        W21352  16.654  27.627  10.925
57145W        W21353  43.001  24.992  11.000
57146W        W21354  36.456  17.153  12.393
57147W        W21355  17.302  42.802   2.699
57148W        W21356  18.634  35.852   1.334
57149W        W21357   3.324  32.143  11.918
57150W        W21358  31.515  31.080  14.979
57151W        W21359  15.678  32.485  10.520
57152W        W21360   6.788  32.621  14.450
57153W        W21361  33.030  15.813   0.788
57154W        W21362   4.442  23.205  12.080
57155W        W21363  42.019  37.497  14.443
57156W        W21364  18.176  31.640   0.382
57157W        W21365   6.727  41.467  11.527
57158W        W21366  28.574  11.342  10.474
57159W        W21367  20.206   8.739  11.936
57160W        W21368  40.982   6.232   3.640
57161W        W21369  33.387  22.216   2.259
57162W        W21370  26.126  16.641  14.011
57163W        W21371   5.302  36.442  11.505
57164W        W21372  23.990  13.717   1.897
57165W        W21373  34.995  23.732  13.812
57166W        W21374  44.775   2.269  13.951
57167W        W21375  32.033  25.591  10.489
57168W        W21376  18.646  26.168   1.857
57169W        W21377   6.405  16.254   3.210
57170W        W21378   8.283  13.720   0.370
57171W        W21379   4.804  28.636   0.854
57172W        W21380   1.760   0.860   2.290
57173W        W21381   4.906  14.253  10.970
57174W        W21382  15.588  10.380  14.495
57175W        W21383  32.112  40.406   4.805
57176W        W21384  13.173   6.366   3.748
57177W        W21385  16.680  34.041   3.251
57178W        W21386  22.138  18.630  10.947
57179W        W21387   9.304  36.855  10.997
57180W        W21388  35.493   2.903   3.851
57181W        W21389  42.924  16.712  11.608
57182W        W21390  44.404  19.048  12.993
57183W        W21391  23.103   5.831   0.314
57184W        W21392  31.489  26.030   4.253
57185W        W21393  40.855  11.865   3.720
57186W        W21394  40.521  38.894  12.860
57187W        W21395  15.140  14.632   2.871
57188W        W21396  18.213  12.747  12.971
57189W        W21397   2.348  32.020   1.450
57190W        W21398  42.919  38.517   0.322
57191W        W21399  11.357  37.343   3.689
57192W        W21400   1.367  10.153   3.175
57193W        W21401  21.723  20.732  13.802
57194W        W21402  41.488  24.667  10.597
57195W        W21403   1.319   6.838   4.179
57196W        W21404  10.815  36.466   1.934
57197W        W21405  31.947  22.088  14.466
57198W        W21406  31.074  40.800  12.398
57199W        W21407   6.407  44.272   1.270
57200W        W21408  27.076   4.447  11.508
57201W        W21409  16.169  30.497   3.654
57202W        W21410  27.072   9.243   4.744
57203W        W21411  44.009  14.239   4.676
57204W        W21412  18.577  19.649   2.787
57205W        W21413  17.273   7.725   4.276
57206W        W21414   5.343  27.501  14.513
57207W        W21415  34.059  35.929   4.726
57208W        W21416   8.363   5.804   3.232
57209W        W21417   4.915   0.818  11.113
57210W        W21418  34.910   9.816  14.441
57211W        W21419  27.072  14.119   4.746
57212W        W21420  16.260  25.713  12.525
57213W        W21421   8.173  31.082  14.462
57214W        W21422  38.427  36.443  14.341
57215W        W21423  24.692  43.901   2.704
57216W        W21424  34.572  35.933  14.377
57217W        W21425  20.133   7.793  13.395
57218W        W21426  23.140  17.157  11.044
57219W        W21427  32.063  11.161  12.409
57220W        W21428  12.234  15.201   5.683
57221W        W21429  17.076  10.722   3.298
57222W        W21430  18.682   5.718   0.307
57223W        W21431  37.500  23.540   2.796
57224W        W21432  44.483  31.939  11.084
57225W        W21433  25.201  15.219   1.361
57226W        W21434  35.924  36.354   3.842
57227W        W21435  36.009   1.940   4.627
57228W        W21436  24.505  40.902   4.331
57229W        W21437  25.700   0.436   4.688
57230W        W21438   2.314  18.787   0.954
57231W        W21439  42.369  34.982   1.929
57232W        W21440  16.191  14.162  10.620
57233W        W21441  10.781  37.031   3.334
57234W        W21442   2.241  42.020  10.972
57235W        W21443  33.066   9.190  13.462
57236W        W21444  12.139   2.391   4.213
57237W        W21445  14.212  31.640   3.757
57238W        W21446   2.375   1.398  11.498
57239W        W21447  33.111  44.442  12.963
57240W        W21448  39.536  31.508  12.889
57241W        W21449  23.985  30.427  11.972
57242W        W21450   9.853  36.505  14.430
57243W        W21451  11.767   4.738  11.124
57244W        W21452  13.716  21.050   2.344
57245W        W21453  42.444  37.846  14.997
57246W        W21454  37.551  24.213   3.699
57247W        W21455  23.616  32.091  13.944
57248W        W21456  16.143  21.659  13.974
57249W        W21457   9.234  31.047   3.261
57250W        W21458  40.458  35.889  12.964
57251W        W21459  19.564  42.924  13.433
57252W        W21460   5.778  21.516   2.418
57253W        W21461  20.538  29.510  13.960
57254W        W21462  34.065  11.297  14.923
57255W        W21463  17.307   3.811  11.401
57256W        W21464   2.272  36.023   0.792
57257W        W21465  19.054  43.902   2.842
57258W        W21466  26.693  24.500  11.373
57259W        W21467   1.844  19.052  12.908
57260W        W21468  29.570  37.045   4.796
57261W        W21469  35.907  35.540  11.875
57262W        W21470  27.118  42.371  11.446
57263W        W21471  17.166  13.312  14.485
57264W        W21472  28.548  12.690   3.799
57265W        W21473  22.135  15.617   2.189
57266W        W21474  16.100  22.070   3.770
57267W        W21475  15.257  24.503  12.867
57268W        W21476  34.611  27.691  14.784
57269W        W21477  23.148  22.084   2.714
57270W        W21478  29.150  24.183  11.587
57271W        W21479  15.219   0.825  11.538
57272W        W21480   1.289  29.138  10.081
57273W        W21481  25.662  19.545   3.807
57274W        W21482  10.694   0.848   2.884
57275W        W21483   9.272  41.834   4.835
57276W        W21484  27.045  27.049   2.286
57277W        W21485  19.131  36.471  10.900
57278W        W21486   3.257  11.251  13.375
57279W        W21487  38.893  33.543   1.302
57280W        W21488  21.186  25.611   2.889
57281W        W21489  19.194   1.748  14.487
57282W        W21490  41.401  20.124  11.409
57283W        W21491  19.691  38.854   0.333
57284W        W21492  32.531  34.003   3.280
57285W        W21493  37.436  33.131  14.015
57286W        W21494  17.274  32.074  11.052
57287W        W21495  11.343   3.780  10.500
57288W        W21496  19.650  27.649   2.207
57289W        W21497  29.116   3.728   2.359
57290W        W21498  29.061  44.975   2.399
57291W        W21499   3.794   1.942   1.310
57292W        W21500  37.382  26.151  13.943
57293W        W21501  17.075  34.610  11.929
57294W        W21502   2.855  33.129   9.565
57295W        W21503  14.798   0.415  14.775
57296W        W21504  26.605   0.365  10.534
57297W        W21505  12.781  27.560   0.409
57298W        W21506  36.390   7.231  10.429
57299W        W21507  36.559  42.008  12.469
57300W        W21508   7.821  26.193  13.807
57301W        W21509  34.904  15.143   3.339
57302W        W21510  29.963  15.258   4.280
57303W        W21511   3.806  14.590  14.309
57304W        W21512  42.992  17.238   0.344
57305W        W21513  42.778   0.385  13.434
57306W        W21514   7.793  40.049  12.464
57307W        W21515   5.349  11.784   3.368
57308W        W21516   0.374  36.024  12.996
57309W        W21517  32.519  25.155   1.917
57310W        W21518  27.028  15.116  12.918
57311W        W21519  35.949  43.013  13.534
57312W        W21520  33.913  31.130   2.290
57313W        W21521  23.235   0.348   4.264
57314W        W21522   0.481  30.529  13.511
57315W        W21523  26.197  19.047  14.873
57316W        W21524   4.748  18.260   0.812
57317W        W21525  17.700  24.077   2.846
57318W        W21526  36.583  25.114   5.299
57319W        W21527   1.329  15.712  14.784
57320W        W21528   4.252  41.797  11.523
57321W        W21529  29.468   7.864   4.690
57322W        W21530  31.932  23.652  13.538
57323W        W21531  27.464   6.891  10.934
57324W        W21532   9.817  43.892  11.087
57325W        W21533  16.077  36.864   5.204
57326W        W21534  18.185   7.855  14.771
57327W        W21535  37.877  29.162  12.964
57328W        W21536  38.356   4.445  12.064
57329W        W21537  44.996  24.566  10.527
57330W        W21538  24.531  42.331   3.741
57331W        W21539   4.428  36.068  12.967
57332W        W21540  18.168  29.429   4.244
57333W        W21541  29.431  24.978   2.301
57334W        W21542  40.899  35.402  14.008
57335W        W21543  23.507  13.780   3.712
57336W        W21544  37.365   4.225   1.872
57337W        W21545  44.418  16.235  13.370
57338W        W21546  12.760  24.682   3.319
57339W        W21547  34.604   6.844  13.344
57340W        W21548   5.345  26.533   4.671
57341W        W21549  25.519  14.215   4.120
57342W        W21550  10.332  38.943   0.920
57343W        W21551   9.670  10.154   0.407
57344W        W21552  29.065   0.401  11.982
57345W        W21553  10.313  12.254  11.948
57346W        W21554  34.118  22.213   2.872
57347W        W21555  22.206  26.070  11.488
57348W        W21556   9.272   6.738  12.508
57349W        W21557  20.674  18.600  11.006
57350W        W21558  14.123  38.506   4.248
57351W        W21559  35.386  14.191   2.818
57352W        W21560   0.490   4.381  13.039
57353W        W21561  10.837  44.397  10.574
57354W        W21562  36.918  20.602  10.611
57355W        W21563  39.464  29.977   0.920
57356W        W21564  20.211  21.519   0.967
57357W        W21565  39.862  16.611   2.238
57358W        W21566  33.926  38.525   4.319
57359W        W21567  38.020  13.746   3.670
57360W        W21568   9.863  21.219   1.306
57361W        W21569  32.434  26.555  10.465
57362W        W21570  22.099   6.197   5.750
57363W        W21571   1.834  24.107  12.509
57364W        W21572  22.188  18.136   2.789
57365W        W21573  36.477  23.027  13.508
57366W        W21574  34.592  14.753  12.986
57367W        W21575  40.042  16.244   2.678
57368W        W21576  11.366  10.336  11.010
57369W        W21577  12.826  20.255  10.531
57370W        W21578  18.159  17.301   1.711
57371W        W21579   0.295  18.143   1.703
57372W        W21580  12.737  13.270   2.185
57373W        W21581   3.243   6.710  10.951
57374W        W21582  26.631  37.024  14.940
57375W        W21583  37.938  24.688  10.980
57376W        W21584  33.103  28.628  14.366
57377W        W21585   0.785  30.988  14.977
57378W        W21586  17.713  26.066   2.417
57379W        W21587  42.341  20.231   4.701
57380W        W21588  33.021   3.449  13.017
57381W        W21589  18.280  22.588   2.697
57382W        W21590  43.273   5.701  11.008
57383W        W21591  29.559  35.923  13.803
57384W        W21592  23.154   4.358   3.710
57385W        W21593   2.810  37.386  11.075
57386W        W21594   2.356  23.666   2.364
57387W        W21595   3.924  11.165   4.323
57388W        W21596   2.274  14.619  13.887
57389W        W21597  39.901  23.601   0.965
57390W        W21598  32.585  29.639  13.477
57391W        W21599   8.697  40.325   3.801
57392W        W21600  41.481   0.887   4.347
57393W        W21601  42.856  22.153   2.785
57394W        W21602  30.947  25.027   4.598
57395W        W21603  42.906  17.204   2.205
57396W        W21604   9.835   6.418   0.470
57397W        W21605  39.809  35.409  14.889
57398W        W21606  37.884   2.462  14.788
57399W        W21607  32.463   6.816   4.827
57400W        W21608  27.984  23.620  13.323
57401W        W21609  32.544  25.011  13.311
57402W        W21610  40.889  28.031  11.013
57403W        W21611  20.535  15.632   1.229
57404W        W21612  40.893   8.203   4.798
57405W        W21613  35.890   1.977   0.895
57406W        W21614   5.219  31.533  11.480
57407W        W21615  44.808  11.808  14.490
57408W        W21616  19.078  26.153   0.388
57409W        W21617  30.491  38.329  13.399
57410W        W21618   7.670   4.852   1.694
57411W        W21619  21.085  33.383   4.795
57412W        W21620  11.868  23.679   3.653
57413W        W21621  40.331  19.547   5.293
57414W        W21622  26.126  41.383  14.975
57415W        W21623  20.764   8.716   3.190
57416W        W21624  23.721  35.106   1.914
57417W        W21625  43.840  11.217  10.526
57418W        W21626  40.921  16.311   2.303
57419W        W21627  31.503   3.358  13.814
57420W        W21628  22.736  19.539  12.915
57421W        W21629   6.253   6.334   0.737
57422W        W21630  20.621  39.452  14.476
57423W        W21631  22.570  15.709   3.200
57424W        W21632  28.935  30.964   1.875
57425W        W21633  43.486  23.512   3.742
57426W        W21634  10.223  25.985   1.829
57427W        W21635  11.717  25.557  12.371
57428W        W21636  19.634  21.145  12.992
57429W        W21637   7.858  32.912   3.256
57430W        W21638  35.098   9.878   4.245
57431W        W21639  41.480  39.479  13.001
57432W        W21640  25.523  40.987   3.634
57433W        W21641  28.142  26.135  12.973
57434W        W21642  40.036  24.661  11.899
57435W        W21643  16.225   4.721  12.522
57436W        W21644  24.135  44.355  14.991
57437W        W21645   7.827   4.893  10.003
57438W        W21646  44.801   8.318   3.821
57439W        W21647  40.910  30.006   1.796
57440W        W21648  22.038  16.596  12.510
57441W        W21649  32.086  44.940  10.406
57442W        W21650  28.561  33.099  11.961
57443W        W21651  25.696  22.604   2.882
57444W        W21652  42.455  13.130   1.792
57445W        W21653   3.931  13.335   3.352
57446W        W21654  38.954  18.746  11.935
57447W        W21655  30.913  41.512  11.029
57448W        W21656   9.666  17.164   3.322
57449W        W21657  13.206   3.435  11.076
57450W        W21658  10.319   9.826   4.155
57451W        W21659   8.321  29.540   3.696
57452W        W21660  43.856   6.907  14.287
57453W        W21661  29.964  44.881  13.992
57454W        W21662  33.458   7.851  14.367
57455W        W21663   2.777  40.908  11.027
57456W        W21664  26.503  10.220   5.185
57457W        W21665  12.765  37.016   4.656
57458W        W21666  34.928  29.163  13.063
57459W        W21667  15.237  31.600   2.197
57460W        W21668  28.585   9.784   3.818
57461W        W21669  12.839  32.083   0.873
57462W        W21670  25.215  19.639  11.124
57463W        W21671  41.451  36.991  13.921
57464W        W21672  41.524   8.885   1.409
57465W        W21673  38.340   7.391   0.264
57466W        W21674  13.148  16.669  13.528
57467W        W21675  27.645  37.086   0.424
57468W        W21676   5.200  14.248   1.773
57469W        W21677  26.524  11.216  11.593
57470W        W21678  18.748  43.313   0.924
57471W        W21679  15.586   1.965  13.403
57472W        W21680  37.448   7.852   4.716
57473W        W21681   4.922  29.468  14.453
57474W        W21682  21.201  19.214   4.700
57475W        W21683  36.383   0.897  10.983
57476W        W21684  40.484   9.319   2.789
57477W        W21685   8.841  43.318   4.624
57478W        W21686  19.741  10.382  14.761
57479W        W21687  16.315   6.740  14.848
57480W        W21688  14.606  29.022   1.331
57481W        W21689  11.812  43.489   2.869
57482W        W21690  36.529  19.572  12.450
57483W        W21691  37.957  36.932  10.960
57484W        W21692  11.231  11.152  11.026
57485W        W21693  39.445  43.496   1.789
57486W        W21694   6.682  43.343   3.652
57487W        W21695  38.520  28.677  12.045
57488W        W21696  30.124  39.928   0.766
57489W        W21697  23.686   9.155   3.798
57490W        W21698  44.924  21.160  12.407
57491W        W21699  21.731  29.431   4.131
57492W        W21700  31.507  20.071  13.811
57493W        W21701  10.334   8.203   1.732
57494W        W21702  38.987   1.748   5.319
57495W        W21703   9.836   2.799  14.915
57496W        W21704  13.148  18.068  14.474
57497W        W21705  18.264  31.473  12.044
57498W        W21706  26.494  43.367  11.042
57499W        W21707  23.622  19.243   2.800
57500W        W21708  25.138  38.352   2.855
57501W        W21709  15.193  34.871  10.637
57502W        W21710  31.985  28.656   3.385
57503W        W21711   1.438  22.227  14.840
57504W        W21712  42.899  35.963   4.321
57505W        W21713  42.868  20.741   0.737
57506W        W21714  33.965  16.113   9.525
57507W        W21715  19.725  31.462  11.443
57508W        W21716  18.291  30.588  13.949
57509W        W21717  12.680  25.129   5.140
57510W        W21718  10.275   2.435  13.498
57511W        W21719  29.069  24.048  13.340
57512W        W21720  24.137  25.966   2.415
57513W        W21721  44.303  13.130  10.930
57514W        W21722  11.161  27.168  12.980
57515W        W21723  35.434  34.867  12.909
57516W        W21724  13.622  16.167   1.331
57517W        W21725  29.476  34.476  12.996
57518W        W21726  38.961  21.546  14.886
57519W        W21727  25.122  41.376   4.249
57520W        W21728  20.576  20.630   2.373
57521W        W21729  20.710  12.170  12.407
57522W        W21730  13.645  15.228  13.341
57523W        W21731  28.004  31.983  13.866
57524W        W21732  29.522   1.289   3.735
57525W        W21733  34.034   5.831  14.965
57526W        W21734   2.249  33.464   2.883
57527W        W21735  38.439   1.304   4.247
57528W        W21736  38.441  18.062  13.463
57529W        W21737  37.066   9.305   2.697
57530W        W21738  15.788  44.285   0.764
57531W        W21739   2.317   6.828   1.910
57532W        W21740   3.813  21.631  12.398
57533W        W21741  34.496  14.762   2.383
57534W        W21742  25.172  23.689   1.326
57535W        W21743  23.103  15.152   1.925
57536W        W21744  41.042  26.975   4.666
57537W        W21745  24.009  11.740  14.886
57538W        W21746  29.028  30.048   4.164
57539W        W21747   5.391   3.744   0.843
57540W        W21748   7.800  11.823  11.480
57541W        W21749   7.802  15.251  12.506
57542W        W21750  35.591  37.999  11.509
57543W        W21751  19.090  13.255  10.942
57544W        W21752  26.957  19.705   0.304
57545W        W21753  15.145   1.960   4.747
57546W        W21754   7.330  38.348  11.858
57547W        W21755  11.638   4.286  14.468
57548W        W21756  20.212  39.422   3.273
57549W        W21757  40.360  23.533   1.798
57550W        W21758  29.106  13.343   3.319
57551W        W21759  30.467  18.176   0.451
57552W        W21760  30.125  36.569   2.321
57553W        W21761  18.090  35.446  10.048
57554W        W21762  32.040  42.936  12.909
57555W        W21763  24.526   9.881   3.811
57556W        W21764  33.926  40.945  14.028
57557W        W21765   4.834  26.690  10.103
57558W        W21766  32.946   6.746   1.264
57559W        W21767   8.330  35.448  10.459
57560W        W21768  28.577  19.606   4.718
57561W        W21769   5.377  18.185  14.916
57562W        W21770  34.953  16.170   2.862
57563W        W21771  15.813  26.651  14.364
57564W        W21772  37.837  20.712   1.440
57565W        W21773   1.960  34.917   2.857
57566W        W21774  23.181  38.845  14.471
57567W        W21775  27.942   0.345  13.061
57568W        W21776  39.988  30.440  11.376
57569W        W21777  16.807  14.193   1.869
57570W        W21778  38.521  13.639  13.381
57571W        W21779  28.576   9.749  14.770
57572W        W21780  36.350  44.275  14.772
57573W        W21781  25.646  17.257  13.893
57574W        W21782  39.975  25.653   3.209
57575W        W21783   6.310   9.319  11.076
57576W        W21784   8.331  31.908  13.501
57577W        W21785  17.072  20.157   4.134
57578W        W21786  37.463  39.530  12.830
57579W        W21787   2.415   5.339  11.385
57580W        W21788  11.212  18.750   0.756
57581W        W21789  32.936   6.394  11.438
57582W        W21790   2.786  24.675   4.216
57583W        W21791  23.103   2.909   4.674
57584W        W21792  10.380  39.431  10.006
57585W        W21793   2.359  37.541   0.901
57586W        W21794  22.025  11.799  11.963
57587W        W21795  36.522  11.136   1.320
57588W        W21796   6.304  44.939   4.707
57589W        W21797   8.850  28.567  11.122
57590W        W21798  32.141   0.766   4.166
57591W        W21799  25.062  14.276   4.615
57592W        W21800  37.442  30.584  13.919
57593W        W21801   3.952  25.643  14.491
57594W        W21802   1.895   3.911  14.921
57595W        W21803  34.012  33.113  14.897
57596W        W21804  17.150  17.582   4.734
57597W        W21805   6.829   6.691   2.213
57598W        W21806   6.747  23.241  11.017
57599W        W21807  33.981  31.632   4.325
57600W        W21808  40.372  34.613   3.772
57601W        W21809  19.604  12.153  10.489
57602W        W21810  38.928  16.802   4.672
57603W        W21811  11.627  37.847   0.816
57604W        W21812  20.247  39.972  14.468
57605W        W21813   1.336  28.012  13.486
57606W        W21814  29.128  24.973  14.480
57607W        W21815  24.168  11.832   0.784
57608W        W21816   4.892  16.575   3.333
57609W        W21817  17.691  22.243   4.128
57610W        W21818  22.669  39.922  13.472
57611W        W21819  32.032  38.935  12.574
57612W        W21820  26.589   8.371   0.460
57613W        W21821  33.560  38.984   2.730
57614W        W21822  41.302  42.941  13.852
57615W        W21823   6.388   8.869  13.058
57616W        W21824  21.129  14.639   3.809
57617W        W21825  19.550  11.310   4.266
57618W        W21826  42.821  39.387   4.739
57619W        W21827   1.787  22.596  10.974
57620W        W21828  17.066  43.983   3.163
57621W        W21829  40.852  23.079   3.826
57622W        W21830   7.903  28.065   0.739
57623W        W21831  34.447  23.094   2.707
57624W        W21832  12.771  18.700  13.392
57625W        W21833  23.995  42.370  12.365
57626W        W21834  32.139  11.314   3.208
57627W        W21835  40.990  43.766  14.482
57628W        W21836  29.012   0.832  11.089
57629W        W21837  19.632  18.722   2.667
57630W        W21838   2.314  30.920  10.572
57631W        W21839  30.017   2.902   1.421
57632W        W21840   7.263  42.410   1.856
57633W        W21841  37.855   3.763  10.584
57634W        W21842  20.649  14.696   4.281
57635W        W21843  21.723   5.356  13.430
57636W        W21844   6.426  42.342   4.255
57637W        W21845  41.507  43.928   2.702
57638W        W21846   7.717   6.814  12.023
57639W        W21847  33.420  27.535   1.932
57640W        W21848  33.958  18.569   4.314
57641W        W21849  27.542  41.830  14.283
57642W        W21850   5.800  26.493  10.558
57643W        W21851  28.070  30.428   2.689
57644W        W21852   3.769  31.996   0.763
57645W        W21853  39.521  13.179   3.785
57646W        W21854  35.990  26.077  14.319
57647W        W21855  10.292  44.996  14.348
57648W        W21856  20.206  25.575  11.017
57649W        W21857  30.000  38.563  11.607
57650W        W21858  42.877   0.879   1.420
57651W        W21859  44.896  23.152   2.773
57652W        W21860  20.676  24.069   0.804
57653W        W21861  22.532   0.424   2.324
57654W        W21862   0.914  44.983  14.466
57655W        W21863  15.164   8.232   4.729
57656W        W21864  38.537   5.360   3.171
57657W        W21865   5.281  26.131  10.404
57658W        W21866  22.680  19.193   4.647
57659W        W21867  33.078  29.480   3.284
57660W        W21868  20.544   0.902  13.944
57661W        W21869  41.952   0.926  11.414
57662W        W21870  10.282   9.263   2.730
57663W        W21871  37.052  21.118  13.539
57664W        W21872   9.880  11.765   4.323
57665W        W21873  10.858  21.036  12.910
57666W        W21874  10.268   1.880  13.405
57667W        W21875  39.519  16.097  12.460
57668W        W21876   8.725   6.689  13.026
57669W        W21877  42.002  16.780  11.542
57670W        W21878  31.969   2.810   4.807
57671W        W21879   2.811  26.564   0.293
57672W        W21880  24.701   8.206   0.878
57673W        W21881  23.183  27.154  13.416
57674W        W21882  14.783  35.038   4.739
57675W        W21883  37.448   9.250   3.256
57676W        W21884  34.089  15.635   5.245
57677W        W21885   3.727  42.496   2.268
57678W        W21886  34.891  41.479  13.508
57679W        W21887  25.155  30.033  13.316
57680W        W21888  38.919  38.444  11.973
57681W        W21889  28.008   2.417   3.801
57682W        W21890  16.293  10.157  14.898
57683W        W21891  14.700   9.679  14.379
57684W        W21892   6.388  29.964   1.389
57685W        W21893  11.768  44.959  13.380
57686W        W21894  20.756  24.633   3.319
57687W        W21895  32.897  40.430   3.163
57688W        W21896  31.006  42.798   3.645
57689W        W21897   4.770  21.705  11.586
57690W        W21898  16.278   7.410   0.302
57691W        W21899  44.293  44.395  11.012
57692W        W21900  18.188  40.389  13.458
57693W        W21901  18.549   1.467   4.131
57694W        W21902   2.786   4.840   3.740
57695W        W21903   5.384  10.863  10.540
57696W        W21904  36.027  23.134   3.779
57697W        W21905  40.051   5.760   2.353
57698W        W21906  20.108  42.886   4.661
57699W        W21907   4.818   4.428   1.310
57700W        W21908  19.103  36.373   1.289
57701W        W21909   1.455  14.686   0.946
57702W        W21910  21.134  34.891   1.261
57703W        W21911  24.126  32.547   3.686
57704W        W21912  39.932  38.382  13.825
57705W        W21913  10.231  28.645   2.822
57706W        W21914  40.317  34.555  12.949
57707W        W21915  36.084  20.194  11.892
57708W        W21916  33.508  28.174   4.617
57709W        W21917   0.266  22.253  12.066
57710W        W21918  40.852   2.421   0.752
57711W        W21919  16.731   3.743   1.850
57712W        W21920  11.205   3.902  12.901
57713W        W21921   3.740  14.238   0.310
57714W        W21922  29.963   4.785   0.951
57715W        W21923  31.147  38.875   3.194
57716W        W21924   7.261  13.669  10.498
57717W        W21925  22.125  20.240   3.676
57718W        W21926  35.105  18.098  10.064
57719W        W21927   8.344  42.441   0.416
57720W        W21928   4.428  30.484   0.390
57721W        W21929  23.560  39.388  12.081
57722W        W21930   7.759  17.757  10.920
57723W        W21931  17.224  13.258  13.021
57724W        W21932   5.839  10.214   5.247
57725W        W21933  13.805  38.892  14.769
57726W        W21934   2.934   4.227   0.396
57727W        W21935  44.952  43.858  14.403
57728W        W21936   9.818  33.557  10.898
57729W        W21937  43.441  43.866  10.955
57730W        W21938  29.048  25.577  12.965
57731W        W21939  23.050  43.282  14.901
57732W        W21940   8.768   8.739   0.814
57733W        W21941  39.370  31.544   4.251
57734W        W21942   6.842   1.332   3.629
57735W        W21943  12.357  26.489   0.874
57736W        W21944   4.891  14.216   1.275
57737W        W21945  33.054  22.215   0.407
57738W        W21946  19.558  28.486  10.437
57739W        W21947  22.249  21.620   0.466
57740W        W21948   2.428   0.938   5.124
57741W        W21949   8.198   7.305  14.991
57742W        W21950   2.931  31.075  13.855
57743W        W21951  33.932  20.762   0.743
57744W        W21952  44.456  18.291   0.768
57745W        W21953   7.870   6.294  14.378
57746W        W21954  31.543   9.197  10.528
57747W        W21955   7.197  16.318   4.221
57748W        W21956   9.671   0.907   0.814
57749W        W21957  17.182  29.929  14.478
57750W        W21958  12.637   6.745  10.992
57751W        W21959  16.780  18.074   3.284
57752W        W21960  13.296  11.648   1.915
57753W        W21961  39.032  10.860  10.497
57754W        W21962  35.365  13.728  11.951
57755W        W21963  35.532  11.844   0.744
57756W        W21964  13.109  21.167  13.431
57757W        W21965  15.655   8.848   4.617
57758W        W21966   8.341  30.571   0.414
57759W        W21967  19.727  21.065   0.889
57760W        W21968  15.608  23.542  11.111
57761W        W21969  40.366  18.106  13.534
57762W        W21970  30.950   4.399   4.645
57763W        W21971  41.445  38.955  11.462
57764W        W21972  35.038  29.640   4.258
57765W        W21973  18.594   7.711   3.198
57766W        W21974  24.219  17.740   2.749
57767W        W21975   2.241  36.384  11.438
57768W        W21976   9.253   5.688   4.167
57769W        W21977  32.565  24.581  13.406
57770W        W21978  29.558   7.278  12.966
57771W        W21979  40.002  30.623   2.325
57772W        W21980   0.792   8.751  12.551
57773W        W21981  43.880  11.854  11.612
57774W        W21982  20.250  20.140   1.216
57775W        W21983   2.298  42.956   2.717
57776W        W21984  18.619   8.886   2.211
57777W        W21985  24.649  23.062   2.899
57778W        W21986  38.526  35.384  13.993
57779W        W21987  40.924  33.912   4.691
57780W        W21988  12.722   1.290   2.815
57781W        W21989   4.845  12.212  14.420
57782W        W21990  12.337  36.375  12.508
57783W        W21991   8.314  17.582  12.506
57784W        W21992   3.323  35.018  12.546
57785W        W21993  23.626  36.934   0.295
57786W        W21994  33.889  41.801  11.057
57787W        W21995   5.869   7.838   0.460
57788W        W21996  40.308  42.326   4.680
57789W        W21997  21.238   7.184  13.940
57790W        W21998  44.786  24.041   0.471
57791W        W21999  30.928  15.311   2.394
57792W        W22000   8.689  29.118   2.825
57793W        W22001   9.191  33.562  13.411
57794W        W22002  23.160  37.083  10.422
57795W        W22003   8.702  21.233  14.311
57796W        W22004  28.475  23.694  13.530
57797W        W22005  21.612  37.947   4.244
57798W        W22006  19.170  16.658   1.868
57799W        W22007  24.062  40.806  11.499
57800W        W22008  18.149   9.236  14.832
57801W        W22009   0.491  33.538   2.315
57802W        W22010  32.077  19.068  11.075
57803W        W22011  29.077  23.220  11.965
57804W        W22012  32.441  26.697  11.545
57805W        W22013  44.309   2.447  14.352
57806W        W22014   5.214  32.094   1.912
57807W        W22015  42.973   1.472  13.925
57808W        W22016  34.448  31.572   4.810
57809W        W22017   5.419   5.300   3.365
57810W        W22018  21.084  42.901   3.825
57811W        W22019  36.366   2.345  11.609
57812W        W22020  35.090   9.852   1.702
57813W        W22021  26.128  26.999   3.217
57814W        W22022  41.375  21.200  13.994
57815W        W22023   1.414  28.986   4.718
57816W        W22024  42.470   7.825   2.834
57817W        W22025   9.828   0.863  11.992
57818W        W22026   4.338  32.623   4.782
57819W        W22027   7.876   8.271  11.452
57820W        W22028  38.394  43.943   1.261
57821W        W22029  10.338  12.775   0.866
57822W        W22030   5.250  29.136   0.357
57823W        W22031  32.620  41.416  12.449
57824W        W22032  18.172  18.171   0.391
57825W        W22033  11.729   3.455   0.310
57826W        W22034  19.750  33.116   2.741
57827W        W22035   6.373  29.155  14.997
57828W        W22036   8.843  29.023   3.373
57829W        W22037  17.676   7.687  11.952
57830W        W22038  39.914   0.258   0.382
57831W        W22039  26.624  20.117   0.435
57832W        W22040  34.463  17.612  12.484
57833W        W22041  39.426  13.832  13.852
57834W        W22042   9.228  27.999   0.749
57835W        W22043   9.369  32.982  11.440
57836W        W22044  33.419  19.574   3.170
57837W        W22045  42.997  22.688   1.740
57838W        W22046   8.394  19.614   2.366
57839W        W22047  23.128  17.656  12.986
57840W        W22048  16.113  12.191  10.496
57841W        W22049  42.292  28.615   4.185
57842W        W22050  40.424  34.495   2.329
57843W        W22051  26.542  17.259   2.309
57844W        W22052  24.075  36.476   0.242
57845W        W22053   1.781  31.414   4.755
57846W        W22054  37.370  23.991  10.612
57847W        W22055  31.983  37.501  14.377
57848W        W22056  37.034  29.508   3.203
57849W        W22057  23.568  30.625  13.806
57850W        W22058   5.808  44.941  13.527
57851W        W22059  34.389   1.736  11.884
57852W        W22060  14.718  44.411  11.053
57853W        W22061   8.763   6.275   3.754
57854W        W22062  20.185  20.108   1.863
57855W        W22063   6.417  40.893  12.554
57856W        W22064  13.269  24.701  11.932
57857W        W22065   0.824  15.754   3.289
57858W        W22066   4.278  32.460   2.896
57859W        W22067  24.044  44.478  10.036
57860W        W22068  10.256  23.515   1.800
57861W        W22069  10.664  10.683  12.007
57862W        W22070  32.515  16.306  14.341
57863W        W22071   0.885  24.035  10.907
57864W        W22072  27.450  29.565   1.407
57865W        W22073  30.576   7.877  10.566
57866W        W22074   0.345  24.047  11.069
57867W        W22075   2.843  43.017   1.394
57868W        W22076   7.686  18.700  11.866
57869W        W22077  21.055  27.544   5.094
57870W        W22078  29.622  29.174  10.135
57871W        W22079  31.962   9.340  14.327
57872W        W22080  17.138  31.410   3.237
57873W        W22081   1.918  34.086  12.407
57874W        W22082  23.513   4.809  14.901
57875W        W22083   7.394  24.076  14.328
57876W        W22084   3.372   3.347  14.911
57877W        W22085  27.092  38.421   0.769
57878W        W22086  18.249  22.742   2.382
57879W        W22087  17.229  44.322  13.405
57880W        W22088  44.961   4.855   1.290
57881W        W22089  35.897   2.747   0.252
57882W        W22090   9.362   1.387  11.956
57883W        W22091  29.940  39.957  14.881
57884W        W22092  17.591   3.298  12.004
57885W        W22093  24.041   9.781  11.431
57886W        W22094  23.734   1.920  13.965
57887W        W22095  35.030  11.750  13.376
57888W        W22096  40.445   4.319   1.852
57889W        W22097   2.387  21.557  11.541
57890W        W22098  38.994   5.827   3.227
57891W        W22099   0.800  12.777  14.928
57892W        W22100  30.023  11.198  11.903
57893W        W22101  38.999  17.778   0.429
57894W        W22102   6.752  39.525   2.869
57895W        W22103  13.606   8.270   4.203
57896W        W22104  39.993  33.554  13.953
57897W        W22105  21.589   6.735   2.739
57898W        W22106  31.463  35.463   2.752
57899W        W22107  29.032   1.440   1.277
57900W        W22108  21.547   9.223   0.348
57901W        W22109  14.664  12.257   2.385
57902W        W22110  29.650  24.544   2.307
57903W        W22111  20.533  17.263   3.809
57904W        W22112  23.028  29.074  14.779
57905W        W22113  37.025  33.980  12.562
57906W        W22114   7.810  18.070   4.674
57907W        W22115  15.112   8.400  11.900
57908W        W22116  13.119  34.026   1.352
57909W        W22117  19.542  18.697  14.863
57910W        W22118  17.612  10.139   2.676
57911W        W22119  33.013   1.786   0.817
57912W        W22120  13.338  31.628  10.989
57913W        W22121  42.015   4.235   0.739
57914W        W22122   9.394  22.220   4.684
57915W        W22123  25.706  36.593  12.554
57916W        W22124  38.370  31.413  11.106
57917W        W22125  26.457  23.593  14.986
57918W        W22126  14.302  30.624   3.307
57919W        W22127  33.488  25.518  10.470
57920W        W22128   0.362  37.467   1.359
57921W        W22129   5.255  20.745  14.365
57922W        W22130  14.181  29.493  10.474
57923W        W22131  40.482  17.216   1.446
57924W        W22132  33.440  16.611  10.980
57925W        W22133  40.547  11.232   0.924
57926W        W22134  22.655  16.096   2.755
57927W        W22135  27.486  17.564  12.353
57928W        W22136  16.729  37.837   3.376
57929W        W22137  16.784   7.194  14.936
57930W        W22138  28.015  24.667  11.956
57931W        W22139   6.796  31.470  14.347
57932W        W22140  19.611  29.981   4.355
57933W        W22141  19.240  16.790  11.588
57934W        W22142  34.114  24.064   0.469
57935W        W22143  30.431  33.968   3.833
57936W        W22144  14.269  32.017  13.433
57937W        W22145  25.618   6.378  14.454
57938W        W22146   7.753   2.347  14.865
57939W        W22147   0.321   0.280  10.135
57940W        W22148  35.860   7.696   2.902
57941W        W22149   7.729  29.536  12.046
57942W        W22150   3.911  37.535  14.845
57943W        W22151  39.916  33.572  11.107
57944W        W22152  30.072  31.628   3.804
57945W        W22153  41.412   1.918   5.181
57946W        W22154  25.133  18.085   2.800
57947W        W22155  41.423  27.599  11.875
57948W        W22156  21.147  41.326   1.276
57949W        W22157  31.614  23.998   0.336
57950W        W22158  31.901  11.301   1.897
57951W        W22159  36.900  43.962   0.339
57952W        W22160   8.759   3.328   3.782
57953W        W22161  12.243  44.880  10.405
57954W        W22162  23.212   4.760   4.685
57955W        W22163   5.740  41.021   0.398
57956W        W22164   9.221  20.197   2.817
57957W        W22165  23.154  32.971  14.335
57958W        W22166   2.873  11.687   4.286
57959W        W22167  21.729  14.822   1.885
57960W        W22168  14.625   3.924  14.339
57961W        W22169  22.571  13.805   1.219
57962W        W22170   1.442  30.630  12.861
57963W        W22171  35.071  20.164  12.843
57964W        W22172  33.078  24.223  12.885
57965W        W22173  12.333  39.046  14.446
57966W        W22174   6.745   9.674   0.263
57967W        W22175  32.526  34.113   1.216
57968W        W22176  11.292  42.340   4.661
57969W        W22177   7.891   4.716  12.353
57970W        W22178   7.194  22.668   2.702
57971W        W22179  14.104  44.992  12.973
57972W        W22180  33.076  25.492   4.687
57973W        W22181  32.990  13.329   2.355
57974W        W22182  33.063  22.516  14.982
57975W        W22183  32.584  14.720   0.804
57976W        W22184  22.573  33.521   4.646
57977W        W22185  16.791  13.802  11.583
57978W        W22186  32.579  20.686  14.394
57979W        W22187  12.669  34.930  12.528
57980W        W22188  37.002  26.620   1.305
57981W        W22189  38.326  28.962  14.447
57982W        W22190  20.604   3.844   1.301
57983W        W22191  21.716  25.113   2.286
57984W        W22192  32.624  34.404   1.885
57985W        W22193  41.044  44.828  13.842
57986W        W22194   3.898  12.745  14.010
57987W        W22195   1.840  30.028   1.276
57988W        W22196  19.750  34.921  11.927
57989W        W22197  44.848  35.391  11.920
57990W        W22198  39.512   9.824   4.755
57991W        W22199  43.941  30.430  14.347
57992W        W22200  23.637  37.877   3.385
57993W        W22201   4.901  10.687   4.642
57994W        W22202  10.856  26.608  13.355
57995W        W22203  16.167  25.188  14.980
57996W        W22204  26.563  40.980  11.883
57997W        W22205   1.915  42.382   2.742
57998W        W22206  11.192  16.082  12.937
57999W        W22207  24.150   1.429   0.914
58000W        W22208  10.709  32.555  14.867
58001W        W22209  10.714  33.090  12.037
58002W        W22210  21.026  40.866   2.663
58003W        W22211  25.505  22.108  12.032
58004W        W22212  32.937  17.259  12.434
58005W        W22213  39.518  31.462   2.178
58006W        W22214  37.349  30.635   4.114
58007W        W22215   2.341   8.736  11.042
58008W        W22216   4.300  38.075  10.974
58009W        W22217  37.876   9.754  11.424
58010W        W22218   9.729  31.052   4.647
58011W        W22219  23.191  18.766   0.269
58012W        W22220   4.903  42.898  10.895
58013W        W22221  28.057  21.732   4.297
58014W        W22222  21.073  26.176   4.838
58015W        W22223   8.808  40.400  12.968
58016W        W22224  34.549  33.116  11.394
58017W        W22225  38.396  27.634   1.216
58018W        W22226  37.360  41.010  14.760
58019W        W22227  14.726   9.208   3.826
58020W        W22228  44.413  40.345  13.975
58021W        W22229   6.683  34.888  12.387
58022W        W22230  28.058   1.253   1.415
58023W        W22231   5.805   8.397   4.808
58024W        W22232  42.827  40.304  14.286
58025W        W22233  44.934  34.897  13.823
58026W        W22234  15.819  10.675  14.430
58027W        W22235   2.926  11.803  12.859
58028W        W22236  33.959   6.256   2.707
58029W        W22237   0.455  27.092   0.831
58030W        W22238  27.575  32.536  13.392
58031W        W22239   2.409   9.241   2.791
58032W        W22240  30.463  35.093  14.919
58033W        W22241  13.812  18.692  13.053
58034W        W22242   2.883  23.723   1.896
58035W        W22243  34.001   2.855   4.804
58036W        W22244  22.531  30.606  13.791
58037W        W22245  35.866   7.840   4.721
58038W        W22246  37.981  33.412  13.980
58039W        W22247   6.213  21.179   4.113
58040W        W22248  44.347  25.693   0.307
58041W        W22249  12.296  42.999  11.059
58042W        W22250  13.689  33.954   4.715
58043W        W22251  40.998  40.368   1.409
58044W        W22252  30.487  33.885   2.320
58045W        W22253  26.010  21.079   1.276
58046W        W22254  10.797  28.950  11.409
58047W        W22255  24.637   2.433  12.034
58048W        W22256  43.507  36.495  11.863
58049W        W22257  21.677   8.189  13.852
58050W        W22258  10.650  19.682   5.257
58051W        W22259  21.636   2.807  13.472
58052W        W22260  30.483  39.021  12.846
58053W        W22261  39.512   4.245  10.050
58054W        W22262  34.034  29.016  11.466
58055W        W22263   1.406  21.039  13.035
58056W        W22264  19.625  25.600   2.846
58057W        W22265  39.058  22.236  13.949
58058W        W22266  31.899  42.461  11.566
58059W        W22267  23.613  43.015   4.741
58060W        W22268  36.980   3.938   1.705
58061W        W22269  44.834  38.835  12.017
58062W        W22270  22.541   7.190  11.035
58063W        W22271  23.040  14.186  14.963
58064W        W22272  34.444  37.974  12.477
58065W        W22273   2.431  21.689  11.000
58066W        W22274  44.775  41.473   4.215
58067W        W22275  15.772   8.657   2.401
58068W        W22276  33.888  11.774  13.017
58069W        W22277  10.199  11.223  13.309
58070W        W22278   7.751   7.239   1.274
58071W        W22279  18.584  42.840  11.030
58072W        W22280  20.757  38.547   4.763
58073W        W22281  11.163   0.923  13.436
58074W        W22282  41.502  30.130  12.000
58075W        W22283  44.782  11.261   1.419
58076W        W22284   2.737  10.667  11.869
58077W        W22285  16.280   3.788  12.967
58078W        W22286  32.448  39.315   2.668
58079W        W22287   0.963  20.750  13.863
58080W        W22288   5.265  44.310  11.096
58081W        W22289  10.850   3.731   3.715
58082W        W22290  38.446  31.630   0.759
58083W        W22291  18.618   3.895   3.816
58084W        W22292  23.635  31.949   2.711
58085W        W22293  13.835  33.089  13.808
58086W        W22294  26.529  31.601   2.377
58087W        W22295   0.439  19.614  12.438
58088W        W22296  35.951   2.381   4.204
58089W        W22297   5.432   1.895  13.926
58090W        W22298  44.830  40.461   0.954
58091W        W22299  26.587  23.613  12.348
58092W        W22300  15.751  39.893   4.710
58093W        W22301  18.233  39.382   0.254
58094W        W22302  39.825  27.978  11.559
58095W        W22303  35.888   2.382   5.270
58096W        W22304  16.093  12.305  13.054
58097W        W22305  20.656  42.006  10.557
58098W        W22306  20.644  38.035   4.743
58099W        W22307  14.327  17.795  10.584
58100W        W22308  20.232   9.170   3.837
58101W        W22309   1.335   1.314  14.880
58102W        W22310  23.005  25.534   0.348
58103W        W22311  29.553  17.267   1.864
58104W        W22312  37.459  33.526  12.548
58105W        W22313  18.295  25.161  13.307
58106W        W22314   8.355  39.916   2.283
58107W        W22315  33.458  14.303   2.903
58108W        W22316   7.348  18.710   0.740
58109W        W22317  25.505  25.054   9.975
58110W        W22318   5.392   3.366   0.789
58111W        W22319   2.259   9.806  14.950
58112W        W22320   6.815   5.734  14.918
58113W        W22321  40.318   7.851  13.932
58114W        W22322   9.260  21.126   2.663
58115W        W22323  32.033  25.105   4.685
58116W        W22324  42.886  16.244   0.894
58117W        W22325  35.597  24.002   2.339
58118W        W22326  43.809   6.341   3.678
58119W        W22327  33.460  29.095  12.442
58120W        W22328   1.976   5.390  14.799
58121W        W22329  42.437   6.326  12.558
58122W        W22330   8.317   2.272   1.373
58123W        W22331  43.283  39.826   3.720
58124W        W22332   5.791  20.249   4.173
58125W        W22333   8.796  39.809   4.284
58126W        W22334  40.950  12.841   4.620
58127W        W22335  30.430   5.239   0.859
58128W        W22336  12.686  21.217   3.663
58129W        W22337  29.004  28.103   4.674
58130W        W22338  12.223   8.830   3.296
58131W        W22339   9.234   8.220  13.888
58132W        W22340   0.361  34.604  14.922
58133W        W22341  10.786  40.529  12.554
58134W        W22342   9.804   9.328   0.837
58135W        W22343  31.081  35.896   2.267
58136W        W22344  29.490  24.480  13.010
58137W        W22345  31.567  15.309  13.365
58138W        W22346  25.213  25.687  10.418
58139W        W22347   2.351  42.527  13.490
58140W        W22348  41.019  22.598  10.440
58141W        W22349  10.363   4.934   0.866
58142W        W22350  11.786  19.234   0.447
58143W        W22351  29.507  39.042   3.257
58144W        W22352   9.789  23.656  10.408
58145W        W22353   4.934   1.806   1.694
58146W        W22354  24.611   8.697  12.832
58147W        W22355   2.957   1.481   1.323
58148W        W22356  32.923  41.858   3.362
58149W        W22357  28.131  17.587   0.950
58150W        W22358  13.234  25.009  14.410
58151W        W22359  41.815  29.943  13.399
58152W        W22360   9.788  27.526  12.837
58153W        W22361  39.342  33.988   0.376
58154W        W22362  31.094  14.245   5.606
58155W        W22363  30.639   5.416   3.864
58156W        W22364   0.420  14.165  12.857
58157W        W22365  14.114  10.323   5.299
58158W        W22366  17.674  44.909   4.342
58159W        W22367  40.989  33.558  12.989
58160W        W22368   8.700  41.789   4.694
58161W        W22369  38.920  38.892   5.274
58162W        W22370  16.630   3.785   1.406
58163W        W22371  31.454  40.548  11.074
58164W        W22372  18.081  36.024   4.655
58165W        W22373  17.183  30.062   3.777
58166W        W22374  38.520  19.724  10.900
58167W        W22375   8.817  22.512  12.428
58168W        W22376   5.721   4.213  13.972
58169W        W22377  28.164  14.264   5.294
58170W        W22378   8.786   2.760  12.920
58171W        W22379  44.765   0.879   4.708
58172W        W22380  11.633  18.762   5.178
58173W        W22381  29.176  22.550   4.707
58174W        W22382  21.631  14.252   3.713
58175W        W22383  43.334   6.217   4.312
58176W        W22384  27.982   5.907  14.791
58177W        W22385   8.199  35.532   1.810
58178W        W22386  20.705  20.695   4.210
58179W        W22387   2.305  22.735   0.381
58180W        W22388  23.168  15.721  11.921
58181W        W22389  29.466   2.310  11.537
58182W        W22390  42.429  43.847   1.225
58183W        W22391  37.539   9.872  12.021
58184W        W22392  39.033   7.725  13.044
58185W        W22393  36.490  27.571  14.504
58186W        W22394  13.731  31.499  11.049
58187W        W22395  12.643   9.192   1.339
58188W        W22396  41.960  38.380   2.722
58189W        W22397  39.369  44.866  12.370
58190W        W22398  19.104  26.641  13.448
58191W        W22399   6.751  26.462   4.610
58192W        W22400  28.671  19.600  14.014
58193W        W22401  38.489  17.079  12.028
58194W        W22402  15.701   4.772  14.355
58195W        W22403  31.143  39.339  14.964
58196W        W22404  30.420  27.653   4.776
58197W        W22405  40.052   3.784   5.610
58198W        W22406   6.795  35.427  11.431
58199W        W22407  25.640  16.796   0.270
58200W        W22408   3.310  25.193   3.718
58201W        W22409  41.898  15.730  12.080
58202W        W22410   4.276  24.211  11.582
58203W        W22411   2.279  37.378  11.992
58204W        W22412  43.413   8.773  10.099
58205W        W22413   5.825  24.131  11.423
58206W        W22414   4.819   5.199  10.090
58207W        W22415  24.539  14.126  14.014
58208W        W22416  21.113  40.799   4.691
58209W        W22417   8.303  36.547   4.290
58210W        W22418  21.074  26.518   1.896
58211W        W22419  25.567   0.902  13.401
58212W        W22420  21.160   7.216  13.396
58213W        W22421  37.557  43.811   4.693
58214W        W22422  34.119  40.358  13.061
58215W        W22423  37.840  27.624   4.623
58216W        W22424   5.922  19.549  11.029
58217W        W22425   7.850  27.529   1.828
58218W        W22426  44.939  31.079  14.825
58219W        W22427  27.689  34.605   3.231
58220W        W22428  25.152  42.834   4.665
58221W        W22429  13.679   9.376  11.442
58222W        W22430  34.476  29.596  12.499
58223W        W22431  33.000  43.907  10.580
58224W        W22432  34.537  32.039   0.850
58225W        W22433  31.076   0.290   2.326
58226W        W22434  27.692  21.605  13.359
58227W        W22435  24.535  44.908   0.338
58228W        W22436  30.033  12.198   1.320
58229W        W22437  17.121  17.282   2.867
58230W        W22438  43.493  28.030   9.929
58231W        W22439  35.981   5.838   2.680
58232W        W22440  10.289  11.303   5.181
58233W        W22441  18.701   6.409   3.266
58234W        W22442   4.921   5.885  12.022
58235W        W22443  41.509  35.467  12.065
58236W        W22444   8.373  38.418   1.890
58237W        W22445   8.665  42.408   2.215
58238W        W22446  42.825  38.441   4.238
58239W        W22447  19.276  42.906  13.392
58240W        W22448  11.191   9.882  11.861
58241W        W22449   4.227  34.385   0.739
58242W        W22450  29.921  16.806   0.814
58243W        W22451   1.463   7.686   1.392
58244W        W22452   7.394  27.184  14.815
58245W        W22453  39.906  11.226  10.405
58246W        W22454  14.224   7.346   1.437
58247W        W22455  39.992   9.680  13.422
58248W        W22456   0.298  34.482  13.384
58249W        W22457  36.387  15.787   5.298
58250W        W22458  39.529  32.107  14.958
58251W        W22459  17.298  41.516  14.435
58252W        W22460  24.006  29.659   3.332
58253W        W22461   1.386   9.751  10.535
58254W        W22462  14.738   8.774   2.868
58255W        W22463  13.794  28.019   0.465
58256W        W22464  27.147  24.685   2.784
58257W        W22465   6.281  27.147   1.840
58258W        W22466  13.809  39.479  14.433
58259W        W22467  38.383   4.446   2.785
58260W        W22468  25.049   4.940  12.903
58261W        W22469  21.614  14.135   1.330
58262W        W22470  31.122  33.879   0.944
58263W        W22471  19.593  18.618   4.616
58264W        W22472  19.658  34.376   2.841
58265W        W22473  44.010  28.563  10.919
58266W        W22474  10.714   6.354  14.862
58267W        W22475   4.761  35.554  12.902
58268W        W22476  25.619  22.709  12.871
58269W        W22477  34.009  10.703   2.893
58270W        W22478  35.386  41.939   2.719
58271W        W22479  20.177  22.659   5.170
58272W        W22480  41.942  30.063   2.735
58273W        W22481  11.169  43.299   3.671
58274W        W22482  16.309  38.528   4.292
58275W        W22483  17.173  23.203   1.226
58276W        W22484  11.184  42.834   4.128
58277W        W22485  16.601   0.422   3.296
58278W        W22486  15.306  28.016  14.894
58279W        W22487  36.567  38.358   1.793
58280W        W22488  17.186  19.773  14.365
58281W        W22489  28.118   3.935  12.579
58282W        W22490  18.122   2.337  13.019
58283W        W22491  19.723  22.739   2.724
58284W        W22492   2.350  35.054  11.591
58285W        W22493  14.226  37.404  13.853
58286W        W22494  35.517  15.653  11.045
58287W        W22495  16.280  28.004   3.701
58288W        W22496  32.517  33.592   0.785
58289W        W22497   1.330  21.178   4.645
58290W        W22498  26.634  15.282  13.436
58291W        W22499  10.706   3.860   0.834
58292W        W22500   3.763   3.847  14.321
58293W        W22501   1.465  29.587   3.292
58294W        W22502  31.982  13.256   1.904
58295W        W22503   1.238   9.159   1.749
58296W        W22504   4.230  42.822   1.880
58297W        W22505  10.366  44.264  12.340
58298W        W22506  15.807  36.996   4.258
58299W        W22507   6.314  38.382  13.514
58300W        W22508  34.111  27.547  10.621
58301W        W22509  22.098  15.115  11.102
58302W        W22510  21.065  34.977  14.878
58303W        W22511  23.123  32.391   1.743
58304W        W22512  39.349  10.379   1.818
58305W        W22513   9.169  24.118   2.371
58306W        W22514  29.053  41.015   3.244
58307W        W22515   0.746   0.988   1.840
58308W        W22516  20.534   1.783   2.838
58309W        W22517   1.433   7.305  14.841
58310W        W22518  43.399  22.220  13.862
58311W        W22519  36.019  42.341  13.467
58312W        W22520  17.218  44.277  13.819
58313W        W22521  35.507   4.291   4.597
58314W        W22522   1.399   8.251   3.182
58315W        W22523  16.173   2.465   0.913
58316W        W22524  14.201   4.207  12.831
58317W        W22525  43.473  35.067   3.791
58318W        W22526  17.242  27.577  12.440
58319W        W22527  23.046  27.989   3.799
58320W        W22528  33.965   5.436   4.635
58321W        W22529  32.421  11.359   3.691
58322W        W22530   1.733  13.830  14.767
58323W        W22531  25.103  31.494   3.852
58324W        W22532  37.538  22.078  10.061
58325W        W22533  30.549  37.572  11.878
58326W        W22534  39.849  32.998  11.922
58327W        W22535  44.469   6.697  14.502
58328W        W22536  20.668  42.811  12.012
58329W        W22537  10.199  37.486   4.644
58330W        W22538  11.708   7.376  12.368
58331W        W22539  27.991  11.788   1.341
58332W        W22540  17.181  15.615  10.412
58333W        W22541  44.327   3.927  13.937
58334W        W22542  15.239  41.872   4.670
58335W        W22543  27.949  40.920   2.768
58336W        W22544  12.319   8.279  14.484
58337W        W22545  35.088   7.303  12.487
58338W        W22546  14.830   3.743   2.898
58339W        W22547   3.855  15.648   2.253
58340W        W22548  27.513   1.282  11.863
58341W        W22549  36.579  23.728   3.179
58342W        W22550  21.239  13.349  10.527
58343W        W22551  31.423  42.844  10.949
58344W        W22552  13.742  11.743   4.260
58345W        W22553  20.665   0.876  12.843
58346W        W22554  40.397  30.582   2.377
58347W        W22555  19.199  11.141   0.834
58348W        W22556  41.445  44.378   0.852
58349W        W22557  10.289  29.654   3.740
58350W        W22558  42.974   1.897   3.700
58351W        W22559  26.033  31.523   4.721
58352W        W22560  37.027  19.631  14.335
58353W        W22561  36.057  33.124  13.003
58354W        W22562   3.451  12.699   0.800
58355W        W22563   0.888  29.501  10.928
58356W        W22564   2.243  23.108  13.971
58357W        W22565  10.378  15.282  10.049
58358W        W22566  15.117  32.109  14.321
58359W        W22567  33.938   5.236   3.791
58360W        W22568   6.777  34.905  11.519
58361W        W22569   4.418  35.576   1.346
58362W        W22570  44.274  30.033   4.733
58363W        W22571  34.887  17.193   4.662
58364W        W22572   1.896  23.065  14.838
58365W        W22573  25.584   3.387   1.268
58366W        W22574  35.576  24.558  12.568
58367W        W22575  44.374  22.683   5.176
58368W        W22576  37.026  36.857   2.383
58369W        W22577  39.021  42.367   4.759
58370W        W22578  28.435  24.987  13.013
58371W        W22579  23.115   1.244   2.866
58372W        W22580  13.325  44.432   1.220
58373W        W22581  34.938  16.626  10.927
58374W        W22582  41.830  17.789  13.488
58375W        W22583  40.423  39.872   4.142
58376W        W22584  14.172  12.206   2.679
58377W        W22585  27.951  17.576  11.521
58378W        W22586  27.121  29.639   1.847
58379W        W22587  30.129  31.117  11.867
58380W        W22588   8.214   0.409   0.935
58381W        W22589   1.939  10.306  13.386
58382W        W22590  14.265   7.884   2.869
58383W        W22591  39.904   6.899   3.703
58384W        W22592  24.135  29.426   4.780
58385W        W22593  24.107  28.511   0.926
58386W        W22594  10.338  34.394   4.307
58387W        W22595  40.019   9.830   2.379
58388W        W22596  23.604  19.188  14.807
58389W        W22597  34.478  37.477   2.195
58390W        W22598  39.384  11.738   3.827
58391W        W22599  26.188   1.277   2.826
58392W        W22600  27.592  35.863  10.416
58393W        W22601  24.700  26.473  10.935
58394W        W22602   0.948  40.817   3.165
58395W        W22603  43.427  22.168   1.778
58396W        W22604  23.185  20.179  12.495
58397W        W22605  31.421  24.533  10.580
58398W        W22606   0.813  43.996  10.462
58399W        W22607  37.435  24.983   1.874
58400W        W22608  15.326  40.026  11.079
58401W        W22609  30.593  19.549  11.426
58402W        W22610  27.584  13.819  13.452
58403W        W22611   3.805  30.596  12.902
58404W        W22612  23.195   4.723  13.386
58405W        W22613  20.630  21.581   2.292
58406W        W22614   0.837  18.081   4.173
58407W        W22615  35.040  37.893   1.260
58408W        W22616   5.857  34.889  12.497
58409W        W22617  40.801  18.777   2.781
58410W        W22618  15.679  41.475  14.798
58411W        W22619   6.201   4.293   1.837
58412W        W22620  13.670  37.963  12.952
58413W        W22621  30.558   3.858  14.002
58414W        W22622  30.051   1.924  11.113
58415W        W22623  21.200  26.137  14.323
58416W        W22624  31.050  41.529   5.155
58417W        W22625   6.256  25.108   3.636
58418W        W22626  30.960   2.870   0.435
58419W        W22627  38.923   1.295  12.894
58420W        W22628  36.021  35.022  14.408
58421W        W22629  21.033  18.083  12.545
58422W        W22630   0.985   6.916  10.908
58423W        W22631   2.237  14.754  13.485
58424W        W22632   2.411   1.818  12.357
58425W        W22633  15.609   6.218  14.961
58426W        W22634  12.341   1.413   2.709
58427W        W22635   9.851  13.326  14.395
58428W        W22636  14.735  38.059   1.817
58429W        W22637  15.620  14.242  11.023
58430W        W22638   6.677  38.386   1.289
58431W        W22639  23.666  32.601  13.984
58432W        W22640   9.176  14.698  12.089
58433W        W22641   1.448   5.416   5.741
58434W        W22642  21.695  16.611  14.846
58435W        W22643  26.971  36.435  11.497
58436W        W22644  43.972  38.040   4.218
58437W        W22645  15.649   2.926   0.409
58438W        W22646  12.611  15.284   0.311
58439W        W22647  14.096  27.546  14.811
58440W        W22648  21.091   4.840  14.323
58441W        W22649   0.793  11.306  10.527
58442W        W22650   3.439  11.824   2.364
58443W        W22651  28.141  16.732   4.254
58444W        W22652  12.729   7.856  11.496
58445W        W22653   0.914  37.937  11.867
58446W        W22654  28.524   3.836  13.978
58447W        W22655   1.440  12.742  13.949
58448W        W22656  44.380  40.536   1.303
58449W        W22657  11.814  35.432   2.180
58450W        W22658   0.975  15.165   1.855
58451W        W22659  29.087  38.491  13.843
58452W        W22660  34.962  13.307   1.351
58453W        W22661  30.556   5.875   4.725
58454W        W22662  41.822  26.498  14.275
58455W        W22663   9.740  33.578  14.488
58456W        W22664  28.938  43.398  11.090
58457W        W22665  39.866  35.513  13.916
58458W        W22666  23.491  27.030   0.470
58459W        W22667  42.971   2.315   5.706
58460W        W22668  43.880  44.886   1.395
58461W        W22669  22.693  39.931  14.447
58462W        W22670  11.819   2.351   1.903
58463W        W22671   2.394  32.447  14.992
58464W        W22672  22.167   9.733  11.600
58465W        W22673   3.832  40.000  10.568
58466W        W22674   8.693  42.825  14.976
58467W        W22675  30.561  12.817  13.474
58468W        W22676  12.702   8.862   4.736
58469W        W22677  27.459   9.344   0.285
58470W        W22678  36.407  23.612  10.570
58471W        W22679  29.054  22.170   3.831
58472W        W22680  33.041  26.205   0.483
58473W        W22681  24.085   8.161   4.727
58474W        W22682  13.215  26.696  11.978
58475W        W22683  23.996  14.626  11.900
58476W        W22684  18.626  30.129  14.358
58477W        W22685   8.174  32.932   2.903
58478W        W22686   0.347  32.609  10.520
58479W        W22687   8.194  21.572   0.946
58480W        W22688  43.502  37.347  13.329
58481W        W22689  39.328  32.949   3.146
58482W        W22690  28.022  38.341  13.044
58483W        W22691  33.489  35.453   1.443
58484W        W22692  40.378  34.449  12.346
58485W        W22693  40.863  26.560  13.031
58486W        W22694  17.685   0.451  14.341
58487W        W22695  43.394  37.564  10.140
58488W        W22696   0.914  16.201  11.517
58489W        W22697  43.303  13.747   3.815
58490W        W22698  42.974  41.439  12.568
58491W        W22699  19.083   6.803   1.754
58492W        W22700   5.277   1.330   0.244
58493W        W22701  20.074  41.907   1.892
58494W        W22702  36.845  36.482   4.778
58495W        W22703  43.374  22.550  13.974
58496W        W22704   3.348  22.067  14.443
58497W        W22705  39.929   2.238  10.986
58498W        W22706   7.225  42.980  11.882
58499W        W22707  14.217  38.008   1.410
58500W        W22708  24.141  33.415  10.499
58501W        W22709  24.655  35.419   2.846
58502W        W22710  28.008  32.635   1.254
58503W        W22711   2.246  20.545  11.077
58504W        W22712  11.788  23.226   0.839
58505W        W22713  36.492  36.498   2.310
58506W        W22714  19.054   2.315   4.764
58507W        W22715  26.006  23.587  10.586
58508W        W22716  31.644  10.265   0.967
58509W        W22717  10.853   8.342   4.318
58510W        W22718  13.313  13.740  13.990
58511W        W22719  16.729   3.773  10.417
58512W        W22720  34.392   4.846   4.628
58513W        W22721  44.450   7.178  11.443
58514W        W22722   8.763  29.166  10.610
58515W        W22723  33.090  39.392   1.359
58516W        W22724  40.887  14.214  13.800
58517W        W22725   7.751  26.207   2.758
58518W        W22726  39.497  39.932  13.801
58519W        W22727  12.728  18.788   2.346
58520W        W22728  21.238  27.169   1.274
58521W        W22729  13.164   8.167   4.268
58522W        W22730  20.564  31.113   1.289
58523W        W22731  14.833  12.666   1.408
58524W        W22732  29.145  41.023   2.826
58525W        W22733  28.096  26.580   1.398
58526W        W22734  18.088   3.336  12.946
58527W        W22735  42.408  27.687   2.229
58528W        W22736  28.960   4.769   4.128
58529W        W22737  42.997   8.669  13.809
58530W        W22738  43.784   7.300  11.886
58531W        W22739  34.979  41.827  12.561
58532W        W22740  19.047  12.133   2.200
58533W        W22741  32.578  34.605  11.582
58534W        W22742  23.190  19.693   4.697
58535W        W22743  44.261  36.560  13.898
58536W        W22744   6.399   0.887   3.240
58537W        W22745   8.166   1.429  13.335
58538W        W22746   0.963  13.290   4.316
58539W        W22747  42.808  28.107  12.353
58540W        W22748  43.442  44.005  11.879
58541W        W22749  34.552  39.440   0.777
58542W        W22750  42.007  27.012   4.266
58543W        W22751  21.051  11.269   0.338
58544W        W22752  44.365  31.946   2.878
58545W        W22753  38.921  25.039  13.944
58546W        W22754  35.952  28.569  12.892
58547W        W22755   0.429  31.075   0.312
58548W        W22756  43.002  40.856  14.973
58549W        W22757  43.786   0.490  10.509
58550W        W22758  18.088  33.521   2.406
58551W        W22759  42.470  17.652  13.343
58552W        W22760  28.649  37.412  12.071
58553W        W22761  44.994   4.727  11.610
58554W        W22762  20.031   5.439   1.694
58555W        W22763  26.149  30.986   1.318
58556W        W22764   3.303  39.394   0.936
58557W        W22765   9.813  13.317  10.949
58558W        W22766   7.391  44.860  14.790
58559W        W22767   6.728  40.907  10.544
58560W        W22768  10.736  36.520  14.373
58561W        W22769  13.200  18.715  12.972
58562W        W22770  42.835  25.641   0.465
58563W        W22771  29.114  38.029  11.427
58564W        W22772  11.339  41.857   0.824
58565W        W22773  24.599   7.704  12.357
58566W        W22774  20.601   4.370   3.701
58567W        W22775  39.998  31.647  12.072
58568W        W22776  39.060  40.825   2.790
58569W        W22777   5.241  32.621   4.275
58570W        W22778  34.107  37.924   1.855
58571W        W22779   1.323   2.387  14.854
58572W        W22780  43.892  25.118   2.693
58573W        W22781   8.679   8.212   2.256
58574W        W22782  15.103  19.653  13.944
58575W        W22783  41.416  26.628  12.892
58576W        W22784  21.597  38.535   3.228
58577W        W22785  22.667  20.552   2.189
58578W        W22786  31.619  13.613   2.876
58579W        W22787  24.714  44.454   1.294
58580W        W22788  12.668  11.632   9.467
58581W        W22789  15.143   7.718   3.795
58582W        W22790  37.382  35.441   4.691
58583W        W22791  18.272  18.234  12.061
58584W        W22792  44.504  14.664  11.407
58585W        W22793   3.448  22.063  12.013
58586W        W22794  15.194  41.328   4.658
58587W        W22795  19.273  26.144  12.382
58588W        W22796  23.512  37.861   0.831
58589W        W22797  38.934  29.649   3.778
58590W        W22798  22.139   8.789   1.841
58591W        W22799  34.456  27.546  13.409
58592W        W22800   3.888  38.982   0.433
58593W        W22801  18.620  25.651  10.993
58594W        W22802  18.750  15.091  11.999
58595W        W22803  26.990  18.089   1.694
58596W        W22804  32.511  14.823   1.729
58597W        W22805   5.811  29.123   0.788
58598W        W22806   0.759   4.836  13.042
58599W        W22807  39.980  42.922  14.783
58600W        W22808   5.343  18.225   3.261
58601W        W22809  37.362  42.360  12.830
58602W        W22810  17.097  32.452   1.235
58603W        W22811  38.978  34.449  10.566
58604W        W22812  30.545  11.164   3.677
58605W        W22813   7.380  22.130  13.951
58606W        W22814  30.129   1.749  13.519
58607W        W22815  18.162  25.184   3.709
58608W        W22816  31.583  12.215  10.473
58609W        W22817  34.906  15.124  13.501
58610W        W22818   6.377  32.962   2.201
58611W        W22819  24.980  36.425   3.208
58612W        W22820   4.301   5.870  14.789
58613W        W22821  23.639  24.620   2.737
58614W        W22822  39.542  29.160   0.322
58615W        W22823  21.107  33.473   1.362
58616W        W22824   9.726  30.918  10.568
58617W        W22825   1.882  31.608   0.919
58618W        W22826  17.067  43.344   2.718
58619W        W22827   7.788   6.317   4.310
58620W        W22828  41.379  41.859  13.545
58621W        W22829  24.498  11.779   3.635
58622W        W22830   2.818   7.827  11.960
58623W        W22831  37.440   7.746  13.333
58624W        W22832  28.656   6.710  12.547
58625W        W22833  16.247  24.125  12.880
58626W        W22834  24.213  20.693  12.421
58627W        W22835  25.480  28.539   0.749
58628W        W22836  21.520  13.839  14.320
58629W        W22837  37.959   1.834  12.955
58630W        W22838  36.533  30.081  13.795
58631W        W22839  37.428   4.229   3.686
58632W        W22840  17.555  37.008   3.173
58633W        W22841  25.511  25.028  13.448
58634W        W22842  37.026  17.065  12.569
58635W        W22843  44.292   4.277  14.446
58636W        W22844  41.866  35.883  10.630
58637W        W22845  15.581  13.183   3.169
58638W        W22846  35.359   5.877  14.853
58639W        W22847   3.216  19.594   3.378
58640W        W22848  43.273  36.382  12.344
58641W        W22849   1.862  15.294   0.470
58642W        W22850  43.349   4.795   3.722
58643W        W22851  33.480   1.370   1.301
58644W        W22852  12.730  24.973   0.928
58645W        W22853  38.833  44.912  12.551
58646W        W22854  30.036   1.956  11.393
58647W        W22855   9.309  44.390  12.508
58648W        W22856   7.770  14.327  11.018
58649W        W22857   8.346  11.629   1.744
58650W        W22858  19.668   2.905   3.343
58651W        W22859  25.020  40.901   0.347
58652W        W22860  36.362  23.121  12.435
58653W        W22861  29.125  22.700  11.007
58654W        W22862  26.991  35.979   5.132
58655W        W22863  40.419   7.818  14.427
58656W        W22864  14.737   1.429  14.897
58657W        W22865   8.246  34.593  11.512
58658W        W22866  18.687   4.786   3.344
58659W        W22867  24.681  12.762   3.655
58660W        W22868   1.850  14.169  11.563
58661W        W22869  31.445   3.260   2.763
58662W        W22870  27.574   2.236  11.019
58663W        W22871  20.684   3.718  14.901
58664W        W22872   9.211  12.737  13.052
58665W        W22873   8.188   3.791   4.192
58666W        W22874  43.812  40.879  13.867
58667W        W22875  24.643  29.942   2.403
58668W        W22876  35.576  23.215   3.159
58669W        W22877   4.366  28.506  14.396
58670W        W22878  42.914  33.937   0.407
58671W        W22879   7.302  33.486   3.222
58672W        W22880   6.324   5.371   1.238
58673W        W22881   1.441  22.146  10.925
58674W        W22882   5.255  23.713   2.831
58675W        W22883  43.409  24.067   4.170
58676W        W22884   0.445  34.960   3.810
58677W        W22885  16.264  44.932   4.199
58678W        W22886   6.762  30.043  12.475
58679W        W22887   9.244  43.299   4.353
58680W        W22888  24.223  15.195  14.965
58681W        W22889  36.485  35.462  14.762
58682W        W22890  11.254  29.109   4.706
58683W        W22891   5.325  33.130   0.342
58684W        W22892   2.816  34.037   1.216
58685W        W22893   4.700  43.963  11.507
58686W        W22894   8.164  10.294   9.944
58687W        W22895   0.976  31.490  13.324
58688W        W22896  18.630  11.825   2.816
58689W        W22897  12.122  34.866  12.065
58690W        W22898  24.540   7.879  11.120
58691W        W22899  18.180  31.607   2.737
58692W        W22900  39.491  11.676   0.290
58693W        W22901  39.058  39.908   2.386
58694W        W22902  43.297  17.768   2.241
58695W        W22903   9.199   0.775  11.922
58696W        W22904  43.789  10.692   0.964
58697W        W22905   3.803  27.590  12.071
58698W        W22906  23.585  42.982   4.165
58699W        W22907   2.388  42.463   3.358
58700W        W22908  26.009  38.926   2.847
58701W        W22909  29.104  17.761   1.389
58702W        W22910  43.396  20.625  14.770
58703W        W22911  37.553  29.068  12.375
58704W        W22912  37.846   8.249  10.929
58705W        W22913   8.306  32.997  10.981
58706W        W22914  19.766  28.491   4.832
58707W        W22915  34.977   7.202  12.878
58708W        W22916  17.734  31.912   3.865
58709W        W22917  43.915  21.554   2.364
58710W        W22918   3.810  31.974   2.822
58711W        W22919  20.626   2.913   1.317
58712W        W22920  18.723  33.119  13.947
58713W        W22921  30.921  29.052   3.238
58714W        W22922   8.805  17.564   0.286
58715W        W22923  20.197   3.899  14.453
58716W        W22924  41.966   1.912   0.372
58717W        W22925  44.366  15.790   0.922
58718W        W22926  17.126  20.643   1.840
58719W        W22927  34.083  32.438   2.675
58720W        W22928  25.108   5.401  13.335
58721W        W22929  20.573  33.107  11.975
58722W        W22930  13.139  21.659   1.384
58723W        W22931  25.986  37.435  14.783
58724W        W22932  28.466  27.447   0.383
58725W        W22933  25.703   4.401  14.299
58726W        W22934   0.487  21.612  14.870
58727W        W22935   1.404  26.048   0.480
58728W        W22936  39.052   2.462   1.330
58729W        W22937   9.169  17.736  14.901
58730W        W22938  17.557  34.017   4.738
58731W        W22939   8.281  31.062   2.862
58732W        W22940  29.596   7.320  11.991
58733W        W22941  29.471  18.566   0.288
58734W        W22942  11.833  28.052   2.844
58735W        W22943  34.598  43.920   1.421
58736W        W22944  28.540  22.516  12.875
58737W        W22945  10.639  29.438  13.858
58738W        W22946   4.300  36.869  10.580
58739W        W22947   3.777   0.306  14.338
58740W        W22948   2.300  39.902  12.997
58741W        W22949  44.401  35.937   3.864
58742W        W22950   8.265  24.717   3.842
58743W        W22951   3.324  28.505   3.676
58744W        W22952  11.272  18.659   4.168
58745W        W22953   7.288  13.328   3.709
58746W        W22954   3.417  43.447   3.174
58747W        W22955   4.767  35.109   2.224
58748W        W22956   5.841  36.470  14.887
58749W        W22957  41.822   6.244   1.228
58750W        W22958  41.884  22.245   3.835
58751W        W22959  42.519  14.712   3.196
58752W        W22960  34.405   5.845  14.002
58753W        W22961  25.654  11.236  12.436
58754W        W22962  12.285  14.109   2.214
58755W        W22963   2.396  22.648  11.924
58756W        W22964  21.705  43.961   0.870
58757W        W22965  11.267   5.737  12.387
58758W        W22966   5.355   2.365   3.162
58759W        W22967  34.416  38.858  11.090
58760W        W22968   6.812  13.742   4.283
58761W        W22969  35.911   9.195  10.642
58762W        W22970  32.596  41.003  12.069
58763W        W22971  26.575  13.266   2.407
58764W        W22972  41.316  11.712   4.142
58765W        W22973   8.249   0.362  11.453
58766W        W22974  42.361  11.822  11.916
58767W        W22975  43.914  29.507  13.831
58768W        W22976  10.730  15.273  11.026
58769W        W22977  37.353  44.805  13.361
58770W        W22978   7.863  24.553  14.012
58771W        W22979   4.363  43.946  11.436
58772W        W22980  13.661  22.688   2.239
58773W        W22981   2.788  18.591   0.389
58774W        W22982  42.403  43.011   3.731
58775W        W22983  36.896  32.986  14.800
58776W        W22984  21.232   5.332  13.837
58777W        W22985   4.407   3.228  14.003
58778W        W22986   5.723   6.328   0.332
58779W        W22987  42.956  34.028   3.671
58780W        W22988   5.861  35.594   0.924
58781W        W22989  24.085  16.607   5.304
58782W        W22990  36.461  34.935   1.733
58783W        W22991  26.971   5.348   0.323
58784W        W22992  10.377  35.924  10.631
58785W        W22993  34.583  19.748   3.377
58786W        W22994  10.195  34.993   1.730
58787W        W22995  15.163   7.814   1.278
58788W        W22996  18.117   7.195   2.203
58789W        W22997   9.869  44.950   3.384
58790W        W22998  21.220  23.138  13.469
58791W        W22999  21.032  11.690  13.491
58792W        W23000  31.602  36.958  11.552
58793W        W23001  18.772  38.470  12.968
58794W        W23002  41.957  20.630   4.828
58795W        W23003  43.020  14.770  11.922
58796W        W23004  14.201  27.197  11.506
58797W        W23005  31.433   4.236  12.480
58798W        W23006  26.475  31.945   0.355
58799W        W23007  31.646   0.964   3.724
58800W        W23008  28.088  17.716  14.376
58801W        W23009  19.734  27.028  13.886
58802W        W23010  11.699  17.709  13.971
58803W        W23011  24.666  27.187   0.735
58804W        W23012  12.254  32.417  11.122
58805W        W23013  27.638  15.694  13.064
58806W        W23014  12.321  42.853  13.853
58807W        W23015  28.978  21.115  13.546
58808W        W23016  43.350  26.989  12.541
58809W        W23017  42.946  37.445   2.199
58810W        W23018  41.368  28.096  10.986
58811W        W23019  15.789  26.572  11.011
58812W        W23020   2.848  29.642  11.457
58813W        W23021  40.980  17.188   0.832
58814W        W23022  25.144   6.218   4.612
58815W        W23023  39.454  36.539  13.806
58816W        W23024  39.435  44.874  11.855
58817W        W23025  26.516   3.937  10.945
58818W        W23026  41.394  15.249  12.085
58819W        W23027  10.340  40.797  14.280
58820W        W23028   5.695  11.692   3.343
58821W        W23029  36.396  41.355  11.128
58822W        W23030  26.669  15.812  14.317
58823W        W23031  16.626  24.071   1.303
58824W        W23032  25.008  14.716  11.889
58825W        W23033  18.782  26.678  12.830
58826W        W23034   1.859   3.401  14.494
58827W        W23035  20.030  10.659  11.981
58828W        W23036  11.171   8.343   4.634
58829W        W23037  34.407  33.084   2.816
58830W        W23038  24.196  25.008  13.865
58831W        W23039  43.408  25.042   4.752
58832W        W23040  18.133  17.658  11.553
58833W        W23041  42.428  43.794  11.860
58834W        W23042  12.272   3.793   4.695
58835W        W23043  38.820   4.299  10.587
58836W        W23044  35.885  44.927  13.888
58837W        W23045   3.723   0.847   3.257
58838W        W23046  21.619   3.827  12.932
58839W        W23047  28.098   1.758  11.520
58840W        W23048  16.210  24.120   2.727
58841W        W23049   9.347   6.831   2.695
58842W        W23050  30.130  41.424   1.218
58843W        W23051  17.077   6.826   1.804
58844W        W23052  40.051   0.460  13.051
58845W        W23053   2.284   7.252   1.315
58846W        W23054  20.095  43.885   2.830
58847W        W23055  28.141  14.257   3.274
58848W        W23056  27.559   1.970   4.208
58849W        W23057  39.836  35.448  13.395
58850W        W23058  22.565  29.565   3.776
58851W        W23059   4.721  36.852   3.785
58852W        W23060  43.296  43.992   1.719
58853W        W23061  43.893  15.652   1.337
58854W        W23062   3.351  28.450   2.188
58855W        W23063  37.953  24.134   1.727
58856W        W23064  32.049   7.182   4.728
58857W        W23065  10.160  15.774   2.283
58858W        W23066  41.932  20.243  13.024
58859W        W23067  19.048  44.991   3.215
58860W        W23068  16.173  35.987   2.306
58861W        W23069  29.171   1.744  10.522
58862W        W23070  16.655  37.545  13.322
58863W        W23071  10.795  43.507  12.459
58864W        W23072  18.671   0.414  10.910
58865W        W23073  36.461  26.615  10.476
58866W        W23074  43.412   6.263  11.999
58867W        W23075  11.174  34.954   2.665
58868W        W23076  37.947  14.128   4.694
58869W        W23077  17.720   9.327  12.935
58870W        W23078  36.347  31.414  11.610
58871W        W23079  19.602  18.707   1.260
58872W        W23080  25.657  39.435  14.802
58873W        W23081  11.268  31.062   4.197
58874W        W23082  30.994   8.724   3.662
58875W        W23083  25.523   4.731   4.834
58876W        W23084  33.048  43.997   3.380
58877W        W23085  35.590  33.574  14.288
58878W        W23086   5.331  26.031   4.651
58879W        W23087   8.760  28.477   2.332
58880W        W23088   1.925  28.503   0.894
58881W        W23089  38.003   9.780   1.828
58882W        W23090  42.923  25.522  11.510
58883W        W23091   0.464   6.272  11.392
58884W        W23092   1.737  28.587  10.936
58885W        W23093   4.414  39.538   4.804
58886W        W23094  17.687  44.918  12.994
58887W        W23095  26.491  26.672   4.625
58888W        W23096   3.879   6.819   1.284
58889W        W23097  28.993  17.260   4.137
58890W        W23098  24.611   7.687  12.928
58891W        W23099  44.907  42.399   4.788
58892W        W23100  23.541  10.204   3.732
58893W        W23101  41.817   5.421  13.907
58894W        W23102  11.359  33.034  11.113
58895W        W23103  32.112  33.437   2.260
58896W        W23104   8.284  27.626   1.795
58897W        W23105  22.202  27.576  11.917
58898W        W23106   0.436  37.490  11.960
58899W        W23107   9.300  35.572   2.415
58900W        W23108  37.073   3.836  13.479
58901W        W23109   8.711  23.624  12.088
58902W        W23110  18.287   8.292   0.437
58903W        W23111  13.826  38.517  11.530
58904W        W23112  39.966   9.791   1.213
58905W        W23113  35.093  44.959   4.747
58906W        W23114  29.006  40.843   4.627
58907W        W23115  24.023  40.984  11.983
58908W        W23116   0.333  27.623  10.035
58909W        W23117   5.434  32.063   2.839
58910W        W23118  25.601  16.758  10.571
58911W        W23119  35.852  41.418   3.797
58912W        W23120  20.557  19.064   5.119
58913W        W23121  17.179  40.464  11.489
58914W        W23122  19.189  23.130  12.373
58915W        W23123  26.669  38.063   1.737
58916W        W23124  22.151  38.509   1.737
58917W        W23125   3.933  28.103  12.516
58918W        W23126  29.549   4.778   2.892
58919W        W23127  42.934  23.546   4.603
58920W        W23128  43.358  16.084  10.568
58921W        W23129  27.050   6.279   4.839
58922W        W23130  30.162  23.231  10.565
58923W        W23131   5.260  27.505  14.823
58924W        W23132  40.894  19.759   2.278
58925W        W23133   9.190   1.971   4.162
58926W        W23134   9.150  15.680   9.944
58927W        W23135  27.982  11.778  10.949
58928W        W23136  31.149  40.047   1.752
58929W        W23137   0.778   7.220   2.263
58930W        W23138   4.221  31.023  13.020
58931W        W23139  17.791  11.283  13.480
58932W        W23140  35.484  19.164   3.832
58933W        W23141  33.458  27.948  12.505
58934W        W23142  36.464  16.769  11.934
58935W        W23143  13.615  27.674  11.584
58936W        W23144  27.004  30.652   0.247
58937W        W23145   1.894  36.024   3.320
58938W        W23146  40.309  14.597   2.374
58939W        W23147  31.417  44.476  14.774
58940W        W23148  20.531   0.775   4.188
58941W        W23149  37.933  12.183  14.432
58942W        W23150  15.199  34.883   2.685
58943W        W23151  19.736  43.996   3.631
58944W        W23152  22.538  42.843  10.634
58945W        W23153  24.133  29.504  11.447
58946W        W23154  34.375  34.416   1.814
58947W        W23155   1.845   0.894  11.962
58948W        W23156  22.218  25.059  10.594
58949W        W23157  38.369  34.380   1.751
58950W        W23158  42.811   3.812   1.804
58951W        W23159  44.929  14.599  10.940
58952W        W23160  43.345   2.824  10.923
58953W        W23161  17.208  17.071  13.429
58954W        W23162   2.260  40.947  13.839
58955W        W23163  40.033  40.505   0.283
58956W        W23164  34.950  24.080   0.411
58957W        W23165  35.401  13.213   3.180
58958W        W23166  32.090  39.431  11.895
58959W        W23167  22.723  30.489   1.429
58960W        W23168  31.100  25.703   3.278
58961W        W23169   3.356  24.122   3.184
58962W        W23170  42.415  10.379  11.922
58963W        W23171  12.201  30.070   2.287
58964W        W23172  38.554   0.928  10.523
58965W        W23173  17.150  42.912   5.238
58966W        W23174   0.439  11.719  11.535
58967W        W23175  21.094  41.295   4.146
58968W        W23176  12.833   7.898   3.268
58969W        W23177   4.374  43.311  14.293
58970W        W23178  43.792  20.100  12.889
58971W        W23179   8.196  38.536  11.490
58972W        W23180   1.290  36.953  10.009
58973W        W23181  36.963  17.214   1.237
58974W        W23182  40.818  10.189  12.454
58975W        W23183  35.082  10.322   1.218
58976W        W23184  25.074  35.436   4.189
58977W        W23185  16.625  27.583   2.805
58978W        W23186  32.424   9.798  11.489
58979W        W23187  36.496  35.012  11.397
58980W        W23188  25.696  22.656  10.461
58981W        W23189  39.950  13.232  11.399
58982W        W23190   3.287  41.926   3.266
58983W        W23191  15.248  32.953  13.505
58984W        W23192  28.980  37.960   2.874
58985W        W23193  34.481   1.363  10.642
58986W        W23194   5.730   5.340  10.563
58987W        W23195  32.599  22.095  11.435
58988W        W23196  27.635  11.237   3.674
58989W        W23197  42.522   9.253   1.316
58990W        W23198   2.240  26.604   3.242
58991W        W23199  20.599   2.924  11.003
58992W        W23200  20.187  15.633  13.054
58993W        W23201   3.418  36.447   0.435
58994W        W23202  22.037  30.060   2.342
58995W        W23203  18.172   7.898   4.775
58996W        W23204  38.881  32.085  11.563
58997W        W23205  12.839  27.499  10.426
58998W        W23206  25.685  29.080   1.297
58999W        W23207  28.640   9.840   0.242
59000W        W23208  34.436   3.787  11.937
59001W        W23209  22.202   8.185   0.862
59002W        W23210  34.916  21.148  14.371
59003W        W23211  22.178  37.895   0.865
59004W        W23212  15.185  42.430  12.845
59005W        W23213   0.375  22.650  13.423
59006W        W23214  39.956  37.895  14.355
59007W        W23215  32.939  23.110  13.359
59008W        W23216   8.896  43.442   5.221
59009W        W23217  39.934  34.872   1.274
59010W        W23218  20.570   7.703   2.860
59011W        W23219  37.511  22.518   2.774
59012W        W23220  11.344  19.283   3.755
59013W        W23221  25.517  22.229   1.803
59014W        W23222  43.410  23.546  12.570
59015W        W23223  26.523   0.368  14.314
59016W        W23224  11.791  21.520  13.904
59017W        W23225   9.154  39.551   0.432
59018W        W23226   2.922   8.843  14.856
59019W        W23227  27.088  44.445   1.347
59020W        W23228   3.726   4.745  11.021
59021W        W23229   3.864  11.186  13.915
59022W        W23230  39.542   1.896   1.797
59023W        W23231  21.234  27.681  13.308
59024W        W23232   9.659  26.589   4.776
59025W        W23233  38.893  19.218  14.774
59026W        W23234  42.285  43.459  11.066
59027W        W23235  40.992  35.387   4.627
59028W        W23236   0.476   2.351  11.503
59029W        W23237  11.660  39.401   9.956
59030W        W23238  11.243  21.241   1.442
59031W        W23239   7.372  25.679   4.285
59032W        W23240   5.307   5.897  14.399
59033W        W23241  16.112  29.493   1.897
59034W        W23242  24.119   0.853   1.367
59035W        W23243   9.862   6.833   2.356
59036W        W23244   0.834  23.714  12.480
59037W        W23245  29.572   3.249   0.467
59038W        W23246  16.108  14.741   0.952
59039W        W23247  43.823  11.278  13.442
59040W        W23248  15.613   0.320  13.805
59041W        W23249  30.477  27.656  12.525
59042W        W23250  35.550  39.887  11.534
59043W        W23251  11.311  39.867  13.502
59044W        W23252  40.310  23.014   1.795
59045W        W23253  23.213   4.435  12.479
59046W        W23254   2.724   8.815  10.961
59047W        W23255   4.229  36.086   3.175
59048W        W23256  13.279  30.584   4.829
59049W        W23257  42.884   4.404   0.860
59050W        W23258  43.345   2.820  13.355
59051W        W23259  44.999  41.489   0.454
59052W        W23260  15.724  28.092  12.871
59053W        W23261   3.413  25.998  13.983
59054W        W23262  20.099  21.592   3.857
59055W        W23263  28.601   0.269  13.393
59056W        W23264   9.279   9.316  12.580
59057W        W23265  31.544  44.875   3.383
59058W        W23266  27.029  26.139  14.956
59059W        W23267  14.279  39.059   3.852
59060W        W23268  23.143  24.153   1.292
59061W        W23269  30.128   8.356  12.516
59062W        W23270  18.717  31.983   1.417
59063W        W23271  36.886   6.884  13.338
59064W        W23272  40.032  43.338   3.197
59065W        W23273  23.008  15.650   0.340
59066W        W23274  42.025  39.477   3.181
59067W        W23275  37.550  31.481   4.728
59068W        W23276   1.239  21.176  11.579
59069W        W23277   8.741  25.004   0.914
59070W        W23278  42.387  27.182  12.569
59071W        W23279   2.342  44.436  10.507
59072W        W23280  16.081  21.239   0.805
59073W        W23281  31.931   0.460   0.836
59074W        W23282   1.311  15.262  12.512
59075W        W23283  22.093  16.108   1.773
59076W        W23284  43.409  37.074  12.042
59077W        W23285  42.000   2.406  14.992
59078W        W23286  13.301  29.657   2.313
59079W        W23287  30.006  17.703   2.759
59080W        W23288  21.099  18.742  14.503
59081W        W23289  19.708  44.330  14.802
59082W        W23290  23.036  33.547  13.008
59083W        W23291  11.301  20.748  10.443
59084W        W23292  31.925   9.238  11.055
59085W        W23293  16.134  33.090   2.311
59086W        W23294  15.581   3.902  11.933
59087W        W23295  37.509   2.394  11.982
59088W        W23296  17.676  34.941  11.439
59089W        W23297  33.066  10.669   4.745
59090W        W23298   7.670   7.301  10.426
59091W        W23299  44.912   4.709   1.759
59092W        W23300  14.684  30.017   3.859
59093W        W23301  28.435  15.775  11.053
59094W        W23302  10.244   9.211  14.835
59095W        W23303  21.053   0.855  14.987
59096W        W23304  25.603  38.489  10.888
59097W        W23305   4.233  34.514  14.411
59098W        W23306  34.035  30.103   4.669
59099W        W23307  28.048  29.026  12.835
59100W        W23308  19.156  32.410  11.979
59101W        W23309  44.821   7.865   4.319
59102W        W23310  20.080   3.847   1.706
59103W        W23311  19.268  43.871   3.378
59104W        W23312   6.738  38.423  11.966
59105W        W23313  22.234   1.977   3.820
59106W        W23314  24.081  36.545  11.063
59107W        W23315  33.604  27.604  12.381
59108W        W23316   3.913   7.740  12.058
59109W        W23317  26.198  15.734  11.496
59110W        W23318  30.992  14.253   3.824
59111W        W23319  35.574   3.767  11.498
59112W        W23320  39.941   3.227   0.897
59113W        W23321  26.505  41.821  10.465
59114W        W23322  19.103  44.329  11.114
59115W        W23323  29.028  29.624   4.127
59116W        W23324  14.780  37.380   3.673
59117W        W23325  31.986  12.162   2.893
59118W        W23326   6.424  41.932   2.411
59119W        W23327  21.564  31.022   0.414
59120W        W23328  16.748   2.811   3.754
59121W        W23329  10.690  38.827   9.953
59122W        W23330  33.385  10.334  14.287
59123W        W23331   1.947  26.971   1.848
59124W        W23332  32.587   0.800   4.759
59125W        W23333  37.375  15.821  11.373
59126W        W23334  18.119   6.349  11.417
59127W        W23335   3.841   7.237   2.206
59128W        W23336  11.287  14.594   1.305
59129W        W23337  32.039  34.957  14.463
59130W        W23338  19.122  11.850  12.400
59131W        W23339  24.655  40.405  12.427
59132W        W23340  23.121  26.183   3.338
59133W        W23341  33.455  13.780  10.490
59134W        W23342  16.666   8.400  13.325
59135W        W23343  36.435  35.484  14.428
59136W        W23344  12.699  26.116  13.545
59137W        W23345  11.656  17.095  10.937
59138W        W23346  25.524  24.535  13.802
59139W        W23347  34.481  29.466   4.619
59140W        W23348  43.928  21.022  14.468
59141W        W23349  26.041  41.309   2.263
59142W        W23350   0.337   7.300   4.699
59143W        W23351  25.572  17.669   0.966
59144W        W23352  34.954  28.991   4.694
59145W        W23353  20.233   6.351   3.387
59146W        W23354  42.512  44.314  13.898
59147W        W23355  17.301   6.689   2.691
59148W        W23356  43.480  27.614   3.760
59149W        W23357  35.924   4.757   2.300
59150W        W23358  29.978  31.999   2.715
59151W        W23359  44.982  10.207   0.967
59152W        W23360  42.822  39.031  12.023
59153W        W23361  22.563  17.247  11.611
59154W        W23362  40.822   4.251   4.821
59155W        W23363  24.529  22.644  10.497
59156W        W23364  20.108  16.301  10.958
59157W        W23365  15.716  28.490   3.167
59158W        W23366  30.488  27.595  10.624
59159W        W23367  42.359  36.427  10.935
59160W        W23368  11.858  17.222  13.936
59161W        W23369  41.918   7.709  12.956
59162W        W23370  31.601  39.850  11.111
59163W        W23371  30.513  21.238  14.509
59164W        W23372  40.323   9.830   1.413
59165W        W23373  33.478   9.223  11.986
59166W        W23374  44.493  38.342   4.758
59167W        W23375  34.889  33.381  14.347
59168W        W23376  34.891  43.858  13.345
59169W        W23377  28.536   5.874  13.476
59170W        W23378  41.803  24.131  12.977
59171W        W23379  40.907  11.626  11.522
59172W        W23380  19.204  29.053  12.872
59173W        W23381   4.361  28.147  10.490
59174W        W23382  37.860  20.124   9.643
59175W        W23383  34.444  33.989   4.682
59176W        W23384  23.651  36.363  11.861
59177W        W23385   8.739  20.085  11.096
59178W        W23386  15.629  20.585  12.889
59179W        W23387  30.474  42.992   0.452
59180W        W23388  24.060  20.715   2.878
59181W        W23389  35.960  43.415  11.407
59182W        W23390  25.496   8.693   0.309
59183W        W23391  31.639  17.213   2.868
59184W        W23392  27.112  16.708  12.452
59185W        W23393   7.415  29.460  14.472
59186W        W23394   9.370  27.573   2.411
59187W        W23395   2.866   2.276   3.651
59188W        W23396  29.592   6.288  12.528
59189W        W23397   6.234  12.689  14.025
59190W        W23398  44.430  18.594   0.435
59191W        W23399   1.945  24.592  12.995
59192W        W23400  26.005   5.362  12.533
59193W        W23401  18.673  34.888   1.767
59194W        W23402  39.936  43.904  13.056
59195W        W23403   8.898  34.049   3.841
59196W        W23404   1.941  37.062  10.139
59197W        W23405  13.321  10.636   1.746
59198W        W23406   9.879  18.054   4.252
59199W        W23407   7.176  44.754   0.860
59200W        W23408   7.737  33.077  14.483
59201W        W23409  34.113  26.504  14.435
59202W        W23410  37.849  36.997   2.703
59203W        W23411  21.043  35.982  14.980
59204W        W23412  42.282  26.690  10.544
59205W        W23413  23.081  14.245   4.600
59206W        W23414  24.222  41.890   3.156
59207W        W23415   7.210   0.938   0.292
59208W        W23416  11.323   5.790   1.875
59209W        W23417  20.126   1.819  11.407
59210W        W23418  10.239  24.092   2.689
59211W        W23419  32.420  25.058  14.299
59212W        W23420  20.118  21.082  13.944
59213W        W23421  13.330  33.027  11.528
59214W        W23422  38.388   2.340  13.046
59215W        W23423   5.433  44.342   4.190
59216W        W23424  24.080  20.227   4.194
59217W        W23425  32.031  16.172   9.658
59218W        W23426  44.885  34.969   3.172
59219W        W23427   2.307  18.587   4.280
59220W        W23428  43.379  29.071  10.486
59221W        W23429  18.207  13.138  13.989
59222W        W23430   0.922  23.729   2.320
59223W        W23431  23.659  10.680   2.260
59224W        W23432  23.998   2.300   1.704
59225W        W23433  20.540   8.700   4.676
59226W        W23434   8.389  15.774   1.245
59227W        W23435  32.397   1.302   4.352
59228W        W23436  30.134  10.685  14.923
59229W        W23437  29.112   7.253  14.854
59230W        W23438  22.236   3.250  13.947
59231W        W23439  41.528  34.394  10.894
59232W        W23440  19.610  43.897  12.369
59233W        W23441   2.813  27.487  13.911
59234W        W23442  28.032  23.145   3.735
59235W        W23443  21.157  34.565   2.278
59236W        W23444  22.601  26.462   4.747
59237W        W23445   8.725  33.059   4.674
59238W        W23446  31.517  22.124   0.795
59239W        W23447   9.778  18.230   0.770
59240W        W23448  11.315  37.457  11.976
59241W        W23449  38.972  32.562  10.486
59242W        W23450  38.877  39.539  10.437
59243W        W23451   7.320  18.186  13.045
59244W        W23452  33.547   7.752   3.326
59245W        W23453  12.319  35.999   4.153
59246W        W23454  32.433   9.240  10.962
59247W        W23455   4.850   6.846   1.895
59248W        W23456  39.874  40.385  14.473
59249W        W23457  41.447  44.276   2.322
59250W        W23458  36.059  25.037   4.174
59251W        W23459   8.864  26.196  12.063
59252W        W23460  22.216  44.903   2.744
59253W        W23461   2.774  38.951   4.685
59254W        W23462  37.475  27.966   2.883
59255W        W23463  21.048  32.067  10.457
59256W        W23464  40.851  37.570  11.441
59257W        W23465  41.975  44.503   1.846
59258W        W23466  35.548  14.813   0.289
59259W        W23467  18.673  17.700   1.740
59260W        W23468  39.328   9.336  12.423
59261W        W23469   2.775  19.694  11.882
59262W        W23470  10.857  39.967   2.313
59263W        W23471  38.990  39.056  14.854
59264W        W23472  44.466  29.425  10.021
59265W        W23473  12.796  34.054  13.384
59266W        W23474  15.629  29.048  10.049
59267W        W23475  14.595  42.436   3.752
59268W        W23476  11.764  42.778   0.430
59269W        W23477  39.546  36.468  10.433
59270W        W23478  21.200  38.914   0.851
59271W        W23479  43.926  25.213  11.101
59272W        W23480  11.640   9.192   1.749
59273W        W23481   9.829  36.482   1.754
59274W        W23482   3.425  29.002   1.219
59275W        W23483  12.220   5.407  13.047
59276W        W23484  21.520  15.643  12.569
59277W        W23485  27.630  41.041  11.950
59278W        W23486  21.174  17.659   3.768
59279W        W23487  15.143  24.622  14.915
59280W        W23488   7.694  17.287  12.845
59281W        W23489  23.508  19.626  11.012
59282W        W23490  14.615  33.468   1.439
59283W        W23491  11.284   8.839  10.507
59284W        W23492  39.419  16.071   3.263
59285W        W23493  25.158  39.922  11.032
59286W        W23494  15.705  14.653  10.468
59287W        W23495  13.235  36.005   1.884
59288W        W23496  43.877  44.434   3.814
59289W        W23497  27.132   8.810   0.946
59290W        W23498  16.764  18.695  11.980
59291W        W23499   2.803  15.165  14.949
59292W        W23500  40.904  20.068  11.486
59293W        W23501   8.257   4.919  11.919
59294W        W23502  26.699  22.227   0.776
59295W        W23503  10.723  12.135   3.223
59296W        W23504  35.900  33.493   3.289
59297W        W23505   0.346  11.843  14.954
59298W        W23506  10.211  21.186  12.942
59299W        W23507   7.784  32.113   1.787
59300W        W23508  32.117   0.986  12.523
59301W        W23509  17.225  42.001   4.200
59302W        W23510   4.846  43.798   4.682
59303W        W23511  23.235   0.911  14.899
59304W        W23512  31.042  43.933   0.826
59305W        W23513  17.568   8.357  12.072
59306W        W23514  22.027   8.854   2.777
59307W        W23515  11.252  14.763  11.903
59308W        W23516  12.753  44.362  11.910
59309W        W23517  37.377  27.071  12.539
59310W        W23518  29.146  19.581   1.404
59311W        W23519  38.333  14.252  12.391
59312W        W23520  41.957   2.367  10.517
59313W        W23521  15.702  42.330  13.471
59314W        W23522   4.349   8.765   3.744
59315W        W23523  18.251  16.625   3.291
59316W        W23524  25.057  44.442  11.393
59317W        W23525  16.635   3.944  12.415
59318W        W23526  11.295   2.323  11.465
59319W        W23527  25.518  21.189   2.378
59320W        W23528  24.220  29.135  13.534
59321W        W23529   5.712  13.755   0.947
59322W        W23530  42.873  16.567  12.364
59323W        W23531  21.170  38.906  13.434
59324W        W23532   9.690   1.434  14.951
59325W        W23533  26.075  35.083   0.388
59326W        W23534  40.979  31.998  14.386
59327W        W23535  39.360   0.478   9.462
59328W        W23536   0.925  22.570   2.698
59329W        W23537   3.438   7.222  13.386
59330W        W23538  31.576  36.867  13.353
59331W        W23539   1.429  35.382  13.368
59332W        W23540  26.020   7.332  13.513
59333W        W23541  16.160  33.480  13.998
59334W        W23542  11.758  36.069  11.393
59335W        W23543  10.682  31.450  12.407
59336W        W23544  26.132  14.326  13.372
59337W        W23545  22.998  26.986  11.925
59338W        W23546  33.396  37.439  11.928
59339W        W23547  30.086  28.126   3.276
59340W        W23548  42.878  39.870   1.701
59341W        W23549  36.433  11.148  13.915
59342W        W23550   0.827  21.040  12.532
59343W        W23551   1.951   0.779  10.502
59344W        W23552  34.039  19.614   2.747
59345W        W23553  43.501  37.376   0.357
59346W        W23554  31.430   5.799   3.199
59347W        W23555   1.451  18.575  11.600
59348W        W23556   5.361   4.279   1.900
59349W        W23557  12.820  43.409  13.512
59350W        W23558  17.557  32.407  11.509
59351W        W23559  37.860  21.604   3.782
59352W        W23560   6.874   4.345  14.430
59353W        W23561  20.061  29.124  14.955
59354W        W23562  17.592  39.065  12.823
59355W        W23563   6.743  22.670   4.838
59356W        W23564   8.779  44.962  11.877
59357W        W23565  41.315  10.730  14.780
59358W        W23566  41.357  27.131  10.576
59359W        W23567  40.969   1.950   4.126
59360W        W23568  13.602  29.089   0.341
59361W        W23569  27.464  36.091   3.266
59362W        W23570  36.393  35.971   2.201
59363W        W23571  27.048  35.462  11.124
59364W        W23572   4.354  26.607  11.485
59365W        W23573   5.919  27.976  14.007
59366W        W23574  22.600  16.081  14.384
59367W        W23575  26.143  13.778   2.237
59368W        W23576   3.717  38.952  12.873
59369W        W23577  33.071  16.175  14.471
59370W        W23578   4.763   1.426  12.909
59371W        W23579  18.761  30.941  13.493
59372W        W23580  34.916  27.646  11.028
59373W        W23581  15.779  15.580   1.372
59374W        W23582   3.375  22.610   2.222
59375W        W23583   6.705  32.042   4.176
59376W        W23584   7.751  41.358  12.507
59377W        W23585  23.679  33.620  13.343
59378W        W23586  18.745  15.168   0.396
59379W        W23587   3.852  28.530  14.326
59380W        W23588  21.155  18.570   2.261
59381W        W23589  37.975   6.322   0.829
59382W        W23590  29.984   1.797   2.724
59383W        W23591  39.381  17.582  10.957
59384W        W23592  18.786  43.386   2.184
59385W        W23593  42.326  43.493   3.814
59386W        W23594  38.507  28.576  11.553
59387W        W23595   8.820   3.933  10.926
59388W        W23596  13.340  38.515   2.841
59389W        W23597  29.959  39.843   2.388
59390W        W23598  39.856  41.335  14.994
59391W        W23599  16.644  42.919   4.348
59392W        W23600  27.195  14.810  10.430
59393W        W23601  37.934  36.544   0.427
59394W        W23602  28.028  17.065  12.061
59395W        W23603  40.341  26.068  13.985
59396W        W23604   2.910  35.935   2.818
59397W        W23605  13.686  22.557   1.432
59398W        W23606  20.207  17.179  13.050
59399W        W23607  29.015  14.267  11.059
59400W        W23608  35.520  33.387   4.724
59401W        W23609  16.603  13.680   2.336
59402W        W23610  20.678  43.018   2.673
59403W        W23611   2.948   3.275  13.041
59404W        W23612   4.876  21.596  12.966
59405W        W23613  23.522  41.849  11.971
59406W        W23614  32.052  36.566   0.964
59407W        W23615   0.809  26.128   0.953
59408W        W23616   2.295  35.014   4.162
59409W        W23617   3.235  13.806  14.769
59410W        W23618  11.172   8.897   1.827
59411W        W23619  10.820   8.761  11.402
59412W        W23620   6.339  35.449  13.499
59413W        W23621  27.135  27.952  12.453
59414W        W23622  41.828  37.353   2.373
59415W        W23623  34.551  35.892  13.377
59416W        W23624  26.185  29.583  10.424
59417W        W23625  33.903  15.790   1.354
59418W        W23626  31.925  21.671  13.535
59419W        W23627   7.389  43.360   2.288
59420W        W23628  39.982   6.830  10.967
59421W        W23629  17.098   5.246  12.060
59422W        W23630  39.491   8.848   1.871
59423W        W23631  12.214  42.909   0.741
59424W        W23632  30.613  41.357   1.825
59425W        W23633  37.491  34.106  10.501
59426W        W23634  27.025   0.393  14.788
59427W        W23635  26.572  31.908   5.248
59428W        W23636  31.935  31.522   2.663
59429W        W23637  10.157   6.232   3.717
59430W        W23638  27.590  22.569  12.008
59431W        W23639  10.374  37.868   1.376
59432W        W23640  32.967  26.499  10.579
59433W        W23641  24.516  23.618  12.362
59434W        W23642  16.238  26.113  13.902
59435W        W23643  35.381  31.111   0.765
59436W        W23644  28.605  35.079   1.382
59437W        W23645  25.653  35.528  12.906
59438W        W23646  29.961  44.867   1.816
59439W        W23647  34.104  29.658  10.590
59440W        W23648   0.270   4.858  13.488
59441W        W23649   7.816  42.832  11.517
59442W        W23650  18.686  37.881  14.760
59443W        W23651  25.495  31.148  11.873
59444W        W23652  39.397  10.869  14.849
59445W        W23653  38.061   1.830  10.525
59446W        W23654  44.298  16.206   2.754
59447W        W23655  15.816  29.623   3.708
59448W        W23656  29.042  16.159  12.401
59449W        W23657  40.411   0.856   0.890
59450W        W23658  44.873  34.962   1.318
59451W        W23659  37.565   6.324   2.408
59452W        W23660  44.902   5.408   0.271
59453W        W23661   3.452  30.560   3.240
59454W        W23662   5.256  44.770  11.077
59455W        W23663   5.287  36.592  10.580
59456W        W23664  11.204  13.217   2.368
59457W        W23665  28.026  21.138   0.890
59458W        W23666  22.691  10.850   0.244
59459W        W23667  31.011  22.105  11.534
59460W        W23668  25.511  36.861   4.321
59461W        W23669  34.091  19.614   4.348
59462W        W23670  32.513   0.818  14.370
59463W        W23671  10.761  35.037  14.884
59464W        W23672  43.964  18.128  14.911
59465W        W23673  44.975  22.078   1.748
59466W        W23674  42.502  21.262   2.771
59467W        W23675  25.121   0.755  12.349
59468W        W23676  26.679  37.856  11.122
59469W        W23677  30.548  12.731   0.907
59470W        W23678  43.930  17.266   2.402
59471W        W23679  41.321  21.639  10.968
59472W        W23680  36.067  43.464  12.028
59473W        W23681  41.442  38.898  14.013
59474W        W23682  15.163  34.608   1.365
59475W        W23683  28.929  14.810  13.912
59476W        W23684  26.084  18.691  12.444
59477W        W23685   6.914  35.091   2.181
59478W        W23686  14.718  27.983  12.076
59479W        W23687  36.977  42.473   2.207
59480W        W23688  40.962   5.751  13.338
59481W        W23689  39.360  20.242  14.862
59482W        W23690  23.571  31.454   4.699
59483W        W23691  17.305  14.184   4.213
59484W        W23692  20.764  43.899   2.718
59485W        W23693  20.059  26.205  12.006
59486W        W23694  10.346   4.757   5.082
59487W        W23695  11.798   3.219  10.609
59488W        W23696  28.148   3.798   2.709
59489W        W23697  16.158   5.821  12.493
59490W        W23698  25.966  43.974  14.279
59491W        W23699  19.201  14.184   2.303
59492W        W23700   2.354   7.276   5.100
59493W        W23701  19.206   1.251   1.397
59494W        W23702  24.182  21.552   1.226
59495W        W23703   7.802  14.272  10.028
59496W        W23704  26.593  39.389  10.942
59497W        W23705  12.626   5.288   0.809
59498W        W23706   9.214   0.805   0.764
59499W        W23707  36.882  27.642  11.563
59500W        W23708   9.157   5.871   0.785
59501W        W23709  12.810   3.319   3.808
59502W        W23710  40.943  11.309  12.983
59503W        W23711  11.151   7.823  12.402
59504W        W23712  27.493  11.340  11.021
59505W        W23713  12.775  43.975  10.495
59506W        W23714  27.986  42.455   4.696
59507W        W23715  18.599   8.330   0.364
59508W        W23716  30.535  39.501  14.339
59509W        W23717  19.624  10.711  14.937
59510W        W23718  16.108  24.632  11.440
59511W        W23719  20.657  31.121  14.811
59512W        W23720  25.540  17.716   4.756
59513W        W23721  33.017  34.454  13.390
59514W        W23722  23.047  11.752  12.485
59515W        W23723  27.493   4.844  13.861
59516W        W23724  40.968  28.464   2.188
59517W        W23725  39.510  44.491   2.674
59518W        W23726  43.789  16.123   1.443
59519W        W23727  34.401  22.086  13.406
59520W        W23728  26.021  31.632   0.857
59521W        W23729  16.592  32.023  12.342
59522W        W23730  43.423  26.107   2.785
59523W        W23731  33.983  38.427   1.868
59524W        W23732  37.436  21.258   2.182
59525W        W23733  29.547   2.421   3.864
59526W        W23734   6.787   0.268   1.879
59527W        W23735   3.277  34.598   2.304
59528W        W23736  20.642  11.292  10.991
59529W        W23737   9.305   2.350   2.252
59530W        W23738   9.285  32.137  14.886
59531W        W23739  19.060  38.367   3.345
59532W        W23740  33.539  17.654  14.300
59533W        W23741  25.482  30.154   4.246
59534W        W23742  27.107   5.200  11.504
59535W        W23743  42.423  26.956   3.208
59536W        W23744   3.274  29.426   2.733
59537W        W23745  38.555  37.521  12.063
59538W        W23746   6.227  36.864  10.983
59539W        W23747  34.018  40.514  13.909
59540W        W23748  35.531  32.005  11.595
59541W        W23749   1.363   4.888  11.413
59542W        W23750   6.919  42.802   3.266
59543W        W23751  16.305  11.679  12.969
59544W        W23752   9.859   2.399   1.316
59545W        W23753  35.873  22.503  14.869
59546W        W23754  31.541   1.901   4.834
59547W        W23755  21.533  43.945  12.354
59548W        W23756  28.938  38.554  10.494
59549W        W23757  18.259  26.486  11.902
59550W        W23758  19.179  14.200  14.410
59551W        W23759   4.388  44.997  13.945
59552W        W23760  11.867  31.005   0.789
59553W        W23761   1.289   3.437  12.532
59554W        W23762  33.586  41.948   1.216
59555W        W23763  24.552   1.273  11.549
59556W        W23764  30.605  34.481   1.389
59557W        W23765  14.716   4.756  13.952
59558W        W23766  13.176   8.743  12.951
59559W        W23767  21.520  33.450  12.555
59560W        W23768  27.589  13.760   3.645
59561W        W23769  20.626  40.950   4.741
59562W        W23770  42.524   2.230   4.722
59563W        W23771   4.279  14.165  14.307
59564W        W23772  26.105  41.005   4.801
59565W        W23773  25.679  21.622   4.301
59566W        W23774  23.624   5.222   3.202
59567W        W23775   2.827  21.261   0.884
59568W        W23776   3.400  29.933   4.788
59569W        W23777  19.205  41.456  13.380
59570W        W23778   1.945   2.873  12.984
59571W        W23779   4.775  12.851   2.292
59572W        W23780  16.271  26.975  13.906
59573W        W23781   1.449  33.895  11.421
59574W        W23782  28.540  31.072   0.755
59575W        W23783  22.693  16.667   5.618
59576W        W23784  14.209  11.151   3.329
59577W        W23785   2.815  32.513  13.432
59578W        W23786  37.511  40.324   1.854
59579W        W23787  27.474   9.682  14.767
59580W        W23788  32.092   8.816   1.339
59581W        W23789  34.062  13.313   0.761
59582W        W23790  33.952   7.343  12.497
59583W        W23791   3.848  10.305   4.776
59584W        W23792  16.262  11.235  14.985
59585W        W23793   6.226   8.701   3.208
59586W        W23794  41.391   5.381   0.958
59587W        W23795   2.461  31.079   4.266
59588W        W23796  12.196  16.168   1.399
59589W        W23797   4.308  40.982  10.588
59590W        W23798  42.475  15.681   3.150
59591W        W23799   0.956  42.854   9.955
59592W        W23800   0.475  35.912   1.906
59593W        W23801   3.259  13.807  10.928
59594W        W23802  13.831  32.457   1.222
59595W        W23803  29.003  42.472   3.269
59596W        W23804  27.089   4.701   2.717
59597W        W23805  41.028   6.737   2.397
59598W        W23806  32.557  27.032   4.683
59599W        W23807   9.659  31.052   0.483
59600W        W23808  11.670   1.964  13.537
59601W        W23809  23.653   2.318  14.870
59602W        W23810   3.258  36.920  10.008
59603W        W23811  40.968   9.798   4.634
59604W        W23812   8.741  29.565  14.375
59605W        W23813  21.554  31.094  14.000
59606W        W23814  24.529  20.561   3.709
59607W        W23815   8.764   9.335  12.051
59608W        W23816  40.345  38.494  14.013
59609W        W23817   9.391  32.559   0.826
59610W        W23818  41.291   4.884  14.801
59611W        W23819  29.568  22.538  10.615
59612W        W23820  21.058  17.735   1.300
59613W        W23821  30.613  24.011   2.368
59614W        W23822  38.378  31.000   4.755
59615W        W23823   5.430  11.725  14.424
59616W        W23824   6.704  22.148   1.402
59617W        W23825  36.565  27.043  12.018
59618W        W23826  10.859   1.903  14.486
59619W        W23827  28.644  29.456  13.897
59620W        W23828  38.936  12.692  14.857
59621W        W23829   5.862   1.838   3.696
59622W        W23830  39.010   4.296   5.088
59623W        W23831  24.591  27.037   2.808
59624W        W23832  19.698  28.512   0.252
59625W        W23833  37.577  36.905   0.383
59626W        W23834  16.651  25.585   4.739
59627W        W23835  31.469  14.789  14.303
59628W        W23836  43.968  28.067   3.763
59629W        W23837  29.936  18.588  14.965
59630W        W23838  16.736  36.479  14.982
59631W        W23839  36.380  24.221   3.724
59632W        W23840  44.494  43.975   4.223
59633W        W23841  44.864  41.873   2.701
59634W        W23842  34.448  30.477  13.848
59635W        W23843   0.487  43.332  14.436
59636W        W23844  38.831  26.115   4.201
59637W        W23845   4.883   4.300   9.999
59638W        W23846  17.239  23.530   1.211
59639W        W23847   1.241  26.562  11.867
59640W        W23848  31.085   3.951   1.789
59641W        W23849  10.813  18.713   2.868
59642W        W23850  29.565  12.610   2.727
59643W        W23851   1.451  13.232   3.177
59644W        W23852  38.560   7.291  12.071
59645W        W23853  12.726   8.296  13.896
59646W        W23854  25.612   6.241   0.305
59647W        W23855   8.338   8.367   3.727
59648W        W23856  14.236  21.065   3.231
59649W        W23857   0.308  31.981   2.753
59650W        W23858  41.442   3.951  11.083
59651W        W23859  18.271  33.009  11.049
59652W        W23860  38.426  20.633   2.694
59653W        W23861  35.416   0.893   1.791
59654W        W23862  38.378  37.353   1.297
59655W        W23863  11.732  11.164   2.870
59656W        W23864  10.673  18.596  10.428
59657W        W23865  16.622  10.282   1.735
59658W        W23866  28.098  43.832  10.895
59659W        W23867  43.432  33.882   1.811
59660W        W23868   1.379   1.265   0.946
59661W        W23869   1.439   3.929  10.917
59662W        W23870  17.196  10.266  10.436
59663W        W23871   7.839  21.538   1.875
59664W        W23872  25.626  16.286   1.825
59665W        W23873   5.905  12.614   4.836
59666W        W23874  10.801  30.975   0.411
59667W        W23875  16.806  11.251  13.342
59668W        W23876  23.019  12.307  14.419
59669W        W23877  15.729   2.890   0.783
59670W        W23878  21.703   1.386  14.319
59671W        W23879  43.403  12.779   3.823
59672W        W23880  44.329  41.818  13.825
59673W        W23881   6.374  22.626   4.754
59674W        W23882  23.179  31.512   0.821
59675W        W23883  30.640  14.656   3.786
59676W        W23884  18.261  10.171  11.505
59677W        W23885   2.460   8.216  14.285
59678W        W23886  36.067  10.169   0.793
59679W        W23887  30.946  18.644   4.300
59680W        W23888  44.276   7.732  12.856
59681W        W23889  15.716  32.887   0.736
59682W        W23890  14.767  26.568   5.081
59683W        W23891  33.044  28.966  13.822
59684W        W23892  35.996  17.203   4.261
59685W        W23893  12.768  23.619   1.935
59686W        W23894  20.133  29.643   4.181
59687W        W23895   9.200   9.875   2.186
59688W        W23896  24.567   7.221  13.319
59689W        W23897  27.564  29.950   0.781
59690W        W23898  25.198  39.314   4.820
59691W        W23899  17.690  22.542  10.899
59692W        W23900   0.862  23.218   4.630
59693W        W23901  31.539   1.477  14.772
59694W        W23902  17.099  37.370   1.804
59695W        W23903  23.494  14.256  14.916
59696W        W23904  13.226  16.191   4.145
59697W        W23905   4.826  18.702  11.092
59698W        W23906  35.013  17.278   2.348
59699W        W23907  33.113  27.481  14.479
59700W        W23908  24.602  36.880   0.913
59701W        W23909  30.055  24.216  14.362
59702W        W23910   7.885   7.871   4.642
59703W        W23911  10.780  40.314  10.016
59704W        W23912  16.608  11.844  10.544
59705W        W23913  43.960  25.198   1.851
59706W        W23914  43.271  28.037  13.812
59707W        W23915  10.293  29.173   3.328
59708W        W23916  23.559  29.631  14.486
59709W        W23917  34.560  33.035  10.405
59710W        W23918  12.770  22.085   2.312
59711W        W23919   1.892   7.677  11.068
59712W        W23920  29.529  12.839   0.377
59713W        W23921  25.697   6.243   2.399
59714W        W23922   5.256  17.582   3.766
59715W        W23923  27.029   8.763   3.804
59716W        W23924  25.122   0.489   3.743
59717W        W23925  23.711   6.806   1.793
59718W        W23926  12.183  44.335   3.319
59719W        W23927   6.228  21.533   1.385
59720W        W23928   2.881  32.968  10.023
59721W        W23929  38.552  19.163  14.929
59722W        W23930  31.130  12.693  13.925
59723W        W23931  38.560  34.413  12.520
59724W        W23932  25.482  30.034   1.388
59725W        W23933   9.699  36.427   1.297
59726W        W23934   3.840  40.361   4.773
59727W        W23935  12.345  16.187   4.790
59728W        W23936  32.044   2.920  14.917
59729W        W23937  13.135  21.673  11.859
59730W        W23938   8.877  26.034   0.731
59731W        W23939  31.915  31.023   5.317
59732W        W23940  21.758   1.776  13.495
59733W        W23941   0.369  42.509   4.644
59734W        W23942  10.251   7.260   5.165
59735W        W23943  13.285   8.375  11.517
59736W        W23944   3.439   6.682   3.194
59737W        W23945  40.011  39.890   4.305
59738W        W23946   1.774  20.756  11.884
59739W        W23947  10.702  30.480  14.308
59740W        W23948   7.856   3.780  13.972
59741W        W23949   4.290  15.179  11.888
59742W        W23950  13.187  21.646   0.253
59743W        W23951  21.167   6.352   3.738
59744W        W23952   2.302  36.386   2.325
59745W        W23953   1.470  20.722  14.339
59746W        W23954   1.257  38.370   3.781
59747W        W23955  30.623  12.855  11.396
59748W        W23956  40.486   4.800   5.107
59749W        W23957  43.828  36.859   3.325
59750W        W23958   6.860  20.035  11.604
59751W        W23959  40.834  10.209   2.243
59752W        W23960  23.582  19.244  10.573
59753W        W23961  24.006  18.704  10.622
59754W        W23962  30.048  33.038   3.842
59755W        W23963  25.039  44.446   2.710
59756W        W23964  26.513  40.821  12.394
59757W        W23965  23.202  21.031   3.679
59758W        W23966  26.037   0.984  14.475
59759W        W23967  14.141   4.741  12.395
59760W        W23968  22.602  38.933   1.844
59761W        W23969   9.333  36.081  10.940
59762W        W23970  22.733   4.344  10.449
59763W        W23971  32.116  27.635  14.943
59764W        W23972  18.259  13.835  14.872
59765W        W23973  37.518  28.094  10.480
59766W        W23974  35.923   8.230   3.848
59767W        W23975  20.630  14.719  14.906
59768W        W23976  30.068  28.544   0.799
59769W        W23977   6.232  16.267  10.555
59770W        W23978  15.180  30.569   4.756
59771W        W23979  19.668  42.789   4.718
59772W        W23980   1.305  33.485  12.522
59773W        W23981  43.467  17.166   2.343
59774W        W23982  31.627   4.405  14.015
59775W        W23983  26.566   9.342  12.434
59776W        W23984  15.217  35.430  13.883
59777W        W23985  23.098  12.255  11.094
59778W        W23986   5.702  34.034  13.879
59779W        W23987  20.664  27.119   1.695
59780W        W23988  14.630  28.961   2.664
59781W        W23989  21.691  21.713  12.020
59782W        W23990   5.828  41.503  10.943
59783W        W23991   3.434  22.064  11.096
59784W        W23992  14.687  33.430   4.790
59785W        W23993  19.264  34.083   4.623
59786W        W23994   0.861  40.306   1.804
59787W        W23995  37.357  36.446   1.428
59788W        W23996  42.460  23.027   2.818
59789W        W23997  35.899  10.832  14.407
59790W        W23998  16.677  39.845  13.011
59791W        W23999  28.649  30.492   0.379
59792W        W24000  31.902  29.449   0.275
59793W        W24001   8.741  42.297  10.538
59794W        W24002  36.374   9.685  13.010
59795W        W24003  40.379  24.139   3.316
59796W        W24004  39.404  24.687  13.005
59797W        W24005  24.989  42.920  14.952
59798W        W24006  38.955   9.378  14.431
59799W        W24007  15.252  38.489   2.696
59800W        W24008  11.149  26.191  12.896
59801W        W24009  27.629   6.303   0.398
59802W        W24010  23.726  41.471  10.986
59803W        W24011  40.436  33.975   1.450
59804W        W24012  39.905  39.901   0.480
59805W        W24013  43.931  26.538   1.727
59806W        W24014  14.112  25.016  11.970
59807W        W24015  28.510  34.571  10.566
59808W        W24016  36.034  34.903  12.528
59809W        W24017  15.700  29.004  10.619
59810W        W24018  15.715   3.806   1.233
59811W        W24019  44.899  13.321  11.056
59812W        W24020  28.060  40.504   1.730
59813W        W24021  18.637  23.723   0.781
59814W        W24022  24.086  22.540   4.708
59815W        W24023  42.485  16.692   2.402
59816W        W24024  41.333   5.921  11.376
59817W        W24025  41.825  37.366  13.548
59818W        W24026   9.836  20.161  11.584
59819W        W24027   8.275  26.165   1.733
59820W        W24028  12.705  10.681  12.384
59821W        W24029  33.615  42.012   0.344
59822W        W24030  35.854  14.803   3.661
59823W        W24031  37.931   8.204  14.796
59824W        W24032  11.766  43.915   2.186
59825W        W24033  31.504  27.514  12.571
59826W        W24034  42.330   8.252   2.860
59827W        W24035  16.282   4.798   4.355
59828W        W24036  30.962   5.914   3.666
59829W        W24037  36.923   9.346  11.423
59830W        W24038  22.230  11.850  13.951
59831W        W24039  14.101  19.739   3.731
59832W        W24040   7.247  40.411   3.232
59833W        W24041   3.954   6.195  12.466
59834W        W24042   5.792  22.675   2.830
59835W        W24043  31.977  21.701   3.666
59836W        W24044  31.531   6.701   4.680
59837W        W24045  23.232   7.819   1.761
59838W        W24046  38.882  27.482  11.546
59839W        W24047  31.413  30.441   4.119
59840W        W24048  18.122   9.732  12.563
59841W        W24049   7.279  20.075  10.578
59842W        W24050  29.159  44.388   2.256
59843W        W24051   9.771  43.864   3.863
59844W        W24052  43.447  43.290   1.225
59845W        W24053  34.072  27.173  13.360
59846W        W24054  25.204  12.136  13.043
59847W        W24055  25.617  42.311  10.638
59848W        W24056  37.389  41.808  14.347
59849W        W24057  29.614  37.343  10.621
59850W        W24058  12.191  22.523   1.283
59851W        W24059   4.884  22.551   2.873
59852W        W24060  43.341  42.972  10.043
59853W        W24061   0.399  15.708  13.465
59854W        W24062  16.236  14.649  11.401
59855W        W24063  33.076  36.895   2.885
59856W        W24064  29.470  33.589   1.215
59857W        W24065  16.671  29.027   2.843
59858W        W24066  33.485  34.979  13.866
59859W        W24067   8.844  22.039  14.994
59860W        W24068  32.459  36.016  10.417
59861W        W24069  37.473  12.271  13.355
59862W        W24070  26.081  25.588   0.354
59863W        W24071  26.202  28.634   1.878
59864W        W24072  21.183  36.522   0.922
59865W        W24073  25.068  34.502  13.470
59866W        W24074  37.353   1.920  12.983
59867W        W24075  10.264  38.557  13.381
59868W        W24076  30.047   8.249  10.435
59869W        W24077  38.848   0.834   1.292
59870W        W24078  28.073   8.679   3.700
59871W        W24079  33.380  19.612   5.263
59872W        W24080  32.976   4.851  11.046
59873W        W24081  34.569  16.191   4.181
59874W        W24082  39.933   1.882   4.621
59875W        W24083  36.547  19.269   1.754
59876W        W24084   6.192  30.457   3.710
59877W        W24085  43.291  19.768  12.428
59878W        W24086  34.918   1.978  11.582
59879W        W24087  20.101  32.965   0.785
59880W        W24088  40.318  44.504  10.104
59881W        W24089  34.067  43.384  11.459
59882W        W24090  16.729  25.056  11.383
59883W        W24091  26.562  14.728  14.941
59884W        W24092   5.915  36.874   1.233
59885W        W24093  41.971  29.971   2.363
59886W        W24094  20.567  17.748  14.859
59887W        W24095  32.066  25.165   0.250
59888W        W24096  42.397   6.360   3.729
59889W        W24097  11.289  17.230  11.447
59890W        W24098   0.959  18.605   1.886
59891W        W24099  29.045  26.694  13.419
59892W        W24100  39.490   6.332  11.976
59893W        W24101  33.126   9.253  12.411
59894W        W24102  40.899  25.060   2.320
59895W        W24103  33.070  38.068  14.897
59896W        W24104  37.361  21.543  12.363
59897W        W24105  38.964   7.224  14.864
59898W        W24106  32.995  33.986  13.365
59899W        W24107  11.292  28.088  13.832
59900W        W24108   4.351  24.586   4.644
59901W        W24109   7.855  16.709  11.606
59902W        W24110   6.332   8.680   2.357
59903W        W24111  26.180   3.445   4.768
59904W        W24112  31.023  34.588  12.930
59905W        W24113  10.353  18.546  11.120
59906W        W24114  27.029  36.983   3.750
59907W        W24115  23.181  24.582  14.389
59908W        W24116  38.406  30.423  12.479
59909W        W24117  31.022  24.181   2.273
59910W        W24118  23.188  42.285   4.211
59911W        W24119  10.676  37.056   0.410
59912W        W24120  17.240  16.103   0.296
59913W        W24121  14.172   5.306  14.805
59914W        W24122  17.082   3.455  11.872
59915W        W24123  19.743  37.048   4.240
59916W        W24124  29.968   2.464  13.500
59917W        W24125   6.713  10.637   4.245
59918W        W24126  26.043   8.205   4.722
59919W        W24127  18.156  24.175   4.116
59920W        W24128  26.126  30.512  12.989
59921W        W24129   7.752  14.665  11.044
59922W        W24130  27.972  13.752  14.337
59923W        W24131   7.715  14.099   3.383
59924W        W24132  16.181  27.991  11.065
59925W        W24133  35.540  35.040  14.496
59926W        W24134  31.564  32.090   0.756
59927W        W24135  27.525   0.331  10.452
59928W        W24136   6.263   4.701  12.491
59929W        W24137  34.612  37.896  11.604
59930W        W24138  18.689  24.643   3.211
59931W        W24139  11.774  22.076  12.385
59932W        W24140  36.898  24.583   3.641
59933W        W24141  43.425  16.728   0.730
59934W        W24142  30.012   0.289   3.368
59935W        W24143  29.159   5.269   3.717
59936W        W24144  34.919  12.635   2.833
59937W        W24145  19.260  44.432   3.655
59938W        W24146   3.758  13.638   3.225
59939W        W24147  14.833   3.809  13.815
59940W        W24148  34.536  22.619   2.813
59941W        W24149  29.930   7.759  13.049
59942W        W24150   1.779  37.056   1.329
59943W        W24151  12.655  14.237  13.312
59944W        W24152  14.817  43.983  14.316
59945W        W24153  35.868  12.792   0.780
59946W        W24154  24.988  21.712  11.869
59947W        W24155  13.298  36.371  12.441
59948W        W24156  16.661   3.238  12.439
59949W        W24157  43.919  38.359   0.432
59950W        W24158   3.875  29.451  11.479
59951W        W24159   0.323  39.366   2.877
59952W        W24160  34.438   9.357   1.853
59953W        W24161  29.456   5.400  11.891
59954W        W24162  15.773  31.537   5.244
59955W        W24163  23.514  42.378  10.951
59956W        W24164  25.102  23.637  13.855
59957W        W24165  17.744  18.102  11.920
59958W        W24166   9.383   4.741  11.373
59959W        W24167  26.620   4.287  13.308
59960W        W24168  14.592  44.446  12.568
59961W        W24169  21.620   9.782  13.900
59962W        W24170  17.636  18.767   4.190
59963W        W24171  41.845   0.253  11.034
59964W        W24172  44.286  38.881  14.411
59965W        W24173  30.958  19.771  11.487
59966W        W24174  18.056  15.201   2.830
59967W        W24175   3.791  11.165  13.397
59968W        W24176   7.325  15.729   0.447
59969W        W24177  21.142   7.803   4.611
59970W        W24178  31.541  42.451  11.080
59971W        W24179  26.071  30.562  13.487
59972W        W24180   5.419   1.274  12.951
59973W        W24181  44.357  25.606   0.838
59974W        W24182   1.804   2.825  12.412
59975W        W24183  44.962  37.074   1.292
59976W        W24184  10.713  13.781  13.043
59977W        W24185  25.502   5.863  11.556
59978W        W24186  38.513  20.572   1.286
59979W        W24187  24.602  43.818  12.948
59980W        W24188  37.062  17.702   3.846
59981W        W24189  38.973  12.335   1.731
59982W        W24190  44.760  26.673  14.448
59983W        W24191  18.733  22.714  14.379
59984W        W24192  38.952  11.747   3.194
59985W        W24193  19.142   2.332  12.086
59986W        W24194  38.450   6.733  10.480
59987W        W24195  31.530  36.507  10.439
59988W        W24196  22.114  16.113   1.324
59989W        W24197  10.802  34.924  13.424
59990W        W24198  18.599  40.891   1.366
59991W        W24199   9.864  16.172   1.779
59992W        W24200  34.467  34.433   0.399
59993W        W24201  16.695  25.555   1.716
59994W        W24202  44.774  43.965   2.712
59995W        W24203  40.802   8.285  11.397
59996W        W24204  20.271  38.838   2.280
59997W        W24205  40.917   4.288  14.449
59998W        W24206   4.326  17.615   1.378
59999W        W24207  41.000  35.066  13.998
60000W        W24208  31.598  25.081  11.543
60001W        W24209  24.520   8.256   3.175
60002W        W24210  42.829   0.353  13.882
60003W        W24211  43.783  10.647  12.447
60004W        W24212  34.899   9.197  12.387
60005W        W24213  44.994  13.173  12.925
60006W        W24214   5.716   3.233  14.844
60007W        W24215   2.394  18.145   4.652
60008W        W24216  18.786   4.938   3.737
60009W        W24217  11.648  17.695  12.472
60010W        W24218  19.185   1.431  11.915
60011W        W24219  33.411  40.923  10.095
60012W        W24220  39.416  16.770   0.410
60013W        W24221  41.039   9.747   1.886
60014W        W24222  39.914  22.169  14.346
60015W        W24223  36.074  16.282  12.358
60016W        W24224  29.143  28.594   4.214
60017W        W24225   6.212  32.534  12.356
60018W        W24226  17.307  22.124  10.412
60019W        W24227  38.345  28.975   4.189
60020W        W24228  14.729   6.353   3.159
60021W        W24229  16.287   3.443   3.371
60022W        W24230  13.807  15.191  13.060
60023W        W24231  21.055   0.828  13.316
60024W        W24232  21.569  32.035  11.520
60025W        W24233  11.677  34.445  12.366
60026W        W24234  44.937  11.307   0.247
60027W        W24235   6.819  14.229  11.444
60028W        W24236  22.235  28.126  12.904
60029W        W24237  44.432  35.975  11.402
60030W        W24238  15.287  35.073  13.428
60031W        W24239  41.797   0.764   4.698
60032W        W24240  14.683  40.887  11.968
60033W        W24241  38.469   5.729  11.376
60034W        W24242  19.081  19.084  10.908
60035W        W24243  11.318  23.671  10.581
60036W        W24244  34.088   9.354  13.530
60037W        W24245  13.189  27.663   2.902
60038W        W24246  16.572  14.671  13.841
60039W        W24247   3.804  29.556   3.205
60040W        W24248  34.566  22.570  12.409
60041W        W24249   4.446  38.934  12.528
60042W        W24250  20.623  10.722  10.939
60043W        W24251  31.936   0.432   3.687
60044W        W24252   5.717   7.298  14.824
60045W        W24253  11.127   7.333   2.190
60046W        W24254  26.007  44.828  14.841
60047W        W24255  23.616  11.269  13.879
60048W        W24256  11.683   4.714  12.538
60049W        W24257   3.395  18.659  11.447
60050W        W24258  29.928  42.865   1.826
60051W        W24259  11.711  34.521   4.694
60052W        W24260  29.029  19.605   0.352
60053W        W24261  21.247  29.172  12.993
60054W        W24262  13.695   9.331   3.282
60055W        W24263  44.990  26.525   4.613
60056W        W24264  16.645  36.863   0.418
60057W        W24265  23.582  11.695  12.560
60058W        W24266  16.569  17.756  13.480
60059W        W24267  19.721  31.622  12.485
60060W        W24268  29.666  15.582  11.092
60061W        W24269  20.659   0.847  14.346
60062W        W24270   5.418  42.965   4.195
60063W        W24271  29.468   2.360   2.834
60064W        W24272   4.796  42.894  11.428
60065W        W24273  21.743   7.820  12.072
60066W        W24274  33.013  41.966  11.518
60067W        W24275   3.407  30.651   4.129
60068W        W24276  26.119  43.385  13.439
60069W        W24277  36.457  25.058   3.335
60070W        W24278  15.807  11.818   2.312
60071W        W24279   5.290  11.783   0.483
60072W        W24280  14.721  17.636   3.798
60073W        W24281  32.088   9.651  11.442
60074W        W24282   3.219  12.711  14.869
60075W        W24283  34.974  33.012   4.761
60076W        W24284  38.018  19.284   9.934
60077W        W24285  11.739   6.187   5.206
60078W        W24286  35.044  27.458   1.806
60079W        W24287  44.309  23.124   0.916
60080W        W24288  33.982  44.495  11.507
60081W        W24289  44.941  24.692  14.391
60082W        W24290  25.178  18.280  10.482
60083W        W24291  14.696  42.944  11.385
60084W        W24292  18.101  44.365  13.331
60085W        W24293  35.921  31.590  14.450
60086W        W24294  17.115   0.807   2.225
60087W        W24295  40.445  35.092   4.780
60088W        W24296   1.373  42.961   3.723
60089W        W24297   3.768  20.136   4.178
60090W        W24298   7.287   5.903   2.298
60091W        W24299   6.903  29.545  13.377
60092W        W24300  26.205  26.955  11.977
60093W        W24301  25.152  44.787   0.454
60094W        W24302  40.966   6.418  13.875
60095W        W24303  29.984  19.553   4.117
60096W        W24304  17.103  22.510  13.021
60097W        W24305  25.138  21.201  13.030
60098W        W24306  44.388   2.240   3.684
60099W        W24307  44.849   5.786   4.801
60100W        W24308  30.967  23.024   2.830
60101W        W24309  12.633  30.442   3.202
60102W        W24310  24.643  44.462   3.791
60103W        W24311  10.870   7.407  10.619
60104W        W24312  14.170  25.083   0.318
60105W        W24313  28.980  12.221   2.227
60106W        W24314  30.650  16.299   1.746
60107W        W24315  10.171  32.582   3.837
60108W        W24316  23.524  40.322   1.830
60109W        W24317  12.160  42.435  12.872
60110W        W24318  30.151  13.802  10.142
60111W        W24319  39.989  31.627  11.533
60112W        W24320  35.895   7.767   3.349
60113W        W24321   5.768   0.320   2.900
60114W        W24322  38.855  28.039   4.144
60115W        W24323  19.612  35.572   2.281
60116W        W24324  27.682  20.716  14.400
60117W        W24325  38.557  34.595   2.242
60118W        W24326  44.276  37.580  12.399
60119W        W24327  19.149  29.937   4.304
60120W        W24328   7.806   1.824  12.888
60121W        W24329  34.919  22.039   2.201
60122W        W24330  36.513  15.142  10.557
60123W        W24331  16.760   5.270   1.786
60124W        W24332   9.866   1.463   3.698
60125W        W24333  17.077  31.089   3.226
60126W        W24334  14.663   8.177   4.622
60127W        W24335  17.108  21.130  12.919
60128W        W24336  16.645   8.281   4.789
60129W        W24337  23.016  28.639   4.187
60130W        W24338  41.385  41.390   1.920
60131W        W24339  34.600  19.771  12.380
60132W        W24340  15.798  33.955   3.863
60133W        W24341  12.312  12.691  10.531
60134W        W24342  40.454   8.266   4.222
60135W        W24343  15.241   1.438   3.632
60136W        W24344   5.860  25.503  10.456
60137W        W24345  39.928  22.600  14.285
60138W        W24346  42.925  28.073  10.991
60139W        W24347  14.748  44.308   1.901
60140W        W24348  43.435  38.851  11.855
60141W        W24349  27.016  28.061   0.821
60142W        W24350  17.128  23.542   4.734
60143W        W24351  20.272  19.722  13.878
60144W        W24352  11.722   3.313   4.169
60145W        W24353  42.880  11.249   2.710
60146W        W24354  22.175  10.738   3.340
60147W        W24355  21.541  22.515   0.435
60148W        W24356  23.674  31.435  10.467
60149W        W24357   6.183  32.142   2.189
60150W        W24358  32.114  25.644  12.084
60151W        W24359  41.025  14.743   3.825
60152W        W24360  41.859  24.567  11.488
60153W        W24361  24.150  39.999  12.571
60154W        W24362  17.752   8.743   4.350
60155W        W24363  41.922  27.170   2.715
60156W        W24364   8.200  30.471  13.363
60157W        W24365  33.918   6.897  12.827
60158W        W24366  29.986   6.893  11.554
60159W        W24367  29.464  38.553  14.993
60160W        W24368  39.949  42.801  10.441
60161W        W24369  17.117  39.441   3.746
60162W        W24370  21.644  15.746  11.934
60163W        W24371   7.843  22.193   2.250
60164W        W24372  40.053  24.653   1.899
60165W        W24373  20.588  34.091  13.816
60166W        W24374  25.550  39.950  14.907
60167W        W24375  14.619  43.328  11.995
60168W        W24376   9.248  27.482  12.426
60169W        W24377  10.658  17.272   3.676
60170W        W24378  17.205  13.334   4.738
60171W        W24379   5.329  30.142  11.965
60172W        W24380  18.608   7.263   0.946
60173W        W24381  14.241  26.548  13.323
60174W        W24382  13.187  11.845   0.915
60175W        W24383   6.212  10.284   4.639
60176W        W24384  40.027  28.124  11.878
60177W        W24385  14.265   9.728   4.184
60178W        W24386  26.476  28.039  12.439
60179W        W24387  40.415  10.367   9.983
60180W        W24388   9.299   0.822   1.920
60181W        W24389  35.905  44.869  13.426
60182W        W24390  40.309  33.878   4.748
60183W        W24391  41.404  21.575  14.297
60184W        W24392  34.901  23.729   2.688
60185W        W24393  44.896  37.547   2.777
60186W        W24394  42.317  44.815   2.866
60187W        W24395   1.777   5.328  13.497
60188W        W24396  21.183  30.466  10.930
60189W        W24397  39.956  30.162   1.416
60190W        W24398  25.132   0.873   4.168
60191W        W24399  33.455  16.216  12.393
60192W        W24400  21.673  10.164   4.330
60193W        W24401   2.328  14.672   3.283
60194W        W24402  40.858  14.597  13.011
60195W        W24403  22.200  21.605  12.946
60196W        W24404   0.816  13.203   0.384
60197W        W24405  39.989  40.369   2.790
60198W        W24406  39.405  26.463   2.850
60199W        W24407  44.914  30.469  13.478
60200W        W24408  22.597  11.285   0.414
60201W        W24409  42.013   4.428  13.868
60202W        W24410  39.493  38.995   4.689
60203W        W24411  38.069  26.477  11.072
60204W        W24412  38.530  28.138  14.280
60205W        W24413  24.630  41.912   2.903
60206W        W24414  25.186   0.454   2.706
60207W        W24415  33.400  40.903  11.461
60208W        W24416   8.803  34.957   1.308
60209W        W24417   9.292  21.019  11.400
60210W        W24418  37.532  19.569   1.434
60211W        W24419  34.881   6.766  14.946
60212W        W24420  36.491  31.542   1.827
60213W        W24421  15.293  39.391   3.297
60214W        W24422  20.228  26.988   0.246
60215W        W24423   0.395  17.095  13.013
60216W        W24424  43.911  27.557  10.450
60217W        W24425  22.019  23.129   2.735
60218W        W24426  40.978   4.944   1.741
60219W        W24427  24.112  23.032   3.258
60220W        W24428  16.596   3.343   2.674
60221W        W24429  27.965  17.123   2.769
60222W        W24430  15.779  32.412  12.066
60223W        W24431  13.339  31.983  13.417
60224W        W24432   5.266   2.821   3.836
60225W        W24433  24.489  24.716  12.475
60226W        W24434  25.133  14.626   3.382
60227W        W24435  43.832   4.374   3.224
60228W        W24436  35.106  41.531   4.316
60229W        W24437  42.893  39.526  14.895
60230W        W24438   3.395  42.822   0.276
60231W        W24439  41.941  33.945   0.854
60232W        W24440  15.765  23.041   3.362
60233W        W24441  10.272  12.320  10.529
60234W        W24442  19.553  32.014   3.721
60235W        W24443   0.259  34.918   0.290
60236W        W24444  12.198  32.636  14.906
60237W        W24445  10.794  39.821   0.272
60238W        W24446  31.599   3.908   1.393
60239W        W24447   3.889  16.201  12.012
60240W        W24448   3.387   0.327   2.337
60241W        W24449  24.223   8.865  13.467
60242W        W24450  26.002  27.621   3.156
60243W        W24451  20.669   3.216  13.954
60244W        W24452  32.136  28.073   5.084
60245W        W24453  24.516  38.981  12.066
60246W        W24454  10.293  22.725  11.107
60247W        W24455   3.896  28.030   4.280
60248W        W24456   0.809  29.983  12.468
60249W        W24457  19.159  31.633  14.478
60250W        W24458  28.484  21.144   4.176
60251W        W24459  23.717  13.205  11.053
60252W        W24460  34.581  25.152  13.328
60253W        W24461  12.328  25.668   1.711
60254W        W24462  38.534  28.034  13.857
60255W        W24463  26.514  18.643  14.017
60256W        W24464  42.451  11.775  13.439
60257W        W24465  35.470   7.400  13.011
60258W        W24466  40.523  32.051  12.868
60259W        W24467  41.477  34.012  12.083
60260W        W24468   8.188   3.297  14.482
60261W        W24469   5.839   2.881  13.853
60262W        W24470  40.984  31.551  11.487
60263W        W24471  30.015  28.484   2.733
60264W        W24472  24.031  43.790  14.417
60265W        W24473  23.021   6.364  14.330
60266W        W24474  14.162   7.773   0.386
60267W        W24475  36.470  24.559   4.351
60268W        W24476  43.766  38.873   4.736
60269W        W24477  32.943   9.350   0.853
60270W        W24478   3.234   9.211  13.540
60271W        W24479  41.518  16.759   0.744
60272W        W24480  29.579   7.834  14.505
60273W        W24481  42.975  26.165   4.738
60274W        W24482  32.013   2.855  14.370
60275W        W24483  25.123  43.363   0.373
60276W        W24484  10.281  24.602  10.453
60277W        W24485  19.103  38.890   3.170
60278W        W24486   0.425   9.152   1.282
60279W        W24487   1.272  20.240  14.939
60280W        W24488   5.845   0.300  10.931
60281W        W24489   8.186  41.498  12.987
60282W        W24490  30.623  23.037  14.279
60283W        W24491  34.904  32.899  14.001
60284W        W24492  20.161  21.125   0.779
60285W        W24493  15.219  25.697  13.310
60286W        W24494  42.829  34.051   4.820
60287W        W24495  23.069  22.116  10.405
60288W        W24496   2.366  12.319  13.539
60289W        W24497   5.820  16.194  14.435
60290W        W24498  18.593  11.800  12.923
60291W        W24499  36.099   5.294   0.950
60292W        W24500   9.819  14.313  12.082
60293W        W24501  26.998  41.818  14.368
60294W        W24502  16.782  20.617   0.934
60295W        W24503  34.497  29.109  13.925
60296W        W24504  20.536  34.449   1.242
60297W        W24505   9.654  22.580  14.328
60298W        W24506  24.554  42.437  10.595
60299W        W24507  39.326  36.848  12.346
60300W        W24508   1.948  10.212  14.328
60301W        W24509  39.527   2.227   2.290
60302W        W24510   6.684   2.422  11.418
60303W        W24511  44.452  32.890  12.968
60304W        W24512   2.244  25.606  13.909
60305W        W24513  16.147  36.350   4.259
60306W        W24514  21.628  38.894  13.045
60307W        W24515   7.774  11.249   1.801
60308W        W24516  39.549  28.057   2.410
60309W        W24517   1.890  35.070   0.824
60310W        W24518  44.947  12.612  14.010
60311W        W24519  20.722  41.448  13.054
60312W        W24520  42.839  37.855   2.692
60313W        W24521  17.183  36.069   2.666
60314W        W24522  11.272  24.162  13.867
60315W        W24523  33.010  32.061  10.979
60316W        W24524  39.813  21.698  13.865
60317W        W24525  40.479  17.794   3.770
60318W        W24526  27.037   4.749   0.264
60319W        W24527  13.317  25.643   2.901
60320W        W24528  35.968   7.679  10.570
60321W        W24529  18.558  22.598  10.443
60322W        W24530   3.337  37.385   1.281
60323W        W24531   7.831  28.939  14.867
60324W        W24532  39.464   7.234   3.331
60325W        W24533  37.472   3.837  12.488
60326W        W24534  40.998  43.785  11.513
60327W        W24535   2.771   9.375  11.422
60328W        W24536  33.080  13.203   0.742
60329W        W24537  23.580  33.430   1.724
60330W        W24538  36.988  43.917   1.259
60331W        W24539   3.898  29.993  14.842
60332W        W24540  32.607  28.054   0.408
60333W        W24541  14.699   3.825  12.397
60334W        W24542  37.399  42.434  12.031
60335W        W24543  18.198  36.929   1.346
60336W        W24544  41.916  43.984  11.057
60337W        W24545  35.964  29.022   4.145
60338W        W24546  32.135   3.925   0.411
60339W        W24547  27.181  10.757  12.947
60340W        W24548  42.787  31.611  12.571
60341W        W24549   4.405  19.720   1.786
60342W        W24550  32.453   5.212  10.505
60343W        W24551  12.610  17.103   4.276
60344W        W24552   3.372  30.959  14.895
60345W        W24553   4.403  36.562   2.305
60346W        W24554  16.769   1.425  13.541
60347W        W24555  34.084   4.888   0.860
60348W        W24556  39.355  29.922   0.419
60349W        W24557  21.259   2.839   4.309
60350W        W24558  28.514  43.877  10.461
60351W        W24559  12.326  23.688   0.945
60352W        W24560  17.302  44.326   3.667
60353W        W24561   2.911  25.086  10.540
60354W        W24562  18.068  19.148  10.016
60355W        W24563  28.013  28.553  12.482
60356W        W24564   6.193  17.788  14.878
60357W        W24565  10.345  13.626  14.304
60358W        W24566  43.312  40.036  12.073
60359W        W24567  19.645  29.524  11.974
60360W        W24568  44.964  29.645   2.749
60361W        W24569  26.685  36.474   2.840
60362W        W24570  32.057   3.811  10.520
60363W        W24571  23.627  31.500  13.940
60364W        W24572   1.326   6.188  12.989
60365W        W24573  36.918  43.353  14.294
60366W        W24574  20.712  38.017  13.437
60367W        W24575  18.762  18.715  14.514
60368W        W24576  26.572  31.591  10.610
60369W        W24577  21.138  16.773   1.433
60370W        W24578   7.890  27.460   3.855
60371W        W24579  31.444  12.743   0.776
60372W        W24580  35.500  15.231   4.623
60373W        W24581  16.669  27.481   0.324
60374W        W24582  30.915  32.057  11.118
60375W        W24583  32.512  11.326   4.141
60376W        W24584  39.425  32.096   4.775
60377W        W24585  30.945  35.064  11.037
60378W        W24586  23.081  33.006  10.615
60379W        W24587  42.511  12.180  13.043
60380W        W24588  13.232   0.454  11.501
60381W        W24589  40.803  14.187   4.212
60382W        W24590  42.313   7.259   1.736
60383W        W24591  18.214  17.196   0.257
60384W        W24592  30.055  11.215  11.403
60385W        W24593  40.952  22.604   1.262
60386W        W24594  41.425  24.581  12.029
60387W        W24595  44.947   4.253  11.024
60388W        W24596  38.447  37.875   0.462
60389W        W24597  33.116  27.095   1.380
60390W        W24598  34.949   4.325   2.856
60391W        W24599  25.157  10.247  12.496
60392W        W24600   2.899  40.395  11.053
60393W        W24601   0.920  30.076   0.898
60394W        W24602   9.851  15.704  13.930
60395W        W24603   4.378  10.718  13.886
60396W        W24604  18.266   9.707   1.834
60397W        W24605  42.308  44.831   0.803
60398W        W24606   2.372  39.383   2.392
60399W        W24607  39.398  32.975  14.488
60400W        W24608   1.376  30.094   4.306
60401W        W24609  11.819   9.354  12.388
60402W        W24610  28.951  31.085  13.503
60403W        W24611  15.638  31.084   2.417
60404W        W24612  21.580  13.764   0.415
60405W        W24613  37.487  26.690  11.401
60406W        W24614  33.403  27.483   4.627
60407W        W24615  12.193  35.502   4.320
60408W        W24616  42.510  12.746   0.254
60409W        W24617   7.689  23.660   1.803
60410W        W24618  22.113   6.279   3.660
60411W        W24619  38.058  19.271   3.870
60412W        W24620   6.200  32.534  10.907
60413W        W24621  17.106  41.793  13.440
60414W        W24622  36.475  31.462   4.728
60415W        W24623  13.139  16.751   3.645
60416W        W24624   8.839   9.182  14.846
60417W        W24625   5.217  32.494   4.647
60418W        W24626  12.636   5.785   1.865
60419W        W24627   4.928   5.790  12.933
60420W        W24628  16.216  22.018  11.510
60421W        W24629  20.136  19.682  11.091
60422W        W24630  11.288  35.062  13.817
60423W        W24631  26.092  23.679   2.837
60424W        W24632  28.104  37.452  12.564
60425W        W24633  35.071  12.143   1.220
60426W        W24634  10.267  23.084   2.876
60427W        W24635  38.980  28.124   2.793
60428W        W24636   3.255  39.451  14.455
60429W        W24637  40.377  34.486   2.768
60430W        W24638  12.285  15.162  14.933
60431W        W24639  24.010   7.190  12.823
60432W        W24640  33.048  24.186  11.558
60433W        W24641   8.194  15.713  13.816
60434W        W24642   6.888  23.715  13.927
60435W        W24643  23.620  28.082   2.817
60436W        W24644  33.453  22.539   9.939
60437W        W24645  12.270  35.913   4.722
60438W        W24646   2.897  10.736   1.252
60439W        W24647  23.698  17.277  14.416
60440W        W24648  17.112  14.702  13.007
60441W        W24649  27.018   0.282  11.499
60442W        W24650   9.654  11.368   0.398
60443W        W24651  40.448  27.181  14.808
60444W        W24652  33.101  39.809  13.858
60445W        W24653  24.148  16.301   1.809
60446W        W24654  22.088   8.348  12.492
60447W        W24655  31.917  23.227   3.789
60448W        W24656  43.839  41.312  14.350
60449W        W24657  16.776   6.731  11.417
60450W        W24658  21.562  19.232  13.926
60451W        W24659  34.400   6.206   0.957
60452W        W24660  26.465   6.254  13.319
60453W        W24661  30.027  11.655   4.714
60454W        W24662  26.479  23.709   9.982
60455W        W24663   9.879  27.090  10.608
60456W        W24664  37.483  41.391   1.769
60457W        W24665  35.366  28.954   0.757
60458W        W24666  25.209  23.166  11.586
60459W        W24667  37.012  35.572   0.936
60460W        W24668   6.413  42.496  13.014
60461W        W24669  31.145   4.384  14.900
60462W        W24670  25.667  41.980  13.797
60463W        W24671  41.293  11.767  13.402
60464W        W24672   8.798  22.230   1.753
60465W        W24673  42.367  17.077  11.500
60466W        W24674  39.437  10.229   2.714
60467W        W24675  32.507  36.566   0.396
60468W        W24676   1.237  19.211  12.090
60469W        W24677  21.551  16.157  13.009
60470W        W24678   9.281  34.556  10.995
60471W        W24679  15.084  27.194  12.011
60472W        W24680  37.378  36.008  11.881
60473W        W24681  35.484  29.152   2.743
60474W        W24682  33.083  42.391   1.708
60475W        W24683  22.503  25.658   1.335
60476W        W24684  18.551  31.613  11.048
60477W        W24685  13.239  32.944   0.366
60478W        W24686  39.925  16.221  13.499
60479W        W24687   9.254  31.597  13.037
60480W        W24688  37.998  41.861  14.290
60481W        W24689  36.991  39.419   1.441
60482W        W24690  11.728  18.548  13.931
60483W        W24691  39.470  25.681   4.766
60484W        W24692  31.009  19.594   5.272
60485W        W24693  31.428  36.999   1.743
60486W        W24694   7.173   4.222  13.440
60487W        W24695  35.499  26.626  10.532
60488W        W24696   8.390  32.624   3.820
60489W        W24697   6.838  26.961   3.327
60490W        W24698  12.735  36.475   1.766
60491W        W24699   4.851  39.425   1.238
60492W        W24700  13.298  14.614  14.863
60493W        W24701  21.642  21.638   4.284
60494W        W24702  39.013  27.121   4.332
60495W        W24703  40.049  40.932  14.288
60496W        W24704  28.114  43.952  10.477
60497W        W24705  42.348  39.456  11.880
60498W        W24706  14.786  44.410   4.308
60499W        W24707  34.515   2.907  12.907
60500W        W24708  34.867  35.108  14.977
60501W        W24709  22.704  38.934  10.407
60502W        W24710  23.655  14.670   1.881
60503W        W24711  29.484  26.626   3.277
60504W        W24712  13.785  35.917  13.437
60505W        W24713   8.172  33.550   4.175
60506W        W24714  41.432  14.324   1.833
60507W        W24715  16.655  24.507  14.384
60508W        W24716  39.504  12.263  10.947
60509W        W24717  38.552  17.756   4.616
60510W        W24718  11.276  28.111   4.706
60511W        W24719  42.962  42.496   4.275
60512W        W24720   6.889   0.744  11.524
60513W        W24721  32.977   4.778   2.209
60514W        W24722  15.610  31.950   4.619
60515W        W24723  21.732  28.160   3.265
60516W        W24724   4.941  36.439  13.040
60517W        W24725  33.563   6.202   4.140
60518W        W24726  37.491  15.125   4.664
60519W        W24727  14.688  40.431   0.908
60520W        W24728  14.653  29.653   2.415
60521W        W24729  10.323  22.536   4.612
60522W        W24730  26.598  43.448   2.743
60523W        W24731  19.723  43.331  13.380
60524W        W24732   4.811   8.658   4.235
60525W        W24733  16.278  37.513  10.971
60526W        W24734   0.832  37.925  12.397
60527W        W24735   4.711  28.536  11.105
60528W        W24736  36.514  39.334  13.898
60529W        W24737  42.479  34.869   0.816
60530W        W24738   2.237  19.594  12.339
60531W        W24739   3.384  31.105  13.827
60532W        W24740   6.851  39.929   4.730
60533W        W24741  11.840  34.886   9.955
60534W        W24742   3.421   2.844  10.524
60535W        W24743  22.722  14.286  11.559
60536W        W24744  33.097  18.687   1.436
60537W        W24745   8.748   0.273  11.491
60538W        W24746  12.843  25.992  12.541
60539W        W24747   2.882  34.962  12.050
60540W        W24748   6.799  38.982   4.127
60541W        W24749  14.127   8.864   2.663
60542W        W24750   1.380  38.829  11.613
60543W        W24751  28.586   3.804   1.929
60544W        W24752  35.363  42.784  11.585
60545W        W24753  26.474  36.056   4.638
60546W        W24754   6.882  32.028   2.753
60547W        W24755  11.298  15.200   3.761
60548W        W24756  22.042  10.207  12.434
60549W        W24757  39.856  34.990   1.700
60550W        W24758  13.233   9.250   2.864
60551W        W24759  43.460   0.450  10.988
60552W        W24760  24.119  13.782   2.863
60553W        W24761   4.698   2.806  14.392
60554W        W24762  22.227  36.508   3.278
60555W        W24763  29.997  16.283  11.990
60556W        W24764  27.552  23.185  10.418
60557W        W24765   8.769   6.904  14.801
60558W        W24766  39.362   6.229   1.416
60559W        W24767   7.891  35.966   1.306
60560W        W24768  16.799  34.915  11.573
60561W        W24769  28.659  10.727   0.282
60562W        W24770  26.599  34.915   0.797
60563W        W24771  34.881   2.335   0.460
60564W        W24772  31.922  44.470   0.259
60565W        W24773  39.961  40.380  13.914
60566W        W24774   2.947   7.685   2.185
60567W        W24775  29.015   6.814   2.894
60568W        W24776   0.462  28.012  14.509
60569W        W24777   1.237  41.891  11.074
60570W        W24778  31.119  43.814  13.434
60571W        W24779  21.605  27.639  12.953
60572W        W24780   9.742   2.366  11.426
60573W        W24781  29.024  23.499  14.327
60574W        W24782  15.157   5.432   0.775
60575W        W24783   6.891  40.895   3.259
60576W        W24784  29.174  12.268  12.532
60577W        W24785  17.077   9.289   0.300
60578W        W24786  39.366   4.319   3.788
60579W        W24787  26.995  44.378   3.677
60580W        W24788  24.176  29.507   2.384
60581W        W24789  17.222   1.347  13.868
60582W        W24790  14.766  27.959   0.804
60583W        W24791  33.989  32.960   0.361
60584W        W24792  21.198   8.176   3.275
60585W        W24793   2.759   7.822  14.444
60586W        W24794  22.625   6.202   0.909
60587W        W24795   6.677   4.927   0.779
60588W        W24796   3.461   4.448   2.780
60589W        W24797  30.051  44.420  14.786
60590W        W24798  26.005  30.056   4.284
60591W        W24799  29.982   0.910   4.263
60592W        W24800  33.447  33.115  13.880
60593W        W24801  34.004  27.510   3.312
60594W        W24802  36.946   2.364  13.332
60595W        W24803  21.223  26.999   4.222
60596W        W24804  11.672  12.123   0.438
60597W        W24805  36.029  19.159  10.967
60598W        W24806   3.232  28.480   4.352
60599W        W24807  11.818   4.311   1.340
60600W        W24808  18.111  39.551  12.405
60601W        W24809  27.599  27.010   0.281
60602W        W24810  44.418  22.570   3.247
60603W        W24811  11.812  22.162   0.937
60604W        W24812  14.753  43.381  13.836
60605W        W24813  18.090  37.447   4.200
60606W        W24814  32.074  24.524   4.336
60607W        W24815  33.977  14.205   2.716
60608W        W24816   9.752  10.840   0.417
60609W        W24817   9.878  20.239  14.918
60610W        W24818  12.188   9.328  10.912
60611W        W24819  35.537  12.728  12.864
60612W        W24820  11.693  15.157   2.876
60613W        W24821   2.764  16.743  10.952
60614W        W24822  39.888  39.036  12.392
60615W        W24823  36.880  24.154  13.020
60616W        W24824  23.188  34.910  13.860
60617W        W24825   9.189  39.340  11.376
60618W        W24826   0.904  38.830   5.146
60619W        W24827  13.802  22.741  13.394
60620W        W24828  41.963  34.887  12.908
60621W        W24829   1.251  25.963   1.366
60622W        W24830  29.047  14.263   5.273
60623W        W24831  37.080   0.364   1.378
60624W        W24832  11.173  29.575  12.579
60625W        W24833  11.766  38.355  12.937
60626W        W24834  24.091  44.380   4.139
60627W        W24835   0.952  19.049   1.700
60628W        W24836   6.335  15.297  13.355
60629W        W24837  12.336   9.749   1.880
60630W        W24838  17.298  42.946   3.315
60631W        W24839  27.135   6.725   3.312
60632W        W24840  30.659  16.737  10.405
60633W        W24841   9.881  14.639   4.269
60634W        W24842  33.035  40.994  13.926
60635W        W24843   1.791  12.746  14.350
60636W        W24844  28.053  24.551   3.752
60637W        W24845  36.916  32.007   3.201
60638W        W24846  25.077  42.417   3.242
60639W        W24847   3.454  40.021   0.305
60640W        W24848   7.698  27.497  11.964
60641W        W24849  10.837   9.259   1.795
60642W        W24850  39.820   8.823  12.486
60643W        W24851  20.643  20.623   3.328
60644W        W24852  42.836  32.128  11.418
60645W        W24853   9.367  37.424   9.964
60646W        W24854  15.283  41.409   0.429
60647W        W24855  19.569  41.513  12.375
60648W        W24856  15.633  26.959  12.396
60649W        W24857  30.029  22.550  11.374
60650W        W24858  34.040  12.219   2.690
60651W        W24859   6.702  18.587  11.577
60652W        W24860  24.604   4.814  12.950
60653W        W24861   4.357  38.381  12.393
60654W        W24862  35.909  15.662  14.801
60655W        W24863   7.416  35.548   0.751
60656W        W24864   0.490  27.534  13.050
60657W        W24865  10.192  11.717   2.347
60658W        W24866  37.861  37.874   0.961
60659W        W24867  21.194   5.790   3.187
60660W        W24868  21.611   5.262   2.890
60661W        W24869  20.584  25.974   1.267
60662W        W24870  43.768  37.483  14.764
60663W        W24871  28.110  42.338   9.971
60664W        W24872  22.639  27.488  13.984
60665W        W24873  14.683  15.202  11.483
60666W        W24874  18.597  39.371  13.403
60667W        W24875  29.455  10.788   0.243
60668W        W24876  44.470   3.840   5.145
60669W        W24877  26.202  20.086  14.928
60670W        W24878  10.673  37.864  12.548
60671W        W24879   9.344  33.603   3.251
60672W        W24880  28.660  20.690   1.382
60673W        W24881   4.789  15.171   5.217
60674W        W24882   8.825  34.565  13.332
60675W        W24883  32.517  28.939  10.947
60676W        W24884  43.376  35.103   3.311
60677W        W24885  29.565   2.326   3.175
60678W        W24886  26.091  32.411  11.568
60679W        W24887  16.738  14.595   2.786
60680W        W24888   2.404   9.286  10.486
60681W        W24889  37.549  31.031  11.532
60682W        W24890  36.399   1.926   1.244
60683W        W24891  28.558  18.093  10.985
60684W        W24892  32.919  13.728  11.485
60685W        W24893  22.205  21.256   5.184
60686W        W24894   4.446   1.446  13.336
60687W        W24895  23.056   3.256  12.531
60688W        W24896  36.954  14.776   1.851
60689W        W24897   4.280  38.937  10.495
60690W        W24898  37.886   5.892   0.847
60691W        W24899   2.845  12.808   2.217
60692W        W24900  38.437  10.724  13.808
60693W        W24901  11.730   5.290  13.444
60694W        W24902  21.046  13.807   1.432
60695W        W24903   2.802  30.008   1.736
60696W        W24904  31.094   4.432  10.509
60697W        W24905  41.799  10.193   3.702
60698W        W24906   5.695   7.192   4.618
60699W        W24907  29.045   7.189   2.894
60700W        W24908  34.456  38.407  11.120
60701W        W24909  44.407  29.666   0.258
60702W        W24910  32.075  38.865   0.962
60703W        W24911  16.609  28.621   2.693
60704W        W24912  25.643  26.515  11.921
60705W        W24913  22.735  26.542   1.761
60706W        W24914  20.705   6.362   2.365
60707W        W24915   3.449  13.746  14.493
60708W        W24916  36.882  24.196  11.129
60709W        W24917  44.908  39.907   4.745
60710W        W24918  13.795  43.280  11.443
60711W        W24919   8.300  41.891   3.751
60712W        W24920   7.273  28.020  14.877
60713W        W24921  38.424  28.054   2.251
60714W        W24922  44.416  10.804  12.846
60715W        W24923  40.998  10.741  14.478
60716W        W24924  13.662  25.692   4.338
60717W        W24925  33.411  37.908  12.514
60718W        W24926  30.637  41.509   2.828
60719W        W24927  29.633  14.174   2.735
60720W        W24928  44.944  15.209  12.548
60721W        W24929   0.883  32.119   0.911
60722W        W24930  13.136   6.872  12.940
60723W        W24931  15.753  42.824   0.779
60724W        W24932  10.360   0.850  11.058
60725W        W24933   1.319   1.792   2.823
60726W        W24934  31.558  32.502  12.419
60727W        W24935  22.077   8.262   9.930
60728W        W24936  38.461   9.653  13.344
60729W        W24937  40.005  13.607  14.899
60730W        W24938  29.615  29.546  14.825
60731W        W24939  44.006  12.855  11.932
60732W        W24940   0.278  22.732   3.347
60733W        W24941   6.818  19.761   2.785
60734W        W24942  20.744  13.274  13.324
60735W        W24943  32.417  43.859  14.857
60736W        W24944  38.970   7.903  13.452
60737W        W24945  41.370  35.587   1.829
60738W        W24946  26.502  24.172  14.014
60739W        W24947  23.668  30.609   0.751
60740W        W24948   7.393  34.889   5.175
60741W        W24949   0.825  41.376  12.846
60742W        W24950  18.651  19.203   4.622
60743W        W24951   2.459  44.776   0.826
60744W        W24952  29.457  44.465   4.229
60745W        W24953  30.012  17.158  12.374
60746W        W24954  12.752   2.387  13.868
60747W        W24955   4.763  14.119   0.732
60748W        W24956  22.680   1.846  10.582
60749W        W24957  30.431  27.532   1.234
60750W        W24958   5.700  41.329   2.364
60751W        W24959  33.930  27.678  11.399
60752W        W24960  23.613  42.417   2.295
60753W        W24961   6.851  44.860  10.582
60754W        W24962  27.097  34.614  12.081
60755W        W24963  15.753  42.016   4.680
60756W        W24964  31.974  26.635  12.463
60757W        W24965  24.070  34.947  10.899
60758W        W24966  39.330  33.938  12.855
60759W        W24967  24.492  42.367   3.289
60760W        W24968  18.190   1.429  14.862
60761W        W24969   6.849  37.894  14.510
60762W        W24970  12.155  25.041   4.732
60763W        W24971  28.563  32.107   4.149
60764W        W24972  14.180  13.844   4.722
60765W        W24973  14.329  38.940  10.630
60766W        W24974  12.816  23.152  13.451
60767W        W24975  19.732  19.741  13.952
60768W        W24976  12.647  29.500  11.571
60769W        W24977  43.834  18.778   2.328
60770W        W24978  25.705  14.760  12.427
60771W        W24979   6.770  34.076   1.898
60772W        W24980  31.428  21.571   0.813
60773W        W24981  22.735  21.633   2.353
60774W        W24982  43.808  26.996  14.433
60775W        W24983   0.250   3.904  10.404
60776W        W24984  38.443  37.365   4.200
60777W        W24985  14.643  30.001   1.704
60778W        W24986  28.972   7.366  11.473
60779W        W24987   8.704  44.355   3.816
60780W        W24988  44.262  24.561   3.342
60781W        W24989   3.951  41.911   4.700
60782W        W24990  10.382  13.289  13.922
60783W        W24991  20.101  30.571  10.934
60784W        W24992  17.608  44.789  12.349
60785W        W24993  26.482  43.816   1.729
60786W        W24994  12.303   5.889   1.732
60787W        W24995  35.936  35.447   4.190
60788W        W24996   0.922  10.860   3.372
60789W        W24997   0.972  25.155   2.353
60790W        W24998  27.457  21.738  12.578
60791W        W24999  18.209  15.236  14.944
60792W        W25000  18.245  30.016  14.287
60793W        W25001  35.589  17.263   1.301
60794W        W25002  14.621  19.574  14.477
60795W        W25003   7.768   4.278   1.286
60796W        W25004  44.269  24.169   3.369
60797W        W25005  26.105   2.282   1.311
60798W        W25006  37.511   6.773  13.798
60799W        W25007   3.310   9.827   1.726
60800W        W25008   9.788  24.174   3.361
60801W        W25009  23.126   8.192   3.829
60802W        W25010  20.575  43.352  12.439
60803W        W25011  14.769   7.313   3.792
60804W        W25012  38.479   7.341   1.281
60805W        W25013  37.579   9.214   4.294
60806W        W25014  28.184  36.525   4.302
60807W        W25015  41.482  36.545   2.819
60808W        W25016  39.360   2.325   4.271
60809W        W25017  39.440  37.494  11.460
60810W        W25018  39.485   3.793  11.596
60811W        W25019  12.682  22.737   3.716
60812W        W25020   3.792   4.808   1.289
60813W        W25021   8.326  23.210  13.841
60814W        W25022  25.082   9.887   4.633
60815W        W25023  34.390   3.423   1.725
60816W        W25024  40.969  17.145  11.401
60817W        W25025  40.884  25.592  11.881
60818W        W25026   0.829  40.355   4.624
60819W        W25027  44.947   9.253   2.826
60820W        W25028  22.602  44.351   3.361
60821W        W25029  38.549  14.183   2.741
60822W        W25030  16.702   1.416  11.031
60823W        W25031  26.494   1.309   0.466
60824W        W25032  19.687  42.450   0.798
60825W        W25033  42.898  18.296  13.935
60826W        W25034  35.434  15.789  13.831
60827W        W25035  15.230   0.322   3.838
60828W        W25036   2.458  32.025  13.363
60829W        W25037  18.735   4.248   5.257
60830W        W25038  26.007  38.416   1.743
60831W        W25039  32.001   6.386   3.171
60832W        W25040  34.388  13.688  12.928
60833W        W25041  21.037  20.528   1.706
60834W        W25042  21.115   2.428  11.598
60835W        W25043  32.627  27.691   2.662
60836W        W25044  19.757  12.656  11.098
60837W        W25045  37.444  12.167  10.892
60838W        W25046  28.997  18.753   4.773
60839W        W25047  41.915  24.487   1.220
60840W        W25048   0.331  16.235  14.330
60841W        W25049  25.204  41.960   0.765
60842W        W25050  26.055  16.602  12.892
60843W        W25051  38.447  27.188   0.897
60844W        W25052  32.566   3.394  12.499
60845W        W25053  15.582  22.607  14.826
60846W        W25054  21.053  29.561  13.041
60847W        W25055  32.022   6.842  12.539
60848W        W25056  23.226  12.844   2.826
60849W        W25057  40.000  10.373  13.439
60850W        W25058  40.934  16.099  13.038
60851W        W25059  18.091   3.888   4.680
60852W        W25060  32.413  20.734  13.316
60853W        W25061  17.679  21.091  11.398
60854W        W25062  33.461  38.530  12.468
60855W        W25063   9.270  32.517  13.986
60856W        W25064  16.195  41.442  11.410
60857W        W25065  32.393  34.419   0.732
60858W        W25066  35.894   0.928  11.020
60859W        W25067  33.492  20.528   2.288
60860W        W25068   8.314  44.358   3.795
60861W        W25069   6.802   7.742   3.212
60862W        W25070  31.558  37.865   1.346
60863W        W25071  37.371  27.003   0.841
60864W        W25072  11.660  19.704   2.850
60865W        W25073  28.084   4.793   2.187
60866W        W25074  38.383  43.348   3.697
60867W        W25075  41.923  23.154   3.865
60868W        W25076  30.564  10.241  11.595
60869W        W25077  21.533  43.837  14.866
60870W        W25078   4.249   6.868   1.317
60871W        W25079  16.244  17.142  14.820
60872W        W25080  26.496  29.476   1.278
60873W        W25081   1.857   7.295  11.399
60874W        W25082  22.620   4.242   4.599
60875W        W25083  11.733  35.868  12.381
60876W        W25084  35.467  15.642   3.339
60877W        W25085   7.897  43.357  13.033
60878W        W25086  16.148  32.096  11.063
60879W        W25087  20.161  24.994   0.371
60880W        W25088  38.010  27.979  10.002
60881W        W25089  13.751  12.824   2.860
60882W        W25090   5.218  16.156  11.422
60883W        W25091   1.885  29.164   3.329
60884W        W25092  22.702   6.791   0.835
60885W        W25093   0.443  22.066   1.426
60886W        W25094  23.157  14.301   1.874
60887W        W25095  14.722   9.357   2.329
60888W        W25096  11.646  18.086  12.356
60889W        W25097  33.968  15.159  10.453
60890W        W25098   9.698   8.848  14.433
60891W        W25099  44.995  43.343  10.639
60892W        W25100   3.285   7.177   3.759
60893W        W25101   1.435  41.872   4.742
60894W        W25102  26.150  22.660  13.968
60895W        W25103  11.743  23.003  12.904
60896W        W25104  37.971   0.858  10.432
60897W        W25105  35.475  32.064   2.390
60898W        W25106  24.182  12.629  14.404
60899W        W25107  34.961   0.787   3.209
60900W        W25108  38.386  17.669  12.030
60901W        W25109   2.429  43.950  12.901
60902W        W25110  33.926  10.810  12.060
60903W        W25111  25.973  26.112  12.951
60904W        W25112  33.539  13.774   0.932
60905W        W25113   6.861  32.929  11.557
60906W        W25114  40.483  20.215   5.195
60907W        W25115  40.543  25.642  14.021
60908W        W25116  29.658  40.478  14.804
60909W        W25117  24.201  29.005  12.005
60910W        W25118   2.292  17.623  13.041
60911W        W25119  21.684  39.057  12.517
60912W        W25120  31.530  28.447  11.950
60913W        W25121  24.984  34.945  13.006
60914W        W25122  40.001  14.327   3.789
60915W        W25123  21.574   1.942  11.051
60916W        W25124  18.695   7.311   1.730
60917W        W25125  28.068  38.510  14.851
60918W        W25126  40.432  17.633   1.737
60919W        W25127  23.589  25.551   0.362
60920W        W25128  36.859  12.251   4.354
60921W        W25129   8.876  25.524  12.907
60922W        W25130   3.217   5.312  11.542
60923W        W25131   4.450  15.129  14.489
60924W        W25132  43.918  29.465  14.770
60925W        W25133  25.116  39.537   1.757
60926W        W25134  41.812   9.206   4.295
60927W        W25135  10.750  15.132   4.268
60928W        W25136  24.192  35.940   0.287
60929W        W25137  20.573  14.607   3.764
60930W        W25138  11.227  31.478   4.653
60931W        W25139  38.037   9.152   2.395
60932W        W25140  30.086  44.892  11.488
60933W        W25141  32.954  33.395   0.795
60934W        W25142  13.716  24.663   0.930
60935W        W25143   6.877   0.249  14.372
60936W        W25144  14.726  27.074   0.248
60937W        W25145   7.823  44.444   0.924
60938W        W25146  33.947   1.864   0.929
60939W        W25147  19.689  32.059   0.839
60940W        W25148  41.879  33.526  12.957
60941W        W25149   2.892  15.234  11.889
60942W        W25150  29.470  30.468  11.496
60943W        W25151  39.484  13.319   1.794
60944W        W25152  10.239  37.892  11.379
60945W        W25153  41.442  43.449  10.961
60946W        W25154  27.681  32.959   0.819
60947W        W25155  36.368  16.254   0.400
60948W        W25156  26.689  27.607  14.394
60949W        W25157  42.009  23.056   0.290
60950W        W25158  40.966  21.065   1.298
60951W        W25159  21.053  33.605  12.475
60952W        W25160  33.586  32.124   4.694
60953W        W25161   2.387  37.914  12.889
60954W        W25162  32.530   1.976  10.596
60955W        W25163  14.788   3.800  10.518
60956W        W25164  36.098  19.601  14.947
60957W        W25165  29.109  22.674  12.840
60958W        W25166   4.269  16.656   3.215
60959W        W25167  33.944  32.635  12.831
60960W        W25168  40.513  39.423  13.454
60961W        W25169  17.295  41.964  12.019
60962W        W25170   8.402   0.839   0.436
60963W        W25171  37.440  29.547   0.730
60964W        W25172  15.775  11.341  13.508
60965W        W25173  24.026  33.466  10.053
60966W        W25174  12.856  39.904  12.027
60967W        W25175  33.052  26.586   3.657
60968W        W25176  21.689  18.156   3.831
60969W        W25177  35.854   2.778  10.582
60970W        W25178  10.815  17.671   3.285
60971W        W25179  10.345   2.280  12.090
60972W        W25180   5.752  10.659   1.222
60973W        W25181   8.349  39.482   2.180
60974W        W25182  36.430  39.534   0.743
60975W        W25183   2.369  37.957  11.435
60976W        W25184   7.686  21.238   0.861
60977W        W25185  38.914  39.848   3.224
60978W        W25186  16.189  39.914  14.899
60979W        W25187  14.640  26.671   1.417
60980W        W25188  16.795  32.566  13.873
60981W        W25189   3.855  41.351  14.824
60982W        W25190   2.795  18.270  10.921
60983W        W25191   0.277  25.135   4.113
60984W        W25192   3.390  12.124   3.855
60985W        W25193  39.941   1.254   5.316
60986W        W25194  11.319   0.449  11.432
60987W        W25195  28.660  16.190   1.416
60988W        W25196  10.199  17.561   3.212
60989W        W25197  23.136  32.409   2.762
60990W        W25198   8.200  19.067  11.523
60991W        W25199  16.611  31.925   3.173
60992W        W25200  14.155  21.562  14.803
60993W        W25201   8.654   6.278  12.023
60994W        W25202  18.616  22.539  11.003
60995W        W25203  44.353   0.456  14.863
60996W        W25204  44.267  16.731   4.117
60997W        W25205  44.826  36.965  12.388
60998W        W25206   9.313  32.596   4.117
60999W        W25207   6.203  35.904  12.019
61000W        W25208  44.980  39.433  12.088
61001W        W25209  41.501   4.899   3.870
61002W        W25210  24.089  29.532  13.372
61003W        W25211  15.740  42.424   1.236
61004W        W25212  17.561  10.849  10.512
61005W        W25213   0.427  39.454  14.858
61006W        W25214  43.953  43.325   1.747
61007W        W25215  27.584  28.025  14.840
61008W        W25216  33.538  17.161   0.754
61009W        W25217  43.369  12.234  13.319
61010W        W25218   6.311  14.289   3.685
61011W        W25219  23.105  21.594  13.959
61012W        W25220  34.490  11.754  13.425
61013W        W25221   1.292  41.513  14.484
61014W        W25222  42.426  39.332   1.431
61015W        W25223  28.547  19.197   3.830
61016W        W25224  30.128  16.695  13.529
61017W        W25225  41.412  43.498  12.578
61018W        W25226   2.925  26.607  14.505
61019W        W25227  33.000  12.219  12.559
61020W        W25228  23.085  24.228  12.560
61021W        W25229  31.114  18.115   3.760
61022W        W25230  36.368  33.967  13.832
61023W        W25231  20.630  42.337  13.420
61024W        W25232  33.475  15.274   9.935
61025W        W25233  35.993  37.997   4.832
61026W        W25234  33.602  27.512  11.966
61027W        W25235  30.034  41.870   4.323
61028W        W25236  16.709  13.315  11.873
61029W        W25237  23.605  14.193   3.317
61030W        W25238  32.414   6.735  14.462
61031W        W25239  33.514  10.163  11.992
61032W        W25240  11.137  28.187  12.006
61033W        W25241  36.588   5.388  13.462
61034W        W25242  42.294   0.381  14.031
61035W        W25243  38.892  44.266   2.738
61036W        W25244   3.758  31.445   3.654
61037W        W25245  43.282  33.391  12.438
61038W        W25246  36.915  11.682  13.987
61039W        W25247  43.999  10.348  13.928
61040W        W25248  19.777  32.432   3.827
61041W        W25249  26.623  31.548   4.125
61042W        W25250  26.200  41.440   1.362
61043W        W25251   7.845   0.377   3.666
61044W        W25252  29.992  24.136   2.664
61045W        W25253   7.900   5.868   2.325
61046W        W25254  35.863  13.268  12.544
61047W        W25255  36.564  14.257  14.830
61048W        W25256  19.139  29.558   3.287
61049W        W25257  29.036   0.365   3.704
61050W        W25258   7.754  16.129  12.956
61051W        W25259  11.794   1.834   3.796
61052W        W25260  26.462   3.451   1.914
61053W        W25261  11.361  41.959   4.819
61054W        W25262  28.455  24.133  14.866
61055W        W25263   7.413  31.554  12.960
61056W        W25264  26.581  20.609   0.728
61057W        W25265  27.089  42.817  12.004
61058W        W25266  38.867  30.024  12.416
61059W        W25267  29.621  30.010  11.080
61060W        W25268  21.077   4.764  11.549
61061W        W25269  35.100  22.045   1.331
61062W        W25270  17.200  25.166   2.799
61063W        W25271   9.853   3.383  13.045
61064W        W25272  28.125   0.825  11.120
61065W        W25273  29.925  30.483  10.918
61066W        W25274  15.607   0.854  13.883
61067W        W25275  22.544   6.345   9.450
61068W        W25276  16.586  32.582   2.192
61069W        W25277  36.470  12.817   4.303
61070W        W25278  15.206  35.963   2.775
61071W        W25279  40.815  21.757   4.602
61072W        W25280   5.871  11.282   4.126
61073W        W25281  39.393  14.664   1.417
61074W        W25282  17.559  39.017  14.370
61075W        W25283  30.983  11.844   2.374
61076W        W25284  32.055  29.087  11.964
61077W        W25285  29.039  39.456   1.727
61078W        W25286  28.489  40.469   4.702
61079W        W25287  19.637   9.202  14.477
61080W        W25288  41.822   9.768  12.442
61081W        W25289  38.928  26.207  11.997
61082W        W25290  44.968  32.630   0.944
61083W        W25291   2.471  34.535  10.973
61084W        W25292  27.003  39.819  11.454
61085W        W25293  36.861  23.610  11.040
61086W        W25294  29.064   9.758  10.921
61087W        W25295  27.602   3.867   1.755
61088W        W25296  31.934  36.027   4.344
61089W        W25297  41.936  42.883  14.471
61090W        W25298  38.343   6.751   3.329
61091W        W25299  23.589  19.265  10.953
61092W        W25300  30.499  16.316  11.411
61093W        W25301  43.306  22.501   0.905
61094W        W25302  35.895   0.746   0.735
61095W        W25303  31.046   1.761  14.985
61096W        W25304  11.169   8.759   2.330
61097W        W25305  36.097  22.241  12.426
61098W        W25306   1.252   0.880  14.481
61099W        W25307  16.682   9.648  13.336
61100W        W25308  19.764   3.424  13.435
61101W        W25309  10.215  12.215  11.568
61102W        W25310  10.824  20.142  13.939
61103W        W25311  10.158  27.979   1.323
61104W        W25312  32.929  34.384   3.333
61105W        W25313   5.199  13.614  14.827
61106W        W25314   5.274   0.906  11.111
61107W        W25315   3.356  15.744  14.963
61108W        W25316  22.533  17.146   2.298
61109W        W25317  43.934  28.148   4.171
61110W        W25318  12.156  11.260  12.989
61111W        W25319  27.481  40.951   3.342
61112W        W25320  40.314  25.043  13.059
61113W        W25321  26.561  17.288   3.312
61114W        W25322  22.548  22.163   3.186
61115W        W25323  32.139  36.545   2.319
61116W        W25324  37.542  15.602   4.628
61117W        W25325  39.919  22.583   3.760
61118W        W25326   1.945  18.181  14.763
61119W        W25327  24.174  37.922   3.324
61120W        W25328  19.250  22.049   3.650
61121W        W25329  29.074  40.423  13.929
61122W        W25330  34.546  10.814  13.913
61123W        W25331  37.909  18.252  13.519
61124W        W25332   1.810  39.348   1.289
61125W        W25333  18.203   0.834   0.744
61126W        W25334  39.028  35.918   4.272
61127W        W25335  26.131  22.060   2.886
61128W        W25336  19.102  20.678  12.349
61129W        W25337  20.767  14.280   2.185
61130W        W25338  21.252  37.492   3.778
61131W        W25339  25.489  37.942   2.748
61132W        W25340   9.687  19.221   1.393
61133W        W25341  22.030   1.257   4.146
61134W        W25342   6.224  41.426   3.781
61135W        W25343  22.239   8.304   5.164
61136W        W25344  44.954  44.831  13.014
61137W        W25345   3.838   7.763   3.788
61138W        W25346  22.122   0.883   0.448
61139W        W25347  12.724  15.761  11.532
61140W        W25348  38.955   2.450   3.160
61141W        W25349  22.044  35.395  13.536
61142W        W25350  24.678  11.366   2.827
61143W        W25351  22.672  10.285  10.599
61144W        W25352  36.533  42.291  14.306
61145W        W25353  27.470   9.159  11.072
61146W        W25354  34.968   1.923   2.336
61147W        W25355  17.795  23.702  11.570
61148W        W25356  20.646  13.816  12.915
61149W        W25357  14.760  18.632  12.060
61150W        W25358  22.075   1.740  13.326
61151W        W25359   2.734  32.980   0.828
61152W        W25360   4.834   0.938   0.737
61153W        W25361  19.107  13.165  13.331
61154W        W25362  39.541  18.182   1.793
61155W        W25363  36.426   4.917   0.873
61156W        W25364  31.466  15.778  12.082
61157W        W25365  40.920  28.610  12.433
61158W        W25366  16.790  27.690  12.092
61159W        W25367  22.146  13.827   3.692
61160W        W25368  18.093  39.534  13.385
61161W        W25369  11.747  20.627  14.927
61162W        W25370  31.551   7.263  14.937
61163W        W25371   3.434   0.276  13.906
61164W        W25372  10.757  20.075   3.636
61165W        W25373   2.809   6.313   2.330
61166W        W25374  26.077  16.240  14.841
61167W        W25375   5.392  39.468   2.858
61168W        W25376  38.497  26.613  11.994
61169W        W25377  21.601  30.542  11.593
61170W        W25378   8.285  28.961   0.840
61171W        W25379  42.379  32.056   0.309
61172W        W25380  34.953   3.406   1.351
61173W        W25381  16.769  43.304  13.400
61174W        W25382  21.150   8.276  12.973
61175W        W25383  31.533   7.675   4.176
61176W        W25384   3.773   5.787   0.760
61177W        W25385  37.010  26.097   2.891
61178W        W25386  44.356  29.010  13.816
61179W        W25387  11.657  33.448  12.423
61180W        W25388  23.686   2.409   1.308
61181W        W25389  30.593   2.812  14.923
61182W        W25390  20.060  22.543  12.948
61183W        W25391  19.050   0.758  10.429
61184W        W25392  17.576  41.809  10.906
61185W        W25393  22.151  44.777   2.260
61186W        W25394  26.561  38.910  13.423
61187W        W25395  40.993  28.571  14.458
61188W        W25396  25.540   6.707   1.886
61189W        W25397  18.660  23.655  11.462
61190W        W25398  26.009  39.991  13.990
61191W        W25399  19.208  25.675  11.899
61192W        W25400  26.567   9.178  14.448
61193W        W25401  25.986  26.581   1.448
61194W        W25402   4.793  31.610  13.329
61195W        W25403   0.980   9.265   1.225
61196W        W25404  37.424  17.736  14.443
61197W        W25405  27.184  34.417  14.304
61198W        W25406  29.493   9.300  14.410
61199W        W25407  43.799  36.069   2.708
61200W        W25408  28.457  22.117   4.135
61201W        W25409   7.248   9.786   2.415
61202W        W25410   8.795  42.779   9.938
61203W        W25411  30.598   0.287  13.435
61204W        W25412  23.730  41.882   4.760
61205W        W25413  28.006   8.817   1.741
61206W        W25414  36.581   1.888   1.747
61207W        W25415  29.458  30.612   3.815
61208W        W25416  38.978  21.658   3.357
61209W        W25417  28.120  19.665   2.857
61210W        W25418  38.967  29.021  11.406
61211W        W25419  15.222  26.469  11.125
61212W        W25420   1.835  43.472   1.344
61213W        W25421  14.153   5.872   0.473
61214W        W25422  17.231  15.811   0.749
61215W        W25423   9.259  12.853   2.273
61216W        W25424  31.594   5.870  13.980
61217W        W25425  30.975  34.880  10.059
61218W        W25426  41.849  21.731  11.033
61219W        W25427  17.139  35.876   5.206
61220W        W25428   9.240  42.955   0.785
61221W        W25429  16.184  21.701   4.246
61222W        W25430  39.373  21.086   0.842
61223W        W25431  32.617  15.683   4.196
61224W        W25432  17.239  44.897   0.750
61225W        W25433  33.036  18.189  13.905
61226W        W25434   2.810  43.427   3.301
61227W        W25435  26.542  33.451  14.910
61228W        W25436  14.670  43.786  13.998
61229W        W25437  10.697  32.538  10.996
61230W        W25438   6.861  31.925  12.545
61231W        W25439  37.065  15.167   3.295
61232W        W25440  20.698   6.276  14.434
61233W        W25441  24.633   9.262  12.013
61234W        W25442   3.262  16.108  12.436
61235W        W25443  12.340   4.780   3.712
61236W        W25444   0.441  42.870   3.783
61237W        W25445  26.081  32.591  13.446
61238W        W25446   5.202  36.385   2.284
61239W        W25447   5.235  41.527  13.962
61240W        W25448   9.863  27.618   1.755
61241W        W25449   8.659  16.625  13.850
61242W        W25450  34.007  38.942  13.544
61243W        W25451   9.876  31.981   3.300
61244W        W25452  19.282  32.633   1.368
61245W        W25453  33.405  24.559   3.667
61246W        W25454  14.669  14.320  10.413
61247W        W25455  27.043   2.903   4.816
61248W        W25456  21.238  25.115  13.895
61249W        W25457   0.792  40.888  12.086
61250W        W25458   7.385   2.269   2.736
61251W        W25459  31.562  32.540  12.927
61252W        W25460  39.861   6.235   4.349
61253W        W25461  36.879  38.919   3.198
61254W        W25462  27.129  11.709  14.294
61255W        W25463  41.823  24.533   2.829
61256W        W25464   5.809  22.553   3.219
61257W        W25465  39.337  25.081   1.334
61258W        W25466  20.659  25.107  12.017
61259W        W25467  39.940  37.887  14.759
61260W        W25468  43.286  23.058   2.868
61261W        W25469   3.328  33.014   2.878
61262W        W25470  14.648  39.459  12.996
61263W        W25471  15.811  15.126  14.975
61264W        W25472  15.632   6.707  12.864
61265W        W25473  15.266  31.517  10.493
61266W        W25474   8.248  43.363  10.486
61267W        W25475  18.269   4.397  12.922
61268W        W25476  19.773   8.730   3.823
61269W        W25477   9.264  22.694   1.407
61270W        W25478   3.321  14.145  12.036
61271W        W25479  25.118   2.834   4.810
61272W        W25480   5.778  15.211   0.400
61273W        W25481  14.175  43.990   1.807
61274W        W25482  16.632   1.355   4.118
61275W        W25483  29.064  35.875   0.445
61276W        W25484   5.364  20.111   1.311
61277W        W25485  40.330  18.753   4.207
61278W        W25486  33.458  11.147   4.237
61279W        W25487  17.631  33.878  12.091
61280W        W25488   8.791  30.557   3.807
61281W        W25489  32.049  27.628   0.410
61282W        W25490   1.276  31.038  12.453
61283W        W25491  36.975  31.643   1.751
61284W        W25492  19.268  23.136   2.358
61285W        W25493   6.319  44.493  10.564
61286W        W25494  20.532  32.427  12.926
61287W        W25495  36.424   5.713   4.666
61288W        W25496  10.853  24.698  14.835
61289W        W25497  19.738   5.205   9.628
61290W        W25498  17.787  41.522  13.342
61291W        W25499   1.302  24.621   0.947
61292W        W25500   6.301  12.727  13.500
61293W        W25501  28.130  42.433  11.037
61294W        W25502   6.843  11.196  12.074
61295W        W25503  10.720  28.575   0.856
61296W        W25504  41.524   7.760  11.098
61297W        W25505  35.939  44.908  14.323
61298W        W25506  13.315  19.265  10.593
61299W        W25507   7.724   1.908  14.331
61300W        W25508  24.155   1.751   2.876
61301W        W25509  23.216   5.366  13.011
61302W        W25510  29.620  24.562   1.224
61303W        W25511  37.341  29.089   1.830
61304W        W25512   3.386  34.397   0.828
61305W        W25513  23.559  39.445  14.281
61306W        W25514  14.100  24.525   1.236
61307W        W25515  11.369   5.386   0.377
61308W        W25516  15.627  17.661  10.950
61309W        W25517   7.233  23.220  14.514
61310W        W25518  13.641  26.139  13.005
61311W        W25519  15.138   5.198  11.546
61312W        W25520  17.747   7.298  10.522
61313W        W25521  30.596  13.788   3.252
61314W        W25522  27.543  27.495  13.343
61315W        W25523  24.228  25.180   4.756
61316W        W25524   4.703  19.179  11.412
61317W        W25525  33.422  38.855   0.857
61318W        W25526  18.083  25.141  10.568
61319W        W25527  37.460  31.059  11.927
61320W        W25528  42.324  19.072   1.882
61321W        W25529  39.538  23.540   3.298
61322W        W25530   4.817  10.677  13.060
61323W        W25531   7.273   6.680   4.187
61324W        W25532  22.527   8.244   4.788
61325W        W25533  42.850  42.348   4.838
61326W        W25534  39.324  22.112  13.011
61327W        W25535   3.372  31.108   1.888
61328W        W25536  42.980  10.654  10.550
61329W        W25537  29.023  16.794   4.273
61330W        W25538  41.402   2.828   1.403
61331W        W25539  40.993  32.053   4.258
61332W        W25540  27.663   4.382  14.957
61333W        W25541  24.128   4.784   1.284
61334W        W25542   5.398  23.513   0.410
61335W        W25543  38.922  10.695   1.788
61336W        W25544  31.095  11.224   3.160
61337W        W25545  10.333  29.944  11.461
61338W        W25546  22.617  11.807  13.028
61339W        W25547  18.772   9.309   3.710
61340W        W25548  18.588  37.430   1.915
61341W        W25549  43.460  22.170  10.420
61342W        W25550  31.594  10.297  13.801
61343W        W25551  28.170  31.472  13.324
61344W        W25552  15.726   0.264   2.860
61345W        W25553  23.110  13.833  14.763
61346W        W25554  25.531  19.185  13.841
61347W        W25555  36.965  37.461  11.038
61348W        W25556  37.067  14.311   4.243
61349W        W25557   7.248   5.724   1.912
61350W        W25558  30.923  41.853   1.440
61351W        W25559   9.376   9.689   2.757
61352W        W25560  36.892  21.720   2.741
61353W        W25561   9.672   7.766  14.438
61354W        W25562  10.647   8.723  11.068
61355W        W25563  31.638   9.724  13.831
61356W        W25564  13.649  38.426   2.187
61357W        W25565  39.984  30.608  13.493
61358W        W25566  22.035   7.414   1.839
61359W        W25567   6.798   7.666  14.484
61360W        W25568  13.272  32.504   1.265
61361W        W25569  17.624  11.329   4.158
61362W        W25570  19.535   6.339   1.264
61363W        W25571  36.534  11.858   1.452
61364W        W25572  31.112   7.703  12.507
61365W        W25573  28.637  44.777  12.956
61366W        W25574   2.750  30.953   3.704
61367W        W25575  32.451  44.833  12.420
61368W        W25576  33.487  28.560  12.427
61369W        W25577  19.671  16.246   9.975
61370W        W25578  41.929  13.631   4.337
61371W        W25579  34.611   0.845   2.752
61372W        W25580  43.345   1.945  11.596
61373W        W25581  40.901  30.163  13.886
61374W        W25582  27.055  20.713   1.824
61375W        W25583  32.587  17.251  13.395
61376W        W25584  17.191  28.184  11.073
61377W        W25585  29.099   5.933   0.760
61378W        W25586  36.398  20.676  14.957
61379W        W25587  10.206   3.821  12.410
61380W        W25588  32.945  27.076  13.457
61381W        W25589   5.698  25.587   2.824
61382W        W25590  39.345  23.674  14.887
61383W        W25591  41.014  31.570   4.163
61384W        W25592   6.363  10.755   4.293
61385W        W25593  32.538  25.473  14.356
61386W        W25594   8.311  28.630   2.883
61387W        W25595  31.614  21.616  13.399
61388W        W25596   3.839  11.835   1.442
61389W        W25597  21.754  26.025   1.363
61390W        W25598  22.092  31.461   2.859
61391W        W25599  39.943  28.982   2.871
61392W        W25600  32.130  15.735   3.210
61393W        W25601   0.883  41.021   2.822
61394W        W25602  15.195  16.168  13.547
61395W        W25603   1.824  23.580  14.329
61396W        W25604  13.243  31.929   3.338
61397W        W25605  19.106   5.213   3.858
61398W        W25606   6.911  29.171  14.297
61399W        W25607  22.233  37.016   0.459
61400W        W25608  12.278  14.610  13.426
61401W        W25609  38.352  33.913   0.911
61402W        W25610  11.270   0.285   1.884
61403W        W25611  32.969  34.478   1.905
61404W        W25612  16.194  28.075   0.263
61405W        W25613  41.934  41.433  10.967
61406W        W25614  40.487  10.143  12.473
61407W        W25615   3.301  44.440  11.007
61408W        W25616  29.105  35.597  12.963
61409W        W25617   0.433  35.539  13.346
61410W        W25618  24.568  31.133   0.933
61411W        W25619  42.303  32.436  12.462
61412W        W25620  43.983   9.743  14.428
61413W        W25621   0.835  15.712   4.262
61414W        W25622  25.052   3.816  13.827
61415W        W25623  31.013  40.519   0.910
61416W        W25624  22.537  25.520   0.730
61417W        W25625  33.113  11.210  14.424
61418W        W25626   5.245  20.736   1.896
61419W        W25627   0.350   6.887   4.619
61420W        W25628  22.065  43.424  12.525
61421W        W25629  16.165  21.512   3.310
61422W        W25630  39.453  40.928  11.611
61423W        W25631  32.084   7.790   3.687
61424W        W25632  34.480  41.515   1.711
61425W        W25633  17.718  37.528  14.291
61426W        W25634  13.221  31.113   1.716
61427W        W25635   6.709   0.832   3.735
61428W        W25636  33.086  42.778  14.303
61429W        W25637  20.645  39.824   3.200
61430W        W25638  37.925  25.489  12.380
61431W        W25639  42.384  18.057   2.791
61432W        W25640   7.802  15.168   3.738
61433W        W25641  22.236  29.971  13.942
61434W        W25642  29.586  22.543  13.986
61435W        W25643  19.222  25.620   1.400
61436W        W25644  34.987  24.996   0.250
61437W        W25645  26.956  27.012  14.810
61438W        W25646  37.046  27.521  13.822
61439W        W25647  39.968  14.800  14.791
61440W        W25648  41.905  27.626   2.191
61441W        W25649  13.221  25.638   3.354
61442W        W25650   0.375  32.418   5.312
61443W        W25651   1.752   3.928   3.284
61444W        W25652  15.109   2.800   2.866
61445W        W25653  19.598  41.499   1.341
61446W        W25654   7.729  13.838   4.768
61447W        W25655  31.427   6.741   2.795
61448W        W25656  28.447  30.517  13.916
61449W        W25657  29.990   1.291  14.816
61450W        W25658  13.833  36.527   0.365
61451W        W25659  36.098  34.592   4.130
61452W        W25660  11.711  17.262   4.347
61453W        W25661  40.994   4.917  10.561
61454W        W25662   4.251  41.994   1.717
61455W        W25663  39.431  18.147  12.881
61456W        W25664  24.631  26.970  12.032
61457W        W25665  18.153   2.720  12.065
61458W        W25666  37.525  14.814   5.244
61459W        W25667  12.207  25.677  13.798
61460W        W25668  21.155  26.467   2.878
61461W        W25669   4.890  38.359  12.490
61462W        W25670   5.879  16.729   0.253
61463W        W25671  19.089  30.495   2.706
61464W        W25672  14.166  40.452  12.568
61465W        W25673  24.574  43.467   0.852
61466W        W25674  20.760  39.883   0.451
61467W        W25675   3.224  43.498  12.464
61468W        W25676   6.283  42.500   1.386
61469W        W25677  31.474  35.945   2.713
61470W        W25678  27.964  12.167   4.653
61471W        W25679  30.098   4.794  13.417
61472W        W25680  40.318  24.007   4.280
61473W        W25681  42.924  28.491   0.802
61474W        W25682  20.577  41.394   3.251
61475W        W25683  23.690  12.807   3.207
61476W        W25684  39.407  34.983  14.878
61477W        W25685  28.944  22.722  12.409
61478W        W25686  38.908   8.744   3.643
61479W        W25687  17.267  32.407  11.510
61480W        W25688   6.725  24.156  14.384
61481W        W25689   0.323  39.876   3.811
61482W        W25690  22.602  10.872  13.343
61483W        W25691  27.630   5.216   1.927
61484W        W25692  16.130  40.013  12.543
61485W        W25693  15.594  14.274  10.102
61486W        W25694  15.736  21.528  11.380
61487W        W25695  17.585   3.734   2.681
61488W        W25696  44.900  15.218   3.749
61489W        W25697   1.445   8.771  10.563
61490W        W25698  10.825  37.869   0.849
61491W        W25699  17.111  35.989  11.594
61492W        W25700  29.000  17.294  14.449
61493W        W25701   6.265  43.480  11.386
61494W        W25702  16.728  21.259   0.322
61495W        W25703  29.549  31.448   0.904
61496W        W25704  24.143  31.972  10.507
61497W        W25705  16.681  36.049  14.344
61498W        W25706   2.915   7.756  13.948
61499W        W25707  35.381  16.082  10.487
61500W        W25708   6.856  37.460   5.318
61501W        W25709  36.882   1.833  14.410
61502W        W25710  34.863  29.559   0.411
61503W        W25711  36.541  37.430  12.393
61504W        W25712   8.811  31.003   3.716
61505W        W25713   5.725   2.287  11.906
61506W        W25714  16.272  39.902   1.437
61507W        W25715  43.833   0.326  14.028
61508W        W25716  37.557  41.532   4.289
61509W        W25717  17.716  29.605  11.936
61510W        W25718   5.257  39.341  10.541
61511W        W25719  32.438   3.406   4.783
61512W        W25720  41.038  30.598   0.351
61513W        W25721   8.872  33.876  13.397
61514W        W25722  43.476   0.869  12.972
61515W        W25723  32.523  37.536   4.224
61516W        W25724  31.492  30.516  13.423
61517W        W25725  23.075   2.966  10.629
61518W        W25726  42.399  24.021  13.831
61519W        W25727  18.552  16.277   5.211
61520W        W25728   9.884  11.795   9.962
61521W        W25729  16.211  34.968   4.127
61522W        W25730  38.401  21.180  12.092
61523W        W25731   7.388   0.828  11.411
61524W        W25732  12.202  17.223   4.244
61525W        W25733  20.225  28.000   3.745
61526W        W25734   8.312  14.613  10.644
61527W        W25735  21.698  32.051   5.084
61528W        W25736  28.999  33.126   4.774
61529W        W25737  36.407  39.361   0.254
61530W        W25738  14.803  15.744   3.781
61531W        W25739  34.582  43.338   1.299
61532W        W25740  41.319  44.504  11.098
61533W        W25741  13.714  34.588  10.906
61534W        W25742  32.589  29.518  14.823
61535W        W25743  27.194  25.124  11.881
61536W        W25744   5.713   1.766  10.454
61537W        W25745  18.622  43.925   4.817
61538W        W25746  23.018   9.827   4.282
61539W        W25747  22.140  10.196  13.945
61540W        W25748   2.783  14.242  14.772
61541W        W25749  17.608  36.542   2.743
61542W        W25750  16.086  15.164  12.373
61543W        W25751  25.659  44.371   2.840
61544W        W25752  37.459   8.164  14.771
61545W        W25753  27.590  31.115   0.885
61546W        W25754   5.425  31.470   2.381
61547W        W25755   8.356  31.553  10.989
61548W        W25756  22.169  42.812   3.269
61549W        W25757  43.017  34.492   0.826
61550W        W25758  44.971  44.482   3.831
61551W        W25759  38.837  14.764   0.381
61552W        W25760  30.616  33.046  11.057
61553W        W25761   3.349   3.914   2.294
61554W        W25762  37.492   9.735  13.952
61555W        W25763  16.100   4.245   2.344
61556W        W25764  25.525   9.181   3.778
61557W        W25765   4.899  41.006   0.374
61558W        W25766   5.767  39.926   4.238
61559W        W25767  37.896   7.278   0.867
61560W        W25768  24.229   3.847  12.426
61561W        W25769  38.956   4.821  10.500
61562W        W25770  19.056  31.590  13.544
61563W        W25771  12.849  40.416  11.521
61564W        W25772  40.445   1.445   1.257
61565W        W25773  28.954  40.852   3.758
61566W        W25774   8.735  10.770   4.718
61567W        W25775   0.300   7.281   1.763
61568W        W25776  18.264   4.366  14.022
61569W        W25777  41.485  25.695   0.305
61570W        W25778  26.503   4.825   0.284
61571W        W25779  35.395  17.762  12.552
61572W        W25780   7.742  39.462   2.774
61573W        W25781  43.408  19.750   0.369
61574W        W25782   3.327  44.895   4.341
61575W        W25783  34.037  37.851   4.626
61576W        W25784  21.226  13.822   1.788
61577W        W25785  24.047  13.345  11.879
61578W        W25786   6.798  32.972   4.178
61579W        W25787   3.800  27.109  13.051
61580W        W25788  29.431  29.606   3.726
61581W        W25789  11.783  30.037   4.796
61582W        W25790  20.082  14.816   3.336
61583W        W25791  16.152  17.707  14.471
61584W        W25792  15.095   0.421   3.348
61585W        W25793  11.786  15.177   3.629
61586W        W25794  33.910   3.385  13.312
61587W        W25795   0.879  41.496   4.726
61588W        W25796   1.759  31.599  14.381
61589W        W25797  18.631  44.863   0.400
61590W        W25798  40.883  34.884  14.936
61591W        W25799  25.552  30.648   2.310
61592W        W25800  15.634  44.315   4.792
61593W        W25801  25.076   1.243  10.572
61594W        W25802   9.356  22.115  14.408
61595W        W25803  31.902  18.694  12.573
61596W        W25804  36.061  20.178   3.289
61597W        W25805  43.825  41.019  12.370
61598W        W25806  24.667  15.661  12.877
61599W        W25807  19.742  34.390   0.822
61600W        W25808  32.614  22.677   3.157
61601W        W25809   3.266   8.262  14.357
61602W        W25810  37.066   3.393  12.369
61603W        W25811  14.834  19.260  11.453
61604W        W25812  28.635   3.950  10.440
61605W        W25813  34.379  39.991  12.026
61606W        W25814   3.293   5.314   0.409
61607W        W25815  25.048  40.052  11.553
61608W        W25816  36.509  33.123   0.410
61609W        W25817  18.095  13.273   4.616
61610W        W25818  11.665  20.039  13.922
61611W        W25819  37.855  14.194   1.443
61612W        W25820   9.679  15.738   1.707
61613W        W25821  26.111  17.747   3.729
61614W        W25822  36.034  20.706  14.784
61615W        W25823   4.288  24.594   2.877
61616W        W25824  25.552  16.765  12.500
61617W        W25825  30.071  30.078   2.355
61618W        W25826  23.527  41.452  11.943
61619W        W25827  42.513  27.004   1.237
61620W        W25828  38.044  26.696   3.244
61621W        W25829  30.995  22.586  10.524
61622W        W25830  10.702  23.586   2.201
61623W        W25831  21.163  29.953   0.846
61624W        W25832  12.253  31.982  14.860
61625W        W25833  40.827  32.614  14.886
61626W        W25834   1.863  23.991  10.486
61627W        W25835   7.297  13.734   0.463
61628W        W25836  41.919  31.524  14.458
61629W        W25837   6.231  44.289   3.782
61630W        W25838  25.137  22.070  10.092
61631W        W25839  44.966  24.986  14.381
61632W        W25840   5.794   4.844  12.959
61633W        W25841  39.314  42.845  13.496
61634W        W25842  28.163  42.297   4.196
61635W        W25843  36.881  22.637  13.479
61636W        W25844  35.856  37.480  12.939
61637W        W25845  11.234  20.209   1.704
61638W        W25846  21.220  32.426  11.496
61639W        W25847  41.880  19.558  14.971
61640W        W25848  26.621  11.711  11.515
61641W        W25849  12.174  42.324   0.754
61642W        W25850  36.886  30.085   1.731
61643W        W25851  27.537  41.355  12.353
61644W        W25852  39.478  14.114   0.321
61645W        W25853  40.542  15.227   5.140
61646W        W25854  40.967  34.580  11.041
61647W        W25855   2.349  19.270  14.927
61648W        W25856  32.455  37.048  11.988
61649W        W25857  30.158  16.202   1.211
61650W        W25858  32.571  12.301   1.870
61651W        W25859  41.384  13.131   3.214
61652W        W25860   7.368  31.586  11.590
61653W        W25861  24.707  23.672  11.599
61654W        W25862  29.037  42.378  11.392
61655W        W25863  23.517  13.730   2.214
61656W        W25864  36.094  27.456  10.976
61657W        W25865  40.547  24.090  13.799
61658W        W25866  37.406  41.811   2.854
61659W        W25867   3.898  23.563   3.722
61660W        W25868  38.057  41.971  14.920
61661W        W25869  17.187  17.692   4.279
61662W        W25870   0.446   7.870  12.517
61663W        W25871  11.148  12.320   3.841
61664W        W25872  16.189  28.513   4.288
61665W        W25873   8.694   0.388  13.499
61666W        W25874  38.991   2.923   4.270
61667W        W25875  36.965  44.877   1.428
61668W        W25876  11.862  38.941   4.239
61669W        W25877  24.511   5.734  12.449
61670W        W25878  39.543  13.239   4.783
61671W        W25879  40.518  19.610  13.845
61672W        W25880  41.497   6.725  13.799
61673W        W25881   1.364  41.499  14.990
61674W        W25882  16.615  33.086   1.284
61675W        W25883   8.733  36.353  11.963
61676W        W25884  27.976   7.854   1.898
61677W        W25885  29.454  36.926   0.893
61678W        W25886  14.821   2.395  13.955
61679W        W25887  33.527  27.154  12.876
61680W        W25888   9.754  13.149   3.368
61681W        W25889  13.137  18.713  14.500
61682W        W25890  40.404  36.876  10.567
61683W        W25891  42.848   4.438  14.869
61684W        W25892  14.730  39.003  12.057
61685W        W25893   1.923  22.098  12.477
61686W        W25894  36.545  16.619   4.638
61687W        W25895  11.213  28.034   3.637
61688W        W25896  17.580  41.828  13.463
61689W        W25897   9.154  33.117   2.831
61690W        W25898  36.487   7.299  14.515
61691W        W25899  13.167  38.953  10.576
61692W        W25900  34.371   5.781  12.342
61693W        W25901  30.980  13.338  14.304
61694W        W25902  27.556   8.829   3.857
61695W        W25903  40.433  42.981   2.691
61696W        W25904  16.631   7.756   3.793
61697W        W25905  10.679  32.064  11.951
61698W        W25906  14.196  20.246   3.803
61699W        W25907  31.011  38.357   4.230
61700W        W25908  37.520  23.730   3.375
61701W        W25909  35.435  15.707  12.051
61702W        W25910  16.625  36.465   1.741
61703W        W25911   2.789  34.555  10.450
61704W        W25912  29.937  37.388  12.544
61705W        W25913  15.625   3.249   0.357
61706W        W25914   1.839  32.120   4.270
61707W        W25915  13.246  27.479  11.453
61708W        W25916  28.076   9.874  13.819
61709W        W25917  33.129  23.638  11.495
61710W        W25918   9.168  17.211   5.309
61711W        W25919  30.003  15.210   2.311
61712W        W25920  27.130  28.055   4.184
61713W        W25921  20.076  26.097   1.232
61714W        W25922   6.810   2.934  14.919
61715W        W25923  21.688  40.850  11.584
61716W        W25924  34.973  36.847  10.549
61717W        W25925  13.722  27.085  10.596
61718W        W25926   3.848  39.428   3.344
61719W        W25927  23.691  24.545  11.012
61720W        W25928  11.294  28.966  14.439
61721W        W25929   2.269  23.713  12.516
61722W        W25930  38.552  16.646   0.288
61723W        W25931   7.807  39.950   1.362
61724W        W25932  23.214  35.556  13.347
61725W        W25933  37.852  22.503   1.800
61726W        W25934  39.973  29.031  14.382
61727W        W25935  13.620  25.000  12.051
61728W        W25936  26.961   5.695  13.364
61729W        W25937   7.688  21.041  14.338
61730W        W25938   4.927   2.233   3.818
61731W        W25939  33.597  39.415  13.021
61732W        W25940  24.063   5.830  10.933
61733W        W25941  12.768  32.072  11.068
61734W        W25942  34.513  40.041  14.891
61735W        W25943  37.409  44.440   4.794
61736W        W25944  28.120  41.922  10.508
61737W        W25945   1.425  26.133   2.304
61738W        W25946   4.745  22.571   1.696
61739W        W25947  26.681  12.721   0.732
61740W        W25948  25.055   3.336   2.326
61741W        W25949  20.252  42.800  13.970
61742W        W25950  34.022  40.906   3.663
61743W        W25951  34.991   8.833  10.414
61744W        W25952  16.640  29.135  14.477
61745W        W25953   8.711  38.953  10.890
61746W        W25954   8.899  28.583   3.828
61747W        W25955  43.869  19.712  11.969
61748W        W25956  12.846  40.815   4.240
61749W        W25957  25.623  11.364  11.523
61750W        W25958  44.909   4.427  14.000
61751W        W25959  15.318  38.551  14.001
61752W        W25960  23.098  16.288   9.958
61753W        W25961  11.301  44.300  11.453
61754W        W25962  22.121  39.823  13.948
61755W        W25963  31.011  16.143   1.764
61756W        W25964   6.753  33.433   1.347
61757W        W25965  43.911  27.527   4.628
61758W        W25966  25.012  43.300   1.768
61759W        W25967   7.781   0.313   3.315
61760W        W25968  29.939   3.929   0.252
61761W        W25969  13.648   6.869   3.737
61762W        W25970  12.639  35.569   4.704
61763W        W25971  37.344  19.585   2.270
61764W        W25972   1.745  14.725   0.249
61765W        W25973  16.715  20.749   1.803
61766W        W25974  20.087  28.119  12.436
61767W        W25975  14.226  34.549   4.813
61768W        W25976  37.021  35.102  12.853
61769W        W25977  15.621  29.087   4.117
61770W        W25978  23.547  24.655  13.450
61771W        W25979  31.493  40.458   3.155
61772W        W25980   5.706  35.982  11.920
61773W        W25981  40.399   7.225   0.747
61774W        W25982  26.459  25.005   3.173
61775W        W25983  17.581  18.700  10.608
61776W        W25984  28.170   3.743  11.601
61777W        W25985   4.397  14.687   1.430
61778W        W25986  38.996   2.324   4.132
61779W        W25987   9.887   9.303  12.094
61780W        W25988   3.789  28.146  13.882
61781W        W25989  18.721  43.776   2.209
61782W        W25990  12.666  34.435   2.400
61783W        W25991  23.712  30.054   2.272
61784W        W25992  10.696  44.447  10.079
61785W        W25993   8.804  42.304   2.831
61786W        W25994  44.966  16.157   3.375
61787W        W25995  19.662  14.176   4.691
61788W        W25996  15.697  16.123   2.796
61789W        W25997  11.864   8.201   3.802
61790W        W25998  39.374  37.949  13.004
61791W        W25999  12.254   2.419   4.617
61792W        W26000  22.603   7.773   1.346
61793W        W26001  26.028  37.377  13.489
61794W        W26002  23.164   4.751   4.288
61795W        W26003  13.349  26.563  10.515
61796W        W26004  22.046  42.315   4.231
61797W        W26005  13.805  15.279   4.304
61798W        W26006  21.646  19.600   1.365
61799W        W26007  42.902  39.339  13.470
61800W        W26008  21.246  38.401  10.968
61801W        W26009   8.273  37.844  14.382
61802W        W26010  22.677   9.825   1.729
61803W        W26011  30.096  20.642   3.691
61804W        W26012  41.349  18.171   0.443
61805W        W26013  13.221   8.690   0.465
61806W        W26014  28.544  35.476   0.419
61807W        W26015  25.686  38.935   2.754
61808W        W26016  16.674  30.420   0.942
61809W        W26017  30.441  38.430   0.850
61810W        W26018   8.325  39.475   0.318
61811W        W26019   1.288   0.874   0.299
61812W        W26020  34.602  23.093  11.535
61813W        W26021  22.204  17.067  12.865
61814W        W26022  15.818  31.966  14.487
61815W        W26023  43.859  32.463   1.713
61816W        W26024  11.845   6.341  10.912
61817W        W26025  43.423  41.824   1.928
61818W        W26026  25.097  42.943  13.016
61819W        W26027  22.062  21.112   3.386
61820W        W26028  42.522  34.475  10.441
61821W        W26029  39.346  34.554   0.304
61822W        W26030  36.029   8.240   1.745
61823W        W26031  24.229  39.451   0.893
61824W        W26032  27.974   6.839  12.921
61825W        W26033  40.398  17.598  13.912
61826W        W26034  32.565  40.807   3.845
61827W        W26035  31.633  25.704   3.753
61828W        W26036  42.512  16.258  14.438
61829W        W26037  12.329  31.493  11.915
61830W        W26038  22.228  39.953  11.593
61831W        W26039  14.718  31.114   3.811
61832W        W26040  42.949   0.295  15.000
61833W        W26041   2.280  12.783  13.791
61834W        W26042  43.489  36.087  13.895
61835W        W26043   5.886  32.537   3.774
61836W        W26044  31.572   8.834  12.046
61837W        W26045  27.051  11.645   2.831
61838W        W26046  22.548  42.379  14.869
61839W        W26047   1.361  25.065   4.658
61840W        W26048  13.114  43.865  11.470
61841W        W26049  10.827   7.369   1.252
61842W        W26050  12.827  37.376   3.258
61843W        W26051  16.170  26.073   3.753
61844W        W26052  21.056  42.869  10.904
61845W        W26053  27.117  43.446   4.306
61846W        W26054  18.642  26.006  10.577
61847W        W26055  24.722   1.419   0.808
61848W        W26056  13.106  17.291   2.690
61849W        W26057  43.907  30.138   0.756
61850W        W26058  32.063  13.730   3.298
61851W        W26059  42.313  20.739   4.120
61852W        W26060   8.655   6.236  13.951
61853W        W26061  21.047   5.204   2.199
61854W        W26062   0.936  35.373   3.161
61855W        W26063   9.682   5.861  12.863
61856W        W26064  21.197   4.764   1.910
61857W        W26065  21.723  25.171  11.977
61858W        W26066   6.793   6.875  12.873
61859W        W26067   1.479  33.536   0.924
61860W        W26068   2.749  35.889  13.529
61861W        W26069   4.370  12.155   3.306
61862W        W26070  34.451  40.392   3.869
61863W        W26071  31.097  41.949  14.802
61864W        W26072  41.994   7.665  13.991
61865W        W26073  14.163  11.340  14.005
61866W        W26074  16.771  14.124  10.612
61867W        W26075  12.790   4.323  14.824
61868W        W26076  15.753  14.227   2.718
61869W        W26077  42.967  42.851   1.402
61870W        W26078  32.906  27.599   1.381
61871W        W26079  34.956   8.215  10.563
61872W        W26080  42.030  23.639  14.442
61873W        W26081  13.845  23.527  13.370
61874W        W26082  13.741  38.013  11.118
61875W        W26083   4.260  17.662  12.854
61876W        W26084  37.021  42.436   2.738
61877W        W26085  38.040  44.368   9.997
61878W        W26086  21.263  17.231   1.739
61879W        W26087   2.839   8.708  14.482
61880W        W26088  17.274  27.019   4.282
61881W        W26089  21.667  29.936   1.313
61882W        W26090   5.742   7.303  10.510
61883W        W26091  17.145  29.659  12.836
61884W        W26092  42.306  28.931  13.944
61885W        W26093  15.092   7.309  11.501
61886W        W26094  42.463  20.560  11.510
61887W        W26095  25.476  41.993  14.362
61888W        W26096  34.546   4.933  14.451
61889W        W26097  36.981  38.045   1.867
61890W        W26098  35.468  37.029  14.879
61891W        W26099  24.219  18.651  11.983
61892W        W26100  42.995  28.972   1.242
61893W        W26101  39.411  34.457   4.799
61894W        W26102  41.883  30.922  12.874
61895W        W26103  25.705   6.333  10.599
61896W        W26104  34.889  14.672  12.343
61897W        W26105   5.711  17.148  14.337
61898W        W26106  21.141   4.842  12.354
61899W        W26107  23.015   0.324  11.492
61900W        W26108  35.971   2.767  13.365
61901W        W26109  43.382  38.850   4.311
61902W        W26110   2.841  43.932   2.830
61903W        W26111  35.955  27.159   0.383
61904W        W26112  22.506   0.792  13.452
61905W        W26113  15.185  35.946  14.887
61906W        W26114   4.836  44.426   3.826
61907W        W26115  21.247  21.629  12.981
61908W        W26116   3.244  10.690   1.406
61909W        W26117  29.424  38.059   2.732
61910W        W26118  29.076  39.811  14.468
61911W        W26119  44.319  27.605   0.360
61912W        W26120  36.084  34.595  10.592
61913W        W26121   6.361  18.174  10.960
61914W        W26122  38.436  10.685  12.567
61915W        W26123  15.776  29.960  10.955
61916W        W26124  44.968  15.746   3.650
61917W        W26125  31.917   9.843  14.807
61918W        W26126  39.433  18.723   1.365
61919W        W26127  19.133  32.595  14.430
61920W        W26128  15.220  41.853  11.580
61921W        W26129  27.052  22.234   0.860
61922W        W26130   0.970   6.761  13.928
61923W        W26131  37.530  43.416  13.006
61924W        W26132  44.263  19.621  14.428
61925W        W26133   3.435  40.413   4.767
61926W        W26134  14.758  17.763  11.579
61927W        W26135   3.409  21.659   0.852
61928W        W26136  31.421  26.528   0.255
61929W        W26137  35.876   5.438  11.481
61930W        W26138  31.077   8.742   4.138
61931W        W26139   1.889  15.665  14.430
61932W        W26140  20.596  19.541   4.184
61933W        W26141  38.072   4.263  14.478
61934W        W26142   9.286  39.544   1.260
61935W        W26143   5.278  39.498   2.237
61936W        W26144   9.166  31.953   3.648
61937W        W26145  30.567  26.677  11.953
61938W        W26146  27.556  24.675  12.929
61939W        W26147  10.637  31.980  12.900
61940W        W26148  35.028  10.673  14.018
61941W        W26149  32.936  12.811  11.859
61942W        W26150   5.822  34.413   1.694
61943W        W26151  18.660  33.103  12.534
61944W        W26152  39.853  14.781   3.249
61945W        W26153  20.134  19.047  11.066
61946W        W26154   9.850  25.537   2.372
61947W        W26155   7.225  44.763  14.381
61948W        W26156  15.318  44.280   2.871
61949W        W26157  34.436   7.417   4.234
61950W        W26158  34.004  16.673  11.571
61951W        W26159  41.015  32.426   2.414
61952W        W26160  25.126  26.007  12.992
61953W        W26161  16.137  10.768  10.600
61954W        W26162   3.274  16.614   1.417
61955W        W26163  31.957   4.317   3.838
61956W        W26164  18.188  10.697   2.214
61957W        W26165  14.252   2.321  11.982
61958W        W26166  19.058  17.282   2.665
61959W        W26167  31.470   2.327   4.327
61960W        W26168   5.383  28.972   1.334
61961W        W26169  24.577  28.042   1.277
61962W        W26170  30.017  28.008  13.057
61963W        W26171  13.295  28.627  12.465
61964W        W26172   6.384  23.125   4.672
61965W        W26173  26.175   9.174   1.920
61966W        W26174  41.013  43.354   0.774
61967W        W26175  20.587  17.170   3.204
61968W        W26176  30.573  34.914  14.494
61969W        W26177   2.728  25.526   4.268
61970W        W26178  23.584  41.787  13.342
61971W        W26179  29.635  10.708   1.441
61972W        W26180  38.846  13.615  13.475
61973W        W26181  20.236  33.893  14.382
61974W        W26182  14.592   4.721   1.862
61975W        W26183  30.075  20.209   2.416
61976W        W26184   5.266  30.952  11.031
61977W        W26185  35.075   0.422   9.936
61978W        W26186  20.157   4.285   5.127
61979W        W26187  28.560  33.556   3.164
61980W        W26188  28.598  31.044   2.747
61981W        W26189  20.524   7.371   1.840
61982W        W26190  15.610  17.718  10.591
61983W        W26191  26.538  42.025   0.287
61984W        W26192  10.321  27.021   2.739
61985W        W26193  23.614  14.814   4.206
61986W        W26194  36.095  21.596   0.252
61987W        W26195   9.735   5.218  13.990
61988W        W26196  14.716   8.202   0.363
61989W        W26197  34.089  42.441  12.509
61990W        W26198  30.528   8.262  12.959
61991W        W26199  15.119  40.978  14.427
61992W        W26200  35.380  30.132  14.299
61993W        W26201  36.997   8.713  10.520
61994W        W26202  33.507   8.406   4.127
61995W        W26203  24.986  43.376   2.276
61996W        W26204   1.776   8.863   3.682
61997W        W26205  35.456  25.042  12.880
61998W        W26206  28.140   4.943  13.382
61999W        W26207  28.473   6.240  11.974
62000W        W26208  44.912  28.180  12.037
62001W        W26209  40.412  30.163   2.282
62002W        W26210  27.606  38.455   1.829
62003W        W26211  11.759  18.149   2.883
62004W        W26212  24.690  18.626   2.264
62005W        W26213   7.320  19.123   4.284
62006W        W26214   6.751  32.066   0.800
62007W        W26215  11.821  41.837  14.476
62008W        W26216  32.925   1.442   0.418
62009W        W26217   7.817   9.196   3.205
62010W        W26218  39.318  31.426   0.377
62011W        W26219   3.764  16.216   4.649
62012W        W26220  23.990  35.898   5.275
62013W        W26221   3.349  19.582   1.857
62014W        W26222   2.770  38.949   0.335
62015W        W26223  40.434   7.243  11.062
62016W        W26224  21.755  14.808   5.152
62017W        W26225  42.982  36.955   3.686
62018W        W26226  25.064  21.166  10.116
62019W        W26227  43.468   6.751  14.885
62020W        W26228  25.538  29.472  10.115
62021W        W26229  36.841  31.981  13.863
62022W        W26230   4.230   0.780  14.300
62023W        W26231   0.777  40.391  14.457
62024W        W26232  29.971   0.485  12.990
62025W        W26233  11.150  13.609  13.455
62026W        W26234  43.975  33.482   2.307
62027W        W26235  31.912  28.669   1.224
62028W        W26236   2.369  41.335   0.941
62029W        W26237   3.457  27.941   3.802
62030W        W26238  37.582  35.439  13.791
62031W        W26239  23.214  17.792   9.656
62032W        W26240  29.098   4.228   0.471
62033W        W26241  35.358  44.464   4.192
62034W        W26242  26.457   7.183  10.444
62035W        W26243  11.342   8.159  11.988
62036W        W26244  42.924  37.926  11.889
62037W        W26245   0.933  33.040  11.059
62038W        W26246  40.827  39.420  11.518
62039W        W26247   2.926  39.506  13.801
62040W        W26248   5.217   2.765  13.418
62041W        W26249  22.733   0.336  11.548
62042W        W26250  27.989   9.879  14.274
62043W        W26251   3.392   9.776  10.614
62044W        W26252   2.278  10.286   2.761
62045W        W26253   8.208  18.616  10.573
62046W        W26254  30.547  10.292  13.859
62047W        W26255   4.421  37.441   0.390
62048W        W26256  11.790  23.211   0.329
62049W        W26257   1.455   1.392   2.313
62050W        W26258  26.063  30.562  12.082
62051W        W26259   9.363  24.994  12.953
62052W        W26260  29.654  19.771  14.449
62053W        W26261  30.011  33.589  14.274
62054W        W26262  32.043   7.751   1.891
62055W        W26263  18.630  32.583   3.660
62056W        W26264  36.555  37.514  14.316
62057W        W26265  34.869  35.002   4.209
62058W        W26266  39.972  22.165  13.543
62059W        W26267  19.591   8.684  12.056
62060W        W26268  43.892  40.913  11.386
62061W        W26269   4.747   2.277  10.600
62062W        W26270  32.080  10.355  10.040
62063W        W26271  24.063  25.052   2.751
62064W        W26272  39.525  35.592   0.755
62065W        W26273  29.923  42.827   0.250
62066W        W26274  11.294  26.648  13.848
62067W        W26275  27.477  20.639  13.388
62068W        W26276   3.906   2.234  11.080
62069W        W26277   1.389  22.032   0.359
62070W        W26278  43.462  19.039  14.489
62071W        W26279  24.005  42.785   2.202
62072W        W26280  29.943  29.030  14.014
62073W        W26281   4.268  13.604   1.864
62074W        W26282  37.434  42.510   3.353
62075W        W26283  16.756  34.094   1.892
62076W        W26284  28.438  31.014  14.447
62077W        W26285  36.097  15.790  10.574
62078W        W26286  29.010  37.870  11.120
62079W        W26287  24.544   8.253  11.990
62080W        W26288  20.579  11.807   0.966
62081W        W26289  41.808   8.205   2.240
62082W        W26290  25.071  12.207  11.417
62083W        W26291  40.020  18.699  12.935
62084W        W26292  24.539   9.203  13.404
62085W        W26293  24.675  36.951   4.182
62086W        W26294   4.301  24.122   2.374
62087W        W26295  42.799  29.434   3.631
62088W        W26296   1.870  41.956  11.397
62089W        W26297  28.536  27.042   4.799
62090W        W26298  14.776  32.955   1.755
62091W        W26299  14.764   9.346  11.049
62092W        W26300  44.874   5.755   2.820
62093W        W26301  14.277  15.800   0.272
62094W        W26302  40.033  21.546   3.748
62095W        W26303   2.860   1.245   0.877
62096W        W26304  15.202  10.324  13.388
62097W        W26305   9.344  34.100   0.394
62098W        W26306  22.703  18.626   3.366
62099W        W26307   7.403  16.689  10.890
62100W        W26308  40.033  27.547   1.761
62101W        W26309   1.408  21.170   0.243
62102W        W26310  24.660   6.793   2.363
62103W        W26311  31.581  29.481   4.770
62104W        W26312  13.642  40.527  14.513
62105W        W26313  36.463  29.995   3.259
62106W        W26314  43.467  41.378   0.930
62107W        W26315   4.825   8.854   0.342
62108W        W26316  31.947   0.791  13.958
62109W        W26317   5.774   2.816   2.713
62110W        W26318  30.123  24.717  10.539
62111W        W26319  40.461  25.567  14.407
62112W        W26320  30.453   0.408  12.903
62113W        W26321   3.891  34.529  14.454
62114W        W26322  11.234   0.327  12.903
62115W        W26323  32.982   2.469   2.394
62116W        W26324  29.053  21.560   4.248
62117W        W26325   5.301  22.101  13.425
62118W        W26326   4.344  28.444   4.251
62119W        W26327  10.235   3.351   0.747
62120W        W26328  19.594  15.303  14.364
62121W        W26329  14.170  28.125  10.915
62122W        W26330  42.979   6.819   0.324
62123W        W26331  43.933  19.065  11.995
62124W        W26332  39.880  37.556  12.428
62125W        W26333  31.613  13.727   4.300
62126W        W26334  34.577   1.399  14.470
62127W        W26335   3.819  15.325   3.862
62128W        W26336  18.565  39.932   1.744
62129W        W26337  10.244   9.723   1.925
62130W        W26338  27.959  16.806   0.419
62131W        W26339   2.432   7.854   4.726
62132W        W26340   9.664  31.047  13.429
62133W        W26341  27.488  43.421   2.353
62134W        W26342  25.004  20.105  10.928
62135W        W26343  20.079  15.128  12.066
62136W        W26344  21.622  28.185   4.705
62137W        W26345  43.458   2.274  11.443
62138W        W26346  43.312  20.616   0.447
62139W        W26347  33.402  14.334   3.350
62140W        W26348  29.084  30.164   2.285
62141W        W26349  14.270   7.193   4.828
62142W        W26350  21.196  29.666   4.141
62143W        W26351  33.952  42.327   4.683
62144W        W26352  31.532  32.947  11.475
62145W        W26353  39.321   0.493   5.718
62146W        W26354  41.943   4.365  12.491
62147W        W26355  24.483  12.165  11.382
62148W        W26356  13.795  43.333   3.836
62149W        W26357   0.819   9.340  14.932
62150W        W26358   9.873  14.285  10.087
62151W        W26359   1.960  29.636   3.276
62152W        W26360  16.095  44.892   2.320
62153W        W26361  16.583   8.329  11.070
62154W        W26362  14.157  29.922  11.426
62155W        W26363  16.610   6.210  13.799
62156W        W26364   9.224  30.444   1.245
62157W        W26365  33.084   2.430   3.675
62158W        W26366  31.996  31.021   1.276
62159W        W26367   2.799  13.670   3.795
62160W        W26368  39.901   6.377   9.996
62161W        W26369  16.106   4.422  14.386
62162W        W26370  36.866  34.057   4.213
62163W        W26371   1.888  34.117   4.734
62164W        W26372  28.979  19.114   3.654
62165W        W26373  34.073  23.731   4.676
62166W        W26374  37.513   1.300   3.194
62167W        W26375  14.775  40.445  12.086
62168W        W26376  26.644  33.440  14.347
62169W        W26377  28.985   9.747   0.932
62170W        W26378  15.248  17.667   0.367
62171W        W26379  42.902  14.673   2.728
62172W        W26380  11.199   1.852  13.327
62173W        W26381  33.883   5.706  11.942
62174W        W26382  14.750  27.054   4.306
62175W        W26383  11.659   9.853   4.642
62176W        W26384  16.748  18.196   2.189
62177W        W26385  30.928  35.103  12.013
62178W        W26386  30.963  44.895  12.877
62179W        W26387  25.088  43.901  12.942
62180W        W26388   4.211   0.341  13.888
62181W        W26389  42.504  35.529   1.426
62182W        W26390   2.393  40.464   4.630
62183W        W26391  35.557  12.722   2.713
62184W        W26392  21.177  35.401  14.383
62185W        W26393  12.198   3.864   4.219
62186W        W26394  38.040  17.165  10.019
62187W        W26395  20.572  40.826   3.185
62188W        W26396   1.452  44.820  14.923
62189W        W26397  29.074   6.327  12.082
62190W        W26398  35.082  40.935  13.524
62191W        W26399  32.523  25.617   3.245
62192W        W26400  13.685  31.035   3.716
62193W        W26401  11.176  17.108   0.761
62194W        W26402  42.403  27.086   0.352
62195W        W26403  19.561  20.769   1.785
62196W        W26404  34.502  41.416  10.518
62197W        W26405  42.006  16.708  11.014
62198W        W26406  37.057  31.001  14.811
62199W        W26407  11.720  41.445  10.449
62200W        W26408  30.013   0.467   0.845
62201W        W26409   5.270  31.047  13.990
62202W        W26410  33.461   5.892   1.296
62203W        W26411  42.937  23.683   2.771
62204W        W26412  43.769  28.983   2.739
62205W        W26413  40.908   4.389   1.733
62206W        W26414  42.442  43.493  10.573
62207W        W26415  43.859   8.172  12.823
62208W        W26416  42.328  28.634   4.652
62209W        W26417  32.965  18.671   2.324
62210W        W26418  20.613   4.244  11.004
62211W        W26419   7.415  29.439   4.680
62212W        W26420  43.297  29.651   9.656
62213W        W26421  11.823  36.964  11.527
62214W        W26422   9.883  43.323  13.315
62215W        W26423  17.743  10.671   3.657
62216W        W26424  24.704   9.778  11.497
62217W        W26425  39.930  15.238   1.229
62218W        W26426  19.687  33.110  10.593
62219W        W26427  16.721   6.814  13.811
62220W        W26428   5.376  37.575   2.887
62221W        W26429  20.588  37.458  14.934
62222W        W26430  26.665  17.682  11.888
62223W        W26431   4.754  43.927   0.460
62224W        W26432   4.919  36.402   4.831
62225W        W26433   8.824  27.490   1.377
62226W        W26434  27.001  27.463  13.520
62227W        W26435  26.019  42.909  14.972
62228W        W26436  14.306  28.483  13.895
62229W        W26437  10.273  43.509  11.496
62230W        W26438  22.033  36.018  11.026
62231W        W26439  15.755  38.826   2.759
62232W        W26440  21.602  32.597  10.930
62233W        W26441  27.607   2.441  10.571
62234W        W26442  14.763   1.810   0.751
62235W        W26443  10.825   0.847   2.391
62236W        W26444   8.676  25.207  13.061
62237W        W26445  26.505  43.377   0.899
62238W        W26446  33.486  30.451   2.379
62239W        W26447   6.869   7.777  10.943
62240W        W26448  37.467   2.347  11.381
62241W        W26449  18.167  19.764   1.443
62242W        W26450  43.342  39.421   0.361
62243W        W26451  13.824  28.163  10.502
62244W        W26452   0.494   9.149   2.414
62245W        W26453  14.822   7.235  10.920
62246W        W26454  10.165  35.019  12.544
62247W        W26455  40.837  23.514  12.058
62248W        W26456   3.387  25.560   1.287
62249W        W26457   7.318  14.825   4.135
62250W        W26458  11.823  25.486  14.969
62251W        W26459   5.924  21.626  10.514
62252W        W26460  35.536   2.843  12.912
62253W        W26461   6.338  43.367   1.753
62254W        W26462  41.952  37.830  11.595
62255W        W26463  35.484  26.645   1.452
62256W        W26464   3.278  25.700   4.333
62257W        W26465  36.947  14.608   0.825
62258W        W26466  13.328  10.788  11.053
62259W        W26467  32.107   0.936   0.442
62260W        W26468  24.010  43.863   1.876
62261W        W26469  35.448  19.578  12.526
62262W        W26470   3.250  37.372   1.697
62263W        W26471   8.757   3.399  13.859
62264W        W26472  22.742  33.564  12.026
62265W        W26473   9.302   6.302   1.773
62266W        W26474   7.362   6.828  11.395
62267W        W26475  18.088   2.285   2.847
62268W        W26476  43.395  15.172  13.921
62269W        W26477  18.773  24.066   4.602
62270W        W26478  25.031   3.829  10.920
62271W        W26479  18.621  22.669   1.313
62272W        W26480  22.667  40.936  14.337
62273W        W26481  28.634   4.781   2.331
62274W        W26482   3.809  26.685  14.862
62275W        W26483   0.988  41.857   3.667
62276W        W26484  14.115   3.432   2.381
62277W        W26485  20.166  14.663   5.234
62278W        W26486  21.592  23.180  12.883
62279W        W26487  25.035  29.970   4.653
62280W        W26488  37.971  18.647   2.367
62281W        W26489  26.962  43.008   3.203
62282W        W26490  27.967  24.614  14.872
62283W        W26491  20.072  13.236  13.443
62284W        W26492  21.682  22.624   3.813
62285W        W26493  17.303  35.424   0.824
62286W        W26494  15.697  16.711  14.017
62287W        W26495   0.430  44.292  12.410
62288W        W26496  27.167  41.336   9.930
62289W        W26497   5.920  39.367   2.662
62290W        W26498  44.000  14.806   0.387
62291W        W26499  28.531   3.294   2.319
62292W        W26500  24.122  39.430  14.367
62293W        W26501  27.686  38.510   4.688
62294W        W26502  35.399  40.497   0.853
62295W        W26503  23.510   9.753  11.608
62296W        W26504  35.543  28.652   0.768
62297W        W26505  26.524  36.025   2.894
62298W        W26506  25.530  31.418  13.808
62299W        W26507  42.313  34.984  13.411
62300W        W26508  24.031  25.519  13.382
62301W        W26509  21.194  28.454  13.970
62302W        W26510  44.266  38.997   2.766
62303W        W26511   6.821  41.966  10.912
62304W        W26512  32.057  26.165  11.602
62305W        W26513  35.459   9.311   0.876
62306W        W26514   5.869  44.274  12.823
62307W        W26515  36.935  34.533   4.645
62308W        W26516  37.966   0.265  11.024
62309W        W26517  19.689  36.917   0.413
62310W        W26518   2.725  24.160  14.844
62311W        W26519  32.633  27.577  14.341
62312W        W26520  25.118  19.132   1.347
62313W        W26521  26.013   5.789  12.453
62314W        W26522   6.271  18.756  13.819
62315W        W26523   8.797   7.225  12.025
62316W        W26524   2.255  20.113   4.637
62317W        W26525  39.434  42.807   3.327
62318W        W26526  14.290  12.194  14.990
62319W        W26527  34.894  40.333  12.051
62320W        W26528   5.715   6.326  10.489
62321W        W26529  20.649  31.960   2.237
62322W        W26530  22.623  44.967   4.655
62323W        W26531  12.780  26.172  13.962
62324W        W26532  43.269  23.115   1.854
62325W        W26533   9.835  23.149  12.057
62326W        W26534  38.419  19.205  14.445
62327W        W26535  36.359   1.911   0.367
62328W        W26536  17.207  43.483   1.769
62329W        W26537   0.778  10.307   4.790
62330W        W26538   0.782  32.104   1.874
62331W        W26539  21.519  16.734   3.841
62332W        W26540  13.243  28.166   0.886
62333W        W26541   9.165  21.123  14.354
62334W        W26542  44.903  24.023   2.321
62335W        W26543  34.431  15.237  12.944
62336W        W26544   4.739  27.118  11.011
62337W        W26545   8.173  31.104   0.320
62338W        W26546  25.697   4.794  14.814
62339W        W26547  40.821  35.425   3.287
62340W        W26548  43.372   5.773  10.641
62341W        W26549  23.688  32.513  14.508
62342W        W26550  40.326  41.506  13.350
62343W        W26551  36.887  23.135   0.930
62344W        W26552   7.257  12.214   1.351
62345W        W26553  15.784  23.233  13.508
62346W        W26554  37.854   9.370  12.405
62347W        W26555   1.975   4.779   3.784
62348W        W26556  30.123  19.763  12.964
62349W        W26557  32.526   1.366  11.445
62350W        W26558   6.766  39.511  10.929
62351W        W26559  19.107   4.317   4.267
62352W        W26560  20.060   4.256   0.330
62353W        W26561  22.685   8.706   0.849
62354W        W26562   6.330  13.692   0.267
62355W        W26563   3.752  33.564  11.008
62356W        W26564  33.911  37.477   2.790
62357W        W26565  22.657  27.953   1.349
62358W        W26566   7.282  32.531   4.153
62359W        W26567  38.859  26.041  10.538
62360W        W26568  44.312  37.496  11.098
62361W        W26569  22.559  14.106  13.334
62362W        W26570  28.937  17.766   4.341
62363W        W26571  44.265  38.023  13.546
62364W        W26572  41.463  41.801  12.971
62365W        W26573  20.620  39.493  10.123
62366W        W26574  26.678  38.375  12.995
62367W        W26575  29.619  33.878  14.832
62368W        W26576  29.922  18.158   0.805
62369W        W26577  37.481  27.164   1.261
62370W        W26578  25.995  37.471  11.974
62371W        W26579  27.041   4.385  14.763
62372W        W26580  25.527  21.056   3.862
62373W        W26581  33.107  43.871  12.530
62374W        W26582  10.243  42.821  12.978
62375W        W26583  27.550  41.366   4.307
62376W        W26584  29.966  23.223   4.221
62377W        W26585  30.488  16.280  10.101
62378W        W26586  16.663  18.683  14.907
62379W        W26587  38.478  41.477  11.482
62380W        W26588  17.100  39.938   4.198
62381W        W26589  40.375   5.226   2.287
62382W        W26590  15.680  23.022  12.902
62383W        W26591  25.580  40.357  11.044
62384W        W26592  38.001  44.274   0.462
62385W        W26593  38.889   0.861  12.444
62386W        W26594  33.585  11.782   1.424
62387W        W26595   0.285  38.877  11.942
62388W        W26596   1.918   5.850  13.509
62389W        W26597  14.130  25.614  11.392
62390W        W26598  18.752  21.756  13.526
62391W        W26599  24.126  25.695  11.943
62392W        W26600  18.585  41.888  13.330
62393W        W26601  15.628  14.103  14.786
62394W        W26602  41.342   3.304  11.078
62395W        W26603  28.181   7.844  12.523
62396W        W26604  34.023   0.747  12.392
62397W        W26605  28.473  27.172  13.822
62398W        W26606  17.233  40.940  14.282
62399W        W26607  25.068  41.897  13.016
62400W        W26608  24.105   0.412   1.248
62401W        W26609  33.595  22.614  12.824
62402W        W26610  20.668  16.779   1.327
62403W        W26611  13.746   6.343  10.584
62404W        W26612   2.812   7.410  13.520
62405W        W26613  38.347  40.934  11.076
62406W        W26614   9.288  11.304  14.023
62407W        W26615  11.748   7.391  14.508
62408W        W26616   4.942  11.826   2.211
62409W        W26617  43.340  25.658  11.384
62410W        W26618  44.499   2.749  12.543
62411W        W26619   0.773  25.468   2.314
62412W        W26620   9.209  12.353   3.708
62413W        W26621  37.409  19.634   1.694
62414W        W26622   5.366  27.114  14.882
62415W        W26623  20.574  10.218   3.823
62416W        W26624   8.192  14.637  12.938
62417W        W26625  23.520  30.095   4.166
62418W        W26626  30.111  23.533   4.686
62419W        W26627   1.450  36.531  11.598
62420W        W26628  22.029  17.195  11.123
62421W        W26629  29.434  10.677  13.534
62422W        W26630   7.231  17.731   2.186
62423W        W26631  42.949  42.412  10.438
62424W        W26632   2.917  28.464  13.422
62425W        W26633  41.900   7.400  11.063
62426W        W26634  27.093  29.059  10.946
62427W        W26635  44.321  21.209  11.611
62428W        W26636  38.861   0.335  13.364
62429W        W26637   9.874  25.167  10.981
62430W        W26638   2.768  31.516   1.821
62431W        W26639   5.770  27.107  12.059
62432W        W26640  36.963  15.221  13.485
62433W        W26641  36.491  13.770  10.615
62434W        W26642  29.572   6.214  14.339
62435W        W26643  44.859  25.638  11.601
62436W        W26644  17.789  37.572  12.539
62437W        W26645  42.490  41.814   2.368
62438W        W26646  29.515  27.172   2.195
62439W        W26647  16.185  14.669   3.166
62440W        W26648  29.055  42.006  13.330
62441W        W26649  22.668  11.141   2.184
62442W        W26650   2.828  33.039  12.977
62443W        W26651  32.139  18.674  11.112
62444W        W26652  37.461  17.674   2.840
62445W        W26653  23.690   7.293  10.542
62446W        W26654   7.906  21.687   4.319
62447W        W26655  41.496  38.035  13.905
62448W        W26656  16.231  16.293   3.781
62449W        W26657  23.992  24.121  13.323
62450W        W26658   6.385  41.389  11.993
62451W        W26659   5.203  38.380   3.683
62452W        W26660  23.134  37.489  12.443
62453W        W26661  30.968  38.959  14.003
62454W        W26662   2.313  29.013   1.301
62455W        W26663   0.896  24.002   3.377
62456W        W26664   5.384  10.178   0.747
62457W        W26665  33.564  39.445  11.541
62458W        W26666  25.667  24.039  13.434
62459W        W26667  16.292   4.905  13.992
62460W        W26668  22.564   2.308  10.498
62461W        W26669  24.667  23.733  14.317
62462W        W26670  11.731  10.776  11.541
62463W        W26671   9.155   6.802  11.529
62464W        W26672  10.139  33.381   1.856
62465W        W26673  29.497   0.789   0.371
62466W        W26674  44.310  36.920   0.821
62467W        W26675  10.369   7.267   1.703
62468W        W26676  27.503  43.866   0.752
62469W        W26677  35.074  43.016  11.991
62470W        W26678  17.148  20.087   3.692
62471W        W26679   7.703  19.574  14.915
62472W        W26680   8.853  10.805  11.479
62473W        W26681  37.561  33.927   3.222
62474W        W26682   6.235  12.328   2.204
62475W        W26683  37.352  26.117  10.612
62476W        W26684  13.109  13.781  11.420
62477W        W26685  14.698  15.239  13.833
62478W        W26686   1.854  19.108  12.452
62479W        W26687   1.794  42.404   4.245
62480W        W26688  10.859  13.151  11.957
62481W        W26689  10.377  10.807  11.457
62482W        W26690  10.212  44.851   3.668
62483W        W26691   6.707  32.917  14.824
62484W        W26692  30.611  32.557   0.913
62485W        W26693  12.353  33.619  12.398
62486W        W26694   6.188   8.347  12.413
62487W        W26695  39.934   1.944   3.364
62488W        W26696  42.363  11.371  13.348
62489W        W26697  10.305   1.879   4.141
62490W        W26698  32.032   9.269   2.786
62491W        W26699   2.260  25.972  12.048
62492W        W26700  24.018   8.831  12.848
62493W        W26701  27.976   0.902  13.053
62494W        W26702  43.787  39.913   3.811
62495W        W26703  34.018   6.877  13.544
62496W        W26704  16.073  37.439  12.490
62497W        W26705  15.708  20.077  14.972
62498W        W26706  34.534  23.604  14.951
62499W        W26707  17.281  36.367  13.014
62500W        W26708   7.192  31.037  14.793
62501W        W26709  20.092  12.358   4.606
62502W        W26710   7.331  20.668  13.901
62503W        W26711  44.922  43.287  13.822
62504W        W26712  20.695  32.398   2.844
62505W        W26713  34.120  36.907   1.921
62506W        W26714  35.518  21.248   4.305
62507W        W26715  35.372   5.331  11.939
62508W        W26716  40.029  25.176  11.547
62509W        W26717  36.097  41.869  14.306
62510W        W26718  24.989  36.574  13.361
62511W        W26719  42.520  22.035  14.360
62512W        W26720   3.735   7.835  11.093
62513W        W26721  43.273  38.038  14.003
62514W        W26722  12.349   5.717  13.822
62515W        W26723   0.830  15.702   2.209
62516W        W26724  15.703  41.911   3.783
62517W        W26725  34.507   5.437  12.892
62518W        W26726  43.406  35.877  12.339
62519W        W26727  30.058  34.559   1.903
62520W        W26728  23.589   1.328  11.548
62521W        W26729   6.393  12.271  12.542
62522W        W26730   3.300   5.360  12.473
62523W        W26731  37.877  28.650  14.447
62524W        W26732  31.992  41.498   2.891
62525W        W26733  21.731  28.654  11.611
62526W        W26734   1.348   3.374   0.826
62527W        W26735   6.917  41.426  14.323
62528W        W26736  36.538  16.314   4.156
62529W        W26737  11.715  30.524  10.607
62530W        W26738  19.554  39.844   1.730
62531W        W26739  44.005  26.615   1.212
62532W        W26740  44.417   8.330   3.334
62533W        W26741  28.155  24.105   4.116
62534W        W26742  24.206  36.525  13.420
62535W        W26743   8.243   6.881   4.787
62536W        W26744  13.843  30.027  11.522
62537W        W26745   9.682   3.809   0.804
62538W        W26746  35.945  10.707  11.586
62539W        W26747  42.458  33.444   0.293
62540W        W26748   5.276  11.193   3.172
62541W        W26749  15.621  13.191   1.744
62542W        W26750  31.596  31.555  13.452
62543W        W26751  22.527  18.242  11.446
62544W        W26752  41.319   5.824   4.348
62545W        W26753   6.317  25.505  14.022
62546W        W26754  24.723  44.760  13.806
62547W        W26755  20.605   6.778  13.060
62548W        W26756  21.084  14.716   1.884
62549W        W26757  36.536   3.273   2.749
62550W        W26758   6.406  28.969   3.747
62551W        W26759  28.458   1.948  14.925
62552W        W26760  25.183   7.889   4.157
62553W        W26761  40.456  11.190   3.819
62554W        W26762  12.291   7.202  10.956
62555W        W26763  23.696   6.681  12.923
62556W        W26764   9.365   5.400   4.836
62557W        W26765  13.272   2.747  13.063
62558W        W26766  16.077  25.516   1.352
62559W        W26767   3.268  38.355   2.332
62560W        W26768  35.028  43.308  10.597
62561W        W26769  24.090  33.566  11.567
62562W        W26770  21.519  22.134   3.772
62563W        W26771  36.874   5.213   3.283
62564W        W26772  13.246   9.255  13.319
62565W        W26773  17.730  25.500   1.224
62566W        W26774  14.797  16.790   3.336
62567W        W26775  34.452  12.721   0.771
62568W        W26776  13.315  24.076   3.230
62569W        W26777   5.897  26.152  11.511
62570W        W26778   7.725  40.452   0.255
62571W        W26779  42.922   2.355   3.189
62572W        W26780  23.059  11.807  10.577
62573W        W26781  39.361  43.452  13.848
62574W        W26782  12.744  26.639  14.404
62575W        W26783  11.260  43.402  13.844
62576W        W26784   9.154  13.218  13.326
62577W        W26785  35.375  11.360   0.269
62578W        W26786  25.090  37.901  11.862
62579W        W26787  12.327  22.215  10.956
62580W        W26788  21.201  20.096  13.312
62581W        W26789  26.500  24.520  10.919
62582W        W26790  40.380  16.316  11.987
62583W        W26791   1.373  37.480   4.203
62584W        W26792  44.266   7.686   3.193
62585W        W26793  20.530  35.449  14.323
62586W        W26794   7.346   4.836   2.388
62587W        W26795  17.296   2.877  13.998
62588W        W26796  44.431   0.962   3.784
62589W        W26797   2.806   6.828   2.308
62590W        W26798  28.939  31.636   1.783
62591W        W26799  32.080  23.568  11.473
62592W        W26800  39.530  37.406  11.925
62593W        W26801   7.752   9.270   4.227
62594W        W26802  23.659   7.813   1.865
62595W        W26803  43.343  31.069  11.097
62596W        W26804  14.335  20.597   3.831
62597W        W26805  18.278  38.008  13.879
62598W        W26806   6.390   3.273   1.728
62599W        W26807  30.942  10.264  14.358
62600W        W26808  43.885  37.548   1.696
62601W        W26809  36.889  30.008   2.878
62602W        W26810  27.172  21.122   0.375
62603W        W26811  43.803   4.450   1.442
62604W        W26812  32.946  36.076   2.737
62605W        W26813  44.463  31.088  10.565
62606W        W26814  42.417  38.439  14.332
62607W        W26815  24.562  36.932  13.518
62608W        W26816  20.084  38.540   3.785
62609W        W26817  39.381   3.807   3.632
62610W        W26818  23.093  10.355  11.108
62611W        W26819  33.959   6.408   1.932
62612W        W26820   4.743  30.930   9.999
62613W        W26821  21.627  43.373   3.298
62614W        W26822  42.790  36.473   5.297
62615W        W26823  37.954   2.804   4.157
62616W        W26824  37.893  37.383  10.995
62617W        W26825   7.410  33.031  11.053
62618W        W26826  36.924  10.706  13.492
62619W        W26827  28.609  36.003   4.135
62620W        W26828  24.212  25.149  12.550
62621W        W26829  11.171  44.265   9.941
62622W        W26830  40.842  19.187   0.831
62623W        W26831  44.893   4.416   3.213
62624W        W26832  19.168   9.267   3.793
62625W        W26833   2.747  15.680  11.977
62626W        W26834  19.547   6.813  14.758
62627W        W26835  40.445  26.638   4.672
62628W        W26836  34.530  38.498   0.376
62629W        W26837  24.690   1.417  14.424
62630W        W26838  25.998  22.161   3.282
62631W        W26839  25.689  18.158  13.042
62632W        W26840   0.744  18.641   0.734
62633W        W26841  28.043  22.098  11.028
62634W        W26842  32.425  18.621  13.337
62635W        W26843   0.903  19.780  12.020
62636W        W26844  37.906  10.188  13.482
62637W        W26845  42.821   3.379   3.375
62638W        W26846  38.943  43.312   0.901
62639W        W26847  15.740  23.102   2.259
62640W        W26848  17.123  40.906  11.477
62641W        W26849  25.165   2.252  10.508
62642W        W26850  18.254  17.102   5.226
62643W        W26851  26.703   0.937  14.382
62644W        W26852  16.797  15.628   0.963
62645W        W26853   4.299  43.292  10.471
62646W        W26854  43.923  10.780   2.829
62647W        W26855  36.576   0.855   4.262
62648W        W26856  25.988   1.315   1.241
62649W        W26857  17.162  17.586   0.252
62650W        W26858   1.483   1.752   0.879
62651W        W26859  36.004  36.522   2.777
62652W        W26860  12.211  16.312  13.888
62653W        W26861   9.332  23.727  12.541
62654W        W26862  30.443  35.434  13.990
62655W        W26863  26.019   4.743  12.849
62656W        W26864   2.361  25.047   2.369
62657W        W26865   6.795   8.346   3.655
62658W        W26866  41.789   6.212   2.795
62659W        W26867  23.990  27.662  14.280
62660W        W26868  28.435  18.220  10.409
62661W        W26869  39.990  25.078   1.703
62662W        W26870  27.012  12.747  14.472
62663W        W26871  22.653  14.197   3.719
62664W        W26872  42.343  28.954  11.432
62665W        W26873  18.746  27.108  12.426
62666W        W26874   8.273  33.901  11.028
62667W        W26875  23.093   7.254   3.179
62668W        W26876  20.600  42.462   1.762
62669W        W26877  23.577  26.494   1.860
62670W        W26878  25.600   1.374   0.371
62671W        W26879  43.493  33.971   2.850
62672W        W26880  38.917  32.637  13.964
62673W        W26881  12.164  15.134  11.908
62674W        W26882  31.137  44.823  13.448
62675W        W26883  44.819  40.926  12.027
62676W        W26884  24.110  20.122  10.909
62677W        W26885   7.185   3.792   4.150
62678W        W26886  25.125  27.613  11.978
62679W        W26887   1.742  30.510   1.253
62680W        W26888   9.214  27.631  11.532
62681W        W26889  44.923  20.085  12.380
62682W        W26890  27.047   4.707   1.298
62683W        W26891  24.607   2.436   3.811
62684W        W26892  28.568  15.145   3.868
62685W        W26893  40.397  14.684  12.054
62686W        W26894  11.813   9.168   1.349
62687W        W26895  23.064  14.700   2.857
62688W        W26896   2.785  13.784  12.342
62689W        W26897  24.669   1.358  13.325
62690W        W26898  37.907  42.012  12.073
62691W        W26899  21.141  13.676  12.863
62692W        W26900  18.571  35.373  10.581
62693W        W26901  31.924  35.019  11.106
62694W        W26902  27.614  22.037  13.339
62695W        W26903  14.160  18.063   1.713
62696W        W26904  30.103  23.534  12.446
62697W        W26905  31.052  17.213  11.100
62698W        W26906  35.496  44.365  14.936
62699W        W26907  38.069   6.250   1.273
62700W        W26908  16.617  30.090   2.871
62701W        W26909   7.332  16.105  13.794
62702W        W26910   4.343  31.916  10.952
62703W        W26911  34.607  40.312  12.033
62704W        W26912  24.590  30.142  14.371
62705W        W26913  42.861  30.463  14.848
62706W        W26914  17.771  38.447  13.881
62707W        W26915  19.675  16.810   2.234
62708W        W26916  15.185  32.400  13.345
62709W        W26917  41.481  20.738  11.497
62710W        W26918   5.920   6.760   4.311
62711W        W26919  24.044  32.899  12.440
62712W        W26920  11.780  25.505  10.007
62713W        W26921  14.243  13.759  10.503
62714W        W26922   3.359  34.001   0.955
62715W        W26923   5.849   6.852  13.954
62716W        W26924  44.935  15.673  13.871
62717W        W26925  25.670  33.575  13.521
62718W        W26926  31.031   1.768   5.194
62719W        W26927  24.186  12.308   1.769
62720W        W26928  41.883  12.670  13.371
62721W        W26929  34.090  25.058  12.385
62722W        W26930  19.579   4.732  12.082
62723W        W26931  34.986   3.801   2.372
62724W        W26932   7.357  38.380   4.184
62725W        W26933  22.533  17.209   3.302
62726W        W26934  16.810   9.884   0.425
62727W        W26935  20.127  32.037   3.159
62728W        W26936  41.009  40.457   2.858
62729W        W26937  18.764  44.771  12.826
62730W        W26938   2.885   3.368   2.222
62731W        W26939  43.809   5.799  13.375
62732W        W26940  43.450  15.759   4.680
62733W        W26941  18.779  16.709   1.712
62734W        W26942  40.476  13.314  13.976
62735W        W26943  23.504  28.521   0.754
62736W        W26944  10.264  33.557   4.225
62737W        W26945  29.970  16.295  13.977
62738W        W26946   6.319  14.268  10.062
62739W        W26947  41.899  17.248  13.454
62740W        W26948  26.081  36.888   2.316
62741W        W26949  28.560  32.091  14.786
62742W        W26950  29.136  20.251  12.081
62743W        W26951   6.359  24.602  13.917
62744W        W26952  26.004   0.332  12.523
62745W        W26953  18.171  42.795   3.792
62746W        W26954   1.255  27.031   3.221
62747W        W26955  21.512  10.873  11.018
62748W        W26956  37.847  29.593   4.263
62749W        W26957  40.304  13.287   0.255
62750W        W26958  11.295  42.786  10.906
62751W        W26959  40.977  35.398   1.779
62752W        W26960  14.651   9.274   2.665
62753W        W26961   8.657   5.396   4.662
62754W        W26962  15.194   2.918   0.916
62755W        W26963   3.918  43.374  12.971
62756W        W26964  32.497  35.940  11.033
62757W        W26965  34.024  14.668   1.934
62758W        W26966   0.447  27.517   3.362
62759W        W26967   4.788  30.942  11.124
62760W        W26968  31.582  35.599  11.982
62761W        W26969  24.559  33.618   0.772
62762W        W26970  18.279  17.226  14.850
62763W        W26971  43.830  12.231  10.443
62764W        W26972  31.951  19.669  12.835
62765W        W26973  36.536   8.870  10.641
62766W        W26974  40.306  44.340  11.072
62767W        W26975  42.824  40.498   0.788
62768W        W26976   5.870  11.754   2.812
62769W        W26977  35.391  33.089   2.305
62770W        W26978  21.173  25.679  13.415
62771W        W26979  19.206  33.887   1.758
62772W        W26980  29.605   1.897   4.183
62773W        W26981  21.170  31.994  10.124
62774W        W26982  27.664  35.495  10.578
62775W        W26983  41.294  28.180   3.648
62776W        W26984  21.536  36.985   1.823
62777W        W26985  27.556   5.256  12.079
62778W        W26986  28.156   0.335  11.998
62779W        W26987  11.763  39.544   4.250
62780W        W26988  25.998  25.587  10.992
62781W        W26989  19.208  22.596   1.448
62782W        W26990  40.842  18.057   1.785
62783W        W26991  10.381  10.276   4.297
62784W        W26992   4.923  19.678   2.828
62785W        W26993  23.494  27.630   4.176
62786W        W26994  23.163  19.184   9.583
62787W        W26995  35.109  32.462  12.396
62788W        W26996   6.234   9.256  12.480
62789W        W26997  44.794  34.557  10.055
62790W        W26998   0.352   3.392  14.393
62791W        W26999  38.995  21.626   4.717
62792W        W27000  34.004  15.281   4.129
62793W        W27001  15.664  25.054  10.038
62794W        W27002   3.436  27.601   0.923
62795W        W27003  25.535  28.625  10.466
62796W        W27004  23.625  15.317   1.741
62797W        W27005  12.244  17.220  13.476
62798W        W27006  22.514  13.659  14.977
62799W        W27007  10.782  12.819   0.803
62800W        W27008  39.992  11.704   2.379
62801W        W27009   6.217  15.223   1.741
62802W        W27010   9.802  26.082   2.842
62803W        W27011  13.162  18.296   3.316
62804W        W27012  19.560  26.640  12.070
62805W        W27013  13.282  39.974  12.868
62806W        W27014  20.555   9.823  12.488
62807W        W27015  35.566  14.120  14.861
62808W        W27016  33.405  13.300  12.883
62809W        W27017  12.723  40.451   2.389
62810W        W27018  20.643  37.376  11.593
62811W        W27019  42.420  12.357  14.956
62812W        W27020   8.250  41.967   0.389
62813W        W27021  43.960  35.878  11.938
62814W        W27022  40.393  14.151   2.243
62815W        W27023  25.188   0.393   4.118
62816W        W27024  33.508  37.989   1.814
62817W        W27025  23.059  21.138  13.467
62818W        W27026  36.897  34.901   2.344
62819W        W27027  19.546  41.854   2.206
62820W        W27028   1.309  42.887  12.522
62821W        W27029   4.742  14.184   4.203
62822W        W27030  26.700   8.337   1.322
62823W        W27031  31.029  13.686   5.139
62824W        W27032  32.545  29.134   1.717
62825W        W27033   0.376   8.744   4.703
62826W        W27034  13.115  29.111  10.405
62827W        W27035  21.705   0.305  12.368
62828W        W27036   8.720   7.857   0.758
62829W        W27037  24.622   0.252  13.929
62830W        W27038  34.055  35.504  14.762
62831W        W27039  23.726  30.980   1.261
62832W        W27040  20.212  40.441  14.469
62833W        W27041   6.389  10.284  12.554
62834W        W27042  34.455  23.533   0.854
62835W        W27043  31.526  39.951   3.858
62836W        W27044  17.605   5.278   2.261
62837W        W27045  33.573  22.643   0.901
62838W        W27046  19.263  33.453  11.598
62839W        W27047  19.704  12.756  11.999
62840W        W27048  29.051  30.912  11.894
62841W        W27049  11.780  30.160  10.553
62842W        W27050   4.739  19.679   2.234
62843W        W27051  18.067  10.668   4.696
62844W        W27052  21.598  22.736   0.841
62845W        W27053  39.509  44.939   4.782
62846W        W27054  24.098  39.964   4.348
62847W        W27055  37.538  18.267  11.529
62848W        W27056  27.163  31.636  14.491
62849W        W27057   0.329  36.442   0.391
62850W        W27058  41.017   0.749  13.848
62851W        W27059  10.273   1.786  11.019
62852W        W27060  12.779  38.430  13.915
62853W        W27061  31.962  15.259  13.360
62854W        W27062   2.266  26.524   2.398
62855W        W27063  37.517  23.063   4.615
62856W        W27064   4.881  21.180  12.983
62857W        W27065  18.665  25.557   4.120
62858W        W27066  14.601  35.103   2.392
62859W        W27067  29.070  15.170   3.278
62860W        W27068  18.749  32.597  11.597
62861W        W27069  25.469  43.004  11.404
62862W        W27070   4.912   5.862   9.978
62863W        W27071  33.075   4.814   4.691
62864W        W27072  22.570  13.257  12.573
62865W        W27073   3.768   3.824  13.863
62866W        W27074  32.422  18.782  11.445
62867W        W27075   9.286   9.178  14.989
62868W        W27076  21.161  17.569   2.887
62869W        W27077  30.639  37.033   1.330
62870W        W27078  37.425  24.028   4.741
62871W        W27079  14.169  40.339   0.818
62872W        W27080  13.346   0.938  14.290
62873W        W27081   4.916  37.975  12.054
62874W        W27082  42.332  39.862   2.281
62875W        W27083  13.199  14.117   1.218
62876W        W27084  24.696  22.130  10.980
62877W        W27085  20.723  33.930   0.271
62878W        W27086  29.099   1.355   2.782
62879W        W27087  39.397   2.782   1.868
62880W        W27088  13.682   6.333   0.403
62881W        W27089  42.421  20.550   3.182
62882W        W27090  23.585  40.948  14.840
62883W        W27091  15.787  36.984  12.906
62884W        W27092  33.518   9.152  13.795
62885W        W27093   2.438  30.154  10.980
62886W        W27094   7.700  27.001  13.307
62887W        W27095  18.175  30.434   0.463
62888W        W27096  26.109  28.664  12.949
62889W        W27097  33.422  34.046   3.203
62890W        W27098  42.798  44.294   0.313
62891W        W27099  30.907  23.230  11.044
62892W        W27100  33.598  23.116   3.683
62893W        W27101  15.765  17.254  11.421
62894W        W27102  15.310  24.606  10.441
62895W        W27103  15.282  44.425   2.255
62896W        W27104  22.551  29.011  13.383
62897W        W27105  22.587  30.551   0.373
62898W        W27106  15.647  44.916   3.784
62899W        W27107  15.215  39.910  10.049
62900W        W27108  14.113  37.565   0.371
62901W        W27109  18.671  10.356   0.756
62902W        W27110   6.404  30.962  10.450
62903W        W27111  13.262  35.861   3.785
62904W        W27112  44.821  39.914  11.427
62905W        W27113  35.092  21.204  12.062
62906W        W27114  28.618  41.991   1.363
62907W        W27115  44.480  37.570   1.431
62908W        W27116  15.681  35.444   2.300
62909W        W27117  32.927  34.384   0.327
62910W        W27118   0.355  24.606   4.303
62911W        W27119   7.173   9.658  14.931
62912W        W27120   0.771  36.551  12.515
62913W        W27121  16.186  12.174   0.849
62914W        W27122  30.145  39.389   4.306
62915W        W27123   9.699  15.110   1.274
62916W        W27124  32.913  26.595  10.074
62917W        W27125  16.654   3.423  13.389
62918W        W27126   9.850   6.910  11.385
62919W        W27127   3.777  33.085  14.446
62920W        W27128  35.043  28.170   2.291
62921W        W27129  37.515  18.729  12.506
62922W        W27130   3.373   3.876  12.876
62923W        W27131  34.984   7.386   2.389
62924W        W27132  25.499  44.309   4.834
62925W        W27133   8.306  41.324   1.275
62926W        W27134   3.351  14.732   1.832
62927W        W27135  20.032  26.695  14.452
62928W        W27136  26.184  30.125  12.078
62929W        W27137  34.086   8.808   4.630
62930W        W27138  36.385   7.864   3.361
62931W        W27139  37.530  15.719  13.986
62932W        W27140   3.275  33.523   3.746
62933W        W27141  41.027   5.362   2.861
62934W        W27142  25.712  39.004   1.928
62935W        W27143  15.681  33.069  11.410
62936W        W27144  36.896  29.978  12.527
62937W        W27145  44.768  34.407   9.672
62938W        W27146  31.052   2.270  13.850
62939W        W27147  38.348  34.903   0.892
62940W        W27148  28.437  11.318   2.289
62941W        W27149  25.534  38.552   1.380
62942W        W27150  43.765  22.047  11.125
62943W        W27151  44.390  18.125   2.902
62944W        W27152  37.934  19.568   3.316
62945W        W27153  22.672  35.537  12.068
62946W        W27154  22.169  26.666   2.194
62947W        W27155  37.059  36.869  12.025
62948W        W27156  17.171   5.924   2.678
62949W        W27157  24.651   7.709   2.271
62950W        W27158  31.106   9.181   0.833
62951W        W27159  37.549  29.053  14.769
62952W        W27160   9.777   8.699   0.860
62953W        W27161  27.153  42.828   4.126
62954W        W27162  41.984  16.202  12.854
62955W        W27163   1.299   5.801  13.342
62956W        W27164  18.733  38.933  11.488
62957W        W27165  21.741  42.794   0.434
62958W        W27166  43.334  30.578  14.961
62959W        W27167  11.372  15.195   3.274
62960W        W27168  13.333  26.011   4.177
62961W        W27169  24.999  24.156  11.555
62962W        W27170  35.572  26.070   0.842
62963W        W27171  10.800  24.680  14.275
62964W        W27172  23.144   2.283   3.636
62965W        W27173  14.238  13.293   4.217
62966W        W27174  17.596  23.186   4.636
62967W        W27175  25.013   6.427   3.266
62968W        W27176   7.186   4.285  14.772
62969W        W27177  38.072  32.392   1.707
62970W        W27178  17.743   5.396   4.192
62971W        W27179  27.993   6.368   4.608
62972W        W27180  31.562  16.576   0.295
62973W        W27181  22.017  23.706   3.655
62974W        W27182  17.759   4.773  10.556
62975W        W27183  30.160  16.652  11.381
62976W        W27184  42.860  12.613   3.816
62977W        W27185  29.982  26.968   0.950
62978W        W27186  10.248  36.958  13.945
62979W        W27187  21.723  19.166  13.361
62980W        W27188  12.736  16.709  13.418
62981W        W27189  22.568   0.407   0.391
62982W        W27190  35.092  35.862   3.658
62983W        W27191   2.440  13.809   1.314
62984W        W27192   2.859  32.416   4.346
62985W        W27193   5.315  10.264   2.283
62986W        W27194  12.171   6.270  14.994
62987W        W27195  39.875  23.500  14.460
62988W        W27196  40.490  14.222   4.830
62989W        W27197  42.835  37.447  11.046
62990W        W27198  16.629  26.197  10.999
62991W        W27199   8.212  28.123  12.865
62992W        W27200   3.908  13.202   0.350
62993W        W27201   5.774  44.977   4.772
62994W        W27202   8.859  18.074  13.795
62995W        W27203  14.189  42.298   0.875
62996W        W27204  30.475   9.188  14.496
62997W        W27205  43.405  17.308  10.497
62998W        W27206  43.515  16.635   0.483
62999W        W27207  35.370  40.047  13.520
63000W        W27208  22.151   4.897   3.738
63001W        W27209  35.086  19.703   1.318
63002W        W27210  31.019  22.235  13.907
63003W        W27211  33.419  42.417  13.340
63004W        W27212   5.755   6.748  10.439
63005W        W27213  12.795   5.903  14.976
63006W        W27214  44.422   1.976  12.544
63007W        W27215  22.124   6.725  12.854
63008W        W27216  21.174  21.634  13.523
63009W        W27217  31.614  20.065  14.990
63010W        W27218  11.768   0.836  10.079
63011W        W27219  35.063  33.966  12.539
63012W        W27220  41.945  32.090   1.694
63013W        W27221  11.339  15.715  11.125
63014W        W27222   7.829  23.496   0.451
63015W        W27223  10.262  15.115   2.203
63016W        W27224  21.253  43.964  10.632
63017W        W27225  34.548   2.366  11.063
63018W        W27226   6.293  27.092   2.900
63019W        W27227  41.340  28.499  14.000
63020W        W27228  15.136  13.640   0.471
63021W        W27229  43.935   2.724   3.681
63022W        W27230   5.828  25.980   2.762
63023W        W27231  13.744  26.674  14.439
63024W        W27232  38.331  21.074   5.270
63025W        W27233   5.772   5.795  12.521
63026W        W27234   0.403  44.410   2.303
63027W        W27235  35.082   1.835   2.807
63028W        W27236  38.934  35.542   5.212
63029W        W27237   4.939  17.749   2.240
63030W        W27238  10.252  39.450   3.727
63031W        W27239  35.053  18.606   0.349
63032W        W27240  25.011  25.036   4.733
63033W        W27241   2.836   5.781  14.473
63034W        W27242  28.468  36.396   4.261
63035W        W27243  40.359  36.441   2.818
63036W        W27244  40.048   1.466  13.821
63037W        W27245  36.882  30.921  13.384
63038W        W27246   3.404  43.900  10.969
63039W        W27247   8.815  43.926  13.879
63040W        W27248  29.125  11.798   3.739
63041W        W27249  29.005   5.321   4.325
63042W        W27250  17.170  20.545  12.491
63043W        W27251   8.717   4.237  13.465
63044W        W27252  16.681  41.948   3.209
63045W        W27253  37.867  15.670   1.735
63046W        W27254  15.641  42.289  10.517
63047W        W27255  23.993  38.879   3.166
63048W        W27256  31.153   3.310   1.279
63049W        W27257  26.001  31.475   4.163
63050W        W27258  15.148  22.085  11.544
63051W        W27259   8.325  38.985  10.967
63052W        W27260   8.357  20.029   0.318
63053W        W27261   3.340  35.500  14.851
63054W        W27262  11.742  41.481   4.678
63055W        W27263  41.418   8.741  14.369
63056W        W27264  21.085  11.860  14.470
63057W        W27265   6.837   3.269   1.874
63058W        W27266  36.884  18.095  12.346
63059W        W27267   7.788   3.230  12.390
63060W        W27268   9.735  31.947  10.464
63061W        W27269   3.799   0.426  14.842
63062W        W27270  32.012  37.011   2.758
63063W        W27271   4.758  41.889  13.412
63064W        W27272   9.293  43.846  14.020
63065W        W27273  14.191  40.451  11.493
63066W        W27274  31.459  25.625   1.400
63067W        W27275  24.716  38.513   3.329
63068W        W27276  39.499  34.440  10.567
63069W        W27277  28.624  31.130   3.757
63070W        W27278  43.904  33.518   3.179
63071W        W27279  31.491  27.198   0.831
63072W        W27280  30.459  37.019   0.750
63073W        W27281  37.904  40.452  10.493
63074W        W27282  33.024   4.377  14.816
63075W        W27283  31.898  31.118  12.917
63076W        W27284  40.540  28.631  11.447
63077W        W27285  21.099  14.291   5.280
63078W        W27286  27.647  12.282  11.448
63079W        W27287   7.367   5.203   0.955
63080W        W27288  19.095  37.946  11.523
63081W        W27289  19.768  42.029   1.392
63082W        W27290  20.650  43.001   0.895
63083W        W27291   6.301   2.353  11.080
63084W        W27292   2.876  22.686  11.551
63085W        W27293  41.448  42.833   3.375
63086W        W27294  41.395  42.519  10.417
63087W        W27295   4.753  15.273  12.360
63088W        W27296   5.752  41.021  11.456
63089W        W27297   9.389  22.744  13.029
63090W        W27298  38.896  31.560  13.990
63091W        W27299  20.573  25.114   4.215
63092W        W27300  18.586  22.119  13.914
63093W        W27301  26.601  28.929  14.977
63094W        W27302  12.641  11.784   4.258
63095W        W27303  13.120  41.892  11.424
63096W        W27304  16.159  27.674   4.771
63097W        W27305  24.001   6.840  10.406
63098W        W27306  26.587  29.515  13.044
63099W        W27307  14.756  14.682   0.856
63100W        W27308  18.645  24.554   3.816
63101W        W27309  31.443  41.309  13.309
63102W        W27310  21.532   4.410   0.445
63103W        W27311  42.342   1.974  12.466
63104W        W27312   5.791   4.396  12.426
63105W        W27313   0.778  35.082   0.905
63106W        W27314  15.249  34.471  11.990
63107W        W27315   2.832  30.536   0.409
63108W        W27316   1.474  31.441  10.517
63109W        W27317   6.352   1.358   3.736
63110W        W27318  21.081  39.330   2.246
63111W        W27319  36.072  27.182   2.735
63112W        W27320  36.934   9.820  13.407
63113W        W27321   7.835  13.106   3.201
63114W        W27322  14.148  28.562   3.170
63115W        W27323  31.452  31.485   4.684
63116W        W27324  13.158   9.243  12.390
63117W        W27325  10.248  32.095   4.821
63118W        W27326   1.387  39.938   1.809
63119W        W27327  38.985   8.707   4.810
63120W        W27328  40.859  11.845   4.716
63121W        W27329  23.557  29.557  14.018
63122W        W27330  23.663  35.550   2.779
63123W        W27331   4.282  36.925   2.182
63124W        W27332   5.422  17.762  14.277
63125W        W27333  41.490   7.252   4.322
63126W        W27334   4.896  28.497  13.430
63127W        W27335  44.009  24.049  12.911
63128W        W27336   8.160  23.598  14.769
63129W        W27337   0.252  36.467   1.263
63130W        W27338  19.189  19.629   2.283
63131W        W27339  35.924  29.553   5.161
63132W        W27340   8.753  23.184   0.840
63133W        W27341  24.160   3.756  13.455
63134W        W27342  38.008   7.281  11.388
63135W        W27343  38.961   4.334   0.812
63136W        W27344   8.709  18.153  14.897
63137W        W27345  16.104   2.296  10.954
63138W        W27346  33.625  24.170  11.469
63139W        W27347  28.035  32.945  11.503
63140W        W27348   6.396  44.473   2.318
63141W        W27349  33.934  12.707  10.493
63142W        W27350  13.672  41.860   2.665
63143W        W27351   2.444  43.401  11.591
63144W        W27352   6.914  26.622   0.739
63145W        W27353  32.131  38.972  14.849
63146W        W27354  30.590   7.754  13.903
63147W        W27355  31.540  24.553   3.360
63148W        W27356   3.851  10.749  12.524
63149W        W27357  31.509  17.092   4.602
63150W        W27358  15.222  15.308   1.266
63151W        W27359  43.331  36.489   4.314
63152W        W27360  13.710  16.722  10.561
63153W        W27361  11.784  39.878  14.015
63154W        W27362  33.045   0.900  12.987
63155W        W27363   7.784  33.450   0.269
63156W        W27364   7.353  22.086  14.990
63157W        W27365  13.323  30.536  13.986
63158W        W27366  23.715  44.791   4.680
63159W        W27367   0.253  19.184  14.484
63160W        W27368  36.477  18.648  14.337
63161W        W27369  28.952  12.141   4.606
63162W        W27370   0.361  10.820   1.288
63163W        W27371  17.197  34.943  11.878
63164W        W27372  20.561   9.247   2.287
63165W        W27373  34.982  24.065  10.976
63166W        W27374  17.213  15.640  13.973
63167W        W27375  27.139  30.510   3.783
63168W        W27376  19.557  36.887  12.985
63169W        W27377  10.687  25.567   4.634
63170W        W27378   3.848  25.530   0.438
63171W        W27379   9.829  32.997   1.338
63172W        W27380  41.421  31.570   4.241
63173W        W27381  34.610  35.959  10.950
63174W        W27382  35.894  31.004  10.608
63175W        W27383  22.069  28.464   2.265
63176W        W27384  30.479  41.408   3.797
63177W        W27385  43.404  21.146   4.225
63178W        W27386  33.982  16.217   2.312
63179W        W27387   7.222  43.405  14.996
63180W        W27388  24.572  22.025   4.158
63181W        W27389  26.459   1.970  10.982
63182W        W27390  10.282  30.065   3.190
63183W        W27391  38.948   9.267  12.427
63184W        W27392  42.940  22.012  11.581
63185W        W27393   1.907  18.280   3.673
63186W        W27394  14.166  34.433   4.267
63187W        W27395   0.402  44.905  12.978
63188W        W27396  37.403  29.140  11.929
63189W        W27397  35.527  16.083  14.401
63190W        W27398   6.728  10.847  13.977
63191W        W27399   3.956   6.713  10.549
63192W        W27400  12.304   8.893   2.868
63193W        W27401   3.362  28.572  12.968
63194W        W27402  27.542   3.846  11.051
63195W        W27403   2.261  36.093  10.000
63196W        W27404   2.769  42.498   4.643
63197W        W27405  22.504  12.313   2.845
63198W        W27406  30.039  34.475   0.482
63199W        W27407  35.095  19.555  11.534
63200W        W27408   8.691  33.551   1.308
63201W        W27409  37.558  27.508   0.789
63202W        W27410  20.676  17.801   0.849
63203W        W27411  44.464  36.935   4.141
63204W        W27412  11.231  24.721   0.262
63205W        W27413  33.540  43.790  12.540
63206W        W27414  18.714  13.184   0.907
63207W        W27415  34.404  41.896  11.061
63208W        W27416  39.845  34.588  12.987
63209W        W27417   5.777  17.727  14.906
63210W        W27418   4.343  20.264   1.233
63211W        W27419  24.603  28.130  11.005
63212W        W27420  19.236  26.683  13.935
63213W        W27421  15.727   9.759   0.267
63214W        W27422  29.054  26.503  12.354
63215W        W27423  23.549  30.931   2.201
63216W        W27424  37.883  41.023  12.473
63217W        W27425  15.713   7.742   3.766
63218W        W27426  28.025  36.519  11.024
63219W        W27427  44.916   3.281   3.708
63220W        W27428   3.810  21.747   1.845
63221W        W27429  27.459  37.068  14.446
63222W        W27430   3.806   0.494  12.410
63223W        W27431  33.947  16.600   0.257
63224W        W27432  16.666  16.317  12.005
63225W        W27433  34.099  11.657   3.645
63226W        W27434  25.052  25.546  11.910
63227W        W27435  16.104  35.466  14.011
63228W        W27436  34.610   5.389  14.983
63229W        W27437  12.846   2.467   3.348
63230W        W27438  28.115  17.243  14.389
63231W        W27439  36.002  19.265   0.815
63232W        W27440  23.037  32.469   0.909
63233W        W27441   4.768   4.848  12.500
63234W        W27442  29.109  25.162  13.011
63235W        W27443  33.038  17.103  13.994
63236W        W27444  36.461  19.185   0.403
63237W        W27445  13.812  25.007  12.380
63238W        W27446  39.047  32.049  10.601
63239W        W27447  20.211  37.908   1.917
63240W        W27448  21.533   3.778   3.678
63241W        W27449   4.937  13.617   1.224
63242W        W27450  20.658   8.374   4.785
63243W        W27451  22.713  38.969  14.502
63244W        W27452  27.578  33.897  11.544
63245W        W27453  40.802  21.161   5.316
63246W        W27454  23.565  11.650   2.351
63247W        W27455  39.814  44.931  10.912
63248W        W27456  24.145  31.632   1.242
63249W        W27457  26.989  36.867  11.518
63250W        W27458  37.062   5.285  11.995
63251W        W27459  12.626  16.278   2.370
63252W        W27460  42.501   0.365   4.680
63253W        W27461  25.205   4.429  11.006
63254W        W27462  33.935  43.445   4.187
63255W        W27463   1.382  24.095   4.798
63256W        W27464  29.549  42.332   1.367
63257W        W27465  42.011  28.495  11.473
63258W        W27466  26.593   7.708   4.178
63259W        W27467  11.345  23.510   1.867
63260W        W27468  31.542  16.651  11.933
63261W        W27469   0.286  18.294   0.792
63262W        W27470  11.187  43.985   3.253
63263W        W27471  14.097   1.753  10.957
63264W        W27472  39.936  34.440   3.246
63265W        W27473  10.336  26.594   0.304
63266W        W27474   4.746  24.663   2.203
63267W        W27475  17.165  28.660   0.800
63268W        W27476  11.179  24.543  13.057
63269W        W27477  14.160  12.827   1.427
63270W        W27478   6.193  35.881  13.837
63271W        W27479   5.239  25.517  12.496
63272W        W27480  10.744  29.994   4.218
63273W        W27481  21.190  39.848  14.788
63274W        W27482  20.226   1.890   1.820
63275W        W27483   6.743  14.231   3.145
63276W        W27484  27.518  20.185   1.888
63277W        W27485  41.911  35.966   4.129
63278W        W27486  21.017  28.576   5.258
63279W        W27487  32.509   7.315   3.727
63280W        W27488   2.734  11.742   0.413
63281W        W27489   0.371  23.990  11.579
63282W        W27490  43.420  41.836   4.672
63283W        W27491  29.050  23.218  11.435
63284W        W27492  19.609  15.147  13.052
63285W        W27493  19.069  23.509  14.885
63286W        W27494  32.961  32.975  11.508
63287W        W27495  34.872  24.159  13.877
63288W        W27496   2.873  27.638  10.577
63289W        W27497  17.737   3.378   4.837
63290W        W27498  19.202   4.736  11.591
63291W        W27499   8.897  21.216   2.189
63292W        W27500  29.516  38.885  13.852
63293W        W27501  41.006  37.061  10.439
63294W        W27502   9.207  40.450   2.691
63295W        W27503  37.964  23.548  11.479
63296W        W27504  30.075  40.894   3.145
63297W        W27505  43.429  17.256   3.314
63298W        W27506  31.549  19.167   4.784
63299W        W27507  15.776  11.657  10.494
63300W        W27508  24.529  39.424  14.429
63301W        W27509  14.656  22.233  13.926
63302W        W27510  12.709  32.567   2.201
63303W        W27511  26.008  39.514   4.772
63304W        W27512  25.005  21.115  10.924
63305W        W27513   7.195  38.925  12.961
63306W        W27514  29.590   0.765  12.379
63307W        W27515  25.213  13.781   0.948
63308W        W27516  37.346  40.950  12.988
63309W        W27517  37.498   0.396   1.419
63310W        W27518  38.424  19.134   0.424
63311W        W27519  23.039   8.339  10.047
63312W        W27520  31.008  12.748   0.900
63313W        W27521  44.472  18.647   1.807
63314W        W27522  35.413  41.343  14.930
63315W        W27523  16.609  42.803   0.344
63316W        W27524  15.088  12.195  14.897
63317W        W27525  32.454   7.719   0.810
63318W        W27526  35.391  35.534   3.357
63319W        W27527  22.631  32.073  13.928
63320W        W27528  31.956  44.815  11.593
63321W        W27529   2.259  41.352  11.453
63322W        W27530  21.712  27.110   3.726
63323W        W27531   8.161  17.715  12.073
63324W        W27532   4.889  13.321   2.407
63325W        W27533  22.714   5.749   0.365
63326W        W27534  32.593  43.442  14.326
63327W        W27535  24.483  16.167   1.249
63328W        W27536  37.902  43.463   1.247
63329W        W27537  38.385   4.826  12.966
63330W        W27538  24.563   4.879   1.382
63331W        W27539  25.673  38.071   0.270
63332W        W27540  43.824  27.455   0.411
63333W        W27541  42.953  19.166  13.965
63334W        W27542   3.828  30.987  11.538
63335W        W27543   2.768  32.609  10.952
63336W        W27544  13.211  14.673  12.042
63337W        W27545  20.028  18.666  12.914
63338W        W27546  44.395   1.775  13.049
63339W        W27547   4.315   5.262   0.360
63340W        W27548  35.875  35.415  12.551
63341W        W27549  35.511  38.472   4.131
63342W        W27550   0.307   7.837   1.402
63343W        W27551  11.696  25.200  10.562
63344W        W27552  40.812  18.753  14.881
63345W        W27553  23.519  15.638  11.434
63346W        W27554  10.634  21.154   4.729
63347W        W27555  18.596   9.813   1.428
63348W        W27556  38.548   6.343   0.429
63349W        W27557  34.499  42.374  11.873
63350W        W27558  44.932  20.724   2.749
63351W        W27559  12.178  36.443   0.825
63352W        W27560  44.417  37.892   4.824
63353W        W27561   6.702  16.273   4.670
63354W        W27562   5.819  39.552   2.210
63355W        W27563  11.365  32.038   0.836
63356W        W27564   5.281  39.379   3.661
63357W        W27565  43.438   3.292   0.788
63358W        W27566   6.875  26.136  12.414
63359W        W27567  37.447  13.296   3.814
63360W        W27568  16.085  35.407   2.735
63361W        W27569  24.037  14.177  10.531
63362W        W27570  28.109   1.738  10.430
63363W        W27571  24.986  21.110  11.875
63364W        W27572  41.982  15.238  11.972
63365W        W27573  19.239  22.663  14.826
63366W        W27574  40.426  36.932  11.537
63367W        W27575   7.342  36.573  13.034
63368W        W27576  19.124  42.001  12.394
63369W        W27577  17.211  33.996   4.788
63370W        W27578  42.876  31.641   5.155
63371W        W27579  32.117   2.883  12.913
63372W        W27580  23.054  37.575  11.510
63373W        W27581  39.334  35.938  14.874
63374W        W27582  19.263  20.718  11.004
63375W        W27583  22.017  26.064  11.858
63376W        W27584  27.057  10.148  10.121
63377W        W27585  22.548  38.494   1.365
63378W        W27586  40.863  31.569  12.864
63379W        W27587  39.358   2.243   1.741
63380W        W27588  21.620  24.675  10.447
63381W        W27589   0.799  33.452   2.205
63382W        W27590  42.890  21.656   4.225
63383W        W27591  28.656   4.235  11.470
63384W        W27592  11.686  43.871  14.030
63385W        W27593  42.390  26.007  13.043
63386W        W27594  20.537  31.046  11.011
63387W        W27595  25.484  32.126   0.897
63388W        W27596  20.742  28.117  14.453
63389W        W27597   1.846  32.616  10.095
63390W        W27598   4.907  20.121  10.030
63391W        W27599  20.701  42.776   0.302
63392W        W27600   7.678  41.336   3.755
63393W        W27601   1.898  35.058   0.360
63394W        W27602  24.625  12.700  13.909
63395W        W27603  18.157  31.127  14.393
63396W        W27604   1.270  19.668   0.962
63397W        W27605   9.796   9.800   2.218
63398W        W27606  14.785  35.572  14.906
63399W        W27607   9.171  35.024  14.015
63400W        W27608  35.564  15.764  10.446
63401W        W27609  31.903  24.974   1.412
63402W        W27610  15.131  22.087   3.152
63403W        W27611  16.203  18.622   4.645
63404W        W27612   9.221   3.740  11.565
63405W        W27613  42.852  43.412   3.690
63406W        W27614  13.834  30.998  11.003
63407W        W27615  40.974  35.078  11.044
63408W        W27616  38.454  27.114  12.534
63409W        W27617  10.362  10.670  10.967
63410W        W27618  29.067  11.862  13.809
63411W        W27619  18.709  11.693   1.778
63412W        W27620   6.420  27.461   3.799
63413W        W27621  21.252   8.395   2.301
63414W        W27622  20.131  21.130   4.246
63415W        W27623  30.504  41.322   1.272
63416W        W27624   0.489   8.177   0.863
63417W        W27625  32.393   4.704   1.416
63418W        W27626  39.987  24.125   4.690
63419W        W27627  21.551  12.844  14.430
63420W        W27628   0.978   1.466  12.507
63421W        W27629   8.850   8.730   2.747
63422W        W27630  14.268  33.542  13.815
63423W        W27631   3.855  17.725   4.344
63424W        W27632  25.968  31.615  12.499
63425W        W27633  14.727   4.813   1.352
63426W        W27634   0.845   6.810   0.383
63427W        W27635  26.525   8.201  10.575
63428W        W27636  33.413  29.924  12.092
63429W        W27637  39.353  32.075  11.995
63430W        W27638   0.938  21.551  12.009
63431W        W27639  17.084  32.437   1.812
63432W        W27640  33.886   0.822   4.835
63433W        W27641  14.249  35.893  12.941
63434W        W27642  27.941  42.326   3.258
63435W        W27643  13.634  11.680  10.969
63436W        W27644  24.974  18.745   3.275
63437W        W27645   7.374  11.296  10.429
63438W        W27646   1.416  13.337  13.871
63439W        W27647  31.418  24.069   2.838
63440W        W27648  43.998  27.452   1.370
63441W        W27649  43.910   5.860   4.180
63442W        W27650  41.399  44.341   1.786
63443W        W27651   3.336  41.015   1.250
63444W        W27652   3.224  16.188   0.351
63445W        W27653   2.296  34.388   3.353
63446W        W27654   0.466  32.136  11.866
63447W        W27655  40.375  28.033  12.032
63448W        W27656   3.735  21.046  12.894
63449W        W27657  39.325  25.637  13.392
63450W        W27658  10.702  33.470   4.722
63451W        W27659  13.695  22.608  14.504
63452W        W27660   2.375  12.352   2.253
63453W        W27661  26.130  20.647  13.795
63454W        W27662  21.226  23.079   1.911
63455W        W27663  31.446  29.967  10.429
63456W        W27664   4.290  25.700  12.997
63457W        W27665  28.979  12.240   1.874
63458W        W27666  31.153  18.702  12.464
63459W        W27667  15.595  22.533   5.283
63460W        W27668   7.883  24.719   1.903
63461W        W27669   1.932  10.709   4.210
63462W        W27670   0.883   4.849  14.798
63463W        W27671   0.748  43.772   2.318
63464W        W27672  42.852  11.255  14.993
63465W        W27673  35.050  36.085  13.042
63466W        W27674  24.975  23.489  13.539
63467W        W27675  31.627  14.258  13.334
63468W        W27676  24.992  21.051  10.530
63469W        W27677  28.995  13.796  12.902
63470W        W27678  44.324  23.678  10.545
63471W        W27679  39.540  33.896  11.066
63472W        W27680   4.739  37.474   4.235
63473W        W27681  41.793   4.873   1.881
63474W        W27682  11.192  15.273   4.623
63475W        W27683  37.978  31.051   3.336
63476W        W27684  20.542  36.384  12.972
63477W        W27685   8.221  37.065   3.189
63478W        W27686  11.759  40.902   3.639
63479W        W27687  25.070  32.918   3.797
63480W        W27688  17.575  24.669   2.232
63481W        W27689   5.899  26.574   3.236
63482W        W27690  38.564  29.035  11.490
63483W        W27691  24.684   0.846   3.328
63484W        W27692  39.313  36.496   1.256
63485W        W27693  31.624   4.711  10.424
63486W        W27694   1.971  37.547   1.311
63487W        W27695  29.424  41.847  10.966
63488W        W27696  35.499   7.414   1.314
63489W        W27697  13.656  11.149   4.270
63490W        W27698  23.157  22.719   1.774
63491W        W27699  13.232  17.588   2.732
63492W        W27700  44.426   7.902   2.306
63493W        W27701  30.963   2.294   3.678
63494W        W27702  25.974  25.134   3.656
63495W        W27703  13.292   6.691  10.927
63496W        W27704  27.603  33.503  13.042
63497W        W27705  39.046   6.679   1.719
63498W        W27706  24.600  30.517   2.278
63499W        W27707  20.229   6.720  13.889
63500W        W27708  32.113  19.777   2.184
63501W        W27709  26.169   2.952   0.881
63502W        W27710   7.247   2.332  11.921
63503W        W27711  16.292  14.706  14.924
63504W        W27712  29.166  26.625  11.900
63505W        W27713   9.682  14.804  14.013
63506W        W27714  22.046  40.520   4.175
63507W        W27715  33.087  25.543  10.890
63508W        W27716  17.199  33.518   2.213
63509W        W27717  19.582  16.749  10.929
63510W        W27718  19.069  21.671  14.897
63511W        W27719  35.423  21.062   1.271
63512W        W27720  41.531  32.939  13.841
63513W        W27721   4.932  37.902   3.169
63514W        W27722  44.471  44.854  14.355
63515W        W27723  26.149  27.638   2.736
63516W        W27724  26.542   5.883  11.507
63517W        W27725  34.944  17.760   0.874
63518W        W27726  12.126   3.713  13.017
63519W        W27727   5.776  40.372   2.768
63520W        W27728  39.449  25.087  12.091
63521W        W27729   5.373  16.084   1.388
63522W        W27730  30.040  23.545  10.488
63523W        W27731  24.182   4.765  11.033
63524W        W27732  15.808  41.008  11.050
63525W        W27733  26.641  29.643  11.483
63526W        W27734  40.800  15.728   4.132
63527W        W27735  32.055  36.964   1.218
63528W        W27736   4.898  43.912   0.778
63529W        W27737  28.587   9.330  11.860
63530W        W27738  35.383  10.290   4.836
63531W        W27739  37.986   4.798   2.260
63532W        W27740   2.468   3.785  11.955
63533W        W27741   5.696  23.162  12.970
63534W        W27742  21.172   1.398  14.496
63535W        W27743  38.894  25.161  10.970
63536W        W27744  43.432  20.177  13.805
63537W        W27745  27.968  14.150  10.157
63538W        W27746   9.317  34.092   4.739
63539W        W27747   7.220  33.096   3.205
63540W        W27748  41.867  28.649  12.938
63541W        W27749   7.411  16.638   2.415
63542W        W27750   6.332  17.757   2.732
63543W        W27751  42.928   3.347   4.795
63544W        W27752  23.090  42.459   4.690
63545W        W27753  22.506   7.820   4.185
63546W        W27754  18.772   3.738  14.999
63547W        W27755  34.560  11.624   2.328
63548W        W27756   9.165  14.251   0.874
63549W        W27757  34.031  16.197   0.342
63550W        W27758  17.754   2.456  12.499
63551W        W27759  14.662  38.372   4.146
63552W        W27760  12.749   4.795   1.414
63553W        W27761  10.800   7.682   3.251
63554W        W27762  36.905  37.944   4.827
63555W        W27763  44.446  20.634   1.379
63556W        W27764  30.131  38.492  14.387
63557W        W27765  11.279   1.243   4.351
63558W        W27766   6.844  15.734   3.357
63559W        W27767  14.296  28.495  12.833
63560W        W27768  25.089  12.203   1.712
63561W        W27769  14.736  42.866  12.428
63562W        W27770   5.396  36.062  12.419
63563W        W27771   3.940  37.477  13.059
63564W        W27772   3.803  38.953  13.915
63565W        W27773   2.230  41.021   4.719
63566W        W27774  10.376  34.586   1.343
63567W        W27775  29.923  30.455  11.954
63568W        W27776  13.330  25.606  12.828
63569W        W27777   2.394  34.504   1.727
63570W        W27778  10.281   3.841   4.171
63571W        W27779  28.020   4.447   4.706
63572W        W27780  13.112  23.700  13.380
63573W        W27781   2.730   1.278   0.375
63574W        W27782  33.128  22.187  13.348
63575W        W27783  23.211  22.245   0.909
63576W        W27784  30.950  18.572  10.146
63577W        W27785  15.194  38.852   0.330
63578W        W27786   5.788   9.656  10.894
63579W        W27787  44.494  22.644  12.020
63580W        W27788  10.185   9.746   4.629
63581W        W27789   8.168  38.857  11.385
63582W        W27790  11.640  11.825   1.400
63583W        W27791   8.325  42.456  12.389
63584W        W27792  39.342  27.671  11.405
63585W        W27793  37.041  36.027   2.700
63586W        W27794  11.192  40.935   3.752
63587W        W27795  39.557  18.230   2.670
63588W        W27796  21.018  20.735  12.036
63589W        W27797   1.940  28.624  13.509
63590W        W27798  16.578  14.186  12.843
63591W        W27799  43.869  42.478   4.767
63592W        W27800  10.809  28.650   3.844
63593W        W27801  42.286  44.844  11.889
63594W        W27802   6.250  15.609   2.271
63595W        W27803   0.346  16.611   3.338
63596W        W27804   2.925   2.421  14.852
63597W        W27805  12.735   6.253  10.447
63598W        W27806  43.015  16.683  11.069
63599W        W27807   8.661  14.774  11.493
63600W        W27808  23.558  12.119  13.379
63601W        W27809  18.727  10.203   0.377
63602W        W27810   4.850  43.907  13.362
63603W        W27811  13.650  21.576  11.574
63604W        W27812  18.751  44.297  12.969
63605W        W27813  11.847  33.622   1.844
63606W        W27814  21.736   1.406  14.879
63607W        W27815  43.492  20.589   0.874
63608W        W27816  33.906  17.121  12.468
63609W        W27817  18.734   5.261  14.872
63610W        W27818  41.506  26.622  11.517
63611W        W27819   7.822  11.258   1.425
63612W        W27820  13.821  12.213  11.029
63613W        W27821  34.879   3.249   0.476
63614W        W27822   1.792  44.274  12.853
63615W        W27823  18.121  44.269  12.879
63616W        W27824  21.186  25.634   4.719
63617W        W27825  40.349  32.548  10.891
63618W        W27826  12.755   2.365   0.382
63619W        W27827  40.843   3.297  12.416
63620W        W27828   2.888  17.593   1.428
63621W        W27829  13.664  16.693  14.005
63622W        W27830  29.087  14.779   1.813
63623W        W27831   5.242  31.927  11.541
63624W        W27832  32.037   1.356  11.103
63625W        W27833  29.500  20.169  11.857
63626W        W27834   5.738  28.669   0.871
63627W        W27835  27.977  34.039  13.791
63628W        W27836  33.447  35.577  11.611
63629W        W27837   1.417   1.254   4.216
63630W        W27838  13.273   2.261   0.407
63631W        W27839  28.094  44.942  13.360
63632W        W27840  33.073  23.030  10.530
63633W        W27841   9.822   7.303   0.380
63634W        W27842   0.757  31.039  12.383
63635W        W27843  38.028  24.676   3.358
63636W        W27844  42.887  20.183  12.040
63637W        W27845  38.942  42.815  11.507
63638W        W27846  23.490   7.323   3.263
63639W        W27847   3.816  40.359   1.919
63640W        W27848  12.782   7.744   1.918
63641W        W27849  35.948  38.526   1.928
63642W        W27850  42.844   2.743  12.874
63643W        W27851  38.987   6.849  11.575
63644W        W27852   2.746  24.039  12.352
63645W        W27853   5.199   1.862  13.337
63646W        W27854  22.208  14.106  10.613
63647W        W27855  33.972   4.225  10.548
63648W        W27856  41.956  28.167  11.572
63649W        W27857  12.791  33.114  12.356
63650W        W27858  18.116  35.386  11.031
63651W        W27859  35.997  33.513   1.843
63652W        W27860   7.357  11.128  12.974
63653W        W27861   3.770  12.706   4.207
63654W        W27862  29.099   8.391   0.853
63655W        W27863  16.764  12.349  11.958
63656W        W27864  18.068  32.060   2.269
63657W        W27865  15.186  32.083   1.847
63658W        W27866  13.746  30.642   1.913
63659W        W27867   4.285  32.635   1.706
63660W        W27868  21.513  43.447   1.890
63661W        W27869   6.717  41.990   0.454
63662W        W27870  30.968   1.853  12.367
63663W        W27871  43.839  32.598  10.494
63664W        W27872  43.482   5.883  14.810
63665W        W27873  14.239  27.075   1.765
63666W        W27874  42.504  30.638  11.459
63667W        W27875  40.347  34.396   1.879
63668W        W27876  42.489   7.314   4.331
63669W        W27877  18.789  43.826   0.354
63670W        W27878  42.466  23.572   3.157
63671W        W27879  27.990  36.575   2.876
63672W        W27880  17.258  18.255  10.074
63673W        W27881   0.422  31.552   1.861
63674W        W27882  41.832  30.053   0.853
63675W        W27883  10.703  39.056  12.038
63676W        W27884  31.428  40.339  13.374
63677W        W27885   9.338  10.786   4.115
63678W        W27886  25.123  11.236   2.184
63679W        W27887   5.785  19.605  12.014
63680W        W27888  38.448  19.542   2.186
63681W        W27889  36.533  22.503  13.518
63682W        W27890  35.381   3.947   1.227
63683W        W27891  31.405  24.119  11.562
63684W        W27892  31.952  34.400   0.915
63685W        W27893   6.753  20.150  12.450
63686W        W27894   4.887  42.299  13.062
63687W        W27895   8.203  44.892  11.064
63688W        W27896  28.509  25.625  14.983
63689W        W27897   7.338  19.042   4.602
63690W        W27898  20.671  37.969   4.123
63691W        W27899  19.168  27.029  14.857
63692W        W27900   2.368  11.744  10.145
63693W        W27901  28.960   2.871   1.843
63694W        W27902  16.581  29.140   3.308
63695W        W27903   8.892   3.895   2.834
63696W        W27904  31.021   9.271   4.666
63697W        W27905  32.468  20.673   1.397
63698W        W27906  21.144  20.268   3.804
63699W        W27907   0.380  26.627   4.352
63700W        W27908  14.769  28.667  14.345
63701W        W27909   1.464  18.764  13.006
63702W        W27910  40.841  40.481   0.343
63703W        W27911  38.923  23.200   0.916
63704W        W27912  41.462  29.931  11.573
63705W        W27913  39.321   1.322   5.736
63706W        W27914  36.569   7.791  14.392
63707W        W27915  29.045  33.890   4.717
63708W        W27916  39.521  39.022  11.978
63709W        W27917  38.333  21.099   2.773
63710W        W27918   8.183   8.297   2.400
63711W        W27919   4.371  11.166  13.821
63712W        W27920  24.697  44.336  13.902
63713W        W27921  43.952  35.541  14.898
63714W        W27922  41.842   6.687   2.317
63715W        W27923   5.352   5.203  13.322
63716W        W27924  24.657  42.423  14.998
63717W        W27925   6.426  43.900  11.495
63718W        W27926  12.197  16.315   3.634
63719W        W27927  20.193   9.650  14.294
63720W        W27928  13.769  26.100   3.772
63721W        W27929   6.801   7.849  12.519
63722W        W27930  38.417  12.676   0.936
63723W        W27931  35.942  29.089   4.691
63724W        W27932  39.857   9.218  11.873
63725W        W27933   0.356  29.572   3.370
63726W        W27934  14.664  37.026  11.938
63727W        W27935  40.044  44.837  12.459
63728W        W27936  39.409   8.341   4.296
63729W        W27937  42.956   3.714  13.034
63730W        W27938  33.927  34.513  10.568
63731W        W27939  36.406  12.328   3.828
63732W        W27940  19.682  23.558   1.306
63733W        W27941  22.525  43.453   1.741
63734W        W27942  36.378  22.646   3.313
63735W        W27943  26.090  18.155  13.481
63736W        W27944  11.326  22.611   3.702
63737W        W27945   2.272  32.541   2.333
63738W        W27946  18.135  19.701  11.495
63739W        W27947  39.029  11.147   1.798
63740W        W27948  25.990   1.395  13.472
63741W        W27949  34.978   4.789   3.856
63742W        W27950  23.599  22.557   1.782
63743W        W27951  29.164   6.856  14.888
63744W        W27952   8.244  30.134   1.885
63745W        W27953  16.097  17.303   0.346
63746W        W27954  38.522  11.279   0.304
63747W        W27955  39.849  20.159  10.937
63748W        W27956   5.894  40.929   3.230
63749W        W27957  17.593  13.661   2.735
63750W        W27958  29.078   9.308   1.414
63751W        W27959  20.129  14.233   3.651
63752W        W27960  42.793  24.533   1.412
63753W        W27961  36.468  41.842   0.454
63754W        W27962  20.064  30.998   2.236
63755W        W27963   4.326  22.505  10.551
63756W        W27964  20.659  38.941   3.258
63757W        W27965   5.427  42.399   4.715
63758W        W27966  21.253  23.205  12.365
63759W        W27967   2.358  28.975  12.054
63760W        W27968  40.362   4.336  10.999
63761W        W27969  36.017   4.299  14.276
63762W        W27970  19.596  18.568   0.408
63763W        W27971   9.255  44.765   0.948
63764W        W27972  14.715  29.503  14.313
63765W        W27973  41.861   9.339   3.826
63766W        W27974  42.504  31.473   3.347
63767W        W27975   9.787  17.591   0.442
63768W        W27976   9.374  29.623  12.905
63769W        W27977  42.930  43.288  12.346
63770W        W27978  31.551  11.775  14.491
63771W        W27979  40.848  40.040  12.055
63772W        W27980  43.784  38.843   2.396
63773W        W27981  15.711   1.829   5.114
63774W        W27982  26.521  16.569  14.774
63775W        W27983  32.604  16.317   5.319
63776W        W27984  16.753   9.274   0.867
63777W        W27985   0.799   7.844  11.968
63778W        W27986  16.135  36.910   3.813
63779W        W27987   5.793  31.010   0.753
63780W        W27988   9.778  19.044  12.892
63781W        W27989  39.872  44.893  14.017
63782W        W27990   8.239  32.917   2.191
63783W        W27991   7.269  42.391  14.922
63784W        W27992  19.539   9.392   5.285
63785W        W27993  35.491  36.455  11.596
63786W        W27994  10.679  38.505   1.234
63787W        W27995  16.203   9.208  11.038
63788W        W27996  38.910  35.870   0.406
63789W        W27997  11.697   1.923   2.800
63790W        W27998  39.374  33.486  14.453
63791W        W27999  40.499  25.565   0.913
63792W        W28000  15.137  19.186   4.640
63793W        W28001  35.390  27.970   0.776
63794W        W28002   8.757  44.884   0.304
63795W        W28003  15.321  20.104  14.810
63796W        W28004   3.718  38.828  12.362
63797W        W28005  22.133  17.624  12.523
63798W        W28006  35.087   6.891   0.410
63799W        W28007  16.172  12.627   2.252
63800W        W28008  16.272  32.637   3.699
63801W        W28009  11.765  24.130  14.404
63802W        W28010   9.733   4.704  12.344
63803W        W28011  38.465  28.497  14.804
63804W        W28012  36.433  14.660   0.920
63805W        W28013  30.535  20.705   1.325
63806W        W28014  31.060   6.317  14.504
63807W        W28015   3.807  14.794   2.357
63808W        W28016  35.522  31.946  13.532
63809W        W28017  39.057  41.909  12.913
63810W        W28018  26.696   1.811   1.838
63811W        W28019   2.933  24.163  10.608
63812W        W28020  31.943  12.778   9.993
63813W        W28021  23.605  19.675   4.216
63814W        W28022  36.442  31.080  11.104
63815W        W28023  21.104  16.203   4.273
63816W        W28024  40.033   4.832   0.290
63817W        W28025  43.910  15.168  11.990
63818W        W28026   5.802  30.116   2.222
63819W        W28027  20.245  11.232   0.881
63820W        W28028  14.787  17.802  12.866
63821W        W28029  38.002  13.286   4.755
63822W        W28030  27.143  30.160  14.435
63823W        W28031  26.606  15.197  12.353
63824W        W28032  20.749   8.695  13.793
63825W        W28033  29.664  33.574  10.409
63826W        W28034  21.732   1.327   3.745
63827W        W28035  14.602  36.572  11.473
63828W        W28036  10.802  34.396  11.577
63829W        W28037  40.808  26.513  11.995
63830W        W28038  17.212  20.544   0.322
63831W        W28039  32.109  39.972   3.160
63832W        W28040  18.745  26.462   3.724
63833W        W28041  21.623   4.891  13.968
63834W        W28042  42.865  18.624   4.193
63835W        W28043  32.619   7.757  14.511
63836W        W28044  43.975  33.886   0.731
63837W        W28045   3.760   2.442  14.470
63838W        W28046  43.331  10.347  10.968
63839W        W28047  33.883  18.226   3.710
63840W        W28048  39.338  36.366   3.840
63841W        W28049  28.568  13.123  13.807
63842W        W28050  43.407  20.098   2.288
63843W        W28051  24.520  33.085   0.266
63844W        W28052  15.165  14.294   0.938
63845W        W28053   3.891  18.691  14.289
63846W        W28054  18.670  11.287   0.424
63847W        W28055  36.860  27.137  14.945
63848W        W28056  14.682  32.077  10.897
63849W        W28057  13.770   2.948  12.352
63850W        W28058   6.353  14.684  13.402
63851W        W28059  25.078  28.671   2.776
63852W        W28060  30.151  18.667  11.468
63853W        W28061  35.920   8.859  10.462
63854W        W28062  41.946   2.321   4.633
63855W        W28063  17.303  13.840  14.477
63856W        W28064  33.454  24.174  14.980
63857W        W28065  33.439  28.097   3.711
63858W        W28066  23.038  43.472   3.841
63859W        W28067  25.214  25.070  14.830
63860W        W28068  40.543  31.615  11.991
63861W        W28069  29.640  29.627   2.290
63862W        W28070  25.969  23.231   4.116
63863W        W28071  38.490  31.061   0.729
63864W        W28072  28.160   0.363  11.062
63865W        W28073  22.550  43.800  13.876
63866W        W28074  30.994  19.618   2.359
63867W        W28075  22.558  32.111   4.721
63868W        W28076  15.643  31.434  13.906
63869W        W28077   8.897   3.414  10.954
63870W        W28078  33.393  41.418  13.389
63871W        W28079  13.638  32.404   4.190
63872W        W28080   3.326   1.831   0.320
63873W        W28081  12.128  23.220  14.346
63874W        W28082  30.419  13.797  14.979
63875W        W28083  25.993  17.748   1.884
63876W        W28084   1.784  17.229  11.865
63877W        W28085  20.254   9.304  11.024
63878W        W28086   3.904   1.356  10.640
63879W        W28087  40.964  17.102   3.780
63880W        W28088   5.803  32.103   4.670
63881W        W28089  43.314  30.475  13.055
63882W        W28090   4.773  19.234  14.835
63883W        W28091  15.751   0.463  11.063
63884W        W28092  20.136   0.777  13.466
63885W        W28093  30.429  10.640   0.922
63886W        W28094  39.867  31.109  14.437
63887W        W28095  31.524  42.847  13.013
63888W        W28096  11.753  38.016  11.957
63889W        W28097  38.957  38.013  14.477
63890W        W28098   1.470   4.295  12.375
63891W        W28099  29.522  40.855  12.455
63892W        W28100  29.052  41.014  14.410
63893W        W28101  41.464  44.762  11.945
63894W        W28102  38.054  36.443   3.698
63895W        W28103   7.674  31.943  13.338
63896W        W28104  42.884  23.592   4.234
63897W        W28105   1.955  25.506   0.943
63898W        W28106  32.045  43.789  13.881
63899W        W28107  24.560   6.207  13.821
63900W        W28108  18.559  12.630  10.477
63901W        W28109  28.114  38.062   3.734
63902W        W28110  19.612  13.617   3.170
63903W        W28111  30.153   5.340   3.267
63904W        W28112   4.712  41.368   4.253
63905W        W28113  40.510   6.303  11.931
63906W        W28114  30.002   0.330  13.842
63907W        W28115   7.819  28.632  11.411
63908W        W28116  11.140  32.520  14.359
63909W        W28117  39.433  17.610   1.907
63910W        W28118  23.004   4.256  10.929
63911W        W28119   6.881  21.731   3.788
63912W        W28120  30.564  20.208   3.835
63913W        W28121  16.708  17.082   0.896
63914W        W28122  23.601  35.510  10.574
63915W        W28123   1.253  11.747   3.188
63916W        W28124  31.444   7.716   0.405
63917W        W28125  24.558  37.918   1.752
63918W        W28126   6.679  39.961   2.705
63919W        W28127  20.669  38.384   1.700
63920W        W28128  40.405  21.116   0.292
63921W        W28129  42.861   3.936  10.080
63922W        W28130   8.687  19.758   3.386
63923W        W28131  23.197  36.575   1.263
63924W        W28132   2.896  18.557  11.068
63925W        W28133  41.800  18.202  12.538
63926W        W28134  37.078  39.837   3.692
63927W        W28135  24.006  16.682  11.395
63928W        W28136  26.667  10.757   2.727
63929W        W28137   3.303  42.924   4.133
63930W        W28138  44.435  19.148   3.779
63931W        W28139  39.344  15.784  11.974
63932W        W28140  43.937  15.708   5.288
63933W        W28141  43.386  17.160  13.454
63934W        W28142  36.592  28.107  12.984
63935W        W28143  13.599  42.841   4.216
63936W        W28144   6.701  12.852   4.772
63937W        W28145  37.836  14.640   2.764
63938W        W28146  37.431  14.303   3.298
63939W        W28147  43.990  23.033  11.951
63940W        W28148  19.647  28.052  11.422
63941W        W28149  40.996   0.462  13.893
63942W        W28150  31.502  12.701   2.759
63943W        W28151   2.946  13.733  11.402
63944W        W28152   7.856  35.484  11.605
63945W        W28153  25.054   4.217  12.961
63946W        W28154   1.912  11.158  12.498
63947W        W28155  15.268  27.164  10.954
63948W        W28156  18.242  42.878  13.801
63949W        W28157  30.601  32.929  12.358
63950W        W28158  25.576   9.726  13.526
63951W        W28159  12.289  17.178  14.849
63952W        W28160  11.755  27.114   3.861
63953W        W28161   1.292  37.510   0.352
63954W        W28162   7.678  28.040   3.381
63955W        W28163   7.319   3.328  12.415
63956W        W28164  38.546  44.343   2.848
63957W        W28165   5.256  35.467   3.349
63958W        W28166   3.414  27.960  12.953
63959W        W28167  36.467  18.209  10.158
63960W        W28168  39.371   6.328  12.343
63961W        W28169  25.977  29.074  14.329
63962W        W28170  44.485   8.276  13.430
63963W        W28171  39.536  16.656   5.224
63964W        W28172  37.062  19.233   4.622
63965W        W28173  43.832  37.072  10.535
63966W        W28174  10.834  25.149   2.230
63967W        W28175   6.918  21.173  14.006
63968W        W28176  17.201  16.100   3.734
63969W        W28177  16.193  33.051   1.262
63970W        W28178   5.281  42.338   2.364
63971W        W28179   9.670  25.561  13.911
63972W        W28180   4.894  35.559  11.077
63973W        W28181  30.971  29.032   1.218
63974W        W28182  24.548  42.856  13.520
63975W        W28183  44.919  16.800  13.951
63976W        W28184  37.374  34.544  14.332
63977W        W28185  21.078   8.672  14.964
63978W        W28186  12.677   7.232   1.333
63979W        W28187  13.184  18.778   4.602
63980W        W28188  31.491  32.419   1.223
63981W        W28189  26.677   1.457   4.737
63982W        W28190  19.736  27.178   0.865
63983W        W28191  22.021  22.556   3.199
63984W        W28192  43.472   4.301   0.360
63985W        W28193   6.886  21.689  12.066
63986W        W28194  10.832   6.368  12.913
63987W        W28195   3.822  29.611   4.783
63988W        W28196  12.248  28.102  11.919
63989W        W28197  11.829  35.434  13.337
63990W        W28198  40.354   8.791   2.178
63991W        W28199  11.773  22.231   4.817
63992W        W28200   3.236  22.132   3.296
63993W        W28201  20.533  29.460   1.443
63994W        W28202  41.792   5.304   9.967
63995W        W28203  21.653  24.660  11.397
63996W        W28204  20.769  10.659  13.820
63997W        W28205  28.485  42.311   4.649
63998W        W28206  37.479   2.357   3.822
63999W        W28207  10.146   2.868   0.770
64000W        W28208  19.729  10.258   1.911
64001W        W28209  44.783  34.562   2.777
64002W        W28210  26.498  36.090  13.856
64003W        W28211  30.015  27.569  11.529
64004W        W28212  19.551  25.540   3.237
64005W        W28213  35.980  32.560  11.948
64006W        W28214  11.287  43.876  13.436
64007W        W28215  33.100  18.112   3.668
64008W        W28216   1.833  32.926   2.245
64009W        W28217  30.949  24.565  12.410
64010W        W28218  41.503  24.129   1.821
64011W        W28219  28.001  19.543  10.406
64012W        W28220  27.492   1.359  12.407
64013W        W28221  26.492  14.738  12.927
64014W        W28222   9.294  41.323  12.068
64015W        W28223  37.041  37.986  12.837
64016W        W28224  26.146   1.445  10.543
64017W        W28225   1.244  25.019   3.849
64018W        W28226  26.491  31.979   2.723
64019W        W28227  18.180   7.263   1.429
64020W        W28228   8.757  26.140  11.573
64021W        W28229  44.859  14.659  12.403
64022W        W28230  25.677  37.403   5.099
64023W        W28231   8.199  23.235  11.514
64024W        W28232  10.277  28.519   3.795
64025W        W28233  21.606   3.241   1.226
64026W        W28234  11.280  19.051  12.560
64027W        W28235   2.315  12.705   1.741
64028W        W28236  38.988   0.480   9.962
64029W        W28237   1.880  34.951   4.334
64030W        W28238  35.460   9.699  14.826
64031W        W28239   4.941  11.835   3.715
64032W        W28240   8.818  17.751   1.761
64033W        W28241   1.828  16.293  12.517
64034W        W28242  17.266  37.502   2.768
64035W        W28243   0.925   0.330  10.476
64036W        W28244  15.096  29.155   0.313
64037W        W28245   9.191   7.881  10.525
64038W        W28246   7.374  22.118   1.406
64039W        W28247  17.796   9.715   4.191
64040W        W28248  20.525  27.976  11.040
64041W        W28249  25.603   7.694   0.481
64042W        W28250  41.963  17.715   0.954
64043W        W28251  36.390  37.919  13.008
64044W        W28252   0.857  39.828  11.393
64045W        W28253  34.863   9.864  10.439
64046W        W28254  37.856   9.321  13.362
64047W        W28255  17.155   2.950   3.378
64048W        W28256   0.316  40.044   2.887
64049W        W28257  31.621  21.227  11.921
64050W        W28258  39.931   6.737  13.325
64051W        W28259  10.869  26.116  11.556
64052W        W28260  33.573  12.650   4.219
64053W        W28261   1.480   4.425   2.817
64054W        W28262   4.886  29.498   4.268
64055W        W28263  23.702  11.769   3.225
64056W        W28264  13.265  13.311   1.859
64057W        W28265  26.602  21.563   3.320
64058W        W28266  32.128  31.475  11.430
64059W        W28267  38.346   0.818   1.270
64060W        W28268  12.320  44.986  14.914
64061W        W28269  26.020   6.285  14.442
64062W        W28270  38.957   8.377  11.088
64063W        W28271  33.488  14.113   2.185
64064W        W28272  32.947  44.987  10.917
64065W        W28273  23.136   3.347  10.946
64066W        W28274  42.394  21.564   2.381
64067W        W28275  37.455  44.483   1.724
64068W        W28276  14.197  42.307   2.672
64069W        W28277  13.685  42.287   4.345
64070W        W28278   7.200   8.687   2.671
64071W        W28279  29.605  28.017   1.363
64072W        W28280  22.637  28.013  12.989
64073W        W28281  26.578   6.402  12.056
64074W        W28282  42.835   4.918  13.972
64075W        W28283  25.970  34.544  12.499
64076W        W28284  27.620  25.192   4.180
64077W        W28285   4.833   8.333  14.918
64078W        W28286  28.618  35.998  10.960
64079W        W28287   2.390  13.792  10.413
64080W        W28288   5.343  35.907   1.904
64081W        W28289  29.082  33.086  14.002
64082W        W28290  27.689  17.622   2.262
64083W        W28291  14.802  32.396  13.976
64084W        W28292  16.205   8.671  11.378
64085W        W28293  12.119  13.810   3.276
64086W        W28294   5.761  19.247  14.931
64087W        W28295   8.192  22.697   3.211
64088W        W28296   3.940  42.442  13.923
64089W        W28297  15.163  13.191  13.958
64090W        W28298  17.237  13.289   0.752
64091W        W28299  17.645  38.925   0.288
64092W        W28300  14.256   6.916   2.178
64093W        W28301  22.096  24.209   3.318
64094W        W28302  29.509   7.789  13.452
64095W        W28303  43.855   6.310  13.539
64096W        W28304  29.651  10.757  10.892
64097W        W28305  19.138  44.477  14.291
64098W        W28306  11.165  42.933  14.276
64099W        W28307  33.438  42.890   5.316
64100W        W28308   2.729  15.203   2.359
64101W        W28309  20.197   6.765  13.502
64102W        W28310   2.843  31.110   3.348
64103W        W28311  40.411  38.423   2.324
64104W        W28312  10.831  13.244   3.738
64105W        W28313  42.947   0.868  11.885
64106W        W28314  13.713  16.081   0.335
64107W        W28315   8.780  30.556   2.331
64108W        W28316  33.927  40.493  11.567
64109W        W28317  43.946  36.010   4.274
64110W        W28318  33.454  35.501  13.422
64111W        W28319  37.875  40.875  14.338
64112W        W28320  19.132   2.857   0.360
64113W        W28321   3.771   4.251   4.191
64114W        W28322  11.345   0.487  13.542
64115W        W28323  28.044  22.520  13.487
64116W        W28324  40.976  19.236   3.375
64117W        W28325  24.598  26.113  12.094
64118W        W28326  22.537   5.415   4.830
64119W        W28327   5.357  28.588   3.247
64120W        W28328  18.152   2.802  13.916
64121W        W28329   5.311   1.913   2.841
64122W        W28330  19.763  34.066   1.843
64123W        W28331   2.316  32.898   4.689
64124W        W28332  10.662   3.829  13.998
64125W        W28333  29.659   1.249   1.354
64126W        W28334  37.397  38.868   3.782
64127W        W28335   7.757  35.473  12.356
64128W        W28336  39.872  19.699   2.373
64129W        W28337  21.583   8.345  10.964
64130W        W28338   3.447   2.879  12.374
64131W        W28339  11.212   3.412  13.533
64132W        W28340  11.720  43.879   0.872
64133W        W28341  40.973  37.459   4.608
64134W        W28342  25.157   6.819   0.449
64135W        W28343  13.318  23.207  11.603
64136W        W28344  40.016  27.189  14.275
64137W        W28345  43.782   3.375   1.344
64138W        W28346  22.144  20.546  10.974
64139W        W28347  36.482   8.160   3.754
64140W        W28348  26.675  32.013   3.168
64141W        W28349   1.805  16.627  11.906
64142W        W28350  29.008  29.562  14.012
64143W        W28351   8.196  39.496   1.392
64144W        W28352  25.213  13.808  13.947
64145W        W28353  38.422   3.260  12.569
64146W        W28354  38.460   6.700   4.120
64147W        W28355  28.168  43.892  11.590
64148W        W28356  27.104   5.844   3.298
64149W        W28357  16.748  30.595   3.270
64150W        W28358  38.820  33.520   1.816
64151W        W28359  31.623   4.428  13.533
64152W        W28360  40.980  20.590  11.098
64153W        W28361  34.966  36.413  12.032
64154W        W28362   9.691  10.684  12.888
64155W        W28363  23.180   1.282   1.811
64156W        W28364  42.285  35.601  10.956
64157W        W28365   3.234   9.191  14.285
64158W        W28366   3.765  19.077   1.240
64159W        W28367  22.503  16.784   0.899
64160W        W28368  35.865  20.244  11.080
64161W        W28369  23.136  25.702  11.933
64162W        W28370  32.561   1.322  13.348
64163W        W28371  31.455   3.794  11.460
64164W        W28372  43.833   0.888   0.309
64165W        W28373  18.772  44.871  11.062
64166W        W28374  33.943   9.679   4.818
64167W        W28375  25.482  24.120   4.197
64168W        W28376  26.167  10.167   3.763
64169W        W28377  25.063  24.555   2.725
64170W        W28378  28.172  17.662   9.977
64171W        W28379  28.996  13.833   3.753
64172W        W28380  25.634  13.336  14.941
64173W        W28381  34.920  21.712  13.986
64174W        W28382   7.176  28.167   4.641
64175W        W28383  37.902  24.054  11.546
64176W        W28384  15.182  18.761  10.452
64177W        W28385  42.927  42.438  12.551
64178W        W28386  15.626  21.253  10.912
64179W        W28387  13.155  39.066   2.205
64180W        W28388  20.074  31.899  13.022
64181W        W28389  37.533   3.327   0.742
64182W        W28390  26.509  41.908  14.401
64183W        W28391  16.158  36.412   4.670
64184W        W28392  44.281  42.466   1.753
64185W        W28393  34.987  17.619  10.430
64186W        W28394  28.492  43.976  10.945
64187W        W28395  27.163  19.276  10.904
64188W        W28396   7.855  25.081  10.642
64189W        W28397  24.995   8.160   2.682
64190W        W28398   3.391  44.355  14.909
64191W        W28399  11.304  21.090  12.993
64192W        W28400  30.924  16.203   4.818
64193W        W28401   1.261  23.065   4.254
64194W        W28402  20.226   5.780   0.931
64195W        W28403  42.942  16.189  14.897
64196W        W28404   2.331  28.040  11.110
64197W        W28405  36.994  41.458  13.800
64198W        W28406   0.487  39.998  13.387
64199W        W28407  43.925   1.278   0.761
64200W        W28408   0.889   3.393   2.885
64201W        W28409  21.688   5.793   4.697
64202W        W28410  21.181  25.120   1.858
64203W        W28411   4.802  10.763   0.266
64204W        W28412  16.624  13.200  14.408
64205W        W28413  33.038  43.495  14.337
64206W        W28414  42.861  36.557  13.929
64207W        W28415  11.717  38.825  14.822
64208W        W28416  33.548  40.023  10.642
64209W        W28417  40.874  32.032   1.765
64210W        W28418  24.155  26.541  14.790
64211W        W28419  18.732  27.666   2.664
64212W        W28420  25.599   6.852   4.635
64213W        W28421  25.016  32.047  10.559
64214W        W28422  31.026  31.068  10.608
64215W        W28423  23.083  11.815  13.818
64216W        W28424  14.597   2.811  11.977
64217W        W28425  41.363  43.355  11.997
64218W        W28426  13.228  20.246   1.355
64219W        W28427  38.352  18.556   2.334
64220W        W28428  34.448   3.748  12.547
64221W        W28429   4.869  26.029   1.441
64222W        W28430  14.244  33.001  10.433
64223W        W28431  15.640  16.073   3.279
64224W        W28432  33.446  18.630  10.623
64225W        W28433   6.808  34.108   4.288
64226W        W28434  17.598  31.035   3.383
64227W        W28435  20.093  31.431   2.314
64228W        W28436   5.898  37.846  12.992
64229W        W28437  12.225  33.594  14.346
64230W        W28438  37.403  44.266   3.864
64231W        W28439   4.893  23.527  13.453
64232W        W28440  42.338  25.495   4.712
64233W        W28441  30.150  20.632   0.278
64234W        W28442   3.283  42.796   3.643
64235W        W28443  25.550  42.453   4.274
64236W        W28444  19.699   3.417  10.483
64237W        W28445   0.426  27.125   0.253
64238W        W28446  37.951   5.307  12.081
64239W        W28447   1.972  38.335   1.352
64240W        W28448   6.288   6.336  10.032
64241W        W28449  12.627  18.121   3.221
64242W        W28450  23.640   0.818  11.388
64243W        W28451  40.968   6.866  11.886
64244W        W28452   5.358  18.670   0.369
64245W        W28453  37.366  28.456   0.248
64246W        W28454  22.719  23.495  12.478
64247W        W28455  14.261  26.108  13.914
64248W        W28456  10.820  35.365   4.702
64249W        W28457  12.635   9.853   4.779
64250W        W28458  10.775  20.037   0.367
64251W        W28459   6.212  21.631   3.730
64252W        W28460  14.632  13.194  12.042
64253W        W28461  32.440  21.047   0.944
64254W        W28462  21.735  41.456   1.857
64255W        W28463  12.698  37.412   3.720
64256W        W28464   4.716  23.043  10.612
64257W        W28465  36.927  23.735   2.257
64258W        W28466  23.675  25.610  10.905
64259W        W28467  26.954  26.488  11.938
64260W        W28468  27.619  38.826  10.470
64261W        W28469  30.568  33.066  13.026
64262W        W28470  39.954  29.491   1.330
64263W        W28471  38.873  12.298   4.637
64264W        W28472  32.141  36.973  12.353
64265W        W28473  39.444   1.897   3.641
64266W        W28474  29.474  14.754  14.902
64267W        W28475  32.925   5.836  13.060
64268W        W28476  34.443  16.201   2.849
64269W        W28477  44.416  17.623   2.360
64270W        W28478  19.679  15.628  12.528
64271W        W28479   1.770  39.040   1.863
64272W        W28480  40.049  10.277   1.417
64273W        W28481  33.452  10.183   4.772
64274W        W28482   2.427  12.661   4.306
64275W        W28483  40.326  19.570   9.664
64276W        W28484  38.565  19.638   0.738
64277W        W28485  31.517  36.547   4.605
64278W        W28486  21.257  13.641  11.118
64279W        W28487   5.413  19.221  11.539
64280W        W28488  17.616   1.306   4.707
64281W        W28489   6.282   0.972   0.256
64282W        W28490  30.994  41.465  14.357
64283W        W28491  41.875  34.973   2.277
64284W        W28492  19.052  33.621   2.247
64285W        W28493   2.450  34.501  10.451
64286W        W28494  13.832  20.766   0.384
64287W        W28495  25.017  43.912  12.430
64288W        W28496  40.864  19.628   3.171
64289W        W28497  40.016  35.571  12.059
64290W        W28498   4.774  37.879  11.450
64291W        W28499  42.501  33.620  12.412
64292W        W28500  41.484  29.056   2.280
64293W        W28501  24.688  39.504  10.915
64294W        W28502  19.595   9.222  11.433
64295W        W28503  34.447  26.205  12.349
64296W        W28504  12.647   2.427  11.877
64297W        W28505  22.501  24.704  10.597
64298W        W28506  16.813  18.064  11.938
64299W        W28507  25.549  24.981  11.570
64300W        W28508   1.287  26.604   2.372
64301W        W28509  31.541  41.496  14.776
64302W        W28510   4.349  34.578   4.310
64303W        W28511  17.145  29.484  12.069
64304W        W28512  35.416  27.046   3.344
64305W        W28513   1.753  36.021  11.471
64306W        W28514  10.697  40.317   3.803
64307W        W28515  28.538  38.456   4.767
64308W        W28516  13.233   9.381  10.490
64309W        W28517  30.928  43.383   1.386
64310W        W28518  31.593  30.492  14.806
64311W        W28519  14.689  18.258  11.534
64312W        W28520  16.107  14.245   3.717
64313W        W28521  19.729  23.496   3.379
64314W        W28522  37.568  31.947  12.376
64315W        W28523   3.354  44.421  11.457
64316W        W28524   5.434  28.938   4.664
64317W        W28525  32.944  27.543  10.887
64318W        W28526  18.118   1.884  13.809
64319W        W28527  22.614  21.057   0.941
64320W        W28528  41.477  23.679  13.877
64321W        W28529   8.237   5.730   2.720
64322W        W28530  26.963  10.332  14.816
64323W        W28531  35.531  39.466  13.935
64324W        W28532  23.206  23.037  14.995
64325W        W28533  21.068  28.487   3.805
64326W        W28534   4.295   6.677   4.160
64327W        W28535  11.781  33.062   0.388
64328W        W28536  20.116   9.800   1.851
64329W        W28537  18.679  29.013   2.263
64330W        W28538  23.149  43.838  12.424
64331W        W28539  12.131  30.931   4.616
64332W        W28540  25.076  28.953  13.388
64333W        W28541  30.147  30.012   0.383
64334W        W28542   2.409  32.603   0.754
64335W        W28543   7.322  19.280  10.893
64336W        W28544  14.199  27.572   4.789
64337W        W28545  42.849  12.684  12.837
64338W        W28546   8.706  24.185   0.857
64339W        W28547   6.280   2.426   4.205
64340W        W28548  32.546   4.836  10.917
64341W        W28549   5.312  23.094   0.338
64342W        W28550   1.345  27.009   1.282
64343W        W28551  21.671  31.431  11.930
64344W        W28552  33.064   1.252   2.279
64345W        W28553  23.101   0.960   3.199
64346W        W28554  40.937  13.224  11.922
64347W        W28555  39.929  32.497  12.834
64348W        W28556  19.715  42.485  13.492
64349W        W28557  40.951  15.824   3.301
64350W        W28558  30.138  10.242  13.489
64351W        W28559  20.746  16.109  14.763
64352W        W28560  27.463  20.044  14.827
64353W        W28561  38.865  33.604  13.965
64354W        W28562  28.048  13.328   0.291
64355W        W28563   4.389  35.902   4.309
64356W        W28564  18.572   9.274  11.402
64357W        W28565  42.307  31.150  12.436
64358W        W28566  24.991  33.901  12.079
64359W        W28567  36.859  36.946  14.818
64360W        W28568  43.438  41.953  14.759
64361W        W28569   4.299  34.536   0.333
64362W        W28570  10.771   2.263   2.331
64363W        W28571   6.810  32.900   1.906
64364W        W28572   1.897  41.461   1.804
64365W        W28573  25.572  31.533   0.835
64366W        W28574  24.210   3.800   2.249
64367W        W28575   5.204  39.428  11.995
64368W        W28576   2.776  12.688  12.510
64369W        W28577  37.890  16.207   1.430
64370W        W28578  15.762  28.598   4.617
64371W        W28579  34.493  26.499   1.442
64372W        W28580  14.212  43.455  12.577
64373W        W28581  24.106  22.159   4.763
64374W        W28582   6.677  13.790  12.938
64375W        W28583   4.737  39.474   1.749
64376W        W28584   6.428   6.414   1.810
64377W        W28585  16.666  21.211  12.995
64378W        W28586  32.547   0.955  10.494
64379W        W28587   1.303  11.131  13.019
64380W        W28588  23.180   2.420   0.391
64381W        W28589  25.665  32.544   1.418
64382W        W28590  28.115  18.644  13.422
64383W        W28591   5.301  23.715   2.184
64384W        W28592  25.559  40.406  11.867
64385W        W28593  30.601   0.944  12.570
64386W        W28594  32.891  23.017   4.675
64387W        W28595   4.316  38.907  10.948
64388W        W28596  40.472  22.080   0.786
64389W        W28597  41.309  26.120   3.755
64390W        W28598  41.442  37.525   3.247
64391W        W28599  27.174  19.779   3.260
64392W        W28600  31.976  33.418   5.275
64393W        W28601  20.071  40.833  10.584
64394W        W28602   1.289  17.698  14.790
64395W        W28603  34.940  35.972   0.744
64396W        W28604  38.838   5.734  14.863
64397W        W28605   0.978  19.261   0.766
64398W        W28606  30.601   6.219   2.711
64399W        W28607   4.224  15.121   1.844
64400W        W28608  17.740  10.856  14.421
64401W        W28609  31.479   5.923  14.758
64402W        W28610  16.715   8.842  14.485
64403W        W28611   5.928  30.422  11.052
64404W        W28612  40.927  35.926  13.361
64405W        W28613  20.254   8.293  13.810
64406W        W28614   0.432   6.334   2.706
64407W        W28615  19.539   7.764   1.895
64408W        W28616   4.243   8.746  14.276
64409W        W28617  28.536  32.115   0.840
64410W        W28618  17.116   6.424  13.808
64411W        W28619   1.356  31.115   1.298
64412W        W28620   6.900   8.364   0.738
64413W        W28621  30.000  29.577  12.521
64414W        W28622  18.113  13.167  12.999
64415W        W28623  16.729  27.505   0.905
64416W        W28624  10.161  12.765   1.752
64417W        W28625  19.549  30.987   4.210
64418W        W28626  43.375  42.493   2.326
64419W        W28627  33.575  10.187   3.810
64420W        W28628  36.494  18.784   0.439
64421W        W28629  42.322  20.595   2.768
64422W        W28630   5.231  25.605  14.951
64423W        W28631  18.709   1.377  13.379
64424W        W28632  35.370   3.280  11.511
64425W        W28633  44.841   5.902  14.026
64426W        W28634   5.427   6.724   3.298
64427W        W28635  32.889  11.837   0.462
64428W        W28636  16.303  36.448  10.407
64429W        W28637   3.759   7.750   2.332
64430W        W28638  15.709  10.370   9.936
64431W        W28639  20.185  17.694  13.408
64432W        W28640  15.634   9.706   4.828
64433W        W28641   8.401   8.717   3.691
64434W        W28642  21.568   7.752   2.340
64435W        W28643  15.705  41.394   2.794
64436W        W28644   1.400  21.031   0.946
64437W        W28645  11.796   7.675  12.988
64438W        W28646  33.574  35.964  14.355
64439W        W28647  10.204  13.314   3.249
64440W        W28648  32.522   9.714   0.267
64441W        W28649  30.510  42.417  10.924
64442W        W28650  26.507  44.845   3.629
64443W        W28651  31.897  13.149   2.299
64444W        W28652  13.285  24.651  11.124
64445W        W28653  16.141  22.190  13.497
64446W        W28654  31.076  28.581   1.301
64447W        W28655   8.757  30.940   2.404
64448W        W28656   3.912  39.546  10.472
64449W        W28657  36.041   7.689   1.351
64450W        W28658  12.843   3.784   3.294
64451W        W28659  36.064  25.604   0.458
64452W        W28660  31.905   5.928  11.570
64453W        W28661  39.329  21.667   2.733
64454W        W28662   6.836   7.828  12.071
64455W        W28663  14.255  34.404  13.917
64456W        W28664  29.116  31.149  14.950
64457W        W28665   3.856   0.781   4.236
64458W        W28666  41.467   7.847  11.526
64459W        W28667   4.699  30.968  14.296
64460W        W28668  16.165   1.241  10.976
64461W        W28669  19.697  25.165  12.360
64462W        W28670  22.636   7.869   0.272
64463W        W28671  41.873  13.710  11.002
64464W        W28672  10.798  42.930  11.067
64465W        W28673   4.263   9.698  12.346
64466W        W28674  11.734   3.448   5.195
64467W        W28675  21.121  41.401   4.802
64468W        W28676  32.510  11.758  11.371
64469W        W28677  26.122  31.490  13.053
64470W        W28678  33.434  14.596  13.510
64471W        W28679  18.656  33.582  13.397
64472W        W28680  30.494   7.289   0.307
64473W        W28681   8.783  21.721   1.885
64474W        W28682  31.123  10.639   1.265
64475W        W28683   0.828   1.457  12.090
64476W        W28684   6.885  28.527  12.888
64477W        W28685  18.277  29.505  10.511
64478W        W28686  11.215  39.039   2.754
64479W        W28687  12.181   0.873   4.205
64480W        W28688  31.442  19.543  14.440
64481W        W28689  25.115  10.350   0.382
64482W        W28690   0.814   8.846   1.441
64483W        W28691  41.338  31.151   1.261
64484W        W28692   2.889   0.282  10.600
64485W        W28693  27.952  39.556   2.211
64486W        W28694   7.691  16.634   2.241
64487W        W28695  36.058  27.683   3.836
64488W        W28696  36.494   7.300   3.840
64489W        W28697  36.364  23.154  14.413
64490W        W28698  22.009  43.390  14.308
64491W        W28699  34.913   8.326   0.299
64492W        W28700  29.962  35.547  11.538
64493W        W28701  40.530  14.798  13.884
64494W        W28702   4.411  14.151  13.532
64495W        W28703  11.662  29.474  14.370
64496W        W28704  12.647  27.647  13.952
64497W        W28705  22.086  18.563   1.379
64498W        W28706  16.168  11.717  12.447
64499W        W28707  43.483   3.767   5.181
64500W        W28708   8.219   2.369  13.462
64501W        W28709  31.897   4.293   2.196
64502W        W28710  36.468   1.284  11.119
64503W        W28711  33.432  43.943  14.785
64504W        W28712  24.597  19.232  13.003
64505W        W28713  28.137   7.412  12.064
64506W        W28714  13.831  14.745   2.278
64507W        W28715  16.195   7.314  11.959
64508W        W28716  19.574  10.697   3.708
64509W        W28717  13.262  17.086  11.906
64510W        W28718  25.180  21.172   3.244
64511W        W28719  41.881  42.417   4.186
64512W        W28720  29.063   7.887   2.306
64513W        W28721  10.282  37.946   2.240
64514W        W28722  28.990  36.924  12.076
64515W        W28723  10.156  14.243   4.782
64516W        W28724  41.356  25.479   3.660
64517W        W28725   2.822  36.444   4.754
64518W        W28726  26.645  20.569  10.937
64519W        W28727  40.942  16.806  12.391
64520W        W28728  21.618  42.319  12.471
64521W        W28729  14.307  10.782   4.774
64522W        W28730  36.005  28.519  14.392
64523W        W28731  39.489   2.283  10.892
64524W        W28732  13.796  12.314   0.729
64525W        W28733  29.522  36.998   3.633
64526W        W28734  26.584  10.371   3.723
64527W        W28735  10.711  29.546   1.368
64528W        W28736  29.958  21.187   3.641
64529W        W28737   6.281  36.511   0.428
64530W        W28738  11.171  25.686   4.188
64531W        W28739  35.442   5.862  11.128
64532W        W28740   0.881  36.962   5.637
64533W        W28741  31.595  38.386   4.784
64534W        W28742  22.746  38.958   0.339
64535W        W28743  44.499   6.696  12.885
64536W        W28744   8.398  19.720   4.731
64537W        W28745  30.623  37.898   1.437
64538W        W28746  43.419  20.171   0.934
64539W        W28747  40.371   0.830  10.509
64540W        W28748  36.460  22.149   2.363
64541W        W28749  26.004  27.141  14.794
64542W        W28750  27.967   9.732  11.091
64543W        W28751  24.153  13.651   3.700
64544W        W28752  10.248  35.079  14.361
64545W        W28753  14.770  14.323   1.426
64546W        W28754  31.593  42.456  13.402
64547W        W28755   2.776   2.456  12.461
64548W        W28756  29.143   1.836   2.710
64549W        W28757   1.278  31.516  14.314
64550W        W28758  20.177  37.529   2.285
64551W        W28759  44.484  25.658  10.972
64552W        W28760  37.390  36.907   0.789
64553W        W28761  28.074  38.856   3.858
64554W        W28762  26.525  20.642   1.353
64555W        W28763   2.897  12.149  14.371
64556W        W28764  43.420  10.852  12.028
64557W        W28765  33.098  20.163   1.887
64558W        W28766  19.704  38.916   3.277
64559W        W28767  16.203  23.619   4.126
64560W        W28768  14.195  12.227  14.462
64561W        W28769  17.161  19.580  13.535
64562W        W28770  40.954  26.536  11.397
64563W        W28771  15.203   5.877   4.240
64564W        W28772  36.362  37.886  13.523
64565W        W28773  38.385  16.291  14.773
64566W        W28774   6.412  23.577  14.998
64567W        W28775  41.474  13.273   0.285
64568W        W28776  15.685   1.841  14.949
64569W        W28777  30.625  14.131  13.410
64570W        W28778   1.738  25.562  12.565
64571W        W28779  39.963  24.660   3.711
64572W        W28780  41.373   8.394  12.340
64573W        W28781  24.996  13.291   3.276
64574W        W28782  10.379  38.400   1.717
64575W        W28783  41.341  20.625   0.945
64576W        W28784  24.589  39.044   4.344
64577W        W28785  38.336  16.176  13.470
64578W        W28786   2.425  20.150  12.981
64579W        W28787   1.245  26.034   0.890
64580W        W28788  34.380  28.024  11.387
64581W        W28789  24.613   7.744  14.314
64582W        W28790  23.576   4.431   2.289
64583W        W28791   2.806  33.404   3.851
64584W        W28792  39.826  11.364   4.302
64585W        W28793  10.783  31.128  13.982
64586W        W28794  42.507   9.376   2.391
64587W        W28795   5.828   4.385  13.540
64588W        W28796  31.499  36.580  11.109
64589W        W28797  18.557  17.591   3.757
64590W        W28798  12.257  24.028  13.533
64591W        W28799  35.387  40.816  13.493
64592W        W28800  38.854  32.577   0.427
64593W        W28801  19.608  28.509  11.963
64594W        W28802  14.226  34.994  12.369
64595W        W28803  22.101  18.117  11.527
64596W        W28804  40.054   4.258  11.517
64597W        W28805  20.689  38.926  14.851
64598W        W28806  28.004  44.786  10.130
64599W        W28807  27.191  15.280   1.261
64600W        W28808  43.840  29.602   3.303
64601W        W28809  37.019  15.719  14.445
64602W        W28810  18.574  33.950  13.960
64603W        W28811  35.564  33.595  11.922
64604W        W28812  29.087  29.163   0.787
64605W        W28813  19.095  42.381  13.048
64606W        W28814   9.341  19.232  13.918
64607W        W28815  18.276   1.752  12.001
64608W        W28816  44.449  44.803  11.506
64609W        W28817  18.596  42.397   1.886
64610W        W28818  17.076  10.814  14.863
64611W        W28819  23.057  35.598  12.564
64612W        W28820   3.374  41.015  13.857
64613W        W28821  33.982  41.330   4.157
64614W        W28822  44.312  32.902   0.743
64615W        W28823  17.066  22.706  11.882
64616W        W28824   8.223  38.822  13.815
64617W        W28825  18.202  17.773   2.739
64618W        W28826  31.053  31.994   0.256
64619W        W28827  39.485  22.049   1.396
64620W        W28828   1.445  26.163  13.407
64621W        W28829  25.494  21.049  12.555
64622W        W28830   8.747  23.514  13.854
64623W        W28831   0.804  19.230   2.274
64624W        W28832   6.200  35.036   3.865
64625W        W28833  19.635   8.774   2.201
64626W        W28834  44.461  43.413   0.329
64627W        W28835   9.879  17.735   2.700
64628W        W28836   5.207  21.643  12.943
64629W        W28837  26.533  12.799  14.387
64630W        W28838  40.482  26.510  12.909
64631W        W28839  35.020   0.492  14.331
64632W        W28840  27.490  13.235   4.754
64633W        W28841  22.579  16.187  13.408
64634W        W28842  19.576   5.893   3.281
64635W        W28843  22.502  23.644  14.335
64636W        W28844  22.015  16.571  13.441
64637W        W28845  25.009  10.804   0.270
64638W        W28846  10.654   8.821   1.839
64639W        W28847   5.221   6.389  11.097
64640W        W28848  34.519  37.052   3.330
64641W        W28849  44.467  36.012   4.611
64642W        W28850   1.755  37.866  13.487
64643W        W28851  22.158  32.603   0.824
64644W        W28852  37.999  41.319  11.487
64645W        W28853  37.383  12.797  14.788
64646W        W28854  26.504  25.197  12.912
64647W        W28855  29.627   7.395   5.082
64648W        W28856  33.887   4.771  12.925
64649W        W28857   9.312   9.182   2.243
64650W        W28858  37.036   5.375   4.349
64651W        W28859  42.994   5.756  11.591
64652W        W28860  42.901  15.319  13.921
64653W        W28861  19.775   3.727   3.665
64654W        W28862  11.823  24.557   2.788
64655W        W28863  39.886  23.221  12.431
64656W        W28864  32.993  18.647   2.894
64657W        W28865  41.944   4.269   2.793
64658W        W28866  26.043  39.464   3.353
64659W        W28867  10.792  23.546  13.875
64660W        W28868   8.369  38.501   0.361
64661W        W28869  33.422  34.550   2.335
64662W        W28870  34.594  20.263  12.498
64663W        W28871  39.393  18.161   1.414
64664W        W28872  28.016  36.034  11.580
64665W        W28873  20.523  22.598  14.936
64666W        W28874   3.431  20.054   2.320
64667W        W28875  21.260  14.771  12.370
64668W        W28876   4.795  43.007  10.420
64669W        W28877  14.693  35.948  10.113
64670W        W28878  35.028   3.950   1.253
64671W        W28879  37.002  34.030   3.306
64672W        W28880   3.712   0.944   4.649
64673W        W28881  29.121  35.996   4.782
64674W        W28882  20.201  23.663   0.750
64675W        W28883  22.138  23.998  12.954
64676W        W28884  36.515  32.014  12.876
64677W        W28885  23.566  41.362   1.742
64678W        W28886  42.320  18.108  12.064
64679W        W28887  19.049  31.073   2.666
64680W        W28888  24.188  36.592   2.283
64681W        W28889  22.559  31.494   4.809
64682W        W28890  11.743   4.303   0.812
64683W        W28891  30.032  42.904  13.496
64684W        W28892  30.452  21.515  14.025
64685W        W28893  32.596  12.304  12.896
64686W        W28894  27.692   6.308  11.413
64687W        W28895  42.295  20.248   0.918
64688W        W28896  40.468  35.556   0.426
64689W        W28897  17.745  29.650   0.247
64690W        W28898  15.692  13.324   4.215
64691W        W28899  22.746  15.603   2.236
64692W        W28900   1.842   0.401   2.359
64693W        W28901  39.314   2.836   0.314
64694W        W28902  32.578  38.340   3.833
64695W        W28903  11.230   5.911   2.892
64696W        W28904  18.265  22.680   0.266
64697W        W28905  44.389  20.760   2.202
64698W        W28906  21.167   7.229   1.878
64699W        W28907  30.923  26.662  11.111
64700W        W28908  31.403  37.581   9.957
64701W        W28909  38.568  13.743  10.640
64702W        W28910  26.173   5.918  14.304
64703W        W28911   2.241  43.844  14.299
64704W        W28912   5.849   5.768  11.510
64705W        W28913  30.577  10.191   3.786
64706W        W28914   0.267  14.159  13.467
64707W        W28915   9.328   5.243  11.583
64708W        W28916  39.919  30.637   1.847
64709W        W28917  26.649  24.203   0.770
64710W        W28918  19.264  24.512   1.726
64711W        W28919  21.221  37.008   4.126
64712W        W28920  22.738  16.692  11.102
64713W        W28921  43.417  24.496   3.749
64714W        W28922  27.571  23.707   2.790
64715W        W28923  19.073  18.712  10.001
64716W        W28924  34.578  26.616  14.282
64717W        W28925  17.759  42.877  10.106
64718W        W28926  33.420  19.145  14.993
64719W        W28927  29.447  22.120  11.461
64720W        W28928  20.132  44.894   1.228
64721W        W28929  19.157   5.232  11.086
64722W        W28930  44.001  32.894  11.579
64723W        W28931  19.176  24.095   3.302
64724W        W28932  33.531  33.920   3.632
64725W        W28933  34.006  18.660   0.783
64726W        W28934  14.729  23.229   1.780
64727W        W28935  28.977  43.922   2.892
64728W        W28936   4.369  12.124  13.924
64729W        W28937  25.612  38.380   2.352
64730W        W28938  12.338  27.669   3.782
64731W        W28939  30.099  28.597   3.775
64732W        W28940  24.138  26.591   0.256
64733W        W28941  15.099  30.443   0.865
64734W        W28942  44.267  34.103   0.780
64735W        W28943   4.362  19.552   0.807
64736W        W28944  28.988   2.453   3.688
64737W        W28945  15.249  41.918   4.315
64738W        W28946  35.491  43.465  14.789
64739W        W28947  39.459  37.854   3.707
64740W        W28948  27.568  17.630   0.810
64741W        W28949  23.021  42.894   5.302
64742W        W28950   3.781  41.516  11.462
64743W        W28951   7.292   0.970  12.552
64744W        W28952   0.327  43.381  14.887
64745W        W28953  30.946  21.258  13.030
64746W        W28954   0.821  34.878  14.336
64747W        W28955  33.905  30.591   0.761
64748W        W28956  28.074   8.793   2.875
64749W        W28957  32.076  39.353  12.576
64750W        W28958  24.224  43.460   2.893
64751W        W28959  23.577  35.003  14.404
64752W        W28960  44.838  21.072   4.605
64753W        W28961  27.601  11.132   4.300
64754W        W28962  42.988  36.349  11.895
64755W        W28963  18.164  19.543   0.848
64756W        W28964  34.485  44.298   2.273
64757W        W28965  35.863  13.801   2.230
64758W        W28966  30.106  24.711   3.666
64759W        W28967  13.162   8.654   3.166
64760W        W28968  39.529  25.670  12.434
64761W        W28969  16.589  36.469  11.874
64762W        W28970  12.713  12.151  11.052
64763W        W28971  34.898  10.835   0.928
64764W        W28972  31.086   5.846   0.762
64765W        W28973  42.005  41.967   4.176
64766W        W28974  10.335  25.110  12.405
64767W        W28975  30.937   8.717   3.373
64768W        W28976  25.586  39.886   0.263
64769W        W28977  40.823  32.057   3.264
64770W        W28978   8.853   9.810  13.887
64771W        W28979  23.119  22.996  11.563
64772W        W28980   8.191  32.518   4.309
64773W        W28981  42.475  34.008   0.426
64774W        W28982  40.886  41.955  14.776
64775W        W28983   6.348  10.825   3.380
64776W        W28984   9.326   8.791  12.902
64777W        W28985   8.224   2.767   3.278
64778W        W28986  37.045   4.819   1.867
64779W        W28987  20.109   6.333  12.861
64780W        W28988  37.459  42.971  10.999
64781W        W28989  34.393  38.824  12.436
64782W        W28990  18.235  31.540  10.615
64783W        W28991   0.769  43.365  12.561
64784W        W28992  15.235  20.186  13.901
64785W        W28993  21.029  43.295   2.371
64786W        W28994   9.265  34.595  12.063
64787W        W28995  34.412   8.851  13.017
64788W        W28996   5.254   5.766  13.529
64789W        W28997  13.300  35.524  10.507
64790W        W28998   7.199  32.435  13.929
64791W        W28999  18.175  27.458  10.944
64792W        W29000  33.587  11.669   2.866
64793W        W29001  31.988  17.175   0.409
64794W        W29002  18.077   5.845  14.399
64795W        W29003  39.453  15.120  12.422
64796W        W29004  13.343  13.640  10.409
64797W        W29005  38.978  29.467  12.357
64798W        W29006  38.410   0.283  12.434
64799W        W29007  32.053  20.636  10.028
64800W        W29008   1.886  23.585   3.707
64801W        W29009  24.070  39.900   1.793
64802W        W29010  20.157  11.825  13.040
64803W        W29011  12.208  11.324   1.858
64804W        W29012  12.234   3.272   4.687
64805W        W29013   5.712   2.293  11.411
64806W        W29014  11.363  42.922   2.219
64807W        W29015  25.602  13.136  13.477
64808W        W29016  23.127  22.241  11.528
64809W        W29017   2.254  30.455   5.656
64810W        W29018   1.350  17.266   1.931
64811W        W29019  24.499  10.686   2.204
64812W        W29020  34.998  44.755  12.041
64813W        W29021   1.456  38.060  13.355
64814W        W29022  12.623  30.013   0.841
64815W        W29023   8.734  43.883  14.513
64816W        W29024  17.757   4.741  13.495
64817W        W29025  22.670  40.910  11.964
64818W        W29026  30.951  37.834  11.535
64819W        W29027  40.498   4.856  12.097
64820W        W29028  23.120  43.292   0.917
64821W        W29029  38.839  18.171   3.356
64822W        W29030   6.300  20.111   1.703
64823W        W29031  31.152  39.895   4.179
64824W        W29032   0.307  36.864  14.778
64825W        W29033  22.198  44.407  10.625
64826W        W29034  41.312  20.560  13.796
64827W        W29035  29.060  42.819  11.865
64828W        W29036   7.860  17.135  10.033
64829W        W29037  42.867  44.834  14.022
64830W        W29038   1.383  34.055   0.321
64831W        W29039   6.362   6.335   4.798
64832W        W29040  25.614  33.576  12.478
64833W        W29041   3.711   0.294   3.322
64834W        W29042  24.481   6.307   4.679
64835W        W29043  22.241  36.087  14.811
64836W        W29044  35.918   6.685  11.074
64837W        W29045  37.553   4.736  13.040
64838W        W29046  43.380   2.930  14.406
64839W        W29047   8.773  33.522  10.562
64840W        W29048   6.372   0.789  14.925
64841W        W29049  24.122  17.569  11.523
64842W        W29050  18.677   9.189  12.487
64843W        W29051   7.238  16.164  14.930
64844W        W29052  30.062  14.282  13.504
64845W        W29053  35.046  20.210  11.019
64846W        W29054  20.688  11.228   1.448
64847W        W29055  35.979   2.423   1.393
64848W        W29056  44.963   7.873  11.596
64849W        W29057  42.428   1.305   3.694
64850W        W29058  10.205  21.693  10.117
64851W        W29059   4.917  28.073  10.627
64852W        W29060  37.992  30.589  12.019
64853W        W29061  37.966  14.719   0.461
64854W        W29062  44.963  37.082  13.310
64855W        W29063  26.494   4.719  14.002
64856W        W29064  18.736  32.527   2.196
64857W        W29065  21.749  36.062  10.433
64858W        W29066  18.058   0.777  12.078
64859W        W29067  34.547   0.258  11.427
64860W        W29068  22.582  22.587   3.236
64861W        W29069   1.896  13.627  12.489
64862W        W29070   9.653   7.827   1.711
64863W        W29071   8.198  12.138  13.980
64864W        W29072   4.445  19.249   4.740
64865W        W29073  26.032  14.689  10.915
64866W        W29074  34.435  20.642   0.407
64867W        W29075  29.939  42.282   1.746
64868W        W29076  17.639  41.408   0.311
64869W        W29077  12.799  41.898   0.357
64870W        W29078   9.756  30.498  12.086
64871W        W29079  14.320  43.873   4.721
64872W        W29080  24.672   2.326   0.332
64873W        W29081  24.087  15.180   4.609
64874W        W29082  22.531  13.240   4.226
64875W        W29083  14.279  14.681   0.966
64876W        W29084  35.381   2.245   4.237
64877W        W29085   7.881   5.707  10.522
64878W        W29086   2.333  42.449  12.046
64879W        W29087  42.023  11.138  12.577
64880W        W29088  36.348  20.552   2.312
64881W        W29089  19.088  37.340  14.794
64882W        W29090  14.596  41.010  14.013
64883W        W29091  35.494  21.543  13.394
64884W        W29092  15.250   1.384  14.309
64885W        W29093   8.344   3.802   2.239
64886W        W29094  14.260  27.018  13.484
64887W        W29095  38.420  27.628  13.805
64888W        W29096  14.750  35.460   1.844
64889W        W29097  35.961  25.059  14.425
64890W        W29098  33.883  10.149   0.872
64891W        W29099  14.098  44.932   3.854
64892W        W29100  15.629  25.213   0.823
64893W        W29101  36.998  29.017   2.688
64894W        W29102  31.533   6.324   2.317
64895W        W29103   7.865  19.639   1.887
64896W        W29104  30.105   1.407   1.408
64897W        W29105  15.124   4.450  13.918
64898W        W29106  22.181  22.573   1.717
64899W        W29107  30.932  40.890   4.822
64900W        W29108  22.512  11.745  14.826
64901W        W29109   4.232  33.066   4.160
64902W        W29110  27.965  16.792  11.602
64903W        W29111  32.572  19.276   2.371
64904W        W29112  34.452  17.081   2.679
64905W        W29113   7.904  24.542  14.764
64906W        W29114  21.533  27.465  14.294
64907W        W29115  22.717  19.627   1.745
64908W        W29116  32.103  24.206   4.658
64909W        W29117   3.866   6.370  14.919
64910W        W29118  43.942   7.327   3.645
64911W        W29119  28.158  15.090   1.737
64912W        W29120  16.140  31.420   0.476
64913W        W29121  16.151   4.448   2.723
64914W        W29122  26.490  17.671  13.887
64915W        W29123  40.489  16.254  14.287
64916W        W29124   7.758   2.746  12.020
64917W        W29125  14.821  15.638   2.736
64918W        W29126  44.486  18.587  10.079
64919W        W29127  11.689  44.004   4.141
64920W        W29128  25.157  29.440   0.359
64921W        W29129  36.068  35.364  10.550
64922W        W29130   4.795  39.518  14.414
64923W        W29131  34.947  21.190   0.936
64924W        W29132  13.663  43.376   4.342
64925W        W29133   5.877  34.475  12.861
64926W        W29134  41.511  24.484  11.524
64927W        W29135  37.383  42.484   1.740
64928W        W29136  27.579  43.325   0.293
64929W        W29137  25.136  41.501  14.890
64930W        W29138  26.994  34.064  13.461
64931W        W29139  35.951  21.626   4.805
64932W        W29140  37.018  40.864   2.354
64933W        W29141   4.392  10.382   0.300
64934W        W29142   0.936  10.758   0.757
64935W        W29143  43.789  33.116  12.877
64936W        W29144  42.810  12.673  13.326
64937W        W29145  14.294  11.851   0.322
64938W        W29146   9.336  42.953   4.722
64939W        W29147   7.274  10.336  10.523
64940W        W29148  37.053  32.481   1.782
64941W        W29149  40.361   5.355   1.921
64942W        W29150  27.663  42.428  13.433
64943W        W29151  42.455  37.347   0.778
64944W        W29152  22.709  24.641  14.330
64945W        W29153  33.492  18.109  11.977
64946W        W29154  17.094  27.677   1.334
64947W        W29155  32.470  14.704  13.027
64948W        W29156   2.919   0.347  13.486
64949W        W29157  10.862   2.809   0.359
64950W        W29158   4.928  27.075   2.314
64951W        W29159  25.089  13.117  12.414
64952W        W29160   9.330  32.392  11.562
64953W        W29161  14.212   0.475   2.710
64954W        W29162  20.247  23.195   0.318
64955W        W29163   5.428  17.270  14.305
64956W        W29164  27.950  12.805   1.924
64957W        W29165   1.733  27.144  11.465
64958W        W29166   4.450  18.667  14.292
64959W        W29167  12.817  26.697  10.498
64960W        W29168  33.503  35.016  11.913
64961W        W29169  24.600  25.203   0.862
64962W        W29170  11.666  42.895   3.865
64963W        W29171  36.026  35.985   3.225
64964W        W29172  22.673  21.263   0.273
64965W        W29173  12.634  27.059  12.033
64966W        W29174  16.277   9.873  11.384
64967W        W29175  39.316  11.716  10.041
64968W        W29176  42.320  38.569   2.697
64969W        W29177  27.941  10.244   0.787
64970W        W29178  10.326  17.292  11.957
64971W        W29179  24.647  33.448  11.386
64972W        W29180  43.825  17.566   1.448
64973W        W29181  36.584  20.616  13.013
64974W        W29182  44.305  31.634   1.888
64975W        W29183  30.414  18.145   1.736
64976W        W29184  29.494  15.728   0.351
64977W        W29185  18.088  14.804   3.675
64978W        W29186  23.647  22.599  13.856
64979W        W29187  36.992  21.168   0.960
64980W        W29188  12.240  44.327  14.366
64981W        W29189  26.081  25.176  14.851
64982W        W29190  22.168  19.712   0.477
64983W        W29191  37.967  19.748  14.787
64984W        W29192  25.595  20.174   0.956
64985W        W29193  11.848  13.281  13.922
64986W        W29194  36.454  36.034   4.244
64987W        W29195   5.900  36.459   0.415
64988W        W29196   6.202   7.802   4.628
64989W        W29197  41.365  26.989  11.460
64990W        W29198  31.104  11.155   4.307
64991W        W29199  35.501  31.936   5.148
64992W        W29200  25.206   9.295  13.495
64993W        W29201  39.501  27.066   4.337
64994W        W29202  13.803  18.198   2.665
64995W        W29203  40.455  28.959   3.243
64996W        W29204  34.422  10.851  13.535
64997W        W29205   4.857  33.406  12.042
64998W        W29206  31.064  25.184   1.272
64999W        W29207  32.400  18.669   3.674
65000W        W29208  14.260  17.097  12.958
65001W        W29209  44.337  11.291  13.514
65002W        W29210  14.238   7.233   3.384
65003W        W29211  31.061  22.232  10.594
65004W        W29212  32.012  43.501   0.848
65005W        W29213   0.329  24.990  11.090
65006W        W29214   0.305  19.613  13.914
65007W        W29215   1.784  43.874   4.708
65008W        W29216   9.836  24.058   4.824
65009W        W29217  13.136  34.024  14.007
65010W        W29218   6.815  33.930  11.900
65011W        W29219  19.635   0.816  11.916
65012W        W29220  17.264  33.125   1.919
65013W        W29221  29.475  13.304   2.866
65014W        W29222  25.631  20.107   0.439
65015W        W29223  16.261   3.953  10.916
65016W        W29224  15.604   0.456   4.627
65017W        W29225  20.602  33.610   4.315
65018W        W29226  43.398   3.340  10.065
65019W        W29227  24.639  27.042   3.220
65020W        W29228   7.847  33.611   1.436
65021W        W29229  22.174  26.127   0.481
65022W        W29230  10.253  12.152   3.720
65023W        W29231  34.894  25.209  14.028
65024W        W29232   7.716  44.478   2.248
65025W        W29233   0.378  40.023  12.868
65026W        W29234   1.423   6.722   1.813
65027W        W29235   9.754  26.578  13.510
65028W        W29236   2.872  21.584   4.771
65029W        W29237  10.767  15.784   1.448
65030W        W29238  15.141   3.804   3.863
65031W        W29239  11.840  39.401  10.914
65032W        W29240  15.315  20.086   0.772
65033W        W29241   6.752   7.811   1.722
65034W        W29242   9.317  34.421   0.942
65035W        W29243  35.493  22.210   4.175
65036W        W29244  23.510   3.372   4.781
65037W        W29245  40.530  37.508   3.326
65038W        W29246   8.396   8.286   4.616
65039W        W29247  39.457  16.207   2.283
65040W        W29248   0.282   6.921   1.274
65041W        W29249  23.035  40.020  10.934
65042W        W29250  11.762  34.432  13.791
65043W        W29251   8.381  11.250   4.706
65044W        W29252  26.696  19.067   4.276
65045W        W29253   3.453   3.712   9.494
65046W        W29254   4.741   7.203  12.932
65047W        W29255  42.823   2.446  12.508
65048W        W29256  40.377  25.171  14.824
65049W        W29257  40.339  12.321   4.131
65050W        W29258  44.439  38.041   3.710
65051W        W29259  16.271   6.718   4.825
65052W        W29260  13.616   3.334   2.197
65053W        W29261  37.057   0.353   3.667
65054W        W29262  28.090   2.468   0.272
65055W        W29263  18.257   1.747   0.795
65056W        W29264  13.823  29.029  11.483
65057W        W29265  30.547  15.615  14.010
65058W        W29266  37.472  24.048  11.520
65059W        W29267  37.388  44.834  14.352
65060W        W29268  14.696  17.787  11.880
65061W        W29269  31.045   0.302  12.485
65062W        W29270  26.175   3.368  11.578
65063W        W29271  13.310  15.611  11.417
65064W        W29272  18.666  18.623   0.295
65065W        W29273  19.738  24.683  14.001
65066W        W29274  26.687  27.180   1.378
65067W        W29275   5.889  22.573  12.542
65068W        W29276  25.514  10.647  12.826
65069W        W29277   2.431   0.960   1.835
65070W        W29278  33.512   4.860  14.493
65071W        W29279  37.919   5.232  11.588
65072W        W29280  28.466  11.370  14.299
65073W        W29281  15.128  27.996   3.844
65074W        W29282  39.890  33.109   4.299
65075W        W29283  31.625  17.221  14.431
65076W        W29284   1.913   0.351   2.789
65077W        W29285  44.850  44.500  12.363
65078W        W29286   0.833  34.003   4.690
65079W        W29287   7.727  33.436   2.194
65080W        W29288   8.862  42.503  14.481
65081W        W29289  19.234  24.557   4.804
65082W        W29290  10.721  32.902  11.047
65083W        W29291  36.969   9.264   0.899
65084W        W29292   4.882  17.726  10.931
65085W        W29293  16.800  29.557  10.422
65086W        W29294   4.240  23.169   4.321
65087W        W29295  31.065  38.921  10.021
65088W        W29296   4.830  38.043  13.439
65089W        W29297   3.439  18.725  12.479
65090W        W29298  19.206  29.437   2.216
65091W        W29299  21.667   5.851   5.160
65092W        W29300  19.715  22.720  12.861
65093W        W29301  29.968  33.965  14.784
65094W        W29302  10.160  15.705   3.377
65095W        W29303   6.417  32.460   0.430
65096W        W29304   3.272   3.452   4.705
65097W        W29305   5.212  14.804  10.921
65098W        W29306  16.226  15.681   4.120
65099W        W29307   2.867  35.021  12.382
65100W        W29308  31.914  29.942  12.091
65101W        W29309  11.799  13.800   4.249
65102W        W29310   7.232  23.175   0.965
65103W        W29311  33.602  17.586  14.993
65104W        W29312   5.766  13.719   2.406
65105W        W29313  39.416  16.619  13.904
65106W        W29314  38.826  18.745   1.365
65107W        W29315  30.037  12.163  14.287
65108W        W29316  38.459   5.353  11.603
65109W        W29317  35.405  28.087   4.816
65110W        W29318   4.391  41.456  10.637
65111W        W29319  10.737   3.860  14.871
65112W        W29320  25.642  34.448  12.894
65113W        W29321  11.772  19.108   1.360
65114W        W29322  24.065  16.095   0.740
65115W        W29323  40.469  24.583  11.479
65116W        W29324  38.398  34.021  14.973
65117W        W29325  17.607  31.948   4.664
65118W        W29326  33.544  17.784   0.900
65119W        W29327   7.303  14.686   5.276
65120W        W29328   1.904  28.181   1.727
65121W        W29329  16.103  26.573  11.591
65122W        W29330  28.603  40.332   2.880
65123W        W29331  27.118  30.577   4.603
65124W        W29332  29.608   0.967   4.683
65125W        W29333  22.114  30.466   2.868
65126W        W29334  27.494  32.495  10.459
65127W        W29335  16.607  28.474   3.205
65128W        W29336  37.537   2.388  13.850
65129W        W29337  13.247  42.280  14.462
65130W        W29338  28.658  17.670  10.963
65131W        W29339   9.648  19.083  11.046
65132W        W29340  30.611   9.239  13.942
65133W        W29341   0.915  30.511   1.215
65134W        W29342   8.667   1.264  13.844
65135W        W29343  28.134   2.947  12.060
65136W        W29344  43.889  25.641  11.592
65137W        W29345  21.705  20.235   1.764
65138W        W29346   0.312  32.391  12.997
65139W        W29347   7.676  29.987   4.706
65140W        W29348   6.809  17.586  14.374
65141W        W29349   4.703  16.679  10.477
65142W        W29350   1.973  33.124  14.374
65143W        W29351   9.700  42.986   0.299
65144W        W29352   7.386  24.987  14.858
65145W        W29353  13.651   3.778   1.354
65146W        W29354  20.197  35.437   0.802
65147W        W29355  19.105  21.695   2.792
65148W        W29356  35.978  39.983   0.887
65149W        W29357  16.747   3.835   4.720
65150W        W29358  12.318   5.286   3.728
65151W        W29359   5.201   3.400   1.416
65152W        W29360   0.976  32.523   3.375
65153W        W29361  38.552  23.083  10.467
65154W        W29362   3.411  15.818   3.336
65155W        W29363  32.929  29.941  13.339
65156W        W29364  19.674  28.627  14.318
65157W        W29365   9.744  37.532  14.491
65158W        W29366  40.026   3.246  10.639
65159W        W29367  34.576  42.494   2.741
65160W        W29368  11.680  21.243  14.434
65161W        W29369  33.598  14.257   4.809
65162W        W29370  28.961  17.628  13.831
65163W        W29371  22.159   2.884  14.888
65164W        W29372   1.906  27.136   4.598
65165W        W29373  19.563  35.367  11.467
65166W        W29374  27.615  29.457   2.267
65167W        W29375  12.741  14.190   3.309
65168W        W29376   8.333  13.703  10.606
65169W        W29377  16.186  44.406   3.693
65170W        W29378   7.739  31.998   0.791
65171W        W29379  13.264  27.121  13.945
65172W        W29380  35.965  36.972   3.642
65173W        W29381  21.684  14.634  11.092
65174W        W29382  24.017  35.108   2.782
65175W        W29383  36.487  15.110  11.469
65176W        W29384  16.073  17.210  11.933
65177W        W29385  30.430   3.359  14.921
65178W        W29386   1.952  20.604   3.314
65179W        W29387  33.483  33.884  14.347
65180W        W29388  40.484  22.124  12.522
65181W        W29389  10.709  43.944  12.826
65182W        W29390  21.665  27.496   2.273
65183W        W29391   8.170  16.598   4.695
65184W        W29392  37.386  37.551  14.936
65185W        W29393  26.989  40.413  13.498
65186W        W29394  19.063   1.888   0.326
65187W        W29395   2.868  16.703   3.342
65188W        W29396  24.054   8.356   1.875
65189W        W29397  39.398  37.471   5.131
65190W        W29398  16.288  12.760  14.382
65191W        W29399  29.620  30.616  10.930
65192W        W29400   6.185  34.887  11.464
65193W        W29401  17.608  32.892  11.906
65194W        W29402   2.246  44.849   1.422
65195W        W29403  25.647  29.585   0.269
65196W        W29404  39.998  21.652  10.051
65197W        W29405  27.463  27.546   2.852
65198W        W29406  41.334  17.285  13.812
65199W        W29407  11.205   4.700  14.969
65200W        W29408  34.554  11.227  14.973
65201W        W29409  39.836  10.735  13.001
65202W        W29410  26.661  28.139   1.738
65203W        W29411  28.655  32.076   0.288
65204W        W29412  42.962  32.535   0.333
65205W        W29413  17.188  19.065   3.237
65206W        W29414   0.927  33.903   2.202
65207W        W29415   9.722   1.258  12.392
65208W        W29416   2.906  19.111   4.664
65209W        W29417  16.116  18.705   3.842
65210W        W29418  15.145   2.738   0.292
65211W        W29419   9.280   8.838   5.244
65212W        W29420  27.646  16.108  14.855
65213W        W29421   1.375  20.204   0.918
65214W        W29422   8.259  27.122  12.564
65215W        W29423  34.442  44.348   0.749
65216W        W29424  36.392  26.545   1.341
65217W        W29425  21.023  16.304  13.406
65218W        W29426  30.128   0.870   0.332
65219W        W29427  38.999  19.769  12.971
65220W        W29428  15.659  26.629   2.862
65221W        W29429  10.638  23.224   4.760
65222W        W29430  24.579  40.905  13.471
65223W        W29431  15.774  19.158   9.924
65224W        W29432   5.930   3.311  11.420
65225W        W29433  42.342   4.404  13.355
65226W        W29434  19.744  23.586  14.777
65227W        W29435   1.754  17.231   0.836
65228W        W29436  21.587  13.327   4.166
65229W        W29437  12.675   2.741   3.315
65230W        W29438  25.634  44.921  12.439
65231W        W29439  40.892  10.694  12.942
65232W        W29440   1.891   6.850  12.046
65233W        W29441  23.140  19.052   2.673
65234W        W29442  15.641  44.354   3.194
65235W        W29443   5.314  16.183  12.457
65236W        W29444  38.345  18.219  14.957
65237W        W29445  12.320  25.167  14.030
65238W        W29446  25.087  33.610  10.974
65239W        W29447  32.992  26.006   1.837
65240W        W29448  27.138   8.218  11.985
65241W        W29449  34.564  29.641   0.346
65242W        W29450  19.120  27.463   4.834
65243W        W29451  17.771  31.555   3.197
65244W        W29452  15.623  39.540   4.272
65245W        W29453  19.541  34.521   4.751
65246W        W29454   0.962  12.252   4.338
65247W        W29455  44.813  27.484  14.011
65248W        W29456  10.843  19.633   2.743
65249W        W29457  12.747  23.494   0.903
65250W        W29458  44.810   8.235  13.515
65251W        W29459  19.243  35.048   2.276
65252W        W29460  42.348  22.251  12.013
65253W        W29461  42.316   1.774   2.403
65254W        W29462   9.220  41.880  10.940
65255W        W29463  28.453   9.334  13.806
65256W        W29464  39.547  24.132   4.668
65257W        W29465  15.767  34.901  12.429
65258W        W29466   8.720  42.927   3.319
65259W        W29467  16.098  11.320   3.254
65260W        W29468  29.029   2.398  13.829
65261W        W29469  24.562  21.638   3.825
65262W        W29470  35.373  43.436   1.784
65263W        W29471  27.655  32.919   4.642
65264W        W29472  44.326  28.483   3.765
65265W        W29473  23.107  34.069  11.375
65266W        W29474  29.585  11.665  10.931
65267W        W29475  16.137  33.969  13.969
65268W        W29476  36.439  42.794  10.097
65269W        W29477  27.653  31.412   1.225
65270W        W29478  41.003   9.372   1.406
65271W        W29479  27.665  40.988  14.495
65272W        W29480  28.017   0.388   4.337
65273W        W29481  14.138  27.043   4.165
65274W        W29482   1.450  28.492   0.883
65275W        W29483  23.718  37.075  11.463
65276W        W29484  10.796  28.045  13.944
65277W        W29485  40.481   4.905  11.548
65278W        W29486  31.118  24.540  14.799
65279W        W29487  43.779  34.904  13.017
65280W        W29488  13.756   2.246  12.943
65281W        W29489   2.385  30.996   0.937
65282W        W29490  20.548   8.696  12.422
65283W        W29491  43.932  28.945   4.135
65284W        W29492  25.104  23.986  14.389
65285W        W29493   1.449  27.991  13.976
65286W        W29494  25.033  12.117  14.894
65287W        W29495  10.843  21.258  11.023
65288W        W29496  23.659  26.088  11.504
65289W        W29497  44.912  18.671  12.565
65290W        W29498  33.501  44.451  13.043
65291W        W29499  23.503  17.704  14.308
65292W        W29500   4.708  12.675   4.168
65293W        W29501   1.791  38.565  10.895
65294W        W29502  32.556  21.207   1.448
65295W        W29503   8.194  32.449  10.555
65296W        W29504  21.090  36.999  14.992
65297W        W29505   8.330  43.924   4.638
65298W        W29506  27.956  37.920  14.834
65299W        W29507   2.233  14.208  10.938
65300W        W29508  34.901  43.437   4.797
65301W        W29509   8.871  37.449   4.676
65302W        W29510   1.896  34.445  11.409
65303W        W29511  40.437  16.115   4.721
65304W        W29512  17.202  11.652   0.805
65305W        W29513   0.955  37.403   0.930
65306W        W29514  37.042  21.255   1.820
65307W        W29515  43.412   2.424   3.373
65308W        W29516   1.813  27.065   2.358
65309W        W29517  26.051  28.531   3.243
65310W        W29518  26.992  22.625  10.574
65311W        W29519   5.879  35.463   4.285
65312W        W29520  15.208   7.873   0.901
65313W        W29521  35.087  28.505  11.927
65314W        W29522   5.220   7.361   0.242
65315W        W29523  37.369  16.649  10.478
65316W        W29524  29.139  31.055  11.030
65317W        W29525  41.985   9.364  13.397
65318W        W29526   6.243  18.284  14.936
65319W        W29527  30.917  15.821   2.755
65320W        W29528  30.158   4.245  12.039
65321W        W29529  29.550  37.910  13.507
65322W        W29530  15.089  38.896   2.331
65323W        W29531  14.238  26.117  10.966
65324W        W29532  28.481  44.439   4.198
65325W        W29533  41.007   1.828   1.370
65326W        W29534  15.136  36.381  14.483
65327W        W29535  18.273   9.169  11.561
65328W        W29536   8.776  23.994  11.068
65329W        W29537  29.605  25.552   4.718
65330W        W29538  31.100  16.589  13.453
65331W        W29539  39.915  17.219  13.337
65332W        W29540  11.266  25.006   4.198
65333W        W29541  20.189  39.412   4.337
65334W        W29542  15.717  44.485  10.908
65335W        W29543   2.471  18.758  11.896
65336W        W29544  20.047  18.778   2.880
65337W        W29545  11.193   0.755   0.368
65338W        W29546   0.751  27.034   3.292
65339W        W29547  12.751  34.372   0.757
65340W        W29548  40.979  39.461   3.185
65341W        W29549  38.480  43.802   4.738
65342W        W29550  36.451  38.012  14.988
65343W        W29551  38.969  17.270  13.492
65344W        W29552   2.964  29.473   2.396
65345W        W29553   7.364  28.485  11.937
65346W        W29554  38.035  19.093  14.880
65347W        W29555  24.007  43.420   3.659
65348W        W29556  32.099   1.849  13.503
65349W        W29557  10.250  34.888   3.301
65350W        W29558  21.675   2.322   4.258
65351W        W29559   7.261  35.906   2.204
65352W        W29560   4.734  36.387   5.100
65353W        W29561  32.410  13.640  14.841
65354W        W29562  10.200  23.207  10.638
65355W        W29563  39.020  19.240  13.798
65356W        W29564  14.240   7.172   1.815
65357W        W29565  36.512   2.413  10.422
65358W        W29566   1.417  24.509   0.301
65359W        W29567   9.374  19.623   1.329
65360W        W29568  26.082   3.237  14.506
65361W        W29569  42.985   1.792  13.308
65362W        W29570  31.648  26.204  14.453
65363W        W29571   6.298   7.307   4.119
65364W        W29572  16.576  34.074   3.770
65365W        W29573   6.865  24.223   4.713
65366W        W29574  10.158  36.943   0.926
65367W        W29575  25.624  11.324  14.007
65368W        W29576   7.253  10.263   3.811
65369W        W29577  33.400  34.402   2.868
65370W        W29578   3.373  17.108  11.411
65371W        W29579   0.768   5.917  14.882
65372W        W29580   3.398  37.085   3.699
65373W        W29581   7.228  26.613  13.921
65374W        W29582   6.899  21.545   2.218
65375W        W29583  16.209  18.151   1.728
65376W        W29584  39.054  31.615  13.397
65377W        W29585  37.348  29.000   2.899
65378W        W29586  43.900  28.107  14.290
65379W        W29587  27.636  23.581   2.410
65380W        W29588   9.756   6.271  14.488
65381W        W29589  20.255  19.660   1.343
65382W        W29590   1.911   7.233  11.003
65383W        W29591  18.726  40.400  11.900
65384W        W29592  39.350  42.826   4.272
65385W        W29593  24.131   4.879   4.610
65386W        W29594  30.950   9.320   0.445
65387W        W29595  31.927  11.171   4.148
65388W        W29596  12.813   5.715  11.396
65389W        W29597  40.868  42.021  14.319
65390W        W29598  30.609  25.046  14.963
65391W        W29599  11.831   2.720  14.991
65392W        W29600   6.918  33.519   0.854
65393W        W29601  33.037  21.099  12.413
65394W        W29602  14.196  41.367  14.904
65395W        W29603  18.698  29.560  10.956
65396W        W29604  22.515   3.889  13.846
65397W        W29605   8.387  33.874   1.755
65398W        W29606  33.064   7.282  12.348
65399W        W29607  26.139  17.098   2.706
65400W        W29608  25.479  21.543   3.654
65401W        W29609  15.590  21.105  12.355
65402W        W29610  16.746  12.644   0.255
65403W        W29611  27.492  38.455  12.014
65404W        W29612  18.084  40.831  13.421
65405W        W29613  30.623  20.719  12.045
65406W        W29614  21.025   5.845   0.817
65407W        W29615  25.966   8.711   1.765
65408W        W29616   8.813   7.201   2.772
65409W        W29617  39.373  24.062   4.179
65410W        W29618  37.376  25.634  13.045
65411W        W29619  11.309  18.595  12.870
65412W        W29620  18.192  13.799   1.896
65413W        W29621  10.755   5.788   3.849
65414W        W29622  20.234  42.347  13.333
65415W        W29623  44.001  40.419  10.429
65416W        W29624  11.692  43.275   0.933
65417W        W29625  32.932  31.495   1.298
65418W        W29626  31.019  44.802   3.701
65419W        W29627  10.648  40.343  10.497
65420W        W29628   3.840   2.458   5.280
65421W        W29629  16.180  18.207  14.853
65422W        W29630   4.409   1.431   3.630
65423W        W29631  28.441   4.772   3.730
65424W        W29632  32.506  19.239  12.390
65425W        W29633   1.816  41.370   3.737
65426W        W29634   2.848  32.028   1.313
65427W        W29635  13.823  19.252   4.159
65428W        W29636  16.278  32.905  13.310
65429W        W29637  14.655  13.826  12.918
65430W        W29638  44.279  19.069   1.802
65431W        W29639  11.137  38.396  10.925
65432W        W29640   4.901  19.590   4.285
65433W        W29641  24.197   1.288   2.676
65434W        W29642  43.279  33.944  11.058
65435W        W29643  39.332  25.077  10.921
65436W        W29644  44.818  42.434  12.580
65437W        W29645  18.774  36.888  12.379
65438W        W29646   3.781   3.755  11.948
65439W        W29647  15.638  19.591   4.261
65440W        W29648   4.832  14.767  10.102
65441W        W29649  17.656  18.743   0.905
65442W        W29650  33.576  33.453   1.791
65443W        W29651  10.739  34.517  14.976
65444W        W29652   2.876  43.293   4.314
65445W        W29653  21.660   7.279   1.814
65446W        W29654  41.007  13.639  12.399
65447W        W29655  37.495  44.473   1.219
65448W        W29656   7.720  13.692  13.444
65449W        W29657  17.629  28.437   0.432
65450W        W29658  36.976  27.473   0.859
65451W        W29659  32.513  42.498   2.742
65452W        W29660  25.033   7.364  13.867
65453W        W29661  24.197   9.373  10.943
65454W        W29662  33.399   0.395  10.137
65455W        W29663  20.739  33.471  14.853
65456W        W29664  42.404  42.853   3.147
65457W        W29665  36.556  21.127   4.245
65458W        W29666  36.479   6.294   2.748
65459W        W29667  32.408   4.772   3.240
65460W        W29668  43.299  24.982  12.488
65461W        W29669  15.303   6.198   4.721
65462W        W29670  35.034  15.197   4.227
65463W        W29671   3.899   3.278  12.903
65464W        W29672  29.045   4.766  14.513
65465W        W29673  33.390  41.347  12.969
65466W        W29674  41.378  22.247   1.377
65467W        W29675  16.191  28.172   0.840
65468W        W29676  32.034  25.973   4.199
65469W        W29677  20.545  16.627  12.990
65470W        W29678  16.681  13.269  12.564
65471W        W29679  40.354  19.749   1.899
65472W        W29680  18.669  21.649   2.788
65473W        W29681  35.426  21.576  11.502
65474W        W29682  18.129   2.285  14.353
65475W        W29683  30.018  33.067  14.760
65476W        W29684  21.613  32.630  13.843
65477W        W29685   1.902  15.321   1.800
65478W        W29686  43.777   6.283  14.336
65479W        W29687  32.891   5.396  10.421
65480W        W29688  39.022  42.321   0.911
65481W        W29689   2.892  17.222   0.938
65482W        W29690   9.786  24.199  12.081
65483W        W29691  17.764  12.689   2.352
65484W        W29692  22.704   8.323   1.911
65485W        W29693  30.132  18.134  10.547
65486W        W29694  33.470  44.283   4.775
65487W        W29695  15.290  23.007   3.644
65488W        W29696  13.304   5.416   4.122
65489W        W29697  31.609   4.448  10.544
65490W        W29698  18.752   3.279  13.991
65491W        W29699  23.652  37.574   2.323
65492W        W29700  11.289  24.073   0.356
65493W        W29701  23.038  31.068   0.390
65494W        W29702   7.368  39.407   3.250
65495W        W29703  22.030  31.502  13.482
65496W        W29704  13.229  15.125   2.260
65497W        W29705  33.516  36.551   3.685
65498W        W29706  28.542  38.511   1.796
65499W        W29707  22.231  26.464   3.227
65500W        W29708  15.801  13.648   2.735
65501W        W29709   6.892  37.997  11.971
65502W        W29710   9.244  24.225  12.015
65503W        W29711  22.612  39.318  12.420
65504W        W29712  38.416  30.542   1.801
65505W        W29713  17.626  17.700   2.203
65506W        W29714  44.981  13.231  11.381
65507W        W29715  19.674  38.940   4.799
65508W        W29716  32.423  23.615   2.742
65509W        W29717   4.867  27.044  13.795
65510W        W29718  24.007  31.938  13.515
65511W        W29719  24.595  36.584   3.210
65512W        W29720  43.370   5.784   0.895
65513W        W29721  14.203  22.028   1.869
65514W        W29722   0.769  43.440   2.678
65515W        W29723   9.153   0.749  12.377
65516W        W29724  44.816   2.355   0.407
65517W        W29725  20.758   2.964   0.401
65518W        W29726   3.444  20.146   0.259
65519W        W29727  30.098  15.174  12.405
65520W        W29728  15.157   0.344   1.449
65521W        W29729  38.988  21.213   1.450
65522W        W29730   3.239  40.313  11.380
65523W        W29731  16.589  18.123  14.947
65524W        W29732  16.152  43.966   3.858
65525W        W29733   9.332   9.756  12.856
65526W        W29734  43.876   1.252   4.644
65527W        W29735  37.573  33.098   2.770
65528W        W29736  32.140  28.049   1.289
65529W        W29737  16.670  42.949   1.834
65530W        W29738  13.197  37.382  11.941
65531W        W29739  12.212  36.033   3.811
65532W        W29740   5.375  44.484   0.830
65533W        W29741   2.859   2.939   0.787
65534W        W29742  35.527  12.127   0.937
65535W        W29743  16.580  41.000  10.455
65536W        W29744   2.436  36.357   3.749
65537W        W29745  11.733  38.860   1.389
65538W        W29746  16.683  20.724   2.668
65539W        W29747  27.594  11.740   3.196
65540W        W29748  20.744  18.592  13.526
65541W        W29749  25.707  42.488   4.836
65542W        W29750   8.169   6.698   3.320
65543W        W29751  24.487   0.860  14.309
65544W        W29752   7.770  43.800   1.744
65545W        W29753  30.122   2.259  12.854
65546W        W29754  36.938   5.366  13.888
65547W        W29755  43.951  26.035  13.406
65548W        W29756   8.733  31.923  14.441
65549W        W29757   7.417   7.887   3.763
65550W        W29758  29.487  40.515   1.400
65551W        W29759  20.674  42.974   1.400
65552W        W29760  27.448   7.708   2.314
65553W        W29761  34.103  29.975   4.115
65554W        W29762  36.991   8.897  11.398
65555W        W29763   3.923  30.414   1.857
65556W        W29764   4.820  32.585   3.233
65557W        W29765  29.642  21.088   5.238
65558W        W29766  26.661  25.050   2.288
65559W        W29767  35.597   9.267   4.142
65560W        W29768  21.158   3.887  12.406
65561W        W29769  21.255  34.084   1.855
65562W        W29770   9.311  18.253  10.143
65563W        W29771   6.200  13.781   2.727
65564W        W29772  33.008  32.008   3.669
65565W        W29773  38.880  40.359  13.903
65566W        W29774  14.707  38.463  14.466
65567W        W29775  37.041   4.847   1.450
65568W        W29776  41.493  14.753  13.824
65569W        W29777  16.774   5.229   1.407
65570W        W29778  16.273   3.225  13.361
65571W        W29779  41.899  17.749  13.865
65572W        W29780   1.774  10.784   3.723
65573W        W29781  20.636  44.306   3.356
65574W        W29782   3.413  29.092  13.955
65575W        W29783   3.431  39.397  13.045
65576W        W29784  23.653  42.793   1.339
65577W        W29785  10.260  26.613  13.410
65578W        W29786  42.912  29.501   3.310
65579W        W29787  22.534   1.845  13.425
65580W        W29788  33.564  39.364   2.752
65581W        W29789  39.897  17.731  14.315
65582W        W29790  21.037  38.049  10.542
65583W        W29791  35.963  11.779   3.183
65584W        W29792  28.930  10.761   1.278
65585W        W29793   0.892  35.479   4.239
65586W        W29794  22.117  10.790   2.201
65587W        W29795  26.593   1.428  12.842
65588W        W29796   8.300  27.973   3.803
65589W        W29797  23.732  18.624  10.943
65590W        W29798  15.645  42.807  14.991
65591W        W29799   6.823  13.141  13.961
65592W        W29800  23.074  12.131   4.816
65593W        W29801  25.062  44.370  12.888
65594W        W29802  27.563  34.895   2.417
65595W        W29803   1.966   1.315   0.768
65596W        W29804  18.658  31.404  10.441
65597W        W29805  27.961  40.820  12.369
65598W        W29806  43.986  17.713   2.354
65599W        W29807  33.395   8.661   0.943
65600W        W29808   5.873  13.695  13.907
65601W        W29809  26.114  37.078   3.146
65602W        W29810   2.888  31.971  13.442
65603W        W29811  37.360  34.067  13.337
65604W        W29812  19.775  35.472  12.409
65605W        W29813  37.929  12.184   3.809
65606W        W29814  11.204  27.964   2.718
65607W        W29815  43.508   4.782  14.385
65608W        W29816  35.040  15.754   1.213
65609W        W29817  12.799  34.614   4.729
65610W        W29818  23.125  10.150   1.884
65611W        W29819  43.398  35.388  12.840
65612W        W29820  36.448   0.867   9.950
65613W        W29821  21.229  16.138   0.891
65614W        W29822  24.156  33.993   0.896
65615W        W29823  18.602  31.562  11.893
65616W        W29824   6.286  15.118   0.323
65617W        W29825  37.086  34.881  13.844
65618W        W29826  20.674   8.305   0.379
65619W        W29827   0.494  39.915   0.357
65620W        W29828  24.087  24.502   1.877
65621W        W29829  11.155  40.365   2.893
65622W        W29830  25.492  18.094   4.731
65623W        W29831  37.981  25.685   2.713
65624W        W29832  10.252  39.448  11.926
65625W        W29833  10.279  39.505  14.926
65626W        W29834  44.975  29.015   5.146
65627W        W29835   5.403  20.163  14.375
65628W        W29836  25.033  29.608   1.213
65629W        W29837  22.056  10.213   2.706
65630W        W29838  17.755   3.323   2.299
65631W        W29839  24.164  30.491   1.241
65632W        W29840  30.002   4.852  12.904
65633W        W29841  30.922   8.358   4.703
65634W        W29842   6.312  39.386  13.903
65635W        W29843  16.143  12.674   4.118
65636W        W29844  36.991  16.313   2.212
65637W        W29845   8.252  42.519  14.350
65638W        W29846  32.136   3.768   1.787
65639W        W29847  32.896  38.008  11.913
65640W        W29848  31.439  28.510   0.835
65641W        W29849  32.927  35.458   2.298
65642W        W29850  40.827  34.101  12.554
65643W        W29851  36.378  22.583   2.741
65644W        W29852  42.999  17.593  12.507
65645W        W29853  41.298   7.850   2.187
65646W        W29854  14.223  19.264   2.834
65647W        W29855  42.871  37.963   3.689
65648W        W29856   1.904  36.978   4.751
65649W        W29857  10.659  26.612  11.055
65650W        W29858   4.430  16.615  11.586
65651W        W29859  44.806  29.935   3.767
65652W        W29860  38.046  18.069  14.304
65653W        W29861   5.384  20.145  12.377
65654W        W29862  43.335  19.134   1.726
65655W        W29863   1.949  32.075  10.035
65656W        W29864  33.602  29.980  11.572
65657W        W29865  41.866  34.393   1.898
65658W        W29866  15.250  27.982  10.926
65659W        W29867   6.408   5.330  11.909
65660W        W29868  16.791   7.744  11.403
65661W        W29869   8.828  25.566  12.077
65662W        W29870   0.325  20.689  13.926
65663W        W29871  28.132  43.820   3.272
65664W        W29872  14.611   4.800   2.890
65665W        W29873  39.941  32.084  11.464
65666W        W29874  32.612  10.682  11.943
65667W        W29875  30.024   2.762  12.948
65668W        W29876   5.243   0.808  14.836
65669W        W29877  10.352   5.334  12.988
65670W        W29878   4.813  27.538  10.909
65671W        W29879  21.168   8.263  10.964
65672W        W29880  34.535  25.543  13.509
65673W        W29881  35.982   1.799  14.936
65674W        W29882  33.576  33.967   1.806
65675W        W29883   1.747   1.905  14.328
65676W        W29884  17.707  33.997  12.443
65677W        W29885  29.067  44.447  14.897
65678W        W29886  12.332  16.241  11.894
65679W        W29887  14.144  17.768   2.327
65680W        W29888  22.538  18.587  10.622
65681W        W29889   5.730  25.652  13.428
65682W        W29890  12.668  43.775  13.385
65683W        W29891  29.943   0.334   3.632
65684W        W29892  31.499  16.584  11.508
65685W        W29893  36.448  21.539   2.716
65686W        W29894   7.680   5.236   3.214
65687W        W29895  44.419  43.995   0.364
65688W        W29896  20.618  36.866   0.340
65689W        W29897   0.974  40.390  11.918
65690W        W29898  30.994  36.876   2.298
65691W        W29899  17.802  23.202  13.888
65692W        W29900   6.839  23.657   3.804
65693W        W29901  30.101  27.174  11.972
65694W        W29902  27.148   7.400  12.876
65695W        W29903  18.218   6.742   3.731
65696W        W29904  31.092  32.545  11.380
65697W        W29905  28.019  11.189  11.013
65698W        W29906  27.120  43.454  12.545
65699W        W29907   4.219   9.292  11.867
65700W        W29908  17.072  26.016   2.318
65701W        W29909   5.303  36.919   3.822
65702W        W29910  25.616  25.551  14.514
65703W        W29911  11.814  37.051   3.347
65704W        W29912  32.090  19.699  10.633
65705W        W29913  43.887  40.363  12.003
65706W        W29914   5.218  19.574  13.438
65707W        W29915  38.964  17.686   3.151
65708W        W29916   0.829   2.430   2.734
65709W        W29917  26.121   0.847   1.250
65710W        W29918  13.204  21.535  14.444
65711W        W29919   0.272  40.380   2.784
65712W        W29920  22.730  22.745  10.605
65713W        W29921  29.010  20.761   1.828
65714W        W29922  20.250  18.587  11.125
65715W        W29923   4.277  14.331   1.300
65716W        W29924  13.758  26.136  11.371
65717W        W29925  13.143  34.989   2.408
65718W        W29926   6.292   9.748  14.933
65719W        W29927  34.090  33.519   3.168
65720W        W29928  43.311  25.125   2.662
65721W        W29929  29.132  43.359   1.824
65722W        W29930  37.059   3.864  10.549
65723W        W29931  16.082  19.177  14.032
65724W        W29932   5.424  25.016  12.543
65725W        W29933  32.608  16.155  10.478
65726W        W29934  40.424  17.287   3.831
65727W        W29935  33.625  20.215   2.810
65728W        W29936  41.024   4.880   0.376
65729W        W29937  26.611  19.680  11.014
65730W        W29938   4.847  27.957   1.322
65731W        W29939  35.575  26.116   1.432
65732W        W29940  23.192  28.008  12.400
65733W        W29941  24.649  12.135  14.293
65734W        W29942  16.127  35.984   3.757
65735W        W29943  39.048  27.991  11.578
65736W        W29944  39.409  43.351  11.943
65737W        W29945   3.229   8.884   1.832
65738W        W29946   5.360  43.433  14.918
65739W        W29947   5.773   9.881  11.555
65740W        W29948  18.280  39.339   2.232
65741W        W29949  30.659  15.112   2.412
65742W        W29950   7.722  22.017   3.190
65743W        W29951  39.542   1.770   2.673
65744W        W29952   6.823  15.323  10.566
65745W        W29953  43.438  10.706  11.011
65746W        W29954   2.337  20.628  12.427
65747W        W29955  33.605  30.425  11.881
65748W        W29956  21.551   6.792  11.020
65749W        W29957  38.044  25.508   3.348
65750W        W29958   4.891  16.806   0.800
65751W        W29959  14.322   6.740  14.985
65752W        W29960  23.572  26.612  14.775
65753W        W29961  28.561  17.763   2.740
65754W        W29962  41.002  40.054  11.397
65755W        W29963  26.539  42.847   1.368
65756W        W29964  26.677  38.462  14.768
65757W        W29965   0.796  26.461  12.896
65758W        W29966  25.660  32.452   0.446
65759W        W29967  12.760  27.160  13.365
65760W        W29968  38.009   2.298   0.864
65761W        W29969  25.710  17.793   4.313
65762W        W29970  12.153   3.760  10.500
65763W        W29971   0.782  11.325  14.453
65764W        W29972  40.377   8.268  10.451
65765W        W29973  26.103  32.025  13.851
65766W        W29974  23.736  39.016   0.446
65767W        W29975  26.688  44.974  13.901
65768W        W29976  38.906  31.149   1.854
65769W        W29977  36.502  40.385   3.685
65770W        W29978  26.151   3.297   0.415
65771W        W29979   2.961   1.822  11.389
65772W        W29980   2.889  29.126   4.270
65773W        W29981  42.898  17.712  13.912
65774W        W29982   8.876  24.630   4.738
65775W        W29983   0.839   8.655  14.905
65776W        W29984  35.516  18.139   1.340
65777W        W29985   5.357  19.589  12.486
65778W        W29986  38.848  15.798  10.130
65779W        W29987  37.920  29.476  11.929
65780W        W29988  30.494   7.671   2.252
65781W        W29989  25.219  28.980  11.980
65782W        W29990  35.476  30.417   1.934
65783W        W29991  24.067  40.405   0.442
65784W        W29992  43.802  22.675   0.779
65785W        W29993  23.235  34.095   3.260
65786W        W29994  38.469  10.319  11.049
65787W        W29995  11.318  21.626   3.783
65788W        W29996  13.615  42.897  12.875
65789W        W29997   7.847  43.994  14.476
65790W        W29998  39.914  27.606   4.812
65791W        W29999  31.422   2.467   2.271
65792W        W30000  39.417  19.586  14.313
65793W        W30001  31.974  23.037   1.905
65794W        W30002  36.488  44.437   4.199
65795W        W30003  36.430  11.778  13.972
65796W        W30004  15.675  42.964  12.486
65797W        W30005   8.316  36.853   2.793
65798W        W30006  26.504  16.245  12.401
65799W        W30007  16.719  35.570   3.773
65800W        W30008  42.812  27.606   4.785
65801W        W30009  20.721  27.986   3.286
65802W        W30010  41.465  13.152  14.791
65803W        W30011  34.541  37.050  13.995
65804W        W30012  33.579  20.110   3.758
65805W        W30013  26.198  16.225  11.547
65806W        W30014   9.338  26.166   1.384
65807W        W30015   0.489   3.809   5.668
65808W        W30016  22.523  17.790  14.828
65809W        W30017  27.526  31.061   1.307
65810W        W30018  23.028  44.456   3.700
65811W        W30019   6.709   0.851   1.243
65812W        W30020   6.238   7.379   1.385
65813W        W30021  37.906   3.296   3.853
65814W        W30022  23.017  44.960  14.003
65815W        W30023   5.210  34.553   1.895
65816W        W30024  14.714  26.661  14.783
65817W        W30025  12.831  26.587   4.702
65818W        W30026  16.791   9.362   1.422
65819W        W30027  20.550  34.457  13.506
65820W        W30028   6.363   6.844  14.388
65821W        W30029   2.471  31.494   2.834
65822W        W30030  11.794  28.011  14.761
65823W        W30031  29.601  18.153  12.855
65824W        W30032  40.944  34.587   0.244
65825W        W30033  28.512  30.598   2.736
65826W        W30034  39.409  30.935  11.520
65827W        W30035  44.889  35.381  12.531
65828W        W30036  22.235  31.598  10.574
65829W        W30037  31.921  36.403   5.147
65830W        W30038  36.920   5.263  13.364
65831W        W30039  21.081  24.986   4.198
65832W        W30040   8.219  24.605  13.901
65833W        W30041   1.745   0.856   2.710
65834W        W30042  37.533  11.780   0.801
65835W        W30043  11.289  28.062  11.067
65836W        W30044  33.994  18.201  12.960
65837W        W30045  10.339  41.525   4.208
65838W        W30046  33.431  30.128   4.290
65839W        W30047  37.463  11.647   1.329
65840W        W30048  10.841   4.213   3.685
65841W        W30049  43.374  33.925   2.394
65842W        W30050  17.111  35.872   4.287
65843W        W30051  20.751  38.393  10.097
65844W        W30052  28.958  12.669  12.571
65845W        W30053  44.347  17.126   1.301
65846W        W30054  15.311  27.116   2.418
65847W        W30055  24.168  40.012  14.969
65848W        W30056  19.285  26.142   2.324
65849W        W30057  15.595  29.980  13.515
65850W        W30058   3.852  22.533  13.866
65851W        W30059  43.426  13.291   3.272
65852W        W30060  18.126   6.864  11.006
65853W        W30061  18.263   2.742   3.850
65854W        W30062  15.258  34.042   0.892
65855W        W30063  31.035  30.546   3.298
65856W        W30064  42.392  14.770  10.937
65857W        W30065  35.947  20.603  11.020
65858W        W30066  41.342  39.558   1.324
65859W        W30067  41.855  16.777   2.185
65860W        W30068  37.834  23.067  12.420
65861W        W30069   8.403  11.684   0.927
65862W        W30070   5.788   0.298  13.372
65863W        W30071  19.593  38.566  13.530
65864W        W30072  34.935  38.490  12.537
65865W        W30073  33.386   9.255  13.506
65866W        W30074  22.611  42.919  11.468
65867W        W30075  18.705  26.466  11.021
65868W        W30076  34.433  21.190   1.790
65869W        W30077  11.210  11.339   1.749
65870W        W30078  38.361  28.469   2.395
65871W        W30079  30.911  16.302   5.739
65872W        W30080  37.445  28.436  10.617
65873W        W30081  39.008  36.538   2.715
65874W        W30082  12.690  41.430   4.677
65875W        W30083  27.487  20.666   4.258
65876W        W30084  33.911  42.427   4.166
65877W        W30085  10.349   3.326  12.867
65878W        W30086  12.806   0.940   1.856
65879W        W30087  33.000  17.106  13.024
65880W        W30088  10.677  31.083   1.766
65881W        W30089  42.440  11.309  13.026
65882W        W30090   8.397  43.419   3.308
65883W        W30091   4.433   0.289   1.800
65884W        W30092  26.005  30.630   3.195
65885W        W30093  30.478  31.548  11.501
65886W        W30094  31.509  15.676  14.793
65887W        W30095   2.326  21.519   2.887
65888W        W30096   0.951  34.109  14.323
65889W        W30097  38.009  18.197   0.482
65890W        W30098  23.698  18.284  13.419
65891W        W30099  13.233  18.254   1.737
65892W        W30100  35.402  35.486  11.454
65893W        W30101   1.307  17.276  14.325
65894W        W30102  25.641  10.767  11.602
65895W        W30103  11.809  10.871   2.724
65896W        W30104  28.058  33.510   2.724
65897W        W30105  26.962  19.711  11.087
65898W        W30106  36.392  10.817  12.466
65899W        W30107  43.381  35.859   0.814
65900W        W30108  12.688  13.683  14.955
65901W        W30109   7.859  27.084   1.235
65902W        W30110  21.139  41.378   9.938
65903W        W30111   3.370  37.400  11.567
65904W        W30112  38.422  12.179  11.428
65905W        W30113  34.492  24.983  14.425
65906W        W30114   0.481   3.243   5.242
65907W        W30115  30.590  15.673   2.416
65908W        W30116  14.248  32.943   3.200
65909W        W30117  39.483  31.529   3.656
65910W        W30118  22.508  43.402  14.893
65911W        W30119   9.659   2.851   1.267
65912W        W30120  14.625  39.560  14.901
65913W        W30121  13.159  28.998  10.032
65914W        W30122   3.895  30.420   0.839
65915W        W30123   0.780  33.021   9.991
65916W        W30124  13.147  11.362  14.763
65917W        W30125  41.297  40.917  13.997
65918W        W30126   2.352  11.657   4.711
65919W        W30127  41.871  10.157  12.461
65920W        W30128  40.423  28.950  12.964
65921W        W30129  26.501  36.057  12.531
65922W        W30130  38.422   5.799   2.228
65923W        W30131  16.745   4.232  11.472
65924W        W30132   1.347  41.400   4.665
65925W        W30133  15.271  42.954   2.393
65926W        W30134   5.374  36.980  12.573
65927W        W30135  32.535  42.881   1.407
65928W        W30136  28.570  43.913  11.497
65929W        W30137  34.087  17.787   4.335
65930W        W30138   5.756  42.919   0.389
65931W        W30139  44.382  35.077   3.171
65932W        W30140  16.803  34.489   2.280
65933W        W30141  23.625  33.518  10.612
65934W        W30142  30.116  41.482   4.220
65935W        W30143  30.438  36.474  13.921
65936W        W30144  24.006  27.192   4.699
65937W        W30145  43.457  20.543  12.546
65938W        W30146   3.461  29.124   3.153
65939W        W30147   0.765  12.801  11.577
65940W        W30148  21.660   8.267   1.440
65941W        W30149  43.799  22.127   0.464
65942W        W30150  39.052   8.242   1.786
65943W        W30151  35.934  39.827  13.919
65944W        W30152   4.789  29.039  13.033
65945W        W30153  38.024  22.997   3.351
65946W        W30154  20.171  15.219   1.340
65947W        W30155   8.784   8.731   1.917
65948W        W30156   2.940  39.392  14.767
65949W        W30157  27.533  10.249   4.115
65950W        W30158  31.938  43.773   3.864
65951W        W30159  29.988   6.791   3.685
65952W        W30160   6.814  19.701   4.172
65953W        W30161  34.896  41.935   3.867
65954W        W30162   5.761  38.422   1.783
65955W        W30163  16.193  14.151   0.771
65956W        W30164   7.788  28.963  11.543
65957W        W30165  34.931  35.988   2.732
65958W        W30166  13.643  25.691  11.935
65959W        W30167  32.602  20.099  13.383
65960W        W30168  32.555  22.695  13.348
65961W        W30169  37.060  35.091  10.435
65962W        W30170   3.258  33.128  10.909
65963W        W30171   5.381  41.841  13.050
65964W        W30172   1.859  32.930   1.885
65965W        W30173  33.592  11.206  11.956
65966W        W30174   7.414   1.798  12.929
65967W        W30175   9.653  44.408  12.378
65968W        W30176  31.142   0.343  11.388
65969W        W30177  36.580  12.705   3.146
65970W        W30178   3.330  12.195   2.410
65971W        W30179  21.125  33.942   0.299
65972W        W30180  39.814   2.755   4.810
65973W        W30181  36.024  30.632  11.608
65974W        W30182  31.946   7.285  14.940
65975W        W30183  27.474  14.639  13.492
65976W        W30184  17.252  44.353   3.224
65977W        W30185  36.912  25.094   0.434
65978W        W30186   7.846   1.930   5.223
65979W        W30187  18.109   6.710   1.436
65980W        W30188  13.666  24.018   3.369
65981W        W30189  10.329   2.778   3.167
65982W        W30190  15.143  37.372   2.317
65983W        W30191  14.224  30.425  14.925
65984W        W30192  43.842  42.002  11.883
65985W        W30193  43.409  32.064   1.820
65986W        W30194  18.206  18.142  14.333
65987W        W30195  25.613  28.146   4.228
65988W        W30196  30.111  24.147   1.699
65989W        W30197  23.570  15.673   1.721
65990W        W30198  26.002   3.727   1.700
65991W        W30199   7.843   8.712   0.847
65992W        W30200  42.985  35.853   2.359
65993W        W30201  37.038  41.953   0.762
65994W        W30202  23.101  23.652  14.428
65995W        W30203  18.648   7.732  11.432
65996W        W30204  32.560  26.022  11.068
65997W        W30205  20.158  12.680   0.860
65998W        W30206  29.033   7.883  14.315
65999W        W30207  43.270  19.090  11.888
66000W        W30208  41.893  37.038  12.922
66001W        W30209  19.734  29.106  13.365
66002W        W30210  20.266  21.061   5.288
66003W        W30211  17.774  27.540   0.903
66004W        W30212   2.330  40.477  10.510
66005W        W30213   5.850   3.454   1.220
66006W        W30214   4.851   7.848   1.786
66007W        W30215  38.531  37.031   4.160
66008W        W30216  10.688  11.705   4.138
66009W        W30217  32.900  44.006  12.913
66010W        W30218  40.992   1.411   0.450
66011W        W30219  42.782   7.690  10.613
66012W        W30220  33.615   4.826  12.988
66013W        W30221   5.738  23.629  13.878
66014W        W30222   0.335   4.763  10.018
66015W        W30223  10.871   8.374   3.799
66016W        W30224   6.312  39.001  11.055
66017W        W30225  26.646  31.483  13.919
66018W        W30226  42.462   5.406  10.915
66019W        W30227   7.257  21.699   4.120
66020W        W30228   9.655  31.127   1.709
66021W        W30229  42.938  38.982  11.106
66022W        W30230  26.687  17.797   4.330
66023W        W30231  35.519  15.231   3.730
66024W        W30232   9.315  31.025  10.899
66025W        W30233  22.021  34.565  14.497
66026W        W30234  20.755  10.222  14.339
66027W        W30235  42.454  39.476  13.492
66028W        W30236   5.385  24.524   1.713
66029W        W30237  38.877  25.503   2.328
66030W        W30238  19.580  18.208   3.146
66031W        W30239  16.215   6.396  12.468
66032W        W30240  14.683   7.812  13.408
66033W        W30241  17.180  28.586   2.349
66034W        W30242  19.261   3.836  13.527
66035W        W30243  40.389  10.785  11.975
66036W        W30244  42.922  10.214  14.418
66037W        W30245   1.884  16.570   0.779
66038W        W30246  35.557  43.798   4.670
66039W        W30247   7.182  23.564  13.794
66040W        W30248   1.399  44.325   3.642
66041W        W30249  13.237  38.990   2.812
66042W        W30250  18.281  39.509  14.030
66043W        W30251  26.531  15.202   2.242
66044W        W30252  41.446  11.825  11.018
66045W        W30253  29.029  21.248  12.913
66046W        W30254  34.074  12.238   1.889
66047W        W30255  38.991  16.570  11.564
66048W        W30256  26.134  44.347  10.430
66049W        W30257  44.884  10.173   3.720
66050W        W30258  41.936  35.526  14.895
66051W        W30259  14.824  22.723   0.395
66052W        W30260  23.218  18.086  13.061
66053W        W30261  28.506  39.808  14.969
66054W        W30262   8.359  21.524  14.281
66055W        W30263  31.480  29.462   2.852
66056W        W30264  40.420  35.524  13.809
66057W        W30265  26.654   5.828   3.653
66058W        W30266  38.331  14.099  14.488
66059W        W30267  17.578  22.567   4.792
66060W        W30268  41.454   0.919  12.540
66061W        W30269   1.417  15.154   2.881
66062W        W30270  31.907  23.727   4.295
66063W        W30271  43.897  33.999  13.878
66064W        W30272  17.210  42.320   3.192
66065W        W30273  24.142  13.111  14.511
66066W        W30274   3.291  28.448  12.478
66067W        W30275  35.011  24.592   3.194
66068W        W30276   9.713  19.200   0.302
66069W        W30277  15.731  30.115   2.267
66070W        W30278  14.155   6.300  11.041
66071W        W30279  38.027  22.126  10.428
66072W        W30280   2.252  25.158  12.902
66073W        W30281   6.396  12.329   4.629
66074W        W30282   2.944  25.478  10.617
66075W        W30283  24.562  22.038   1.777
66076W        W30284  29.031  28.977  13.822
66077W        W30285  41.924  31.635  14.776
66078W        W30286  27.583  28.984  13.918
66079W        W30287  24.706  19.220  13.451
66080W        W30288  34.609  39.923   1.860
66081W        W30289  32.139   5.258  11.570
66082W        W30290  11.147  42.498   2.772
66083W        W30291   6.414  32.116  13.440
66084W        W30292  23.596  44.281  12.985
66085W        W30293  12.267   8.179   0.733
66086W        W30294   9.861  11.783   1.783
66087W        W30295  27.668  32.937   3.685
66088W        W30296  20.601   6.325   0.838
66089W        W30297  28.057  44.936   0.767
66090W        W30298  19.679  44.376  13.965
66091W        W30299  10.748  22.544   0.295
66092W        W30300  34.409  40.480  13.928
66093W        W30301  15.792  26.002  10.976
66094W        W30302  25.140   1.807  13.512
66095W        W30303  32.452  37.843  14.988
66096W        W30304  32.142   9.178   0.250
66097W        W30305  10.656   3.219   0.260
66098W        W30306  28.105  33.975   0.370
66099W        W30307   6.340  19.120  11.894
66100W        W30308  27.668  23.717  14.010
66101W        W30309   5.793  38.395  13.944
66102W        W30310  19.093  37.348  10.443
66103W        W30311  24.681   8.657   3.363
66104W        W30312  20.613   4.724  10.551
66105W        W30313  39.059   6.312   2.806
66106W        W30314  31.427  43.792  12.568
66107W        W30315  25.705  29.175  12.430
66108W        W30316   3.909  24.145   2.339
66109W        W30317  32.520  33.494  11.866
66110W        W30318   0.398  15.677   0.333
66111W        W30319  31.029   8.770   1.908
66112W        W30320  13.155  25.152  13.906
66113W        W30321   3.746  23.570  15.000
66114W        W30322  20.621  18.156   1.856
66115W        W30323   4.319   7.372   2.226
66116W        W30324   3.751   9.789  13.894
66117W        W30325   0.341  20.171  14.915
66118W        W30326  19.733  33.927   4.603
66119W        W30327  32.521  41.538   2.381
66120W        W30328  20.211  17.130  11.611
66121W        W30329  12.669  19.756   2.251
66122W        W30330  19.690  38.027   3.842
66123W        W30331  31.056  22.144   4.755
66124W        W30332  36.518  33.015  13.329
66125W        W30333  17.174   7.398  11.995
66126W        W30334   9.300  11.822   5.294
66127W        W30335  32.561   1.418   2.693
66128W        W30336  12.629   9.185  12.542
66129W        W30337  25.108  19.540   2.377
66130W        W30338  40.460  32.050  13.510
66131W        W30339  21.245  24.496  11.608
66132W        W30340  19.176  11.682   1.268
66133W        W30341   2.310  27.950  13.307
66134W        W30342  29.623   8.765   2.796
66135W        W30343  28.496  40.002  14.011
66136W        W30344  17.684  43.880  13.356
66137W        W30345   2.339  39.504  12.020
66138W        W30346  31.104  13.714   1.867
66139W        W30347  30.522  30.643   0.904
66140W        W30348  36.427  23.500  14.856
66141W        W30349   4.753  11.814   1.293
66142W        W30350  21.605  44.850  12.832
66143W        W30351  18.284  28.108  10.984
66144W        W30352  20.742  19.138  13.444
66145W        W30353  34.475  24.720   3.172
66146W        W30354  19.129  34.956   3.262
66147W        W30355  38.548   9.370   2.246
66148W        W30356  24.137  37.890  10.598
66149W        W30357   5.845  29.995  12.853
66150W        W30358  12.697  23.228   2.776
66151W        W30359   6.210  31.634  13.404
66152W        W30360  32.901  41.914  14.854
66153W        W30361  15.666  42.922  13.330
66154W        W30362  22.095  32.430   3.702
66155W        W30363  26.204  31.402  10.626
66156W        W30364  33.502  22.531  10.963
66157W        W30365  24.987   6.748   4.832
66158W        W30366  33.597   9.662   1.695
66159W        W30367  20.565  25.507   1.369
66160W        W30368   0.823   9.685  12.847
66161W        W30369  26.193  18.111   2.713
66162W        W30370  12.183  35.594  14.425
66163W        W30371  39.991  30.633  10.900
66164W        W30372  28.567  10.787   3.685
66165W        W30373   7.777  23.589  12.422
66166W        W30374  12.667  28.472   4.291
66167W        W30375  10.692  16.125  12.504
66168W        W30376   4.764  34.426  14.890
66169W        W30377  23.601  20.761  11.084
66170W        W30378  42.387  18.050  14.474
66171W        W30379  23.129  16.571   1.703
66172W        W30380  35.061  44.419  10.507
66173W        W30381  39.404  36.916  10.447
66174W        W30382  25.577  36.977   3.753
66175W        W30383  25.526  24.601   4.175
66176W        W30384  19.613  44.395   2.326
66177W        W30385  27.526  27.593   3.158
66178W        W30386  38.528  12.734   0.385
66179W        W30387   3.909  25.593  14.002
66180W        W30388  41.878   5.855   4.765
66181W        W30389   6.205  26.997  11.460
66182W        W30390  12.770   2.781   1.447
66183W        W30391  29.015  22.553   0.949
66184W        W30392  23.206  10.341  10.498
66185W        W30393  39.921  15.221   9.944
66186W        W30394  14.663  26.696   1.798
66187W        W30395  14.617   1.418   0.297
66188W        W30396  30.561  29.010   2.767
66189W        W30397  16.241  32.024  12.087
66190W        W30398  32.454  35.449   2.209
66191W        W30399  37.899  12.125   3.249
66192W        W30400  17.293  32.033   9.971
66193W        W30401  22.096  37.341  11.600
66194W        W30402  38.039  40.366  13.418
66195W        W30403   4.426  28.036  14.903
66196W        W30404  12.240  43.899  13.805
66197W        W30405  22.622  11.860  10.528
66198W        W30406   9.831  38.909  11.532
66199W        W30407  32.450  24.625   1.326
66200W        W30408  36.981  11.147  12.076
66201W        W30409  21.633  32.030   2.887
66202W        W30410  22.018   0.917  11.551
66203W        W30411  23.224  19.235  10.424
66204W        W30412  30.130  16.114  13.504
66205W        W30413   1.357   3.405   0.364
66206W        W30414   8.352  15.178  14.967
66207W        W30415  24.590  24.215   4.751
66208W        W30416   6.279  34.377   2.895
66209W        W30417  24.210  40.460  14.295
66210W        W30418  44.939  12.250   1.216
66211W        W30419   0.961  13.619   4.335
66212W        W30420  36.057  11.719   4.799
66213W        W30421   3.301  41.423  14.868
66214W        W30422  12.738  19.225  13.436
66215W        W30423   2.352  10.662  10.519
66216W        W30424  22.148  23.548  11.971
66217W        W30425  15.714  31.432  12.877
66218W        W30426  38.892  37.504  12.859
66219W        W30427  28.568  15.696  12.843
66220W        W30428  25.186  20.149   3.195
66221W        W30429  44.859  44.870   4.241
66222W        W30430  22.595   3.728  10.511
66223W        W30431  26.575  21.627  11.067
66224W        W30432   3.738  13.215   2.257
66225W        W30433  18.124  27.663   4.347
66226W        W30434  42.986   8.766   4.770
66227W        W30435   7.267  21.089  14.366
66228W        W30436  16.637   6.844   4.115
66229W        W30437  21.238  22.220   2.760
66230W        W30438  10.753  22.644  11.392
66231W        W30439  39.891   8.340   2.704
66232W        W30440  17.243  22.053   4.758
66233W        W30441  42.333  11.667   3.375
66234W        W30442  36.430  27.012   1.896
66235W        W30443  39.356  33.072  12.538
66236W        W30444  32.568  23.040  12.836
66237W        W30445  26.553  10.773  10.545
66238W        W30446  43.335  15.276   1.307
66239W        W30447  34.037  29.633  11.424
66240W        W30448  34.105   2.279  12.451
66241W        W30449  36.097   2.409  12.881
66242W        W30450  34.528  31.051   1.875
66243W        W30451   2.251  30.964   0.387
66244W        W30452  19.609  30.125   3.855
66245W        W30453  41.369  33.892   1.408
66246W        W30454   5.775  26.579   2.775
66247W        W30455  40.986  38.521   2.695
66248W        W30456  39.432  26.547  12.051
66249W        W30457  21.195   4.320  14.447
66250W        W30458  40.865  25.201   2.674
66251W        W30459  43.776  35.102   3.856
66252W        W30460  21.729   6.739   1.736
66253W        W30461  10.775   5.718   2.768
66254W        W30462   4.305  11.635  12.095
66255W        W30463  11.699   5.816  11.577
66256W        W30464  38.343  12.338  10.972
66257W        W30465  44.867  35.588  12.967
66258W        W30466  43.302  36.421  13.055
66259W        W30467  39.892   4.312  11.999
66260W        W30468  40.903  44.451   2.902
66261W        W30469  29.019  29.446   3.759
66262W        W30470  36.503  29.521  12.828
66263W        W30471  10.138  42.994  10.631
66264W        W30472  40.512  41.880   1.713
66265W        W30473   2.358  20.089   0.945
66266W        W30474  21.102  19.670  10.046
66267W        W30475  42.401  34.879  11.593
66268W        W30476  27.941  14.834   1.920
66269W        W30477   1.881  10.754  13.961
66270W        W30478  38.357   9.784  11.886
66271W        W30479  33.109  26.685   1.891
66272W        W30480  10.224   7.869  11.885
66273W        W30481   5.840  20.755  13.878
66274W        W30482  26.971  22.698   1.881
66275W        W30483   9.247  24.713   0.826
66276W        W30484  43.446   6.206   2.729
66277W        W30485  30.002  20.627  13.006
66278W        W30486  24.492  38.533   4.671
66279W        W30487   3.949   5.325  12.834
66280W        W30488  17.593  30.413  11.032
66281W        W30489  29.448  38.535  10.611
66282W        W30490  34.095  13.315  10.641
66283W        W30491  24.106  14.673   1.722
66284W        W30492  39.401   9.739  11.531
66285W        W30493  34.024  14.714  12.424
66286W        W30494  37.953  29.158   2.718
66287W        W30495  35.878  36.089  14.382
66288W        W30496  11.271   2.404  13.420
66289W        W30497  26.205  15.328   0.323
66290W        W30498  39.323  19.587   4.228
66291W        W30499  40.327   6.704  13.535
66292W        W30500  28.142   5.700   0.791
66293W        W30501  35.408  32.563  10.602
66294W        W30502   0.388  10.285  14.831
66295W        W30503   1.470  11.797   2.723
66296W        W30504  29.510  11.796  13.931
66297W        W30505   3.808  18.791   0.923
66298W        W30506  20.698  39.834  13.928
66299W        W30507  21.669   5.689   3.661
66300W        W30508  16.083  35.413  13.492
66301W        W30509  16.315  17.111   4.224
66302W        W30510  44.949  42.308  12.846
66303W        W30511   2.234   2.326   0.437
66304W        W30512  18.066  27.962   0.283
66305W        W30513  20.111  23.225  12.942
66306W        W30514  22.520   2.427   2.795
66307W        W30515   4.699  12.226  12.823
66308W        W30516  29.926  11.346  14.990
66309W        W30517  23.566  37.428  14.907
66310W        W30518   3.296  36.885   2.722
66311W        W30519  44.483  44.324  11.448
66312W        W30520  18.086  40.012  11.065
66313W        W30521   5.422  14.292  10.604
66314W        W30522  26.085  31.955   0.960
66315W        W30523  15.641   3.429  13.824
66316W        W30524  25.562  17.156   0.929
66317W        W30525  13.832   8.897   2.372
66318W        W30526   9.853   6.860  14.025
66319W        W30527   1.939  18.627   0.852
66320W        W30528  15.101   2.785  13.543
66321W        W30529  11.650  36.462  13.866
66322W        W30530  38.534  26.189   3.641
66323W        W30531  33.113  25.009  14.872
66324W        W30532  19.695  42.905   3.854
66325W        W30533  36.570   4.378  10.459
66326W        W30534  11.778   4.361   4.276
66327W        W30535  21.676  43.462   0.482
66328W        W30536  11.819  43.373   3.307
66329W        W30537   5.260  10.766   4.281
66330W        W30538  39.446   8.832   3.249
66331W        W30539  11.216  32.616  14.885
66332W        W30540  41.965  20.564   1.221
66333W        W30541  25.088  14.798  13.856
66334W        W30542   0.781  14.217   1.300
66335W        W30543  15.692  36.873  12.021
66336W        W30544  13.779  14.252  14.858
66337W        W30545  13.131  18.265  12.382
66338W        W30546  39.560   6.832  12.542
66339W        W30547  24.627  37.980   3.175
66340W        W30548   6.744  32.611   1.885
66341W        W30549  12.692  17.743   0.432
66342W        W30550   7.757  44.413   4.247
66343W        W30551  22.169  24.711  14.362
66344W        W30552  24.217  22.579  10.508
66345W        W30553   6.797  25.065  13.922
66346W        W30554  36.358  32.920  12.850
66347W        W30555  23.155  29.478  10.535
66348W        W30556  18.063  44.499  10.949
66349W        W30557  29.598  41.977  12.841
66350W        W30558  21.611  26.128  12.023
66351W        W30559   5.240  28.150  11.079
66352W        W30560   3.747   3.417   5.198
66353W        W30561  31.423  21.726  12.030
66354W        W30562  24.658  24.544   3.821
66355W        W30563   3.715   9.390   3.346
66356W        W30564  34.613   0.820  14.282
66357W        W30565  28.619  28.507  14.020
66358W        W30566  16.720  43.795   3.314
66359W        W30567  14.208  20.144   4.341
66360W        W30568  32.098  34.001   1.284
66361W        W30569   8.392  35.974  14.878
66362W        W30570   9.244  29.932   4.289
66363W        W30571  35.572  24.509  14.890
66364W        W30572  20.097  39.837   9.563
66365W        W30573  39.854   3.925  14.787
66366W        W30574  26.136  39.814   4.295
66367W        W30575   4.882  21.524   4.827
66368W        W30576   0.803  34.408  11.566
66369W        W30577  10.263  12.299  11.071
66370W        W30578   1.400  24.086   4.211
66371W        W30579  32.514  26.512  14.399
66372W        W30580  14.194   9.336   3.225
66373W        W30581   1.749  31.526  12.008
66374W        W30582  22.236   7.675   3.866
66375W        W30583   7.717  40.486   1.746
66376W        W30584  26.983  13.649  14.871
66377W        W30585   1.253  16.730   3.667
66378W        W30586  30.506  17.307  10.927
66379W        W30587  36.859  44.444  10.930
66380W        W30588   3.338  16.636   0.327
66381W        W30589  23.194  30.607  11.390
66382W        W30590  20.683   4.791   0.315
66383W        W30591   6.412  23.075  14.950
66384W        W30592  35.362   2.731   4.175
66385W        W30593   4.208  19.655  10.410
66386W        W30594  17.747   2.908   3.861
66387W        W30595  20.655  18.574   2.199
66388W        W30596  27.022  39.045   1.880
66389W        W30597  13.136   5.785   1.419
66390W        W30598   4.893  34.966  14.942
66391W        W30599  25.137  26.531  12.413
66392W        W30600  44.859  41.853  11.528
66393W        W30601  12.623  44.452   4.612
66394W        W30602  41.994  30.076  10.476
66395W        W30603  31.131  31.936  14.403
66396W        W30604  15.297  15.146  11.865
66397W        W30605  41.439  36.946  14.934
66398W        W30606  15.683  21.703   2.202
66399W        W30607  29.597  28.671   3.326
66400W        W30608  21.221  30.659  13.805
66401W        W30609  41.373   7.177  12.036
66402W        W30610  33.385  38.984  10.101
66403W        W30611  32.975  26.053  13.333
66404W        W30612  13.190   1.385  13.811
66405W        W30613  24.538   3.426  12.951
66406W        W30614  43.946  19.052  11.022
66407W        W30615  32.423  25.528  14.985
66408W        W30616  11.335  18.782  12.528
66409W        W30617   5.729  10.190  10.053
66410W        W30618   3.227  31.107   4.296
66411W        W30619  37.073  12.769   4.829
66412W        W30620   5.868  38.952  14.764
66413W        W30621  20.247  15.329  13.449
66414W        W30622  15.108  10.674  14.493
66415W        W30623  42.999  32.947   3.193
66416W        W30624  25.094  33.118  14.300
66417W        W30625  10.360  39.828  12.474
66418W        W30626  26.188  10.199   2.356
66419W        W30627  29.126   8.851  11.984
66420W        W30628   9.373   4.726  11.042
66421W        W30629  30.527  14.834  14.988
66422W        W30630  30.999   8.340  10.451
66423W        W30631  22.176  34.990   3.697
66424W        W30632  12.242  25.564   2.338
66425W        W30633  19.543  19.659   0.294
66426W        W30634  37.463  31.938  14.835
66427W        W30635  36.498  31.448   3.386
66428W        W30636  16.594  36.548  10.891
66429W        W30637  36.918  37.985  13.340
66430W        W30638  33.394   8.364   3.839
66431W        W30639  26.198  11.310  12.458
66432W        W30640  41.915  36.534   4.669
66433W        W30641  22.028  42.415   1.884
66434W        W30642  33.419  30.458   9.921
66435W        W30643   4.221  19.595  13.058
66436W        W30644  31.027  14.314   3.266
66437W        W30645  29.588  12.848  13.516
66438W        W30646   4.846  11.330   0.826
66439W        W30647  21.253  13.125   2.802
66440W        W30648   3.946  13.217   4.753
66441W        W30649  40.963  34.536   4.151
66442W        W30650  28.941  39.352   3.180
66443W        W30651  44.849  33.426  11.401
66444W        W30652  44.875  26.565  11.555
66445W        W30653  37.336   8.709  10.447
66446W        W30654  20.682  40.880   1.854
66447W        W30655  37.374  28.993   4.743
66448W        W30656   1.444  29.969  13.008
66449W        W30657  32.618  15.170   0.375
66450W        W30658  39.978  32.906  10.539
66451W        W30659  27.675  33.564   3.823
66452W        W30660  18.550  22.185   0.366
66453W        W30661  19.540  27.640   1.825
66454W        W30662  26.952  18.729   2.196
66455W        W30663  44.430  36.405   9.927
66456W        W30664  38.928   3.889  12.005
66457W        W30665   6.782  40.465  13.399
66458W        W30666  42.942  14.804  13.991
66459W        W30667  12.205  19.101   1.417
66460W        W30668  17.126  24.507   3.336
66461W        W30669  28.443  24.617   2.352
66462W        W30670  12.847   8.731  14.941
66463W        W30671  15.655  37.872   5.573
66464W        W30672  37.876  32.614   0.882
66465W        W30673  34.493  12.232   4.693
66466W        W30674  44.272  31.956  13.332
66467W        W30675  43.792  41.326  11.942
66468W        W30676  31.917  14.249  14.374
66469W        W30677  24.062  10.343  10.505
66470W        W30678  23.729   2.907   0.938
66471W        W30679  40.329  18.163   0.320
66472W        W30680   7.345  11.217  11.081
66473W        W30681  37.563  31.590  12.936
66474W        W30682  32.407  10.656  13.035
66475W        W30683   8.725   2.892  12.432
66476W        W30684   2.365  41.833   3.245
66477W        W30685  12.751  28.511  13.838
66478W        W30686  36.955   0.290   4.726
66479W        W30687  35.082  17.272  11.390
66480W        W30688  19.265   2.839   2.854
66481W        W30689  24.156  33.453   1.273
66482W        W30690  27.483  44.799   2.282
66483W        W30691  41.422   2.436   1.268
66484W        W30692   8.807  33.603   5.283
66485W        W30693   4.337  10.344  14.008
66486W        W30694  31.610  38.477  10.513
66487W        W30695  36.385   8.193  14.410
66488W        W30696   6.197  23.553  14.306
66489W        W30697  16.139  15.590  14.840
66490W        W30698  18.766  32.468  14.948
66491W        W30699  23.006  25.637   0.847
66492W        W30700  17.637   9.213  12.545
66493W        W30701  38.515   0.253   2.866
66494W        W30702  36.857  29.057   0.341
66495W        W30703  38.334  11.720  11.581
66496W        W30704  27.470  16.791  12.062
66497W        W30705   3.442  30.045   2.292
66498W        W30706  30.157  37.999   1.837
66499W        W30707  43.807  34.009  10.460
66500W        W30708  31.049  41.425  12.886
66501W        W30709   5.794  35.058  11.376
66502W        W30710   9.746   6.294   3.637
66503W        W30711  27.666  30.510  11.955
66504W        W30712  14.291  28.543  14.818
66505W        W30713   7.359  29.088   2.213
66506W        W30714  37.974  30.530  13.924
66507W        W30715  19.745  13.242  14.351
66508W        W30716  38.387   8.380   2.858
66509W        W30717  24.175  35.397  10.937
66510W        W30718  11.623  35.574   4.613
66511W        W30719  27.587   4.264  14.003
66512W        W30720   2.462  13.663   0.776
66513W        W30721  30.600  35.360  10.446
66514W        W30722  32.410  23.624  11.957
66515W        W30723  13.262  12.361   4.268
66516W        W30724  36.354   8.741  13.882
66517W        W30725   4.316   4.400   3.836
66518W        W30726   3.827  16.632   4.237
66519W        W30727  41.414   6.847   3.331
66520W        W30728  13.163   0.317  13.496
66521W        W30729  12.737  31.449   4.744
66522W        W30730  34.916  42.339  11.606
66523W        W30731   3.907  36.368   3.648
66524W        W30732  18.065  39.027   1.389
66525W        W30733   6.860   8.700  10.449
66526W        W30734  40.975  39.948   3.374
66527W        W30735  11.342  16.570  10.644
66528W        W30736  43.360   4.352  12.436
66529W        W30737  43.412  25.039  13.804
66530W        W30738  21.716  22.662   2.794
66531W        W30739  13.345   7.364  12.082
66532W        W30740  35.397   5.848   2.813
66533W        W30741  13.336  37.083   4.150
66534W        W30742  24.559  11.742   2.806
66535W        W30743   0.439  19.721   3.358
66536W        W30744  12.177  25.677  11.862
66537W        W30745  28.994  43.010   4.738
66538W        W30746  39.871  41.991  12.896
66539W        W30747   3.301  33.940  11.449
66540W        W30748  41.950   6.341   0.881
66541W        W30749  29.945  30.917  11.475
66542W        W30750   5.401  19.159  13.014
66543W        W30751  27.995  32.997   3.804
66544W        W30752  31.530  16.261   3.315
66545W        W30753  18.260  27.141  11.577
66546W        W30754  36.495  23.060   3.747
66547W        W30755   4.930  20.751   1.896
66548W        W30756  30.984  26.204   1.211
66549W        W30757  40.414  40.887  11.913
66550W        W30758  20.657  27.162   2.178
66551W        W30759   7.332  14.130   3.343
66552W        W30760  20.150   8.371   5.687
66553W        W30761  21.712  30.543  10.440
66554W        W30762  17.659  15.783  10.910
66555W        W30763  44.375  17.712  14.409
66556W        W30764  20.054  36.978  13.989
66557W        W30765  12.155  22.056   1.823
66558W        W30766  32.918   1.809  11.505
66559W        W30767  35.484  34.879   2.213
66560W        W30768  17.677   6.185  12.401
66561W        W30769   6.809  13.227  14.481
66562W        W30770  39.821  17.141  14.765
66563W        W30771  22.557   4.765  11.026
66564W        W30772  15.173  14.128   2.370
66565W        W30773  43.880   9.209   2.360
66566W        W30774  33.432  22.544   4.155
66567W        W30775  11.314  24.516  13.876
66568W        W30776  21.144   5.810   5.623
66569W        W30777   0.440  37.526   5.297
66570W        W30778  38.977  28.473  14.350
66571W        W30779  21.626  11.296   0.293
66572W        W30780  12.316  43.368  11.856
66573W        W30781  23.573  16.247  13.349
66574W        W30782   9.172  13.743   2.692
66575W        W30783  41.384   5.258   4.138
66576W        W30784  26.703  31.627  13.546
66577W        W30785   6.804  35.916   3.747
66578W        W30786  18.144  44.326  11.977
66579W        W30787  41.954  41.409  11.594
66580W        W30788  22.237  15.170   3.803
66581W        W30789  37.863  33.567  13.044
66582W        W30790  17.565  27.151  11.907
66583W        W30791  33.452  11.154  13.803
66584W        W30792  22.077  19.120   0.887
66585W        W30793  38.512  32.952   1.270
66586W        W30794  36.508  13.143  11.966
66587W        W30795  37.533  34.574  13.053
66588W        W30796   5.374  24.981  12.059
66589W        W30797  33.524  30.022   1.770
66590W        W30798   5.284  17.259   1.815
66591W        W30799  27.982  33.962   0.785
66592W        W30800  26.134  21.123   1.924
66593W        W30801  40.995  19.770  11.384
66594W        W30802   3.918  23.153   3.306
66595W        W30803  31.621  19.115   3.285
66596W        W30804   4.374  36.452  12.919
66597W        W30805  38.911   4.245  13.379
66598W        W30806  29.468  26.666  13.522
66599W        W30807  12.290   1.438  14.475
66600W        W30808  43.417  28.574  14.341
66601W        W30809  26.001  21.553   0.766
66602W        W30810  43.901  34.392   2.313
66603W        W30811  10.746  27.167   0.353
66604W        W30812  26.457  44.981   3.344
66605W        W30813  13.122  42.890  13.958
66606W        W30814  44.395  39.376   3.237
66607W        W30815  15.192   8.356   1.924
66608W        W30816  24.679  28.176   0.888
66609W        W30817  11.209  43.810   4.283
66610W        W30818  18.091  26.084   0.414
66611W        W30819  36.521  28.594   1.703
66612W        W30820  38.998  10.852   1.392
66613W        W30821  26.106  40.503   3.330
66614W        W30822  21.093  38.058   1.738
66615W        W30823  39.411   9.738   4.238
66616W        W30824  42.861  26.492  14.884
66617W        W30825   8.767  41.367   0.799
66618W        W30826  19.753  21.750  11.092
66619W        W30827  24.646  19.763  11.025
66620W        W30828  16.638  32.897   1.922
66621W        W30829  30.473  22.737  12.915
66622W        W30830   4.267  18.750  10.432
66623W        W30831  25.088  36.064   0.826
66624W        W30832  25.582  29.539  10.432
66625W        W30833   0.910  36.844   4.330
66626W        W30834  33.419  15.293  13.398
66627W        W30835   4.756  38.509  12.836
66628W        W30836   6.759  32.487   3.311
66629W        W30837  41.988  22.734   5.255
66630W        W30838  43.447  15.312   2.217
66631W        W30839  20.122  20.552   1.363
66632W        W30840  41.877  12.203   3.686
66633W        W30841  17.705  17.197   2.265
66634W        W30842  15.752  25.199  14.473
66635W        W30843  24.085  35.857   3.658
66636W        W30844   0.353  12.311  11.575
66637W        W30845  12.246  12.259   9.965
66638W        W30846  24.684  30.076  14.776
66639W        W30847  14.667  14.735  12.525
66640W        W30848  33.425   3.410  11.613
66641W        W30849  16.747  39.030   3.279
66642W        W30850  17.130  27.543  11.546
66643W        W30851   0.391  31.550   2.292
66644W        W30852  30.090  30.493  14.460
66645W        W30853  43.467  42.885   0.245
66646W        W30854  34.949  33.544   1.811
66647W        W30855  28.443  40.892   4.241
66648W        W30856  17.166  11.238   4.617
66649W        W30857  13.662  31.562   0.829
66650W        W30858  20.592   5.717   2.838
66651W        W30859  30.605  23.523   2.867
66652W        W30860   7.381  26.667  13.309
66653W        W30861  22.007  40.876  12.943
66654W        W30862  41.417   7.175   1.410
66655W        W30863  14.337  16.778  13.833
66656W        W30864  20.217  21.235  10.628
66657W        W30865   7.671   5.931   3.821
66658W        W30866   0.482  40.364  11.447
66659W        W30867  27.012   6.300  13.794
66660W        W30868  20.615  26.028  14.331
66661W        W30869  35.406  17.281   3.226
66662W        W30870  42.794  38.864  12.436
66663W        W30871   0.291   2.879   2.777
66664W        W30872  17.656  25.181  11.917
66665W        W30873  38.370  21.754  10.607
66666W        W30874  34.526  43.428  12.928
66667W        W30875  26.163   0.384   3.788
66668W        W30876  40.931   2.773   0.274
66669W        W30877  11.279   1.847   0.821
66670W        W30878  33.926  22.137   3.662
66671W        W30879  32.568  27.594  11.528
66672W        W30880  28.003   3.926  13.941
66673W        W30881  32.591  36.529  13.425
66674W        W30882   0.880  31.622  13.020
66675W        W30883  23.001  21.215  10.108
66676W        W30884  32.965   3.872  14.357
66677W        W30885   5.359  12.716  10.576
66678W        W30886  41.383  30.999  10.556
66679W        W30887  44.847  37.922   4.803
66680W        W30888  11.344  11.834   3.245
66681W        W30889   1.475   1.322  14.494
66682W        W30890  12.847  31.448  11.443
66683W        W30891  11.648  26.023  14.996
66684W        W30892  15.619  40.898   4.788
66685W        W30893  10.138   9.152  10.558
66686W        W30894  33.604  33.541  12.416
66687W        W30895  44.844   3.879   3.264
66688W        W30896  38.408  33.080  11.534
66689W        W30897   8.405  20.541  11.958
66690W        W30898  12.623  23.609   1.295
66691W        W30899  26.096  21.192   3.301
66692W        W30900  25.552  11.251  12.906
66693W        W30901   0.835  37.359  14.384
66694W        W30902  17.174  43.467  14.808
66695W        W30903   1.933  27.538  13.869
66696W        W30904  33.999  26.074  12.031
66697W        W30905  42.875  10.196  12.401
66698W        W30906  39.872  20.736   1.890
66699W        W30907  20.705  28.455  12.496
66700W        W30908  15.585  25.562   2.768
66701W        W30909  37.035   4.330  10.084
66702W        W30910   9.712   6.883  14.946
66703W        W30911  24.141  14.333  11.061
66704W        W30912   4.795  15.725  10.124
66705W        W30913  32.421  36.543   0.946
66706W        W30914   7.384  40.422  14.991
66707W        W30915   0.837   1.483  10.069
66708W        W30916  22.621  20.133   1.727
66709W        W30917  19.096  37.040  10.050
66710W        W30918  13.262  14.182  14.331
66711W        W30919  12.743  34.513   1.883
66712W        W30920  23.706  32.994  11.883
66713W        W30921  33.934  25.678  11.962
66714W        W30922  15.288  25.992   4.239
66715W        W30923  18.249  25.549  12.915
66716W        W30924  20.193  22.714   3.855
66717W        W30925   1.483   6.861   2.678
66718W        W30926  26.623  32.932   0.402
66719W        W30927  26.642  38.827   2.782
66720W        W30928  33.928  31.916  12.890
66721W        W30929  16.705  35.886  12.515
66722W        W30930   5.272   4.257   4.332
66723W        W30931  13.287  29.600  13.476
66724W        W30932  43.411  41.949   0.370
66725W        W30933  19.744  17.569   0.889
66726W        W30934  13.701  33.117   2.810
66727W        W30935  26.194  35.996  13.355
66728W        W30936  15.207  25.144   0.450
66729W        W30937  20.668  44.397  14.327
66730W        W30938   2.360   9.310  14.329
66731W        W30939   0.317  15.578   3.729
66732W        W30940  23.058  38.449   2.224
66733W        W30941  28.979  13.665  12.521
66734W        W30942  28.953  19.209   2.328
66735W        W30943  43.812  38.901   3.745
66736W        W30944   8.785  35.047   2.206
66737W        W30945  10.341  32.935  10.508
66738W        W30946   9.857   0.800  14.334
66739W        W30947   4.890  41.397  10.623
66740W        W30948  43.865  20.621  12.910
66741W        W30949  35.472  31.497  11.100
66742W        W30950  26.101  33.570   3.687
66743W        W30951   0.903  29.532   0.483
66744W        W30952   8.213  16.618  11.934
66745W        W30953  19.775  29.489  10.488
66746W        W30954  16.678  32.038   2.321
66747W        W30955  23.667  14.313   2.407
66748W        W30956  18.581  41.825  13.848
66749W        W30957  16.100  35.374   1.881
66750W        W30958  44.497  15.618  10.540
66751W        W30959  16.186  10.280  13.926
66752W        W30960   1.372  30.163   2.762
66753W        W30961   5.776   7.669   3.633
66754W        W30962   9.364  21.547   1.244
66755W        W30963  26.690  33.005   2.220
66756W        W30964  12.698   0.442   3.191
66757W        W30965   9.219  28.536  14.920
66758W        W30966   2.352   5.309   3.758
66759W        W30967   3.455  32.943   3.808
66760W        W30968  12.652  14.140  10.538
66761W        W30969   4.321  21.074  13.311
66762W        W30970  33.481  31.111  11.460
66763W        W30971  16.706  16.736   4.278
66764W        W30972  39.823  39.013   1.831
66765W        W30973   8.179  21.192  11.569
66766W        W30974  36.416  27.974   4.312
66767W        W30975  39.945  26.661   0.341
66768W        W30976   5.259  42.420  14.026
66769W        W30977  24.171  13.268  14.807
66770W        W30978   0.779   6.723   3.662
66771W        W30979  37.477  27.497   0.348
66772W        W30980  41.973   4.226   9.975
66773W        W30981  20.131  24.054   4.342
66774W        W30982   7.339  31.585  11.067
66775W        W30983  21.756  33.571   9.963
66776W        W30984  21.230   0.904   0.762
66777W        W30985  34.034  44.003   4.745
66778W        W30986  32.961  40.393  12.956
66779W        W30987  13.614  34.864  13.436
66780W        W30988  41.502  10.351   4.170
66781W        W30989  40.474   9.654  10.483
66782W        W30990   4.399  30.979  11.070
66783W        W30991   2.911  11.336  14.014
66784W        W30992  26.700  28.064  14.867
66785W        W30993  10.158  24.129   0.361
66786W        W30994  42.403  31.516   2.413
66787W        W30995  18.747  13.135   5.211
66788W        W30996   2.901  25.517  13.798
66789W        W30997  32.139   0.292  12.521
66790W        W30998  41.351  25.962  11.565
66791W        W30999  29.021  14.714  11.608
66792W        W31000  33.599  28.498  13.519
66793W        W31001  24.185  37.553  11.863
66794W        W31002  14.270  12.210  11.929
66795W        W31003  37.561  18.263   0.763
66796W        W31004  43.912  27.445  10.918
66797W        W31005  26.087   5.721   0.271
66798W        W31006   2.301   7.342   4.275
66799W        W31007   2.862   5.766  13.943
66800W        W31008   8.864  36.979   4.838
66801W        W31009   1.894  25.119   4.649
66802W        W31010  26.026   2.463   0.900
66803W        W31011  36.567  25.147   2.215
66804W        W31012  18.788  21.054  13.364
66805W        W31013  33.031  28.522   4.309
66806W        W31014  23.591  24.064   0.243
66807W        W31015  43.964  12.236   0.251
66808W        W31016  25.161  17.790  14.495
66809W        W31017  34.877  18.074   0.436
66810W        W31018  18.706  43.509  14.906
66811W        W31019  36.894  39.844   2.381
66812W        W31020  25.692  33.096  10.606
66813W        W31021  31.464  19.688   2.769
66814W        W31022   4.738  42.937   3.712
66815W        W31023  43.358   9.867   3.371
66816W        W31024  17.599  37.418   9.922
66817W        W31025  16.626  21.757  14.482
66818W        W31026  28.446  26.060   4.313
66819W        W31027   5.436  25.611   2.330
66820W        W31028  28.125  24.078   2.204
66821W        W31029   3.347  24.581   4.163
66822W        W31030  26.500  11.223   4.734
66823W        W31031  39.390  32.038  11.406
66824W        W31032  27.616  16.722   1.780
66825W        W31033  33.080   9.153  11.444
66826W        W31034  13.669   6.288  13.855
66827W        W31035  40.303  42.349  12.487
66828W        W31036   1.342  32.998   3.316
66829W        W31037   3.234  29.101   4.225
66830W        W31038  27.685  14.754   9.975
66831W        W31039   3.333  44.947  12.041
66832W        W31040  33.931  27.600   0.930
66833W        W31041  29.026  20.660  10.452
66834W        W31042  34.037  34.441   3.228
66835W        W31043  11.818  20.178  12.437
66836W        W31044  29.063  36.380  12.839
66837W        W31045  10.194   7.896  10.455
66838W        W31046   7.731  38.366   1.906
66839W        W31047  42.985  11.786  10.512
66840W        W31048  32.610  14.202   3.316
66841W        W31049  18.560  40.355   0.840
66842W        W31050   9.245   6.913   0.827
66843W        W31051  25.154  20.266  12.346
66844W        W31052  35.528   6.416  13.020
66845W        W31053  15.755  35.927   4.278
66846W        W31054   1.913  26.966   0.461
66847W        W31055   3.336  41.981   3.705
66848W        W31056   4.943  38.992   4.826
66849W        W31057  31.094  28.943  14.896
66850W        W31058  29.957   6.405  14.922
66851W        W31059   8.367  33.578  12.046
66852W        W31060  11.783  16.210  10.425
66853W        W31061  42.864  26.959  10.406
66854W        W31062  43.498  14.192   5.172
66855W        W31063  26.068  12.117   1.875
66856W        W31064   1.961  42.890  12.826
66857W        W31065   7.826  16.098   4.759
66858W        W31066   4.863  31.927  12.859
66859W        W31067  42.791  32.964  12.400
66860W        W31068  11.739   8.236   0.427
66861W        W31069   8.794  32.517   2.782
66862W        W31070  17.674   5.808  10.058
66863W        W31071   2.942  34.992   1.363
66864W        W31072   3.819  24.635   1.744
66865W        W31073  31.455  23.557  10.590
66866W        W31074  44.419   5.399   1.241
66867W        W31075  24.631   6.838   0.815
66868W        W31076  33.524   2.938  14.986
66869W        W31077   1.954  19.633   2.209
66870W        W31078  22.085  10.732   0.357
66871W        W31079   0.402   9.210   2.728
66872W        W31080  15.689  28.060   4.282
66873W        W31081   9.212  11.820  11.520
66874W        W31082  32.602  19.266   1.818
66875W        W31083   0.464  37.548   9.937
66876W        W31084  35.069  17.715   0.256
66877W        W31085  44.292   6.794   0.407
66878W        W31086  24.720  15.278  13.842
66879W        W31087   1.408  13.639   1.838
66880W        W31088  38.568   4.334   5.146
66881W        W31089  38.960  27.071  13.430
66882W        W31090  42.515  44.282  10.955
66883W        W31091  35.430  10.347  14.325
66884W        W31092  17.073  31.440  11.483
66885W        W31093  43.767   6.721  12.581
66886W        W31094  15.228  43.014  13.324
66887W        W31095  43.993  25.679  13.875
66888W        W31096  10.800  12.716  11.101
66889W        W31097  24.507  41.929   4.301
66890W        W31098  16.213   3.803  12.441
66891W        W31099  12.322  27.679  11.387
66892W        W31100  32.945  30.001   4.689
66893W        W31101  24.984  34.557   4.821
66894W        W31102  25.200  11.681   1.337
66895W        W31103  10.721  16.755  12.374
66896W        W31104  42.372   9.699  14.947
66897W        W31105  35.474  17.229   4.803
66898W        W31106  10.644  27.598  12.033
66899W        W31107  16.803  28.047   3.302
66900W        W31108  26.491  24.688   1.381
66901W        W31109  14.254  27.567  14.430
66902W        W31110  12.227  27.630   4.329
66903W        W31111  30.639  36.527  12.071
66904W        W31112  36.428  22.122  13.992
66905W        W31113  15.265  29.003   4.660
66906W        W31114  32.965   7.306  12.051
66907W        W31115  36.360   1.318   1.730
66908W        W31116  35.482  21.578   4.207
66909W        W31117  11.633  20.238  10.508
66910W        W31118   1.865   3.367   2.256
66911W        W31119  40.026  44.482   1.845
66912W        W31120   4.928  36.012  13.374
66913W        W31121  31.637   4.711  11.055
66914W        W31122  35.931   4.739   4.837
66915W        W31123   1.896  25.537   1.808
66916W        W31124  36.549  44.411   3.802
66917W        W31125   3.868  13.112   2.751
66918W        W31126  40.499  17.231  11.021
66919W        W31127  19.737  16.734  14.343
66920W        W31128  13.789  19.211   1.331
66921W        W31129  21.252  23.045  11.936
66922W        W31130  29.628  12.270   4.675
66923W        W31131  39.444  14.257   0.961
66924W        W31132   4.424  17.655  10.595
66925W        W31133  37.381  32.098   0.335
66926W        W31134  34.866  11.701   2.320
66927W        W31135  27.151  20.732  14.772
66928W        W31136  27.622   3.422   3.278
66929W        W31137  33.057   5.906   4.683
66930W        W31138  14.261  42.918   3.846
66931W        W31139  25.114   6.791  12.905
66932W        W31140  23.620  14.636   0.441
66933W        W31141  37.988  44.311  11.374
66934W        W31142  35.875  25.569   2.414
66935W        W31143  17.800   0.337   3.205
66936W        W31144  33.980   4.234   2.217
66937W        W31145  17.277   8.719  14.336
66938W        W31146  40.035   8.406  11.517
66939W        W31147  38.355  13.730   3.191
66940W        W31148  35.082  31.436  14.774
66941W        W31149   0.311  11.283   4.323
66942W        W31150  12.314  43.873  13.526
66943W        W31151  12.224   9.828  12.885
66944W        W31152  27.972  28.107   0.782
66945W        W31153  30.653  18.755   5.130
66946W        W31154  32.006  44.375   2.781
66947W        W31155  15.770  44.871  13.059
66948W        W31156   5.320   8.342   0.895
66949W        W31157  23.101  26.961   1.754
66950W        W31158  24.553  38.072   2.883
66951W        W31159   6.726  40.876   1.782
66952W        W31160  15.607  15.131  11.050
66953W        W31161   9.853   4.869   1.295
66954W        W31162  31.488  30.418   2.267
66955W        W31163  13.642   1.744   3.153
66956W        W31164  14.618  31.463  14.362
66957W        W31165  34.083  34.474   2.365
66958W        W31166  20.260   0.387  12.855
66959W        W31167   9.211  14.206  10.976
66960W        W31168  27.525  17.784   4.620
66961W        W31169   9.223  23.164  11.446
66962W        W31170  17.796  36.472   0.377
66963W        W31171  29.023  44.925   0.863
66964W        W31172  26.667  39.817  14.975
66965W        W31173  35.919  36.524   5.193
66966W        W31174  10.358  28.041  14.355
66967W        W31175  13.733  35.989  13.049
66968W        W31176  20.701   0.306   1.430
66969W        W31177  39.555  42.344  14.333
66970W        W31178  24.130  29.456  13.992
66971W        W31179  43.430   2.289   2.698
66972W        W31180  24.644  36.841   3.782
66973W        W31181  38.009   7.839  14.351
66974W        W31182   5.824  20.709  11.035
66975W        W31183  25.160  38.511  11.088
66976W        W31184  11.832  15.249   0.414
66977W        W31185  39.422  22.642   1.405
66978W        W31186  13.838   1.879   2.256
66979W        W31187  30.014  18.677  10.430
66980W        W31188  11.134  18.106   0.255
66981W        W31189  19.707  14.595  11.881
66982W        W31190  12.312   4.761  14.414
66983W        W31191  24.131  44.802  11.595
66984W        W31192  11.650  43.281  10.094
66985W        W31193  44.964  23.151  14.987
66986W        W31194  23.095   2.936   4.301
66987W        W31195  20.253   1.908   4.756
66988W        W31196  31.143   9.205  12.440
66989W        W31197  36.577  12.643   2.719
66990W        W31198  20.142  12.773  10.943
66991W        W31199  24.193   1.301  10.446
66992W        W31200  23.679  38.968  11.124
66993W        W31201  28.975  30.034   4.621
66994W        W31202   7.223  32.468  11.465
66995W        W31203  17.624   1.241  10.463
66996W        W31204   9.357  40.312  12.051
66997W        W31205  44.921   4.207  10.457
66998W        W31206   6.276  19.162   0.396
66999W        W31207  37.048  32.060  13.532
67000W        W31208  44.996   7.227   4.755
67001W        W31209  41.383  25.586   1.277
67002W        W31210  35.876  24.042   0.794
67003W        W31211  17.731  37.978   5.302
67004W        W31212  39.357   0.373   1.288
67005W        W31213  12.655   5.214   2.796
67006W        W31214  43.400  38.462  13.900
67007W        W31215   0.406   1.806  10.566
67008W        W31216  35.509  26.148   3.226
67009W        W31217   9.184  12.157   5.261
67010W        W31218  12.807  39.456  14.900
67011W        W31219   4.864  18.121  13.823
67012W        W31220  26.606  40.547   5.262
67013W        W31221  31.076  34.911  10.496
67014W        W31222  43.808   8.781  12.389
67015W        W31223  10.811  14.269   4.280
67016W        W31224  28.110  32.430  10.000
67017W        W31225  19.053  25.058  12.987
67018W        W31226   1.262  28.544   1.282
67019W        W31227  16.220  19.730   0.400
67020W        W31228  15.782   7.221  14.429
67021W        W31229  27.613  15.145   0.483
67022W        W31230   0.939  24.565   2.786
67023W        W31231   1.733  32.441  12.021
67024W        W31232  27.061  36.395   2.367
67025W        W31233  24.624  35.984   3.732
67026W        W31234  18.701  28.543   2.258
67027W        W31235  30.658   0.980   2.257
67028W        W31236   2.336  44.488   0.277
67029W        W31237  42.032  23.169   4.287
67030W        W31238  18.121   9.317  11.926
67031W        W31239  17.102   5.222   0.479
67032W        W31240  40.358  21.042  14.361
67033W        W31241   5.301  42.436  12.467
67034W        W31242  40.323  30.457   3.282
67035W        W31243  19.778  38.826  10.107
67036W        W31244  16.236  43.981   0.390
67037W        W31245  32.565  31.911   1.873
67038W        W31246  44.329  19.718  14.983
67039W        W31247   7.730  21.084  12.999
67040W        W31248  38.043  21.654   3.156
67041W        W31249  20.599  15.663   4.228
67042W        W31250  42.472  17.562   4.678
67043W        W31251  29.633  16.643  14.802
67044W        W31252   2.385  21.600   1.425
67045W        W31253   1.386   7.284   1.796
67046W        W31254  41.436  15.260  14.803
67047W        W31255  19.748   1.372  13.941
67048W        W31256  40.423  19.275  14.876
67049W        W31257  34.588  20.097   0.798
67050W        W31258   6.274  18.571   1.761
67051W        W31259   4.308  44.809  13.426
67052W        W31260  20.730  43.473  14.901
67053W        W31261  33.489   2.454   0.843
67054W        W31262   1.931  32.508   4.182
67055W        W31263   7.341   9.238   1.764
67056W        W31264   4.231  11.682  12.950
67057W        W31265  37.005  17.215  13.340
67058W        W31266  21.253  14.637   4.816
67059W        W31267  39.405  35.471  12.468
67060W        W31268  16.622   1.440  10.454
67061W        W31269  30.545   7.200  13.969
67062W        W31270  24.024  26.045   0.271
67063W        W31271  35.030  22.093  13.328
67064W        W31272  32.122  13.652  14.024
67065W        W31273  30.524  18.280  11.080
67066W        W31274  27.991  30.449  14.374
67067W        W31275  30.643  39.498  12.827
67068W        W31276  23.018  12.725  12.839
67069W        W31277  10.333  39.541   1.346
67070W        W31278  26.600  16.160   0.369
67071W        W31279  18.241  28.563  10.418
67072W        W31280  29.618  18.790   0.934
67073W        W31281  37.384  14.257  12.959
67074W        W31282  44.310  29.538   2.359
67075W        W31283  30.026  24.118  13.978
67076W        W31284  36.426   6.206   1.299
67077W        W31285   5.237  13.779   4.264
67078W        W31286  30.953  31.433  12.385
67079W        W31287  39.499  43.351   3.245
67080W        W31288  36.348  13.733  11.056
67081W        W31289  43.450   0.290   1.828
67082W        W31290  40.027  26.535  14.775
67083W        W31291  26.983  42.915   0.788
67084W        W31292  11.725   4.410   3.668
67085W        W31293   5.199  30.568   0.420
67086W        W31294  39.990   5.286   3.338
67087W        W31295  11.761  29.079  11.953
67088W        W31296  13.608  34.035  13.330
67089W        W31297  29.667   5.763  12.068
67090W        W31298  39.407   1.323   1.777
67091W        W31299   7.834  27.507  11.377
67092W        W31300  10.654  32.005   2.267
67093W        W31301   2.331  36.913  14.291
67094W        W31302  13.284  42.372   4.208
67095W        W31303   4.772  20.531  13.471
67096W        W31304  35.966   0.325  11.526
67097W        W31305  32.008  44.835   2.187
67098W        W31306  34.009  14.163  10.428
67099W        W31307  31.488  12.790  14.786
67100W        W31308  23.163  24.154   3.297
67101W        W31309  16.593  43.469  11.062
67102W        W31310   9.263  44.887  11.421
67103W        W31311  20.196  12.333  14.828
67104W        W31312  12.811  16.796  13.869
67105W        W31313  44.302   0.859   3.288
67106W        W31314  16.221  12.779   3.345
67107W        W31315  15.714   1.344  10.558
67108W        W31316  14.792  17.575  14.985
67109W        W31317  25.170   9.311   4.700
67110W        W31318  23.619  25.143   3.304
67111W        W31319   9.359  23.500   4.675
67112W        W31320  21.702  34.032  12.556
67113W        W31321   7.176  18.666   1.277
67114W        W31322  37.922  24.622  10.569
67115W        W31323  28.585   1.915  13.317
67116W        W31324  30.092  36.423  14.876
67117W        W31325  14.278   4.244  10.141
67118W        W31326  25.013  25.965   1.271
67119W        W31327  29.548   2.245   1.787
67120W        W31328  24.538  29.101  14.886
67121W        W31329  15.643  39.850   1.897
67122W        W31330  30.922   0.919   1.245
67123W        W31331  44.471  24.679   2.751
67124W        W31332  43.963   7.889  13.945
67125W        W31333   3.460   2.882   4.738
67126W        W31334   9.226   6.354  13.011
67127W        W31335  13.665  33.941  14.376
67128W        W31336  41.799  25.084  11.972
67129W        W31337  12.286  39.477  11.021
67130W        W31338  14.291  40.458   3.800
67131W        W31339  13.813  22.204   2.778
67132W        W31340  31.602  41.910   4.126
67133W        W31341  41.921  27.675   0.388
67134W        W31342  11.677  38.335   3.187
67135W        W31343  10.791   3.874   1.233
67136W        W31344  13.235  19.624   2.781
67137W        W31345  30.065   9.178  13.483
67138W        W31346  42.913  28.120   1.788
67139W        W31347  28.066  40.029  11.997
67140W        W31348  37.491   2.773   4.702
67141W        W31349  12.745  19.729  13.397
67142W        W31350  40.430  36.903   1.726
67143W        W31351  21.605  44.876  13.974
67144W        W31352   7.783  40.916   1.441
67145W        W31353  34.976  12.195  13.869
67146W        W31354  39.386  23.562   0.882
67147W        W31355  17.279  42.361  13.792
67148W        W31356   9.793  37.342   1.711
67149W        W31357   5.740  25.657  13.050
67150W        W31358  20.569   2.860   0.870
67151W        W31359   6.243  12.308  11.935
67152W        W31360  30.622  31.590  14.887
67153W        W31361  18.271   1.352   0.760
67154W        W31362   1.474  24.147   1.873
67155W        W31363  26.953  28.520  14.883
67156W        W31364   1.942  34.421   2.401
67157W        W31365  19.050  21.704  14.369
67158W        W31366  42.896  21.554   2.742
67159W        W31367  41.976   1.768  11.101
67160W        W31368  43.852  18.072   4.138
67161W        W31369  12.755   4.831   2.240
67162W        W31370  25.061  16.809  14.025
67163W        W31371  28.040   2.316  11.945
67164W        W31372  43.968  14.278   2.781
67165W        W31373  40.511  28.103  11.054
67166W        W31374  37.453  11.633   3.325
67167W        W31375   8.211  21.148   0.791
67168W        W31376  31.624  19.094   0.318
67169W        W31377  24.579  42.899   3.740
67170W        W31378  29.145  18.214   2.896
67171W        W31379  23.130  16.798  10.588
67172W        W31380  18.093  32.927  13.388
67173W        W31381  23.015   5.742  12.074
67174W        W31382  36.084  40.382   4.304
67175W        W31383   8.784  20.650   4.762
67176W        W31384   8.239  10.736  11.119
67177W        W31385  30.929  18.053   0.355
67178W        W31386  17.155  30.009  11.020
67179W        W31387  22.092   0.890   4.770
67180W        W31388   0.407  14.602   2.713
67181W        W31389  19.185   9.361  11.009
67182W        W31390  29.053  26.477   3.716
67183W        W31391   0.877  36.458   1.231
67184W        W31392   3.334  32.118   2.754
67185W        W31393   0.331  24.678  14.316
67186W        W31394   5.374  43.924   2.399
67187W        W31395  25.617  20.229  12.086
67188W        W31396  44.789  22.192  12.077
67189W        W31397  28.666   7.774   0.364
67190W        W31398  11.625  16.170   2.825
67191W        W31399  29.005  12.169  13.951
67192W        W31400  23.003  17.263   1.380
67193W        W31401  42.852  37.011  11.094
67194W        W31402  43.853  18.590   1.356
67195W        W31403  10.737  39.395   3.809
67196W        W31404   9.241  17.170   4.235
67197W        W31405  28.649  28.179   2.783
67198W        W31406  12.293  10.648   1.867
67199W        W31407  19.181  33.984  14.326
67200W        W31408   9.272  35.384  11.594
67201W        W31409  35.448  27.669   1.337
67202W        W31410  29.055  37.442  10.524
67203W        W31411  20.091  39.061  13.927
67204W        W31412  35.055   7.229  11.524
67205W        W31413  33.031   3.232   0.870
67206W        W31414   9.293  38.402  13.984
67207W        W31415  10.240  10.232   4.691
67208W        W31416  17.115  40.459   2.417
67209W        W31417  29.154  33.950  11.017
67210W        W31418  26.496  34.603   2.339
67211W        W31419  36.360  18.719   4.248
67212W        W31420  21.029  17.766   0.902
67213W        W31421   5.324  44.369   3.327
67214W        W31422   9.740  28.511   3.694
67215W        W31423  41.460  34.919   1.857
67216W        W31424  17.240   7.247  12.527
67217W        W31425   1.473  20.713  13.796
67218W        W31426  41.403  34.976  14.812
67219W        W31427   7.314  35.071   2.393
67220W        W31428  10.815  41.822   2.807
67221W        W31429  17.071  21.230  12.483
67222W        W31430   0.863  37.040  14.871
67223W        W31431  19.624  18.145  12.387
67224W        W31432  11.666  37.906  12.387
67225W        W31433  37.975  24.106   2.872
67226W        W31434   5.778   6.820  12.040
67227W        W31435  10.833  20.052  11.591
67228W        W31436  29.588   2.912  13.341
67229W        W31437   3.252   6.909  11.965
67230W        W31438  19.118  36.997  12.909
67231W        W31439  39.829  37.454  13.394
67232W        W31440  14.257  12.185  11.510
67233W        W31441   1.269  17.111  10.478
67234W        W31442  15.287   3.877  10.509
67235W        W31443   0.402  22.521  13.954
67236W        W31444  39.437  39.351   3.859
67237W        W31445  40.412  26.566   1.230
67238W        W31446  16.792  40.826  14.391
67239W        W31447  24.973  32.894   0.319
67240W        W31448  39.835  25.530   0.829
67241W        W31449   5.884  36.421   1.224
67242W        W31450  40.894   6.275  11.443
67243W        W31451  41.465  32.614   2.360
67244W        W31452  22.162  37.486   0.939
67245W        W31453  15.599  34.419  11.948
67246W        W31454  42.860  21.089   3.769
67247W        W31455  10.719  40.861   4.766
67248W        W31456  29.594  13.249  10.902
67249W        W31457  38.051   6.301  12.980
67250W        W31458  26.158  37.389   0.788
67251W        W31459  10.177  32.920   2.388
67252W        W31460  27.994   9.748  14.793
67253W        W31461  29.499   1.931  13.958
67254W        W31462   7.274   6.713  10.606
67255W        W31463  31.108  36.881   4.833
67256W        W31464  13.248  35.954  10.471
67257W        W31465   3.264  26.029   3.314
67258W        W31466  15.820  14.185   3.250
67259W        W31467  30.913   0.422   4.804
67260W        W31468  14.181  20.193  11.978
67261W        W31469  24.099  38.363   3.794
67262W        W31470  15.324   1.968   4.286
67263W        W31471  42.318  18.095   9.655
67264W        W31472  26.071  17.245   4.308
67265W        W31473  28.665  22.730   0.844
67266W        W31474  23.084  39.547  11.893
67267W        W31475  41.462   6.210  13.991
67268W        W31476  25.130  43.898  14.325
67269W        W31477   8.849   3.858   4.724
67270W        W31478   2.814   5.349  12.394
67271W        W31479  23.585  28.131   1.288
67272W        W31480   0.260  20.581   2.203
67273W        W31481  26.109  35.968   3.799
67274W        W31482  17.127  44.484   1.845
67275W        W31483  40.544  20.622  12.853
67276W        W31484  36.970  37.885   3.161
67277W        W31485  40.506  26.117  13.435
67278W        W31486  37.476  27.102  12.908
67279W        W31487  27.487  30.141  14.307
67280W        W31488  38.019  24.711  12.890
67281W        W31489  28.562  24.973  11.868
67282W        W31490  10.313  19.144  11.531
67283W        W31491  27.013   3.449  12.045
67284W        W31492  15.087  32.114   0.872
67285W        W31493   4.242  13.718  14.970
67286W        W31494  40.487   7.696   1.316
67287W        W31495  37.084  14.664  14.816
67288W        W31496   2.436   6.294   5.243
67289W        W31497  28.154  36.866   2.338
67290W        W31498  39.890  32.450   0.278
67291W        W31499   3.332  37.506  10.620
67292W        W31500  18.076  37.341   2.683
67293W        W31501  44.754   5.357   4.764
67294W        W31502  28.435  40.965  10.517
67295W        W31503  20.066   4.216  11.542
67296W        W31504  43.294  18.087   4.748
67297W        W31505  35.881  14.263  10.525
67298W        W31506  32.998  31.151  13.351
67299W        W31507   0.349  34.961  10.945
67300W        W31508  34.103  38.045  11.947
67301W        W31509   9.875  42.524  12.884
67302W        W31510  44.280  28.115   4.114
67303W        W31511  24.231  39.527   4.692
67304W        W31512  26.501   9.250   1.767
67305W        W31513  14.278  28.114   2.849
67306W        W31514   5.773  21.165  11.924
67307W        W31515   9.752  18.153  13.344
67308W        W31516  40.540  30.632   1.259
67309W        W31517  27.145  28.618   2.361
67310W        W31518  12.254  30.507   2.816
67311W        W31519  39.520  10.645  13.338
67312W        W31520  44.927  18.675   0.427
67313W        W31521  31.980  40.030   1.761
67314W        W31522  15.758   3.898  11.020
67315W        W31523  14.704   6.789   4.301
67316W        W31524  38.967  14.132   4.293
67317W        W31525  37.848   4.939  14.511
67318W        W31526  33.581  41.530  12.061
67319W        W31527  41.948  30.641   1.349
67320W        W31528  28.612   1.878  10.422
67321W        W31529  28.669  28.003  11.536
67322W        W31530  43.421   6.838   1.290
67323W        W31531  32.115   9.865  10.591
67324W        W31532  36.549  17.633   1.902
67325W        W31533  19.757  32.084   4.645
67326W        W31534  20.608   8.375  10.077
67327W        W31535  35.552   9.877   4.328
67328W        W31536  33.063  19.780  11.009
67329W        W31537  37.069  12.821   2.239
67330W        W31538  38.029  24.674  13.319
67331W        W31539  30.926   7.770   2.791
67332W        W31540  12.274  36.513   3.724
67333W        W31541  18.652  12.764   0.479
67334W        W31542   9.748   6.753  10.464
67335W        W31543  34.451  40.449   0.930
67336W        W31544  43.430  38.888   1.845
67337W        W31545  31.098   8.728  11.432
67338W        W31546  38.533  11.195   0.816
67339W        W31547  10.761  12.209   4.283
67340W        W31548   7.909   6.403  11.520
67341W        W31549  16.232  44.769  10.432
67342W        W31550  35.037  15.662  12.408
67343W        W31551  22.051  28.661   4.776
67344W        W31552  42.965  20.531   3.711
67345W        W31553   5.379  10.663   4.711
67346W        W31554   7.874  36.058   2.713
67347W        W31555  18.074  24.522  11.500
67348W        W31556  29.476  41.431   2.248
67349W        W31557  10.142   4.249  11.978
67350W        W31558  32.047  16.680   3.779
67351W        W31559  28.081  44.326   5.242
67352W        W31560  26.104   1.318  14.900
67353W        W31561  36.956  30.947  11.108
67354W        W31562   4.286  29.440  13.795
67355W        W31563   5.241  44.422  14.369
67356W        W31564   0.338   5.701  13.961
67357W        W31565  41.038   1.972  11.898
67358W        W31566  30.514   2.366   1.354
67359W        W31567  29.926  16.800  10.974
67360W        W31568   2.958  42.484  12.518
67361W        W31569  36.593   7.771   1.858
67362W        W31570  10.873   2.457   0.268
67363W        W31571  24.101   7.296   0.886
67364W        W31572  12.261  44.349   4.611
67365W        W31573  20.617  44.384  13.889
67366W        W31574  42.318  40.360   1.306
67367W        W31575  29.655  42.379   2.821
67368W        W31576  17.257   2.961  10.623
67369W        W31577  23.030  27.618  10.469
67370W        W31578   4.862  30.030  13.353
67371W        W31579  20.180  13.660  12.070
67372W        W31580  39.476  15.720   4.132
67373W        W31581  15.751  25.574  14.901
67374W        W31582  39.815   9.649  12.026
67375W        W31583  16.731  14.640   0.818
67376W        W31584  25.613  44.417  13.967
67377W        W31585   6.685  42.439  13.020
67378W        W31586  26.610  19.698  12.010
67379W        W31587  11.829  21.198  14.859
67380W        W31588  40.473  26.506  12.461
67381W        W31589  30.441  10.170  13.516
67382W        W31590  42.778  11.811  12.902
67383W        W31591  32.462  23.007  13.442
67384W        W31592  29.434   0.814   4.327
67385W        W31593   8.836  26.646  11.916
67386W        W31594  32.616  12.644  14.847
67387W        W31595   3.233  14.217  13.488
67388W        W31596  15.639  36.511  14.509
67389W        W31597  29.601   5.821  13.996
67390W        W31598  23.719  18.627  12.886
67391W        W31599   6.894  25.658  14.512
67392W        W31600  39.859  21.656   3.269
67393W        W31601  11.726  16.641  10.960
67394W        W31602  28.978  12.770  12.009
67395W        W31603  25.082  39.897  13.506
67396W        W31604  30.576  17.229   3.658
67397W        W31605  31.454   9.264   4.796
67398W        W31606   7.358   8.754  12.543
67399W        W31607   1.293  33.035   1.695
67400W        W31608  33.056  38.932   3.171
67401W        W31609  10.747  38.448   2.721
67402W        W31610  29.471  26.014  13.989
67403W        W31611  30.458  18.149  14.978
67404W        W31612   9.304  32.467   3.335
67405W        W31613  11.789  20.669  12.083
67406W        W31614   3.934  27.014   3.697
67407W        W31615  38.879  38.542   3.181
67408W        W31616   6.386  25.110  12.463
67409W        W31617  13.744  22.744   2.741
67410W        W31618  41.432  22.704  10.621
67411W        W31619  18.162  41.007   4.681
67412W        W31620  28.522  15.784  11.529
67413W        W31621  21.701   4.206   9.563
67414W        W31622  34.005  39.504   0.941
67415W        W31623   6.274  38.920  12.512
67416W        W31624   8.655   3.730  14.019
67417W        W31625  27.966  24.188  12.965
67418W        W31626  36.556  30.095   4.284
67419W        W31627  34.599   9.651  13.415
67420W        W31628  18.144  29.640   3.653
67421W        W31629  43.288  25.645   2.312
67422W        W31630  26.041  23.163   0.322
67423W        W31631  11.263   6.247   4.636
67424W        W31632  37.506   1.382  14.420
67425W        W31633  29.588  19.660   4.824
67426W        W31634  22.719  12.854  13.502
67427W        W31635  29.082  29.526   2.226
67428W        W31636  28.119  35.363  11.513
67429W        W31637   1.450   4.809  12.946
67430W        W31638  39.012  32.985  14.919
67431W        W31639  14.205  34.936  14.915
67432W        W31640  44.445  10.200   2.193
67433W        W31641   7.302  26.517   3.249
67434W        W31642  41.417  33.061   3.330
67435W        W31643  17.257   5.707  12.347
67436W        W31644  24.128  34.594   2.674
67437W        W31645  42.361  40.535   1.903
67438W        W31646   9.763  31.547   1.854
67439W        W31647  42.853  13.620   1.386
67440W        W31648  39.355  36.853   0.888
67441W        W31649  22.714  40.386  13.483
67442W        W31650  24.041  20.089   1.782
67443W        W31651   4.851   5.332   2.181
67444W        W31652  26.634  41.501  10.408
67445W        W31653  38.342  11.673   3.654
67446W        W31654  36.867   7.179   2.308
67447W        W31655  24.610  44.882  12.094
67448W        W31656  30.991  40.973  10.576
67449W        W31657   9.745  18.259   4.764
67450W        W31658  23.531  32.495  11.994
67451W        W31659  28.611  17.792   2.409
67452W        W31660  27.613  37.883   0.802
67453W        W31661  23.045   9.234   2.392
67454W        W31662  38.407  19.586  10.448
67455W        W31663  38.495  38.493  13.529
67456W        W31664   9.705   9.288   3.333
67457W        W31665  27.629   6.303   0.809
67458W        W31666   6.364   9.774   4.195
67459W        W31667  10.246  20.090  11.898
67460W        W31668  41.498  15.596   3.240
67461W        W31669  21.177  31.419   1.789
67462W        W31670   8.384   4.765   1.400
67463W        W31671   5.293  40.797  12.033
67464W        W31672  21.711  37.933   2.727
67465W        W31673  38.477  27.126  13.407
67466W        W31674  28.037  40.865   1.340
67467W        W31675  36.414  39.846  13.397
67468W        W31676  35.561  34.103   0.954
67469W        W31677  33.001  41.529   1.881
67470W        W31678   7.406  21.687  12.004
67471W        W31679   1.836  18.775  12.397
67472W        W31680  16.147  41.330   3.810
67473W        W31681   0.831  33.012  13.449
67474W        W31682   2.775  25.032   1.706
67475W        W31683  13.702   7.347   3.796
67476W        W31684   0.434   8.253  12.352
67477W        W31685  16.283  30.036   1.799
67478W        W31686  30.543   4.731   1.355
67479W        W31687  32.470   2.387   1.780
67480W        W31688  35.456   6.202   3.712
67481W        W31689  38.374  13.285   2.730
67482W        W31690   1.280  27.984   2.895
67483W        W31691  12.784  16.766   0.835
67484W        W31692  27.469  13.761  14.439
67485W        W31693   0.393  24.581   2.699
67486W        W31694  13.286  43.014  10.001
67487W        W31695  39.398  44.963  10.910
67488W        W31696  37.371   5.198  10.543
67489W        W31697  39.005  34.371   1.787
67490W        W31698   0.855  42.801  13.891
67491W        W31699  28.638  18.084  14.388
67492W        W31700  17.104  23.020  12.055
67493W        W31701   2.727   6.791   4.293
67494W        W31702  16.578  15.290  14.279
67495W        W31703   4.383  28.158  14.003
67496W        W31704  43.317  17.684   4.271
67497W        W31705   8.169   4.289  13.487
67498W        W31706  30.944  14.302  10.908
67499W        W31707  39.409  26.052   0.923
67500W        W31708  30.062  30.468   0.304
67501W        W31709  35.489   0.475   3.834
67502W        W31710  37.988  10.817  11.100
67503W        W31711   7.409   3.405  10.912
67504W        W31712   6.849  29.949  11.544
67505W        W31713  21.747  15.135   1.320
67506W        W31714  26.685  31.553   3.700
67507W        W31715  31.117  25.583  12.092
67508W        W31716   8.830  28.112  14.412
67509W        W31717   5.756   3.862   4.179
67510W        W31718  13.285  17.143   3.157
67511W        W31719  23.182   5.813  13.461
67512W        W31720   0.277   2.318  14.794
67513W        W31721  41.513  15.184   2.898
67514W        W31722  38.346  41.865   2.816
67515W        W31723   7.197   8.219  11.101
67516W        W31724  26.020  32.606  12.446
67517W        W31725  19.670  34.867   3.796
67518W        W31726  12.791  21.529   1.416
67519W        W31727  29.981  33.536   1.347
67520W        W31728  42.798  34.104  14.963
67521W        W31729  42.830   4.354   1.446
67522W        W31730  22.708   7.762   1.830
67523W        W31731  36.842   4.940  13.937
67524W        W31732   3.369  16.742  11.547
67525W        W31733  19.070  17.240   1.376
67526W        W31734  26.666  44.435  11.462
67527W        W31735   4.406  20.091  12.075
67528W        W31736  11.227  18.175  13.839
67529W        W31737  10.861   7.184   3.636
67530W        W31738  18.121  40.931  13.915
67531W        W31739  32.125  33.604   4.144
67532W        W31740   6.829  27.484  11.034
67533W        W31741   6.326  27.547  14.803
67534W        W31742   0.967  32.952   0.932
67535W        W31743   4.729  38.837  10.639
67536W        W31744  22.065  43.424  12.964
67537W        W31745  37.537   0.852  11.588
67538W        W31746  21.237  17.121   2.727
67539W        W31747  40.360  12.824   1.786
67540W        W31748  36.884  18.618   3.207
67541W        W31749  32.902  40.870   3.711
67542W        W31750  31.033  13.662  12.573
67543W        W31751  31.941  44.790  14.863
67544W        W31752  13.212  27.193  14.469
67545W        W31753  25.112  20.761  14.436
67546W        W31754  22.601  37.392   0.803
67547W        W31755  42.775  31.064  11.011
67548W        W31756  30.535   6.861  10.632
67549W        W31757  41.329  28.131   4.690
67550W        W31758  34.508  38.859  13.966
67551W        W31759  34.961  18.222  14.993
67552W        W31760   9.206  14.791   2.832
67553W        W31761  26.473  12.279   0.428
67554W        W31762  42.305   5.867  13.992
67555W        W31763  10.138  22.668  12.520
67556W        W31764   5.696  27.663  12.447
67557W        W31765  33.879  18.221  14.765
67558W        W31766  33.445   9.834   0.838
67559W        W31767  21.616  41.450  13.494
67560W        W31768  13.256  28.104   1.913
67561W        W31769  10.249  19.105  12.023
67562W        W31770  19.750   6.311  14.408
67563W        W31771  39.020  35.990  11.912
67564W        W31772  12.675  42.479   3.764
67565W        W31773  22.146  13.783  14.476
67566W        W31774  35.065  38.489   2.667
67567W        W31775  13.107   6.359  14.928
67568W        W31776  19.770  13.279   4.120
67569W        W31777  15.241  30.068  10.998
67570W        W31778  21.089  21.263  11.961
67571W        W31779  29.608  18.604   4.695
67572W        W31780  35.043  21.583  12.903
67573W        W31781  28.470  12.636  14.970
67574W        W31782  35.365  44.268   1.366
67575W        W31783  30.534  14.603  14.010
67576W        W31784  42.805  43.808  13.850
67577W        W31785  40.010  11.700   3.188
67578W        W31786  27.484  36.077   3.790
67579W        W31787  27.098  22.616  13.948
67580W        W31788  18.565   7.911   0.369
67581W        W31789  21.169  43.306  11.579
67582W        W31790  32.487   8.818  14.973
67583W        W31791  19.710  12.746  14.365
67584W        W31792  22.516   2.396  13.061
67585W        W31793   8.828  43.387  13.945
67586W        W31794   4.244   6.349  12.543
67587W        W31795   6.233  15.821   9.948
67588W        W31796  43.996  25.606   2.875
67589W        W31797   3.237  35.526   3.327
67590W        W31798   0.401   3.276  11.974
67591W        W31799   9.275  15.094  11.099
67592W        W31800  12.625  41.920  10.888
67593W        W31801  17.638  16.139  11.404
67594W        W31802  42.444  28.947   0.276
67595W        W31803  18.643  16.117  12.412
67596W        W31804  32.006  11.630   3.826
67597W        W31805   2.370   6.879  14.839
67598W        W31806  13.615  32.091   4.816
67599W        W31807  17.704   4.427   4.808
67600W        W31808  11.319  25.544  14.765
67601W        W31809  15.647   9.296   3.197
67602W        W31810  26.196  44.310   1.273
67603W        W31811  11.294  39.833   0.309
67604W        W31812  26.039  30.420   4.628
67605W        W31813   0.759   6.406  13.051
67606W        W31814  25.977   6.212   1.445
67607W        W31815  41.463  10.821   2.240
67608W        W31816  35.069  40.338   2.187
67609W        W31817  15.583  10.871  14.957
67610W        W31818  41.016   5.336  11.476
67611W        W31819  38.566  28.068   3.822
67612W        W31820  17.571  37.946   0.737
67613W        W31821  13.791  25.085   2.254
67614W        W31822  39.929  20.538  13.915
67615W        W31823  41.793  33.996   1.261
67616W        W31824   4.851   7.782  14.280
67617W        W31825  35.560  27.507  12.479
67618W        W31826   6.338  35.910   5.264
67619W        W31827   1.751   1.429  12.854
67620W        W31828  33.405  27.942   5.133
67621W        W31829  20.129   1.969  10.463
67622W        W31830   2.836  38.333   1.708
67623W        W31831  23.615  17.111  12.974
67624W        W31832  11.177  44.311   3.712
67625W        W31833   4.712   7.745  11.396
67626W        W31834  26.963  37.362   3.278
67627W        W31835  16.646  13.237   2.807
67628W        W31836  12.796  18.568  12.958
67629W        W31837  22.730   8.876   3.340
67630W        W31838  25.203  21.067   3.634
67631W        W31839  31.547  27.149  14.878
67632W        W31840   3.816  38.054  10.601
67633W        W31841  15.322  23.582  13.344
67634W        W31842   2.463  14.236   1.449
67635W        W31843  37.522  14.715  12.056
67636W        W31844  14.147  37.897  10.471
67637W        W31845  30.443   7.894   0.900
67638W        W31846  35.509  13.260  11.999
67639W        W31847  26.040  14.798  11.432
67640W        W31848  27.671  19.579   2.232
67641W        W31849   3.912   2.906  13.879
67642W        W31850  32.522  34.977  14.307
67643W        W31851  25.212   3.254  12.830
67644W        W31852  30.044  39.860  12.541
67645W        W31853   2.342   6.839   3.664
67646W        W31854  10.703  33.899  12.913
67647W        W31855   4.931  31.430   2.734
67648W        W31856  24.987  13.160   2.341
67649W        W31857  11.148  43.332  10.969
67650W        W31858  20.599  10.861  14.304
67651W        W31859   1.791  15.299  11.970
67652W        W31860  38.343  38.342  12.413
67653W        W31861  39.999  39.339  14.940
67654W        W31862  40.432  16.152   2.841
67655W        W31863   0.351  39.335  10.932
67656W        W31864  15.175   9.344  13.951
67657W        W31865  25.619   8.895   2.404
67658W        W31866  25.991   8.789  12.024
67659W        W31867   9.672  35.986  12.534
67660W        W31868  17.773  37.444  13.507
67661W        W31869  21.592  35.037   0.254
67662W        W31870   5.275  29.664  13.942
67663W        W31871  36.996  40.414   1.324
67664W        W31872  10.828  37.536   2.863
67665W        W31873  24.504  41.480  15.000
67666W        W31874  43.793  22.600   1.442
67667W        W31875  23.516  14.182   3.794
67668W        W31876  33.389   2.795   4.821
67669W        W31877   0.356  39.453   0.780
67670W        W31878   6.827  23.578  11.018
67671W        W31879  27.494   8.258   1.360
67672W        W31880  15.768  22.633  10.086
67673W        W31881  43.419  18.291  10.153
67674W        W31882  37.918  14.776  14.450
67675W        W31883  31.582  18.254  14.485
67676W        W31884  37.084  28.143  12.850
67677W        W31885  27.957  36.408  13.464
67678W        W31886  12.726  29.531  10.600
67679W        W31887  29.066  22.242  10.430
67680W        W31888   2.400  34.454   4.607
67681W        W31889  23.614  26.997  13.349
67682W        W31890  44.291  23.565   2.749
67683W        W31891  21.654  19.096  12.907
67684W        W31892   6.835  13.329   2.192
67685W        W31893  38.566  20.095  14.010
67686W        W31894  24.210  18.577  11.105
67687W        W31895  22.175  28.130   3.341
67688W        W31896  17.284  26.054   0.761
67689W        W31897  29.501  44.940  13.907
67690W        W31898  24.630  22.116  12.857
67691W        W31899   0.787  14.599   0.913
67692W        W31900  11.363  29.426  14.360
67693W        W31901  20.065  30.416  13.513
67694W        W31902   5.220  37.975  11.405
67695W        W31903   8.762  12.692  14.797
67696W        W31904  21.518  40.527   4.805
67697W        W31905  29.632   9.870   1.296
67698W        W31906  41.846  11.636  14.907
67699W        W31907  31.448  26.694   0.917
67700W        W31908  39.054  30.546   2.252
67701W        W31909  16.134   2.741  14.862
67702W        W31910  43.854   8.678  12.031
67703W        W31911  41.394   9.267   2.706
67704W        W31912  22.178  39.039  10.404
67705W        W31913  44.463  41.035   1.840
67706W        W31914  21.606  37.081  12.887
67707W        W31915   8.868  12.310   9.990
67708W        W31916   4.343   3.856   4.276
67709W        W31917   6.878  17.221   0.886
67710W        W31918  31.099  44.782   1.402
67711W        W31919   7.757  33.490  11.035
67712W        W31920   8.885  29.432  13.336
67713W        W31921   4.864  13.734  10.966
67714W        W31922  23.116   3.351  14.928
67715W        W31923   0.849   3.712   1.810
67716W        W31924   9.315  34.971  14.958
67717W        W31925   8.401  26.652   0.263
67718W        W31926  30.547  37.507   3.781
67719W        W31927  36.982  18.261  10.458
67720W        W31928   8.372  25.990  13.988
67721W        W31929  28.581  10.667   4.652
67722W        W31930  10.337  11.845   0.729
67723W        W31931   5.318  11.854   0.861
67724W        W31932  22.080  39.517  11.566
67725W        W31933  31.408  23.987   1.850
67726W        W31934  37.399  14.195  10.492
67727W        W31935  37.838  34.942  14.837
67728W        W31936  39.017  29.950   3.271
67729W        W31937  31.909  24.565   1.833
67730W        W31938  24.513  12.786   1.746
67731W        W31939  20.649  12.300   1.344
67732W        W31940  16.576  36.409   3.387
67733W        W31941  40.403  43.891   1.427
67734W        W31942  23.629  21.033   4.636
67735W        W31943  13.793  39.547   2.730
67736W        W31944  33.465  11.776   5.320
67737W        W31945   3.718   4.782  13.343
67738W        W31946  29.109  41.369   3.364
67739W        W31947  41.400  20.526  14.370
67740W        W31948   8.706  32.453   2.235
67741W        W31949  38.353  12.143   2.240
67742W        W31950   8.657  34.597  11.389
67743W        W31951  13.260  35.883  13.431
67744W        W31952  41.918  28.053  11.887
67745W        W31953   4.845  11.359  10.415
67746W        W31954  22.550   9.299  13.428
67747W        W31955  10.362  11.270   0.886
67748W        W31956   4.249  19.619   4.598
67749W        W31957  41.937   5.923  13.462
67750W        W31958   3.803  18.561  11.515
67751W        W31959  29.120  26.201  12.534
67752W        W31960   7.232   3.232   4.286
67753W        W31961   8.786  35.029  14.345
67754W        W31962  23.532  27.167   4.164
67755W        W31963  22.533  32.982  12.084
67756W        W31964  35.062   8.305  14.032
67757W        W31965  31.092   4.354  13.940
67758W        W31966   5.376  12.217  13.058
67759W        W31967  42.789  28.604   3.757
67760W        W31968  28.489  32.889  13.454
67761W        W31969  13.218   0.913  13.913
67762W        W31970  29.027   3.954   2.849
67763W        W31971  32.408  16.591  11.477
67764W        W31972  35.476  24.532   3.764
67765W        W31973  26.021  13.821   2.740
67766W        W31974  21.257  33.952  13.952
67767W        W31975   2.470  34.415  13.884
67768W        W31976  42.494  27.474  12.404
67769W        W31977  28.501  19.574  11.001
67770W        W31978   1.243  14.239  12.939
67771W        W31979  30.482  18.763  12.522
67772W        W31980  11.178  11.328   2.362
67773W        W31981  31.938  41.971   3.374
67774W        W31982   8.789   1.281  14.298
67775W        W31983  38.889   6.249   4.338
67776W        W31984  26.056  19.286  14.497
67777W        W31985  27.547   7.845  11.875
67778W        W31986   6.881  20.577   4.673
67779W        W31987  24.569  36.920  11.999
67780W        W31988  41.993   4.764  13.004
67781W        W31989  21.552  24.505  13.936
67782W        W31990  18.137   8.190   5.196
67783W        W31991  13.834  33.577  11.865
67784W        W31992  40.023  24.223  12.006
67785W        W31993  30.552  36.400  11.095
67786W        W31994   7.187  37.500  11.499
67787W        W31995   9.684  18.223   2.389
67788W        W31996  18.094  26.460  14.494
67789W        W31997  22.679  26.525  10.891
67790W        W31998   1.821  13.650   0.453
67791W        W31999  17.613  36.373   0.919
67792W        W32000   0.892  40.823   4.610
67793W        W32001  28.437  39.354  14.487
67794W        W32002   2.267  31.472   5.735
67795W        W32003  39.507  32.889   1.853
67796W        W32004  35.053  44.467   3.781
67797W        W32005   7.195  28.931   0.961
67798W        W32006   7.807   5.891   0.766
67799W        W32007  19.059  35.030  10.947
67800W        W32008  37.358  13.187   0.844
67801W        W32009  23.085  35.403   1.338
67802W        W32010  23.173  26.644   5.186
67803W        W32011  33.982  42.969   3.207
67804W        W32012  38.408  22.659  10.540
67805W        W32013  30.940   5.927  10.010
67806W        W32014   9.390  28.992   4.673
67807W        W32015  30.490  36.942  11.093
67808W        W32016  20.715  44.364  12.894
67809W        W32017   8.884  17.234   2.802
67810W        W32018  42.524  30.139  14.448
67811W        W32019  39.386  37.970   4.267
67812W        W32020  13.667  16.811  14.374
67813W        W32021  21.247  28.055   0.835
67814W        W32022  22.065  28.961   0.735
67815W        W32023   2.304  27.520   4.662
67816W        W32024  15.755  12.794   0.289
67817W        W32025  16.169  37.072  14.391
67818W        W32026  22.526   8.879   3.771
67819W        W32027  21.052  40.992   0.331
67820W        W32028  16.719  42.415  14.767
67821W        W32029  17.269   1.472   2.802
67822W        W32030   4.771   9.194  12.866
67823W        W32031  42.011  24.610  12.087
67824W        W32032  16.158  39.045   2.854
67825W        W32033  34.927   3.939  14.793
67826W        W32034   4.769  12.711   1.820
67827W        W32035  14.324  15.289  14.349
67828W        W32036   9.304  37.370  11.109
67829W        W32037  21.034  18.272  14.444
67830W        W32038  30.072  31.076  14.022
67831W        W32039  36.089  17.629  13.974
67832W        W32040   3.329  15.330   1.890
67833W        W32041  31.573   0.815   1.395
67834W        W32042   5.767  29.064  11.064
67835W        W32043   9.387  11.838   4.325
67836W        W32044  19.058   4.911   2.378
67837W        W32045  17.598  32.108   2.817
67838W        W32046  29.939  34.556   3.866
67839W        W32047   4.857  33.445  11.031
67840W        W32048  31.535  32.414  14.882
67841W        W32049  37.986  33.624  14.437
67842W        W32050  14.291   0.793   5.160
67843W        W32051  10.744  27.122  10.904
67844W        W32052  28.104  30.103   4.157
67845W        W32053  34.104   5.208  11.896
67846W        W32054  10.138  40.390  11.566
67847W        W32055  26.119  15.165   4.695
67848W        W32056  40.376  38.823   2.881
67849W        W32057  31.632  39.453  13.361
67850W        W32058   1.445  33.009  10.915
67851W        W32059  19.086  39.921  12.373
67852W        W32060  35.493  24.518   1.384
67853W        W32061  26.483  31.987   1.442
67854W        W32062   0.866  24.068  14.436
67855W        W32063  33.390   1.445   0.816
67856W        W32064  29.497  10.161   5.254
67857W        W32065  39.850  15.251   2.817
67858W        W32066   4.438  14.670  14.418
67859W        W32067  38.439  12.787   1.869
67860W        W32068   2.361  39.479  13.889
67861W        W32069  21.748  12.808   2.301
67862W        W32070  18.223  15.789  14.504
67863W        W32071  27.458  18.180  10.987
67864W        W32072  24.676  10.792   1.322
67865W        W32073  11.246  18.199   1.711
67866W        W32074  35.989  44.281  12.492
67867W        W32075  14.736  41.474   5.218
67868W        W32076  38.969   4.926  12.567
67869W        W32077  14.258  16.769  14.851
67870W        W32078  26.097  43.834  14.025
67871W        W32079  14.760  39.028  10.936
67872W        W32080  30.027   1.241   0.889
67873W        W32081   2.278  26.691   3.731
67874W        W32082  38.507  26.068   1.290
67875W        W32083  19.062  26.519  14.341
67876W        W32084  37.463  22.574  12.379
67877W        W32085  27.532  21.589   3.175
67878W        W32086  34.610  39.508   3.774
67879W        W32087  41.536  19.192  13.339
67880W        W32088  19.717   3.435  12.937
67881W        W32089  15.117   8.387  10.497
67882W        W32090   3.299  38.858  11.050
67883W        W32091   4.800  33.027  11.501
67884W        W32092  18.740   7.290   3.364
67885W        W32093   4.420  19.193   4.323
67886W        W32094  13.689  32.942  13.380
67887W        W32095  32.059   3.752  13.539
67888W        W32096  21.135  16.676   1.811
67889W        W32097  38.928   7.732  10.003
67890W        W32098  33.909   0.839   4.140
67891W        W32099   3.248  25.565  14.885
67892W        W32100  36.506  23.125  14.823
67893W        W32101  38.551  38.899   3.705
67894W        W32102  20.116  44.325   3.345
67895W        W32103  32.619  23.224   2.281
67896W        W32104   7.296  21.541  12.563
67897W        W32105  11.673  42.381   2.695
67898W        W32106  35.457  20.692   3.163
67899W        W32107   0.948   8.806   0.329
67900W        W32108  26.564  36.861   1.808
67901W        W32109  14.203  33.592  12.012
67902W        W32110  22.079  11.783  13.439
67903W        W32111  35.369  39.515   0.401
67904W        W32112  37.365  39.850   1.910
67905W        W32113   3.893  36.866   3.749
67906W        W32114  16.116   1.380  14.856
67907W        W32115  44.793  43.457   2.309
67908W        W32116  27.531  43.343   1.374
67909W        W32117  26.130   0.789  14.838
67910W        W32118  42.446  10.210   1.274
67911W        W32119   2.824  18.235   3.213
67912W        W32120  24.017  43.870  10.507
67913W        W32121  32.478  24.077   2.280
67914W        W32122  31.959  42.860  11.491
67915W        W32123  22.695  15.622   2.689
67916W        W32124  14.691  18.104   2.662
67917W        W32125  24.553  15.167  11.934
67918W        W32126  10.186  19.043  14.907
67919W        W32127  13.171  27.523   1.395
67920W        W32128  34.458   9.381  10.974
67921W        W32129  13.213   7.781  10.503
67922W        W32130  37.356  12.123   3.298
67923W        W32131  14.111  33.537   3.296
67924W        W32132   7.906  41.468  13.459
67925W        W32133  34.419  32.898  12.015
67926W        W32134  26.967  10.746  10.562
67927W        W32135   0.449   8.697  11.049
67928W        W32136  44.295  13.333   1.211
67929W        W32137   6.393  23.576   2.411
67930W        W32138  13.271   4.808   0.876
67931W        W32139   6.858  31.580  14.883
67932W        W32140   1.899  12.230   3.679
67933W        W32141   7.792  27.515  14.885
67934W        W32142  26.584   5.200   3.151
67935W        W32143  29.982  10.797  12.916
67936W        W32144  23.236   6.857   1.320
67937W        W32145  10.651  11.825   3.225
67938W        W32146  25.640   6.218  11.041
67939W        W32147   2.959   2.403  11.380
67940W        W32148   3.243  14.278   0.296
67941W        W32149  31.903  40.931   2.321
67942W        W32150  32.626  36.982   0.892
67943W        W32151  32.422   0.905   2.705
67944W        W32152   4.271  27.577   1.884
67945W        W32153  12.654   8.307  12.487
67946W        W32154  23.592  40.496  10.891
67947W        W32155   7.311   8.391   2.252
67948W        W32156  31.117  21.739  14.966
67949W        W32157  10.209  35.417   2.398
67950W        W32158  14.257   8.213   0.856
67951W        W32159  23.026   6.774  11.453
67952W        W32160  15.285   4.258  10.606
67953W        W32161  41.026  29.055  14.971
67954W        W32162   8.724   3.792  10.420
67955W        W32163  25.973  11.801  13.370
67956W        W32164  21.750  39.908  10.948
67957W        W32165  41.923  28.973  13.478
67958W        W32166   4.817  14.616  11.530
67959W        W32167  25.096  22.615  12.431
67960W        W32168  36.404  37.466  10.159
67961W        W32169  10.775  10.148   3.158
67962W        W32170  11.782  35.861   0.242
67963W        W32171  28.180  36.968  13.926
67964W        W32172   1.963  42.851  10.005
67965W        W32173   6.370   4.717   5.245
67966W        W32174  35.016   3.258   4.251
67967W        W32175   7.801  11.653   2.231
67968W        W32176   1.438  11.204  12.573
67969W        W32177  25.695  24.665   2.389
67970W        W32178   5.380   5.297   0.966
67971W        W32179  11.193  13.210  12.998
67972W        W32180  31.546  24.036  14.872
67973W        W32181  32.581   3.388   0.886
67974W        W32182  12.639  14.261   1.718
67975W        W32183  41.355   4.918  10.599
67976W        W32184   1.272  32.051  10.639
67977W        W32185  17.302  26.473   2.303
67978W        W32186  26.633  42.979   2.759
67979W        W32187  21.043  25.178  13.310
67980W        W32188  38.895   7.824  14.887
67981W        W32189   6.209  12.757   2.413
67982W        W32190  19.668  31.548  10.045
67983W        W32191  24.224  36.891  12.087
67984W        W32192  39.896  19.230   3.770
67985W        W32193  40.920   8.739   2.232
67986W        W32194  15.247  39.421   1.911
67987W        W32195  12.247  31.992  14.030
67988W        W32196  31.571  29.075  14.309
67989W        W32197  21.193  40.314   3.844
67990W        W32198   6.225   8.783  13.864
67991W        W32199  23.578  30.984  14.849
67992W        W32200   5.738  32.572   1.339
67993W        W32201  31.950  25.484   1.831
67994W        W32202  22.043  34.976  13.013
67995W        W32203  11.700  36.504  12.416
67996W        W32204  14.748  26.657   0.853
67997W        W32205   9.800  18.146   1.368
67998W        W32206  28.608   6.314   0.332
67999W        W32207  21.230  18.733   3.340
68000W        W32208  18.768  13.149  13.414
68001W        W32209  36.879  32.987  11.594
68002W        W32210  35.920  25.600  11.860
68003W        W32211  14.607   1.879  11.089
68004W        W32212  11.344  16.311  14.936
68005W        W32213   0.354  29.593  12.028
68006W        W32214  30.431   0.464   0.923
68007W        W32215  22.998   0.772  12.907
68008W        W32216   1.341  18.246   2.758
68009W        W32217   9.738   4.844   2.313
68010W        W32218  32.028  44.309  12.352
68011W        W32219   9.353   8.827  12.428
68012W        W32220  31.566   8.714   2.199
68013W        W32221  25.475  10.281  14.338
68014W        W32222  43.929  33.024  14.018
68015W        W32223  19.204  37.453  14.369
68016W        W32224  21.027  29.452  11.001
68017W        W32225   0.350  33.055  14.373
68018W        W32226   5.337  15.592   1.297
68019W        W32227  16.755  30.103   3.824
68020W        W32228   7.870   4.211   2.350
68021W        W32229  30.076   3.908   1.863
68022W        W32230   3.884  34.066   1.222
68023W        W32231  12.700  21.241   4.603
68024W        W32232  11.728  32.567  14.763
68025W        W32233  39.498  16.591   3.762
68026W        W32234  21.606  32.045  10.943
68027W        W32235  10.633  27.485  12.574
68028W        W32236  38.396  38.918   2.278
68029W        W32237  21.649  28.534   4.234
68030W        W32238  24.710  33.053   4.233
68031W        W32239   3.448  37.005  14.769
68032W        W32240  32.460  40.009   1.818
68033W        W32241  40.865  36.048  13.023
68034W        W32242  44.810  29.485   0.836
68035W        W32243  22.575  23.491   3.690
68036W        W32244  28.060  20.161  13.805
68037W        W32245   8.833  21.551  12.875
68038W        W32246   4.756  10.660  13.334
68039W        W32247  33.006  10.676   4.199
68040W        W32248   8.673  18.210   1.863
68041W        W32249  27.488  16.804  14.875
68042W        W32250  38.992  16.111   1.254
68043W        W32251  37.076  41.305  11.023
68044W        W32252   0.357   2.963  12.471
68045W        W32253   4.349  39.959   1.756
68046W        W32254   8.879  24.115   2.862
68047W        W32255  41.026   3.889  14.354
68048W        W32256  35.534   0.384   2.720
68049W        W32257   5.271  14.174  13.446
68050W        W32258  20.048  13.830  12.991
68051W        W32259  34.447  24.212   3.860
68052W        W32260  22.078  12.322   4.147
68053W        W32261  21.172   3.886  13.885
68054W        W32262  44.822   9.163   2.183
68055W        W32263  14.664  12.187   4.680
68056W        W32264   4.777  25.505   2.178
68057W        W32265  39.501  32.590   4.170
68058W        W32266  36.507  16.110   0.781
68059W        W32267  13.286  13.141  13.497
68060W        W32268  33.543  24.192  12.572
68061W        W32269  18.698  21.609  12.908
68062W        W32270   7.395   7.240  14.850
68063W        W32271   3.715   5.704   4.725
68064W        W32272   8.233  25.628   1.347
68065W        W32273  26.538  13.271  10.446
68066W        W32274  38.917  43.994  10.519
68067W        W32275  43.417  26.620  11.951
68068W        W32276  10.662  31.007  14.952
68069W        W32277  35.898  37.518   1.431
68070W        W32278  28.677  10.817  11.403
68071W        W32279   5.302  20.742   0.863
68072W        W32280   0.939  17.685  13.930
68073W        W32281  29.175  12.340  14.945
68074W        W32282  18.290  21.036   4.800
68075W        W32283   0.385  22.015  11.540
68076W        W32284  39.007  12.193  14.484
68077W        W32285  36.468  34.106  12.568
68078W        W32286  29.925  19.225  12.549
68079W        W32287  20.076   8.188   9.928
68080W        W32288  26.190  42.491   0.955
68081W        W32289  14.655  28.615   3.208
68082W        W32290  10.368  30.574  13.490
68083W        W32291  19.221  16.214  11.382
68084W        W32292   5.349   3.431   0.455
68085W        W32293  37.975  41.918  13.396
68086W        W32294   7.198  27.524   2.328
68087W        W32295  33.978   9.373  11.500
68088W        W32296  30.543  33.542  11.563
68089W        W32297   7.867  21.728   0.891
68090W        W32298  40.537  42.414   0.860
68091W        W32299  44.916  44.843   3.154
68092W        W32300  13.730  33.048   3.701
68093W        W32301  42.377  20.273  11.879
68094W        W32302  41.309  22.241   0.794
68095W        W32303  13.641   5.227  10.407
68096W        W32304  27.016   9.167   0.768
68097W        W32305   5.386  41.895   0.266
68098W        W32306  14.610  37.555  12.858
68099W        W32307  16.669   8.327   1.287
68100W        W32308  42.393  17.792  12.849
68101W        W32309  24.096  41.821  13.058
68102W        W32310  12.697  14.733   3.690
68103W        W32311  21.089  41.830  11.601
68104W        W32312  12.202  12.302   5.318
68105W        W32313  35.365   7.729   2.844
68106W        W32314  11.791  16.708   1.281
68107W        W32315  15.717  34.460  14.407
68108W        W32316  15.585   2.393  14.912
68109W        W32317  42.842  13.789  14.309
68110W        W32318   5.350  26.614  12.553
68111W        W32319  29.945  22.635  12.522
68112W        W32320  15.761  19.135  10.626
68113W        W32321  11.134   3.948  13.989
68114W        W32322  15.084  39.352  14.904
68115W        W32323  14.588  21.677  12.416
68116W        W32324   5.857  18.667   2.676
68117W        W32325   3.327  37.346  12.007
68118W        W32326  33.549  18.131  13.365
68119W        W32327   1.373  19.062   3.359
68120W        W32328  32.012   2.390  11.402
68121W        W32329  21.198  40.433  10.973
68122W        W32330  27.075  21.636   0.747
68123W        W32331  26.587  34.549  10.106
68124W        W32332  16.305  29.485  10.471
68125W        W32333   9.227  13.116  10.898
68126W        W32334  14.738  13.690  12.083
68127W        W32335   0.930  29.011  12.429
68128W        W32336  22.028  36.946  14.795
68129W        W32337  25.688  43.984   3.218
68130W        W32338  30.961  41.878   1.920
68131W        W32339  15.695  34.985  11.898
68132W        W32340  10.757  16.142   9.577
68133W        W32341  41.861   0.413   4.342
68134W        W32342  15.122  36.575  14.828
68135W        W32343   7.344  19.068  14.883
68136W        W32344  17.295  40.978   0.262
68137W        W32345   8.812  41.008   2.701
68138W        W32346  30.460  28.985   3.248
68139W        W32347  41.321  36.387   1.701
68140W        W32348  14.643  30.462  14.944
68141W        W32349  10.324  36.473  12.945
68142W        W32350  27.991  27.947  12.407
68143W        W32351  15.655  23.221   1.341
68144W        W32352  13.711  24.496  11.954
68145W        W32353   1.933  31.040  13.820
68146W        W32354  19.046  15.131   1.829
68147W        W32355  40.511  14.601   4.805
68148W        W32356  25.532  35.872  11.577
68149W        W32357   8.368  41.384   2.399
68150W        W32358  41.894  31.938  11.863
68151W        W32359  23.530  38.043   0.429
68152W        W32360   4.938  39.977   1.712
68153W        W32361   6.914  34.546  14.857
68154W        W32362  21.601  13.766   4.751
68155W        W32363   9.877  26.128  11.024
68156W        W32364  15.257   4.733  10.478
68157W        W32365  20.168  11.765   1.714
68158W        W32366  36.057  27.170   3.257
68159W        W32367  29.115  27.132  12.555
68160W        W32368  15.714  27.983  14.930
68161W        W32369  30.909  37.374  10.020
68162W        W32370  36.529  30.965   0.866
68163W        W32371   3.278  20.257   4.693
68164W        W32372  18.626  11.656  14.881
68165W        W32373  41.419   6.255  11.107
68166W        W32374  40.440  40.549  13.056
68167W        W32375  31.607  31.073   0.837
68168W        W32376  38.505  21.667  13.524
68169W        W32377  35.492   1.346   1.284
68170W        W32378  31.642  42.032   1.740
68171W        W32379  16.225  10.283  12.359
68172W        W32380  26.187  31.906   2.697
68173W        W32381  23.169  17.250  12.341
68174W        W32382  10.730  40.911   4.136
68175W        W32383  19.717   3.344  11.590
68176W        W32384  13.797   8.682  14.449
68177W        W32385  36.560  24.717   3.657
68178W        W32386   5.275  29.975  13.423
68179W        W32387  39.943  21.574   1.440
68180W        W32388  21.566  37.079  12.512
68181W        W32389  29.532   1.398  12.039
68182W        W32390  25.146  20.614   1.253
68183W        W32391  31.602  16.153   3.823
68184W        W32392   1.927  16.105   4.793
68185W        W32393  31.629  29.655  13.389
68186W        W32394  28.644  22.717  12.485
68187W        W32395  39.541  12.790   1.859
68188W        W32396  22.560   3.448   5.307
68189W        W32397  35.539  29.501   2.662
68190W        W32398  10.809  30.045   2.273
68191W        W32399  11.801  32.036  13.028
68192W        W32400  32.906  25.639  12.081
68193W        W32401  40.033  40.419  10.911
68194W        W32402  30.952  23.096  14.977
68195W        W32403  30.468  37.869   2.838
68196W        W32404  23.491  15.660  13.827
68197W        W32405  43.364   3.436  13.977
68198W        W32406  29.149  16.595  11.395
68199W        W32407   3.871  19.282   3.705
68200W        W32408  34.085  15.122   2.859
68201W        W32409  28.589  41.340   2.778
68202W        W32410  21.602  16.317   9.941
68203W        W32411   8.187  37.520   2.827
68204W        W32412  22.163  27.152   4.721
68205W        W32413  16.136  37.432  13.995
68206W        W32414  30.492   3.366   2.349
68207W        W32415  23.734  38.500  11.938
68208W        W32416  44.821  11.634   1.863
68209W        W32417  13.685  33.129   2.257
68210W        W32418  25.050  16.210   2.875
68211W        W32419  22.541  42.875   2.304
68212W        W32420  20.173  44.846   4.669
68213W        W32421  33.952  41.427   0.854
68214W        W32422  29.520  13.752   2.255
68215W        W32423   1.972  27.682  11.091
68216W        W32424  28.484   9.317  14.433
68217W        W32425  19.613  39.028  12.050
68218W        W32426  22.102  32.944  13.890
68219W        W32427  16.801   5.925  13.400
68220W        W32428  42.980  34.495   3.866
68221W        W32429   2.963  14.106   0.730
68222W        W32430  41.458  19.161   1.739
68223W        W32431   8.175  22.717  13.539
68224W        W32432  22.175  44.009   2.758
68225W        W32433  44.323   8.661  13.038
68226W        W32434  21.712  29.982   2.841
68227W        W32435  18.640  13.803   4.349
68228W        W32436   5.333  40.049  11.064
68229W        W32437  10.839   1.849   2.299
68230W        W32438  27.512  40.334   3.770
68231W        W32439   8.715  32.114  12.877
68232W        W32440  15.754  18.113   2.886
68233W        W32441  22.037   9.331   0.295
68234W        W32442  15.166  18.702  11.398
68235W        W32443  36.891   8.252  11.861
68236W        W32444  20.047   4.916  12.959
68237W        W32445  10.773  18.787  11.573
68238W        W32446   5.300  41.961  12.001
68239W        W32447   7.769  30.557  13.007
68240W        W32448  39.479   4.759   4.193
68241W        W32449   2.444  25.707  10.536
68242W        W32450  36.065   0.828   5.295
68243W        W32451  11.352  13.341   1.922
68244W        W32452  32.443  31.916   0.765
68245W        W32453  33.416  30.930  14.781
68246W        W32454  25.070  43.876   0.807
68247W        W32455  10.874  19.208   0.324
68248W        W32456   0.410  27.196  10.987
68249W        W32457  33.126  20.192   4.808
68250W        W32458  33.042  40.926   1.314
68251W        W32459  30.492   1.783   0.945
68252W        W32460  16.791  34.533  11.452
68253W        W32461  36.359  25.987   3.781
68254W        W32462   6.348  44.931   4.200
68255W        W32463  30.544  20.606   3.275
68256W        W32464  22.634  44.984  11.495
68257W        W32465  17.071   4.792  12.084
68258W        W32466  43.817  19.245   3.228
68259W        W32467   8.312  20.097   2.770
68260W        W32468  31.925  37.526   3.781
68261W        W32469  18.715  36.016   0.260
68262W        W32470  31.508  35.925  12.836
68263W        W32471   6.226  11.177  11.520
68264W        W32472  33.942   8.771  11.086
68265W        W32473   6.258  39.518   4.727
68266W        W32474  37.458   6.723  12.084
68267W        W32475  18.549  41.984   0.786
68268W        W32476  31.415  33.990   0.952
68269W        W32477  20.622   8.765  14.385
68270W        W32478  44.975   1.764   0.773
68271W        W32479  43.303  43.303   2.798
68272W        W32480  28.028  12.651  13.525
68273W        W32481  14.599  13.331  14.292
68274W        W32482   1.905   0.911   1.912
68275W        W32483  23.104  17.269  11.916
68276W        W32484   4.808  18.215   1.865
68277W        W32485  20.032  16.075   0.921
68278W        W32486  31.611  27.999   2.344
68279W        W32487   4.405  28.532   1.310
68280W        W32488  21.575   9.730  11.587
68281W        W32489  27.089   0.422  13.504
68282W        W32490  37.913   9.305  13.947
68283W        W32491  33.984  36.405   2.389
68284W        W32492   0.412  22.542   4.157
68285W        W32493  41.833  31.431  11.448
68286W        W32494  30.972  33.624   2.896
68287W        W32495  39.369  15.666  12.405
68288W        W32496   2.328  15.284   3.155
68289W        W32497  20.232   3.324  10.089
68290W        W32498  11.844  15.752   3.800
68291W        W32499  21.738  10.643   1.271
68292W        W32500  14.714   3.249   4.303
68293W        W32501  34.464  10.678   4.127
68294W        W32502  26.149  36.847  13.937
68295W        W32503   6.354  17.632  11.576
68296W        W32504   0.476  43.820  13.875
68297W        W32505  42.473  37.036  11.980
68298W        W32506  42.862  14.119   0.356
68299W        W32507  43.911  11.835   2.361
68300W        W32508  14.714  23.587  13.335
68301W        W32509   5.284   2.253   0.856
68302W        W32510  16.295   1.899  11.062
68303W        W32511   3.337  11.236   3.323
68304W        W32512   3.788  33.408   3.850
68305W        W32513  10.318  35.547   1.425
68306W        W32514   4.228  35.081   3.768
68307W        W32515  27.118  35.927  14.949
68308W        W32516  16.707  38.375  11.080
68309W        W32517  36.873  10.202  13.894
68310W        W32518  31.510  11.623  11.541
68311W        W32519  29.458  28.057   3.214
68312W        W32520  13.693  14.820  12.941
68313W        W32521  43.008   6.182  13.460
68314W        W32522  42.411   4.828  11.401
68315W        W32523  28.142   2.390   1.285
68316W        W32524  34.995  36.911   4.648
68317W        W32525  38.562  16.641   0.914
68318W        W32526  23.691   4.241  13.060
68319W        W32527  26.026  26.520   2.776
68320W        W32528   5.776  15.177  13.489
68321W        W32529  28.146  26.049   0.822
68322W        W32530  44.891  31.899   2.384
68323W        W32531  12.248  39.474   4.786
68324W        W32532  37.512  25.674   3.829
68325W        W32533  26.699  19.618   3.233
68326W        W32534  33.097   7.290  13.408
68327W        W32535  28.020  15.820  10.999
68328W        W32536  18.134  21.672  12.511
68329W        W32537   7.775  39.989  10.077
68330W        W32538  32.061  14.613   5.697
68331W        W32539  42.428   8.396  11.420
68332W        W32540   3.272  27.002   1.922
68333W        W32541  27.560   4.906  12.011
68334W        W32542  21.198  21.676  14.840
68335W        W32543  23.671  43.341  14.814
68336W        W32544  39.039  25.131  14.795
68337W        W32545  24.207  27.662  11.476
68338W        W32546  11.212  23.054  11.994
68339W        W32547  10.212  28.483  13.517
68340W        W32548  42.911   9.691   1.855
68341W        W32549  26.457  28.038   0.379
68342W        W32550   2.779  32.550   3.193
68343W        W32551  13.728  11.672   3.359
68344W        W32552   6.894  21.701  13.505
68345W        W32553  30.616  37.015  13.855
68346W        W32554  25.069   1.918  14.960
68347W        W32555  21.197  21.622   2.313
68348W        W32556  40.934  18.787  13.987
68349W        W32557  15.109  42.828   0.407
68350W        W32558  17.300   9.723   3.376
68351W        W32559   9.687  31.918   3.724
68352W        W32560  29.529  10.866  11.600
68353W        W32561  13.332  13.327  11.591
68354W        W32562  22.064  37.346   2.883
68355W        W32563  40.496  32.952  11.103
68356W        W32564  41.917  26.697  14.871
68357W        W32565  31.585   6.398   1.716
68358W        W32566   4.824  28.104   0.455
68359W        W32567  37.502  40.003  11.564
68360W        W32568  33.470  23.041  12.444
68361W        W32569  16.159  26.995  13.341
68362W        W32570  16.156   5.293  12.420
68363W        W32571  11.754  11.218  10.639
68364W        W32572  32.932  30.155  14.345
68365W        W32573  11.692  31.426  13.857
68366W        W32574   3.789  30.456  11.031
68367W        W32575  20.643  37.989   2.379
68368W        W32576  27.527  28.097   1.406
68369W        W32577  25.509  10.238  10.110
68370W        W32578  10.244   6.376   0.311
68371W        W32579  32.031  27.081  13.808
68372W        W32580  29.480  28.172   9.944
68373W        W32581   1.961  11.712  12.094
68374W        W32582   2.310  15.715  12.966
68375W        W32583  28.096  37.990   3.230
68376W        W32584  16.669  10.203   2.332
68377W        W32585  34.952  11.735   0.254
68378W        W32586  20.685  32.482   4.315
68379W        W32587  27.034   2.924  12.510
68380W        W32588  22.226  28.499   3.182
68381W        W32589   9.739  12.316  13.882
68382W        W32590  33.976   3.823   1.779
68383W        W32591  34.986  19.140  13.833
68384W        W32592  31.970  27.607  12.462
68385W        W32593  34.380  43.303   0.773
68386W        W32594   1.739  24.098   3.807
68387W        W32595  11.861  13.129  13.536
68388W        W32596  26.058  42.022   0.857
68389W        W32597  32.597  25.968   1.402
68390W        W32598  32.973  10.751  13.848
68391W        W32599  42.282  33.115  10.541
68392W        W32600  20.697  29.647  10.585
68393W        W32601   4.263  32.616  14.970
68394W        W32602   5.737  42.284   3.267
68395W        W32603  37.341   5.747   1.420
68396W        W32604   0.833  28.447   1.770
68397W        W32605  15.328  20.233   2.745
68398W        W32606  40.533  41.917  13.883
68399W        W32607  34.411  22.147   1.331
68400W        W32608  36.002  41.518   2.733
68401W        W32609  14.625  43.897  11.554
68402W        W32610  25.661  10.338  11.422
68403W        W32611  22.539  43.313   0.863
68404W        W32612  19.246  28.655  10.608
68405W        W32613  13.681   6.860   2.264
68406W        W32614  29.455  24.532   3.636
68407W        W32615  25.503  21.670  13.511
68408W        W32616   7.769  28.088  13.908
68409W        W32617   4.807  40.923  11.087
68410W        W32618  44.497  26.561   5.192
68411W        W32619  38.329   0.351  14.771
68412W        W32620   0.296   1.936  11.932
68413W        W32621  23.165  38.941   2.188
68414W        W32622  32.508  23.695   0.374
68415W        W32623  41.929   1.964  12.966
68416W        W32624  16.797  41.425  14.808
68417W        W32625  42.859  35.880   1.891
68418W        W32626  17.304  39.002  14.372
68419W        W32627  24.610  10.746  10.469
68420W        W32628   1.285  29.594  10.067
68421W        W32629  42.876   1.253   1.908
68422W        W32630   0.745   9.259  11.565
68423W        W32631  43.453   3.823   0.859
68424W        W32632   7.235  38.530   0.471
68425W        W32633  27.043  43.992  13.489
68426W        W32634  38.433   2.422  14.378
68427W        W32635   7.734  16.733  11.996
68428W        W32636  44.767  21.166  11.493
68429W        W32637  18.060  22.674   1.864
68430W        W32638   1.302  17.590   2.831
68431W        W32639   7.738  42.914   4.705
68432W        W32640  42.352   4.302   5.094
68433W        W32641  14.673  18.154   4.355
68434W        W32642  10.667  28.976   0.754
68435W        W32643  32.960   1.961  12.559
68436W        W32644  36.403  42.846  11.091
68437W        W32645  44.780  20.619   4.256
68438W        W32646  13.819  34.963   2.849
68439W        W32647  27.662  20.735   0.736
68440W        W32648  15.112  28.522  12.091
68441W        W32649  37.412  14.803  14.803
68442W        W32650   6.717   3.741  11.580
68443W        W32651  26.685  25.674  13.345
68444W        W32652  11.641  24.158   3.702
68445W        W32653  14.806  29.598  13.386
68446W        W32654   5.237  34.997  11.945
68447W        W32655  44.835  14.625  12.961
68448W        W32656   5.417  11.731   4.714
68449W        W32657  36.073  32.571  14.906
68450W        W32658  21.602  23.589   1.443
68451W        W32659  35.394  34.469  12.992
68452W        W32660  13.795   7.909   0.846
68453W        W32661  38.960  14.206   0.373
68454W        W32662  18.120  18.158  13.391
68455W        W32663   9.318  11.166  12.377
68456W        W32664  17.635  26.092   3.782
68457W        W32665  44.263  32.050   1.847
68458W        W32666  18.158  39.389   4.700
68459W        W32667  28.049  30.587  12.448
68460W        W32668  31.434  24.091   3.740
68461W        W32669  36.084  35.557  14.487
68462W        W32670  23.021   0.979   0.359
68463W        W32671   3.928  43.272  13.404
68464W        W32672  23.649  38.341   3.730
68465W        W32673   4.848   6.866  10.404
68466W        W32674  23.724   8.666  14.765
68467W        W32675  44.755  29.549  10.953
68468W        W32676  31.094  28.436   0.404
68469W        W32677  13.809  20.215  11.893
68470W        W32678  18.568   1.452  13.796
68471W        W32679  15.622  12.854   3.239
68472W        W32680  36.504  35.089  14.427
68473W        W32681  17.801  22.197  14.965
68474W        W32682  36.984  18.657  12.983
68475W        W32683  23.637  34.550   2.402
68476W        W32684  17.661  39.322  14.422
68477W        W32685  33.601  16.102   1.268
68478W        W32686  40.396  44.319   0.450
68479W        W32687  43.986  15.297  10.940
68480W        W32688  33.987  34.596  13.873
68481W        W32689  25.713   9.655   0.339
68482W        W32690  43.494  15.624  11.910
68483W        W32691  40.024   7.858   0.727
68484W        W32692   9.733  19.173   4.606
68485W        W32693  17.573  14.772   3.813
68486W        W32694  43.341   7.303   4.194
68487W        W32695  38.567  41.528   3.659
68488W        W32696  26.033  43.354  11.015
68489W        W32697  41.950  20.671  12.911
68490W        W32698  14.679  29.483  12.843
68491W        W32699  17.181  11.755  13.858
68492W        W32700  19.215  32.063   0.415
68493W        W32701   3.720   5.336  11.972
68494W        W32702  43.445  24.544  12.983
68495W        W32703  14.624   0.274  11.089
68496W        W32704   1.377  38.360  11.024
68497W        W32705  25.174   5.352   1.696
68498W        W32706  29.433   4.725  10.054
68499W        W32707  36.433   0.406   0.848
68500W        W32708  13.706  43.878   0.355
68501W        W32709   2.311  35.443   0.903
68502W        W32710   4.752  19.743  13.532
68503W        W32711  12.805   6.421  12.937
68504W        W32712  28.071  44.763   4.796
68505W        W32713  15.220  34.429   0.376
68506W        W32714  26.654  25.110  14.418
68507W        W32715  22.556   1.313   0.903
68508W        W32716  18.619   5.419  14.016
68509W        W32717  25.062  28.483  11.581
68510W        W32718   4.338  15.709  11.549
68511W        W32719  10.347   3.412  10.133
68512W        W32720  32.063  25.048   0.889
68513W        W32721   0.415  21.569   3.675
68514W        W32722  24.591   8.737  14.915
68515W        W32723  25.197  23.192  11.934
68516W        W32724   8.714   8.725  14.850
68517W        W32725  41.461  26.579   4.800
68518W        W32726  29.467  25.204  13.022
68519W        W32727  36.563  31.906  10.150
68520W        W32728  20.197  18.733  14.862
68521W        W32729  31.059  19.584  13.954
68522W        W32730  10.298  42.399   1.327
68523W        W32731  40.523  29.568   4.223
68524W        W32732  32.559  29.635   2.316
68525W        W32733  20.691  31.093   2.374
68526W        W32734  39.552  43.508   1.289
68527W        W32735   5.330   2.284   4.197
68528W        W32736  20.589  38.376   9.594
68529W        W32737  11.801  21.527  10.893
68530W        W32738  10.768   0.806  13.400
68531W        W32739  27.953  11.623  10.564
68532W        W32740  41.822  34.549  12.521
68533W        W32741  23.507   4.425   1.739
68534W        W32742  41.865  39.057  14.318
68535W        W32743  29.121   9.261   0.817
68536W        W32744   9.159   4.862   3.813
68537W        W32745   2.368  32.093   1.721
68538W        W32746  33.899  43.326  11.004
68539W        W32747  40.499  29.640  12.870
68540W        W32748   1.807  19.611   4.240
68541W        W32749  33.483  16.689  14.471
68542W        W32750  15.095  38.564   4.343
68543W        W32751  19.673  17.099  11.465
68544W        W32752  39.932   8.881   2.732
68545W        W32753  41.508  25.213  12.450
68546W        W32754  36.940  35.388   3.806
68547W        W32755  29.149  41.919  14.875
68548W        W32756  21.752  25.157  12.922
68549W        W32757  18.585  30.159  13.056
68550W        W32758  26.098  22.051  13.404
68551W        W32759  14.281  12.765  14.895
68552W        W32760  23.087   1.774   0.875
68553W        W32761  11.722  42.841  10.040
68554W        W32762  35.567  11.183   3.748
68555W        W32763   6.297  18.116  13.856
68556W        W32764  43.305  28.085   2.851
68557W        W32765   8.373  17.094   2.251
68558W        W32766  31.030  25.984   2.415
68559W        W32767  14.238   6.866   4.606
68560W        W32768  38.561  42.408   3.271
68561W        W32769  21.517   9.340   1.375
68562W        W32770  28.540  16.304  13.034
68563W        W32771  33.403  24.188   2.204
68564W        W32772  10.253  30.473  14.447
68565W        W32773  31.904  25.032  14.925
68566W        W32774  31.972  44.289   2.411
68567W        W32775  14.801  11.843  10.090
68568W        W32776  11.646   1.296  14.832
68569W        W32777  36.079  21.103  11.591
68570W        W32778  23.657   3.369  13.848
68571W        W32779  36.004  15.734   0.343
68572W        W32780   9.247  39.543   2.760
68573W        W32781  38.004  39.521  10.434
68574W        W32782  33.467  27.176   3.762
68575W        W32783  35.379  28.172   3.200
68576W        W32784  27.484   7.845   1.842
68577W        W32785  39.926   4.785   4.836
68578W        W32786  42.303  25.669  13.035
68579W        W32787  27.183   7.812  13.973
68580W        W32788  20.265  32.394   3.645
68581W        W32789  39.936  25.539  11.976
68582W        W32790   9.659   3.432   1.905
68583W        W32791  17.080  24.974  11.017
68584W        W32792  34.576  15.118   2.700
68585W        W32793   1.295  32.619  14.465
68586W        W32794  18.638  41.968   0.376
68587W        W32795  19.640  11.861   3.257
68588W        W32796  25.660  42.461  14.503
68589W        W32797  17.705  41.420  11.050
68590W        W32798  29.515  17.559   4.714
68591W        W32799  14.686  28.992  12.479
68592W        W32800   0.442  39.420   4.759
68593W        W32801  35.089  32.504   1.819
68594W        W32802  18.733   3.861  12.032
68595W        W32803  23.575  32.939  12.353
68596W        W32804  10.724  17.305   0.353
68597W        W32805  27.106  20.050   2.793
68598W        W32806  20.528  29.040  12.410
68599W        W32807  20.111  43.828  13.504
68600W        W32808   5.889  23.541   3.219
68601W        W32809  29.982  30.636  11.527
68602W        W32810  40.983  28.468   4.782
68603W        W32811  39.886   9.680   4.796
68604W        W32812  28.078  31.071   9.952
68605W        W32813  10.672  22.214   0.248
68606W        W32814  29.587  39.489  11.962
68607W        W32815  34.536  14.252  14.338
68608W        W32816   9.204  38.869  13.797
68609W        W32817  12.313  30.474   0.760
68610W        W32818  44.366  39.342  12.058
68611W        W32819  20.170  21.023  11.484
68612W        W32820  27.155  35.498  14.980
68613W        W32821  29.149  34.514   4.684
68614W        W32822  44.342  23.534  13.959
68615W        W32823  10.671  31.470   3.326
68616W        W32824  20.217  15.792   5.172
68617W        W32825   8.841  37.449  12.015
68618W        W32826  42.331   5.195  13.345
68619W        W32827  25.633  29.633  13.810
68620W        W32828  40.321  36.851  13.971
68621W        W32829  23.527  42.881  10.963
68622W        W32830  15.179  12.251  11.444
68623W        W32831  28.034  14.289   1.300
68624W        W32832  39.546  29.502   2.894
68625W        W32833  13.829   7.716   1.322
68626W        W32834  31.928  10.173  12.512
68627W        W32835  18.199   3.293  13.368
68628W        W32836   4.339  20.537  13.054
68629W        W32837  38.386  35.474  11.509
68630W        W32838  38.880   0.455  11.088
68631W        W32839  10.299  10.286  12.573
68632W        W32840  35.407  23.563  12.945
68633W        W32841   1.310  29.127   2.326
68634W        W32842   9.184   2.887  13.043
68635W        W32843  43.978  17.302   1.314
68636W        W32844  31.102   4.815  10.448
68637W        W32845  12.252  40.865   2.728
68638W        W32846  17.745  18.271  14.302
68639W        W32847  39.495   4.809   1.779
68640W        W32848  24.496   1.415   3.270
68641W        W32849  44.423  23.232  11.883
68642W        W32850  34.029  28.633   3.719
68643W        W32851  11.249   6.903  11.119
68644W        W32852  10.231   5.235   2.870
68645W        W32853  18.778   6.210  14.838
68646W        W32854  18.686   5.738  11.445
68647W        W32855  39.534  36.985  14.909
68648W        W32856  42.393  25.017  13.944
68649W        W32857  30.909  22.150  14.414
68650W        W32858  43.473   2.277  14.336
68651W        W32859   3.381  29.126  10.642
68652W        W32860  42.425  11.624   4.136
68653W        W32861  41.902  41.884   4.646
68654W        W32862   9.297  29.056   1.320
68655W        W32863   1.847  12.264   3.223
68656W        W32864   0.868  21.688   2.350
68657W        W32865  34.957  39.393  13.436
68658W        W32866  10.777  40.527  11.886
68659W        W32867  18.231   4.897   5.099
68660W        W32868  26.561  34.895  10.631
68661W        W32869  13.329  12.340   4.716
68662W        W32870  23.671  38.381   1.429
68663W        W32871  23.625  29.934   1.767
68664W        W32872  11.633  21.739  14.459
68665W        W32873   8.706  12.786   1.918
68666W        W32874  22.629  18.687   1.736
68667W        W32875   6.922  26.561   2.866
68668W        W32876  29.145  33.422   2.739
68669W        W32877   3.445  17.105  12.019
68670W        W32878   8.852  31.110  12.443
68671W        W32879  30.551   5.370  13.475
68672W        W32880  34.482   9.671   1.718
68673W        W32881   7.695  41.926   2.728
68674W        W32882  34.049   3.949   2.419
68675W        W32883  24.530   9.666  14.873
68676W        W32884  33.444   2.882   1.298
68677W        W32885   7.193  44.889   2.699
68678W        W32886  16.717  13.690  14.384
68679W        W32887   7.417   4.774   1.398
68680W        W32888  44.319  25.586  11.457
68681W        W32889  17.583   4.280   4.344
68682W        W32890   7.799  28.564   3.853
68683W        W32891  21.668  44.387   4.351
68684W        W32892   3.267  10.278   4.667
68685W        W32893  10.173  39.046  13.906
68686W        W32894   2.932  31.934  12.488
68687W        W32895   2.459  31.968  10.936
68688W        W32896  43.441  28.648  12.043
68689W        W32897  31.954  30.433   3.739
68690W        W32898  16.238  31.547  13.973
68691W        W32899  41.883  32.454  11.557
68692W        W32900  17.655  16.093  11.971
68693W        W32901   7.760  25.506   2.785
68694W        W32902  44.262  29.160   2.229
68695W        W32903  38.517  44.308   4.114
68696W        W32904  13.226  34.480   2.340
68697W        W32905  30.149  25.674  12.362
68698W        W32906  30.491  19.202  14.496
68699W        W32907  25.158   5.763   3.644
68700W        W32908  25.989  12.248  12.450
68701W        W32909  33.519  24.991   1.837
68702W        W32910  14.175   4.341   3.246
68703W        W32911  25.471  33.022  14.317
68704W        W32912  18.053  17.279   3.824
68705W        W32913  38.879  30.071  11.459
68706W        W32914  22.164   9.802  13.855
68707W        W32915  30.911  12.173   3.767
68708W        W32916  16.596  15.127   0.879
68709W        W32917  40.466  13.690   1.885
68710W        W32918  38.924  25.103   2.297
68711W        W32919  32.426   4.716   3.654
68712W        W32920  25.168  39.529  14.967
68713W        W32921  38.404  37.845  13.442
68714W        W32922   2.241  25.576   1.221
68715W        W32923   7.806  14.622   2.270
68716W        W32924  14.647  44.431   3.245
68717W        W32925   9.844  35.374  14.777
68718W        W32926  21.151  14.304  13.445
68719W        W32927  23.132   6.922   3.301
68720W        W32928  30.423  42.901  10.557
68721W        W32929  14.609  11.635  13.975
68722W        W32930   9.755  32.961  13.877
68723W        W32931  42.982  19.043  10.030
68724W        W32932  35.427  29.984  13.453
68725W        W32933  11.288  28.672  14.851
68726W        W32934  40.861  10.322  13.334
68727W        W32935  44.465  36.065   1.900
68728W        W32936  40.510  14.650  11.038
68729W        W32937  41.470  22.150  14.919
68730W        W32938  18.137  10.793  10.541
68731W        W32939  20.610  44.010   2.305
68732W        W32940   3.786  31.418  10.611
68733W        W32941   0.909   9.361   3.273
68734W        W32942   1.936  44.397   2.389
68735W        W32943  15.295  12.645   3.242
68736W        W32944  12.261   9.333  10.574
68737W        W32945  40.411   9.375  11.453
68738W        W32946  17.680  10.141  12.079
68739W        W32947  26.124  29.446  14.469
68740W        W32948  35.388  29.998  12.517
68741W        W32949  36.583  41.035  12.365
68742W        W32950  23.651   0.285  14.006
68743W        W32951  29.446  23.138   3.695
68744W        W32952  24.990  40.919  12.006
68745W        W32953  28.653  39.967   3.641
68746W        W32954  42.316  31.081  10.418
68747W        W32955   1.875   6.423   2.361
68748W        W32956   3.416  18.698   0.262
68749W        W32957  27.454  34.527  10.907
68750W        W32958  14.239  44.887   1.744
68751W        W32959  30.525  12.166   4.221
68752W        W32960   6.782   4.298   4.257
68753W        W32961  29.619  17.735   0.418
68754W        W32962  32.548   7.772  13.350
68755W        W32963  20.672  15.800  11.091
68756W        W32964  18.229  39.968  10.013
68757W        W32965   1.274  39.399  13.003
68758W        W32966  25.707  42.775   0.849
68759W        W32967  41.324   0.869   0.341
68760W        W32968   7.315  14.316  10.442
68761W        W32969  24.505  24.066  13.028
68762W        W32970  17.771  33.401  10.935
68763W        W32971  25.210  11.779   2.732
68764W        W32972  32.928  34.500   4.634
68765W        W32973  25.034   6.299   0.956
68766W        W32974  38.955  44.330  13.387
68767W        W32975  41.387  42.427   1.880
68768W        W32976  22.048  36.388   3.712
68769W        W32977  13.188   2.945   1.247
68770W        W32978  36.519  28.085   2.269
68771W        W32979  36.865   3.748   1.266
68772W        W32980   2.387  44.333   3.705
68773W        W32981  15.782  43.975  13.429
68774W        W32982  34.014   3.788  13.925
68775W        W32983   7.783   6.743   4.318
68776W        W32984  27.161  33.992  11.532
68777W        W32985   0.323  32.569  14.009
68778W        W32986   6.320  29.963  14.355
68779W        W32987  21.032  11.128  11.977
68780W        W32988   0.878  25.508   1.780
68781W        W32989  36.847  17.086  14.498
68782W        W32990  24.577  38.570   2.809
68783W        W32991  44.840  21.149  10.916
68784W        W32992  28.525  35.365  12.401
68785W        W32993   2.775  42.823  12.484
68786W        W32994  24.116  42.955  11.577
68787W        W32995  20.089   3.315   1.839
68788W        W32996  26.668  40.033  12.838
68789W        W32997  38.456  42.441   0.380
68790W        W32998  20.244   3.417   2.374
68791W        W32999  26.685  36.069  14.933
68792W        W33000  41.817  43.818  13.937
68793W        W33001  17.797  30.501  12.051
68794W        W33002  26.013  15.156  14.813
68795W        W33003  28.531  38.910  11.435
68796W        W33004  14.311  24.564   4.743
68797W        W33005  32.901   9.844   1.836
68798W        W33006  12.124   4.783   1.710
68799W        W33007   9.350  38.499   1.260
68800W        W33008  29.545  13.144  13.875
68801W        W33009  12.617  23.046  13.894
68802W        W33010  23.558   9.870   4.270
68803W        W33011  17.769   1.736  13.056
68804W        W33012  10.246  19.226   2.247
68805W        W33013  37.080  37.433  14.956
68806W        W33014  14.244  14.254   2.347
68807W        W33015  28.053  14.312  12.341
68808W        W33016   9.207  14.254   1.237
68809W        W33017  44.375  11.795  12.484
68810W        W33018  27.028  44.763   2.245
68811W        W33019  11.175   3.223   2.741
68812W        W33020  22.583  11.844   2.709
68813W        W33021  37.460  21.653   2.850
68814W        W33022   5.301  23.006  12.349
68815W        W33023  23.643  13.643  12.577
68816W        W33024   8.274  21.058   1.392
68817W        W33025   1.945   3.387   9.974
68818W        W33026  31.584   0.285  12.530
68819W        W33027  27.154  19.240  12.057
68820W        W33028   5.316   3.401  14.020
68821W        W33029  34.118  19.678   3.300
68822W        W33030  37.920  30.074   1.888
68823W        W33031  41.914   1.393   4.790
68824W        W33032  24.672   9.374   3.660
68825W        W33033  16.131  42.872  10.480
68826W        W33034  22.664  27.128  12.518
68827W        W33035   2.963  37.481  10.432
68828W        W33036  21.076   4.731   3.706
68829W        W33037   4.862   6.204   1.860
68830W        W33038  29.957   9.302  14.303
68831W        W33039  34.078  19.722   2.219
68832W        W33040  10.720   6.688   3.655
68833W        W33041   0.444   1.843  12.436
68834W        W33042  43.444  28.549   2.329
68835W        W33043  39.952  40.413   3.868
68836W        W33044  24.639   0.354   0.334
68837W        W33045  12.632  32.623   2.777
68838W        W33046  35.062  43.951  14.792
68839W        W33047  13.777  34.557  12.456
68840W        W33048  38.413   4.893  11.123
68841W        W33049  41.518  25.604  13.001
68842W        W33050  41.358   5.931  14.422
68843W        W33051  31.555  18.115  13.524
68844W        W33052  14.169  38.991  11.560
68845W        W33053   0.949  22.158   0.411
68846W        W33054  36.375  13.120  11.072
68847W        W33055  43.996  38.342  13.971
68848W        W33056  10.767  35.558  14.001
68849W        W33057  25.663  41.923  11.003
68850W        W33058  16.687   8.863   4.236
68851W        W33059   5.438   6.358  13.862
68852W        W33060  25.047  28.515  13.523
68853W        W33061   8.326  10.690  12.475
68854W        W33062  10.639  18.154  12.496
68855W        W33063  13.147   8.770  14.394
68856W        W33064  30.920  19.589   2.677
68857W        W33065  33.937   8.336  13.017
68858W        W33066  15.685  16.750   1.413
68859W        W33067  25.607  39.877   0.728
68860W        W33068  44.996  23.202  11.023
68861W        W33069  41.830   5.781   3.377
68862W        W33070  22.525  34.911   2.263
68863W        W33071   3.709   1.391  14.876
68864W        W33072  16.249  38.037  11.912
68865W        W33073  16.683  30.624   0.275
68866W        W33074   5.378  33.562  11.008
68867W        W33075  15.286   6.346   0.927
68868W        W33076  33.963  33.424  13.020
68869W        W33077  12.271  28.552  13.429
68870W        W33078  12.362  12.694  10.901
68871W        W33079   8.796  44.414  13.908
68872W        W33080  34.396  40.918  12.569
68873W        W33081  42.002  37.841  10.438
68874W        W33082   3.741  12.746   2.727
68875W        W33083  30.958  34.992  11.391
68876W        W33084   5.786   7.712   1.257
68877W        W33085   7.187   8.188  13.985
68878W        W33086  12.326  34.016  14.287
68879W        W33087  37.398  11.708   0.400
68880W        W33088  15.771  30.500  13.924
68881W        W33089  23.726   0.954  14.860
68882W        W33090  14.315  11.242   9.957
68883W        W33091  43.931   3.953   3.178
68884W        W33092  27.196   9.231  10.548
68885W        W33093  26.011   2.945   1.445
68886W        W33094  22.691  32.959  11.109
68887W        W33095  32.532   2.829  12.470
68888W        W33096  18.650  17.065   4.839
68889W        W33097  28.633  17.165   4.827
68890W        W33098  11.646  21.714   2.382
68891W        W33099  16.704  21.054  11.526
68892W        W33100  15.185  28.457   4.273
68893W        W33101  30.005  29.649   4.234
68894W        W33102  19.716  19.780  14.470
68895W        W33103  26.040  40.532   0.802
68896W        W33104   3.749  34.570  13.847
68897W        W33105   2.302   4.391  12.515
68898W        W33106  30.579   0.338   3.792
68899W        W33107  37.511   1.375   4.115
68900W        W33108  17.714  11.750   2.226
68901W        W33109   2.232  16.161   2.800
68902W        W33110  30.996  19.168   4.821
68903W        W33111  21.245  21.082  14.502
68904W        W33112  25.193  31.107  12.930
68905W        W33113   9.833   5.800  14.372
68906W        W33114  15.177  17.234  11.479
68907W        W33115   5.743  33.892  10.920
68908W        W33116  34.090   7.360   0.435
68909W        W33117  28.642  13.168   0.748
68910W        W33118  35.938   1.341   2.194
68911W        W33119  34.118  36.895   0.954
68912W        W33120  35.420  29.430   0.870
68913W        W33121  21.207  29.595  14.802
68914W        W33122  43.796  40.879   1.931
68915W        W33123  27.114   1.909   4.219
68916W        W33124   9.241  26.144  13.359
68917W        W33125  34.071  25.014   4.222
68918W        W33126  34.572  21.550   1.382
68919W        W33127  44.366  21.230   3.218
68920W        W33128  25.626   7.668  11.011
68921W        W33129  39.873   4.400   5.716
68922W        W33130  33.532  35.393  10.577
68923W        W33131  44.831  24.007   2.881
68924W        W33132  37.366   3.755   0.829
68925W        W33133  31.639   9.243   0.360
68926W        W33134  32.504  33.874  11.870
68927W        W33135  15.636  36.926  13.827
68928W        W33136  39.945  12.825   2.310
68929W        W33137  38.946  21.175   0.922
68930W        W33138  38.538   7.387   3.229
68931W        W33139  20.635  27.601   3.727
68932W        W33140  36.913  18.197   3.715
68933W        W33141   9.742   9.773   3.235
68934W        W33142  18.766   1.869   4.295
68935W        W33143  14.783   4.362  13.914
68936W        W33144  13.742  24.722  13.987
68937W        W33145   5.247  37.562  10.617
68938W        W33146  11.199   9.215   4.212
68939W        W33147   1.741  32.482  12.875
68940W        W33148  23.498  12.829  13.890
68941W        W33149  41.354  39.326  12.555
68942W        W33150   2.287  19.084  11.502
68943W        W33151  36.087   5.284  14.412
68944W        W33152  44.312  39.367   4.607
68945W        W33153  16.740  29.447   0.951
68946W        W33154  28.581  38.920   0.863
68947W        W33155  22.575  34.916   1.271
68948W        W33156  15.630  20.740   4.234
68949W        W33157  20.760  37.930   3.771
68950W        W33158   4.284  14.744   3.241
68951W        W33159  12.777  38.999   1.239
68952W        W33160  40.323  29.497  12.441
68953W        W33161  41.462  24.618   2.682
68954W        W33162  26.062  35.476   0.354
68955W        W33163  27.490  21.162   1.447
68956W        W33164  23.562  37.386  11.430
68957W        W33165  43.847  23.016   0.738
68958W        W33166  27.678  21.099   4.315
68959W        W33167  11.167  25.089  12.864
68960W        W33168  11.331  20.575  14.903
68961W        W33169  16.149   2.448  11.402
68962W        W33170  23.122   5.862  10.088
68963W        W33171  30.132  44.302   1.875
68964W        W33172  29.009  22.096  14.802
68965W        W33173  44.787  35.907   3.185
68966W        W33174  44.455  13.157  11.865
68967W        W33175   3.799  38.337   4.811
68968W        W33176  25.692   9.204   3.288
68969W        W33177  22.637  30.115   4.830
68970W        W33178  15.740  42.802  14.389
68971W        W33179  42.880  27.593  13.887
68972W        W33180  15.228  10.825   0.748
68973W        W33181  32.037  13.154   1.306
68974W        W33182  28.026  40.828  11.890
68975W        W33183   1.843   3.899  13.794
68976W        W33184  19.644  20.112   1.416
68977W        W33185   2.462  31.632  11.582
68978W        W33186  12.641   0.371  12.494
68979W        W33187  22.241   0.841   3.831
68980W        W33188   5.332  20.235   2.824
68981W        W33189  44.499   7.417   3.335
68982W        W33190  22.247  26.596   2.767
68983W        W33191  27.602  43.815   0.454
68984W        W33192  30.544  33.060   3.758
68985W        W33193  19.569  34.999  10.477
68986W        W33194  32.142  35.368  11.586
68987W        W33195  13.631   6.835   1.881
68988W        W33196   0.946  37.840   1.895
68989W        W33197  17.776  27.616  11.579
68990W        W33198  37.501  34.384   4.113
68991W        W33199  27.087  11.656   0.334
68992W        W33200  30.006  31.550   4.156
68993W        W33201   5.346   0.945  13.430
68994W        W33202  42.823  44.874  13.307
68995W        W33203  39.038  16.616   0.888
68996W        W33204  29.022  38.024   0.963
68997W        W33205  29.467   2.949  11.485
68998W        W33206   5.321  31.447   4.267
68999W        W33207  26.111  18.697   2.223
69000W        W33208  20.723  35.966  10.438
69001W        W33209   2.293  12.316   1.781
69002W        W33210  20.186   3.422   0.765
69003W        W33211   4.914  31.975   3.756
69004W        W33212  16.108  28.512  12.446
69005W        W33213  43.909   8.285  12.541
69006W        W33214  14.338  15.655  13.455
69007W        W33215  11.287  42.910  11.612
69008W        W33216  22.517  12.846  14.439
69009W        W33217   7.172  37.425  10.508
69010W        W33218  20.579  40.517  14.909
69011W        W33219  17.254  44.935  10.427
69012W        W33220   9.243   5.817   4.813
69013W        W33221  19.102  33.502   4.199
69014W        W33222  37.884   6.290  10.031
69015W        W33223  35.952  13.113  12.851
69016W        W33224  39.535   6.792   3.276
69017W        W33225  21.642  21.535  13.350
69018W        W33226  41.479  14.761   2.781
69019W        W33227   6.369  30.020  12.855
69020W        W33228  33.594   2.777  14.415
69021W        W33229  17.573  24.131  14.288
69022W        W33230  40.011   9.840   1.870
69023W        W33231  44.315  39.453   0.273
69024W        W33232  10.767  13.278  13.454
69025W        W33233  16.762  30.557  12.450
69026W        W33234   3.826   8.232  12.397
69027W        W33235  22.512  42.975   2.787
69028W        W33236  23.735   6.216  14.418
69029W        W33237  24.607  15.722   0.852
69030W        W33238  12.357  34.964  13.032
69031W        W33239   5.309  35.448  12.014
69032W        W33240  25.638  42.311  13.064
69033W        W33241   9.324  44.823   1.281
69034W        W33242  16.080  21.580   2.752
69035W        W33243  14.231   2.784   4.701
69036W        W33244   4.704  42.334   1.876
69037W        W33245  25.600  31.102  14.311
69038W        W33246  12.161  33.019   4.804
69039W        W33247  21.232  27.588  14.446
69040W        W33248  21.607  22.729  12.856
69041W        W33249  28.548  30.924  11.444
69042W        W33250   8.816  26.971   1.768
69043W        W33251  40.857  21.737  10.488
69044W        W33252   4.366  18.691  13.415
69045W        W33253  11.329  32.977   4.234
69046W        W33254  38.944  40.376   3.719
69047W        W33255  33.031   5.753   2.260
69048W        W33256  23.213  38.904   1.318
69049W        W33257  31.506   3.898   3.179
69050W        W33258  32.020   1.335  14.949
69051W        W33259  32.007   8.242   0.329
69052W        W33260   2.820  24.089   3.814
69053W        W33261  16.145  34.002   1.252
69054W        W33262  22.083  17.188  13.952
69055W        W33263  29.952  34.572  11.031
69056W        W33264   1.346   9.202   4.795
69057W        W33265  31.453  14.124  10.632
69058W        W33266  34.444  18.091   2.314
69059W        W33267  32.925   6.722   2.716
69060W        W33268  39.881  32.991  13.030
69061W        W33269  13.145  26.501   1.901
69062W        W33270  35.516  25.965  14.363
69063W        W33271   6.400   4.906   2.343
69064W        W33272  12.263  11.132   3.864
69065W        W33273  22.077  11.844   1.723
69066W        W33274  13.117  40.399   3.688
69067W        W33275   7.407  27.663  12.424
69068W        W33276  18.715  12.301  14.390
69069W        W33277  29.551  10.208  13.836
69070W        W33278  22.501  31.472   4.170
69071W        W33279  39.328   2.772   0.964
69072W        W33280  44.867   4.748  12.988
69073W        W33281   5.287  28.001   3.240
69074W        W33282   2.445   5.313   2.836
69075W        W33283  12.169  18.586  13.542
69076W        W33284  39.900   0.980   0.450
69077W        W33285  28.179  42.853   2.690
69078W        W33286  13.754  17.284   0.799
69079W        W33287   3.855  24.114   4.646
69080W        W33288   3.777  14.621   3.162
69081W        W33289  10.175  18.104  13.030
69082W        W33290   9.174  31.993   3.237
69083W        W33291  33.492   7.799   4.618
69084W        W33292  40.841  40.322  12.923
69085W        W33293  22.118  32.493   1.881
69086W        W33294  10.784  34.605  11.953
69087W        W33295  29.526  12.142   1.290
69088W        W33296  31.987   5.709   5.203
69089W        W33297  44.914  10.152  12.528
69090W        W33298   4.798   9.201  13.814
69091W        W33299  23.708   9.199  12.944
69092W        W33300   5.866  19.091  12.403
69093W        W33301  26.551   6.738  12.944
69094W        W33302   3.250   0.969  13.520
69095W        W33303  14.336   3.369  11.449
69096W        W33304  30.151  33.071   4.151
69097W        W33305   5.691  20.527  14.836
69098W        W33306   3.423  10.194   2.791
69099W        W33307   9.334  39.455  14.000
69100W        W33308  31.001  41.463  14.938
69101W        W33309  27.122  40.887  13.493
69102W        W33310  40.870  16.677   0.250
69103W        W33311  44.354  37.901   1.931
69104W        W33312  44.959   2.243  12.075
69105W        W33313   5.691  13.709   1.366
69106W        W33314  16.128  35.911   4.605
69107W        W33315  32.504  21.211   4.215
69108W        W33316  12.717  37.369   0.371
69109W        W33317  13.138  41.320  14.513
69110W        W33318  22.640  26.078   0.446
69111W        W33319  14.645  35.436  10.605
69112W        W33320  27.094  35.443  10.450
69113W        W33321  28.952  44.390  14.353
69114W        W33322  20.231  12.667  14.971
69115W        W33323  19.242   1.348  10.925
69116W        W33324  26.488  39.982   2.321
69117W        W33325  35.942   2.769   4.818
69118W        W33326  40.364  11.649  11.018
69119W        W33327  29.517  13.263   1.423
69120W        W33328   7.757  17.604  13.382
69121W        W33329  11.316  44.324  14.837
69122W        W33330  34.872  30.611   1.428
69123W        W33331  23.699  23.168   4.186
69124W        W33332  37.545  38.363  14.788
69125W        W33333  17.637  22.034  13.363
69126W        W33334  18.576  15.691   2.830
69127W        W33335  14.748  15.098   1.761
69128W        W33336   8.701  24.223   3.862
69129W        W33337  29.502  41.892  12.515
69130W        W33338  33.571  35.562  12.455
69131W        W33339  13.773  31.109  14.434
69132W        W33340  25.194  40.362  12.377
69133W        W33341  34.906  23.638  13.001
69134W        W33342   5.728  35.599  13.496
69135W        W33343   6.322   2.342  11.604
69136W        W33344  16.608   4.324  12.852
69137W        W33345  28.574  42.015   4.202
69138W        W33346   5.383  44.781   0.370
69139W        W33347  11.838  24.571  12.390
69140W        W33348  28.605  18.555   1.927
69141W        W33349  10.723   1.315   1.316
69142W        W33350   3.904   2.850   0.367
69143W        W33351  13.143   1.741  11.092
69144W        W33352  20.550  37.430   4.631
69145W        W33353  10.748  41.031   0.373
69146W        W33354  17.690   0.270   1.734
69147W        W33355  26.506   5.299  11.974
69148W        W33356  37.430   1.443  10.952
69149W        W33357  33.043  24.123   1.391
69150W        W33358   0.871  13.785  11.968
69151W        W33359  29.553  15.717   2.329
69152W        W33360  21.617  43.813  14.387
69153W        W33361  34.408  25.014   4.244
69154W        W33362  23.070  38.864   4.624
69155W        W33363  17.649  19.617   1.915
69156W        W33364   7.354   1.896   4.806
69157W        W33365  44.903  17.654  13.393
69158W        W33366  17.779   8.399  12.836
69159W        W33367   8.705  29.433  10.977
69160W        W33368   3.836  32.448  11.010
69161W        W33369   3.306  44.009   3.761
69162W        W33370  25.077  44.963  14.993
69163W        W33371  14.776  12.612  12.896
69164W        W33372  35.589   8.231   0.245
69165W        W33373  40.990   1.732   2.257
69166W        W33374   7.262  28.970  10.955
69167W        W33375  24.712  24.129  14.506
69168W        W33376  28.111  43.776   5.228
69169W        W33377  17.072  15.246  14.424
69170W        W33378   6.415   2.460   3.260
69171W        W33379  40.034   6.409  13.998
69172W        W33380  29.171   3.238  12.381
69173W        W33381  26.978  40.499   2.289
69174W        W33382   2.840   2.803   5.703
69175W        W33383  26.696   5.398   4.818
69176W        W33384  42.454  40.925  12.440
69177W        W33385  41.327  42.424   4.830
69178W        W33386  32.914  27.968  14.873
69179W        W33387  14.094  37.427   2.818
69180W        W33388   1.380   0.471   1.314
69181W        W33389   9.786  35.500   2.352
69182W        W33390  33.053   4.305   2.239
69183W        W33391  40.500  12.148   2.385
69184W        W33392  24.514  20.126   1.805
69185W        W33393  41.019  15.645   5.699
69186W        W33394  41.351   1.256   3.727
69187W        W33395   2.294  41.360   1.893
69188W        W33396  22.198   2.440   3.871
69189W        W33397  44.805  17.210   1.751
69190W        W33398  35.011  17.157   1.933
69191W        W33399   8.845  32.544   1.349
69192W        W33400  25.707  42.911   3.864
69193W        W33401  18.570  39.364  12.043
69194W        W33402  34.400  29.653   3.196
69195W        W33403  17.648   8.192   1.893
69196W        W33404  28.652  43.798   4.271
69197W        W33405   2.736  16.161   3.638
69198W        W33406  27.614   0.423   1.343
69199W        W33407  14.658   7.361  12.973
69200W        W33408  32.938  27.654   0.758
69201W        W33409  34.524  24.646   1.927
69202W        W33410  10.758  32.889   2.380
69203W        W33411   3.951  19.053   0.730
69204W        W33412  36.571  17.256  11.058
69205W        W33413  40.916  28.057   3.204
69206W        W33414  40.933  10.835   2.208
69207W        W33415  13.653  34.035   3.179
69208W        W33416  34.003  29.568  14.908
69209W        W33417  43.406   7.820   0.315
69210W        W33418  26.574  39.989  14.376
69211W        W33419  10.838  36.988   4.745
69212W        W33420  10.205  32.630  13.476
69213W        W33421  36.899  23.614   0.859
69214W        W33422  30.909   6.698   0.814
69215W        W33423  16.735  40.544  11.440
69216W        W33424  35.912  21.569   2.714
69217W        W33425  35.049  35.969  12.392
69218W        W33426   1.469  18.670   2.211
69219W        W33427  36.081  28.929   3.714
69220W        W33428  40.940  44.757  14.494
69221W        W33429  24.076   9.241   2.880
69222W        W33430  13.182  43.820   3.340
69223W        W33431  11.228  27.652   4.154
69224W        W33432  44.481  37.919  11.441
69225W        W33433  25.468  30.089  10.426
69226W        W33434  17.592  25.064  11.068
69227W        W33435  38.932  12.749  11.465
69228W        W33436  22.142  18.741   3.734
69229W        W33437  14.311  42.962  11.043
69230W        W33438  30.918   0.247  11.965
69231W        W33439  32.530   2.420   4.238
69232W        W33440  43.340   3.326  14.317
69233W        W33441   2.952  20.241  13.481
69234W        W33442   2.928  44.442  11.447
69235W        W33443  16.086  17.720   3.369
69236W        W33444  35.071  20.757   4.352
69237W        W33445   4.823  12.701   1.238
69238W        W33446  15.185  25.677  12.378
69239W        W33447  11.691  30.605   0.757
69240W        W33448  19.059  32.108  14.348
69241W        W33449  23.666  32.551   2.223
69242W        W33450   6.733  37.060   4.757
69243W        W33451  16.198  33.004  10.517
69244W        W33452  31.630  38.357   2.255
69245W        W33453  25.184  30.989  14.820
69246W        W33454  44.862  21.218   1.435
69247W        W33455  19.679  15.274   1.766
69248W        W33456  25.697  13.668   0.845
69249W        W33457  25.138   1.284  10.946
69250W        W33458  43.770  39.890  11.986
69251W        W33459  21.042   4.430  12.830
69252W        W33460  26.594   1.305  11.049
69253W        W33461  35.960  31.453  13.895
69254W        W33462  22.221   8.250   2.314
69255W        W33463  16.141  44.841  11.471
69256W        W33464   7.675  41.817   4.735
69257W        W33465  40.980  11.768  12.949
69258W        W33466  37.371  25.012  13.418
69259W        W33467  35.420  31.443  13.441
69260W        W33468   8.707  44.938   1.311
69261W        W33469   4.402   3.808   2.852
69262W        W33470  28.579  22.685   9.974
69263W        W33471  39.009   7.891   0.401
69264W        W33472  18.050   1.345  12.457
69265W        W33473   4.845  10.141   2.241
69266W        W33474   5.903  18.756  12.554
69267W        W33475  30.159  19.222  14.352
69268W        W33476  15.296  39.550   4.647
69269W        W33477  42.942  44.788  12.026
69270W        W33478  33.894  19.273   1.267
69271W        W33479  40.962  23.161   0.956
69272W        W33480  28.511  33.911   3.216
69273W        W33481  11.305  15.724  10.159
69274W        W33482  35.884  20.718  12.011
69275W        W33483  36.061  27.089   2.249
69276W        W33484  32.925  17.622   1.306
69277W        W33485  15.749  10.713   3.722
69278W        W33486  16.575  33.432   1.882
69279W        W33487  10.657  11.710  11.939
69280W        W33488   6.702  36.073   0.915
69281W        W33489  43.896  28.156   0.290
69282W        W33490  21.177   9.345  12.920
69283W        W33491  15.804  23.149  11.960
69284W        W33492  36.414  24.615  13.826
69285W        W33493  34.544  21.654  13.540
69286W        W33494  39.502  20.717  12.444
69287W        W33495  17.168  44.803  14.921
69288W        W33496  44.491  34.074  10.892
69289W        W33497  24.617  36.362   1.226
69290W        W33498  14.332   3.450   1.706
69291W        W33499  22.557  27.495  10.988
69292W        W33500  30.128  14.115   3.776
69293W        W33501  32.619  12.636   4.167
69294W        W33502  41.538  33.053   1.396
69295W        W33503  40.320  26.178   4.352
69296W        W33504   9.859  26.179   1.724
69297W        W33505  39.510  36.998  11.994
69298W        W33506   4.311  13.764  12.339
69299W        W33507  18.688   7.349   4.164
69300W        W33508  11.336  28.501  10.952
69301W        W33509  22.153  29.587  11.601
69302W        W33510   5.407  40.404   2.775
69303W        W33511  13.818  35.016   3.201
69304W        W33512   3.921   5.408   1.401
69305W        W33513  30.986  36.469  12.044
69306W        W33514  11.652  43.334   4.804
69307W        W33515  43.926  32.474   4.784
69308W        W33516  31.942  43.486   2.811
69309W        W33517  39.370   8.709   1.309
69310W        W33518  22.193  41.973   2.677
69311W        W33519  43.990  31.914   4.193
69312W        W33520  20.252  29.951  12.944
69313W        W33521  43.345  39.065  14.908
69314W        W33522   1.852  32.121  11.532
69315W        W33523  43.000  12.630  11.579
69316W        W33524   8.165  32.510   0.264
69317W        W33525   0.441  22.112  14.887
69318W        W33526   8.241  15.598   1.852
69319W        W33527   3.877   4.739  12.428
69320W        W33528  44.359  18.215  12.375
69321W        W33529  33.977  33.515  12.555
69322W        W33530  30.421  29.017   0.253
69323W        W33531   2.755  27.053   2.818
69324W        W33532  12.823   5.423  11.556
69325W        W33533  37.966  39.883   2.685
69326W        W33534   1.263   0.434  14.776
69327W        W33535  36.413   3.840   1.872
69328W        W33536  33.440  23.027   0.365
69329W        W33537  31.908  21.698   2.223
69330W        W33538  28.448  35.375  13.510
69331W        W33539  11.224  24.027   4.824
69332W        W33540   3.776  26.484  10.516
69333W        W33541  31.112  25.658  10.994
69334W        W33542   4.309  31.558  14.822
69335W        W33543  43.811  12.637  12.442
69336W        W33544  43.399  21.232   4.812
69337W        W33545  24.540  44.386  14.344
69338W        W33546  30.597  40.048   3.847
69339W        W33547  18.063  12.304   4.273
69340W        W33548  37.060  42.903  12.431
69341W        W33549  24.625  13.612  10.541
69342W        W33550  11.810  16.613  10.469
69343W        W33551  12.661  36.846  13.366
69344W        W33552   9.745  41.003   0.434
69345W        W33553   5.719  22.672  14.895
69346W        W33554  41.941   4.305  14.990
69347W        W33555  29.024  11.172  14.440
69348W        W33556  40.521  44.273   4.323
69349W        W33557  28.556   7.762  14.815
69350W        W33558   2.294  11.146  12.506
69351W        W33559  33.887  11.357  13.391
69352W        W33560  25.102  38.949  14.466
69353W        W33561   3.416  23.702  12.466
69354W        W33562  38.514   7.269  11.396
69355W        W33563  26.522  29.134   0.451
69356W        W33564  41.358   1.333  14.807
69357W        W33565  33.089  18.150  12.505
69358W        W33566  27.552  39.861  13.954
69359W        W33567  39.901  19.591   0.273
69360W        W33568  13.216  24.016   2.685
69361W        W33569  31.625  31.521  11.494
69362W        W33570  37.946  29.625   1.836
69363W        W33571   9.808  18.615   3.240
69364W        W33572   5.394  22.125  10.463
69365W        W33573  30.125  28.047  10.486
69366W        W33574  20.673  42.790  11.605
69367W        W33575  40.049  25.151  12.014
69368W        W33576  22.184  28.184   1.223
69369W        W33577  33.130  11.191   1.915
69370W        W33578  41.882  27.118   1.885
69371W        W33579   6.393  27.079   0.864
69372W        W33580  43.383  33.924  10.000
69373W        W33581  28.967  40.881  14.842
69374W        W33582   2.455  43.362  11.952
69375W        W33583  12.218  36.873   2.816
69376W        W33584   9.203  15.224   0.393
69377W        W33585   2.966  43.379  12.451
69378W        W33586  17.657  17.675  10.449
69379W        W33587  18.084   3.737  12.956
69380W        W33588  18.547  22.729   2.409
69381W        W33589  41.407  15.808   1.826
69382W        W33590   8.710  35.387   4.673
69383W        W33591  39.314  24.217   1.736
69384W        W33592  44.352  41.903  11.984
69385W        W33593  41.902  16.140   3.761
69386W        W33594  30.959  32.559  14.798
69387W        W33595  13.773  12.182   3.822
69388W        W33596   1.343  35.600   0.401
69389W        W33597  19.710  44.802  10.504
69390W        W33598  33.019  31.132  11.083
69391W        W33599  20.041  44.809  11.411
69392W        W33600  37.398  31.945   0.925
69393W        W33601   9.700  42.025   4.332
69394W        W33602  38.057  17.588  13.863
69395W        W33603  42.782  39.335  11.884
69396W        W33604  38.059   5.351   1.755
69397W        W33605  17.109  26.659   4.684
69398W        W33606  33.497  11.264   0.946
69399W        W33607   3.935  11.690  11.957
69400W        W33608  36.022  43.998   3.823
69401W        W33609  18.120   2.402   1.880
69402W        W33610  12.167   1.970  11.090
69403W        W33611  38.896  24.571  11.947
69404W        W33612  38.497   1.910   2.863
69405W        W33613  10.719  42.967   2.809
69406W        W33614  26.471  17.274  13.428
69407W        W33615  19.122   4.821  11.901
69408W        W33616  27.598  16.135   1.371
69409W        W33617  31.425  15.270   1.834
69410W        W33618  10.373  26.596   3.216
69411W        W33619  20.108  24.566  11.115
69412W        W33620   9.180  11.183   1.902
69413W        W33621  34.922  33.580   3.703
69414W        W33622   7.178  22.661   2.338
69415W        W33623   8.691  39.512   0.804
69416W        W33624   2.739  13.767   3.247
69417W        W33625  42.327  13.282  14.006
69418W        W33626  11.750  18.625  14.350
69419W        W33627  19.135  17.107   0.311
69420W        W33628   0.890  27.157   2.274
69421W        W33629  33.104  42.851  13.997
69422W        W33630  14.591  12.744  10.990
69423W        W33631  43.301  27.652  13.805
69424W        W33632  39.324  25.143  13.938
69425W        W33633  28.143  34.418  14.332
69426W        W33634  27.583  37.898  10.498
69427W        W33635   3.311  39.355   3.245
69428W        W33636  20.608  20.269   3.840
69429W        W33637  33.905  17.606  13.015
69430W        W33638  18.072   6.740   1.743
69431W        W33639  38.937  13.664  14.864
69432W        W33640  30.950  17.153   0.380
69433W        W33641  26.103  15.207   3.333
69434W        W33642  42.994   0.384  14.288
69435W        W33643   5.418  43.419   3.273
69436W        W33644   0.907  41.467  11.962
69437W        W33645   9.266  14.667   4.341
69438W        W33646   6.386  37.923   0.325
69439W        W33647  37.006  15.125   4.699
69440W        W33648  41.853  29.653  11.526
69441W        W33649  31.442  39.440  11.565
69442W        W33650   6.354   6.310  13.456
69443W        W33651  39.851  22.653   1.430
69444W        W33652  31.624   0.774  12.906
69445W        W33653   2.446  11.151   0.845
69446W        W33654  32.476   7.901   3.201
69447W        W33655   7.829   8.687  10.566
69448W        W33656  33.588  34.877   2.714
69449W        W33657  27.503  37.908  13.535
69450W        W33658   6.850  26.125   3.191
69451W        W33659  27.150  15.120  11.494
69452W        W33660  19.722   2.966   4.227
69453W        W33661   5.800  12.340   1.430
69454W        W33662   2.844  12.305   4.735
69455W        W33663   6.825   4.756  12.835
69456W        W33664  12.326   0.930   1.304
69457W        W33665   9.209  41.340  12.488
69458W        W33666  20.177  28.099  10.442
69459W        W33667  25.975  22.137  12.825
69460W        W33668  39.385   5.265   0.326
69461W        W33669  19.097   0.817   0.414
69462W        W33670  42.447  25.528  13.924
69463W        W33671   1.346   3.446   3.818
69464W        W33672  37.404  29.629  11.963
69465W        W33673   9.336  20.192  14.007
69466W        W33674  34.410  12.705  10.922
69467W        W33675   1.758  31.152  10.564
69468W        W33676   7.757   4.444   1.712
69469W        W33677  23.197  43.912  14.920
69470W        W33678  42.895   5.217  14.475
69471W        W33679   6.317  37.433   3.384
69472W        W33680  31.639  22.596   1.322
69473W        W33681  35.872  39.351   2.820
69474W        W33682  14.716   4.704  13.336
69475W        W33683  24.100  23.015   0.289
69476W        W33684  29.439  38.840  12.887
69477W        W33685  17.725  26.574  14.945
69478W        W33686  12.237  30.522  14.890
69479W        W33687  41.433  13.335  12.847
69480W        W33688  37.008  17.099   0.819
69481W        W33689  16.645  40.486   3.750
69482W        W33690  30.564   1.442   2.879
69483W        W33691  10.671  11.279   2.296
69484W        W33692  37.397  28.184   0.425
69485W        W33693  44.820  29.567  10.569
69486W        W33694   7.322  21.096  11.922
69487W        W33695   6.829  44.962   3.308
69488W        W33696  43.777  10.230   0.753
69489W        W33697  42.429  38.532  12.490
69490W        W33698  25.147  35.084   4.757
69491W        W33699  20.211  41.526   1.357
69492W        W33700   7.776  17.285   3.315
69493W        W33701  32.594   2.265  14.015
69494W        W33702  17.111   2.362  12.047
69495W        W33703   1.449  16.267   0.334
69496W        W33704   5.422  26.990   0.788
69497W        W33705  39.024  20.208  13.975
69498W        W33706  24.056  39.419   0.393
69499W        W33707  18.630  24.530   1.367
69500W        W33708  25.626  42.475  11.019
69501W        W33709  10.848  33.425  13.922
69502W        W33710  27.517  24.066   3.273
69503W        W33711  35.003  33.407  12.959
69504W        W33712  35.584  36.910  10.934
69505W        W33713  39.407  40.921   0.795
69506W        W33714   0.743  21.214   5.299
69507W        W33715   6.319  44.005   4.314
69508W        W33716  40.348  19.170   2.878
69509W        W33717  32.599   9.830  14.899
69510W        W33718   5.861  10.668  11.919
69511W        W33719  33.922  20.035  14.802
69512W        W33720  26.470   0.952  12.372
69513W        W33721  11.156  18.669   2.834
69514W        W33722  17.250  21.705   3.358
69515W        W33723   5.707   8.745   2.840
69516W        W33724  43.486  17.163  14.376
69517W        W33725  28.989   0.764  12.035
69518W        W33726  21.113  25.969  11.900
69519W        W33727  44.972  43.852  12.505
69520W        W33728  16.288   6.689   3.813
69521W        W33729  41.443  34.915  13.499
69522W        W33730  30.460  24.557   2.707
69523W        W33731  19.159  34.426  10.949
69524W        W33732  33.999  38.839  11.546
69525W        W33733   3.918  17.574  12.564
69526W        W33734  21.127   2.258  11.991
69527W        W33735  33.582  10.247   0.459
69528W        W33736   3.858  38.345  12.065
69529W        W33737  18.621  23.680   4.836
69530W        W33738  16.647   5.771   1.393
69531W        W33739   2.415   2.808   9.624
69532W        W33740   3.902  32.431   0.291
69533W        W33741   6.229  41.340   4.194
69534W        W33742  43.364  19.685   4.598
69535W        W33743   0.754  39.535   1.216
69536W        W33744  33.430  36.076   9.924
69537W        W33745  29.444   7.742  11.869
69538W        W33746  27.558  17.122   1.418
69539W        W33747   9.729  22.659   0.247
69540W        W33748  21.190  15.164  12.440
69541W        W33749  23.708  41.410   3.679
69542W        W33750  28.117  13.733   0.870
69543W        W33751   6.293   0.318  11.876
69544W        W33752   4.923   1.273  11.891
69545W        W33753  39.497  37.063   3.663
69546W        W33754  35.377  41.386   2.329
69547W        W33755  14.217  12.120   1.910
69548W        W33756  34.931  35.429  12.051
69549W        W33757  11.135   0.917   2.749
69550W        W33758  23.104  37.375  11.019
69551W        W33759  17.782  19.599   0.770
69552W        W33760  13.330  43.923   4.205
69553W        W33761   2.361  28.141  13.951
69554W        W33762  44.943  32.979   1.220
69555W        W33763  15.313  20.029   4.795
69556W        W33764  44.337  28.645   0.839
69557W        W33765  18.064   8.363  10.086
69558W        W33766  19.122  27.140   0.416
69559W        W33767  29.635  42.404  11.561
69560W        W33768  34.865  44.380  11.386
69561W        W33769  38.546  29.037  10.540
69562W        W33770  32.081  40.908  10.960
69563W        W33771  21.076  37.446  11.047
69564W        W33772  28.613  38.332   0.867
69565W        W33773  18.646  41.488   3.172
69566W        W33774  12.654  40.399  13.813
69567W        W33775  10.141  10.171   1.292
69568W        W33776  39.029  17.074   1.423
69569W        W33777   6.262   1.378  11.090
69570W        W33778  18.722  45.000   4.753
69571W        W33779   9.728  21.065   9.988
69572W        W33780   2.471   3.447   0.828
69573W        W33781  24.015  16.248  14.284
69574W        W33782  30.957  31.452  10.621
69575W        W33783   5.748  14.300  11.866
69576W        W33784   3.888  13.215   1.276
69577W        W33785  41.994  37.469   2.853
69578W        W33786   1.912  16.214   3.348
69579W        W33787   1.466  33.453   4.291
69580W        W33788  14.286  44.355  14.944
69581W        W33789  24.633  43.787  14.475
69582W        W33790  32.526  22.161   2.820
69583W        W33791  38.413  23.141   2.404
69584W        W33792  19.094  17.170  14.995
69585W        W33793  22.540  22.120   4.259
69586W        W33794   7.763  25.561   0.288
69587W        W33795   3.766  39.424  13.897
69588W        W33796  16.099   8.277  11.968
69589W        W33797  30.529  21.564  12.432
69590W        W33798  12.694   3.731  13.498
69591W        W33799  19.091  28.607   2.298
69592W        W33800  12.741   4.714  11.043
69593W        W33801  34.101   8.279  11.395
69594W        W33802  30.576  15.109   4.715
69595W        W33803   1.841  10.818   4.638
69596W        W33804  33.406  17.121  12.377
69597W        W33805  22.223  41.371  13.997
69598W        W33806  17.134  30.626   2.894
69599W        W33807   5.842  30.512   4.323
69600W        W33808  44.444   8.781   5.115
69601W        W33809  33.120   8.383   0.954
69602W        W33810   1.417  23.622   3.868
69603W        W33811   3.872   5.219  13.992
69604W        W33812   0.266  26.678   1.231
69605W        W33813  33.946  29.628  12.994
69606W        W33814  21.743   0.399   0.911
69607W        W33815  20.573  41.924   4.606
69608W        W33816  17.686   2.314  15.000
69609W        W33817  26.027  21.047   2.218
69610W        W33818  31.473   6.239  10.513
69611W        W33819  35.399   4.379   2.867
69612W        W33820  15.597   2.743  12.096
69613W        W33821  14.192  15.163  12.473
69614W        W33822   9.813  23.495  12.529
69615W        W33823  40.802  23.507   1.755
69616W        W33824  10.315  22.689   0.363
69617W        W33825  10.825  19.630  14.831
69618W        W33826  15.110  29.553   1.819
69619W        W33827  32.534   5.369  13.873
69620W        W33828  12.161  44.405   4.183
69621W        W33829  35.369  10.762  14.366
69622W        W33830   1.955  32.561   2.242
69623W        W33831  25.623  13.831   4.797
69624W        W33832  42.982   7.260   0.789
69625W        W33833  24.567   4.213  13.934
69626W        W33834  29.948  20.089  12.897
69627W        W33835  34.437  30.010   2.197
69628W        W33836  22.638  44.003   0.737
69629W        W33837  33.022  38.909   4.743
69630W        W33838  24.201  12.275  13.883
69631W        W33839  13.838  30.974  12.531
69632W        W33840   2.254  35.447  14.980
69633W        W33841  24.602   4.827   3.845
69634W        W33842  17.764  22.572  11.977
69635W        W33843  19.683  30.092   4.834
69636W        W33844  21.241  44.759  13.916
69637W        W33845  12.695  39.850   0.826
69638W        W33846  27.099  41.374  11.024
69639W        W33847   1.901  31.052   2.791
69640W        W33848  42.812  13.141  12.479
69641W        W33849  20.178  13.751   4.302
69642W        W33850  31.926  13.731  11.414
69643W        W33851  42.889  38.970   0.827
69644W        W33852   8.835  30.456   4.791
69645W        W33853   3.884  36.919   0.852
69646W        W33854  21.030  36.581  13.960
69647W        W33855  22.645  23.078  10.988
69648W        W33856   1.871  35.497  10.894
69649W        W33857   5.827  40.478  14.860
69650W        W33858  42.797  16.647  12.986
69651W        W33859  29.039  30.433   0.734
69652W        W33860  23.658  22.682   2.348
69653W        W33861   9.709  32.568  10.536
69654W        W33862  24.495  22.712  12.858
69655W        W33863  16.209   3.845  13.963
69656W        W33864  38.535   4.359  14.958
69657W        W33865   7.408  40.898   3.243
69658W        W33866  15.134  18.099   1.336
69659W        W33867  18.612  43.942  10.515
69660W        W33868  22.138   9.734   3.309
69661W        W33869  30.153  11.863  12.513
69662W        W33870  38.951  32.106   5.173
69663W        W33871  26.628  37.981   2.330
69664W        W33872   0.371  40.978   0.815
69665W        W33873  35.874  35.446   4.696
69666W        W33874  23.087  12.657  14.452
69667W        W33875  20.660  28.562   0.471
69668W        W33876  19.759  25.219  10.929
69669W        W33877  21.704   3.739   0.943
69670W        W33878  35.526  21.671  14.277
69671W        W33879  19.601  31.542  14.378
69672W        W33880  16.076  39.917   0.251
69673W        W33881   8.163  13.317   1.370
69674W        W33882  38.025  44.326   1.759
69675W        W33883  19.572  11.220   2.242
69676W        W33884  21.249  16.090  14.977
69677W        W33885  11.867  15.156   0.746
69678W        W33886   4.768  21.533  12.376
69679W        W33887  25.598  23.706   3.256
69680W        W33888  13.169  38.051   1.284
69681W        W33889  40.487   0.251  10.997
69682W        W33890  17.694  12.298  12.388
69683W        W33891  21.736   1.450   4.297
69684W        W33892  38.424  17.557   3.725
69685W        W33893  15.228  38.864   0.960
69686W        W33894  37.339  29.051   1.293
69687W        W33895   1.884   9.177   1.718
69688W        W33896  24.602  31.909  13.929
69689W        W33897  22.536  14.601  12.454
69690W        W33898  42.929  25.598   4.309
69691W        W33899  29.479  30.095  14.936
69692W        W33900  43.904  28.119   1.750
69693W        W33901   9.159  22.077   2.772
69694W        W33902  37.400  42.488  14.940
69695W        W33903   0.983  17.563   4.814
69696W        W33904  41.804   1.302  14.870
69697W        W33905  15.710  35.514  11.535
69698W        W33906  12.610  12.310  10.501
69699W        W33907  14.247  19.641   4.782
69700W        W33908  28.633   8.871   2.339
69701W        W33909  35.929   1.767   1.407
69702W        W33910  12.785  28.030   1.714
69703W        W33911  16.648  41.345   0.397
69704W        W33912   1.791  11.672  14.396
69705W        W33913  38.490  41.339   2.293
69706W        W33914  16.157  16.156   2.865
69707W        W33915   1.389   1.807  11.959
69708W        W33916  29.497  31.035   3.185
69709W        W33917   3.754   1.963  10.154
69710W        W33918  26.043   9.768  12.367
69711W        W33919  37.445   5.251  14.979
69712W        W33920  29.498  41.875  12.096
69713W        W33921  12.802  15.666  10.640
69714W        W33922  11.789  40.311   2.867
69715W        W33923  15.815   5.799   2.899
69716W        W33924  20.235  28.465   0.952
69717W        W33925  41.470  19.569  13.502
69718W        W33926  11.793  30.003  12.434
69719W        W33927  18.619  19.717  14.310
69720W        W33928  23.103  23.583   3.152
69721W        W33929  15.711  32.963  12.048
69722W        W33930  25.194  11.682   0.731
69723W        W33931  41.000  17.170   1.929
69724W        W33932  13.773  25.619   3.215
69725W        W33933  36.027   6.227  13.961
69726W        W33934  23.026  20.072  14.814
69727W        W33935  25.973  40.455  14.490
69728W        W33936  41.855  40.346   4.820
69729W        W33937  42.299  44.861   3.299
69730W        W33938  13.655  36.864   0.931
69731W        W33939  15.195   5.778  13.359
69732W        W33940   3.934  26.959   0.924
69733W        W33941  43.445   9.700   4.758
69734W        W33942  13.166  11.167   3.161
69735W        W33943  20.591  18.233  10.404
69736W        W33944  19.671  16.113   4.236
69737W        W33945  25.526  12.228  14.335
69738W        W33946  25.189  15.621   2.414
69739W        W33947   5.850  24.652   0.841
69740W        W33948   0.958  18.211  13.899
69741W        W33949  13.614  13.754  13.887
69742W        W33950  17.133  34.426   4.343
69743W        W33951  16.129  27.018  12.341
69744W        W33952  17.688  18.156   2.679
69745W        W33953   1.379  36.912   1.405
69746W        W33954  13.821  28.535  10.417
69747W        W33955  17.728   8.324   4.114
69748W        W33956  43.420   2.350   0.388
69749W        W33957  19.657  20.731   0.842
69750W        W33958  41.838  12.680  11.044
69751W        W33959  26.687  39.968  11.973
69752W        W33960  24.501  14.235   4.151
69753W        W33961   8.277  31.543  12.518
69754W        W33962  42.367  27.635   1.395
69755W        W33963  43.857  44.385   2.839
69756W        W33964   9.319  30.159   4.623
69757W        W33965  31.557   5.258   1.399
69758W        W33966  19.261  21.050  13.796
69759W        W33967  22.531   2.869  13.469
69760W        W33968   2.910  38.003   1.902
69761W        W33969  26.132   0.887  11.959
69762W        W33970  32.595  44.892  14.837
69763W        W33971  26.078  37.480   3.166
69764W        W33972  12.318  12.748  12.359
69765W        W33973  18.686   7.810   1.904
69766W        W33974   5.862  27.078   0.794
69767W        W33975  36.570  19.189  12.400
69768W        W33976  32.500  17.168   4.198
69769W        W33977   7.735  23.642   2.178
69770W        W33978  36.944   1.455  12.496
69771W        W33979  34.969  26.967   1.370
69772W        W33980   3.335  12.285  13.454
69773W        W33981   9.665  15.801  11.126
69774W        W33982  29.471   6.324   1.783
69775W        W33983  44.350  20.623  11.497
69776W        W33984  34.592  19.278  12.478
69777W        W33985  13.628  35.432   0.259
69778W        W33986   7.683   4.211  14.822
69779W        W33987  14.219  24.638  11.438
69780W        W33988  25.993  12.166  14.764
69781W        W33989  29.118   3.733   1.883
69782W        W33990   3.736  43.299   1.354
69783W        W33991  35.489  42.492  11.528
69784W        W33992  34.389  11.299   4.143
69785W        W33993  11.341  33.529   4.774
69786W        W33994  40.379  12.287  14.803
69787W        W33995  29.569  22.027  10.545
69788W        W33996  14.615   0.955  10.105
69789W        W33997   5.933  33.584  10.929
69790W        W33998  14.217  44.794   1.369
69791W        W33999  43.287  38.471  11.377
69792W        W34000  13.148   5.848   0.833
69793W        W34001  24.061  17.639  12.030
69794W        W34002  33.444  16.087   2.869
69795W        W34003  21.159  42.862   9.922
69796W        W34004  31.087  35.395  14.820
69797W        W34005  10.140  23.083   1.414
69798W        W34006  44.283   9.325   4.714
69799W        W34007  17.635   2.790  10.911
69800W        W34008   9.206   3.856  10.539
69801W        W34009  40.424  11.771  14.327
69802W        W34010   3.253  42.485   0.926
69803W        W34011  30.479  26.118   4.702
69804W        W34012  29.043   3.280   2.662
69805W        W34013   8.791  26.185   2.870
69806W        W34014   8.789  21.184   4.239
69807W        W34015  31.098  29.598  12.534
69808W        W34016  19.777  12.321   0.460
69809W        W34017  40.049  42.341   1.801
69810W        W34018  26.116  38.335   2.705
69811W        W34019  37.064   3.904   2.772
69812W        W34020  29.486   2.838  11.871
69813W        W34021  42.797   4.367  13.374
69814W        W34022  16.167  10.744   2.313
69815W        W34023  28.549  37.061   4.243
69816W        W34024  12.353  35.360   2.710
69817W        W34025   0.842   7.747  12.371
69818W        W34026  29.955  11.194   1.383
69819W        W34027  14.160  34.952  14.498
69820W        W34028  23.625  23.653   0.425
69821W        W34029  44.930   7.839  10.545
69822W        W34030  24.049  12.632   1.801
69823W        W34031  30.604  15.299   2.741
69824W        W34032   8.175  31.052  12.077
69825W        W34033  12.153   9.305  12.400
69826W        W34034  19.550  34.485  13.959
69827W        W34035   2.843  12.851  12.044
69828W        W34036  27.596  18.638   4.698
69829W        W34037   1.778  43.504  14.483
69830W        W34038  42.868  43.012  14.326
69831W        W34039  22.596  31.590   3.316
69832W        W34040   7.763   4.810  14.800
69833W        W34041  34.102  44.989   4.155
69834W        W34042  42.450  31.035   3.266
69835W        W34043  14.619  22.500  13.512
69836W        W34044  28.079  37.363   3.635
69837W        W34045  42.905  29.641   0.791
69838W        W34046  39.842  41.437   2.248
69839W        W34047   9.888  12.630   4.342
69840W        W34048  25.109   5.234  12.937
69841W        W34049   2.327   4.432   3.716
69842W        W34050  41.791  40.050  12.516
69843W        W34051   2.902   2.437  13.429
69844W        W34052  12.848  37.537  14.365
69845W        W34053  21.186  39.497  12.977
69846W        W34054  39.322  17.717  12.366
69847W        W34055  20.034  21.049  14.320
69848W        W34056  31.572  38.917   0.280
69849W        W34057  40.965  36.991   0.412
69850W        W34058   5.419  26.507   3.363
69851W        W34059  26.616  39.049   0.891
69852W        W34060  15.235   8.167  14.337
69853W        W34061  11.749   7.758  12.507
69854W        W34062  24.536  40.820   2.775
69855W        W34063   2.847  23.215  11.414
69856W        W34064   9.324  24.093   1.933
69857W        W34065   5.354  39.452   1.237
69858W        W34066  28.510  42.018  12.357
69859W        W34067  29.924  37.371   1.407
69860W        W34068   3.866  36.372  13.367
69861W        W34069  22.661  38.567  12.011
69862W        W34070  26.573  39.557   2.318
69863W        W34071  11.148  41.999   1.709
69864W        W34072  22.098  34.569  11.937
69865W        W34073  19.169  41.824   3.692
69866W        W34074   3.810  35.964  10.069
69867W        W34075   9.226  29.598  13.900
69868W        W34076  44.503  31.019   0.773
69869W        W34077  32.894  16.596  13.472
69870W        W34078  17.650   3.258   1.707
69871W        W34079   1.893  31.098   3.696
69872W        W34080  33.506   8.308   2.410
69873W        W34081  26.131  23.106   2.212
69874W        W34082   3.872  44.854   4.188
69875W        W34083  43.794  30.497   3.326
69876W        W34084  36.963  17.791   1.317
69877W        W34085  32.566  18.779  12.573
69878W        W34086   3.332  24.061   5.235
69879W        W34087  28.624  29.997   2.189
69880W        W34088  19.699   4.711   1.797
69881W        W34089  19.602   0.410  14.766
69882W        W34090  15.709   4.255  11.444
69883W        W34091  31.058   1.943  13.856
69884W        W34092  18.772  39.892   4.120
69885W        W34093  27.022  27.460  11.008
69886W        W34094   8.664  29.087   3.691
69887W        W34095  31.470  18.661  11.872
69888W        W34096  33.001  13.767   3.761
69889W        W34097  27.547  20.767  14.955
69890W        W34098  22.725  23.205   2.405
69891W        W34099  32.045  19.682   2.761
69892W        W34100  24.122  20.255  11.894
69893W        W34101  38.061  33.435  11.464
69894W        W34102  32.136  23.728   0.334
69895W        W34103  20.096  25.007   0.935
69896W        W34104   3.255   4.826  13.002
69897W        W34105  44.273  41.032  12.962
69898W        W34106  34.588  34.998   0.481
69899W        W34107  21.242  28.478  12.045
69900W        W34108  38.001  19.230  13.850
69901W        W34109   1.855  22.212  10.455
69902W        W34110  28.995  21.168  13.883
69903W        W34111  10.258  44.314   1.797
69904W        W34112   5.438   8.194   1.406
69905W        W34113  18.786  29.113  11.992
69906W        W34114  23.553  15.302   0.808
69907W        W34115   6.904  24.651   1.844
69908W        W34116   9.868  37.475  14.833
69909W        W34117  39.405  25.189   2.802
69910W        W34118  17.260   7.858   3.273
69911W        W34119   7.189  37.067   3.264
69912W        W34120  39.828  21.253   9.585
69913W        W34121  27.185  32.522  10.969
69914W        W34122   0.936  44.438  10.445
69915W        W34123  23.540  34.982   2.298
69916W        W34124  13.134  14.747   4.744
69917W        W34125  24.586  16.310   4.198
69918W        W34126  13.239  31.970   5.304
69919W        W34127   0.957  42.318  10.011
69920W        W34128  41.298  13.646   1.773
69921W        W34129  34.081  11.796   2.201
69922W        W34130  25.168  29.580  13.878
69923W        W34131  29.922  20.533  13.513
69924W        W34132  13.633  44.330  13.344
69925W        W34133  41.383  25.013  13.849
69926W        W34134   5.399  37.508  14.470
69927W        W34135  43.900  22.022   3.709
69928W        W34136  21.543  10.874  14.327
69929W        W34137  40.442  33.612   3.191
69930W        W34138   9.819  39.849   2.879
69931W        W34139  11.212  28.677  14.408
69932W        W34140   3.241  27.546  10.425
69933W        W34141  12.681  35.521  13.007
69934W        W34142  39.319   9.782  14.977
69935W        W34143  35.567  41.351  10.546
69936W        W34144  17.635  13.213  12.935
69937W        W34145  40.469  12.617   3.281
69938W        W34146   3.950  35.470   4.312
69939W        W34147   9.647  33.479  14.816
69940W        W34148  20.641  30.113   0.858
69941W        W34149   3.431  24.008   4.130
69942W        W34150   0.337  38.993   1.879
69943W        W34151  35.045   4.379   1.272
69944W        W34152   4.899   2.827   2.281
69945W        W34153  38.899  42.891   1.806
69946W        W34154  26.123  41.380   3.864
69947W        W34155   3.224  23.656  10.575
69948W        W34156  34.110  44.349  14.410
69949W        W34157   9.728  23.990   2.827
69950W        W34158  33.491  30.530   5.236
69951W        W34159  39.018  18.777   1.877
69952W        W34160  30.458   2.844  12.531
69953W        W34161  24.988   2.758   3.301
69954W        W34162  40.410  10.181   0.283
69955W        W34163  10.828  39.366   4.136
69956W        W34164   6.867  12.155  14.922
69957W        W34165  21.205  42.794   2.241
69958W        W34166  35.506  35.031   4.283
69959W        W34167   0.952   6.284   0.353
69960W        W34168   0.921  10.766  12.430
69961W        W34169   8.229  18.565  14.879
69962W        W34170   6.802  42.979  14.975
69963W        W34171  37.404  10.866   1.772
69964W        W34172  33.979   4.283  12.006
69965W        W34173  25.014  14.759  12.414
69966W        W34174   2.394  21.069   4.687
69967W        W34175  41.993   8.191  13.339
69968W        W34176  35.864  10.192   1.744
69969W        W34177  40.945  30.572  10.488
69970W        W34178  42.949  14.771   4.611
69971W        W34179  10.732  31.933   0.956
69972W        W34180  34.111  27.184   2.771
69973W        W34181  35.003   8.266   1.908
69974W        W34182  22.689  21.227  10.994
69975W        W34183  39.855  28.645  11.038
69976W        W34184  11.822   0.781  10.516
69977W        W34185  18.121   2.818   1.278
69978W        W34186  29.132  35.928  14.022
69979W        W34187   2.876  12.350   1.701
69980W        W34188  18.132  12.132  10.979
69981W        W34189  35.598  11.656   0.268
69982W        W34190   6.195  17.769  13.994
69983W        W34191  29.126  34.578   0.336
69984W        W34192  36.850  39.944   4.288
69985W        W34193  26.698  37.943   0.413
69986W        W34194   9.192   4.257  14.931
69987W        W34195  28.472  38.561  13.795
69988W        W34196  29.536  24.163  12.460
69989W        W34197   4.248  28.568  11.939
69990W        W34198  15.098  21.224   1.357
69991W        W34199  30.082  31.994  10.523
69992W        W34200  43.921  40.479   2.823
69993W        W34201  33.987   9.174  14.904
69994W        W34202  14.731  19.651   4.796
69995W        W34203  16.692  36.091  13.928
69996W        W34204  18.552  18.241   3.337
69997W        W34205   5.834  15.748   0.329
69998W        W34206  31.948  17.671  11.918
69999W        W34207  21.657  36.580  10.974
70000W        W34208  35.926  10.760   3.856
70001W        W34209  27.120   9.843  14.392
70002W        W34210  27.083  23.197  12.500
70003W        W34211  43.432  31.504   2.853
70004W        W34212  18.229  39.332   9.564
70005W        W34213   4.741   4.706  13.435
70006W        W34214  35.986   3.244  11.091
70007W        W34215  22.598  44.329  12.839
70008W        W34216  23.704  14.682   2.244
70009W        W34217   9.211  13.235   4.315
70010W        W34218  36.496  20.691   3.688
70011W        W34219  32.916  39.966  12.471
70012W        W34220   0.479  37.003  10.919
70013W        W34221  33.119  44.337   1.256
70014W        W34222  19.164   7.688   3.225
70015W        W34223   9.219   6.292   3.282
70016W        W34224   5.240  19.120   0.926
70017W        W34225  13.257  18.674  14.022
70018W        W34226  44.353  18.174   1.218
70019W        W34227  30.041  23.015  12.983
70020W        W34228  12.195  36.855  11.543
70021W        W34229  27.066  37.540  12.948
70022W        W34230  25.643  20.196   3.240
70023W        W34231  43.836  18.279  14.337
70024W        W34232  17.786  17.184   1.251
70025W        W34233  26.583  28.026  12.089
70026W        W34234  35.915  16.713  11.379
70027W        W34235   7.380   0.787  12.915
70028W        W34236  41.926  23.626  14.971
70029W        W34237  24.657  33.944  10.473
70030W        W34238  37.989   3.715   4.623
70031W        W34239  27.102  35.930  12.477
70032W        W34240  32.453  20.604   2.880
70033W        W34241  31.932  16.102  13.433
70034W        W34242  12.811  15.789   3.633
70035W        W34243  39.520  32.135  14.291
70036W        W34244  43.812   6.703   0.277
70037W        W34245  40.962  28.032   4.646
70038W        W34246  28.072  14.595  11.603
70039W        W34247  34.092  29.060  10.601
70040W        W34248   0.876  42.000  10.021
70041W        W34249   2.268  44.775  14.297
70042W        W34250  34.533  22.101  10.566
70043W        W34251  35.516   2.378  14.831
70044W        W34252  31.615  11.214  14.766
70045W        W34253  37.458  29.643   2.208
70046W        W34254  28.671  41.807   2.411
70047W        W34255  38.960  11.857  13.491
70048W        W34256  43.467   5.209  11.097
70049W        W34257   9.248  34.909  11.000
70050W        W34258  12.146   0.805  10.915
70051W        W34259  41.795  15.122   3.292
70052W        W34260   8.719  26.539  10.559
70053W        W34261   8.392   0.937  12.005
70054W        W34262  42.407  17.659   4.226
70055W        W34263  17.730  27.998   1.311
70056W        W34264  25.088  20.727  14.885
70057W        W34265  34.511   2.805   1.798
70058W        W34266   2.922   4.855  12.440
70059W        W34267  16.212  17.229   3.224
70060W        W34268  11.370  15.173   2.669
70061W        W34269   0.289  44.422   3.709
70062W        W34270  22.632  18.223   0.743
70063W        W34271  24.007  20.177  14.916
70064W        W34272   6.285  25.672  12.347
70065W        W34273  26.979  18.684  11.570
70066W        W34274  44.322  17.079   3.384
70067W        W34275  31.924  32.595   2.783
70068W        W34276   9.727  24.575  12.445
70069W        W34277  30.075   2.352   2.859
70070W        W34278  20.038  20.195  10.417
70071W        W34279  31.109  35.009   0.787
70072W        W34280   6.274  17.163   3.646
70073W        W34281  40.469  26.524   0.849
70074W        W34282  10.281   7.393  10.021
70075W        W34283  12.165  39.830   2.725
70076W        W34284  42.514  13.823   4.668
70077W        W34285  36.080   9.165  12.048
70078W        W34286   1.245  33.610   4.717
70079W        W34287  28.990  34.593  12.923
70080W        W34288   3.443   0.763  10.516
70081W        W34289  20.061  37.902  10.080
70082W        W34290  28.642  29.440   0.743
70083W        W34291  44.909  16.703  10.620
70084W        W34292   4.252  14.261  10.626
70085W        W34293  31.106  16.270   3.737
70086W        W34294   0.900   2.252  12.522
70087W        W34295  14.741  13.811  12.536
70088W        W34296  43.832  11.326   0.476
70089W        W34297   6.706  40.840   0.482
70090W        W34298  16.591  10.175   3.297
70091W        W34299  17.107   7.180  11.421
70092W        W34300  29.544  40.333  12.522
70093W        W34301  34.536   6.904   4.638
70094W        W34302  35.878  44.877   1.816
70095W        W34303  33.058  39.919   4.777
70096W        W34304  18.183   1.918  13.048
70097W        W34305   0.839   8.400  13.942
70098W        W34306  34.478  39.441   4.634
70099W        W34307   5.284   2.837   1.396
70100W        W34308  22.215  27.581  11.549
70101W        W34309  19.772   2.876  10.641
70102W        W34310   3.955  12.785   2.290
70103W        W34311  43.357   7.244   0.415
70104W        W34312  25.211  28.001   3.787
70105W        W34313  33.531  14.719  14.902
70106W        W34314  30.104  18.253   4.768
70107W        W34315  37.911  44.946   2.886
70108W        W34316  43.339  25.558  14.969
70109W        W34317  43.884   9.176  11.862
70110W        W34318  20.139  11.323  14.917
70111W        W34319   4.293  22.585   0.786
70112W        W34320  12.746  42.866  13.915
70113W        W34321  44.403  42.501   2.397
70114W        W34322  24.702  21.120  11.960
70115W        W34323  42.896  42.026  12.385
70116W        W34324  27.014   3.894   4.766
70117W        W34325  16.753  25.592   1.240
70118W        W34326  27.545  16.135  14.024
70119W        W34327  38.947  16.737   3.228
70120W        W34328   0.943  11.839   0.416
70121W        W34329  27.462  25.994   0.959
70122W        W34330  13.684  31.421  10.642
70123W        W34331   0.764   9.665  14.420
70124W        W34332  41.884  19.576  12.495
70125W        W34333  26.160  44.946  13.397
70126W        W34334  19.220  22.249   1.216
70127W        W34335  26.167  17.090  10.926
70128W        W34336  40.357  21.652  14.330
70129W        W34337   3.850  14.161  10.898
70130W        W34338   3.902  21.097   4.709
70131W        W34339  20.119  21.632  11.594
70132W        W34340  44.494  31.449  14.895
70133W        W34341  19.175   9.692  12.061
70134W        W34342  33.119  16.809   3.838
70135W        W34343  38.350   1.309   0.369
70136W        W34344  22.565  39.025  12.825
70137W        W34345  18.636   5.285  13.054
70138W        W34346  32.121  33.410  14.981
70139W        W34347  14.752   3.349  10.997
70140W        W34348  23.638  11.136  14.347
70141W        W34349  31.529  38.554   2.749
70142W        W34350  12.825  38.467   2.301
70143W        W34351  12.314  14.628  12.434
70144W        W34352  18.295  27.952  12.433
70145W        W34353  20.184  44.473  13.396
70146W        W34354  42.374  40.522   0.468
70147W        W34355   8.373   1.736   0.806
70148W        W34356  13.840  17.079  11.046
70149W        W34357   2.954  41.338   0.305
70150W        W34358  22.159   1.804  12.855
70151W        W34359   9.356  19.726  12.067
70152W        W34360  33.041  10.272  11.125
70153W        W34361   4.775   9.229   1.718
70154W        W34362  44.496  37.417  14.399
70155W        W34363  37.027  25.711  13.473
70156W        W34364  31.983  37.079   2.230
70157W        W34365  13.826  22.171   4.257
70158W        W34366  35.428  18.641   1.338
70159W        W34367  17.559  17.801  13.383
70160W        W34368  32.582  41.902  14.483
70161W        W34369   0.796   8.743   1.890
70162W        W34370  11.331  15.776   0.468
70163W        W34371  25.497  20.739  11.603
70164W        W34372   3.888  24.703   4.723
70165W        W34373  25.575  24.586   0.471
70166W        W34374  22.605   5.290   0.460
70167W        W34375   4.411  12.808  11.936
70168W        W34376  24.137  32.071   3.231
70169W        W34377   2.871  24.713  14.449
70170W        W34378  16.170  27.182   3.647
70171W        W34379  30.531  32.508   4.787
70172W        W34380  38.888  41.395  11.469
70173W        W34381  19.257  25.568  13.477
70174W        W34382   2.314  13.162  14.775
70175W        W34383  43.385  41.481  14.500
70176W        W34384  42.516  22.124   1.446
70177W        W34385  41.995   7.257   2.292
70178W        W34386   3.248   8.313   4.629
70179W        W34387   5.892  19.210  10.607
70180W        W34388   3.902  32.032  12.419
70181W        W34389  12.180  36.554  14.386
70182W        W34390  40.315  13.244   2.385
70183W        W34391  14.321  13.175   3.266
70184W        W34392  10.288  13.696  13.524
70185W        W34393  22.683  34.071  14.401
70186W        W34394  15.801   1.910  10.104
70187W        W34395   7.379  20.754   4.199
70188W        W34396  44.264  30.469   1.404
70189W        W34397  30.644   2.764   0.791
70190W        W34398  43.485  42.370   4.202
70191W        W34399  38.873  35.487  13.335
70192W        W34400  36.072  22.562   1.342
70193W        W34401  44.981  14.809   1.851
70194W        W34402  30.916  14.177  12.529
70195W        W34403  35.389   8.302  14.466
70196W        W34404  36.951  37.571  14.322
70197W        W34405  28.450  20.228   1.348
70198W        W34406  35.031  26.115  13.343
70199W        W34407  36.514  33.456   4.315
70200W        W34408   2.855   8.814   0.481
70201W        W34409   6.841  12.633   2.733
70202W        W34410  32.088  25.208  10.552
70203W        W34411  41.529  24.030   0.773
70204W        W34412  13.798   4.245  13.349
70205W        W34413   7.782  37.990   2.746
70206W        W34414  25.161  10.319  13.474
70207W        W34415  35.406   8.227   1.784
70208W        W34416   0.884   4.857   4.180
70209W        W34417  24.640  19.146   1.318
70210W        W34418   8.192   2.330   2.858
70211W        W34419  41.794   4.402  12.948
70212W        W34420  36.527  36.446   3.845
70213W        W34421   2.836  11.186   0.752
70214W        W34422  27.562  23.497   4.621
70215W        W34423  44.840   8.881  12.553
70216W        W34424  16.200   3.284  10.997
70217W        W34425  10.295  14.168   2.205
70218W        W34426  22.123   3.299   3.798
70219W        W34427  27.151  31.617   1.356
70220W        W34428  12.361  33.619   1.446
70221W        W34429  18.603  29.976  13.973
70222W        W34430  37.531  35.414  12.839
70223W        W34431  10.277  38.367   9.963
70224W        W34432  38.928  43.839   3.813
70225W        W34433   6.375  33.128  11.515
70226W        W34434  25.119  25.207   2.320
70227W        W34435  37.470  19.090  10.906
70228W        W34436  37.427  33.488  12.081
70229W        W34437  42.296  33.068   2.793
70230W        W34438   7.276  18.564  14.484
70231W        W34439  24.106  24.553   4.705
70232W        W34440  33.887   8.730  10.595
70233W        W34441  18.123  20.250  13.478
70234W        W34442   3.438  41.465   4.684
70235W        W34443  24.174   2.260   4.288
70236W        W34444  29.976  44.398  13.440
70237W        W34445  38.382   7.216  12.532
70238W        W34446  32.886  11.362   3.857
70239W        W34447   6.239  37.937   3.650
70240W        W34448  16.159  38.562   3.192
70241W        W34449  17.132  37.429   1.377
70242W        W34450  12.314  32.128   1.735
70243W        W34451   3.940  22.673   2.180
70244W        W34452  18.162  19.664  14.909
70245W        W34453  30.115  37.529   1.718
70246W        W34454  17.229  25.638  13.866
70247W        W34455  23.651  36.539   0.281
70248W        W34456   2.818  42.029   4.684
70249W        W34457  12.741  33.508  10.644
70250W        W34458  31.454  17.677   3.869
70251W        W34459  28.055  27.088   1.754
70252W        W34460  25.977  11.858   0.463
70253W        W34461  16.746  44.949  10.977
70254W        W34462  29.025  33.429   2.215
70255W        W34463  15.631  36.431  13.036
70256W        W34464  36.454  15.299   2.225
70257W        W34465   6.749   3.331   1.319
70258W        W34466  19.722  33.997   2.303
70259W        W34467  21.237  12.220  14.430
70260W        W34468  24.094  42.852   0.246
70261W        W34469  25.704  12.209   2.183
70262W        W34470  44.273  32.943  14.822
70263W        W34471   8.837  43.426   2.254
70264W        W34472   5.405  16.635  11.120
70265W        W34473  36.072   2.860  11.913
70266W        W34474  22.736  28.971   9.977
70267W        W34475  36.061  43.442   0.424
70268W        W34476  16.201  14.676  11.108
70269W        W34477   0.426  22.618   0.374
70270W        W34478   2.764  20.132  14.354
70271W        W34479  27.476   3.895  13.440
70272W        W34480  44.296  19.727  10.069
70273W        W34481  16.710   8.735   0.483
70274W        W34482  44.388  41.358  11.388
70275W        W34483  10.358  13.211  12.500
70276W        W34484  25.986  15.820   1.271
70277W        W34485  42.979  15.685   3.259
70278W        W34486  43.913  20.127  13.360
70279W        W34487  21.028  22.716  14.403
70280W        W34488  25.627  13.277   2.711
70281W        W34489  44.996  17.279  13.053
70282W        W34490  30.572  44.313   4.805
70283W        W34491  28.930  33.057  14.290
70284W        W34492  36.059  40.022   4.695
70285W        W34493  25.698  41.964  11.596
70286W        W34494  34.029  40.008   3.823
70287W        W34495  37.578  27.084   3.382
70288W        W34496  39.371   7.292  11.040
70289W        W34497  25.473  23.030   0.313
70290W        W34498  16.178  38.404   2.227
70291W        W34499  22.235  35.075  13.984
70292W        W34500  25.131   7.198  12.456
70293W        W34501  36.080  12.670   4.266
70294W        W34502  14.735  40.430  13.794
70295W        W34503  14.124   9.201   3.830
70296W        W34504  36.454   7.209  12.866
70297W        W34505   9.665  24.634   1.318
70298W        W34506  27.604   7.861  12.854
70299W        W34507  10.751  27.040   4.181
70300W        W34508  27.020  26.594  10.540
70301W        W34509  34.372  18.253   1.374
70302W        W34510  18.056   8.231  14.021
70303W        W34511  23.535  40.914   2.231
70304W        W34512  36.994  14.200  14.394
70305W        W34513  20.176  28.525  10.508
70306W        W34514   0.483   0.865   4.185
70307W        W34515  20.261  40.358  11.941
70308W        W34516  43.352   2.288  10.086
70309W        W34517  40.967  21.605  13.378
70310W        W34518  24.124   4.384  10.572
70311W        W34519  11.243  23.560   1.406
70312W        W34520   1.398   4.381   1.846
70313W        W34521  10.259  37.833  12.008
70314W        W34522  38.329   5.734  13.890
70315W        W34523  25.186  18.293  13.328
70316W        W34524  11.357   1.854   1.398
70317W        W34525  13.755  11.141   1.395
70318W        W34526  27.625  27.064  13.033
70319W        W34527  23.101  30.435   3.771
70320W        W34528  28.525  25.217   4.741
70321W        W34529   2.249   4.882  14.959
70322W        W34530   7.776  24.050   2.300
70323W        W34531   8.696  11.127   3.171
70324W        W34532  33.568  21.586   1.763
70325W        W34533  17.638  40.492  14.987
70326W        W34534  25.204  26.055   0.393
70327W        W34535   8.174  10.146   0.425
70328W        W34536  22.069  36.434  12.571
70329W        W34537  12.145  37.550   1.778
70330W        W34538  12.358  28.487  10.933
70331W        W34539  12.176  36.577   2.703
70332W        W34540   3.935  11.147   0.346
70333W        W34541  36.026  31.097   4.752
70334W        W34542  24.497  43.342  13.013
70335W        W34543  30.622  36.844   3.160
70336W        W34544  35.401   9.160  14.430
70337W        W34545   6.796  15.635   4.689
70338W        W34546  22.062  21.222  13.047
70339W        W34547  36.473  29.455  12.438
70340W        W34548   4.295  33.397  14.897
70341W        W34549   5.374   7.255   2.312
70342W        W34550  31.577  36.002   4.796
70343W        W34551  17.579  37.527   2.903
70344W        W34552  41.433  28.463   4.610
70345W        W34553  33.076  19.229  12.545
70346W        W34554  40.836  16.715  13.032
70347W        W34555  21.630  16.694  14.001
70348W        W34556  11.761  36.569   4.126
70349W        W34557   3.867  40.010   4.179
70350W        W34558  44.857   4.256  14.840
70351W        W34559  10.351  35.477   0.406
70352W        W34560  19.155  30.431   2.383
70353W        W34561  25.107  10.872   1.414
70354W        W34562  40.509  14.152   4.335
70355W        W34563  35.440  15.684  14.494
70356W        W34564  18.050   5.787  13.410
70357W        W34565  29.136  42.337  13.980
70358W        W34566  40.988   8.892  13.409
70359W        W34567  35.870   9.153   4.650
70360W        W34568  38.467  18.277  11.029
70361W        W34569  28.172   8.758  10.093
70362W        W34570  27.121   0.255   0.894
70363W        W34571  36.534  43.845   4.724
70364W        W34572  41.523  18.680   2.714
70365W        W34573   8.294  39.000  14.343
70366W        W34574   4.302  38.439  11.569
70367W        W34575  21.213   0.331  14.817
70368W        W34576  30.991  20.584   1.722
70369W        W34577  25.978  44.468   3.771
70370W        W34578  35.860  20.071   2.844
70371W        W34579   8.680  22.735   3.798
70372W        W34580  42.299  29.645  14.423
70373W        W34581   8.700   2.281   3.258
70374W        W34582  12.207  38.929  11.035
70375W        W34583   1.955  28.150   1.420
70376W        W34584  37.881  28.437  12.549
70377W        W34585  30.495  39.463  10.991
70378W        W34586  40.319  23.087  13.872
70379W        W34587  42.413   6.287   1.865
70380W        W34588  29.093  38.915   1.369
70381W        W34589   2.899  32.481   0.939
70382W        W34590  43.930  39.835   4.727
70383W        W34591  10.158  36.970  12.514
70384W        W34592   2.779  28.996   3.213
70385W        W34593   4.396  21.686  11.952
70386W        W34594  23.126  14.788  13.338
70387W        W34595   0.286  24.977  12.021
70388W        W34596  38.910  34.601  13.543
70389W        W34597  20.163  14.748   4.663
70390W        W34598  16.316  20.634  14.352
70391W        W34599  40.484  22.109   1.780
70392W        W34600  30.419   7.385   0.915
70393W        W34601  44.357  30.507   4.236
70394W        W34602  17.167  29.954  10.058
70395W        W34603  25.649  38.925   0.418
70396W        W34604  34.880  27.545   4.675
70397W        W34605  18.118  21.530   4.803
70398W        W34606   6.189  29.661  10.983
70399W        W34607  17.204  21.132  11.591
70400W        W34608  39.964  27.003   3.737
70401W        W34609  21.160   3.425  12.453
70402W        W34610  33.437   0.358  12.415
70403W        W34611  34.014  32.600  12.548
70404W        W34612  41.990   3.751   4.628
70405W        W34613  33.965  10.337   1.389
70406W        W34614  25.633   1.826   4.255
70407W        W34615  11.755  30.604  12.993
70408W        W34616  15.089  16.206   3.260
70409W        W34617   5.283  31.562   2.896
70410W        W34618  29.938   9.751  10.597
70411W        W34619  13.257  34.079   3.329
70412W        W34620   8.721  15.157  13.814
70413W        W34621  44.980   1.881   2.295
70414W        W34622  37.985   7.226   4.749
70415W        W34623   1.801  15.151  13.318
70416W        W34624   4.342  12.724  11.037
70417W        W34625  44.413   5.201   0.781
70418W        W34626  20.757  27.985  12.894
70419W        W34627  28.015  14.688  14.846
70420W        W34628  27.576  26.066   3.851
70421W        W34629  38.477   9.712  12.890
70422W        W34630   9.755  10.158  14.372
70423W        W34631  17.287  16.603   2.285
70424W        W34632  25.693  20.229  12.919
70425W        W34633   9.736   6.794   3.188
70426W        W34634  35.859  31.564   1.813
70427W        W34635  32.935   0.920  13.516
70428W        W34636  16.732  37.368   0.344
70429W        W34637  24.683   5.856  14.879
70430W        W34638  42.391  28.491   1.401
70431W        W34639  37.844  30.551  11.412
70432W        W34640  19.117  23.575  13.373
70433W        W34641   1.754  12.743   2.797
70434W        W34642  38.525  14.643   4.651
70435W        W34643  11.686  26.067   3.220
70436W        W34644  19.194  41.987  13.044
70437W        W34645  14.225  24.094  13.369
70438W        W34646  17.293  34.530   4.717
70439W        W34647  29.466   2.797  13.844
70440W        W34648  43.463  28.159  12.462
70441W        W34649  22.604  11.633   5.161
70442W        W34650  20.119  22.707  12.459
70443W        W34651   0.289  27.473   5.791
70444W        W34652   9.754   2.967  11.108
70445W        W34653  31.448  39.417  10.928
70446W        W34654   0.813   6.707  12.958
70447W        W34655  41.340  14.681  12.928
70448W        W34656  22.610  44.462  10.043
70449W        W34657  36.499  16.226   2.288
70450W        W34658   6.192  44.334   5.126
70451W        W34659  29.629  15.761   0.838
70452W        W34660   1.947  36.012  13.545
70453W        W34661   6.799  42.826  14.509
70454W        W34662  13.635   3.913   3.712
70455W        W34663  27.666  22.606  10.636
70456W        W34664   9.360  44.470  13.314
70457W        W34665  30.120  31.115   3.190
70458W        W34666   2.727  22.244  13.540
70459W        W34667  23.697  28.571   3.741
70460W        W34668  42.958   2.754   1.883
70461W        W34669  18.143  38.871  10.920
70462W        W34670  20.675  34.109   3.327
70463W        W34671  35.372  15.690  12.963
70464W        W34672   7.262   0.492   0.338
70465W        W34673   8.711   3.265   4.730
70466W        W34674   1.858  14.698   3.263
70467W        W34675   2.451  16.286   3.355
70468W        W34676  30.636  24.546  11.425
70469W        W34677  14.599  29.471   0.472
70470W        W34678  40.422  20.579  13.832
70471W        W34679  15.191  12.788  14.446
70472W        W34680   7.319  24.524  12.414
70473W        W34681  25.011  12.275  13.522
70474W        W34682  37.991  10.329  14.000
70475W        W34683  38.437   2.369  13.951
70476W        W34684   6.251   3.406   0.772
70477W        W34685  43.293  40.324   4.114
70478W        W34686  31.106   9.789   3.654
70479W        W34687  34.448  21.591   0.245
70480W        W34688  13.719   9.871  14.949
70481W        W34689  41.912   0.482  14.815
70482W        W34690  36.849  32.908   4.235
70483W        W34691   1.785  41.516  10.993
70484W        W34692   1.761   7.810  12.422
70485W        W34693   5.795  39.423  14.366
70486W        W34694  31.480  20.250   2.886
70487W        W34695  28.544  14.608   1.259
70488W        W34696  35.890  30.586  12.876
70489W        W34697   4.757  19.703   3.296
70490W        W34698  29.557  36.461   4.260
70491W        W34699  34.033  44.505   1.881
70492W        W34700   1.285   1.334  12.033
70493W        W34701   5.816   3.401   3.705
70494W        W34702  24.133  35.881  10.584
70495W        W34703  28.109  27.181  13.917
70496W        W34704  32.418  43.908   4.738
70497W        W34705   1.766  20.719   0.425
70498W        W34706   9.753   5.693   2.835
70499W        W34707  20.593   2.891  12.937
70500W        W34708  12.697  26.153   0.785
70501W        W34709  28.042  19.088   1.875
70502W        W34710  10.712  13.736  10.939
70503W        W34711  13.243   4.323   4.668
70504W        W34712  29.935  13.132   0.264
70505W        W34713  34.498  26.611   0.427
70506W        W34714  20.178  34.604   4.290
70507W        W34715  21.748  26.531   4.212
70508W        W34716  30.949  16.595   0.476
70509W        W34717   7.179  31.085  12.413
70510W        W34718  44.307  43.329  10.404
70511W        W34719  39.409  15.662   5.101
70512W        W34720  17.571  10.223  13.000
70513W        W34721  30.476  30.650  14.440
70514W        W34722  39.334  42.302   4.303
70515W        W34723  16.781  35.430   2.777
70516W        W34724  28.551  23.089   3.745
70517W        W34725  17.765  25.706   4.824
70518W        W34726   3.241  40.529  13.490
70519W        W34727   4.348  42.957   1.272
70520W        W34728  24.722  31.092  10.998
70521W        W34729   1.477  25.155   0.819
70522W        W34730   9.657  25.994   4.819
70523W        W34731   7.385  14.236  12.062
70524W        W34732  38.827  13.757  10.949
70525W        W34733   3.437  11.280   1.794
70526W        W34734  28.136  30.966  12.919
70527W        W34735  19.568  17.297   0.788
70528W        W34736  18.138  17.776  13.049
70529W        W34737  11.334  12.133   2.745
70530W        W34738  18.188  13.283  14.890
70531W        W34739  34.591  42.929  13.991
70532W        W34740   6.894  16.612  10.636
70533W        W34741  37.432  18.740  11.527
70534W        W34742  11.859  20.232  11.580
70535W        W34743  40.025   0.300   4.348
70536W        W34744   4.344  44.354   4.769
70537W        W34745  12.742  35.892   3.794
70538W        W34746  25.631  14.735   0.295
70539W        W34747  22.020   0.861  10.970
70540W        W34748  11.807  32.078   4.787
70541W        W34749  23.585  40.433  10.537
70542W        W34750  25.108  31.114  13.845
70543W        W34751  30.476  14.316   1.251
70544W        W34752  39.015  35.915  11.397
70545W        W34753  13.213  28.492   1.283
70546W        W34754  31.562  44.334   3.809
70547W        W34755   5.417  38.514  14.509
70548W        W34756  43.898  12.685   4.147
70549W        W34757   1.478  30.085  12.570
70550W        W34758  44.913  34.106  13.317
70551W        W34759  25.048  26.152  10.639
70552W        W34760  30.427  39.052   3.819
70553W        W34761  27.594  13.271  12.374
70554W        W34762  14.627  12.277   3.868
70555W        W34763   5.233   8.204  11.989
70556W        W34764  17.770  20.623  10.948
70557W        W34765  43.007  34.971   1.223
70558W        W34766   3.817  23.538  11.090
70559W        W34767  41.345  14.807  13.341
70560W        W34768  10.758   9.684   1.773
70561W        W34769   4.425  37.443   3.786
70562W        W34770  28.661  23.056   2.233
70563W        W34771  13.159   9.698   0.765
70564W        W34772  34.116  38.954   3.222
70565W        W34773  27.618  38.026   2.280
70566W        W34774  31.106  33.537  10.576
70567W        W34775  11.264   1.443   2.725
70568W        W34776  41.970  23.625   1.790
70569W        W34777  22.629   9.737  14.294
70570W        W34778  24.121  16.298   2.249
70571W        W34779  33.554   5.275  14.306
70572W        W34780  33.622   3.343  13.903
70573W        W34781  38.873  22.519  12.532
70574W        W34782  15.254  41.506   3.201
70575W        W34783   2.411  23.656  13.036
70576W        W34784  28.135  12.221  11.930
70577W        W34785  23.713  38.568   0.422
70578W        W34786  13.326  42.976   3.637
70579W        W34787  40.010  21.656  14.922
70580W        W34788   4.395  16.181   3.178
70581W        W34789   0.801  38.479  14.923
70582W        W34790  43.896  26.572  13.014
70583W        W34791   7.687  20.262  10.954
70584W        W34792  27.690   7.889   3.269
70585W        W34793  38.997  24.182   2.363
70586W        W34794  26.075  10.749  13.317
70587W        W34795  19.209  17.248   4.325
70588W        W34796  35.088  30.655   4.759
70589W        W34797  29.523  11.301   2.679
70590W        W34798  16.718  10.760   1.273
70591W        W34799  14.691  16.700   9.940
70592W        W34800  32.414  42.797   0.280
70593W        W34801  14.157  32.488   1.221
70594W        W34802  23.611  21.636   1.726
70595W        W34803  12.710  38.542   3.146
70596W        W34804  23.094  18.707   2.249
70597W        W34805  25.570  36.535   0.313
70598W        W34806  29.028  38.853  14.358
70599W        W34807  17.571  42.840   4.132
70600W        W34808  25.017  25.071  13.342
70601W        W34809  36.037  30.485   1.847
70602W        W34810  34.526  44.326  11.595
70603W        W34811  18.291   9.395  13.314
70604W        W34812  32.576  31.646  12.579
70605W        W34813  29.138  11.241   2.827
70606W        W34814  43.915  36.351  14.935
70607W        W34815  16.094  33.518  12.498
70608W        W34816  25.556  14.126   0.802
70609W        W34817   9.725   7.801  10.582
70610W        W34818  27.035  18.666  14.509
70611W        W34819   8.737  17.172  14.016
70612W        W34820  29.440   4.440  11.442
70613W        W34821  21.022  21.747  13.939
70614W        W34822  13.651  13.670  13.420
70615W        W34823  10.857  43.285   4.261
70616W        W34824  37.954  20.703   2.234
70617W        W34825  36.420   5.706  12.887
70618W        W34826  16.613  25.032   3.782
70619W        W34827  38.436  39.986  14.894
70620W        W34828  40.843   9.780  10.909
70621W        W34829  31.539   9.880  14.889
70622W        W34830  19.644  25.215  13.447
70623W        W34831  23.674  11.162  12.440
70624W        W34832  15.155   9.246   2.335
70625W        W34833   6.898  44.869   3.647
70626W        W34834  43.994   1.753   2.351
70627W        W34835  29.084  38.406  10.998
70628W        W34836  16.743  18.588  10.500
70629W        W34837   4.260  38.343  13.474
70630W        W34838  40.531  10.296   0.883
70631W        W34839  32.637  25.008  10.561
70632W        W34840  18.161  36.085   5.568
70633W        W34841  10.208  29.157  10.059
70634W        W34842  30.007  39.842  14.316
70635W        W34843  15.738  44.342   3.804
70636W        W34844  35.984  28.059  11.413
70637W        W34845  18.168  40.404  13.970
70638W        W34846  24.486  32.918   0.951
70639W        W34847  16.760  26.049   2.669
70640W        W34848  24.146   4.395  14.863
70641W        W34849  26.643   3.892  14.283
70642W        W34850  18.562  10.214  14.812
70643W        W34851   1.301  42.879   2.739
70644W        W34852  21.239  44.438  12.980
70645W        W34853   1.846  34.061  13.896
70646W        W34854  11.641  14.327  10.625
70647W        W34855  21.729  28.654  10.931
70648W        W34856  23.574  31.618  14.338
70649W        W34857  44.896  17.174   0.949
70650W        W34858  11.331  14.110  13.327
70651W        W34859  40.029   9.379  14.431
70652W        W34860   5.203  21.675  13.834
70653W        W34861  19.642   6.402   0.750
70654W        W34862  29.977  24.002   3.263
70655W        W34863  40.834  39.025  12.974
70656W        W34864  13.693  30.919  10.476
70657W        W34865  15.646  33.574   5.246
70658W        W34866  44.298  41.410   1.320
70659W        W34867   3.951   8.696  10.912
70660W        W34868  11.262   7.870   0.779
70661W        W34869  34.906  23.574   4.165
70662W        W34870  36.092   2.923  12.874
70663W        W34871  26.663  16.153  12.832
70664W        W34872  21.057  18.190  11.007
70665W        W34873   6.315  23.538  13.535
70666W        W34874  17.665  35.471  14.369
70667W        W34875   5.291  41.956  11.613
70668W        W34876  41.017  16.288   0.441
70669W        W34877   4.237  44.480   1.872
70670W        W34878  37.986  24.692  11.575
70671W        W34879  35.028  44.480   1.270
70672W        W34880  23.233  44.358   4.217
70673W        W34881  37.451  26.083   3.160
70674W        W34882  37.367  39.354  11.555
70675W        W34883   4.235  32.505  13.817
70676W        W34884  38.392  39.943  12.050
70677W        W34885   5.861  30.958   3.644
70678W        W34886  25.093   5.888  11.609
70679W        W34887  12.822  10.806  11.559
70680W        W34888  13.775  36.528  11.493
70681W        W34889   1.351  28.620  12.883
70682W        W34890  23.683  13.837   0.763
70683W        W34891  11.252   5.437  11.399
70684W        W34892  15.103  23.035   2.795
70685W        W34893  15.724  39.828   4.165
70686W        W34894   7.863   0.421  13.818
70687W        W34895   6.362  39.989  10.032
70688W        W34896  40.996  33.580   0.828
70689W        W34897  42.360  15.188  14.835
70690W        W34898  21.526  25.617  11.600
70691W        W34899  26.550  40.464  10.591
70692W        W34900  43.498  11.708   2.686
70693W        W34901   8.890  14.246   2.837
70694W        W34902  34.488  38.071  14.776
70695W        W34903  15.583  25.030   3.777
70696W        W34904  41.994  28.001   3.683
70697W        W34905   4.218  28.101   2.185
70698W        W34906   9.160  26.461   2.352
70699W        W34907  27.647  10.642  13.808
70700W        W34908   1.472  25.076   1.274
70701W        W34909  32.441  19.286   3.223
70702W        W34910  34.528  21.522   1.801
70703W        W34911   4.845   2.834   0.855
70704W        W34912  23.086   5.840  11.530
70705W        W34913  31.427   1.760   0.313
70706W        W34914  15.662  12.717   4.767
70707W        W34915   3.316  16.318  14.426
70708W        W34916   0.333  43.329   3.766
70709W        W34917  42.303   4.772   4.260
70710W        W34918  32.949  11.694   4.251
70711W        W34919  16.231   0.797  13.888
70712W        W34920  19.155   7.700  14.962
70713W        W34921  30.942  42.976  10.902
70714W        W34922  12.738  15.609   0.952
70715W        W34923   3.439  44.349  12.067
70716W        W34924  43.949   9.863   3.210
70717W        W34925  26.952  28.152   4.750
70718W        W34926  26.631  31.018  11.081
70719W        W34927  17.294  23.702  12.929
70720W        W34928  43.948  24.542  12.057
70721W        W34929  31.034  44.406   3.245
70722W        W34930  43.854  36.944  14.964
70723W        W34931  33.107  33.430   1.697
70724W        W34932  33.914  17.073  14.463
70725W        W34933  41.489  13.273  13.452
70726W        W34934  43.461  38.858   1.255
70727W        W34935  24.112  11.834  11.926
70728W        W34936  42.916  15.707  14.868
70729W        W34937   4.345  30.999  11.986
70730W        W34938  19.216  38.939  10.466
70731W        W34939   7.225  17.789  11.450
70732W        W34940  30.055  18.735   0.826
70733W        W34941  16.653  10.257   0.417
70734W        W34942  12.681  31.526   2.835
70735W        W34943  39.928  25.129   2.865
70736W        W34944  28.095  15.144  11.892
70737W        W34945   0.804  22.585   0.904
70738W        W34946   1.910  32.124   1.812
70739W        W34947  27.011  13.233  13.793
70740W        W34948  44.309   1.368   0.845
70741W        W34949  15.610  36.586   4.320
70742W        W34950  34.414  29.445  14.900
70743W        W34951  18.773  38.007  12.046
70744W        W34952  17.684   4.216   2.384
70745W        W34953  44.404   5.804  14.354
70746W        W34954  30.931  18.109  13.898
70747W        W34955  23.730   1.805  14.766
70748W        W34956  41.814  11.855  12.438
70749W        W34957   8.325  36.079  10.905
70750W        W34958   8.250  35.078   3.739
70751W        W34959  27.449  14.646  14.813
70752W        W34960  23.991  34.088   2.779
70753W        W34961  39.038  32.617  14.886
70754W        W34962  42.487  42.523   0.363
70755W        W34963  14.701  27.634  11.908
70756W        W34964  21.694  39.319   0.957
70757W        W34965  43.787  13.765   0.328
70758W        W34966  10.658  35.065  10.440
70759W        W34967  39.967  39.889   2.332
70760W        W34968  17.594  14.197  10.465
70761W        W34969   3.281  13.332   2.818
70762W        W34970   6.751  44.783   0.964
70763W        W34971   6.824  35.066   1.694
70764W        W34972  29.514   9.364  12.555
70765W        W34973  36.370  10.240   0.357
70766W        W34974  29.499  12.782  13.961
70767W        W34975   3.760  10.866   0.890
70768W        W34976  25.656   8.179   4.286
70769W        W34977  42.907  11.789   2.187
70770W        W34978  20.183  29.638  13.396
70771W        W34979  16.225  35.968   2.817
70772W        W34980  44.499  23.656   3.855
70773W        W34981  34.949  11.851  11.052
70774W        W34982  38.455  14.795   1.814
70775W        W34983   3.311  31.517   4.181
70776W        W34984  23.554  18.647  13.451
70777W        W34985  32.064  13.794  10.899
70778W        W34986  42.785  32.063   3.254
70779W        W34987   2.746  10.195   0.803
70780W        W34988   5.258  32.553   3.151
70781W        W34989   6.762  33.504  12.421
70782W        W34990  34.097  23.073   4.181
70783W        W34991  19.639  10.636   2.248
70784W        W34992  32.513  16.260  11.909
70785W        W34993  43.781   1.423  12.086
70786W        W34994   9.364  11.789  10.103
70787W        W34995  15.258  31.525   0.434
70788W        W34996  31.441  10.184   5.278
70789W        W34997  29.656  16.199  12.065
70790W        W34998  22.534  21.244  10.448
70791W        W34999  41.371  12.241   0.790
70792W        W35000   2.433  34.108  10.466
70793W        W35001  28.641  16.198  11.075
70794W        W35002  12.666  42.915  11.373
70795W        W35003  29.927   7.352  11.569
70796W        W35004   0.342  36.076  13.364
70797W        W35005  31.901  25.484   0.914
70798W        W35006  35.434  19.122   4.812
70799W        W35007  13.682  22.023   1.792
70800W        W35008  20.189  20.578  12.003
70801W        W35009  27.122  13.260  11.987
70802W        W35010  24.108   1.977   0.808
70803W        W35011  39.021   9.810   2.836
70804W        W35012  26.627   3.303  10.002
70805W        W35013  21.641  21.142   1.793
70806W        W35014  20.228  36.416  11.588
70807W        W35015  39.364   1.464   2.885
70808W        W35016   7.263  38.456  12.431
70809W        W35017   6.263  10.723   1.214
70810W        W35018  22.601   7.248   1.733
70811W        W35019  29.129  14.828   2.193
70812W        W35020  11.211  41.864   1.410
70813W        W35021   4.916  42.879  12.359
70814W        W35022  16.078  21.548   1.750
70815W        W35023   9.874  22.187   2.814
70816W        W35024  20.126  12.740   3.721
70817W        W35025  22.089  36.455  14.420
70818W        W35026  40.391  15.734   4.219
70819W        W35027   9.302  28.532   3.667
70820W        W35028  29.004   2.232  12.403
70821W        W35029  21.645  27.062   2.671
70822W        W35030  31.912  17.747  11.554
70823W        W35031   6.692   0.487  10.433
70824W        W35032  42.925  41.881   3.811
70825W        W35033  20.099  16.244   5.648
70826W        W35034   8.299  35.085  13.485
70827W        W35035   4.288  31.458  11.955
70828W        W35036  42.469  38.072   0.466
70829W        W35037  43.502  36.935   3.654
70830W        W35038  11.671  33.876  11.555
70831W        W35039  30.604  20.116  12.395
70832W        W35040  31.538   5.740  11.083
70833W        W35041  28.545  25.147  12.385
70834W        W35042   8.386   3.279   2.216
70835W        W35043  29.604   9.877  10.418
70836W        W35044  43.958   2.259  13.358
70837W        W35045  25.566  18.182   0.852
70838W        W35046  11.262   4.833   0.403
70839W        W35047  44.469   4.221   3.703
70840W        W35048  19.741  24.715   2.862
70841W        W35049  37.350  27.655   1.921
70842W        W35050   7.880  21.120  12.542
70843W        W35051   1.373  10.333   3.735
70844W        W35052   3.843  19.044  11.086
70845W        W35053   8.734   5.376   3.298
70846W        W35054  44.781  39.352  11.606
70847W        W35055   7.673  12.127   0.343
70848W        W35056  40.894   2.843  13.480
70849W        W35057  23.127   5.808  10.634
70850W        W35058  15.634  16.136   0.269
70851W        W35059  35.430  36.503  10.994
70852W        W35060  23.997   4.414   4.694
70853W        W35061  15.242  30.084   2.730
70854W        W35062  11.754  37.932  14.426
70855W        W35063  40.324  18.164   1.819
70856W        W35064  14.226  27.630   1.748
70857W        W35065   3.443  36.942   1.439
70858W        W35066  37.030   6.315   0.816
70859W        W35067   6.227  24.988   4.747
70860W        W35068  11.863   8.889  11.573
70861W        W35069   0.306  23.108  11.432
70862W        W35070  42.926  12.620   1.396
70863W        W35071  37.466  42.334   2.195
70864W        W35072  16.193  32.007   1.386
70865W        W35073  14.103  23.000  10.493
70866W        W35074  22.568   5.371  14.844
70867W        W35075   5.808  30.652  14.882
70868W        W35076  36.478  38.469   2.686
70869W        W35077  23.687  36.023  14.785
70870W        W35078  28.532  39.051  10.442
70871W        W35079   1.832  22.160  12.073
70872W        W35080  30.001  24.144  14.939
70873W        W35081  43.340   3.227   1.835
70874W        W35082   7.835  13.195   4.670
70875W        W35083  30.520  27.141   0.851
70876W        W35084  18.052  18.120   3.732
70877W        W35085  26.197  32.032  12.837
70878W        W35086  27.470  21.690  11.058
70879W        W35087  19.125  18.700   1.764
70880W        W35088  17.122   1.407   3.272
70881W        W35089   8.870  36.872   2.757
70882W        W35090  39.378  41.019   1.251
70883W        W35091  42.987  44.459   2.784
70884W        W35092  34.102   9.689  11.950
70885W        W35093  34.374  10.196  12.049
70886W        W35094  34.516  23.134   1.712
70887W        W35095   4.449   1.267  12.933
70888W        W35096   1.324  41.509   0.443
70889W        W35097  17.751   8.364   1.393
70890W        W35098  21.200   4.246  14.011
70891W        W35099  19.045   1.889  10.459
70892W        W35100  15.293  41.296  12.908
70893W        W35101   8.212  22.212   2.843
70894W        W35102  30.921  28.123   3.267
70895W        W35103  14.762  28.987  11.397
70896W        W35104  38.546  40.494  14.938
70897W        W35105  10.739  20.078   4.130
70898W        W35106  15.261  23.146  14.857
70899W        W35107  36.076  44.322  11.395
70900W        W35108  40.801  40.323   3.261
70901W        W35109  19.108  32.899   2.896
70902W        W35110  31.930  33.874   3.171
70903W        W35111  24.663   4.917  13.945
70904W        W35112  14.156   8.354  14.340
70905W        W35113  30.055  22.684  12.823
70906W        W35114   8.178  28.651   1.288
70907W        W35115  11.825  44.906  11.493
70908W        W35116  25.694  31.971   4.171
70909W        W35117  22.561   6.399   1.322
70910W        W35118  29.430  26.564   2.789
70911W        W35119  19.757  42.935  11.948
70912W        W35120   4.715  23.080   1.766
70913W        W35121  30.433  39.933  12.000
70914W        W35122   2.907  26.647   3.161
70915W        W35123  34.592  42.399   4.728
70916W        W35124  16.698  14.258  13.335
70917W        W35125   6.305  35.010  14.864
70918W        W35126  23.046  29.666   4.327
70919W        W35127  10.758  44.477  10.959
70920W        W35128  35.602  33.604   2.263
70921W        W35129  26.527  15.803  13.954
70922W        W35130   9.317  24.163   3.383
70923W        W35131  40.011  19.107  11.114
70924W        W35132  19.627  24.703   1.368
70925W        W35133  11.283  23.235   0.772
70926W        W35134  40.992  36.963  11.594
70927W        W35135   5.293  43.465   1.843
70928W        W35136  34.019  44.791   0.243
70929W        W35137  27.586  10.720  13.519
70930W        W35138  44.872  38.343   3.812
70931W        W35139  33.415  27.481  13.929
70932W        W35140  44.471   8.765  14.009
70933W        W35141  40.978  32.567   4.114
70934W        W35142  42.950   4.312  11.406
70935W        W35143   6.391  22.595   2.278
70936W        W35144  28.440  15.226   0.870
70937W        W35145   4.359  10.261   4.315
70938W        W35146  22.058  26.483   9.921
70939W        W35147  23.729  29.648  13.379
70940W        W35148  37.847  13.287   3.292
70941W        W35149   9.799  25.076   4.331
70942W        W35150   3.875  33.932  11.575
70943W        W35151  36.528  26.612  13.544
70944W        W35152  23.727   1.406  13.478
70945W        W35153  16.122  41.362  11.058
70946W        W35154   5.865  35.544  10.641
70947W        W35155  30.005   2.923  11.892
70948W        W35156  35.030  11.196  14.912
70949W        W35157  15.692   8.262  13.801
70950W        W35158   6.832  29.659  12.837
70951W        W35159   0.869  16.751  10.489
70952W        W35160   6.813  40.455  14.403
70953W        W35161  14.716   1.349   2.812
70954W        W35162  29.943  41.435  12.579
70955W        W35163   5.389  40.329  14.998
70956W        W35164  38.455  38.896  12.447
70957W        W35165  24.068  41.441  11.405
70958W        W35166  31.411  34.044  14.872
70959W        W35167  17.678  35.951   2.688
70960W        W35168   7.790  40.827  13.008
70961W        W35169  42.027  26.550  13.426
70962W        W35170  30.582  19.576   2.712
70963W        W35171  17.186  19.565   1.292
70964W        W35172  14.217  35.454  10.511
70965W        W35173   9.888  39.980  13.545
70966W        W35174  18.679  25.169   0.727
70967W        W35175   7.849  30.615   4.183
70968W        W35176  12.661   0.273  14.444
70969W        W35177  43.442  29.118   0.923
70970W        W35178  40.973  30.940  10.892
70971W        W35179  31.558  34.999   2.864
70972W        W35180  12.155  10.175  12.505
70973W        W35181  19.622  26.492  10.933
70974W        W35182  18.132  31.005  14.842
70975W        W35183   8.816  11.856  11.448
70976W        W35184  23.054  11.645  14.759
70977W        W35185   4.798   4.754   4.293
70978W        W35186  10.806  40.543   3.370
70979W        W35187  12.756  36.015   2.722
70980W        W35188  26.624   5.816   4.261
70981W        W35189  30.567  26.469   1.420
70982W        W35190  44.861  34.978   4.317
70983W        W35191   9.310   6.716  13.338
70984W        W35192  38.382  40.485   4.321
70985W        W35193  14.812  25.625  12.001
70986W        W35194   9.326   8.262  12.932
70987W        W35195   4.885  28.057  13.873
70988W        W35196  33.580  27.486  11.098
70989W        W35197  16.229  29.111  12.860
70990W        W35198  41.439  12.298   1.336
70991W        W35199  31.036  16.077   2.792
70992W        W35200   9.876   1.881  11.900
70993W        W35201  33.384  29.576  13.935
70994W        W35202  12.319   2.931  14.948
70995W        W35203   0.902  24.604   1.249
70996W        W35204  36.038  12.268   1.711
70997W        W35205  39.441  28.512   4.291
70998W        W35206  28.463  35.550   2.299
70999W        W35207  32.547  11.640   1.856
71000W        W35208  14.732  15.697  10.468
71001W        W35209   9.180  23.078  10.619
71002W        W35210  12.238   6.721   4.828
71003W        W35211   2.280   5.399   1.887
71004W        W35212  20.531  36.590   1.774
71005W        W35213  41.859  10.849   2.246
71006W        W35214   8.845  34.997  10.550
71007W        W35215  21.028  34.001   4.790
71008W        W35216  19.543  43.480   1.421
71009W        W35217  22.130   1.883  11.093
71010W        W35218  25.580   3.926  11.493
71011W        W35219   5.869  35.885   3.758
71012W        W35220  17.729  20.118  11.961
71013W        W35221  42.788  33.118  14.895
71014W        W35222  17.202  24.563  14.345
71015W        W35223  26.056  32.098   0.349
71016W        W35224  38.415  37.060   2.269
71017W        W35225  19.229  19.268  12.993
71018W        W35226  10.349  39.816  13.896
71019W        W35227  19.571   9.380   0.875
71020W        W35228  12.292  36.912  14.450
71021W        W35229  37.981  18.764  14.781
71022W        W35230  24.033  36.492  12.436
71023W        W35231  32.570   7.396  14.484
71024W        W35232  41.480  17.130  11.101
71025W        W35233  24.202   5.812   3.212
71026W        W35234   8.696   1.931  11.559
71027W        W35235  15.282   8.688   1.866
71028W        W35236  43.780  14.764  10.634
71029W        W35237  18.651  19.740   0.791
71030W        W35238   7.847  26.552  14.428
71031W        W35239  33.546  33.877  13.029
71032W        W35240  15.144  19.662   2.336
71033W        W35241  23.200  12.127  13.981
71034W        W35242  30.061   7.694  12.571
71035W        W35243   6.393  38.396  11.965
71036W        W35244  20.213  29.585   2.753
71037W        W35245  42.288  42.461   2.845
71038W        W35246  37.081  31.114   1.866
71039W        W35247  21.027  41.318   0.733
71040W        W35248  20.168  28.621  13.865
71041W        W35249  24.127  39.368   2.223
71042W        W35250  39.907   7.228   2.822
71043W        W35251   6.893  21.254   3.675
71044W        W35252  38.847  38.330   4.598
71045W        W35253  16.300  20.082  14.338
71046W        W35254  17.300  28.630  12.546
71047W        W35255  25.686  24.662  10.974
71048W        W35256  31.576  27.488   1.218
71049W        W35257  40.864   8.803   3.317
71050W        W35258  30.910   0.929  10.512
71051W        W35259   2.884  32.105   1.781
71052W        W35260  28.500  35.898  12.095
71053W        W35261  31.968   8.828  11.065
71054W        W35262  41.938  14.776   1.409
71055W        W35263  18.226  40.443  12.078
71056W        W35264  23.993   2.361  13.384
71057W        W35265  14.711  35.479  13.063
71058W        W35266  17.095  20.576  13.892
71059W        W35267   7.849  18.233  10.585
71060W        W35268  18.707  42.419   0.898
71061W        W35269  20.107  16.693   2.314
71062W        W35270   6.763  16.610  12.032
71063W        W35271   6.914  38.931  14.509
71064W        W35272  30.559  41.816   4.681
71065W        W35273  42.367  31.572  14.021
71066W        W35274  19.163   3.218   4.644
71067W        W35275  28.061  44.886  14.498
71068W        W35276  22.039   5.363  11.861
71069W        W35277  40.310  40.382   1.935
71070W        W35278   7.816  44.777   1.703
71071W        W35279  40.424   1.419  10.603
71072W        W35280   7.399  37.435  14.843
71073W        W35281  20.133   2.227   4.353
71074W        W35282   4.419  37.986  13.490
71075W        W35283   9.208  25.707   0.412
71076W        W35284  32.628  32.105   0.303
71077W        W35285  21.655  44.396   4.729
71078W        W35286  35.487  31.970   4.270
71079W        W35287  40.928  33.550  12.350
71080W        W35288  34.536  31.925  13.953
71081W        W35289  20.102  33.457  14.879
71082W        W35290   3.853   5.335   2.870
71083W        W35291  36.500   1.437  10.493
71084W        W35292  39.445  31.590   1.851
71085W        W35293  40.475   3.431  12.524
71086W        W35294   1.419  15.606   3.247
71087W        W35295  27.008   3.373  13.880
71088W        W35296  16.135  13.126   4.126
71089W        W35297  32.943  34.512   1.297
71090W        W35298  13.633  30.606  14.486
71091W        W35299   0.882  16.269  14.957
71092W        W35300  21.566  15.136   4.755
71093W        W35301  31.416  35.538  13.930
71094W        W35302  13.237  43.284  10.616
71095W        W35303   6.721  41.537  10.515
71096W        W35304   1.333  22.668   2.772
71097W        W35305  28.658  10.176  11.882
71098W        W35306  28.546  43.506  11.506
71099W        W35307  20.140  38.367   1.931
71100W        W35308  39.923   6.392   5.146
71101W        W35309  30.621  34.409  11.597
71102W        W35310   6.244  10.776   1.714
71103W        W35311   9.715   1.357  13.051
71104W        W35312  37.529   3.227  10.427
71105W        W35313  31.134   5.260   0.822
71106W        W35314  32.409  25.498   3.808
71107W        W35315   9.792  22.110   1.758
71108W        W35316  40.320  20.707   3.762
71109W        W35317  30.418  34.461  14.292
71110W        W35318  23.176   5.387  13.473
71111W        W35319  22.592  32.141   2.317
71112W        W35320  22.037  38.879  12.354
71113W        W35321   6.300  40.383   5.094
71114W        W35322  31.575  18.707  11.451
71115W        W35323  36.976  37.418   2.774
71116W        W35324  13.805  30.514   2.896
71117W        W35325   2.438  25.046  10.436
71118W        W35326  23.667  17.792   4.612
71119W        W35327  44.293  31.916  10.571
71120W        W35328   9.744  19.631   1.333
71121W        W35329  26.997   8.662   3.222
71122W        W35330  37.410   2.808   5.598
71123W        W35331  33.514  11.352   1.854
71124W        W35332  34.932  39.899  10.435
71125W        W35333  34.490  22.543   1.386
71126W        W35334  23.092   3.819   0.259
71127W        W35335  12.701  12.705  11.033
71128W        W35336  27.988  36.576  13.864
71129W        W35337   7.388  32.967  14.007
71130W        W35338  12.687  38.864   4.744
71131W        W35339   5.303   4.829  10.630
71132W        W35340  22.237   6.915  11.885
71133W        W35341  10.359   3.354  14.849
71134W        W35342  36.920  14.713   3.159
71135W        W35343  11.704  43.286   1.801
71136W        W35344  38.367   0.258  14.008
71137W        W35345   0.306  21.633   2.708
71138W        W35346   9.690  10.305  13.921
71139W        W35347  21.702  40.854  12.017
71140W        W35348  19.174  32.912   1.446
71141W        W35349   1.369  32.565   0.934
71142W        W35350  24.565  32.942  10.487
71143W        W35351  19.043   7.863  13.932
71144W        W35352  35.010   0.927   2.877
71145W        W35353   4.384  32.933   3.652
71146W        W35354  38.990  39.911   3.712
71147W        W35355  18.602  29.148  14.431
71148W        W35356  12.192  12.333   2.724
71149W        W35357  19.606  19.055  10.932
71150W        W35358  16.262   0.432  13.330
71151W        W35359  27.651  15.227  11.515
71152W        W35360  35.972  31.096  12.068
71153W        W35361  14.264   1.758  12.072
71154W        W35362  29.096  21.098  10.498
71155W        W35363  37.082  16.601  11.866
71156W        W35364  30.424  21.048  13.519
71157W        W35365  18.782  28.951  11.564
71158W        W35366   7.833  28.632   4.668
71159W        W35367  42.895  32.097   0.878
71160W        W35368   2.759   1.893   5.709
71161W        W35369   5.726   7.865  12.562
71162W        W35370  39.931  29.052   1.826
71163W        W35371  36.908   6.852  13.064
71164W        W35372  36.433  15.120   4.795
71165W        W35373  39.958  34.501   1.399
71166W        W35374  27.175  12.669   0.415
71167W        W35375  10.351   6.204  10.588
71168W        W35376   0.907  31.008   4.208
71169W        W35377  31.915  28.964  14.975
71170W        W35378  33.003  15.788   3.665
71171W        W35379  32.892  27.033   0.815
71172W        W35380  42.940   7.375   3.297
71173W        W35381  40.324  13.678  14.346
71174W        W35382  42.033  28.930   4.159
71175W        W35383  16.131  12.174   3.668
71176W        W35384  17.177   7.711  11.972
71177W        W35385  31.086  21.632   3.256
71178W        W35386  20.232  19.726   2.393
71179W        W35387  18.180   3.348   2.394
71180W        W35388  19.205  31.471   2.396
71181W        W35389  30.934  44.320  11.060
71182W        W35390   1.831  28.978   0.305
71183W        W35391   4.883  28.113   4.825
71184W        W35392  13.800  34.602  14.422
71185W        W35393  33.438   1.935   4.280
71186W        W35394  43.376  16.108  13.538
71187W        W35395  36.055  18.594   3.315
71188W        W35396   3.456  37.980   0.791
71189W        W35397  43.452  23.528   2.294
71190W        W35398  24.149  15.814   0.837
71191W        W35399  18.691  28.065   1.341
71192W        W35400  37.537  29.034   2.365
71193W        W35401   2.446   5.708  13.062
71194W        W35402   2.770  14.833  11.529
71195W        W35403   9.241  13.756  13.877
71196W        W35404  31.486  17.272   3.866
71197W        W35405  17.175  23.126  14.446
71198W        W35406  30.053  41.297  14.953
71199W        W35407  22.080  19.685   4.135
71200W        W35408  26.184  15.691  12.082
71201W        W35409   0.862  14.268  10.988
71202W        W35410  25.132   2.241  14.407
71203W        W35411  13.833  28.626  14.443
71204W        W35412   8.330   8.233  11.928
71205W        W35413  26.167  18.251   2.322
71206W        W35414  13.728   1.962  13.938
71207W        W35415  29.023  39.020   2.665
71208W        W35416  42.483  31.438  10.148
71209W        W35417  18.129  30.977  13.329
71210W        W35418  37.386  37.578   1.822
71211W        W35419  26.495  26.037   2.826
71212W        W35420  33.494   1.238  14.481
71213W        W35421   8.658  20.063   3.156
71214W        W35422  22.068  12.338  10.462
71215W        W35423   5.771  35.075  11.030
71216W        W35424  16.081  27.609   0.409
71217W        W35425   8.338  40.343   2.233
71218W        W35426  18.732  30.998   4.658
71219W        W35427  33.907  25.017  12.948
71220W        W35428  13.672   3.326   2.760
71221W        W35429  39.400  37.382   0.444
71222W        W35430  27.092  21.518  11.458
71223W        W35431   5.716   0.892   1.374
71224W        W35432   4.429  18.183   2.844
71225W        W35433  33.021  24.620   4.234
71226W        W35434  20.760  33.929   4.315
71227W        W35435  36.384  17.657  13.407
71228W        W35436  40.540  10.159  13.964
71229W        W35437  29.438   0.881  14.906
71230W        W35438   9.645  21.159  13.467
71231W        W35439  22.092  43.479   2.782
71232W        W35440  44.867  39.336  14.278
71233W        W35441  26.585   5.300   1.388
71234W        W35442  33.881  38.957   1.807
71235W        W35443   8.329  24.140   3.286
71236W        W35444  34.057  18.147   0.349
71237W        W35445  22.025   0.755  11.869
71238W        W35446  16.644  21.631  12.964
71239W        W35447  44.960  42.463   0.770
71240W        W35448  42.508  25.612   4.115
71241W        W35449  22.242  42.946   4.644
71242W        W35450  33.495   2.446  13.506
71243W        W35451  38.540  31.411  11.392
71244W        W35452   5.293  26.146  13.333
71245W        W35453  40.377  13.177   2.823
71246W        W35454  40.860   3.738  12.368
71247W        W35455  29.533  21.647   3.754
71248W        W35456   7.858  43.809  10.518
71249W        W35457  43.905  28.589  13.422
71250W        W35458  30.468   4.236   0.895
71251W        W35459  24.111  29.043   2.372
71252W        W35460  29.536  39.904  10.002
71253W        W35461  39.981   1.808   0.742
71254W        W35462  24.142  13.240  10.522
71255W        W35463  16.123  17.579  13.868
71256W        W35464  22.084   2.877  12.432
71257W        W35465  26.999   9.232  11.573
71258W        W35466  26.549  13.634   2.324
71259W        W35467  10.379  11.203  10.128
71260W        W35468  43.783  31.898  11.033
71261W        W35469  12.192  16.811  13.319
71262W        W35470  33.558  10.251   1.440
71263W        W35471  35.101  36.963  13.476
71264W        W35472  24.175  11.222   2.680
71265W        W35473  19.272  27.106   2.396
71266W        W35474  31.418  28.106   1.725
71267W        W35475  23.993  30.619  13.839
71268W        W35476  37.375  28.437   3.749
71269W        W35477   1.444  28.664  11.612
71270W        W35478  42.954   7.416   0.432
71271W        W35479  13.351  19.761  12.833
71272W        W35480   9.743  41.991  14.871
71273W        W35481  12.611  41.900  14.372
71274W        W35482  13.196   9.833   2.843
71275W        W35483  32.117  44.269   4.321
71276W        W35484  34.480  15.119   0.321
71277W        W35485   6.418  19.114  13.982
71278W        W35486  13.131  21.130  12.842
71279W        W35487  19.704  29.612  13.937
71280W        W35488  20.553   8.178  12.576
71281W        W35489  11.813  21.679  11.989
71282W        W35490  36.923  31.045   4.327
71283W        W35491  25.184  30.507  14.305
71284W        W35492  25.470   1.764   1.448
71285W        W35493  24.705  14.608   3.257
71286W        W35494   0.939   0.833   3.840
71287W        W35495  28.599  23.089   0.293
71288W        W35496  23.054  21.073  12.547
71289W        W35497  33.549  17.734   5.161
71290W        W35498  29.034  12.715   3.789
71291W        W35499  35.954  21.139   1.860
71292W        W35500  42.996  41.864  10.605
71293W        W35501   7.703  32.936  11.425
71294W        W35502   6.720  37.962  13.002
71295W        W35503   7.690   4.376  10.607
71296W        W35504  14.605  20.129  11.079
71297W        W35505  15.824  26.104  12.993
71298W        W35506  14.144  16.250   2.811
71299W        W35507  41.433   6.264   0.795
71300W        W35508  42.795  16.253   2.697
71301W        W35509   1.254  19.774   4.157
71302W        W35510  44.264  37.913  12.451
71303W        W35511  14.194  41.430  13.510
71304W        W35512  12.812  35.400  12.016
71305W        W35513  15.275  30.148  12.464
71306W        W35514  40.982  40.492   3.707
71307W        W35515   2.772  44.853  12.989
71308W        W35516  34.557  19.564  14.332
71309W        W35517  39.451  37.002   4.226
71310W        W35518  26.570  15.223   0.732
71311W        W35519  19.576  38.436   2.862
71312W        W35520   7.406  13.639   3.356
71313W        W35521   3.256   8.751   4.332
71314W        W35522   2.963   8.400  13.328
71315W        W35523  12.138  23.122  12.376
71316W        W35524  25.138  36.961   3.350
71317W        W35525  12.300  37.868  12.934
71318W        W35526  39.014   8.864   1.804
71319W        W35527  17.167  19.539   3.704
71320W        W35528   4.932  44.413   1.796
71321W        W35529   3.919  12.747  14.478
71322W        W35530  19.264  29.026   1.858
71323W        W35531  32.899  12.774   1.887
71324W        W35532  22.195   7.265   4.634
71325W        W35533  40.500   4.384  14.000
71326W        W35534  36.050  14.327  12.532
71327W        W35535  30.083  42.854   2.257
71328W        W35536  11.631  40.515  10.624
71329W        W35537   2.311  15.125   4.800
71330W        W35538   8.372  20.639   2.196
71331W        W35539  43.506   6.857   2.258
71332W        W35540  12.757  16.202  12.075
71333W        W35541   5.764   9.750   4.675
71334W        W35542  22.065  42.935   2.317
71335W        W35543  18.236   1.739  14.985
71336W        W35544   6.766  19.554   4.632
71337W        W35545  34.929   9.667  11.866
71338W        W35546  15.591  33.010  10.160
71339W        W35547  13.299   6.866   0.771
71340W        W35548   0.482  37.492  12.857
71341W        W35549   2.339   5.284  10.965
71342W        W35550   8.702   2.876   0.428
71343W        W35551  18.265  38.986   1.723
71344W        W35552  14.800  22.037  10.994
71345W        W35553  26.078  32.399  12.921
71346W        W35554  35.383  34.552   0.902
71347W        W35555  36.576   5.242  11.978
71348W        W35556   1.733  24.205  11.562
71349W        W35557  12.769  17.726  12.068
71350W        W35558  32.910  14.641  10.620
71351W        W35559   6.232   6.389   3.227
71352W        W35560  38.952  37.350   1.335
71353W        W35561  31.635  38.403  13.483
71354W        W35562  18.145   9.664   3.150
71355W        W35563  31.096  40.864   1.753
71356W        W35564  42.290  11.799   1.357
71357W        W35565  43.329  44.919   2.811
71358W        W35566  12.703  36.994   2.288
71359W        W35567  39.392  25.673  13.898
71360W        W35568  36.054  31.067  11.584
71361W        W35569  22.688  30.097  13.833
71362W        W35570  38.009  32.136  11.454
71363W        W35571  18.721   3.337  12.392
71364W        W35572  43.794  42.312  12.503
71365W        W35573   5.849  12.798  14.995
71366W        W35574  13.154  20.133   3.330
71367W        W35575  25.685  20.746  14.862
71368W        W35576   2.340  43.302  10.505
71369W        W35577  17.279   5.408  10.126
71370W        W35578   9.748  41.522   1.817
71371W        W35579  34.037  17.145  11.451
71372W        W35580   9.807  25.998   1.226
71373W        W35581  11.651  25.043  10.055
71374W        W35582  38.563  25.967  12.530
71375W        W35583  32.407  34.427   4.745
71376W        W35584  33.455  33.939  13.861
71377W        W35585  25.553  35.361  13.318
71378W        W35586  23.688  15.610   2.332
71379W        W35587   6.843  25.038  11.123
71380W        W35588  19.058  37.444   0.343
71381W        W35589   4.930  13.275  13.055
71382W        W35590   3.224  43.315   4.288
71383W        W35591  30.962  40.514   0.453
71384W        W35592  32.085  43.914  10.989
71385W        W35593   1.814   7.171   2.833
71386W        W35594  41.924  33.556  14.439
71387W        W35595  10.229  37.028   2.305
71388W        W35596  44.987  18.081  10.439
71389W        W35597  42.399   0.756   3.248
71390W        W35598  24.638  12.216  12.058
71391W        W35599  37.565   4.215  14.827
71392W        W35600  44.833  43.481   4.348
71393W        W35601   6.187   4.729  13.889
71394W        W35602   0.830   7.322   0.437
71395W        W35603  41.413   2.846  12.937
71396W        W35604  34.579  11.347  10.608
71397W        W35605  35.502  25.476  10.469
71398W        W35606   2.467  10.673   4.811
71399W        W35607  17.080  15.235  14.950
71400W        W35608  21.542   6.319   1.789
71401W        W35609   4.364  36.351  14.854
71402W        W35610   9.712  30.542   1.432
71403W        W35611  44.856  40.838  10.910
71404W        W35612  33.475   8.674  13.815
71405W        W35613   1.792  34.944  14.419
71406W        W35614  30.005  21.530  13.480
71407W        W35615  41.992  34.950  11.608
71408W        W35616  16.756  12.693   4.834
71409W        W35617  34.088  40.476  14.392
71410W        W35618  27.621   2.378  14.408
71411W        W35619  37.046  18.641   4.311
71412W        W35620   8.794  43.957   0.738
71413W        W35621  35.096  25.626   1.319
71414W        W35622  13.750   5.259   2.285
71415W        W35623  18.255  15.584   1.242
71416W        W35624   5.924  43.772  12.992
71417W        W35625  18.194  15.165  11.983
71418W        W35626  34.463   5.842   4.727
71419W        W35627  32.396  19.686   3.866
71420W        W35628   6.728  29.989  13.838
71421W        W35629   4.944  10.228   3.233
71422W        W35630  24.625  10.768   2.668
71423W        W35631  12.709  27.155  13.848
71424W        W35632  43.942  31.038   1.258
71425W        W35633  23.127  35.596   4.353
71426W        W35634  24.009  21.025   1.916
71427W        W35635   4.911  24.150   4.631
71428W        W35636  20.723   2.940   3.824
71429W        W35637  34.992  31.410   2.895
71430W        W35638  10.354  26.662   2.812
71431W        W35639  39.324  23.178   4.641
71432W        W35640  26.107  40.397  10.509
71433W        W35641  39.377  31.974   1.889
71434W        W35642  28.074  11.350   1.843
71435W        W35643  23.496  20.623   1.880
71436W        W35644  40.327  27.642  13.869
71437W        W35645  40.921  39.999   0.758
71438W        W35646  39.445   9.367   3.323
71439W        W35647  13.112  36.486   3.326
71440W        W35648  14.337   1.948   1.697
71441W        W35649  37.483  21.087   4.191
71442W        W35650  19.622   4.439   5.094
71443W        W35651  37.067  21.705   3.284
71444W        W35652  18.092  21.206   1.338
71445W        W35653  23.016   0.489  12.068
71446W        W35654  34.039  41.440  11.918
71447W        W35655  41.459  28.460   3.354
71448W        W35656  12.256  17.694   4.633
71449W        W35657  41.483  15.302  12.513
71450W        W35658  19.699   2.447   3.256
71451W        W35659  30.591   1.269  10.617
71452W        W35660  19.636   3.324   0.898
71453W        W35661  33.545   4.371  14.779
71454W        W35662  38.062  30.423  14.898
71455W        W35663  25.633  40.907  10.978
71456W        W35664  30.040  38.978   1.897
71457W        W35665  24.134  15.651   4.659
71458W        W35666  30.598  34.519  10.508
71459W        W35667  37.834  41.809  12.469
71460W        W35668   8.769  37.465   4.278
71461W        W35669  16.090  11.803   3.681
71462W        W35670  32.072   0.831  10.510
71463W        W35671  14.699  28.466   2.844
71464W        W35672  27.624  36.439   0.414
71465W        W35673  31.448  22.190  11.608
71466W        W35674  24.155  41.005  12.922
71467W        W35675  14.150  44.795  11.466
71468W        W35676  37.951  25.023   3.376
71469W        W35677  14.804   5.247  13.938
71470W        W35678  29.508   8.692   0.922
71471W        W35679  22.064  25.688   3.323
71472W        W35680  23.493  16.606  11.581
71473W        W35681   9.687  11.812  11.512
71474W        W35682  40.338  16.615  11.579
71475W        W35683  15.085  39.888  10.633
71476W        W35684  35.467  40.023   1.701
71477W        W35685  15.777  44.904  14.395
71478W        W35686  27.092  39.451   1.910
71479W        W35687  41.978  11.210   4.115
71480W        W35688  29.640  35.964   3.852
71481W        W35689  41.474  37.848  11.499
71482W        W35690  20.090  41.304   0.243
71483W        W35691  14.667  18.708   2.879
71484W        W35692  24.117  27.037  14.906
71485W        W35693  29.949   1.937   4.635
71486W        W35694  38.419  22.671   1.779
71487W        W35695  28.101  11.308   3.868
71488W        W35696  34.898  32.972  10.507
71489W        W35697  14.812  28.034  10.980
71490W        W35698   8.369   1.375   3.862
71491W        W35699  18.208   2.873  14.515
71492W        W35700  18.240  30.121   0.779
71493W        W35701   3.827  33.025  14.030
71494W        W35702  18.123   4.753   1.724
71495W        W35703  32.613  13.673   3.218
71496W        W35704  14.809  33.119  12.908
71497W        W35705   8.374  15.752  14.316
71498W        W35706  12.272  19.628   1.265
71499W        W35707  38.383  22.734   0.900
71500W        W35708  26.094  20.577   4.662
71501W        W35709  35.993  21.718  12.392
71502W        W35710  39.355  20.154  14.447
71503W        W35711  16.131  44.862  14.846
71504W        W35712  39.832  41.965  10.891
71505W        W35713  42.831  17.138  11.038
71506W        W35714  27.524  17.124  12.342
71507W        W35715  24.099  43.822  12.350
71508W        W35716  27.144  16.714   2.812
71509W        W35717  25.037  10.217   1.211
71510W        W35718  22.105  16.758   3.322
71511W        W35719   4.901  35.048  14.492
71512W        W35720  31.635   8.312  11.472
71513W        W35721  43.458  14.804  13.851
71514W        W35722  38.052  10.161   4.660
71515W        W35723   8.751  17.133   1.309
71516W        W35724  23.241   8.401   2.861
71517W        W35725  39.842  13.795  10.593
71518W        W35726  35.429  41.918   0.402
71519W        W35727  35.497  35.965  13.832
71520W        W35728   3.417  38.055  13.823
71521W        W35729  28.177  27.123  13.470
71522W        W35730  21.609   7.306  14.774
71523W        W35731  44.457  38.520   4.308
71524W        W35732  33.974  12.307  11.405
71525W        W35733   1.808  16.090  10.984
71526W        W35734  41.016  10.163  11.891
71527W        W35735  44.326  14.307  12.013
71528W        W35736  34.481  10.341   2.398
71529W        W35737  30.637  31.944  14.516
71530W        W35738  39.549  12.847   4.622
71531W        W35739  30.587   2.352   3.783
71532W        W35740  36.378   1.732  14.355
71533W        W35741   8.847  41.522   3.733
71534W        W35742  12.746   3.733   4.346
71535W        W35743  35.577   5.801  13.468
71536W        W35744  43.946   5.699   0.295
71537W        W35745   0.859   9.813   3.233
71538W        W35746   2.775   3.793  11.985
71539W        W35747  30.609  19.194   1.259
71540W        W35748  24.144  43.458   3.157
71541W        W35749  33.880   8.778  11.443
71542W        W35750  22.590  26.627   3.773
71543W        W35751   8.693  27.095  12.001
71544W        W35752  30.429  21.157  13.809
71545W        W35753  36.422   2.453   4.769
71546W        W35754  44.436  21.147   3.695
71547W        W35755  19.048  32.426   4.829
71548W        W35756  32.069   3.445   1.898
71549W        W35757   6.863  13.217   4.655
71550W        W35758  13.732   7.212   2.223
71551W        W35759  25.188   1.745   4.239
71552W        W35760  21.593  28.071  10.499
71553W        W35761   6.371  20.665   2.722
71554W        W35762  41.971  28.568   2.354
71555W        W35763  10.237  44.309  13.501
71556W        W35764  44.429  42.433  14.888
71557W        W35765  40.492  22.582   3.197
71558W        W35766  20.043  13.733  14.430
71559W        W35767  13.622  15.799  10.993
71560W        W35768  17.184  14.261  12.440
71561W        W35769  32.103   5.841   4.335
71562W        W35770   0.332  38.486  10.083
71563W        W35771  24.698  36.465   0.301
71564W        W35772  38.045  11.136  10.949
71565W        W35773   4.287  13.121   2.333
71566W        W35774  21.254  24.674  14.869
71567W        W35775  36.548   6.696   2.415
71568W        W35776  43.972  14.227  11.898
71569W        W35777  33.877  25.020   4.709
71570W        W35778   3.285  12.631  10.601
71571W        W35779   7.317   7.716  12.382
71572W        W35780  33.405   7.349   0.827
71573W        W35781  22.603   1.446   4.142
71574W        W35782   5.399  28.049   0.912
71575W        W35783  31.004  13.246  10.601
71576W        W35784  31.153   9.664  10.404
71577W        W35785  36.910  27.528   1.915
71578W        W35786  23.237   3.449   2.802
71579W        W35787  41.943  14.739   0.341
71580W        W35788  23.550  26.162  14.295
71581W        W35789  24.703  31.481   4.350
71582W        W35790  15.611  36.353   2.721
71583W        W35791  21.610  18.788   4.623
71584W        W35792  14.124  29.542   4.777
71585W        W35793  12.649  13.614  11.009
71586W        W35794  24.613  18.631   4.817
71587W        W35795  27.568  13.305  11.118
71588W        W35796  27.144  14.331   3.190
71589W        W35797  43.816  22.158  13.469
71590W        W35798  30.446   4.712   2.285
71591W        W35799  43.405  16.640  14.381
71592W        W35800  18.642  23.556  14.471
71593W        W35801  18.168  38.335  13.535
71594W        W35802  41.466   0.850   3.370
71595W        W35803  43.936   0.793  11.117
71596W        W35804  13.620  14.625  10.509
71597W        W35805   0.326  12.815   0.481
71598W        W35806   7.675  18.080   5.219
71599W        W35807  26.142  11.129  13.537
71600W        W35808  27.460  38.847  14.920
71601W        W35809  43.428  32.004   0.749
71602W        W35810  20.758  33.956  13.032
71603W        W35811   1.930  10.648  10.454
71604W        W35812  33.933   1.796   1.249
71605W        W35813   4.779  32.089  14.896
71606W        W35814  14.275  24.133  11.012
71607W        W35815  33.887  40.420   1.914
71608W        W35816   2.268  29.081   0.782
71609W        W35817  33.890  37.892   0.249
71610W        W35818  26.593  29.583   0.292
71611W        W35819  29.642  26.644   5.120
71612W        W35820   2.366  17.131  13.442
71613W        W35821  25.124   9.828  10.602
71614W        W35822  18.078  41.436   2.327
71615W        W35823   1.858  21.228  11.518
71616W        W35824  27.588  10.839  14.433
71617W        W35825  18.147   1.423   4.277
71618W        W35826  38.418  43.998   0.821
71619W        W35827  43.278  16.572   1.715
71620W        W35828  13.214  42.281   0.947
71621W        W35829  11.238  15.101   0.359
71622W        W35830  42.841  36.992   0.899
71623W        W35831  16.777  43.368   4.791
71624W        W35832  35.086  16.102   0.835
71625W        W35833  17.193  18.722   3.315
71626W        W35834   9.806   4.840  14.025
71627W        W35835  37.410  44.881   0.257
71628W        W35836  13.332   3.316   1.427
71629W        W35837  29.134  36.549   3.312
71630W        W35838  23.200  44.995   0.375
71631W        W35839  31.002  40.806   1.417
71632W        W35840   4.287   3.327  14.514
71633W        W35841  24.026  27.030  10.434
71634W        W35842  10.362  10.307   3.334
71635W        W35843  22.517  13.338  13.387
71636W        W35844  37.854  35.963   0.778
71637W        W35845  26.139  23.523  13.850
71638W        W35846  31.968   9.312  12.010
71639W        W35847   3.229  23.709  11.109
71640W        W35848  44.911   8.712   0.481
71641W        W35849  44.974   8.788   1.914
71642W        W35850  13.723  29.950   1.713
71643W        W35851  23.174  36.438  10.943
71644W        W35852  43.396  12.703   3.172
71645W        W35853   1.831  33.470  11.058
71646W        W35854  42.808   3.330  13.804
71647W        W35855  15.225  20.257  13.545
71648W        W35856   1.915  43.511   1.888
71649W        W35857   9.243  30.622  10.906
71650W        W35858  18.628  23.045  12.552
71651W        W35859   9.336  10.813  13.853
71652W        W35860  12.266  43.945   0.468
71653W        W35861  33.389  28.949   4.307
71654W        W35862  22.099  11.154   2.225
71655W        W35863  13.697  34.527  14.797
71656W        W35864  16.303  44.310   4.750
71657W        W35865  28.621  34.409   4.201
71658W        W35866   7.840   6.191  11.107
71659W        W35867  37.357   9.339   3.787
71660W        W35868  29.995   3.792  10.925
71661W        W35869   5.286  38.538   2.280
71662W        W35870  28.681   2.787  14.440
71663W        W35871   8.181  38.949   1.373
71664W        W35872  43.353  12.628  12.855
71665W        W35873  40.971  25.579   2.340
71666W        W35874  39.958  23.528  10.552
71667W        W35875  40.356  36.000  12.075
71668W        W35876  40.306   0.869  13.418
71669W        W35877  37.060  41.374  11.932
71670W        W35878   8.286   9.753  12.074
71671W        W35879  25.477  11.727   4.219
71672W        W35880  31.060  18.286   5.116
71673W        W35881  32.526  27.105  12.990
71674W        W35882  10.372  26.661  11.594
71675W        W35883   8.680  25.482  14.855
71676W        W35884  33.908   6.411  12.554
71677W        W35885  31.645  14.265   3.186
71678W        W35886  43.370  28.575   3.308
71679W        W35887  38.073  16.189   0.247
71680W        W35888  17.117  37.486  11.565
71681W        W35889  29.625  12.614   4.152
71682W        W35890  14.797   9.736  10.583
71683W        W35891  42.439   1.859  13.380
71684W        W35892  24.002  17.657   0.481
71685W        W35893   4.915  35.953  13.973
71686W        W35894  39.538   5.289  12.915
71687W        W35895  28.052  19.237   0.468
71688W        W35896  33.973  42.921  10.989
71689W        W35897  20.592  10.874   0.732
71690W        W35898  16.288  39.905   3.291
71691W        W35899  29.060  35.903  11.015
71692W        W35900   5.810  35.986  10.564
71693W        W35901  44.913  34.550  12.920
71694W        W35902   6.716  40.050   1.832
71695W        W35903  44.505   0.961  12.981
71696W        W35904  20.532   8.686  11.601
71697W        W35905  11.658  25.066   0.863
71698W        W35906  36.496  29.631   3.173
71699W        W35907  31.994  30.534  13.051
71700W        W35908  15.109  37.450   4.323
71701W        W35909  33.876   3.853   3.293
71702W        W35910  29.474  33.052  10.503
71703W        W35911  37.538  39.899  14.313
71704W        W35912  40.370   2.951  11.991
71705W        W35913  44.290  28.017   0.282
71706W        W35914   3.445   9.766   0.812
71707W        W35915  34.525  25.542   2.194
71708W        W35916  15.320  41.994  14.304
71709W        W35917  44.978   0.484  13.339
71710W        W35918  26.676  33.894   1.801
71711W        W35919  15.231  35.384   0.965
71712W        W35920  18.758  11.266   1.324
71713W        W35921  24.486  17.664   2.362
71714W        W35922  19.558  29.652   4.629
71715W        W35923  20.600  25.102  14.368
71716W        W35924  32.065  36.408   3.716
71717W        W35925  22.027  28.487  10.632
71718W        W35926   8.275  23.566  13.459
71719W        W35927  17.771   5.435  11.049
71720W        W35928  28.605   1.320   0.907
71721W        W35929   9.261  22.073  14.918
71722W        W35930   9.283  19.577  12.466
71723W        W35931  34.865  18.246  13.829
71724W        W35932  43.511  11.709   3.678
71725W        W35933  12.157   8.294   3.240
71726W        W35934  31.061  16.586  12.082
71727W        W35935  43.848  41.402  11.592
71728W        W35936  35.939  24.550  12.937
71729W        W35937  36.900  14.133   2.299
71730W        W35938  15.804  13.272  11.108
71731W        W35939  13.720  37.496  12.402
71732W        W35940  37.407   6.916   3.178
71733W        W35941  31.146  22.243  12.351
71734W        W35942   6.890  17.584   1.253
71735W        W35943  39.480  42.358  11.102
71736W        W35944  29.938  10.757  11.523
71737W        W35945  38.497  21.135   2.245
71738W        W35946   0.940  31.096   0.412
71739W        W35947  20.707  17.071  10.606
71740W        W35948  14.633  20.044  13.451
71741W        W35949  31.573  17.702   3.277
71742W        W35950  25.141  28.101  13.819
71743W        W35951  11.684  19.040  12.460
71744W        W35952  38.547  20.042   0.756
71745W        W35953  10.157  15.097  12.880
71746W        W35954  36.919   4.901  11.930
71747W        W35955  41.334   3.752  11.924
71748W        W35956  30.992  38.329   1.795
71749W        W35957   0.425  19.210  12.478
71750W        W35958  41.042  33.038  14.945
71751W        W35959  40.015   2.724   0.965
71752W        W35960   4.302  10.647  13.484
71753W        W35961   0.797  10.161  12.463
71754W        W35962  14.759   4.441   0.900
71755W        W35963   6.676  44.356  11.925
71756W        W35964  10.807  25.058   2.668
71757W        W35965  21.744  44.289  12.875
71758W        W35966  19.077  29.046   0.938
71759W        W35967   3.414   5.860   3.780
71760W        W35968  20.652  18.172   4.257
71761W        W35969  20.591  20.050   5.175
71762W        W35970   9.352  30.052  14.031
71763W        W35971   2.360  38.864  10.626
71764W        W35972   3.429  36.423   3.647
71765W        W35973  19.158   1.946  10.949
71766W        W35974  43.789  36.563  13.026
71767W        W35975  31.907  24.100  13.056
71768W        W35976  34.467  36.455  11.570
71769W        W35977   7.289  16.234  14.371
71770W        W35978   7.389   1.944   1.431
71771W        W35979  10.833  44.370  12.955
71772W        W35980  16.804  19.588   3.239
71773W        W35981  14.722   9.220  13.847
71774W        W35982  27.577  29.629  13.026
71775W        W35983  16.578  31.623  14.999
71776W        W35984   0.457  14.189  11.586
71777W        W35985  29.078  10.383  13.814
71778W        W35986   6.765   0.303  14.766
71779W        W35987  43.920   3.917   0.812
71780W        W35988  23.195  20.548   4.691
71781W        W35989  42.019   4.361   0.312
71782W        W35990  27.600   5.312   2.365
71783W        W35991  21.029  26.692   4.614
71784W        W35992  30.467   6.386   1.765
71785W        W35993   9.857  21.646  13.422
71786W        W35994  14.232  35.394  14.810
71787W        W35995   6.868  34.936   1.236
71788W        W35996   4.273  33.988   1.759
71789W        W35997   9.339  30.524  14.425
71790W        W35998  43.406   1.843  11.092
71791W        W35999   7.356  43.783  11.893
71792W        W36000  22.508   9.226  11.038
71793W        W36001   7.721   1.939   0.727
71794W        W36002  39.371  41.031  12.545
71795W        W36003   8.243  24.545  10.505
71796W        W36004  15.792  20.651   0.768
71797W        W36005   4.788  25.997   2.858
71798W        W36006  40.812  26.691  13.944
71799W        W36007  39.444   0.807   5.234
71800W        W36008  35.563  29.503   3.366
71801W        W36009  28.059  16.092  13.831
71802W        W36010  22.044   2.825  11.923
71803W        W36011  21.124   4.758   1.402
71804W        W36012  41.026   5.202   5.304
71805W        W36013  41.463  16.750  11.916
71806W        W36014  20.222  10.193  11.450
71807W        W36015   4.862  37.967  14.969
71808W        W36016  30.134  33.451  14.955
71809W        W36017  12.745  13.335  14.808
71810W        W36018  20.740  18.626   2.850
71811W        W36019  44.315  37.401   2.688
71812W        W36020  35.476  25.046  11.872
71813W        W36021  18.106  18.281   2.203
71814W        W36022  16.708  21.707  12.049
71815W        W36023   3.935  10.369   2.270
71816W        W36024  19.064  34.984  14.904
71817W        W36025   3.375  39.976  12.511
71818W        W36026  44.945  26.105  12.859
71819W        W36027  34.516  21.247  13.813
71820W        W36028  34.954   9.876  11.014
71821W        W36029   6.811  37.900  12.389
71822W        W36030  39.920  15.729  13.894
71823W        W36031  40.461  15.100  12.074
71824W        W36032  11.243  32.539   0.816
71825W        W36033  25.538  28.470   3.669
71826W        W36034  44.294  26.647  10.630
71827W        W36035  27.589   1.257   4.660
71828W        W36036   4.270  33.575   3.638
71829W        W36037   6.691  42.367   1.820
71830W        W36038  24.591  38.544  13.973
71831W        W36039  39.557   1.865  11.021
71832W        W36040  25.984  41.974   3.674
71833W        W36041  28.606  10.843   2.801
71834W        W36042   2.808  43.427   0.341
71835W        W36043  29.587  18.791  11.947
71836W        W36044  33.976  24.594  14.374
71837W        W36045  38.416  20.155   1.888
71838W        W36046  41.419  19.088  14.904
71839W        W36047  17.175   5.877   1.217
71840W        W36048   7.171  24.575   1.359
71841W        W36049  39.556  40.472  13.870
71842W        W36050   9.854   4.904   2.821
71843W        W36051  24.565  19.602   0.867
71844W        W36052  13.235  15.636   4.663
71845W        W36053   6.406  21.201  11.114
71846W        W36054  25.644   4.372   0.895
71847W        W36055  17.614   6.770  12.860
71848W        W36056  35.375   0.443  10.991
71849W        W36057  18.259  10.683  10.923
71850W        W36058  41.453  11.168   1.729
71851W        W36059  21.669  15.681   3.661
71852W        W36060  37.351  43.949  10.979
71853W        W36061  25.096  30.643  10.898
71854W        W36062  10.379  15.121   2.800
71855W        W36063  24.521   2.409   4.233
71856W        W36064  22.661   6.883   3.717
71857W        W36065   2.447  18.051   0.436
71858W        W36066  28.464  24.036   1.843
71859W        W36067  27.448  11.788   4.731
71860W        W36068  41.480  38.928   2.863
71861W        W36069  39.448  17.601   0.287
71862W        W36070   1.772  38.395   4.322
71863W        W36071  19.043   4.896  10.021
71864W        W36072  20.582  39.850  10.586
71865W        W36073   2.730   3.849   3.662
71866W        W36074  36.017  23.091  14.861
71867W        W36075  15.135  29.510  14.359
71868W        W36076  33.113  39.524  11.449
71869W        W36077  22.628  22.686  12.939
71870W        W36078  35.500  12.766  13.489
71871W        W36079  34.402  18.158  12.847
71872W        W36080  17.174  32.438  13.046
71873W        W36081   2.878  37.866   1.321
71874W        W36082  26.992   6.789  11.483
71875W        W36083  26.555  39.859   1.242
71876W        W36084   6.717  33.931   0.265
71877W        W36085  11.867  20.726   1.221
71878W        W36086  24.659  15.745  11.527
71879W        W36087  25.567  38.439  13.835
71880W        W36088  29.172  12.747   2.663
71881W        W36089   3.329  29.509  10.443
71882W        W36090  25.575   8.343  13.477
71883W        W36091   6.391  43.859  14.999
71884W        W36092   6.231  24.020  14.389
71885W        W36093  21.744  23.547  11.415
71886W        W36094  25.593  27.019   4.116
71887W        W36095   5.325  38.335   4.337
71888W        W36096  40.873   1.275   2.180
71889W        W36097  14.248   0.980   3.811
71890W        W36098   8.809  26.096  14.288
71891W        W36099   5.435   6.730  14.961
71892W        W36100   6.367  43.328  14.788
71893W        W36101  15.285  16.298   1.703
71894W        W36102  39.412  42.010   3.684
71895W        W36103  33.924  26.967   3.151
71896W        W36104   0.942   5.288  11.098
71897W        W36105  37.878   8.894  12.050
71898W        W36106  16.668  30.438   2.899
71899W        W36107  19.750  35.064   2.761
71900W        W36108  38.370  33.387  14.009
71901W        W36109   4.410  11.233  12.001
71902W        W36110  20.127  24.630   0.406
71903W        W36111  33.107  37.344  14.932
71904W        W36112  32.952   0.743   3.319
71905W        W36113   4.938  32.595   2.227
71906W        W36114  42.843  28.535  10.494
71907W        W36115  34.374  44.323  13.351
71908W        W36116   9.768  43.943   1.396
71909W        W36117  33.095  39.427   3.687
71910W        W36118  36.884  13.349   4.635
71911W        W36119  30.081  43.889  14.828
71912W        W36120  27.978  35.420  14.493
71913W        W36121   9.365   1.879  14.505
71914W        W36122   6.367  18.715   3.353
71915W        W36123  34.026  26.465   0.478
71916W        W36124  19.727  22.583  14.846
71917W        W36125  29.426  33.539  13.827
71918W        W36126  27.138  17.186   4.353
71919W        W36127  20.580  38.457   4.243
71920W        W36128   8.364  24.047  11.877
71921W        W36129  18.097  14.597   2.772
71922W        W36130  33.045  37.883   1.852
71923W        W36131  23.717  25.195  14.978
71924W        W36132  24.990  33.602   3.248
71925W        W36133   2.406   8.352   3.756
71926W        W36134  18.618  44.467  10.970
71927W        W36135  14.303  22.662   1.901
71928W        W36136  21.230   9.207  13.999
71929W        W36137  30.929  24.716   0.469
71930W        W36138   3.837   0.478  11.938
71931W        W36139  41.512  26.982   3.374
71932W        W36140  34.946  17.643  14.343
71933W        W36141  27.015  16.311  12.949
71934W        W36142  40.490  35.004   0.957
71935W        W36143  22.575  11.634  14.475
71936W        W36144   6.229  32.940  12.018
71937W        W36145  16.674  33.425  10.602
71938W        W36146  40.471  10.859   4.120
71939W        W36147   5.365  22.605  10.484
71940W        W36148  36.402  23.172   0.270
71941W        W36149  42.463  37.405  14.966
71942W        W36150  12.218   6.775   3.670
71943W        W36151  22.656   7.705  14.774
71944W        W36152  15.238  38.879   4.237
71945W        W36153  14.650  13.824   1.401
71946W        W36154  33.059   4.226  11.964
71947W        W36155   5.849  33.445  10.418
71948W        W36156  14.602  33.517  14.002
71949W        W36157  42.416  20.711   1.372
71950W        W36158  31.932  30.006  14.761
71951W        W36159  35.487   0.971  14.352
71952W        W36160  31.517   8.231  13.464
71953W        W36161  32.891  10.649   1.225
71954W        W36162  22.569  21.569  12.361
71955W        W36163   7.205  20.269  13.517
71956W        W36164  13.678   3.247   4.793
71957W        W36165  43.504  10.866  14.505
71958W        W36166  30.546  23.175   2.838
71959W        W36167  36.353  22.095   4.786
71960W        W36168  38.040  17.713  13.356
71961W        W36169  11.346   0.767   3.365
71962W        W36170  41.956  43.831   4.780
71963W        W36171   1.845  18.232   1.213
71964W        W36172  43.927   0.784   1.293
71965W        W36173  11.785  36.093   0.831
71966W        W36174  37.973  37.400  11.439
71967W        W36175  15.679  17.072  12.436
71968W        W36176  33.897  37.378   4.277
71969W        W36177   9.755  20.035  12.908
71970W        W36178   7.204   0.479  10.994
71971W        W36179  18.583  34.938  14.947
71972W        W36180  13.844  40.458   2.319
71973W        W36181  19.179  13.759  12.032
71974W        W36182  11.187   8.831   3.800
71975W        W36183  25.597  19.762   4.322
71976W        W36184   4.408  11.842   4.286
71977W        W36185  24.563  10.749   4.310
71978W        W36186  32.604  18.194   4.769
71979W        W36187  40.848  13.620   0.332
71980W        W36188   7.805  30.622  12.466
71981W        W36189   8.181   6.303  12.833
71982W        W36190   1.809  32.061  12.890
71983W        W36191  15.743  32.474   3.301
71984W        W36192  26.624  41.524  12.094
71985W        W36193  36.522  11.847  14.962
71986W        W36194  32.519  42.841   2.888
71987W        W36195  25.110  19.758  14.941
71988W        W36196  19.747  44.801   3.650
71989W        W36197   8.342  12.209  13.041
71990W        W36198  43.857  17.591   4.711
71991W        W36199  41.971  44.963   1.309
71992W        W36200  15.781  38.512   4.347
71993W        W36201  12.341  43.475   1.753
71994W        W36202  10.708  44.845  11.977
71995W        W36203  24.071  10.724  14.278
71996W        W36204  42.003  41.369  13.863
71997W        W36205   5.194  42.806  12.895
71998W        W36206  15.722  18.739   0.276
71999W        W36207  23.522   2.925   2.877
72000W        W36208  21.230  26.068  13.810
72001W        W36209   9.222  43.784   4.663
72002W        W36210  24.194  28.473   2.764
72003W        W36211  14.710  22.098   3.833
72004W        W36212  41.443   5.834   0.281
72005W        W36213  38.856  20.039  12.353
72006W        W36214  23.711  12.671  14.767
72007W        W36215  31.143  25.134   0.958
72008W        W36216  43.767   1.764   9.993
72009W        W36217  33.448  30.656  11.060
72010W        W36218  37.858  29.458   4.799
72011W        W36219   9.720  24.577   2.279
72012W        W36220  26.481  12.777  13.373
72013W        W36221  11.658   0.317   2.737
72014W        W36222   9.816  30.015  13.046
72015W        W36223  45.000   7.399  10.987
72016W        W36224  43.899   2.317  11.109
72017W        W36225  13.108  44.463   2.752
72018W        W36226  19.099  29.648  12.041
72019W        W36227  30.911   3.264   4.746
72020W        W36228  15.192  15.297  12.559
72021W        W36229  24.718  15.635   4.319
72022W        W36230   0.307  28.047   0.368
72023W        W36231  36.490  19.160  10.433
72024W        W36232  20.669  44.423   1.269
72025W        W36233  44.312  13.205  10.469
72026W        W36234  26.071  13.317   3.632
72027W        W36235   7.403  14.203   2.749
72028W        W36236  17.083  16.675  11.518
72029W        W36237  15.667  44.924  11.567
72030W        W36238  11.840  44.975  14.891
72031W        W36239  29.611  40.986   0.301
72032W        W36240  17.197  10.229  10.993
72033W        W36241   2.847  40.439  13.466
72034W        W36242  10.824  37.452   0.877
72035W        W36243   1.908  16.727  12.898
72036W        W36244  21.064  29.040   1.773
72037W        W36245  22.029   0.437  12.413
72038W        W36246  42.398  44.852  11.524
72039W        W36247  36.085  13.717   1.797
72040W        W36248   1.467  36.926  10.404
72041W        W36249  33.405  32.915  12.487
72042W        W36250  43.464   0.909   4.633
72043W        W36251  22.690  29.116   4.775
72044W        W36252  12.823  28.942   3.694
72045W        W36253  37.580   3.900   4.651
72046W        W36254  39.467  36.899  12.954
72047W        W36255   7.299  18.166   3.362
72048W        W36256  29.597  44.927   4.129
72049W        W36257  16.624  18.154  13.370
72050W        W36258  43.436  35.433  12.081
72051W        W36259   6.390  26.084   0.353
72052W        W36260  28.018  42.921  11.604
72053W        W36261  28.578  17.173   3.311
72054W        W36262  33.491  44.477   1.817
72055W        W36263  20.760  34.012  14.949
72056W        W36264   2.721  30.042  10.908
72057W        W36265  12.828  12.615  14.301
72058W        W36266   2.898  40.418  10.559
72059W        W36267  17.739  13.166  10.972
72060W        W36268   8.662   0.376  12.932
72061W        W36269  35.481   6.214  13.424
72062W        W36270  32.065  41.447   3.787
72063W        W36271  17.791  29.983   4.344
72064W        W36272  17.714   6.389  10.615
72065W        W36273  25.149  16.230   0.935
72066W        W36274  42.403  36.010   3.723
72067W        W36275  21.666   1.822  11.427
72068W        W36276   8.778  16.712   0.245
72069W        W36277  25.574  17.225  13.021
72070W        W36278   9.752  28.960  11.996
72071W        W36279   6.212   6.835   0.374
72072W        W36280   0.976  17.168  10.126
72073W        W36281   5.747  12.639  11.558
72074W        W36282   3.818  18.196   0.281
72075W        W36283  32.125  26.548   3.636
72076W        W36284  11.803  32.903   4.343
72077W        W36285  17.784  13.762  14.906
72078W        W36286   2.471  19.724  13.031
72079W        W36287  16.763   6.195   1.695
72080W        W36288   0.320  36.042   3.235
72081W        W36289  14.702  30.027  11.460
72082W        W36290  15.647  12.710   3.630
72083W        W36291  13.192   8.762  10.514
72084W        W36292   0.326  37.001  13.971
72085W        W36293  34.058   3.817   3.808
72086W        W36294  22.661  30.453  10.931
72087W        W36295   9.754   4.809  13.369
72088W        W36296  44.373   5.423  12.558
72089W        W36297   4.323   2.324  13.862
72090W        W36298  12.139  24.119   0.360
72091W        W36299   5.804  42.493  12.525
72092W        W36300  33.515  19.098  10.410
72093W        W36301  25.500   1.939  12.829
72094W        W36302  36.017   9.832   4.727
72095W        W36303  19.624   3.857   1.737
72096W        W36304  24.487  10.734  11.018
72097W        W36305  14.799   8.353  10.930
72098W        W36306  14.786  21.669  14.866
72099W        W36307  41.809  29.039   1.433
72100W        W36308  36.939   9.378  13.437
72101W        W36309  27.679  40.317   1.234
72102W        W36310  15.261  19.674   3.175
72103W        W36311  12.613  43.827  10.960
72104W        W36312  14.616   6.804   3.186
72105W        W36313   2.269  23.588   1.912
72106W        W36314  28.114  11.220  12.551
72107W        W36315   9.883  21.756   2.334
72108W        W36316  42.449  40.484   2.851
72109W        W36317  38.998  39.965  14.950
72110W        W36318  38.392  20.143  10.904
72111W        W36319  14.760   8.362  12.348
72112W        W36320  18.228  10.632  13.906
72113W        W36321  44.874  24.995   2.894
72114W        W36322  33.580  11.135   2.889
72115W        W36323  18.781  10.166   3.768
72116W        W36324  32.592  30.442  13.432
72117W        W36325   2.297  43.421  12.911
72118W        W36326  39.967  26.207   2.666
72119W        W36327   9.838  15.785  14.306
72120W        W36328   0.803  40.517  10.969
72121W        W36329  44.429  39.444   4.276
72122W        W36330  12.843  39.998  13.029
72123W        W36331  15.252  24.724   0.885
72124W        W36332   1.364   9.687   1.928
72125W        W36333   3.244  11.223  10.631
72126W        W36334   9.830   3.285   2.337
72127W        W36335  25.516  38.044  13.538
72128W        W36336  20.158  28.499  11.406
72129W        W36337  17.206  39.996  14.988
72130W        W36338  38.353  36.576  12.523
72131W        W36339  31.142  22.747  10.913
72132W        W36340  24.499  12.287  13.939
72133W        W36341  12.776  35.984  12.849
72134W        W36342  16.807   6.785  13.439
72135W        W36343   9.378  24.598  10.619
72136W        W36344  28.077  41.863   2.186
72137W        W36345  41.978  26.962   3.796
72138W        W36346  37.833  23.154   1.407
72139W        W36347  12.164  38.964  12.493
72140W        W36348  41.489  41.884  14.288
72141W        W36349  44.280  33.030   1.821
72142W        W36350   1.792  30.653   0.934
72143W        W36351  30.921   3.783  13.430
72144W        W36352  22.011  16.208   4.340
72145W        W36353   2.432  17.801  14.511
72146W        W36354  27.474   1.361  13.535
72147W        W36355   7.774   2.392   3.158
72148W        W36356  12.777  15.714   1.743
72149W        W36357  11.778   2.849  12.880
72150W        W36358  10.226  17.689  13.446
72151W        W36359  31.957  33.391   1.415
72152W        W36360  42.363  38.819  11.596
72153W        W36361  31.102  35.524  12.433
72154W        W36362   8.860  12.234   1.334
72155W        W36363  39.852  26.127  11.544
72156W        W36364  43.363  42.394  14.424
72157W        W36365  39.998  33.382   3.346
72158W        W36366  11.867   0.411   1.909
72159W        W36367   9.237  13.287  12.836
72160W        W36368  38.853  17.100   5.211
72161W        W36369   9.746  21.565   3.345
72162W        W36370  17.275  36.977  13.000
72163W        W36371  11.338   8.807  11.863
72164W        W36372   6.244   2.429  14.850
72165W        W36373   9.873  12.340   5.744
72166W        W36374  17.259  42.425  10.582
72167W        W36375   8.338  27.104  13.513
72168W        W36376  11.208  29.625  11.497
72169W        W36377  30.654  41.908  13.460
72170W        W36378  19.076  43.275   1.836
72171W        W36379  15.746  23.683  10.091
72172W        W36380  27.013  17.201  12.898
72173W        W36381  13.707  34.410   2.840
72174W        W36382   4.732  11.131   1.845
72175W        W36383  12.152   5.284  14.415
72176W        W36384  22.603  21.654  10.952
72177W        W36385  36.451  22.152  13.327
72178W        W36386  22.635   4.353   1.383
72179W        W36387   3.448  44.950   0.328
72180W        W36388  36.853  28.562  13.320
72181W        W36389   8.730  30.031  13.795
72182W        W36390  19.774   1.900  11.427
72183W        W36391  27.649  31.491   4.598
72184W        W36392   2.807  42.988   3.263
72185W        W36393   5.260  33.042  14.836
72186W        W36394  44.344  16.119  10.117
72187W        W36395  26.967  22.684  13.409
72188W        W36396  30.467   7.360   1.703
72189W        W36397  41.319  29.991  12.382
72190W        W36398  21.746  13.134  12.940
72191W        W36399   2.229  15.268  11.950
72192W        W36400  26.134   1.335  14.426
72193W        W36401  35.021  43.799  10.509
72194W        W36402   6.779  27.099   0.311
72195W        W36403   6.365  19.219   3.162
72196W        W36404  28.598  20.059  11.006
72197W        W36405  31.049  22.609  12.375
72198W        W36406  19.162  34.560  13.491
72199W        W36407  15.607   4.898   0.916
72200W        W36408  11.201  28.632   2.206
72201W        W36409  26.512  40.395  11.459
72202W        W36410   7.336  12.310  10.974
72203W        W36411  13.762   0.276   4.118
72204W        W36412  39.923  32.405   1.935
72205W        W36413   0.421  12.161  10.997
72206W        W36414   3.745  35.094   3.197
72207W        W36415  34.394   8.786  14.910
72208W        W36416  26.663   7.780  11.470
72209W        W36417  18.120   1.471  13.976
72210W        W36418   1.918  11.345   4.618
72211W        W36419   7.412   6.907  12.561
72212W        W36420  27.970  11.254  12.006
72213W        W36421  19.666   4.445  10.143
72214W        W36422   0.369  12.344   3.698
72215W        W36423   8.161  34.385  14.315
72216W        W36424  23.223  18.154  11.123
72217W        W36425  41.365  38.855  14.333
72218W        W36426  22.168  35.389   2.791
72219W        W36427  11.187   3.242   0.902
72220W        W36428  12.818  25.588   4.808
72221W        W36429   2.391  26.135   3.725
72222W        W36430  25.088  24.045   2.302
72223W        W36431  19.600  22.059   2.874
72224W        W36432  14.338  31.096   2.278
72225W        W36433   4.329  26.541   1.751
72226W        W36434  16.591   0.980  11.442
72227W        W36435  10.259  32.515  11.501
72228W        W36436  33.484  44.419   2.296
72229W        W36437  37.512  25.117  12.063
72230W        W36438  18.748  35.969  13.397
72231W        W36439  30.987  23.648   2.326
72232W        W36440  12.130   5.222   1.838
72233W        W36441  38.914  19.641   4.117
72234W        W36442  35.470  28.658  11.602
72235W        W36443  18.628  27.490   3.633
72236W        W36444  29.591  21.631  14.275
72237W        W36445  29.116   5.914  14.949
72238W        W36446  41.024   4.917  12.496
72239W        W36447  26.680  34.413   4.176
72240W        W36448  33.527  32.061   1.710
72241W        W36449  28.092  34.544  12.442
72242W        W36450  18.569  40.461  12.362
72243W        W36451  23.057   3.445   4.615
72244W        W36452  33.033   5.204  12.572
72245W        W36453   4.442  44.830   1.369
72246W        W36454  12.787  39.540   1.423
72247W        W36455   3.374  21.541   0.474
72248W        W36456  13.821  17.168  12.889
72249W        W36457   9.654   2.883   0.345
72250W        W36458  11.701  41.030  11.404
72251W        W36459  43.969  28.564  11.961
72252W        W36460   0.955   2.721   3.268
72253W        W36461  40.510  35.564  11.003
72254W        W36462   1.909  29.503  13.047
72255W        W36463  34.488  13.344   1.413
72256W        W36464  14.276  39.865   3.792
72257W        W36465  10.247  36.081   2.317
72258W        W36466  35.103  30.611  11.441
72259W        W36467  32.560  21.213  13.424
72260W        W36468  28.583  30.595  14.357
72261W        W36469  33.068  23.583   3.366
72262W        W36470  18.566  13.603   0.337
72263W        W36471  39.974  27.607  10.464
72264W        W36472  20.053  39.446   9.952
72265W        W36473  14.184  21.599   5.176
72266W        W36474  12.678  19.203   3.169
72267W        W36475  14.098  34.434  11.503
72268W        W36476  37.430   8.309  13.379
72269W        W36477   4.779  16.685  10.137
72270W        W36478  33.500   4.909   1.253
72271W        W36479  19.548  19.757   3.344
72272W        W36480  27.591  37.435   2.244
72273W        W36481   9.197  17.213  13.992
72274W        W36482  43.845  18.694   0.726
72275W        W36483  44.371  13.206   5.130
72276W        W36484  35.386  30.624   5.127
72277W        W36485  34.459   9.859   3.154
72278W        W36486  16.275  39.315  12.093
72279W        W36487  15.157  34.955   0.271
72280W        W36488  35.544  26.680   4.154
72281W        W36489   6.878   6.724   4.337
72282W        W36490  12.138  33.088  10.983
72283W        W36491  22.070  32.988  12.046
72284W        W36492  30.503  38.425   1.921
72285W        W36493  34.485  32.480   4.612
72286W        W36494   3.711  38.933  14.509
72287W        W36495  37.018  23.687   2.664
72288W        W36496  16.154  21.140   0.280
72289W        W36497  23.513  21.250  12.567
72290W        W36498  37.054  17.624   0.347
72291W        W36499  36.466  37.524  11.876
72292W        W36500   6.755  27.132  11.444
72293W        W36501  30.121  22.733   0.366
72294W        W36502  41.299   2.861  11.515
72295W        W36503   2.392  36.909   1.744
72296W        W36504  17.167  41.355  14.909
72297W        W36505  14.730  43.381  14.350
72298W        W36506  20.576  20.203   2.791
72299W        W36507  21.677  11.743   0.370
72300W        W36508  10.828  23.529   2.816
72301W        W36509  37.529  33.905   3.754
72302W        W36510  20.120  35.051  12.439
72303W        W36511  13.698  22.745   4.218
72304W        W36512  32.493  22.601   3.742
72305W        W36513  38.868  44.446  10.615
72306W        W36514   5.813  19.154  10.957
72307W        W36515   8.780  31.519  11.090
72308W        W36516  23.537   0.910  12.563
72309W        W36517   0.267  29.065  12.395
72310W        W36518  16.083  27.560   3.212
72311W        W36519  14.634  29.945  13.543
72312W        W36520  25.038  28.549   3.640
72313W        W36521  14.245  15.799   3.808
72314W        W36522  15.319   6.264  13.920
72315W        W36523  24.516  44.381   2.756
72316W        W36524  10.751  13.837  13.512
72317W        W36525  35.862   5.843  13.012
72318W        W36526  15.255  18.584   2.676
72319W        W36527   9.391  13.244   0.424
72320W        W36528  43.957  33.461   0.782
72321W        W36529   3.719  34.065   9.934
72322W        W36530  17.739   6.410  10.138
72323W        W36531  37.971  20.702  10.541
72324W        W36532   1.853  41.954  10.433
72325W        W36533  28.605  43.446   1.403
72326W        W36534  24.005  35.474  14.311
72327W        W36535  44.872  10.748   4.790
72328W        W36536   8.666   3.892   0.916
72329W        W36537  33.095  37.471  11.549
72330W        W36538  35.010   8.795  12.065
72331W        W36539  24.029   2.846   4.352
72332W        W36540  40.946  26.670  11.053
72333W        W36541   5.249  34.867  12.483
72334W        W36542  26.005  24.600  11.411
72335W        W36543   5.743  38.413   3.222
72336W        W36544  19.257  28.012  14.431
72337W        W36545  15.135  38.993  13.984
72338W        W36546  27.545  18.779  14.912
72339W        W36547   6.251  41.952   3.354
72340W        W36548  32.451  37.906   0.802
72341W        W36549   2.440   5.926  14.867
72342W        W36550  42.971   4.305  10.625
72343W        W36551   2.885  18.254   1.766
72344W        W36552  11.232  39.881  12.037
72345W        W36553   1.455  23.124  14.855
72346W        W36554   4.865   4.900  10.538
72347W        W36555  18.585   4.346   9.497
72348W        W36556  32.596  36.855  14.990
72349W        W36557  43.882  34.071   4.788
72350W        W36558   2.801   9.254  10.523
72351W        W36559  26.171  21.749   1.280
72352W        W36560  44.335  27.581  10.491
72353W        W36561  22.249   7.748  11.001
72354W        W36562  38.979   7.413   2.388
72355W        W36563  34.895  24.105  14.326
72356W        W36564  43.499  38.325  14.913
72357W        W36565  44.802   4.815   4.778
72358W        W36566  32.427  14.165   2.862
72359W        W36567   6.297   4.258   3.276
72360W        W36568  37.944   7.739   3.170
72361W        W36569   1.733  17.593   2.873
72362W        W36570  29.048  37.834   1.373
72363W        W36571  42.937  12.666   2.227
72364W        W36572   5.718  24.096   4.724
72365W        W36573  27.525  25.599  14.933
72366W        W36574  29.925   9.658   1.288
72367W        W36575  41.981  12.218  11.459
72368W        W36576   0.486   6.355  11.908
72369W        W36577   5.896  36.542  12.064
72370W        W36578  34.969  14.746   2.810
72371W        W36579  36.024  29.939   0.399
72372W        W36580   2.293  32.925   0.292
72373W        W36581  10.247  16.592   2.889
72374W        W36582  44.345  21.621   9.976
72375W        W36583  44.280  22.693  12.433
72376W        W36584  37.511  28.607   2.728
72377W        W36585  23.067  43.794  13.941
72378W        W36586  34.013  35.476  12.904
72379W        W36587   2.883  28.956  13.977
72380W        W36588  32.970  20.565  12.045
72381W        W36589   2.742  29.622   0.846
72382W        W36590  33.449   4.782  14.989
72383W        W36591   3.748   8.746   0.937
72384W        W36592   7.367   7.765   2.235
72385W        W36593  18.716   9.379  13.986
72386W        W36594   0.831  13.254  11.855
72387W        W36595  32.619  20.653   3.194
72388W        W36596  31.898   8.293   3.179
72389W        W36597  33.040  14.591   3.377
72390W        W36598  23.014  40.352  13.039
72391W        W36599   4.924   3.362  10.570
72392W        W36600  40.035  44.995  13.319
72393W        W36601  15.705  14.681   0.794
72394W        W36602  27.018  29.553  12.548
72395W        W36603  20.156  10.738  11.459
72396W        W36604   3.833  41.312   1.815
72397W        W36605  31.636   8.867  12.932
72398W        W36606  42.819   1.326  14.773
72399W        W36607   2.759  17.146   2.234
72400W        W36608  14.621   2.791   0.356
72401W        W36609  33.000  17.265  13.370
72402W        W36610  14.172   4.834   3.767
72403W        W36611  26.460  15.629  11.893
72404W        W36612  33.938  40.518  13.437
72405W        W36613  35.496  23.204   0.361
72406W        W36614  20.186  38.500  14.504
72407W        W36615  23.733  44.008  11.421
72408W        W36616   4.220  44.914  10.581
72409W        W36617  38.455   0.859  14.957
72410W        W36618  28.558  38.969   2.294
72411W        W36619  37.941  31.928   1.702
72412W        W36620  28.074  33.973   1.232
72413W        W36621  17.281  23.665  10.593
72414W        W36622  26.963   5.703   2.194
72415W        W36623  20.236   5.431  10.013
72416W        W36624  12.205  41.295  10.893
72417W        W36625  11.313  27.109  10.412
72418W        W36626  36.422  14.171  14.018
72419W        W36627  44.998  40.871   2.297
72420W        W36628  37.571   8.745   3.659
72421W        W36629  17.564  38.417   3.779
72422W        W36630   5.714  29.453   3.241
72423W        W36631  20.073  10.312  14.762
72424W        W36632  19.201  10.793  10.925
72425W        W36633   8.697  19.687   2.303
72426W        W36634  23.016  17.290   3.683
72427W        W36635  30.515  10.672  11.912
72428W        W36636  12.615  35.902   4.185
72429W        W36637  42.981   9.330   4.598
72430W        W36638  30.602  24.494  12.051
72431W        W36639  21.042  16.269   1.299
72432W        W36640   9.677   6.191  13.495
72433W        W36641   0.844  30.972  13.941
72434W        W36642  42.936  17.154   3.871
72435W        W36643  21.107  35.362  10.465
72436W        W36644  34.581  35.014  12.449
72437W        W36645  33.975  17.067  13.991
72438W        W36646  38.426  42.406  12.009
72439W        W36647  13.112  35.599  12.462
72440W        W36648  10.692  15.704   0.932
72441W        W36649  16.072  17.224  13.804
72442W        W36650  16.169  35.584  12.895
72443W        W36651   5.275  37.930   0.299
72444W        W36652  36.905  17.747   1.931
72445W        W36653  24.591  35.071   1.338
72446W        W36654  25.484  12.307  12.570
72447W        W36655  28.013  35.854  10.146
72448W        W36656   3.780   0.847  10.461
72449W        W36657  13.754  12.251  13.338
72450W        W36658  28.587   5.436  13.350
72451W        W36659  31.542  41.822  12.487
72452W        W36660  26.487  23.087  11.499
72453W        W36661   3.401  36.424   4.147
72454W        W36662  22.058  44.416   0.311
72455W        W36663  43.402  28.505  13.849
72456W        W36664  31.437   2.920   1.924
72457W        W36665  42.859   8.370   2.900
72458W        W36666  16.690  33.906   1.331
72459W        W36667  23.655  44.796   2.340
72460W        W36668  19.210  42.397   2.855
72461W        W36669  38.875  23.048  14.993
72462W        W36670  19.187  23.555  11.435
72463W        W36671  29.569  29.037  13.485
72464W        W36672  16.194   3.929   3.648
72465W        W36673  19.257  27.179  11.603
72466W        W36674   6.688  25.031   4.192
72467W        W36675  26.959  33.025  10.934
72468W        W36676   9.172   1.943   4.652
72469W        W36677  13.649  37.836   3.283
72470W        W36678  12.729   3.455  13.972
72471W        W36679  26.182   2.419  13.495
72472W        W36680  40.049  40.922  10.561
72473W        W36681  17.785  44.477   0.251
72474W        W36682  40.987  28.623  12.850
72475W        W36683   1.786  24.559   0.740
72476W        W36684  33.521  14.109   0.967
72477W        W36685  43.955  40.489  11.498
72478W        W36686  38.358  16.217   0.781
72479W        W36687  17.153   8.673  10.100
72480W        W36688  18.597   3.771  13.482
72481W        W36689   3.310   2.262  13.058
72482W        W36690  18.643  27.144  10.976
72483W        W36691  40.328  23.631   0.321
72484W        W36692  33.592   6.314  13.485
72485W        W36693   8.751  23.598   0.920
72486W        W36694  38.462  12.302   1.868
72487W        W36695  38.436  21.204   0.941
72488W        W36696  25.706  44.409   1.438
72489W        W36697  35.103  44.484  10.041
72490W        W36698  33.990  11.157   4.283
72491W        W36699  37.035  37.963  12.024
72492W        W36700  20.173   5.818   3.832
72493W        W36701  17.096  10.817   0.333
72494W        W36702   5.847  14.645   2.296
72495W        W36703  11.831  10.230  10.529
72496W        W36704  19.180   3.409   3.822
72497W        W36705  43.401  43.511   4.607
72498W        W36706   5.752  44.910   0.964
72499W        W36707   1.479  30.096   3.695
72500W        W36708  39.881  38.503  12.871
72501W        W36709  13.762  27.670   2.402
72502W        W36710  13.807  38.424  10.528
72503W        W36711  43.901  35.370  13.896
72504W        W36712  28.602  35.026  10.967
72505W        W36713  28.633  23.001  13.532
72506W        W36714  11.240   2.949  14.820
72507W        W36715  39.818  33.445   0.295
72508W        W36716   3.398  14.681   4.616
72509W        W36717  43.479  20.677   4.220
72510W        W36718  41.498  33.508   4.822
72511W        W36719  20.674  40.872  13.971
72512W        W36720  29.102   0.944  10.413
72513W        W36721  36.376   0.848   2.705
72514W        W36722  18.236  44.311   0.809
72515W        W36723  38.372   5.287  10.916
72516W        W36724  38.326   2.305  10.634
72517W        W36725  32.605  30.981  12.510
72518W        W36726   0.434  25.622   2.872
72519W        W36727  30.586   9.309   0.930
72520W        W36728  42.481   9.851  12.506
72521W        W36729  11.273  15.767   1.433
72522W        W36730   3.344   3.851  14.821
72523W        W36731  36.419  12.625  13.818
72524W        W36732   0.277   3.248  15.000
72525W        W36733  30.005  31.607   1.821
72526W        W36734   8.829  15.254   2.776
72527W        W36735  38.507  23.045   2.720
72528W        W36736  35.072  31.921  12.071
72529W        W36737  42.418  41.919   3.337
72530W        W36738  15.611  35.012  11.027
72531W        W36739  40.956  43.817  14.943
72532W        W36740  31.412  22.629  11.990
72533W        W36741  39.976  27.630  13.966
72534W        W36742  24.175  10.682   1.377
72535W        W36743  33.466  22.015  13.840
72536W        W36744  31.132  18.650  10.465
72537W        W36745  16.783   8.254  13.819
72538W        W36746  43.318  41.937  11.510
72539W        W36747  32.582   3.364  10.468
72540W        W36748  43.863   1.294  13.006
72541W        W36749  13.792  21.064  10.492
72542W        W36750  34.876  36.866   0.729
72543W        W36751  17.698  37.551   2.246
72544W        W36752  32.964  42.453   2.854
72545W        W36753  16.209  33.899   0.768
72546W        W36754   7.256   6.830  13.002
72547W        W36755   6.797  36.461   2.833
72548W        W36756  15.795  27.052   4.332
72549W        W36757  42.368  10.263  10.542
72550W        W36758   8.207  20.165  12.063
72551W        W36759  38.488  39.356   0.787
72552W        W36760   3.930  13.795  12.566
72553W        W36761  28.052   9.218   4.635
72554W        W36762   6.803  17.093  12.416
72555W        W36763  34.414  42.377  11.561
72556W        W36764  39.900  37.835  11.474
72557W        W36765   9.334   3.940   1.807
72558W        W36766  18.175  39.039   4.149
72559W        W36767   0.381  41.370   1.444
72560W        W36768   4.792  19.621  12.449
72561W        W36769  31.108  30.432  11.438
72562W        W36770   3.445  13.211  12.386
72563W        W36771  26.589   0.487   4.310
72564W        W36772   2.275  44.975  11.521
72565W        W36773  23.723  20.588  14.276
72566W        W36774  23.122  17.292   2.715
72567W        W36775  11.151  20.756  10.931
72568W        W36776  15.280  20.167  12.003
72569W        W36777  35.095   6.922  13.891
72570W        W36778  35.402  23.227   2.342
72571W        W36779   5.916  30.454  10.534
72572W        W36780   9.313  16.805   0.358
72573W        W36781  11.658  20.091  13.047
72574W        W36782  33.470  29.104  14.767
72575W        W36783  12.316  12.213  12.898
72576W        W36784  20.750  19.155   1.879
72577W        W36785  23.523  42.881   3.722
72578W        W36786  43.798   6.249  12.882
72579W        W36787   5.914  34.878  13.414
72580W        W36788  35.460  26.623   2.271
72581W        W36789  24.033  38.853   4.213
72582W        W36790  27.998  12.795  14.805
72583W        W36791  25.975   8.348   4.144
72584W        W36792   5.776  13.633   3.750
72585W        W36793  41.364  18.295   0.883
72586W        W36794   8.739  12.790   4.277
72587W        W36795  13.243  43.958   2.733
72588W        W36796  16.256  39.057  10.540
72589W        W36797  32.391  26.697  13.849
72590W        W36798   1.862  10.169   2.318
72591W        W36799  22.224  26.991  13.454
72592W        W36800   2.305   9.712   4.766
72593W        W36801  20.719  22.602   1.346
72594W        W36802  22.057  43.936  11.455
72595W        W36803  25.132   7.182   1.709
72596W        W36804  21.722  21.235   3.745
72597W        W36805  25.042  23.144   1.835
72598W        W36806  41.508   0.842  12.957
72599W        W36807   7.250  27.108   2.756
72600W        W36808   7.893   1.423  13.996
72601W        W36809  17.225  30.980  14.932
72602W        W36810  41.866  27.962  12.929
72603W        W36811   9.373  15.783  13.832
72604W        W36812  35.068  32.575  13.933
72605W        W36813  35.888   6.336   1.903
72606W        W36814  38.039   5.775  11.111
72607W        W36815  36.483  43.441  11.422
72608W        W36816  20.590  27.007  11.412
72609W        W36817  36.873   8.720  11.891
72610W        W36818  13.680   7.712  13.309
72611W        W36819  43.352  28.000  11.099
72612W        W36820  12.741  12.806  12.537
72613W        W36821  13.723  40.817  11.084
72614W        W36822  42.853   2.262   2.777
72615W        W36823  16.677  23.199  12.372
72616W        W36824  33.444   7.703   0.930
72617W        W36825  36.452  33.564   1.328
72618W        W36826  25.150  26.187   2.243
72619W        W36827  23.073  27.975   2.224
72620W        W36828  10.288  28.069  14.997
72621W        W36829  30.438  39.041   0.766
72622W        W36830  36.355   9.186   2.703
72623W        W36831  25.074  14.323   3.741
72624W        W36832  12.189  34.571  11.871
72625W        W36833  23.734  13.179   0.885
72626W        W36834  41.525   3.744  13.930
72627W        W36835  23.008  44.363   4.788
72628W        W36836   6.204   9.297   2.349
72629W        W36837  27.002  19.105   0.925
72630W        W36838  38.999  10.139   5.296
72631W        W36839  23.718   5.722  10.456
72632W        W36840  30.577  28.565  14.759
72633W        W36841  24.056  34.997  11.521
72634W        W36842  11.148  35.484   4.609
72635W        W36843  18.266  27.959   2.831
72636W        W36844  33.917  38.464  12.390
72637W        W36845   2.949  21.058  12.440
72638W        W36846  29.466  43.021  11.598
72639W        W36847   9.373  19.162  13.345
72640W        W36848  16.206  26.503   2.876
72641W        W36849  31.472  43.456  10.422
72642W        W36850  43.433   5.309   2.200
72643W        W36851  34.384  44.324   4.747
72644W        W36852  13.192  40.388  11.908
72645W        W36853  14.733  42.955   3.328
72646W        W36854  16.666  14.183   4.323
72647W        W36855  28.059  22.597  10.906
72648W        W36856  15.675  12.202   4.779
72649W        W36857  33.123  43.905  14.486
72650W        W36858  15.164   6.811   3.848
72651W        W36859  29.924  23.520  12.926
72652W        W36860  39.024  14.724  13.810
72653W        W36861  37.038  43.954  14.460
72654W        W36862  14.098  12.696   1.882
72655W        W36863  11.290  27.113   4.697
72656W        W36864  31.432   8.891   0.805
72657W        W36865  14.298  21.100  14.405
72658W        W36866  42.506  37.360  10.413
72659W        W36867   4.939  27.686  13.034
72660W        W36868  26.636   6.349  13.846
72661W        W36869  32.910  10.671   2.385
72662W        W36870   9.250  23.671  10.452
72663W        W36871   7.886  44.800  11.977
72664W        W36872  16.680  43.416  14.029
72665W        W36873   5.744  28.977  12.390
72666W        W36874  19.056  21.661   0.354
72667W        W36875  24.111   7.756  13.918
72668W        W36876  29.057  31.566  10.629
72669W        W36877  17.136  17.736   1.292
72670W        W36878  25.613  16.155  13.432
72671W        W36879  38.457  32.132   4.662
72672W        W36880  40.370  32.392   2.293
72673W        W36881  18.263  16.158  10.584
72674W        W36882  33.421  15.194  13.952
72675W        W36883  36.428  11.773  12.983
72676W        W36884  21.107  36.912   3.651
72677W        W36885  43.330  18.163  11.940
72678W        W36886  31.133  22.675   0.480
72679W        W36887   6.802  32.042   1.884
72680W        W36888  24.486  38.968  10.131
72681W        W36889  28.551   7.374  14.336
72682W        W36890   1.958  13.206   0.374
72683W        W36891  14.674   6.418   4.838
72684W        W36892   9.256  23.647   4.131
72685W        W36893  16.295  10.193   0.918
72686W        W36894  37.916  34.371  12.089
72687W        W36895   3.806  10.354  10.592
72688W        W36896   7.331  14.227   1.240
72689W        W36897  42.791   3.236   3.636
72690W        W36898  39.061  28.512   3.854
72691W        W36899  31.414  38.409   3.797
72692W        W36900  23.732  36.987  13.033
72693W        W36901   8.253   5.822   2.378
72694W        W36902  28.963   1.418  12.007
72695W        W36903  36.568  43.439  12.042
72696W        W36904  11.279   9.178   2.825
72697W        W36905  16.681  22.239  12.485
72698W        W36906   2.303  27.973   5.275
72699W        W36907  13.685  26.504  13.984
72700W        W36908  42.310  12.178   1.410
72701W        W36909   3.415   4.862  14.372
72702W        W36910  11.280  13.840   1.751
72703W        W36911   4.782  18.246   2.756
72704W        W36912  26.091  13.160  12.405
72705W        W36913  40.051   6.808   4.698
72706W        W36914   0.353  36.463  14.442
72707W        W36915  13.677  22.240   0.423
72708W        W36916  18.765  11.215  11.098
72709W        W36917  35.874  26.624   3.846
72710W        W36918  15.135   0.909   1.376
72711W        W36919  17.130   9.252  10.485
72712W        W36920  19.607  33.028  14.766
72713W        W36921  18.144  16.306   2.358
72714W        W36922  39.012  39.823  11.486
72715W        W36923   1.347   5.419   0.757
72716W        W36924  17.182  23.189  11.052
72717W        W36925  35.432  16.764  10.958
72718W        W36926  16.690   0.387  14.994
72719W        W36927   9.196  26.142   2.276
72720W        W36928  38.450  17.620   9.655
72721W        W36929   1.305  38.850  12.959
72722W        W36930  37.474  44.800   2.362
72723W        W36931  15.819  23.641  13.422
72724W        W36932  10.717  16.612   2.750
72725W        W36933  32.947   9.338   2.824
72726W        W36934  18.272  32.931   2.342
72727W        W36935  17.638  26.622  13.797
72728W        W36936  21.178  20.051  11.892
72729W        W36937  30.093   0.843  12.562
72730W        W36938   6.897  27.025   1.811
72731W        W36939  40.898  42.977  14.406
72732W        W36940  20.621  40.930   2.340
72733W        W36941  40.453  33.412  10.506
72734W        W36942  31.938  25.489   3.660
72735W        W36943  14.731  43.372  13.489
72736W        W36944  16.593   2.872  13.527
72737W        W36945  33.444  29.580  14.350
72738W        W36946  26.559  31.128  10.514
72739W        W36947  42.968  33.548  14.822
72740W        W36948  12.217   5.399  12.507
72741W        W36949  44.412   6.829  11.521
72742W        W36950  24.671  28.670   1.855
72743W        W36951   3.879  27.089  12.407
72744W        W36952  38.955   9.821  10.120
72745W        W36953  14.781  28.667  10.977
72746W        W36954   4.773  33.397  10.412
72747W        W36955  32.060  34.501  13.482
72748W        W36956  38.919   1.467   4.139
72749W        W36957   3.388  11.294  12.573
72750W        W36958  10.723   4.299   0.904
72751W        W36959  28.063  21.111   1.229
72752W        W36960  14.299   8.755  10.595
72753W        W36961  32.978  16.269   0.297
72754W        W36962  26.081  39.472  11.584
72755W        W36963  23.571   0.403  12.506
72756W        W36964  39.369  12.775  10.469
72757W        W36965  19.690  27.178   1.252
72758W        W36966  34.390  19.577   1.401
72759W        W36967   9.151  31.509  11.883
72760W        W36968  11.752  12.119  13.445
72761W        W36969  34.121  24.166   2.720
72762W        W36970  19.751  28.541  11.577
72763W        W36971   0.879  10.873   4.234
72764W        W36972  29.647  21.536   3.178
72765W        W36973   7.671  27.015  11.938
72766W        W36974  24.547  14.756  13.415
72767W        W36975  35.002  15.763   1.733
72768W        W36976  22.680  38.422  12.449
72769W        W36977  38.963  27.455  11.921
72770W        W36978  20.644  12.326   3.746
72771W        W36979  18.706   4.328   3.366
72772W        W36980  35.023   4.924   3.244
72773W        W36981  26.570  42.860  12.368
72774W        W36982  27.940   6.390  12.040
72775W        W36983   2.357  17.240   2.262
72776W        W36984   1.438  18.677  14.014
72777W        W36985   1.275  10.765   0.418
72778W        W36986  31.044  22.624   4.724
72779W        W36987  30.054  40.979   1.745
72780W        W36988  38.558  23.101   1.439
72781W        W36989  32.550  34.010   2.723
72782W        W36990  30.587  19.729   1.318
72783W        W36991   0.470  37.883  13.356
72784W        W36992   2.243  21.090  14.843
72785W        W36993   2.847  36.097  11.060
72786W        W36994   5.752  18.732  12.966
72787W        W36995  34.084  20.151   0.835
72788W        W36996  42.836   2.898  13.956
72789W        W36997  27.613   2.786  13.518
72790W        W36998  43.813  11.648   1.269
72791W        W36999  25.500  43.823   2.201
72792W        W37000  27.553  27.024  14.358
72793W        W37001  15.693   1.733   0.296
72794W        W37002  21.062  27.481  10.083
72795W        W37003  25.714  24.222   0.884
72796W        W37004   9.651   3.414  14.930
72797W        W37005  21.725   0.452  11.999
72798W        W37006  29.985  44.267  12.001
72799W        W37007   0.422  40.443   4.650
72800W        W37008  35.415  41.001  13.928
72801W        W37009  15.672   1.837  10.516
72802W        W37010  26.098  37.971  13.827
72803W        W37011   8.733  32.443   4.635
72804W        W37012  35.385   1.391  13.528
72805W        W37013  42.492  25.014   4.732
72806W        W37014  21.636   5.806  12.548
72807W        W37015   9.665   8.400   2.368
72808W        W37016   3.376   1.875   2.705
72809W        W37017  21.261  35.504   4.722
72810W        W37018  14.155  21.657  10.905
72811W        W37019  32.488   5.882   4.691
72812W        W37020  31.472   7.322  14.387
72813W        W37021  21.517  28.979   2.218
72814W        W37022  13.231  26.539  11.019
72815W        W37023  41.039  42.949  12.986
72816W        W37024  24.492  29.070   0.767
72817W        W37025  22.074  14.123  12.958
72818W        W37026  35.994   7.818  14.890
72819W        W37027  30.908   0.913   3.319
72820W        W37028  10.649  38.478  14.301
72821W        W37029   0.327   1.479   2.250
72822W        W37030   2.418  41.499   5.181
72823W        W37031   2.873  23.722   4.673
72824W        W37032  10.207   7.286   3.643
72825W        W37033  11.641  30.970   0.405
72826W        W37034  11.802  14.169   3.298
72827W        W37035  17.245  36.044   3.240
72828W        W37036  29.454  15.589  13.450
72829W        W37037  10.862   1.923   4.246
72830W        W37038   7.853  35.997  14.800
72831W        W37039  39.917  22.536  11.103
72832W        W37040  42.475  25.691  10.466
72833W        W37041  29.087  17.563   1.840
72834W        W37042  27.196  27.628  14.418
72835W        W37043  43.911  42.476   0.423
72836W        W37044  25.603  29.526   2.886
72837W        W37045   8.357  20.567   3.380
72838W        W37046  42.990   7.225   2.392
72839W        W37047  13.755  17.757   3.658
72840W        W37048  13.692  29.980   4.303
72841W        W37049  43.391  16.688  11.373
72842W        W37050  14.099   9.795   0.254
72843W        W37051  38.529  34.989   4.667
72844W        W37052  12.819  31.419  12.926
72845W        W37053  44.923  29.591  13.493
72846W        W37054  40.312  22.147   3.741
72847W        W37055  11.810  29.995  13.918
72848W        W37056  35.479  33.484   3.765
72849W        W37057  10.232  27.198   3.206
72850W        W37058  40.339   5.279  13.307
72851W        W37059  19.639   8.790   5.160
72852W        W37060   2.405   9.744  11.379
72853W        W37061  26.017  34.403   1.863
72854W        W37062  13.754  16.642   3.214
72855W        W37063  21.605  24.595  14.829
72856W        W37064   1.355   9.793  11.604
72857W        W37065  24.117  24.102  12.374
72858W        W37066  38.923  27.565  10.479
72859W        W37067  22.176   0.272  12.073
72860W        W37068  11.823   5.896  11.113
72861W        W37069  12.714   0.448   1.836
72862W        W37070  26.061  21.637  13.440
72863W        W37071  15.207  12.340  11.943
72864W        W37072  25.694  13.296  12.415
72865W        W37073   8.338  41.817   4.643
72866W        W37074   4.717  32.573  13.308
72867W        W37075  29.958  42.428   4.614
72868W        W37076  36.495  30.620   5.322
72869W        W37077  34.555  44.924  12.065
72870W        W37078  10.206  10.860   0.417
72871W        W37079  31.032  11.224   1.294
72872W        W37080  44.350  25.051  12.074
72873W        W37081  32.534  23.540   5.127
72874W        W37082  44.337   5.301   2.271
72875W        W37083  19.102  11.354   0.440
72876W        W37084   9.874  41.446  12.411
72877W        W37085  22.210  31.628  12.024
72878W        W37086  24.501  11.326  11.896
72879W        W37087  11.794  30.588  13.952
72880W        W37088  17.603  21.571   3.639
72881W        W37089   5.775  33.534   1.798
72882W        W37090  35.515  42.003  11.372
72883W        W37091  28.989   3.449  10.530
72884W        W37092  32.630  13.109   3.286
72885W        W37093  43.830  23.699   0.285
72886W        W37094  28.500  17.082  11.046
72887W        W37095  16.664  38.373  11.470
72888W        W37096   5.707  23.166  12.550
72889W        W37097  29.934   7.394   1.257
72890W        W37098  36.902  44.411   3.316
72891W        W37099  36.421  13.661   1.302
72892W        W37100   3.403  37.996  10.500
72893W        W37101  10.220  31.497   4.160
72894W        W37102   6.383  15.586  10.995
72895W        W37103  33.382  25.114   4.209
72896W        W37104  12.150  37.511  10.904
72897W        W37105  13.625  23.514   0.455
72898W        W37106  21.079  26.600   0.316
72899W        W37107  28.111   6.847   1.719
72900W        W37108  23.040  32.999   3.769
72901W        W37109  25.557  37.375  12.931
72902W        W37110  20.674   8.832   0.795
72903W        W37111  40.856   8.254   3.706
72904W        W37112  21.714  31.984  14.280
72905W        W37113  32.138  35.558   2.314
72906W        W37114   6.863  19.176  13.005
72907W        W37115  19.766  19.283   4.317
72908W        W37116  39.529   8.681   0.779
72909W        W37117  44.779   0.256  11.440
72910W        W37118  32.971  13.755   4.633
72911W        W37119  11.276  11.144  12.403
72912W        W37120  30.998  21.103   9.923
72913W        W37121  26.469  29.061  13.875
72914W        W37122  37.555  28.643  12.881
72915W        W37123  34.467  43.308  12.415
72916W        W37124  23.633  17.102  13.841
72917W        W37125  10.866  11.833   1.773
72918W        W37126  19.621  38.845  11.003
72919W        W37127   7.254  18.611  14.809
72920W        W37128  24.676  35.479   3.335
72921W        W37129  25.677  35.519  13.895
72922W        W37130  34.101  24.099  14.391
72923W        W37131   6.357   1.976   5.288
72924W        W37132   5.400  13.314   1.327
72925W        W37133   1.370  29.955  13.464
72926W        W37134   5.212  40.523   0.915
72927W        W37135  30.420   0.431  12.463
72928W        W37136  44.778  15.759  12.890
72929W        W37137  34.434  24.203   4.806
72930W        W37138  33.598  41.028   4.354
72931W        W37139  38.513  27.496  13.485
72932W        W37140  37.054  43.364   2.260
72933W        W37141  15.294  22.726  14.378
72934W        W37142  42.477  19.656  10.957
72935W        W37143  26.184  27.003  13.902
72936W        W37144  10.735  41.424   2.777
72937W        W37145   1.893  14.648   2.380
72938W        W37146   7.884  13.190   0.369
72939W        W37147   4.221  17.618   2.680
72940W        W37148  21.152   4.717  14.014
72941W        W37149  22.533   9.381   3.346
72942W        W37150  24.530   2.872  13.310
72943W        W37151  32.487   3.903  13.952
72944W        W37152  31.902  32.627   0.344
72945W        W37153  36.854   3.316   1.789
72946W        W37154  33.465  25.020   2.310
72947W        W37155  25.624  29.150   4.233
72948W        W37156  10.321  31.527  13.542
72949W        W37157  31.639   4.431  14.319
72950W        W37158  26.147  40.853  14.333
72951W        W37159  35.479  11.624   3.198
72952W        W37160  17.192  25.170  11.497
72953W        W37161  39.892   0.271   4.673
72954W        W37162   1.347  38.912   5.156
72955W        W37163  23.624  28.445   1.297
72956W        W37164  41.020  19.135  11.866
72957W        W37165  15.636  15.151  12.997
72958W        W37166  33.104  41.349  12.064
72959W        W37167   7.304  22.060  11.884
72960W        W37168  19.198  29.146  12.547
72961W        W37169  40.022   5.751  13.319
72962W        W37170  12.197  38.836   1.876
72963W        W37171   3.419  41.872   5.089
72964W        W37172  21.531  32.532   1.247
72965W        W37173  37.034   0.306   4.310
72966W        W37174  20.627  28.972  12.076
72967W        W37175  14.216   9.233  10.908
72968W        W37176  29.645  28.993   4.240
72969W        W37177  12.172  25.584   1.299
72970W        W37178  17.204  27.162  10.902
72971W        W37179  20.052  25.981   2.218
72972W        W37180   4.765  38.828  12.019
72973W        W37181  22.092  14.121  13.434
72974W        W37182  19.099   0.858  11.549
72975W        W37183  28.119  26.084  13.951
72976W        W37184  27.038  40.843   3.792
72977W        W37185  23.513   5.361  13.055
72978W        W37186   1.435  23.241   2.757
72979W        W37187  25.153  15.706  13.042
72980W        W37188  19.184  30.960  13.959
72981W        W37189  33.921   1.872   3.815
72982W        W37190  36.057  22.576   1.808
72983W        W37191  22.128  12.783   0.264
72984W        W37192  19.107  18.068   2.362
72985W        W37193  13.689  33.533  13.827
72986W        W37194   6.704   4.907  10.547
72987W        W37195  28.610  30.438  10.950
72988W        W37196   2.943  39.048  12.076
72989W        W37197  27.024  32.603   2.215
72990W        W37198  20.142  26.676  10.469
72991W        W37199  13.767  21.726   3.796
72992W        W37200  42.493  33.437   1.902
72993W        W37201  42.516  10.690   4.219
72994W        W37202  22.205   1.853  12.435
72995W        W37203  42.462   9.338  11.129
72996W        W37204  18.584  20.583  12.074
72997W        W37205   3.253  12.621   1.935
72998W        W37206  27.172  41.042  14.954
72999W        W37207  43.769   0.260   2.860
73000W        W37208  15.751  12.251  10.976
73001W        W37209  18.233  27.568  14.304
73002W        W37210  35.092  37.999  13.509
73003W        W37211  13.115  28.611  11.414
73004W        W37212   1.349  40.343   0.789
73005W        W37213  29.574  27.503  12.077
73006W        W37214  41.391   8.707  14.777
73007W        W37215  40.884  42.813   4.142
73008W        W37216  44.411  44.476  10.524
73009W        W37217  18.655  17.075  11.895
73010W        W37218  12.704  37.429   0.824
73011W        W37219  18.113  28.073   3.359
73012W        W37220   6.826  35.424   3.184
73013W        W37221  21.177  38.852  14.836
73014W        W37222  32.071  11.314  13.838
73015W        W37223   1.468  21.653  12.443
73016W        W37224  17.580  42.948   1.749
73017W        W37225   3.333   8.895  11.390
73018W        W37226  20.207   5.304   1.420
73019W        W37227  21.543  18.694   1.401
73020W        W37228   3.434  24.554  11.052
73021W        W37229  44.943   2.313  14.767
73022W        W37230  42.798  34.590   2.680
73023W        W37231  33.112  42.410   3.211
73024W        W37232  37.944  41.369   0.289
73025W        W37233  43.469  17.124   4.298
73026W        W37234  31.965  10.193   5.291
73027W        W37235  29.107  10.270   2.821
73028W        W37236   2.256  18.656   1.358
73029W        W37237  31.950  30.551   3.233
73030W        W37238  14.205  18.733   0.877
73031W        W37239  32.540  15.696   2.411
73032W        W37240  11.211  28.619  12.053
73033W        W37241   7.190  26.627   0.402
73034W        W37242  13.235   4.448  13.467
73035W        W37243  28.049  37.864   1.749
73036W        W37244  29.922  24.153   0.379
73037W        W37245  16.661  14.690  12.477
73038W        W37246  31.540  19.278  13.499
73039W        W37247  29.500  43.398   4.321
73040W        W37248   4.315  15.114   1.280
73041W        W37249  27.552  19.154  14.355
73042W        W37250  25.013  38.478  12.347
73043W        W37251   3.322   3.886  11.995
73044W        W37252  24.619  23.564   3.275
73045W        W37253   0.915  29.162   4.677
73046W        W37254  44.319  18.111   1.882
73047W        W37255   8.260  21.699   2.884
73048W        W37256  12.813   4.203  12.012
73049W        W37257  17.137   2.357  13.051
73050W        W37258   7.326  21.200   1.362
73051W        W37259  33.488   9.651  13.936
73052W        W37260  29.543  26.560  11.997
73053W        W37261  42.912  18.670   2.372
73054W        W37262  10.705  18.233  14.344
73055W        W37263  13.608  15.632  12.966
73056W        W37264  10.151  36.546   1.732
73057W        W37265  12.182  15.104   2.300
73058W        W37266   7.224  19.261  11.431
73059W        W37267  20.149  35.875  13.538
73060W        W37268  20.264   9.353  14.298
73061W        W37269  23.212  17.666   4.776
73062W        W37270  27.016  32.512  14.392
73063W        W37271  25.653  25.526   3.738
73064W        W37272  20.084  39.885   4.220
73065W        W37273  35.546  13.347  10.971
73066W        W37274  14.681  34.896  13.864
73067W        W37275  24.602  40.506  11.371
73068W        W37276   2.797  28.497  13.871
73069W        W37277  27.117  34.070   3.817
73070W        W37278  25.077  19.611   4.828
73071W        W37279  25.648  11.848  13.486
73072W        W37280  11.780  25.540   0.868
73073W        W37281  18.551  35.923   4.337
73074W        W37282  16.641  14.158  14.822
73075W        W37283   7.372  22.510   0.322
73076W        W37284  26.064   2.838   2.881
73077W        W37285  37.509  31.508  11.510
73078W        W37286   5.889  12.278   2.790
73079W        W37287  42.019  24.025  14.509
73080W        W37288  31.034   1.276  14.299
73081W        W37289  33.067   2.777  12.556
73082W        W37290  27.569   2.945   1.433
73083W        W37291   2.285  16.157  13.894
73084W        W37292  20.223  31.123  12.040
73085W        W37293  15.253  39.062  12.483
73086W        W37294  18.550  42.955   3.326
73087W        W37295  24.537  40.472   4.638
73088W        W37296  43.973  14.289  14.900
73089W        W37297  32.133  12.126  13.541
73090W        W37298  17.183  44.988  12.077
73091W        W37299  32.539  24.680  11.406
73092W        W37300   2.783  28.988   2.798
73093W        W37301  35.929  32.055   2.676
73094W        W37302  30.438   7.340   4.334
73095W        W37303  40.324  40.806   2.395
73096W        W37304  31.410  19.696   0.921
73097W        W37305   7.844  36.362  11.399
73098W        W37306  41.022  37.437   2.213
73099W        W37307  12.802  16.259  10.614
73100W        W37308  24.166  24.594  13.863
73101W        W37309  38.920  44.448  14.894
73102W        W37310  40.005  23.152  13.365
73103W        W37311   5.811  21.559   0.738
73104W        W37312   6.298  22.673   5.247
73105W        W37313   7.270  25.987   3.662
73106W        W37314  42.443   0.440  13.394
73107W        W37315  21.717  39.456  11.457
73108W        W37316  19.769  43.019   2.272
73109W        W37317  39.984  43.810   2.180
73110W        W37318   1.818   1.921  14.962
73111W        W37319  43.505  17.159  12.974
73112W        W37320  27.527  23.141  13.535
73113W        W37321   0.371   6.393  13.371
73114W        W37322  11.802  44.890  11.951
73115W        W37323  25.196  24.562   1.410
73116W        W37324  11.800  22.646   3.701
73117W        W37325  37.841  42.976   0.322
73118W        W37326  12.185   2.721  13.938
73119W        W37327   9.256  20.629   2.358
73120W        W37328  44.942  29.169  10.135
73121W        W37329  39.494  20.658   1.780
73122W        W37330  23.233   2.402  13.398
73123W        W37331   5.708  35.394   2.757
73124W        W37332  16.221   6.323  11.103
73125W        W37333  22.066  25.617  14.871
73126W        W37334  37.016  41.946  13.848
73127W        W37335  39.824  32.957   1.831
73128W        W37336  10.696  19.754   3.348
73129W        W37337  14.704  43.965   0.451
73130W        W37338  21.080  19.696   5.126
73131W        W37339  23.123   3.235   3.272
73132W        W37340  21.187   1.817   1.351
73133W        W37341  24.224  42.491   0.904
73134W        W37342  44.430  10.858  13.881
73135W        W37343  38.852  42.518  10.627
73136W        W37344  17.731  10.781  13.996
73137W        W37345   7.361  44.004   0.910
73138W        W37346  26.701  26.179  12.492
73139W        W37347   1.256  14.665   3.797
73140W        W37348  23.517  35.543   4.157
73141W        W37349   3.420  25.526   2.276
73142W        W37350  23.677  27.447   3.850
73143W        W37351  43.338  24.216   1.371
73144W        W37352  25.093  23.202   0.936
73145W        W37353   6.872  29.659  13.998
73146W        W37354  43.904  23.623  13.346
73147W        W37355  22.735  41.343  14.879
73148W        W37356   8.269  16.186   3.172
73149W        W37357  39.029  34.579  11.946
73150W        W37358  15.095  27.025  13.894
73151W        W37359  24.227  31.962  10.107
73152W        W37360  19.106   8.176  11.867
73153W        W37361  24.979  19.052  11.966
73154W        W37362  39.881   8.831  11.897
73155W        W37363  31.481  20.602   4.130
73156W        W37364  35.071  24.132  14.978
73157W        W37365   9.228  19.146   3.632
73158W        W37366  37.554  44.418  11.520
73159W        W37367  11.678  36.549  11.565
73160W        W37368   9.352   9.194   3.795
73161W        W37369  43.295  36.589   3.656
73162W        W37370  37.849  23.697  12.055
73163W        W37371  31.589  44.971   4.267
73164W        W37372  11.695  12.259  14.337
73165W        W37373  27.030  14.208   2.718
73166W        W37374  39.897   1.406  14.803
73167W        W37375  11.681  40.396  14.322
73168W        W37376   5.791  15.611  10.436
73169W        W37377   6.243  28.180  13.888
73170W        W37378  17.573  10.212  13.930
73171W        W37379  30.565  29.102   1.421
73172W        W37380  44.383   5.720   0.432
73173W        W37381  33.615  36.411   1.788
73174W        W37382  36.881  25.578   0.445
73175W        W37383  18.637  11.264  14.279
73176W        W37384   2.391  22.532  14.488
73177W        W37385  27.487  13.336   1.885
73178W        W37386   4.282  33.404   0.925
73179W        W37387  28.141   2.746  11.387
73180W        W37388  26.666   1.453  12.419
73181W        W37389  43.939  35.068  12.480
73182W        W37390  24.716  27.097   1.301
73183W        W37391  20.150   6.872  11.484
73184W        W37392  37.532   2.426   4.201
73185W        W37393  32.600  37.449   0.727
73186W        W37394  34.458  14.312  13.426
73187W        W37395   8.240  20.694   4.697
73188W        W37396   7.682  22.581   4.213
73189W        W37397   0.381  19.586   4.744
73190W        W37398  29.118  41.344   4.787
73191W        W37399  27.048  43.983   1.785
73192W        W37400   1.874  23.228  11.559
73193W        W37401  42.901  21.163  14.316
73194W        W37402  40.442  21.649   3.651
73195W        W37403  16.702   0.310   4.281
73196W        W37404  26.007   1.340   1.919
73197W        W37405  42.807  27.656   1.373
73198W        W37406  40.433  17.626   4.162
73199W        W37407   1.789  22.134  13.411
73200W        W37408  20.104  39.483   1.770
73201W        W37409  27.570  25.563  11.079
73202W        W37410  44.330  24.164   1.259
73203W        W37411  17.307  35.910   1.228
73204W        W37412  35.556  22.555   3.316
73205W        W37413   8.715  10.664  10.978
73206W        W37414  40.509  27.575   4.173
73207W        W37415  41.010  20.657  14.339
73208W        W37416  39.056  14.298  10.903
73209W        W37417  44.851  14.159  13.417
73210W        W37418  26.461  35.410  11.935
73211W        W37419  23.050  42.433  10.485
73212W        W37420  16.081  26.103  12.483
73213W        W37421   6.371  16.139  12.360
73214W        W37422  35.098  24.629  13.886
73215W        W37423  36.429  12.834  12.343
73216W        W37424  30.491   0.350  14.816
73217W        W37425   4.393  31.557   2.306
73218W        W37426  27.090  16.102   2.838
73219W        W37427  25.658   2.391   0.840
73220W        W37428  21.708   4.323   0.816
73221W        W37429  33.417  29.587  12.549
73222W        W37430  32.489  16.750   2.836
73223W        W37431  14.125   0.908  14.437
73224W        W37432   3.228   6.399   0.826
73225W        W37433  42.834  23.113  11.946
73226W        W37434  31.606  26.170  12.447
73227W        W37435   8.857  33.090  14.924
73228W        W37436  22.517  33.957  12.401
73229W        W37437  17.725  24.167  13.458
73230W        W37438  34.032  39.375   0.465
73231W        W37439  40.483  34.914   2.334
73232W        W37440  36.013   0.406   4.327
73233W        W37441  33.383  38.526  13.028
73234W        W37442  21.629  23.179   4.720
73235W        W37443  36.470  17.203  11.440
73236W        W37444  39.911   3.721  12.024
73237W        W37445   5.741  44.925  12.455
73238W        W37446  14.270  26.631   3.812
73239W        W37447   7.282  11.268   3.367
73240W        W37448  26.105  13.202  11.613
73241W        W37449  20.683   4.398  13.469
73242W        W37450  14.314  22.177   4.282
73243W        W37451  20.524   6.339  14.918
73244W        W37452  41.941   0.301   1.264
73245W        W37453  28.115  40.936   0.936
73246W        W37454  35.951  28.175   2.739
73247W        W37455  27.949  25.676  14.982
73248W        W37456  32.601  27.034   0.800
73249W        W37457  43.396  32.128  11.890
73250W        W37458   2.387  12.796   3.701
73251W        W37459  40.360  12.239   3.157
73252W        W37460  29.451  23.024  11.429
73253W        W37461  40.525  31.129  10.895
73254W        W37462  36.857  24.062   2.305
73255W        W37463   6.705   6.814   0.275
73256W        W37464  22.667  42.513   3.343
73257W        W37465  30.501  27.643  12.000
73258W        W37466  11.297  26.506  13.437
73259W        W37467   3.820  24.715  14.505
73260W        W37468  12.140  21.682   4.816
73261W        W37469  34.530  33.406   0.901
73262W        W37470  40.484  15.120  11.408
73263W        W37471   5.385  17.705  12.528
73264W        W37472   5.754  44.944  10.993
73265W        W37473  38.062   1.444   2.275
73266W        W37474  35.957  13.218   2.664
73267W        W37475  28.035   2.771  12.526
73268W        W37476  25.650   5.784   4.274
73269W        W37477  26.992  36.082   2.215
73270W        W37478  18.565  27.682  11.886
73271W        W37479  27.093   3.890   2.328
73272W        W37480  30.068  29.530   3.743
73273W        W37481  11.859   8.871  13.512
73274W        W37482  43.468   1.429  13.044
73275W        W37483  31.008  30.161  11.462
73276W        W37484  26.047  26.544  13.039
73277W        W37485  15.660  31.998   3.651
73278W        W37486   2.298   4.448  14.451
73279W        W37487  41.459  39.408   0.918
73280W        W37488  44.371   6.393  14.423
73281W        W37489  20.034   4.288  12.067
73282W        W37490  37.367  13.250   0.442
73283W        W37491  18.276   8.886   1.211
73284W        W37492  20.525  15.775  10.589
73285W        W37493   5.298  31.024   0.793
73286W        W37494  20.059  29.650  14.991
73287W        W37495  37.570  32.501   4.167
73288W        W37496  10.797  43.358   2.717
73289W        W37497  30.570  11.171  11.879
73290W        W37498  29.155  30.630   3.176
73291W        W37499   7.193  19.681  14.974
73292W        W37500  18.177  14.135   2.390
73293W        W37501  32.450   9.194  14.928
73294W        W37502  31.635  14.644  12.845
73295W        W37503  41.302   6.312  12.363
73296W        W37504  28.141  10.816  13.467
73297W        W37505  34.097  29.028  12.445
73298W        W37506  41.948  41.019   4.607
73299W        W37507   1.445  44.274  11.079
73300W        W37508  37.963  14.808   4.756
73301W        W37509  28.463  16.707  11.416
73302W        W37510  18.767  16.173   4.600
73303W        W37511  17.145  10.758  11.612
73304W        W37512   5.269  37.571  11.452
73305W        W37513   4.820  17.193   3.821
73306W        W37514  27.994  26.665  12.433
73307W        W37515  41.968  17.746   1.899
73308W        W37516  24.714  32.930  13.479
73309W        W37517  23.010  21.218   3.185
73310W        W37518   0.779  12.674  12.987
73311W        W37519  10.872  35.058   2.700
73312W        W37520   5.808  15.292  14.319
73313W        W37521  26.196  32.059   3.660
73314W        W37522  42.311  16.674  14.354
73315W        W37523  41.424  43.963   1.919
73316W        W37524  34.990  26.599  14.830
73317W        W37525   9.777  40.315   3.261
73318W        W37526   8.783  41.445   4.207
73319W        W37527  12.718  13.753   2.290
73320W        W37528  36.470   1.301   3.160
73321W        W37529  11.236  29.659  13.004
73322W        W37530  38.419  42.370  13.034
73323W        W37531  40.045  34.482  12.506
73324W        W37532   6.711   3.240   3.310
73325W        W37533  15.811  23.509   3.342
73326W        W37534  11.760  24.012  12.959
73327W        W37535  17.569  26.039   1.397
73328W        W37536  33.516  35.536   2.355
73329W        W37537  25.080  35.461  14.028
73330W        W37538  39.532  43.944   2.258
73331W        W37539  21.682  26.115   3.821
73332W        W37540  38.967   0.486  11.450
73333W        W37541  21.227  33.460  13.337
73334W        W37542  37.855  15.789  11.993
73335W        W37543  28.038  23.010  12.039
73336W        W37544  26.134  19.076  10.513
73337W        W37545  32.002  37.491   1.929
73338W        W37546  37.041  39.868  14.333
73339W        W37547  16.212  22.535  10.623
73340W        W37548  34.439  28.037   4.300
73341W        W37549   8.710  21.654   0.768
73342W        W37550  31.969  20.043   3.214
73343W        W37551  16.731  38.522   1.388
73344W        W37552  17.574  40.433  12.032
73345W        W37553   8.239  30.986   4.835
73346W        W37554  26.695  40.483   4.307
73347W        W37555  25.122  26.633  12.091
73348W        W37556  38.828  34.025   3.370
73349W        W37557  15.160  25.199   0.799
73350W        W37558   3.874  18.257   1.767
73351W        W37559  38.421  12.668   3.668
73352W        W37560  12.192  12.742  14.020
73353W        W37561  13.830  40.899  13.901
73354W        W37562   1.354   3.405  12.006
73355W        W37563   5.295  10.249   5.235
73356W        W37564  36.472  31.506   0.280
73357W        W37565  13.317  15.299   4.163
73358W        W37566   7.907  41.969  13.942
73359W        W37567   9.195  27.134   1.293
73360W        W37568  14.203  18.249   4.735
73361W        W37569  28.674  13.674   3.178
73362W        W37570  27.081  24.158  12.926
73363W        W37571  18.267  22.033   3.303
73364W        W37572  39.959  37.873   4.201
73365W        W37573  32.977  23.612   1.326
73366W        W37574  35.878  19.175  13.360
73367W        W37575  35.002  20.131   3.301
73368W        W37576  44.779  29.967  13.859
73369W        W37577  38.969  31.908   3.321
73370W        W37578   1.279  29.538  13.532
73371W        W37579  33.467  34.513   9.946
73372W        W37580  40.378  42.933  13.003
73373W        W37581  20.623  15.102   4.654
73374W        W37582   5.280  44.831  12.833
73375W        W37583  38.881  36.445  11.017
73376W        W37584  26.992  10.296   3.195
73377W        W37585  33.001  17.089   5.282
73378W        W37586  11.818   7.902  13.429
73379W        W37587  43.487  19.672   2.883
73380W        W37588  41.535   6.905  11.080
73381W        W37589   5.420  31.932   4.212
73382W        W37590   1.427  41.819  13.059
73383W        W37591  38.362   7.833   3.350
73384W        W37592   7.211  16.073   3.791
73385W        W37593   8.688  37.429  10.522
73386W        W37594  12.772  21.666   3.675
73387W        W37595  23.195  29.629   0.301
73388W        W37596  14.614   9.699  11.010
73389W        W37597  38.532  14.820   0.961
73390W        W37598  15.814  21.245  13.860
73391W        W37599  37.347  10.747  11.494
73392W        W37600  36.040  19.621  12.506
73393W        W37601  34.505  13.256   2.220
73394W        W37602  11.366  17.687  13.540
73395W        W37603   9.269  24.707  12.862
73396W        W37604   5.850   8.720  13.486
73397W        W37605  30.612  14.779   1.805
73398W        W37606  27.976  11.211   0.307
73399W        W37607  41.441  18.277  12.551
73400W        W37608  43.931  32.000   3.735
73401W        W37609  27.634  24.479  12.464
73402W        W37610  16.677  27.086   3.358
73403W        W37611  42.002  27.497   3.646
73404W        W37612  19.734   8.325   3.673
73405W        W37613   8.190  17.711   4.692
73406W        W37614  34.389   0.428  13.867
73407W        W37615  25.617  28.997   2.321
73408W        W37616  40.496  17.245  11.868
73409W        W37617  18.602  24.709  10.909
73410W        W37618  37.918  40.445   3.319
73411W        W37619  36.873  21.081  14.510
73412W        W37620  33.544  37.351   0.959
73413W        W37621  30.942  17.069   1.774
73414W        W37622   9.258  23.512  11.527
73415W        W37623  24.513  27.565  13.989
73416W        W37624  12.286  39.004  12.076
73417W        W37625   0.466   4.283  12.566
73418W        W37626  40.312  10.860  14.436
73419W        W37627   4.310  22.682   2.180
73420W        W37628   9.655   2.739   0.860
73421W        W37629  34.960  36.938  14.857
73422W        W37630   4.725  22.225   3.265
73423W        W37631  20.231  28.015   4.192
73424W        W37632  26.075  18.051  11.976
73425W        W37633  12.350  34.051   0.872
73426W        W37634  30.467  17.692  12.496
73427W        W37635  23.605  35.998   1.742
73428W        W37636  11.836  11.775   2.900
73429W        W37637   4.725   4.723   1.324
73430W        W37638  18.057  44.796   2.873
73431W        W37639  42.319  25.990   4.628
73432W        W37640  31.110  35.456  10.920
73433W        W37641  11.768  11.313  11.905
73434W        W37642   3.805  18.691   2.279
73435W        W37643  42.857  19.589   2.267
73436W        W37644   9.842  15.601   2.393
73437W        W37645  22.689   3.455   1.279
73438W        W37646  28.681   5.845   4.159
73439W        W37647  10.272  43.971   4.116
73440W        W37648  37.427  20.255   2.300
73441W        W37649   5.720  26.095  12.580
73442W        W37650  23.594  32.000   3.311
73443W        W37651   3.938  23.550  12.429
73444W        W37652   4.346   9.801  14.026
73445W        W37653   2.255   0.444  13.538
73446W        W37654  28.939  41.306   1.319
73447W        W37655  44.908  22.620  13.864
73448W        W37656  28.451  11.683   0.907
73449W        W37657   3.790  38.329   2.821
73450W        W37658  37.015  13.774  13.463
73451W        W37659  23.149  42.828  14.871
73452W        W37660  40.399  42.816  10.993
73453W        W37661  31.100  33.108   1.437
73454W        W37662  31.058  12.748  12.555
73455W        W37663  40.310  31.031   1.824
73456W        W37664  31.623  28.446  10.494
73457W        W37665  32.625  32.456  12.576
73458W        W37666  11.761   5.744   1.852
73459W        W37667   4.891  44.327  10.986
73460W        W37668  40.872  43.303   2.287
73461W        W37669  40.930  32.974   2.416
73462W        W37670  33.614  17.286   4.713
73463W        W37671   4.419  10.866  10.633
73464W        W37672  34.905  23.571   2.274
73465W        W37673  27.949  25.621   2.749
73466W        W37674  22.041  15.095   0.455
73467W        W37675  36.093  14.291  12.998
73468W        W37676   9.394  34.922   1.740
73469W        W37677   8.808  10.285   3.309
73470W        W37678  24.717   4.933  14.492
73471W        W37679   5.783   3.913   2.820
73472W        W37680  28.132  34.972   4.243
73473W        W37681  32.438  42.473   3.282
73474W        W37682   2.958  11.626   3.359
73475W        W37683  34.914  31.042  12.858
73476W        W37684  31.543  39.352   1.872
73477W        W37685  41.961  16.268  12.017
73478W        W37686  34.044   9.747   2.700
73479W        W37687  25.470  39.379   0.899
73480W        W37688  39.910   2.733  14.511
73481W        W37689  11.197  29.984  13.391
73482W        W37690  29.516  21.622  13.328
73483W        W37691  35.462  37.929   1.893
73484W        W37692   5.854  44.284   4.648
73485W        W37693  14.686  12.254  14.998
73486W        W37694  38.325  23.586   1.749
73487W        W37695  34.387  28.096   2.310
73488W        W37696  42.407  21.209  14.004
73489W        W37697  29.565  29.568   0.292
73490W        W37698  33.461  28.646   4.226
73491W        W37699   4.233  31.460   3.672
73492W        W37700  38.441  18.184   4.246
73493W        W37701  20.244  23.226  11.459
73494W        W37702  40.015   4.750  12.058
73495W        W37703  20.219  32.102  14.460
73496W        W37704  14.159  32.973  12.949
73497W        W37705  10.318  29.487   5.187
73498W        W37706  36.058  26.642  14.788
73499W        W37707  42.493   1.319  13.887
73500W        W37708  26.052  36.469  14.444
73501W        W37709  43.414  22.038  14.405
73502W        W37710  18.104  11.196   0.349
73503W        W37711  42.497  37.916   2.248
73504W        W37712  25.972  19.205   3.846
73505W        W37713  22.232  28.138   3.651
73506W        W37714  33.419  27.610  13.031
73507W        W37715  35.490  39.843   3.857
73508W        W37716  14.667   3.850   1.380
73509W        W37717  22.130  23.218  11.050
73510W        W37718   4.262  42.374  13.920
73511W        W37719  30.648  39.872  10.443
73512W        W37720   9.157  39.533   3.161
73513W        W37721  34.525  37.347   2.721
73514W        W37722  44.305   2.750  11.561
73515W        W37723  23.673   6.879  14.912
73516W        W37724  22.040  34.461  13.362
73517W        W37725  24.125  43.313  14.276
73518W        W37726  30.578  15.285  13.012
73519W        W37727  13.216  27.040  10.470
73520W        W37728   9.878  30.091  12.003
73521W        W37729  40.413  35.956  10.095
73522W        W37730  13.220   2.412   4.676
73523W        W37731  21.572  32.610   1.782
73524W        W37732  37.531  28.516   4.608
73525W        W37733  13.831   8.709   1.449
73526W        W37734  10.762  24.510  11.056
73527W        W37735  31.974  18.079  11.096
73528W        W37736  17.689  41.969   1.387
73529W        W37737  33.458  26.054  12.916
73530W        W37738  15.655  13.203   2.252
73531W        W37739  36.569  30.468   0.867
73532W        W37740  25.085  25.510   0.742
73533W        W37741   9.770  39.325   2.707
73534W        W37742  37.389  19.117  14.937
73535W        W37743  11.633  26.611  10.987
73536W        W37744  20.102  30.632  13.938
73537W        W37745  34.990  35.078  13.913
73538W        W37746  12.624  14.135  14.302
73539W        W37747   5.351  17.094  11.473
73540W        W37748  32.046  37.850  14.907
73541W        W37749  11.139  14.808   5.138
73542W        W37750   7.372  40.363  13.848
73543W        W37751   7.344  25.142  13.367
73544W        W37752  17.763   2.910   1.890
73545W        W37753   9.797   7.795  14.878
73546W        W37754  31.141  17.119   4.787
73547W        W37755   2.873  20.250   1.281
73548W        W37756   1.850   8.370  10.560
73549W        W37757  13.670  14.677  13.904
73550W        W37758  17.587  21.156   4.801
73551W        W37759  17.697  21.722  10.454
73552W        W37760  13.314  17.153  11.448
73553W        W37761  31.646   5.808   0.929
73554W        W37762   2.902   9.670  10.602
73555W        W37763   0.461   9.854  14.830
73556W        W37764  34.988  37.556   3.236
73557W        W37765   1.237  20.535  12.043
73558W        W37766  28.549  10.292   2.830
73559W        W37767  44.827  32.889  11.020
73560W        W37768   0.909   0.910  10.417
73561W        W37769  39.932  36.080   1.270
73562W        W37770  22.618  11.165  10.960
73563W        W37771  10.706  29.517   2.321
73564W        W37772  36.560  37.038   2.328
73565W        W37773   9.714  28.548   3.277
73566W        W37774  24.087  19.053   9.960
73567W        W37775  41.386  27.193  14.504
73568W        W37776  25.106  32.897  12.035
73569W        W37777  21.210  26.173   0.925
73570W        W37778  14.665   7.404   4.307
73571W        W37779   3.946  20.758  10.941
73572W        W37780  17.689   8.255  12.437
73573W        W37781  23.217  31.489   1.829
73574W        W37782   7.822   2.860   2.796
73575W        W37783  40.327   7.288  11.567
73576W        W37784  25.085  38.523  13.516
73577W        W37785  34.520  36.510   3.781
73578W        W37786  35.423  27.462   0.329
73579W        W37787  12.682  19.536   4.145
73580W        W37788  23.639  36.857  12.448
73581W        W37789   8.323   6.325  10.450
73582W        W37790  24.594  37.581   2.387
73583W        W37791  43.890   4.779  14.448
73584W        W37792  21.096  34.885  12.920
73585W        W37793  44.416   2.919   4.170
73586W        W37794  33.922  14.156  13.843
73587W        W37795   8.187  30.970  11.478
73588W        W37796  16.303  23.509  12.474
73589W        W37797   0.814  40.866  10.478
73590W        W37798  22.668   4.942   0.923
73591W        W37799  31.113  16.568   5.132
73592W        W37800  12.748   5.912   2.677
73593W        W37801  34.942   9.163   2.360
73594W        W37802  18.758  24.590   1.796
73595W        W37803  44.868  13.296  12.393
73596W        W37804  33.907  16.601   1.888
73597W        W37805  10.879  11.344   3.720
73598W        W37806   2.881  33.599   1.239
73599W        W37807  16.128   6.875  11.051
73600W        W37808  29.443  36.585   0.832
73601W        W37809  44.311  26.650   1.280
73602W        W37810   4.257  42.964  12.912
73603W        W37811  12.820  13.259   1.695
73604W        W37812  44.806  37.936  13.522
73605W        W37813  33.941   7.411  14.304
73606W        W37814  27.137  32.510  11.583
73607W        W37815  32.568   4.425  10.528
73608W        W37816  33.547  32.442  14.993
73609W        W37817  21.167  23.169   2.789
73610W        W37818  16.629  29.603   4.173
73611W        W37819  30.123  36.944   2.696
73612W        W37820   2.285  13.778  10.919
73613W        W37821  30.635  30.601   3.742
73614W        W37822  35.380   6.306  10.479
73615W        W37823  34.519   1.479   3.219
73616W        W37824   6.839  44.827   4.277
73617W        W37825  27.966  41.497   2.763
73618W        W37826  23.211  17.599   5.795
73619W        W37827  42.368  32.521  14.834
73620W        W37828  19.242   9.262   1.719
73621W        W37829  12.809   0.429  10.586
73622W        W37830  38.963  27.529  12.445
73623W        W37831  17.093   8.237  11.426
73624W        W37832  15.814  22.014   0.766
73625W        W37833  12.773  33.558  11.861
73626W        W37834   9.781  18.548  14.396
73627W        W37835  15.768   4.343   3.147
73628W        W37836  29.491  11.789   1.406
73629W        W37837  26.144  44.319   4.706
73630W        W37838  20.224   4.275   2.291
73631W        W37839  25.210  36.347   0.912
73632W        W37840  31.054  15.249  13.544
73633W        W37841  28.481  35.943   2.203
73634W        W37842  31.029   1.428  12.983
73635W        W37843   3.821   6.249  10.963
73636W        W37844   5.407   8.880   2.340
73637W        W37845  10.380  43.315   0.730
73638W        W37846  13.706  23.560   2.694
73639W        W37847  42.463  28.475  12.827
73640W        W37848  23.507   4.207   0.429
73641W        W37849   3.374  32.627  12.430
73642W        W37850  16.710  29.442  13.936
73643W        W37851  35.514  39.875  11.864
73644W        W37852  18.651   3.772   1.843
73645W        W37853  33.548  24.068  11.107
73646W        W37854  14.323  22.052   3.164
73647W        W37855  22.069  30.525  14.813
73648W        W37856  20.722  38.059   1.324
73649W        W37857  20.721  21.712  14.803
73650W        W37858   1.288  33.897  10.920
73651W        W37859  24.063  18.293   3.791
73652W        W37860  28.579  31.581  12.983
73653W        W37861  28.065  20.689   4.166
73654W        W37862  13.105  20.228   2.838
73655W        W37863  19.120   2.425   2.364
73656W        W37864  22.222  44.826   3.775
73657W        W37865  23.151  33.541  10.034
73658W        W37866  22.027  24.516   3.801
73659W        W37867  39.919   7.697  12.954
73660W        W37868  16.594   0.480  12.924
73661W        W37869   5.372  26.020  12.465
73662W        W37870  13.335  40.984   1.739
73663W        W37871  18.759  38.394  14.956
73664W        W37872   2.270  18.630  11.073
73665W        W37873  26.044  25.563   3.798
73666W        W37874  35.548  39.331  13.449
73667W        W37875  25.485  12.301   3.692
73668W        W37876  42.403   9.831   3.201
73669W        W37877  41.360   6.765   0.850
73670W        W37878   0.883  17.626  13.317
73671W        W37879   9.359   8.254  12.506
73672W        W37880  26.131  19.073   2.378
73673W        W37881  17.091  19.653   1.861
73674W        W37882  34.529  38.361  13.360
73675W        W37883   5.799  39.440   1.713
73676W        W37884  28.495  26.971  12.007
73677W        W37885  13.257  22.996  13.011
73678W        W37886  18.106   7.906  10.443
73679W        W37887  40.893  19.780   3.644
73680W        W37888  10.830  15.208  12.549
73681W        W37889  19.208  12.288   1.910
73682W        W37890  38.034  29.159   3.780
73683W        W37891  14.717  37.388   3.359
73684W        W37892  37.491   0.923   2.327
73685W        W37893  13.344   6.811   2.874
73686W        W37894  28.559  21.657   3.330
73687W        W37895  34.962  38.352  10.414
73688W        W37896  32.935  15.265  13.824
73689W        W37897  14.148  25.628  14.882
73690W        W37898   3.950   9.165   4.244
73691W        W37899  20.747  17.133   4.264
73692W        W37900  30.073  10.333   1.381
73693W        W37901  17.658  40.031  14.461
73694W        W37902   7.285  27.684  12.851
73695W        W37903   9.845   2.467  12.039
73696W        W37904   0.326   8.212   0.362
73697W        W37905  18.112   8.745  13.519
73698W        W37906  31.578  13.220   1.219
73699W        W37907  31.578  17.105  10.503
73700W        W37908  17.195  30.117  12.916
73701W        W37909  25.016   4.776   0.412
73702W        W37910  29.523   3.861   3.247
73703W        W37911   8.176  14.103  14.499
73704W        W37912  23.611  19.768   3.864
73705W        W37913   4.431  26.594   0.730
73706W        W37914  26.493  21.124  13.332
73707W        W37915  14.117  12.661   0.796
73708W        W37916   2.857   3.867   1.914
73709W        W37917  22.691  29.628  13.870
73710W        W37918   2.862   4.733  13.847
73711W        W37919  10.358  37.556  11.437
73712W        W37920  44.777  22.526  13.355
73713W        W37921  35.855  38.912  13.922
73714W        W37922  27.577  33.116   0.346
73715W        W37923  44.340  10.225  14.287
73716W        W37924  19.092  35.505   2.352
73717W        W37925   5.338  20.578   2.871
73718W        W37926  39.936  31.410   4.664
73719W        W37927   4.719   1.827  12.437
73720W        W37928  17.665  22.537  12.882
73721W        W37929  35.362  10.858   3.191
73722W        W37930   5.927  39.956  11.452
73723W        W37931   1.882   5.238  11.378
73724W        W37932  13.807  26.969  12.961
73725W        W37933  44.785  42.008  13.369
73726W        W37934  35.863  10.710   0.903
73727W        W37935  23.506  42.854   0.324
73728W        W37936  22.649  18.714  11.087
73729W        W37937  24.144  41.007   0.318
73730W        W37938  36.950  32.610   4.312
73731W        W37939  12.245  41.325   2.371
73732W        W37940  20.703  19.730   4.625
73733W        W37941  31.052   2.917  10.966
73734W        W37942  14.603  44.983  13.933
73735W        W37943  25.623  23.162   2.191
73736W        W37944  37.889  18.136   3.679
73737W        W37945  32.477  18.151   0.774
73738W        W37946  18.756  33.460  11.440
73739W        W37947   7.272  16.280  11.494
73740W        W37948  38.541  44.965   3.363
73741W        W37949  30.971  32.505   1.390
73742W        W37950   5.193   4.721  10.985
73743W        W37951   9.271  25.616  12.917
73744W        W37952  13.709  20.184   2.858
73745W        W37953  11.246  43.885   0.823
73746W        W37954  22.623  12.180   0.460
73747W        W37955  18.704  37.873   2.673
73748W        W37956  37.071  24.093  14.398
73749W        W37957  34.098   8.723   2.337
73750W        W37958   4.944  27.954   1.782
73751W        W37959  20.220   6.288   4.304
73752W        W37960  42.851  37.944  10.437
73753W        W37961  25.018  37.844   2.404
73754W        W37962   8.784  10.328  13.308
73755W        W37963  25.197  16.121   1.347
73756W        W37964  35.961   5.865   3.149
73757W        W37965  40.018  38.900   3.317
73758W        W37966   4.303  42.500   1.253
73759W        W37967   8.175  33.098   0.351
73760W        W37968  28.984  40.046   1.831
73761W        W37969  10.258   0.326  10.959
73762W        W37970  19.135  43.902  13.307
73763W        W37971  37.478  16.076  12.353
73764W        W37972  27.943  18.577  11.069
73765W        W37973  39.456  27.193  11.436
73766W        W37974  22.213  36.569  11.082
73767W        W37975   6.236  29.070   0.869
73768W        W37976  36.039  31.129  13.965
73769W        W37977   7.351   4.224   1.238
73770W        W37978  17.201  13.217  10.091
73771W        W37979  20.170  29.968   3.221
73772W        W37980  39.511  33.561   0.419
73773W        W37981   2.927  36.352   0.800
73774W        W37982  38.969  23.209   3.848
73775W        W37983   1.875  24.004   0.915
73776W        W37984  20.230   2.778   1.905
73777W        W37985  34.942  12.116   2.378
73778W        W37986  30.127  28.934   0.767
73779W        W37987  28.965  20.544  12.919
73780W        W37988   6.857  16.671  11.077
73781W        W37989  18.272  28.594   4.694
73782W        W37990   6.232  30.522   2.389
73783W        W37991  13.648  41.804  12.512
73784W        W37992  18.275  10.666  11.584
73785W        W37993  41.898  29.661   5.101
73786W        W37994  12.625  15.126  10.605
73787W        W37995  30.947   1.279   3.806
73788W        W37996   8.847  14.126  12.551
73789W        W37997  12.174   9.885  13.959
73790W        W37998  14.630   9.361  11.939
73791W        W37999  41.298   5.402  13.919
73792W        W38000  25.547  37.899  14.909
73793W        W38001  12.638  15.129   4.150
73794W        W38002  42.295  39.888  11.504
73795W        W38003   5.805   8.739   4.121
73796W        W38004  34.493   8.755   4.213
73797W        W38005  44.320   0.281  10.975
73798W        W38006  13.235  30.536   4.222
73799W        W38007  14.222  41.817  14.503
73800W        W38008  30.516  37.551   0.733
73801W        W38009  34.916  29.436  13.326
73802W        W38010  29.167  19.756  12.027
73803W        W38011  31.993   8.791  14.312
73804W        W38012   2.902  31.431   3.649
73805W        W38013   9.341  28.453   0.279
73806W        W38014  23.157  20.558  12.451
73807W        W38015   7.208  11.668  13.321
73808W        W38016  29.013   9.306  13.479
73809W        W38017  35.545  30.615  12.517
73810W        W38018  31.938  14.144   1.898
73811W        W38019  42.957  38.512  10.947
73812W        W38020  24.112  12.205  10.541
73813W        W38021  17.745  41.993  13.034
73814W        W38022  23.089  39.471  10.582
73815W        W38023  27.480  24.533   1.787
73816W        W38024   6.743   0.958  10.433
73817W        W38025  17.110  23.608  14.388
73818W        W38026  20.040   7.388   5.309
73819W        W38027   2.277  42.294  10.987
73820W        W38028  18.268  28.456   1.223
73821W        W38029  15.680  41.007  14.862
73822W        W38030  17.071  21.594  11.117
73823W        W38031  30.484  21.728   4.155
73824W        W38032  32.574  25.540   1.906
73825W        W38033   6.807  43.020   2.889
73826W        W38034   3.914   9.758  13.432
73827W        W38035   2.463   0.300   4.282
73828W        W38036  34.007  44.269  10.462
73829W        W38037   9.373  23.583   0.883
73830W        W38038  44.444  44.367  11.961
73831W        W38039   8.392  13.843   1.268
73832W        W38040  20.672  26.160  13.980
73833W        W38041  37.942  37.423  14.405
73834W        W38042  31.107  26.647  11.963
73835W        W38043  40.006  19.634  11.465
73836W        W38044  31.130  22.738   2.690
73837W        W38045  10.188  44.987   4.159
73838W        W38046  39.474   6.688   2.197
73839W        W38047   0.458  17.140   4.710
73840W        W38048  10.761  41.792  10.983
73841W        W38049  31.011  41.310  10.009
73842W        W38050   0.850   1.271  11.430
73843W        W38051  22.111  23.539   2.323
73844W        W38052  23.586   9.182   3.352
73845W        W38053  17.605  19.237  13.954
73846W        W38054  12.360   0.818   3.693
73847W        W38055  24.216   6.747   3.772
73848W        W38056  26.044  33.876   0.846
73849W        W38057   4.414  21.079   0.753
73850W        W38058   1.770  36.460   1.843
73851W        W38059   0.865   6.874   4.790
73852W        W38060   5.855  10.762  13.839
73853W        W38061  27.639  40.448   4.184
73854W        W38062  36.501  31.430  10.897
73855W        W38063  26.505  12.789   2.668
73856W        W38064  34.976  27.056   1.831
73857W        W38065   0.921  24.532   3.331
73858W        W38066  10.292  19.627  10.449
73859W        W38067  44.855  22.567  11.924
73860W        W38068  31.963  40.847  10.501
73861W        W38069  19.697  34.512  12.352
73862W        W38070  16.633  22.527   2.284
73863W        W38071   1.863  21.678   3.383
73864W        W38072  21.605  32.008  13.904
73865W        W38073   8.870  21.718  12.080
73866W        W38074  16.698  22.070   2.326
73867W        W38075   7.217  19.747   0.391
73868W        W38076  36.863  44.465  13.003
73869W        W38077  35.022   1.857   3.722
73870W        W38078  39.922  16.296  10.137
73871W        W38079  31.958  19.272   4.820
73872W        W38080  25.122  24.667   1.708
73873W        W38081  20.265   1.771   3.146
73874W        W38082  26.653  12.764   1.260
73875W        W38083   5.226  44.857   1.887
73876W        W38084   8.776  42.361  12.953
73877W        W38085   9.331   4.339  12.442
73878W        W38086  22.998   7.855   4.613
73879W        W38087  16.701   6.278  11.541
73880W        W38088  19.627  32.920   3.803
73881W        W38089  44.322  25.006   1.798
73882W        W38090  38.851   0.774  10.455
73883W        W38091  34.867  35.389  10.480
73884W        W38092  22.134   6.853   9.627
73885W        W38093  19.079  18.709   2.840
73886W        W38094  24.673   6.277   0.752
73887W        W38095  36.567  21.523  13.888
73888W        W38096   0.359  24.575  11.882
73889W        W38097   0.335  11.230   0.941
73890W        W38098  16.314   3.451   0.435
73891W        W38099   8.727  25.091  12.032
73892W        W38100   5.821  14.281  11.038
73893W        W38101   8.354  36.088   0.752
73894W        W38102  37.468  11.837   1.801
73895W        W38103  37.392  37.088  14.373
73896W        W38104  27.095   3.304   2.358
73897W        W38105  39.998  18.646   0.745
73898W        W38106  34.540  27.058   2.282
73899W        W38107  24.173   0.848   4.131
73900W        W38108   9.764  30.626   3.160
73901W        W38109  10.288  29.530   1.793
73902W        W38110  17.756  26.017  12.541
73903W        W38111   8.880  20.587   2.789
73904W        W38112   4.783   8.406   1.384
73905W        W38113  18.766  15.129  10.624
73906W        W38114  32.427  31.924  14.430
73907W        W38115  32.524   1.882  12.861
73908W        W38116  22.067  19.743  11.528
73909W        W38117  18.269  41.872   1.251
73910W        W38118  14.647  18.167  13.876
73911W        W38119   8.202  37.052   0.761
73912W        W38120  22.083  36.372  14.950
73913W        W38121  39.002  12.304   2.797
73914W        W38122  32.505   4.845   1.871
73915W        W38123   4.439  14.626   3.707
73916W        W38124  10.168  18.695  11.584
73917W        W38125  18.689  29.961  13.320
73918W        W38126   1.752   3.229  12.489
73919W        W38127  28.468   2.393   4.343
73920W        W38128   9.306  35.944  13.824
73921W        W38129  36.588  40.348  13.875
73922W        W38130  21.611  26.121   0.950
73923W        W38131   5.279  36.369   3.838
73924W        W38132  29.643  34.382  11.557
73925W        W38133  20.243  18.283  14.760
73926W        W38134   3.384  44.843  13.419
73927W        W38135  13.641  38.347   1.294
73928W        W38136   3.298  15.298   2.360
73929W        W38137  35.419  44.373   3.770
73930W        W38138  20.618  27.009   0.393
73931W        W38139  29.496  30.107   2.711
73932W        W38140  15.767   9.720  13.399
73933W        W38141  43.474  10.808  10.463
73934W        W38142  41.826  42.510   2.877
73935W        W38143  29.935  30.511  13.528
73936W        W38144  31.054  40.320   3.804
73937W        W38145  44.786   1.354   1.321
73938W        W38146   8.390  18.623   4.646
73939W        W38147  11.211  18.229   3.227
73940W        W38148   5.247  36.371  11.928
73941W        W38149  37.851  24.227  12.861
73942W        W38150  23.119  11.314   4.623
73943W        W38151   4.796  42.020  14.290
73944W        W38152  12.183   4.920  11.042
73945W        W38153   6.243  25.026   2.810
73946W        W38154  31.008  21.040  11.016
73947W        W38155  42.375   2.377   5.757
73948W        W38156   1.319  17.800   0.751
73949W        W38157  43.011  36.932   3.306
73950W        W38158  12.703  19.659  14.803
73951W        W38159  34.448  15.648  13.354
73952W        W38160  38.960  41.028   3.374
73953W        W38161   0.301   7.335   1.374
73954W        W38162  13.677  22.225  12.057
73955W        W38163  21.566  23.735  10.888
73956W        W38164  13.739  35.434   3.756
73957W        W38165  32.018  13.269  13.817
73958W        W38166  39.351  16.804   1.808
73959W        W38167  34.978  29.601  11.969
73960W        W38168  42.888  41.367   3.829
73961W        W38169  29.138  43.828  13.495
73962W        W38170  31.014  23.133  13.806
73963W        W38171  40.327  19.717  11.555
73964W        W38172   5.895   7.206  10.987
73965W        W38173  13.643  31.508  11.503
73966W        W38174  38.353  19.192   3.370
73967W        W38175  11.750   6.697   2.862
73968W        W38176  37.069   8.159  13.888
73969W        W38177  32.936  29.095   3.186
73970W        W38178  43.914  17.690  14.311
73971W        W38179  20.117   9.285   0.953
73972W        W38180   1.424  19.207  13.497
73973W        W38181  22.527  42.338  11.477
73974W        W38182  21.173   0.955  11.937
73975W        W38183  25.526  35.530   0.784
73976W        W38184  23.641  18.641   2.408
73977W        W38185  28.443  14.121  12.065
73978W        W38186  17.600   4.324   1.812
73979W        W38187  44.856  39.336   3.871
73980W        W38188  39.981  27.179   2.266
73981W        W38189  40.959  16.238   2.863
73982W        W38190  42.851   4.236   4.728
73983W        W38191  24.698   6.886  13.061
73984W        W38192  35.086  18.784   3.800
73985W        W38193  27.646  25.502   2.706
73986W        W38194  25.165  26.678  14.764
73987W        W38195  39.406  29.159   0.929
73988W        W38196  41.349  28.571  10.999
73989W        W38197  28.167  17.150   4.638
73990W        W38198  40.522  25.159   3.806
73991W        W38199  26.658  14.309   1.756
73992W        W38200  40.373  40.928   1.349
73993W        W38201   1.960  12.358   1.252
73994W        W38202  39.435  39.402   2.878
73995W        W38203   6.393  18.613  10.433
73996W        W38204  14.311   1.415  13.358
73997W        W38205  43.875  33.415  10.639
73998W        W38206  27.513  43.484   4.292
73999W        W38207  27.080  33.930  14.470
74000W        W38208  29.046  40.392  14.484
74001W        W38209   0.273  34.068  11.977
74002W        W38210   8.248   7.223   4.198
74003W        W38211  21.735   3.275  13.353
74004W        W38212  29.658  34.001  14.328
74005W        W38213   3.386   8.354  10.415
74006W        W38214  40.506  44.931  10.975
74007W        W38215   2.768  44.758   2.321
74008W        W38216   3.402  35.980  10.013
74009W        W38217  37.058   6.746   4.256
74010W        W38218  27.115  26.473  13.526
74011W        W38219  36.872  40.519   0.386
74012W        W38220  30.127  29.488  10.895
74013W        W38221  37.996  19.077   3.307
74014W        W38222  42.961  43.902   3.774
74015W        W38223   6.384  42.025   0.864
74016W        W38224  17.559  21.198   3.300
74017W        W38225  32.125  26.096  13.061
74018W        W38226  38.061  24.528  14.843
74019W        W38227  44.478  19.045  12.463
74020W        W38228  19.263  43.902  11.386
74021W        W38229  18.773   4.781   1.356
74022W        W38230  12.717  24.988  13.529
74023W        W38231  26.992  23.579  14.477
74024W        W38232  44.349  24.104   0.746
74025W        W38233   6.252  30.495  14.326
74026W        W38234   6.362  23.126  10.619
74027W        W38235  15.744  30.560   2.812
74028W        W38236  42.329  36.537  10.628
74029W        W38237  42.485   8.382  14.007
74030W        W38238  35.380   4.889   2.757
74031W        W38239   7.798  20.119   1.789
74032W        W38240  34.026  39.364   2.663
74033W        W38241  22.232   4.354   1.267
74034W        W38242   9.314  18.636   0.760
74035W        W38243  44.879   7.759  13.034
74036W        W38244   0.437  13.217   0.801
74037W        W38245   1.920  36.498  14.493
74038W        W38246  12.191  44.792   4.670
74039W        W38247   9.655  20.546   4.187
74040W        W38248  17.567   7.845  14.867
74041W        W38249  36.399   2.770  12.832
74042W        W38250  43.792  11.183  11.029
74043W        W38251  37.529  27.983   5.239
74044W        W38252  10.664   6.910   4.202
74045W        W38253  24.019  11.224   1.398
74046W        W38254  20.640   0.401   0.744
74047W        W38255   3.842  41.505   3.865
74048W        W38256  25.666   8.728   1.731
74049W        W38257   6.891  11.852  12.918
74050W        W38258  14.626  26.640  13.392
74051W        W38259  10.347   0.379   9.981
74052W        W38260  42.801  43.804  13.420
74053W        W38261   5.357  15.196  13.978
74054W        W38262   2.833  10.804   2.245
74055W        W38263  29.539  36.489  12.466
74056W        W38264  26.527  15.249  10.586
74057W        W38265   2.844  40.964  13.534
74058W        W38266  13.795  29.108  14.310
74059W        W38267  21.150  21.231   1.853
74060W        W38268  21.590  34.096   1.418
74061W        W38269   8.269  23.111   1.805
74062W        W38270  33.876  36.516   2.814
74063W        W38271  26.533  19.666   2.695
74064W        W38272  40.014  36.844   3.859
74065W        W38273   7.407  28.098   1.303
74066W        W38274  11.157  13.133  11.002
74067W        W38275  11.244  44.318  13.022
74068W        W38276   4.772  44.893  12.574
74069W        W38277   9.679  41.999   1.734
74070W        W38278   8.161  27.987   0.927
74071W        W38279  37.507  32.555  11.566
74072W        W38280  24.581  42.513  11.568
74073W        W38281  33.527  44.814   0.735
74074W        W38282  24.975  33.992  14.350
74075W        W38283  40.488   8.347   0.385
74076W        W38284  20.212  31.071   4.355
74077W        W38285   4.390   7.852  13.915
74078W        W38286  38.530   6.839  11.974
74079W        W38287  14.207  24.023   0.461
74080W        W38288  36.847  13.253  12.465
74081W        W38289  40.011   1.452  11.492
74082W        W38290  31.129  18.092   1.765
74083W        W38291  28.044   9.392  12.913
74084W        W38292  14.129  35.503  13.430
74085W        W38293  22.594  36.055   2.333
74086W        W38294  22.140   8.781  10.008
74087W        W38295  35.584  29.533   4.231
74088W        W38296   5.425  20.683  10.609
74089W        W38297  37.836  17.673   3.180
74090W        W38298   1.258  16.164   2.315
74091W        W38299  36.541  28.093   3.341
74092W        W38300  29.547  31.068   1.755
74093W        W38301  28.099  27.640   4.156
74094W        W38302  27.012   1.950   1.726
74095W        W38303  11.836  14.721   0.258
74096W        W38304  26.013  18.699   1.876
74097W        W38305  24.047   7.360   4.600
74098W        W38306   1.472  40.986  10.502
74099W        W38307   5.693  36.915   4.826
74100W        W38308   9.169  34.976   3.157
74101W        W38309  38.402  41.295  14.293
74102W        W38310  13.328  16.199  11.111
74103W        W38311   8.661   6.912   0.449
74104W        W38312  33.884  30.570   1.757
74105W        W38313  33.568  17.305  11.961
74106W        W38314  34.389  42.312  11.014
74107W        W38315  14.271  22.655  12.919
74108W        W38316  43.292  19.598   9.575
74109W        W38317   1.791  10.749  13.010
74110W        W38318  19.183   1.957   3.667
74111W        W38319  37.039  31.585  11.491
74112W        W38320  12.724  34.370   3.688
74113W        W38321  18.214  42.408   3.167
74114W        W38322  24.146  26.148  13.860
74115W        W38323  22.566  27.015   0.417
74116W        W38324  18.556  31.637   4.233
74117W        W38325  25.491   1.394  13.420
74118W        W38326  17.190  38.928  12.523
74119W        W38327  44.320  36.433  14.786
74120W        W38328   5.716  28.174   1.421
74121W        W38329  28.087  21.131  11.107
74122W        W38330   8.752  38.389  11.488
74123W        W38331   6.378   8.681  11.917
74124W        W38332  18.099  42.009  10.424
74125W        W38333  41.404   0.771   2.206
74126W        W38334  24.700   1.738  13.376
74127W        W38335  44.473  22.604  10.410
74128W        W38336   7.267  32.416   3.818
74129W        W38337  36.390  34.963   3.666
74130W        W38338  44.873  44.810   1.333
74131W        W38339  17.579  38.006  13.511
74132W        W38340  20.241  37.936   0.961
74133W        W38341  39.844  21.174  13.340
74134W        W38342  33.511  26.638  10.409
74135W        W38343  12.744  34.954   3.308
74136W        W38344  24.175  15.185   3.801
74137W        W38345   6.274  24.209   4.599
74138W        W38346   9.328  12.717   0.379
74139W        W38347  11.275   7.875   3.770
74140W        W38348  40.022   1.339   3.819
74141W        W38349  24.116  26.987  12.534
74142W        W38350  42.844  44.001  11.060
74143W        W38351   7.199  15.303  10.980
74144W        W38352  38.869  44.434  12.833
74145W        W38353  13.124  24.667  13.833
74146W        W38354  33.967   5.807   1.699
74147W        W38355  18.611  29.469  14.432
74148W        W38356  44.496  26.148   1.235
74149W        W38357  43.830   8.855   4.262
74150W        W38358  15.684  34.952   0.931
74151W        W38359  19.234  25.494   2.387
74152W        W38360  33.901  12.637   3.740
74153W        W38361  20.219   0.913  14.872
74154W        W38362  15.643  18.253  14.925
74155W        W38363  11.365   6.921  13.501
74156W        W38364  26.133  40.034  12.575
74157W        W38365  23.639  33.877   2.843
74158W        W38366  34.438  23.718   1.318
74159W        W38367   4.308   5.769   3.866
74160W        W38368  24.091   5.757   1.846
74161W        W38369  44.436   1.381  10.552
74162W        W38370   4.265  13.173   4.129
74163W        W38371  29.962  21.745  14.987
74164W        W38372  35.868  36.014  10.422
74165W        W38373  33.471  26.093  10.521
74166W        W38374  19.169  33.959   2.306
74167W        W38375  15.228  18.236   0.803
74168W        W38376   2.422  21.721  14.365
74169W        W38377   9.708  11.212   3.629
74170W        W38378  18.772  12.233   0.459
74171W        W38379  25.037  41.473   0.465
74172W        W38380  11.295  10.801  14.023
74173W        W38381  32.077   0.370  13.469
74174W        W38382  16.236  13.246  12.963
74175W        W38383  42.879   3.736   0.355
74176W        W38384   9.225   0.265   2.346
74177W        W38385  34.538   4.750   0.381
74178W        W38386   4.756   7.195  13.909
74179W        W38387   4.319  34.395  12.385
74180W        W38388  18.280  21.031  12.397
74181W        W38389  43.830  29.480   0.731
74182W        W38390   0.802  26.178   4.652
74183W        W38391  30.122  22.708  14.376
74184W        W38392  24.223  29.585   0.339
74185W        W38393  40.868  38.975   2.899
74186W        W38394  14.674   8.677  12.911
74187W        W38395  30.088  41.457  10.593
74188W        W38396  41.436  33.602  14.874
74189W        W38397  38.557  18.131   2.760
74190W        W38398  18.773  24.040  13.341
74191W        W38399  15.216   3.409   1.349
74192W        W38400  29.986   7.824   4.696
74193W        W38401  10.714   9.750  13.472
74194W        W38402  22.146  43.405  14.031
74195W        W38403  42.921  38.475  12.498
74196W        W38404  44.399   0.381  12.831
74197W        W38405  16.700  44.368  10.641
74198W        W38406  22.734  26.672   4.120
74199W        W38407  42.889  22.685   2.367
74200W        W38408  18.646  36.473   2.257
74201W        W38409  19.597   6.219   4.235
74202W        W38410  27.594  28.990   0.296
74203W        W38411   9.766   8.890  10.904
74204W        W38412   9.216  12.828   0.942
74205W        W38413  24.161  28.053  12.901
74206W        W38414  23.549  38.440  11.391
74207W        W38415  13.237   4.791  14.338
74208W        W38416   0.265  31.446   0.727
74209W        W38417   8.277  18.611  13.384
74210W        W38418   1.881  11.138   3.832
74211W        W38419  16.644  21.081  13.795
74212W        W38420  30.496  38.342   1.301
74213W        W38421  44.960  19.643  14.779
74214W        W38422  32.081  41.308   4.119
74215W        W38423  22.518  25.500   1.832
74216W        W38424  28.036  11.771   1.723
74217W        W38425  36.943  44.323  14.857
74218W        W38426  26.021  44.394   0.460
74219W        W38427  37.902   1.803   2.737
74220W        W38428  18.621  28.166  13.939
74221W        W38429   6.811  21.714   4.173
74222W        W38430  29.147   4.326   4.681
74223W        W38431  32.979   1.942  11.872
74224W        W38432  43.494  18.202   0.344
74225W        W38433  21.753   7.330   0.308
74226W        W38434  25.644  13.703  13.353
74227W        W38435  40.835  16.693   9.957
74228W        W38436  38.904  43.278   2.318
74229W        W38437   5.763  22.689   4.125
74230W        W38438   2.375  11.842  13.459
74231W        W38439  20.259  25.701  13.011
74232W        W38440   7.214  19.650   3.656
74233W        W38441   9.251  44.284   3.683
74234W        W38442  44.390   8.276   4.158
74235W        W38443  18.173   3.323   2.666
74236W        W38444  36.055  36.441   0.745
74237W        W38445  30.652  11.634   2.272
74238W        W38446  37.457  41.987  13.958
74239W        W38447  18.691  28.537  12.834
74240W        W38448  16.772   8.794  10.920
74241W        W38449  25.997  16.632  10.504
74242W        W38450  42.923  35.409   0.961
74243W        W38451  35.018  20.734   1.391
74244W        W38452  36.953  33.879   2.731
74245W        W38453  30.468  43.985  10.619
74246W        W38454  11.822  40.362  11.398
74247W        W38455  10.740   1.835  11.925
74248W        W38456  41.487  20.747   0.430
74249W        W38457  36.501  34.490   2.345
74250W        W38458  15.767  19.285  12.033
74251W        W38459  21.041  20.543   1.299
74252W        W38460  34.991  15.216   2.831
74253W        W38461  22.634  17.172  13.802
74254W        W38462  32.428  38.821  13.312
74255W        W38463  15.161  10.805   4.601
74256W        W38464   0.882  31.978   3.290
74257W        W38465  44.905  10.340   1.253
74258W        W38466  30.623  24.118  11.117
74259W        W38467  15.273   3.865  14.886
74260W        W38468  15.092  35.465   2.251
74261W        W38469  30.036  33.540  11.062
74262W        W38470  13.211  31.960   0.308
74263W        W38471  26.069  32.601  10.420
74264W        W38472  33.442  28.573   5.267
74265W        W38473  36.996  21.569   0.249
74266W        W38474  28.666   1.811   0.771
74267W        W38475  30.524  30.939  11.380
74268W        W38476   3.881   2.470  10.422
74269W        W38477  36.507  42.864   5.278
74270W        W38478  19.245  28.634  13.941
74271W        W38479  16.774  10.272   0.734
74272W        W38480  30.441  42.818  11.451
74273W        W38481  35.488   6.831   1.403
74274W        W38482  23.989  36.910   1.440
74275W        W38483  33.603  10.148  13.893
74276W        W38484  22.025  34.110  13.373
74277W        W38485  18.717  32.581  12.884
74278W        W38486  28.127  14.203   4.838
74279W        W38487  38.485  21.642  12.988
74280W        W38488  23.069   0.357   3.164
74281W        W38489  35.105  44.949   1.323
74282W        W38490  26.632  31.648   0.808
74283W        W38491  42.938  44.441  12.862
74284W        W38492   9.789  41.327  14.988
74285W        W38493   3.405  26.542  13.799
74286W        W38494   1.416  28.656   3.252
74287W        W38495  41.987  24.073   1.272
74288W        W38496  43.275  11.721  11.551
74289W        W38497  38.016  24.608   4.681
74290W        W38498  21.134  24.626   0.936
74291W        W38499  19.755  23.146   2.187
74292W        W38500  29.046   2.389   0.754
74293W        W38501  25.710   1.874   5.120
74294W        W38502  29.553  29.935  13.536
74295W        W38503   7.374   7.676  11.937
74296W        W38504  22.609  17.580   3.773
74297W        W38505   0.811  15.786   3.811
74298W        W38506  39.023  44.861  14.389
74299W        W38507  43.386  15.111  14.462
74300W        W38508   2.449  37.515   4.597
74301W        W38509   3.256   8.238   3.247
74302W        W38510  13.264  17.172  14.901
74303W        W38511  29.445  43.795  12.549
74304W        W38512  11.822  38.008  13.849
74305W        W38513  13.779  33.414   2.697
74306W        W38514  36.592  18.133   0.814
74307W        W38515  25.533  18.617  13.519
74308W        W38516  39.493  44.409   0.870
74309W        W38517   4.228  38.452  11.054
74310W        W38518  33.028   3.807   0.370
74311W        W38519  41.955  39.934   2.899
74312W        W38520  33.906  29.110   2.842
74313W        W38521  11.656   9.773   0.339
74314W        W38522  10.650   3.842  14.362
74315W        W38523  26.510  36.049  10.140
74316W        W38524   4.264  31.043  12.459
74317W        W38525  10.371  28.023   1.709
74318W        W38526  24.684  16.277  14.371
74319W        W38527  23.643  13.175  13.993
74320W        W38528  42.962  23.581   0.369
74321W        W38529   5.742  21.685   4.668
74322W        W38530   5.433  18.753  12.951
74323W        W38531  20.098  18.551   1.738
74324W        W38532  43.483   3.287   4.835
74325W        W38533  40.953   6.788  12.922
74326W        W38534  29.602  37.999  11.536
74327W        W38535  26.974   5.859   4.217
74328W        W38536  40.879  21.063  14.994
74329W        W38537  32.114  25.091  12.433
74330W        W38538   2.347   9.340   1.307
74331W        W38539  32.027  39.062   4.294
74332W        W38540  26.192  11.707   0.819
74333W        W38541  11.314  14.200   4.328
74334W        W38542  19.078  14.820   4.719
74335W        W38543   2.947   8.390  11.098
74336W        W38544  18.549  42.781  12.496
74337W        W38545  41.393  38.969  14.764
74338W        W38546  35.378  10.287   4.324
74339W        W38547  20.223  42.411   2.318
74340W        W38548  20.762   4.442   3.190
74341W        W38549  19.540  13.216  10.963
74342W        W38550  31.585  13.645  13.331
74343W        W38551  11.253   4.404   2.738
74344W        W38552  27.992  30.970  12.401
74345W        W38553  24.178  25.610   4.647
74346W        W38554   5.202  25.964   2.758
74347W        W38555  35.492  34.995   0.279
74348W        W38556  20.622  30.063   2.377
74349W        W38557   9.821  37.563   3.648
74350W        W38558  25.086   6.849   2.201
74351W        W38559  30.591  26.638   3.764
74352W        W38560  18.134  23.096   1.826
74353W        W38561  13.318  10.282  14.773
74354W        W38562   9.283  29.964  11.557
74355W        W38563  24.114   6.704  14.775
74356W        W38564  34.609  40.055  12.422
74357W        W38565  40.436  40.856   4.647
74358W        W38566  29.581  38.526  14.293
74359W        W38567  37.887  11.738   1.836
74360W        W38568  27.951  35.872   5.209
74361W        W38569  34.069   6.317   0.410
74362W        W38570  16.582  20.067   3.772
74363W        W38571   3.424   5.697   2.680
74364W        W38572  26.986  31.540   0.274
74365W        W38573  11.849   3.299  10.975
74366W        W38574  13.218  24.616  13.440
74367W        W38575  35.855   9.310   0.420
74368W        W38576  25.704  36.505   1.825
74369W        W38577  13.644  28.498   1.403
74370W        W38578  22.655  36.384  11.894
74371W        W38579  24.574  41.463  14.295
74372W        W38580  12.750  18.202  14.342
74373W        W38581  32.939  18.739  12.511
74374W        W38582  26.476  39.000   4.247
74375W        W38583  16.231  39.018   3.850
74376W        W38584  21.051   9.715  10.112
74377W        W38585   4.934  33.119  14.478
74378W        W38586  35.480  19.634   3.283
74379W        W38587   8.365   2.235  11.496
74380W        W38588  14.098  20.532  14.964
74381W        W38589   4.248  32.897   4.609
74382W        W38590  10.634  14.270   3.847
74383W        W38591  29.639   6.798  12.401
74384W        W38592  32.504  13.834   4.618
74385W        W38593  29.664  39.377  14.340
74386W        W38594  14.097   9.653  12.895
74387W        W38595   2.888  43.943   1.840
74388W        W38596  22.186  21.123   2.828
74389W        W38597  28.673  39.891   0.821
74390W        W38598  24.174   3.857  12.999
74391W        W38599   7.829  40.362  14.945
74392W        W38600  26.181  12.189   3.306
74393W        W38601   8.169  27.104  10.417
74394W        W38602  16.214  30.104  14.819
74395W        W38603  14.180  23.061   4.221
74396W        W38604  17.114  15.677   1.338
74397W        W38605   6.892  31.927  11.924
74398W        W38606  13.190  14.256   2.208
74399W        W38607  33.025  37.941   3.705
74400W        W38608  43.388  17.257  10.058
74401W        W38609  22.573  37.341  12.877
74402W        W38610   7.828  41.295  14.356
74403W        W38611  35.398  10.247   3.676
74404W        W38612  43.288  13.728   0.371
74405W        W38613  19.204   2.798   3.181
74406W        W38614  33.081  14.297   2.742
74407W        W38615  43.837  40.987   2.729
74408W        W38616  43.298  24.653   0.314
74409W        W38617   9.246  30.950   1.351
74410W        W38618  43.899  35.931  14.421
74411W        W38619  17.716  42.921   1.403
74412W        W38620  37.000  40.968  13.420
74413W        W38621   7.706  35.065   0.773
74414W        W38622  44.423  32.936   2.249
74415W        W38623  26.656  14.638   3.277
74416W        W38624  44.296  38.883   0.430
74417W        W38625  29.987   7.679  11.055
74418W        W38626  12.191  27.606   4.679
74419W        W38627  15.582  38.360  10.047
74420W        W38628  23.601  27.522  12.575
74421W        W38629   0.834   0.406  12.550
74422W        W38630  11.629  29.050  13.522
74423W        W38631  19.240  29.961   1.848
74424W        W38632  38.001  19.710  10.943
74425W        W38633  30.038  31.106   4.788
74426W        W38634  37.409  42.821  12.541
74427W        W38635  41.927  28.143   2.799
74428W        W38636  29.058  43.378  14.830
74429W        W38637  34.045  20.660   0.443
74430W        W38638  20.549  31.116  12.844
74431W        W38639  26.085  34.075  12.016
74432W        W38640  26.082  31.608   3.155
74433W        W38641  30.067  11.305   2.713
74434W        W38642  23.103  18.592   2.717
74435W        W38643  28.039  14.685  10.010
74436W        W38644  18.565   2.462  10.562
74437W        W38645  44.994  22.619   3.701
74438W        W38646  24.154  19.146   0.340
74439W        W38647   6.397  34.969   3.195
74440W        W38648  35.409  23.729   2.377
74441W        W38649  19.618  38.334  11.909
74442W        W38650  31.981  39.970  11.984
74443W        W38651  20.759   3.344   0.798
74444W        W38652  32.007  23.019  11.592
74445W        W38653  38.830  31.042  10.562
74446W        W38654  29.504  25.141   4.737
74447W        W38655  26.134  29.633  13.003
74448W        W38656  18.278  20.728  10.406
74449W        W38657  37.551  43.810  14.846
74450W        W38658  21.687  27.944  11.859
74451W        W38659  35.581   2.299  11.463
74452W        W38660   5.198  17.119   0.838
74453W        W38661  26.098  16.591  13.476
74454W        W38662  15.809  44.460   2.256
74455W        W38663  41.815  44.837   4.296
74456W        W38664  17.153   1.456  14.988
74457W        W38665  27.511  22.245  11.007
74458W        W38666  25.590  44.458  10.463
74459W        W38667  23.673  33.573   0.922
74460W        W38668   5.416  42.438   0.462
74461W        W38669  38.954  18.285   1.437
74462W        W38670  24.675  32.500  14.830
74463W        W38671  31.129   0.763   4.777
74464W        W38672   4.720  36.887   0.326
74465W        W38673  34.543  11.307   1.695
74466W        W38674  43.299   8.330  11.424
74467W        W38675  35.363  23.229  14.820
74468W        W38676   1.825  24.137  14.291
74469W        W38677  15.593  11.703   1.278
74470W        W38678  43.340  36.077  14.346
74471W        W38679  16.272  30.494   5.190
74472W        W38680   7.398  36.584   4.627
74473W        W38681   6.766  33.625   0.279
74474W        W38682  27.076  26.987  10.978
74475W        W38683  22.592   9.160  14.310
74476W        W38684  21.084  27.080   3.268
74477W        W38685  39.381  20.527   2.315
74478W        W38686  10.312  27.194  11.891
74479W        W38687  40.461  11.775   3.828
74480W        W38688  21.065  35.939   5.317
74481W        W38689  33.538  42.499  12.910
74482W        W38690  10.349  26.068   0.409
74483W        W38691  26.191  29.502  13.411
74484W        W38692  26.554  16.590   4.688
74485W        W38693  15.820  22.043  12.958
74486W        W38694  20.653  36.045  11.077
74487W        W38695  40.343   4.731  12.412
74488W        W38696  41.831  33.064   2.873
74489W        W38697  30.517   4.841  12.377
74490W        W38698  28.998   2.940  13.451
74491W        W38699  17.660  21.613   2.771
74492W        W38700  27.504   6.813  11.555
74493W        W38701  26.466   0.905  10.529
74494W        W38702  44.855  23.188  12.525
74495W        W38703  33.006   2.914   2.322
74496W        W38704  37.540  43.393  13.325
74497W        W38705  10.651   9.738  12.078
74498W        W38706  43.410  41.307  14.870
74499W        W38707  11.142  41.452   4.140
74500W        W38708  34.113  12.699  12.974
74501W        W38709  43.348  44.933   3.203
74502W        W38710  21.573  25.153   0.883
74503W        W38711  27.479   9.777   4.144
74504W        W38712   6.272  17.169  10.968
74505W        W38713  16.647  13.663  12.981
74506W        W38714   7.834  12.625  11.502
74507W        W38715  42.837  15.107   0.950
74508W        W38716   0.775  29.925   3.148
74509W        W38717  19.719   4.304   2.374
74510W        W38718  26.207   0.468  13.916
74511W        W38719  15.769  23.717   3.862
74512W        W38720  13.176  39.875  10.895
74513W        W38721  12.612  20.708   1.800
74514W        W38722  35.979   1.939   2.195
74515W        W38723  36.467  21.054  11.541
74516W        W38724   0.817  35.499   2.848
74517W        W38725  16.735   5.403   0.891
74518W        W38726   1.922  30.477   4.605
74519W        W38727  21.572  20.602  13.474
74520W        W38728   2.727  20.043   2.900
74521W        W38729  13.270  32.557  14.480
74522W        W38730   6.680  19.642   0.750
74523W        W38731  15.628   6.282  10.615
74524W        W38732  25.167  22.154  11.888
74525W        W38733  31.476  33.411   4.332
74526W        W38734  22.151   7.847  14.339
74527W        W38735  23.562   5.207   4.808
74528W        W38736  24.102  30.936  12.034
74529W        W38737  18.723  33.024   3.228
74530W        W38738  10.340  20.761   3.256
74531W        W38739  44.976  30.947  13.954
74532W        W38740  41.463  29.088   0.917
74533W        W38741   2.293  42.799   0.288
74534W        W38742  22.604   0.845   1.877
74535W        W38743   6.873  28.644  11.543
74536W        W38744  41.020  44.470  12.919
74537W        W38745  26.144  15.240  11.928
74538W        W38746  11.159  11.154  13.871
74539W        W38747  26.977  29.557   4.708
74540W        W38748  15.268   3.372  13.327
74541W        W38749   3.805  14.247   4.216
74542W        W38750  33.075  13.118  14.929
74543W        W38751  43.835  22.109  10.619
74544W        W38752  24.720   4.215   4.657
74545W        W38753  17.064   1.389  10.412
74546W        W38754  35.025  37.949  12.934
74547W        W38755  42.420  32.135   3.868
74548W        W38756  20.071  23.159   3.269
74549W        W38757  16.715  33.411   4.796
74550W        W38758  14.735  37.381   1.785
74551W        W38759  42.452   4.436   3.717
74552W        W38760   1.480   2.721   2.216
74553W        W38761  39.945  23.228   4.204
74554W        W38762   6.362   5.431  12.576
74555W        W38763   7.334  19.220  10.520
74556W        W38764   8.323   7.331   0.733
74557W        W38765  38.529  30.086  13.007
74558W        W38766  33.508  23.581   0.377
74559W        W38767  37.561  10.867   4.752
74560W        W38768  14.749   9.867   2.681
74561W        W38769  34.108  36.842   3.647
74562W        W38770  15.149  22.596  11.005
74563W        W38771  18.272   9.674  13.356
74564W        W38772  21.261  29.128   1.394
74565W        W38773  17.606   7.669   1.934
74566W        W38774   6.834   9.809  12.371
74567W        W38775  43.934  24.146   4.204
74568W        W38776   9.194   8.164   4.287
74569W        W38777  13.829  32.907  10.908
74570W        W38778   7.222   3.405  13.433
74571W        W38779  26.630  27.182  12.014
74572W        W38780  15.125  43.319  13.392
74573W        W38781  38.365  41.941  14.942
74574W        W38782   7.216  29.008  14.835
74575W        W38783  20.088  33.503   1.256
74576W        W38784  14.794  28.106   1.786
74577W        W38785  32.546  31.005  14.760
74578W        W38786   4.303   3.860  13.954
74579W        W38787  39.907  35.046  11.444
74580W        W38788   0.899  38.474  13.406
74581W        W38789   1.943  25.473   2.847
74582W        W38790  24.996  26.011   4.149
74583W        W38791  13.670  44.889   2.383
74584W        W38792   6.402  24.046   0.926
74585W        W38793  29.111  14.816  14.986
74586W        W38794  20.057   8.757   2.361
74587W        W38795   0.372   6.251   3.290
74588W        W38796   5.342  23.214   0.968
74589W        W38797  29.544   3.451  13.415
74590W        W38798  14.108   5.843   1.252
74591W        W38799  14.605  15.190   0.331
74592W        W38800  35.529  35.880  10.584
74593W        W38801  34.896  19.767   4.618
74594W        W38802   6.354  19.245  11.449
74595W        W38803  12.777   1.810  14.336
74596W        W38804  15.611  16.314  10.623
74597W        W38805  39.408  15.190   0.475
74598W        W38806   2.262  37.063  13.045
74599W        W38807  41.812  18.598   2.802
74600W        W38808  36.435  44.995  10.611
74601W        W38809  39.449  44.950   3.288
74602W        W38810  19.780  29.983  12.579
74603W        W38811  27.548  44.845  10.538
74604W        W38812   6.881  41.843  10.459
74605W        W38813  15.624  24.146   0.814
74606W        W38814  39.956  41.940  14.297
74607W        W38815  13.350   0.302   0.966
74608W        W38816   9.743  32.096  12.086
74609W        W38817  32.977   4.413  14.321
74610W        W38818   6.682  43.297  11.904
74611W        W38819   1.744  18.088   2.810
74612W        W38820  43.989   7.264  11.388
74613W        W38821  15.753  23.689   1.360
74614W        W38822  29.042  23.142   3.665
74615W        W38823  32.974  39.034   0.448
74616W        W38824  18.552   9.201  10.956
74617W        W38825  34.475  15.759  12.922
74618W        W38826  10.155   4.280   4.653
74619W        W38827  41.017  18.751  11.876
74620W        W38828  35.082  27.968   3.334
74621W        W38829  26.990  27.537  11.531
74622W        W38830   4.384   1.409   1.411
74623W        W38831   2.959  28.604  11.406
74624W        W38832  43.275  22.241   4.679
74625W        W38833  41.987  24.564  14.343
74626W        W38834   5.320  29.008  12.074
74627W        W38835  38.469  13.617   0.381
74628W        W38836   1.343  30.442   2.369
74629W        W38837  22.011  14.110   3.641
74630W        W38838  43.418   8.168   1.933
74631W        W38839  13.723   1.441  10.644
74632W        W38840  38.328  37.880  12.841
74633W        W38841  16.615  38.013  13.377
74634W        W38842  18.293  10.683  12.554
74635W        W38843  16.157   8.186  12.384
74636W        W38844   0.470  12.332   1.857
74637W        W38845  19.053  31.509   1.778
74638W        W38846  10.675   9.788   1.236
74639W        W38847  20.537  13.225  13.906
74640W        W38848  31.986  21.073   4.211
74641W        W38849  39.014  44.007   2.686
74642W        W38850  18.733  32.396  13.320
74643W        W38851  34.986   7.801  10.414
74644W        W38852  14.170  44.367   4.781
74645W        W38853  12.153  29.059  12.570
74646W        W38854  41.373  32.407   0.828
74647W        W38855  29.627  16.743  14.288
74648W        W38856  29.644  11.790   2.213
74649W        W38857  24.617  38.429   0.921
74650W        W38858   8.200  24.634  12.528
74651W        W38859   1.409  23.498   0.867
74652W        W38860   0.829  14.161  13.015
74653W        W38861  14.779  38.045  11.415
74654W        W38862   9.217  43.393   1.901
74655W        W38863   9.694   1.249   0.439
74656W        W38864  16.141  17.153   1.921
74657W        W38865  25.203  25.507  14.317
74658W        W38866   7.304  22.655  13.487
74659W        W38867   8.404  24.654   1.919
74660W        W38868  23.190  40.939  13.866
74661W        W38869  38.374  11.733  10.945
74662W        W38870  19.189  35.897   4.189
74663W        W38871  27.456  18.589   2.408
74664W        W38872  18.088  32.489  14.367
74665W        W38873  40.349  39.952   0.476
74666W        W38874  14.623   5.397   1.446
74667W        W38875   4.763  26.006  12.487
74668W        W38876  34.506  18.132  14.988
74669W        W38877  23.183   9.213   4.137
74670W        W38878  38.411   2.955   2.681
74671W        W38879  19.612  23.509  14.443
74672W        W38880  18.248   8.367  11.042
74673W        W38881  42.407   8.286   1.707
74674W        W38882  35.077  13.161  14.836
74675W        W38883   8.381  43.924  14.429
74676W        W38884  39.978   2.264  12.854
74677W        W38885   1.450  15.820   1.816
74678W        W38886  26.551  27.176  13.027
74679W        W38887   0.405   5.764  11.492
74680W        W38888  42.372  19.120  11.036
74681W        W38889  29.066  31.617  11.509
74682W        W38890   2.267  14.200  12.459
74683W        W38891  10.764   7.398   0.781
74684W        W38892  34.058   0.424   0.869
74685W        W38893   6.882  12.342   0.366
74686W        W38894  44.006  25.661  12.008
74687W        W38895   1.751  39.487   1.890
74688W        W38896  29.926  29.465   0.860
74689W        W38897  13.608  22.554   3.837
74690W        W38898  23.131  28.012  14.393
74691W        W38899  42.869  34.512  13.982
74692W        W38900  15.283  27.080  14.918
74693W        W38901  40.824  37.406   3.275
74694W        W38902  43.379  19.071   9.976
74695W        W38903  20.543   6.215  13.882
74696W        W38904   7.353  35.938  12.871
74697W        W38905  11.686  17.214  14.446
74698W        W38906   8.383   9.833  14.420
74699W        W38907  23.542  11.799  13.322
74700W        W38908  30.470  44.280   3.178
74701W        W38909  16.792  36.059  11.955
74702W        W38910  27.464   6.297  13.415
74703W        W38911  43.359  13.696   4.808
74704W        W38912  20.199  22.716   2.872
74705W        W38913  29.945  33.996   3.710
74706W        W38914   8.682   1.266  11.448
74707W        W38915  34.102  25.563   4.673
74708W        W38916  12.615   3.439   1.815
74709W        W38917  16.724  32.094   4.322
74710W        W38918  10.262  10.201   0.736
74711W        W38919   9.333  26.082  12.085
74712W        W38920  17.246  21.243   4.329
74713W        W38921  13.778  20.526   1.278
74714W        W38922  39.440  40.356   1.271
74715W        W38923   4.215   5.430   0.726
74716W        W38924  27.620  16.718   5.569
74717W        W38925   1.862   0.452  10.571
74718W        W38926  35.601  36.476   1.365
74719W        W38927  43.515  41.436  11.438
74720W        W38928  27.989  39.877   4.616
74721W        W38929  42.854   8.220   2.222
74722W        W38930  28.059  19.655   2.193
74723W        W38931  27.002  23.646  13.009
74724W        W38932  27.166  16.213  12.411
74725W        W38933  29.057  17.778   2.337
74726W        W38934   2.886  21.043   1.397
74727W        W38935   1.266  43.818  12.564
74728W        W38936  29.165  29.066   3.152
74729W        W38937   8.760  41.445   2.710
74730W        W38938  18.764  29.057  14.793
74731W        W38939  43.943  36.004  11.054
74732W        W38940  28.639  37.464   3.673
74733W        W38941  43.316  37.580   4.183
74734W        W38942  33.444  25.071   3.301
74735W        W38943   3.940  31.900  14.938
74736W        W38944  15.135  13.227  13.374
74737W        W38945  14.130   4.780  11.893
74738W        W38946  11.160  17.596  12.909
74739W        W38947  30.639  28.008   3.148
74740W        W38948  32.461  30.912   2.202
74741W        W38949   6.219  43.292   0.746
74742W        W38950   5.913   3.266   4.611
74743W        W38951  25.476  19.614  12.074
74744W        W38952  21.055   2.860  13.046
74745W        W38953  17.279  39.395   4.762
74746W        W38954  18.718  23.613   1.838
74747W        W38955  36.082   4.314   4.221
74748W        W38956   9.696  40.507  12.876
74749W        W38957  13.627  43.929  13.379
74750W        W38958  23.220  30.611   1.805
74751W        W38959   9.257  31.961   4.659
74752W        W38960  26.570  40.390   1.378
74753W        W38961   8.715   5.778  13.431
74754W        W38962  43.856  34.106   0.406
74755W        W38963  38.885  36.492  12.825
74756W        W38964  35.519  28.165  11.869
74757W        W38965   0.403  44.364  14.902
74758W        W38966  38.344  15.676   4.749
74759W        W38967  44.824  36.000  13.820
74760W        W38968   9.876  24.690  11.588
74761W        W38969  34.535  14.721   4.165
74762W        W38970  15.266  35.860  14.493
74763W        W38971   3.355  16.288  10.590
74764W        W38972   4.714  24.997  14.885
74765W        W38973  14.714  31.019   2.295
74766W        W38974  43.806  16.782   0.281
74767W        W38975  42.031  36.491  12.031
74768W        W38976  21.600  26.104   3.264
74769W        W38977  37.868  41.808   1.265
74770W        W38978  40.532  41.500  10.510
74771W        W38979  16.584  41.417   2.389
74772W        W38980  18.566  11.703  14.346
74773W        W38981  27.659  19.194   0.441
74774W        W38982  40.447  29.062   2.817
74775W        W38983  13.286  32.069   3.731
74776W        W38984  40.430  24.575   4.742
74777W        W38985  14.683  24.635   2.886
74778W        W38986   0.256  39.963  11.963
74779W        W38987  19.766   0.460   0.473
74780W        W38988  30.924   3.438   3.332
74781W        W38989  16.171   9.316  14.970
74782W        W38990  11.786  22.718  11.971
74783W        W38991  40.331   1.420   5.582
74784W        W38992  36.907  25.670  11.859
74785W        W38993  39.928  29.049  12.912
74786W        W38994  36.493  21.250  13.933
74787W        W38995  10.263  44.890   0.260
74788W        W38996  24.683  22.997  13.930
74789W        W38997  19.182  42.514   4.837
74790W        W38998  40.456  34.975   2.761
74791W        W38999  30.493  36.942   0.357
74792W        W39000   7.317   4.293  11.862
74793W        W39001   4.294  28.077   1.759
74794W        W39002  38.346  12.338  13.912
74795W        W39003  15.130  36.932   3.301
74796W        W39004  40.376  41.470  10.048
74797W        W39005   3.938  20.703   2.687
74798W        W39006  38.471  24.041   0.266
74799W        W39007  31.551   2.903  12.865
74800W        W39008   2.327  27.984   4.222
74801W        W39009  10.808  24.156   2.890
74802W        W39010   7.223   5.700  11.443
74803W        W39011  15.158  16.802  13.994
74804W        W39012  34.392  41.970   0.372
74805W        W39013  43.940  39.050   2.686
74806W        W39014  16.158  26.699  13.503
74807W        W39015  25.208  31.572  13.397
74808W        W39016  39.325  32.566   0.817
74809W        W39017  42.981  20.172  13.522
74810W        W39018  15.602   1.238   0.444
74811W        W39019  35.459  26.069  12.467
74812W        W39020  19.085   1.380  13.444
74813W        W39021  13.350  30.114   2.711
74814W        W39022  26.168   8.713  12.549
74815W        W39023  39.967  13.670   4.259
74816W        W39024   7.674  23.496   4.613
74817W        W39025  26.039   9.167  12.554
74818W        W39026  41.892  11.157  11.858
74819W        W39027  28.029  15.146  13.998
74820W        W39028  27.509  30.523  10.421
74821W        W39029  14.718  21.120  11.377
74822W        W39030   1.334  24.109   2.824
74823W        W39031   1.315   5.255  13.916
74824W        W39032  14.783  32.888   2.694
74825W        W39033  13.177  28.107   0.320
74826W        W39034  38.831  33.940   3.714
74827W        W39035  26.639  16.769   3.672
74828W        W39036  27.602  34.870   2.670
74829W        W39037  17.194  11.371  10.534
74830W        W39038   1.972  44.777   1.347
74831W        W39039  34.096   7.897   0.302
74832W        W39040  41.387  12.319   1.881
74833W        W39041  26.039  30.632   2.290
74834W        W39042   9.181   3.447   1.787
74835W        W39043   2.409  19.140   4.169
74836W        W39044  43.407  40.340   1.318
74837W        W39045  18.685  16.810  10.096
74838W        W39046  21.530  26.493   3.365
74839W        W39047  41.370   3.228   3.298
74840W        W39048   5.796  36.075   0.746
74841W        W39049   7.751  18.256  14.777
74842W        W39050  20.719   4.291  13.063
74843W        W39051  30.600  41.298  13.911
74844W        W39052  38.333   8.268  11.042
74845W        W39053  13.842   9.343  10.589
74846W        W39054  36.927  42.804   0.418
74847W        W39055   3.829   2.756   4.714
74848W        W39056  31.941  23.642  14.998
74849W        W39057  18.129  13.647  10.581
74850W        W39058   4.749  14.147   0.387
74851W        W39059  26.625  14.595  11.086
74852W        W39060  41.994  16.655   1.364
74853W        W39061  37.546  33.451  10.947
74854W        W39062  11.262  22.560   1.734
74855W        W39063   3.896  35.966  12.544
74856W        W39064  17.596   8.162  10.615
74857W        W39065  39.545  29.556  11.886
74858W        W39066   2.771  43.337   2.887
74859W        W39067  34.073   5.387  14.911
74860W        W39068  32.529  26.671   0.953
74861W        W39069  42.298  14.130  10.426
74862W        W39070  42.923  23.720  11.594
74863W        W39071  29.468  21.020   2.681
74864W        W39072  37.411  25.534   2.708
74865W        W39073  18.630  13.699  13.309
74866W        W39074  22.736   0.291   4.271
74867W        W39075   7.228  42.903   3.348
74868W        W39076  42.816  31.583   4.808
74869W        W39077  22.143  40.009  12.433
74870W        W39078  26.148  33.058  12.539
74871W        W39079  25.988  38.475   0.408
74872W        W39080  19.745  34.601  13.309
74873W        W39081   7.844  31.120  12.526
74874W        W39082  20.753  35.055   0.780
74875W        W39083  12.813  22.146   4.635
74876W        W39084  41.441  34.967   0.439
74877W        W39085  16.264  13.643   0.344
74878W        W39086  24.537  23.991   2.875
74879W        W39087   1.301   7.682   0.960
74880W        W39088  40.397  18.157  12.410
74881W        W39089  19.253  44.490   4.794
74882W        W39090  34.935  26.617   3.631
74883W        W39091  34.591  31.977  14.950
74884W        W39092   5.347  39.523  14.484
74885W        W39093   6.365  25.993  12.399
74886W        W39094   0.787  14.770  11.611
74887W        W39095  39.961  12.180  13.850
74888W        W39096  41.787  42.839   5.113
74889W        W39097   4.272  15.731   2.717
74890W        W39098  28.499  16.690   0.315
74891W        W39099  32.980  38.365   2.875
74892W        W39100   0.780  37.488   3.841
74893W        W39101  14.824  41.356  12.450
74894W        W39102  42.949  14.731   2.260
74895W        W39103  10.348  12.162  12.911
74896W        W39104   5.865  21.539  13.351
74897W        W39105  10.660   2.779   3.263
74898W        W39106  20.081  33.954   3.271
74899W        W39107  11.332   6.857  13.921
74900W        W39108  32.072   9.824   2.818
74901W        W39109  17.237   7.321  14.030
74902W        W39110  40.535  13.154   4.606
74903W        W39111  18.232  32.566   4.660
74904W        W39112  26.029  10.747  12.468
74905W        W39113  34.421  42.292  13.424
74906W        W39114  27.649  16.618  12.545
74907W        W39115  20.036  29.437   4.646
74908W        W39116  20.650  10.846   4.228
74909W        W39117  44.880  42.840  12.926
74910W        W39118  13.245  34.908  13.339
74911W        W39119   6.912  11.742   4.343
74912W        W39120   2.780  37.966   2.386
74913W        W39121  17.716  30.615  12.546
74914W        W39122  39.022  11.829   0.947
74915W        W39123  25.182   2.820  13.398
74916W        W39124  44.938  12.727   1.260
74917W        W39125  14.650   8.303  13.005
74918W        W39126  26.021  44.923   4.191
74919W        W39127   2.362  38.863  14.929
74920W        W39128   4.764  38.011  11.032
74921W        W39129   9.154  10.310   1.368
74922W        W39130  16.801   4.273  13.398
74923W        W39131  20.115  44.996   0.827
74924W        W39132  23.655  26.634   2.232
74925W        W39133   0.779  19.630  12.522
74926W        W39134  25.472  20.270  11.055
74927W        W39135  23.147  19.611  10.606
74928W        W39136  43.947  40.822   3.841
74929W        W39137   5.730  27.114  11.569
74930W        W39138  18.080  30.544  10.592
74931W        W39139  32.629  13.221  12.347
74932W        W39140  41.475  40.350  11.928
74933W        W39141  14.157  34.001   2.702
74934W        W39142   0.482  29.581  11.492
74935W        W39143  30.081  25.136  10.910
74936W        W39144  41.457   7.313   0.352
74937W        W39145  19.599  12.190   1.435
74938W        W39146  10.296  32.441  10.445
74939W        W39147  27.555  42.399  14.433
74940W        W39148  44.000  35.921  13.863
74941W        W39149  29.468  31.495  10.515
74942W        W39150  35.596  18.720  11.531
74943W        W39151   6.808   7.830  10.598
74944W        W39152   2.329  13.656  14.464
74945W        W39153  14.795  13.646  10.995
74946W        W39154  25.971  19.565  12.939
74947W        W39155  21.602  16.127   0.942
74948W        W39156   0.904  13.141  12.846
74949W        W39157  32.924   9.845   1.334
74950W        W39158  11.281  22.712   0.427
74951W        W39159  40.430  42.958   0.395
74952W        W39160  18.181   4.811  12.905
74953W        W39161  25.081  12.680   2.345
74954W        W39162  25.580   2.305   1.782
74955W        W39163  13.740  35.590   4.225
74956W        W39164  11.803  16.783   1.700
74957W        W39165  33.087  15.264   3.372
74958W        W39166  42.398   6.200   4.130
74959W        W39167  37.075  25.977   2.369
74960W        W39168  23.584  25.672  12.401
74961W        W39169  16.198  18.274  13.469
74962W        W39170   9.789  33.924   4.271
74963W        W39171  15.162  29.625  13.452
74964W        W39172  41.965   1.348   0.949
74965W        W39173  41.918  18.158  11.516
74966W        W39174  22.076   3.310  14.294
74967W        W39175  27.160  35.421  13.949
74968W        W39176  15.619  15.319  12.393
74969W        W39177   2.930  10.814  12.485
74970W        W39178  22.014  40.974   1.806
74971W        W39179  36.564  34.528   4.145
74972W        W39180  41.345   4.353   2.698
74973W        W39181  44.406  13.644   0.786
74974W        W39182   9.254   5.410   3.228
74975W        W39183   1.926  34.394  14.768
74976W        W39184  19.056  34.517   0.343
74977W        W39185  33.115  40.815   0.771
74978W        W39186  30.479  31.466  10.620
74979W        W39187  16.077  34.004   4.681
74980W        W39188  16.720   5.200   2.778
74981W        W39189   2.388  38.075  13.429
74982W        W39190   8.351  12.138   3.663
74983W        W39191  33.396  42.461   1.904
74984W        W39192  19.202   4.378  10.444
74985W        W39193   3.732   4.243  11.859
74986W        W39194  25.080   4.405   3.275
74987W        W39195  16.140  23.080   2.380
74988W        W39196  22.621  13.663   4.817
74989W        W39197   9.702  18.634   0.866
74990W        W39198  21.088  43.956  12.082
74991W        W39199  43.300  12.202  12.041
74992W        W39200  23.624  35.358   2.320
74993W        W39201  11.254  15.275   2.404
74994W        W39202   5.755  30.154  12.370
74995W        W39203  22.124  32.577  10.600
74996W        W39204  28.437  42.433   3.287
74997W        W39205  30.992   3.324   1.813
74998W        W39206  32.589  16.300   9.925
74999W        W39207  22.697   3.720  13.442
75000W        W39208  37.925  27.192   1.290
75001W        W39209  42.508  41.838   1.336
75002W        W39210  44.270  26.646  10.019
75003W        W39211  13.195  34.863  11.055
75004W        W39212  10.182   7.791   1.357
75005W        W39213   6.319   8.393   1.786
75006W        W39214  11.846  26.968   0.354
75007W        W39215  23.661  16.088   2.200
75008W        W39216   0.828  15.247   0.448
75009W        W39217  26.135  34.506   2.388
75010W        W39218  34.004  25.127  14.315
75011W        W39219   0.876   0.256   9.619
75012W        W39220  14.281  14.637  14.882
75013W        W39221  18.127  14.642   4.153
75014W        W39222  44.476  20.656  13.901
75015W        W39223  42.440  20.114  13.889
75016W        W39224  21.680   2.301   0.743
75017W        W39225  42.963  13.286  12.954
75018W        W39226   2.305   9.199   3.726
75019W        W39227  23.087  10.875   4.641
75020W        W39228  36.531  35.899   0.845
75021W        W39229  38.401  32.035  14.780
75022W        W39230  38.328  22.136   1.297
75023W        W39231  12.624  32.897   0.435
75024W        W39232  29.468  38.946  11.082
75025W        W39233  44.760  19.247   2.857
75026W        W39234  44.349  35.475  13.542
75027W        W39235  27.612  17.241   2.789
75028W        W39236   9.817  42.906  14.322
75029W        W39237   1.832  15.722  11.057
75030W        W39238   6.831  25.589  13.475
75031W        W39239  20.658  44.825  11.579
75032W        W39240  10.181   8.257   4.658
75033W        W39241  20.648  37.913   0.258
75034W        W39242   1.336  15.325   0.356
75035W        W39243  23.073  13.727  12.440
75036W        W39244  37.410   4.905   2.194
75037W        W39245  37.361  41.529  11.386
75038W        W39246  39.478  39.442  13.061
75039W        W39247   7.377  23.006   2.197
75040W        W39248   4.299   7.760   2.814
75041W        W39249  38.819  29.429  11.590
75042W        W39250  43.989  39.037  10.531
75043W        W39251  44.401  22.193  12.005
75044W        W39252  33.502  13.262   1.312
75045W        W39253  22.718   7.325   9.623
75046W        W39254  28.567  24.520  11.916
75047W        W39255  20.143  23.616   1.717
75048W        W39256  15.109   5.716   2.855
75049W        W39257  41.995  10.342  14.933
75050W        W39258   2.873   6.421  10.914
75051W        W39259  33.482  39.495  13.535
75052W        W39260  26.208  16.656  12.025
75053W        W39261  31.065  42.366  10.562
75054W        W39262  25.155  13.821  12.910
75055W        W39263  41.821  15.309  13.823
75056W        W39264  24.507   8.663  13.377
75057W        W39265  12.806  30.635  13.482
75058W        W39266  29.573  15.636   1.859
75059W        W39267  44.960  36.451   4.791
75060W        W39268  36.944  39.342   1.728
75061W        W39269  27.089  22.613   3.323
75062W        W39270  33.948  12.655   1.253
75063W        W39271  28.967  20.747   3.180
75064W        W39272   3.793  39.931   2.193
75065W        W39273  22.700  33.959   2.308
75066W        W39274   6.890  19.638  14.759
75067W        W39275  16.103  13.242   2.741
75068W        W39276   8.335  29.437   2.302
75069W        W39277   0.928  14.332  10.469
75070W        W39278  24.167   7.205  10.489
75071W        W39279   5.738  33.456  13.830
75072W        W39280   1.290  40.408  11.026
75073W        W39281  33.399  16.590  13.984
75074W        W39282  29.933   6.875   4.734
75075W        W39283   5.218  41.532  11.536
75076W        W39284  44.481  35.087  13.372
75077W        W39285   5.796  13.158  11.003
75078W        W39286  30.462  26.494  13.959
75079W        W39287  35.447  31.619   4.623
75080W        W39288  36.440  32.408  13.531
75081W        W39289  33.448  28.940   3.354
75082W        W39290   8.777  28.160  11.377
75083W        W39291   3.785  21.634   1.420
75084W        W39292  43.013  25.188   2.400
75085W        W39293  12.303   1.949   1.386
75086W        W39294  26.069   0.858   4.727
75087W        W39295   4.879  37.549   1.313
75088W        W39296  38.391   8.381  12.559
75089W        W39297  10.762  30.096   0.344
75090W        W39298  11.184   3.320  14.006
75091W        W39299  20.086  24.042   4.714
75092W        W39300  28.486   2.232   0.871
75093W        W39301  34.051  42.806   5.257
75094W        W39302  25.013  36.990  10.986
75095W        W39303  25.508   1.829  10.464
75096W        W39304  21.693  39.430   3.635
75097W        W39305  24.571  12.794   0.872
75098W        W39306  10.156  43.015   1.353
75099W        W39307  26.020  35.969   4.336
75100W        W39308   2.423  29.589   0.398
75101W        W39309  18.075   5.745   4.180
75102W        W39310   9.226  18.119  13.842
75103W        W39311  41.385  14.170  12.844
75104W        W39312  40.439  21.677   9.966
75105W        W39313  39.950   2.723   5.213
75106W        W39314  38.457  19.271  12.882
75107W        W39315   3.295  42.296  13.941
75108W        W39316  33.385  43.407  12.383
75109W        W39317  12.137  30.649   1.419
75110W        W39318  11.867  22.601  14.492
75111W        W39319   1.256  32.439  13.337
75112W        W39320  31.435  36.009  14.853
75113W        W39321  16.197   7.269   4.736
75114W        W39322  15.116   3.891   4.305
75115W        W39323   2.780  21.634  13.014
75116W        W39324  19.714  42.981  12.393
75117W        W39325  35.368  40.879   4.639
75118W        W39326  34.991  37.489   2.698
75119W        W39327   5.398   1.808  10.520
75120W        W39328  14.324   8.272   3.172
75121W        W39329  15.627  18.681  12.000
75122W        W39330  43.282  29.977  12.020
75123W        W39331   1.423   7.238  14.276
75124W        W39332  30.649  17.681  13.411
75125W        W39333   7.212  28.086   3.321
75126W        W39334  26.178   4.386   1.449
75127W        W39335  22.595  32.564   0.757
75128W        W39336  21.635   1.901   2.758
75129W        W39337  38.325  33.981  13.935
75130W        W39338  39.377  19.740  13.335
75131W        W39339  20.668  42.488  14.028
75132W        W39340  34.031   6.866  14.288
75133W        W39341   0.419  37.519  10.441
75134W        W39342  32.610   4.393   0.326
75135W        W39343  11.739   2.795   1.830
75136W        W39344  11.654  34.506  14.376
75137W        W39345  25.002  10.224  12.975
75138W        W39346  29.552  15.679  11.953
75139W        W39347  19.753  26.626  11.603
75140W        W39348  26.019   4.900   2.702
75141W        W39349  17.664   1.761  12.091
75142W        W39350  20.624  23.501  12.931
75143W        W39351  27.615  23.049   3.166
75144W        W39352  22.112  30.147  12.408
75145W        W39353  33.606  20.715   1.858
75146W        W39354  44.010   2.811   4.144
75147W        W39355  14.325  11.324   0.745
75148W        W39356  29.110   8.690   3.829
75149W        W39357  11.342   3.944   3.271
75150W        W39358   0.841  14.593   3.308
75151W        W39359  10.286  29.431   4.617
75152W        W39360  30.588  29.631  14.396
75153W        W39361   9.170  27.042   2.388
75154W        W39362  25.033  18.669   0.363
75155W        W39363   9.657  29.484  10.992
75156W        W39364  20.695  20.092  13.941
75157W        W39365  23.173  38.837  11.567
75158W        W39366  38.986  20.529  14.438
75159W        W39367  41.883  13.345   4.300
75160W        W39368   4.862  23.061   0.883
75161W        W39369  11.821   6.811  14.854
75162W        W39370  21.022  14.804  13.946
75163W        W39371  44.911  26.099   0.855
75164W        W39372  14.256   7.322  12.387
75165W        W39373  28.094  28.141   9.976
75166W        W39374  29.934  17.607  10.559
75167W        W39375  25.644  17.294   0.374
75168W        W39376   4.393  32.414  13.417
75169W        W39377  24.137   6.368   2.270
75170W        W39378  10.811   6.255   4.203
75171W        W39379  12.180   3.717   2.263
75172W        W39380  41.977  29.128  11.129
75173W        W39381  27.028  10.800  11.903
75174W        W39382  42.300   3.243   4.699
75175W        W39383   3.757  27.684   2.853
75176W        W39384   3.729  25.529  12.047
75177W        W39385  17.595   9.700   1.892
75178W        W39386  15.756  20.198   4.250
75179W        W39387  21.194  38.389   3.756
75180W        W39388  28.010   7.345  12.470
75181W        W39389   7.796  22.652  11.004
75182W        W39390  23.504  43.301   2.257
75183W        W39391  10.684   7.211  12.980
75184W        W39392  34.576  37.393  13.886
75185W        W39393  29.114  35.389  11.073
75186W        W39394  44.000  43.971   3.690
75187W        W39395  28.094   5.874   0.404
75188W        W39396  32.546   6.243   0.290
75189W        W39397  23.682  44.858  11.048
75190W        W39398  24.063  31.921   4.335
75191W        W39399   9.315   8.211  10.935
75192W        W39400   3.817  42.939  12.019
75193W        W39401  16.186  22.688   4.281
75194W        W39402   7.814  42.375  12.914
75195W        W39403  12.198  17.680  11.024
75196W        W39404  34.107  24.672  10.972
75197W        W39405  22.563  29.550   1.407
75198W        W39406  24.142   4.346  13.038
75199W        W39407   3.288  10.717   4.170
75200W        W39408  41.977  36.995   1.413
75201W        W39409  28.509  21.149  11.035
75202W        W39410  27.484  16.233   0.399
75203W        W39411  27.450  26.474  13.887
75204W        W39412   0.438  11.752   0.482
75205W        W39413  13.269  44.284   3.297
75206W        W39414  39.534  32.982   0.452
75207W        W39415  11.171   2.363   2.788
75208W        W39416  37.956  32.633   3.651
75209W        W39417   2.470  19.143  10.466
75210W        W39418  38.347   6.735  12.419
75211W        W39419  42.017   0.430   4.821
75212W        W39420   3.404  38.432  10.895
75213W        W39421   7.320  11.824   0.256
75214W        W39422  22.501  23.009  13.481
75215W        W39423  20.042  40.854  14.798
75216W        W39424  34.093  18.594   0.279
75217W        W39425  37.502  43.271   4.255
75218W        W39426  22.123  26.484  12.856
75219W        W39427  36.953   3.359   3.782
75220W        W39428  40.328  28.043   4.230
75221W        W39429  28.976  23.239  12.538
75222W        W39430  25.522  41.353  14.999
75223W        W39431  36.985  20.731   2.359
75224W        W39432  14.110   3.924  14.439
75225W        W39433  37.572   8.784  11.071
75226W        W39434  10.744  19.542   1.696
75227W        W39435  10.661   7.909  11.891
75228W        W39436  29.074  38.334   1.841
75229W        W39437  12.226   5.806  14.443
75230W        W39438  17.564  15.602   1.249
75231W        W39439   2.911  29.564  14.357
75232W        W39440  35.433  43.473   3.204
75233W        W39441  29.527   6.741   3.733
75234W        W39442  28.446   6.815   3.747
75235W        W39443  21.043  28.552  13.471
75236W        W39444  43.769  43.497   4.331
75237W        W39445  30.622  13.170   3.853
75238W        W39446  21.203  41.883  14.902
75239W        W39447  23.571   3.427   4.320
75240W        W39448  39.880  41.507  13.419
75241W        W39449  29.023  33.599   4.292
75242W        W39450  16.697  15.327  12.053
75243W        W39451  24.197  16.802   1.237
75244W        W39452  13.202   7.903   2.292
75245W        W39453  13.736  44.978  14.834
75246W        W39454   8.315  31.006   1.315
75247W        W39455  16.636   1.797  10.593
75248W        W39456  31.586   1.854   2.789
75249W        W39457  19.220  10.667  11.935
75250W        W39458  33.519  10.805   3.861
75251W        W39459  23.540  20.148   0.365
75252W        W39460   4.707  11.853   1.895
75253W        W39461  12.752  17.197  14.489
75254W        W39462  26.623  21.621  12.867
75255W        W39463  16.277  33.921   4.306
75256W        W39464  20.646  20.132  12.928
75257W        W39465  14.791  18.571   0.822
75258W        W39466  25.076  38.862   4.663
75259W        W39467  41.811  40.491   3.151
75260W        W39468   1.836  32.972   4.743
75261W        W39469  12.648  22.585   2.219
75262W        W39470   6.363  31.048  14.819
75263W        W39471  25.637  26.701  14.970
75264W        W39472  32.567  14.763  12.365
75265W        W39473  37.888  25.175   4.748
75266W        W39474  44.955  37.854   0.842
75267W        W39475  11.203  37.903  11.077
75268W        W39476  42.399  42.352  12.573
75269W        W39477   0.790  21.084   4.652
75270W        W39478  29.651   1.914  14.343
75271W        W39479   4.846  30.068  12.478
75272W        W39480   0.787  35.999  13.797
75273W        W39481  40.427  31.119  12.385
75274W        W39482  28.533  22.642  14.978
75275W        W39483  31.569  23.525   3.715
75276W        W39484  44.860  41.852  11.001
75277W        W39485  18.550  10.648  13.026
75278W        W39486  12.275  35.945  14.918
75279W        W39487  39.968  14.328  13.829
75280W        W39488  26.096   0.435   3.301
75281W        W39489   9.754  44.409  13.834
75282W        W39490   9.844  16.215  12.892
75283W        W39491  10.865  44.872   0.367
75284W        W39492   6.284  31.507  14.816
75285W        W39493  39.322  29.447   4.767
75286W        W39494  22.563   8.746   0.294
75287W        W39495  14.283   7.287   0.299
75288W        W39496  27.113   4.288   3.695
75289W        W39497   4.819  29.466  10.927
75290W        W39498  21.606  35.001   2.355
75291W        W39499  13.262   7.331   3.281
75292W        W39500  33.076  31.561  14.275
75293W        W39501  30.125  19.622  10.505
75294W        W39502  40.972   2.966   1.389
75295W        W39503  42.813  29.970   0.304
75296W        W39504  27.955  18.263  12.972
75297W        W39505   4.257  26.182   0.808
75298W        W39506  24.691  16.768  10.933
75299W        W39507  26.975  11.185  12.570
75300W        W39508   9.308  21.053  13.997
75301W        W39509  33.956  30.154   0.451
75302W        W39510   1.864  25.186   2.314
75303W        W39511  18.158  35.581   4.248
75304W        W39512   4.702  29.624  12.562
75305W        W39513  25.495  24.223   1.311
75306W        W39514  15.300  37.979  14.770
75307W        W39515  22.026   4.841  10.937
75308W        W39516   8.275   8.873  11.070
75309W        W39517  19.640   6.225   1.794
75310W        W39518   7.896  28.095  14.299
75311W        W39519  34.056   7.358  12.042
75312W        W39520  36.064  17.616  10.898
75313W        W39521  25.707  34.889   0.842
75314W        W39522  24.554  29.660   3.688
75315W        W39523  22.578   8.310   0.826
75316W        W39524  44.478   8.291  11.442
75317W        W39525  17.218  40.424   4.751
75318W        W39526  32.085  42.509   4.276
75319W        W39527  35.374  39.429   4.142
75320W        W39528  25.630  12.162  13.932
75321W        W39529   3.847  26.100  12.398
75322W        W39530   0.307  19.547  11.521
75323W        W39531   7.698  21.682  11.561
75324W        W39532  10.694  13.733  14.431
75325W        W39533  14.794  35.540   0.868
75326W        W39534  44.847  28.980   9.462
75327W        W39535  11.648   3.924  12.387
75328W        W39536  10.177   7.185   4.214
75329W        W39537  20.239   6.343  11.426
75330W        W39538  40.390  30.085  12.904
75331W        W39539   3.825  40.337  14.465
75332W        W39540  24.974  19.665  14.364
75333W        W39541   1.809  37.555  14.289
75334W        W39542   4.766  24.669  13.806
75335W        W39543   2.391  20.614   4.612
75336W        W39544  21.524  19.055   5.158
75337W        W39545  23.538   4.758   3.348
75338W        W39546  14.252  17.702   1.925
75339W        W39547  35.468  40.409   2.757
75340W        W39548  20.236  29.587   3.216
75341W        W39549  40.035  13.817   2.752
75342W        W39550  37.482  15.177   0.782
75343W        W39551  30.658  44.982  12.888
75344W        W39552   1.854  32.597   4.782
75345W        W39553  32.491  40.929   4.696
75346W        W39554  26.095  14.600  14.987
75347W        W39555  15.601  32.411   1.904
75348W        W39556  31.068  21.217   4.738
75349W        W39557  29.557  44.853  14.893
75350W        W39558  24.673  30.438   4.179
75351W        W39559   8.211   3.322  10.061
75352W        W39560  36.027   9.231  14.371
75353W        W39561  14.747  18.218  10.602
75354W        W39562  17.602  35.915   3.832
75355W        W39563  10.279  18.088   1.926
75356W        W39564  15.815  32.946  10.526
75357W        W39565  27.165  38.933  13.905
75358W        W39566   6.406  26.167  13.345
75359W        W39567  19.264  23.546  14.461
75360W        W39568  41.908   6.323   1.727
75361W        W39569  21.182  10.688  14.429
75362W        W39570  40.812   2.448  11.583
75363W        W39571  14.203   5.734  13.932
75364W        W39572  10.333   0.880   4.685
75365W        W39573  37.866  26.536  13.899
75366W        W39574  12.188  44.370   1.390
75367W        W39575  23.160   0.971  13.998
75368W        W39576  25.127  28.126  12.537
75369W        W39577  12.764  12.784  13.383
75370W        W39578   6.297  15.609  11.963
75371W        W39579   7.325   8.167  14.802
75372W        W39580   5.301  41.943   4.150
75373W        W39581  16.737  44.993   3.173
75374W        W39582  21.252  13.714   3.274
75375W        W39583   1.458   0.493   3.371
75376W        W39584  44.314  13.792   2.389
75377W        W39585   9.732  17.076  12.973
75378W        W39586  23.550  36.398   3.713
75379W        W39587  11.214  28.054   0.930
75380W        W39588   8.368   4.293  11.104
75381W        W39589   1.393  32.114  13.798
75382W        W39590  13.285   5.369  14.863
75383W        W39591  17.577  42.792  10.411
75384W        W39592   7.775  29.530  12.492
75385W        W39593   8.245  20.071   1.904
75386W        W39594  40.308  35.076  14.436
75387W        W39595  39.432  16.602  11.592
75388W        W39596  25.579  14.165  11.422
75389W        W39597   0.468  43.862  12.498
75390W        W39598  30.032  15.662   0.857
75391W        W39599  12.807  19.270  14.345
75392W        W39600  20.609  11.721  11.881
75393W        W39601  35.357   1.399   4.231
75394W        W39602  25.573  34.558   3.700
75395W        W39603  10.801  18.588  12.005
75396W        W39604   1.972  13.665   3.717
75397W        W39605   9.389  32.971   2.244
75398W        W39606  43.494   5.719   4.189
75399W        W39607  12.239  27.587  12.474
75400W        W39608   5.901   0.795  12.531
75401W        W39609  15.630  28.990   3.244
75402W        W39610  19.233  43.416  11.952
75403W        W39611  12.237   5.790  10.557
75404W        W39612  34.930  12.257   4.790
75405W        W39613  36.431  39.890   0.746
75406W        W39614  14.735  11.662   0.399
75407W        W39615  23.070  37.351   2.882
75408W        W39616  39.450  11.257  13.869
75409W        W39617  35.926  37.535   4.261
75410W        W39618  42.303  24.992   3.743
75411W        W39619  44.270  17.704   0.880
75412W        W39620  14.176  11.648   2.834
75413W        W39621   3.921  30.581  14.420
75414W        W39622  22.037   9.774  14.389
75415W        W39623  44.264   5.424  11.454
75416W        W39624  24.519  31.631   3.365
75417W        W39625  22.168  44.442   3.737
75418W        W39626  36.537   1.445   4.279
75419W        W39627  18.609  19.571   1.707
75420W        W39628  39.375   1.796   5.589
75421W        W39629  33.948   4.922   3.680
75422W        W39630  35.944  14.787  12.513
75423W        W39631  44.447  20.766  14.458
75424W        W39632  21.069  10.825   4.164
75425W        W39633  36.406  32.951  11.535
75426W        W39634   4.219  10.201  12.049
75427W        W39635  17.630  41.978  11.431
75428W        W39636  44.984   6.834   4.689
75429W        W39637  14.753  20.211  11.557
75430W        W39638  22.239  32.633   0.360
75431W        W39639  11.212  32.956  14.487
75432W        W39640  42.369  34.982  12.385
75433W        W39641  18.571  41.392   3.728
75434W        W39642   3.455  35.951  12.393
75435W        W39643  12.801   5.334  11.084
75436W        W39644  23.602  44.822   3.223
75437W        W39645  29.101  12.790   1.822
75438W        W39646  37.889   9.845   3.264
75439W        W39647   9.789  43.939   1.778
75440W        W39648  38.552   9.383  10.629
75441W        W39649  32.025  17.671   2.843
75442W        W39650  32.401  29.558   2.776
75443W        W39651  36.062  35.856   3.651
75444W        W39652  24.510  40.487   2.824
75445W        W39653  35.054  26.196   4.158
75446W        W39654  28.450   0.284   1.874
75447W        W39655  39.493   9.870   3.675
75448W        W39656   0.400   8.795  10.616
75449W        W39657  44.271  23.102  10.940
75450W        W39658  17.093  22.070  13.055
75451W        W39659   1.813  31.123  12.994
75452W        W39660  36.080   9.703   1.781
75453W        W39661   7.786  35.861   2.309
75454W        W39662  25.163  34.943   4.159
75455W        W39663  31.023  38.819   1.851
75456W        W39664   6.715  35.375   2.778
75457W        W39665  13.266  12.230   0.362
75458W        W39666  38.509  33.981   4.737
75459W        W39667  38.049  41.509   1.348
75460W        W39668  38.347   1.270  14.958
75461W        W39669  20.709  40.014   0.743
75462W        W39670  41.389  42.315  13.897
75463W        W39671  23.664  42.422  11.937
75464W        W39672  13.724   3.360   3.370
75465W        W39673  14.732  26.165  10.532
75466W        W39674   2.291  12.291   0.315
75467W        W39675   9.265  25.144   1.363
75468W        W39676  28.502  20.558   2.831
75469W        W39677  33.109  10.318   2.386
75470W        W39678  24.178  37.009   0.286
75471W        W39679   7.849  37.931   4.802
75472W        W39680  10.713  38.335  10.616
75473W        W39681  43.288   8.871   0.343
75474W        W39682  27.017  43.383   1.403
75475W        W39683  19.644  19.242   3.216
75476W        W39684  32.128  21.706  14.963
75477W        W39685  21.626  40.476  10.501
75478W        W39686  27.690  32.447  12.439
75479W        W39687  44.348  29.945   2.856
75480W        W39688  17.736  41.344   2.380
75481W        W39689  42.789  35.513  11.943
75482W        W39690   7.175  14.688  11.591
75483W        W39691  12.798  21.547   4.148
75484W        W39692   7.254  24.546   2.865
75485W        W39693  41.428   7.880   1.248
75486W        W39694  22.189  43.344   3.370
75487W        W39695  35.542  34.075  13.051
75488W        W39696   0.942   2.750  11.393
75489W        W39697   4.398  23.072   2.358
75490W        W39698  10.851   5.853  14.016
75491W        W39699  29.561  42.421  14.919
75492W        W39700  19.045  24.669  11.029
75493W        W39701  13.274  22.095   4.779
75494W        W39702  30.628  21.252  14.780
75495W        W39703  28.968  30.640  14.030
75496W        W39704  33.061   0.983  14.452
75497W        W39705  43.985  44.010  11.934
75498W        W39706  35.935  20.250   2.372
75499W        W39707  42.498   2.339  12.953
75500W        W39708   4.811  44.900   4.774
75501W        W39709  43.886  33.540   0.329
75502W        W39710  37.010  34.888   4.742
75503W        W39711  38.961  20.617   4.116
75504W        W39712  22.705  42.455   3.718
75505W        W39713   8.220  44.271  11.018
75506W        W39714  36.000  42.953  10.425
75507W        W39715  39.985  25.051  13.882
75508W        W39716  37.893  31.923   1.422
75509W        W39717  26.996   5.216  13.994
75510W        W39718   3.410  35.998  14.825
75511W        W39719  35.561  32.444  12.840
75512W        W39720  34.461  22.211   2.214
75513W        W39721  11.638  25.572   3.690
75514W        W39722  38.511  10.847   0.756
75515W        W39723  33.606  33.462   3.281
75516W        W39724  28.511   3.776  12.913
75517W        W39725   0.969  12.801   1.746
75518W        W39726  17.174  36.354  10.565
75519W        W39727  23.723   3.274  11.880
75520W        W39728  41.504  24.519  13.847
75521W        W39729   8.833  15.783  13.429
75522W        W39730  11.621  28.085  12.048
75523W        W39731  41.816  30.589  14.356
75524W        W39732  37.491  21.642  12.000
75525W        W39733  29.509  44.478  11.506
75526W        W39734  24.167  10.291  14.375
75527W        W39735  41.319  28.645   0.467
75528W        W39736  36.948  14.649  12.416
75529W        W39737  44.382  34.395   3.235
75530W        W39738  26.503  43.968  14.851
75531W        W39739   5.271   2.286   1.421
75532W        W39740  10.257  31.575   0.461
75533W        W39741   2.838  35.449  11.424
75534W        W39742   1.407  44.488   4.796
75535W        W39743  23.553  12.286  12.513
75536W        W39744  33.613   9.165  10.135
75537W        W39745  44.366  25.214  10.110
75538W        W39746   8.879   7.177  13.014
75539W        W39747  38.018  17.126  12.896
75540W        W39748  18.257  44.753  14.414
75541W        W39749  27.047  42.440  13.465
75542W        W39750  30.530  40.982   2.701
75543W        W39751  21.112   7.783   5.222
75544W        W39752  40.930  20.105   1.712
75545W        W39753   2.839  23.633   0.389
75546W        W39754  10.701  42.338   0.899
75547W        W39755  35.498  18.254   1.760
75548W        W39756  25.040  15.264   0.424
75549W        W39757  26.050  44.808  12.958
75550W        W39758  21.663  43.354  13.827
75551W        W39759  21.244  15.205  10.988
75552W        W39760  37.843  27.140  13.875
75553W        W39761  33.412  20.204   2.314
75554W        W39762  20.735  23.717  11.517
75555W        W39763   1.899   4.704   5.195
75556W        W39764  18.156  35.921  14.928
75557W        W39765  12.318  28.973   4.271
75558W        W39766  10.738  27.104   2.295
75559W        W39767  13.217  11.645   4.815
75560W        W39768  43.008   9.164  10.487
75561W        W39769   9.850  36.461   0.734
75562W        W39770  40.304   1.802  13.421
75563W        W39771   5.366  29.161  13.932
75564W        W39772  42.913   3.331  12.063
75565W        W39773   3.929  41.400  13.443
75566W        W39774  35.091  38.388  13.864
75567W        W39775  16.568  28.187  11.504
75568W        W39776  41.422  19.122   2.823
75569W        W39777  42.385  27.007  11.018
75570W        W39778  35.529  41.926   1.443
75571W        W39779  20.573   0.750   1.315
75572W        W39780  16.572   6.317   3.163
75573W        W39781  37.426  20.193   3.645
75574W        W39782  13.621   6.186   4.301
75575W        W39783  13.643  40.029   2.709
75576W        W39784   5.347   5.304  12.580
75577W        W39785  12.181  14.773  12.895
75578W        W39786   4.238  30.596  13.799
75579W        W39787  44.279  25.616  14.884
75580W        W39788  30.602   5.756  14.842
75581W        W39789   1.963   3.893   1.917
75582W        W39790  40.376  16.298  12.432
75583W        W39791   9.698  40.491  11.938
75584W        W39792  43.823  26.069  12.009
75585W        W39793  39.509  39.383  12.519
75586W        W39794  28.081  12.275   2.352
75587W        W39795  24.524  26.542  13.925
75588W        W39796  25.138  25.983   3.153
75589W        W39797   3.857  24.204  10.435
75590W        W39798  22.025  11.172   0.357
75591W        W39799  15.714  41.955   1.365
75592W        W39800   9.693  24.096  13.537
75593W        W39801  34.943  17.265  12.372
75594W        W39802  43.839  39.494  11.578
75595W        W39803  42.514  35.987  14.809
75596W        W39804  44.414  20.689   0.823
75597W        W39805  38.042  22.060  14.845
75598W        W39806  35.579   8.234   4.308
75599W        W39807  27.629  15.312  14.923
75600W        W39808  39.832  38.454   2.275
75601W        W39809  43.919  39.997   3.193
75602W        W39810  14.110  11.224  12.527
75603W        W39811  41.327  19.043   3.765
75604W        W39812  41.424  21.088   0.821
75605W        W39813  40.868  40.391  11.578
75606W        W39814  16.769  13.236  11.428
75607W        W39815   6.919   4.437  11.428
75608W        W39816  38.419  39.398  13.843
75609W        W39817  17.133  28.484  13.489
75610W        W39818  44.840   0.414  10.466
75611W        W39819  42.008  16.266  10.461
75612W        W39820  39.379  33.103   2.816
75613W        W39821  19.222  34.417   2.813
75614W        W39822   7.681   3.827   1.809
75615W        W39823  29.620  18.102   1.423
75616W        W39824  18.743   5.763   0.760
75617W        W39825  10.873   7.251   4.312
75618W        W39826  23.017   7.685  14.927
75619W        W39827   1.294  28.174  11.968
75620W        W39828   4.318  26.984   2.364
75621W        W39829   4.867  20.595  10.428
75622W        W39830  43.396  34.925   0.353
75623W        W39831  42.812   6.210  10.549
75624W        W39832  42.800  19.686  14.876
75625W        W39833  21.599  43.854   2.216
75626W        W39834  27.688  12.164  11.855
75627W        W39835  39.357  11.251   4.333
75628W        W39836  10.166  29.506   2.258
75629W        W39837  12.325  20.712  14.482
75630W        W39838   3.732   7.872  14.852
75631W        W39839  40.886  34.104   3.637
75632W        W39840  15.804  32.613  10.909
75633W        W39841  12.722  22.527   0.379
75634W        W39842   6.815  11.625  14.404
75635W        W39843   6.349   5.381  13.369
75636W        W39844  28.449   7.693   4.242
75637W        W39845  27.645  19.043  13.373
75638W        W39846  33.505  20.629   2.836
75639W        W39847  25.698   4.379  10.459
75640W        W39848  16.302  24.166   0.909
75641W        W39849  15.597  12.147  12.474
75642W        W39850  39.028  36.538  11.462
75643W        W39851  35.075  35.457   3.795
75644W        W39852  12.290  17.642   3.871
75645W        W39853  19.689  41.893   2.788
75646W        W39854  40.846  26.498   4.754
75647W        W39855  27.061  23.997   1.328
75648W        W39856  17.115   3.389  13.383
75649W        W39857  26.186   2.456  14.920
75650W        W39858  13.149  15.741  14.842
75651W        W39859  16.736   7.353  13.017
75652W        W39860   9.843   0.933  14.969
75653W        W39861  33.129  30.930   2.244
75654W        W39862  12.276  25.641   3.220
75655W        W39863   9.249  23.627   2.806
75656W        W39864  44.310  16.075  12.358
75657W        W39865  18.135  28.535  13.536
75658W        W39866  18.159  34.099  12.508
75659W        W39867   5.723   0.478   4.710
75660W        W39868  36.061  34.040  14.980
75661W        W39869  20.543   8.168   3.723
75662W        W39870  19.043  22.008  11.002
75663W        W39871   2.431   7.296   0.277
75664W        W39872  44.274  33.909  14.512
75665W        W39873  34.388  16.647   3.373
75666W        W39874  14.100  23.490  11.468
75667W        W39875  43.793  19.542  13.981
75668W        W39876   8.789  34.896  14.843
75669W        W39877   5.334  27.166  10.975
75670W        W39878  10.807  36.438   2.289
75671W        W39879  15.123  14.191   1.870
75672W        W39880  25.570   9.713  12.514
75673W        W39881  44.468  29.997  14.372
75674W        W39882  44.981  21.572  13.417
75675W        W39883  31.972  19.774   0.410
75676W        W39884  19.779  14.144  13.323
75677W        W39885  32.947  36.041  11.114
75678W        W39886   7.383   6.212   2.854
75679W        W39887  35.075   4.894  14.761
75680W        W39888  10.797  43.424   3.866
75681W        W39889   8.324  17.583  13.851
75682W        W39890  35.972   9.676   4.142
75683W        W39891  32.132  28.443  13.050
75684W        W39892  10.745  11.757  12.389
75685W        W39893  13.673   1.959   0.408
75686W        W39894   6.732  37.376  10.510
75687W        W39895  28.486  35.101  12.388
75688W        W39896   3.853  35.383   2.777
75689W        W39897  24.512  26.634   3.343
75690W        W39898  24.090   1.256  14.320
75691W        W39899  27.670  22.645   3.167
75692W        W39900  11.209  30.578   0.916
75693W        W39901  25.143  17.775  12.040
75694W        W39902  17.702   7.187  12.074
75695W        W39903   5.332  37.388  12.911
75696W        W39904  27.070  28.959  12.531
75697W        W39905  26.072   9.772   3.165
75698W        W39906   8.227  34.104   2.274
75699W        W39907   9.655  43.466   4.617
75700W        W39908  15.819   9.650  10.965
75701W        W39909  33.976  38.429  10.445
75702W        W39910  25.981  34.477  13.517
75703W        W39911   3.221  28.105  14.460
75704W        W39912  43.955   6.834  10.600
75705W        W39913  39.314  30.958   0.767
75706W        W39914  30.566  13.283  12.997
75707W        W39915  14.693  19.634   2.314
75708W        W39916  24.136  31.927  14.795
75709W        W39917  44.462  33.514  13.916
75710W        W39918  26.158  35.043   1.798
75711W        W39919  11.683  12.219   4.334
75712W        W39920  23.993  20.274   1.244
75713W        W39921  38.445  17.127   2.269
75714W        W39922  18.696  31.942   2.849
75715W        W39923  37.878  18.581   0.448
75716W        W39924  34.556  35.905   0.366
75717W        W39925  44.770  16.098   0.740
75718W        W39926  25.690  40.546  12.976
75719W        W39927  21.121  18.765  11.428
75720W        W39928   1.269   0.847  12.471
75721W        W39929   7.378  14.722  10.620
75722W        W39930  41.898  29.519   2.825
75723W        W39931  38.498  40.878  11.964
75724W        W39932  27.550  31.079   2.303
75725W        W39933  12.202  17.705  12.418
75726W        W39934  30.501  34.918  13.515
75727W        W39935  36.893  32.529   0.263
75728W        W39936  32.946  21.756  10.487
75729W        W39937   9.158  29.467   2.409
75730W        W39938   1.846   7.363   0.740
75731W        W39939  14.731  12.834  10.462
75732W        W39940  21.068  33.976  12.070
75733W        W39941   7.815  35.363   3.163
75734W        W39942   7.263  13.336   4.153
75735W        W39943  23.602   0.316   1.223
75736W        W39944  20.034  16.722  11.469
75737W        W39945  30.951  40.428  13.509
75738W        W39946  19.732  39.879  10.566
75739W        W39947  42.940  41.976   4.275
75740W        W39948  41.821  37.941   0.816
75741W        W39949  27.997  32.994  14.832
75742W        W39950  44.861   6.863   1.298
75743W        W39951  34.498  23.240  12.534
75744W        W39952  29.998  18.584   4.676
75745W        W39953   9.751  43.899  12.977
75746W        W39954   7.684  10.178  12.087
75747W        W39955  36.521  40.814  10.595
75748W        W39956  14.589  10.847  12.081
75749W        W39957  11.250  24.073  10.594
75750W        W39958  34.972   2.960   3.167
75751W        W39959  39.828  34.520  12.006
75752W        W39960  25.586  44.988  13.932
75753W        W39961  20.548  43.402  10.979
75754W        W39962  15.160  13.623  13.496
75755W        W39963  18.251   1.395   3.794
75756W        W39964   0.276  33.389  11.899
75757W        W39965  38.524  12.182   2.809
75758W        W39966   9.317  34.452  13.031
75759W        W39967  23.731  34.584  13.900
75760W        W39968  39.973  18.610  12.446
75761W        W39969  37.579   1.937  10.116
75762W        W39970   4.314   4.901   1.858
75763W        W39971   6.786  37.469   4.338
75764W        W39972   6.365  19.537   1.246
75765W        W39973   7.873  36.033   3.638
75766W        W39974  32.575  30.099  14.979
75767W        W39975  18.192  43.297   0.947
75768W        W39976  29.664  22.542   5.141
75769W        W39977  42.509   2.251  10.474
75770W        W39978   4.288  16.130   0.821
75771W        W39979   6.248  22.235  14.459
75772W        W39980  27.041  28.646  13.516
75773W        W39981  10.660  39.379   3.331
75774W        W39982  39.546  43.319   0.953
75775W        W39983  14.305  34.913  12.945
75776W        W39984   1.974   3.261   0.800
75777W        W39985  17.261  27.069   3.366
75778W        W39986   6.697  37.550   0.773
75779W        W39987  38.959  39.376   4.310
75780W        W39988  35.021  21.512   4.639
75781W        W39989   0.777  12.202   1.450
75782W        W39990  16.268  26.985   0.729
75783W        W39991   7.285  23.729   3.225
75784W        W39992  35.490  20.733   0.352
75785W        W39993  41.006  43.962  10.587
75786W        W39994  41.003  11.837  13.934
75787W        W39995   2.402  14.654   1.900
75788W        W39996  41.001  31.908   5.102
75789W        W39997  34.484  28.653  10.643
75790W        W39998  12.247  25.122  10.590
75791W        W39999  33.936   5.247   2.868
75792W        W40000  14.321  23.053  12.874
75793W        W40001  29.459   7.848   1.227
75794W        W40002  16.605  23.619  13.883
75795W        W40003  14.195  39.510   0.951
75796W        W40004  43.491   5.285  14.376
75797W        W40005  24.493  43.435   3.337
75798W        W40006  32.089  24.143  11.549
75799W        W40007   9.840   6.270  11.528
75800W        W40008  40.449  29.990   1.417
75801W        W40009  44.951  18.251  14.815
75802W        W40010  40.846  30.120  14.509
75803W        W40011  41.913  10.146   4.780
75804W        W40012   4.273  26.565  14.282
75805W        W40013   8.879  33.456  13.994
75806W        W40014  10.795  18.202   3.776
75807W        W40015  21.149  15.188   3.865
75808W        W40016  16.171  10.354   1.405
75809W        W40017   9.856  14.749  11.541
75810W        W40018  13.206  10.804  11.965
75811W        W40019   7.844  22.185  10.982
75812W        W40020   7.275  42.845  14.460
75813W        W40021  26.179  39.491  14.913
75814W        W40022  23.683  21.548   2.815
75815W        W40023  35.410  28.074   1.934
75816W        W40024  38.566   3.382   0.953
75817W        W40025   9.693   8.680  11.607
75818W        W40026  32.435  25.520  11.955
75819W        W40027  23.007  36.404   1.876
75820W        W40028  37.377  21.216   1.889
75821W        W40029  18.067  15.192   0.356
75822W        W40030  34.522  44.975  13.950
75823W        W40031   8.234  24.659  13.046
75824W        W40032  28.577  17.777   4.709
75825W        W40033  34.377   9.696   2.792
75826W        W40034  24.157  18.267   0.924
75827W        W40035  44.298  27.582  11.385
75828W        W40036  42.477  38.846   0.764
75829W        W40037  20.264   2.823   0.456
75830W        W40038  24.203   5.703  12.556
75831W        W40039  20.216   6.851   1.925
75832W        W40040  42.317  12.640  10.625
75833W        W40041  38.956  37.352   0.741
75834W        W40042  18.629  10.349   4.611
75835W        W40043  39.974  14.808   2.322
75836W        W40044   0.254  39.025   2.835
75837W        W40045   1.744   2.243  14.313
75838W        W40046  30.493  26.530  11.051
75839W        W40047  22.242  42.518   0.455
75840W        W40048  31.908  18.123   2.194
75841W        W40049  28.125  24.599   2.754
75842W        W40050   2.729  25.152   4.809
75843W        W40051  19.670  25.664  14.894
75844W        W40052  40.016  44.394  13.449
75845W        W40053   9.667  39.341  12.407
75846W        W40054  35.002  42.467   3.645
75847W        W40055  17.679  32.597  12.048
75848W        W40056   9.710  21.137   2.419
75849W        W40057  37.430  44.918  12.350
75850W        W40058  12.852   1.395  13.475
75851W        W40059  39.811  27.169  13.935
75852W        W40060   1.836  29.925   0.900
75853W        W40061  13.255   3.331  13.534
75854W        W40062  43.840  36.368  12.058
75855W        W40063  40.888  16.154  11.599
75856W        W40064   6.798  33.106  10.480
75857W        W40065  29.508  38.378  11.091
75858W        W40066  39.367   3.404   4.231
75859W        W40067   2.306  31.466  14.341
75860W        W40068  14.815  35.564   4.351
75861W        W40069  33.407  19.642   4.757
75862W        W40070   7.365   4.840  10.891
75863W        W40071   5.334  16.656  13.390
75864W        W40072   7.896  15.150   9.620
75865W        W40073  33.387   0.412  11.530
75866W        W40074  30.609  18.700  12.897
75867W        W40075  22.221  24.025  11.117
75868W        W40076  25.666   6.767  14.503
75869W        W40077  36.045   6.200  14.338
75870W        W40078  30.918  43.918  11.569
75871W        W40079  27.600  11.322  12.972
75872W        W40080  37.965   3.358   1.772
75873W        W40081  33.112   6.417   3.209
75874W        W40082   0.332  40.524  14.865
75875W        W40083  41.793   2.410   5.740
75876W        W40084  11.257   6.863  12.388
75877W        W40085  20.120  36.899  12.978
75878W        W40086   7.772  25.158   2.792
75879W        W40087  43.342  31.085   1.910
75880W        W40088   1.773  11.683   1.722
75881W        W40089   2.344  32.992   4.147
75882W        W40090  44.264   8.784   2.182
75883W        W40091  44.833  44.499  10.995
75884W        W40092  22.033  32.575  14.882
75885W        W40093  10.366   9.263   0.814
75886W        W40094  21.192   9.712   1.271
75887W        W40095  18.225  15.709  12.013
75888W        W40096  27.167  39.038  14.384
75889W        W40097  43.901   9.739  13.874
75890W        W40098   9.324  28.984  12.993
75891W        W40099  10.829  16.765  14.833
75892W        W40100  36.549   1.441  13.345
75893W        W40101  40.038  18.275  13.039
75894W        W40102  36.396   0.897  10.564
75895W        W40103  35.895  19.707   0.910
75896W        W40104  29.491   4.332  13.430
75897W        W40105  30.134  38.377   4.211
75898W        W40106   7.702  30.585  13.890
75899W        W40107  39.925   7.849  14.834
75900W        W40108  40.912  42.857   2.758
75901W        W40109  40.538  42.352   1.714
75902W        W40110   7.872  34.024  13.919
75903W        W40111  43.975  15.313  10.456
75904W        W40112  37.396  11.711  11.965
75905W        W40113  30.092  37.008  11.984
75906W        W40114  25.506   2.851   1.738
75907W        W40115  18.664  15.094  12.475
75908W        W40116  24.633  10.673  11.482
75909W        W40117  23.503  29.512   1.447
75910W        W40118  24.068  15.622  13.524
75911W        W40119  40.398  15.275   2.830
75912W        W40120  24.053  40.461  11.961
75913W        W40121  16.179  21.137   1.924
75914W        W40122  10.256   7.311  14.783
75915W        W40123  18.167  22.134   1.371
75916W        W40124  22.740  28.954  10.632
75917W        W40125  35.588  12.237   0.320
75918W        W40126  39.919  17.764   1.835
75919W        W40127  29.587  29.923   0.755
75920W        W40128   7.283   7.912   4.771
75921W        W40129   8.754   2.339   0.453
75922W        W40130   6.817  34.099  13.055
75923W        W40131   3.795  22.086  14.769
75924W        W40132  41.824  13.717  11.905
75925W        W40133  26.567  39.809   4.262
75926W        W40134  24.522  20.236   4.238
75927W        W40135  12.161  12.674   0.369
75928W        W40136  31.466  26.100  10.982
75929W        W40137  19.652  40.871  10.897
75930W        W40138   8.712  34.493   4.674
75931W        W40139   7.744  23.547  10.550
75932W        W40140   3.777  21.590  13.502
75933W        W40141   1.311  10.292   2.868
75934W        W40142   3.753  18.774   3.285
75935W        W40143  39.456  28.536   3.796
75936W        W40144  13.701  43.301  14.402
75937W        W40145  39.941   4.336   5.179
75938W        W40146   0.274  27.129  11.902
75939W        W40147  26.166  24.210  13.051
75940W        W40148  19.693   2.866   2.873
75941W        W40149  39.939  44.928   2.678
75942W        W40150  17.093  41.331  10.528
75943W        W40151  31.604  22.726   0.962
75944W        W40152  23.101  20.649   3.674
75945W        W40153  23.165  33.556  14.337
75946W        W40154   1.446  16.628  10.643
75947W        W40155  23.675  28.119   3.743
75948W        W40156  10.199  14.238   3.182
75949W        W40157  43.486   7.687  12.042
75950W        W40158  23.698  17.797  12.536
75951W        W40159  26.993  40.456  14.498
75952W        W40160  41.855  16.740   4.258
75953W        W40161   8.655  10.834   2.885
75954W        W40162  27.015  40.047  11.871
75955W        W40163   3.340   5.724   3.360
75956W        W40164   4.931   4.941   0.782
75957W        W40165  38.024  33.587   2.334
75958W        W40166  27.018  37.547  11.417
75959W        W40167  26.096  40.885  13.319
75960W        W40168  41.908  12.832  14.413
75961W        W40169  21.615  16.171  13.889
75962W        W40170  34.903  12.699  11.529
75963W        W40171  14.642  15.156   4.784
75964W        W40172  42.847  39.960  11.916
75965W        W40173  12.787  13.751   4.715
75966W        W40174   1.406  34.531   2.788
75967W        W40175   0.284  43.791  12.855
75968W        W40176  36.582   0.311   1.703
75969W        W40177  42.379  36.873   0.398
75970W        W40178   6.426   9.862   1.351
75971W        W40179  43.443  21.733   2.178
75972W        W40180  13.213  31.935  10.587
75973W        W40181  30.994  23.668   0.466
75974W        W40182  38.990  40.934  11.910
75975W        W40183  29.063  34.492  14.277
75976W        W40184   5.736   0.932  12.957
75977W        W40185  27.079  23.045  13.940
75978W        W40186  40.334  10.851  12.917
75979W        W40187  41.358  39.921  14.777
75980W        W40188   1.375  31.136  13.529
75981W        W40189  22.150  19.693   3.702
75982W        W40190   3.893  34.888   2.376
75983W        W40191  28.486  37.559   3.270
75984W        W40192  23.534   8.344   1.214
75985W        W40193  36.944  28.069   3.173
75986W        W40194   5.718  27.170  14.433
75987W        W40195  42.897  15.710   2.709
75988W        W40196   2.295   9.746  14.435
75989W        W40197   7.781  24.715  11.076
75990W        W40198  30.463  16.583  14.765
75991W        W40199  21.739  25.616   1.850
75992W        W40200  14.229  31.102  14.835
75993W        W40201  31.590  33.074  12.404
75994W        W40202  43.516  39.935  13.362
75995W        W40203   7.242  29.018  14.321
75996W        W40204  39.054  22.145   4.677
75997W        W40205   2.848  37.068   0.296
75998W        W40206  22.620  36.564   1.768
75999W        W40207  34.920  15.809   3.157
76000W        W40208  12.287  15.273   0.845
76001W        W40209  37.376  16.158   4.138
76002W        W40210  30.447  15.817  14.766
76003W        W40211  31.927   5.714  13.821
76004W        W40212  33.924  28.680  13.467
76005W        W40213  40.936  15.603   2.285
76006W        W40214  31.405  16.630   4.764
76007W        W40215  26.991  32.533  10.429
76008W        W40216  13.805  16.314  12.398
76009W        W40217   7.910  28.651  10.940
76010W        W40218   7.727  37.508  13.480
76011W        W40219  24.096  32.068  11.028
76012W        W40220  13.301  35.995  13.921
76013W        W40221  11.828  16.620  11.992
76014W        W40222   0.428  29.454   3.743
76015W        W40223  43.945   0.352  11.862
76016W        W40224  11.138  25.209   3.230
76017W        W40225  33.937   5.781   0.804
76018W        W40226  12.141  32.411   1.797
76019W        W40227   7.745  18.217   0.794
76020W        W40228  23.162   8.298   0.344
76021W        W40229  21.151  43.826   2.890
76022W        W40230  39.870  17.660  14.825
76023W        W40231  37.904  34.931   3.740
76024W        W40232  19.603  41.029  11.527
76025W        W40233  24.638   0.339   2.751
76026W        W40234  16.613   0.887   3.316
76027W        W40235   9.861  31.945  10.054
76028W        W40236  20.103  24.127   3.301
76029W        W40237  22.044  13.777   0.322
76030W        W40238   0.361  21.033   0.954
76031W        W40239  27.069  15.182  13.433
76032W        W40240  28.569  25.073  10.519
76033W        W40241  17.560  19.084   0.252
76034W        W40242  29.048   9.699   3.639
76035W        W40243  36.008   1.384   1.810
76036W        W40244  20.107  30.611   3.704
76037W        W40245   6.414  36.996   4.696
76038W        W40246  44.314   3.734   4.727
76039W        W40247   0.926  26.162   1.739
76040W        W40248  24.683  40.819   1.410
76041W        W40249  30.139  39.964   3.792
76042W        W40250   2.855   2.952   1.350
76043W        W40251  30.965  26.498  13.840
76044W        W40252  41.370  42.860   0.773
76045W        W40253  20.651  34.582   2.208
76046W        W40254   1.382  26.596  11.093
76047W        W40255   7.342  31.600   1.934
76048W        W40256   2.933  43.330   3.704
76049W        W40257   2.230  24.194  11.004
76050W        W40258  18.588  42.325  14.427
76051W        W40259  31.535  15.607   1.932
76052W        W40260  26.612   1.275  10.412
76053W        W40261   1.304  12.304  12.088
76054W        W40262   0.365   6.212   1.384
76055W        W40263  36.091  22.173  13.321
76056W        W40264  43.937  11.774   3.792
76057W        W40265   5.236  31.905  12.467
76058W        W40266  16.695  15.757  11.067
76059W        W40267  14.731   0.399   0.923
76060W        W40268  35.539  31.043   2.791
76061W        W40269  14.281  44.381  13.518
76062W        W40270   7.826  12.790  10.593
76063W        W40271  21.517  21.644   1.273
76064W        W40272  12.121  23.048  10.595
76065W        W40273  39.352  42.777   4.722
76066W        W40274  38.859  26.014   4.815
76067W        W40275   6.409  23.622   0.922
76068W        W40276  36.371  44.958  13.852
76069W        W40277   1.376  25.137  13.312
76070W        W40278  17.211  38.019  13.815
76071W        W40279  13.149  37.063  14.396
76072W        W40280   1.785  38.343  11.512
76073W        W40281   6.299  25.038  13.422
76074W        W40282  10.832  19.227   2.830
76075W        W40283  29.666  38.024  11.918
76076W        W40284  43.906  44.448   2.225
76077W        W40285  31.557  11.824   4.680
76078W        W40286   9.216  16.238  11.556
76079W        W40287   5.714  13.255   2.668
76080W        W40288  14.180  30.966   3.763
76081W        W40289   9.195  31.527   0.387
76082W        W40290  40.886  30.547  12.399
76083W        W40291   9.368  37.047   3.302
76084W        W40292  17.606   9.343   1.759
76085W        W40293  42.920  16.200  11.547
76086W        W40294  39.374   0.803  10.928
76087W        W40295  41.901  27.675  12.342
76088W        W40296  26.182   3.258  10.508
76089W        W40297  37.060  31.909   1.754
76090W        W40298  26.479  42.441  12.385
76091W        W40299  23.159   8.199  12.906
76092W        W40300  24.212  13.830   0.847
76093W        W40301   8.324   3.328   4.202
76094W        W40302  20.525  30.034  10.949
76095W        W40303  19.564  23.708  12.487
76096W        W40304  32.432  14.594   5.279
76097W        W40305  11.149  30.989   0.798
76098W        W40306  23.649  11.793   2.883
76099W        W40307   7.299  15.650  14.324
76100W        W40308   7.847  10.271   2.690
76101W        W40309   0.342  34.391   1.320
76102W        W40310  31.534  39.357  12.478
76103W        W40311   0.975  12.812   3.837
76104W        W40312   2.881  24.568   2.797
76105W        W40313  12.349  22.211   3.635
76106W        W40314  43.831  30.021  12.862
76107W        W40315  15.207   9.373  14.505
76108W        W40316  35.551  20.045  12.525
76109W        W40317  34.433  17.772   4.704
76110W        W40318  33.021   3.723   2.767
76111W        W40319   4.413  16.700  14.002
76112W        W40320   5.898  38.463   4.838
76113W        W40321  20.211  16.290   9.494
76114W        W40322  13.299  39.510  12.482
76115W        W40323  41.990  21.112   1.299
76116W        W40324  35.107  34.089  14.862
76117W        W40325  22.115   1.753  14.428
76118W        W40326   8.732  19.198  14.814
76119W        W40327  35.899  40.050  11.890
76120W        W40328  37.439  30.020   4.626
76121W        W40329  33.497  24.141   3.366
76122W        W40330   4.428  20.669   0.886
76123W        W40331  18.571  36.405  12.942
76124W        W40332  34.533   2.460   2.781
76125W        W40333  21.595  34.012  11.116
76126W        W40334  23.659   1.978   0.749
76127W        W40335  10.183   8.694  14.889
76128W        W40336  36.899   0.950  13.957
76129W        W40337  19.666  29.102   0.366
76130W        W40338  39.903  41.504  11.988
76131W        W40339   2.286   2.457  11.033
76132W        W40340  23.148   3.954   2.845
76133W        W40341  35.949   9.882  14.914
76134W        W40342  40.439  23.132  11.955
76135W        W40343   9.236   6.737   2.226
76136W        W40344  15.159  20.159  13.016
76137W        W40345   2.244  21.243  11.987
76138W        W40346  35.854   9.797   3.746
76139W        W40347   8.864  17.738   2.369
76140W        W40348  44.906  13.628   2.861
76141W        W40349  16.617  17.746   3.233
76142W        W40350  19.253  10.697   2.388
76143W        W40351  38.882   5.699  13.464
76144W        W40352  31.021  25.034   3.239
76145W        W40353   1.371  24.052  14.515
76146W        W40354  21.224  13.174   5.203
76147W        W40355  14.672  10.745  14.459
76148W        W40356  29.132   6.202  10.436
76149W        W40357  20.237  13.148  10.566
76150W        W40358   8.693  19.129  13.001
76151W        W40359  25.004   6.398  10.526
76152W        W40360   7.675  25.545  12.976
76153W        W40361  33.122  16.128  12.092
76154W        W40362  16.197  40.845   1.264
76155W        W40363  23.110  22.143  11.922
76156W        W40364  32.118  29.016   2.779
76157W        W40365  23.569  36.031  10.552
76158W        W40366  30.560  37.420   0.291
76159W        W40367  29.162  36.849  14.323
76160W        W40368   4.372   8.185   4.255
76161W        W40369  32.953  41.463  14.301
76162W        W40370   9.876  16.302  13.824
76163W        W40371   8.239  17.703  10.914
76164W        W40372   1.339  28.143  14.322
76165W        W40373  32.049   3.407   3.272
76166W        W40374  10.250  28.110   2.301
76167W        W40375   5.417  16.641  14.442
76168W        W40376  12.828  16.571   2.853
76169W        W40377  16.125   5.254  11.007
76170W        W40378  34.012  25.049   2.746
76171W        W40379  42.826  27.472   1.856
76172W        W40380   2.952   6.788  12.024
76173W        W40381  16.663  35.089   4.723
76174W        W40382   6.800  29.998  10.601
76175W        W40383   3.330  20.663   0.844
76176W        W40384  29.069  18.621   3.154
76177W        W40385  35.900  39.033   4.791
76178W        W40386  10.315  32.034  13.521
76179W        W40387  13.275   2.336  13.447
76180W        W40388  17.778  26.508  10.510
76181W        W40389  23.568  19.758  11.998
76182W        W40390  40.370  13.720   2.773
76183W        W40391  20.731   8.397   4.346
76184W        W40392   7.368  22.064   3.818
76185W        W40393  29.567  31.020   4.157
76186W        W40394   6.699  28.997   4.162
76187W        W40395  13.609  10.724  13.036
76188W        W40396  40.923   6.295   0.905
76189W        W40397  20.061  35.996  11.482
76190W        W40398   3.832  16.589  13.878
76191W        W40399  26.065  18.591   3.302
76192W        W40400  33.553  37.479  13.834
76193W        W40401   0.849  15.775  10.109
76194W        W40402   2.788  28.570  14.427
76195W        W40403  28.023  11.289  10.557
76196W        W40404  35.509  30.503   3.688
76197W        W40405  29.047  43.398  12.917
76198W        W40406  30.630  41.970   1.238
76199W        W40407  31.978  27.465  12.975
76200W        W40408  19.677  29.960   0.950
76201W        W40409   6.848  28.047  13.383
76202W        W40410  34.015  25.594   0.787
76203W        W40411   5.227  35.898   2.703
76204W        W40412  43.826  13.830   1.865
76205W        W40413   6.716  25.999  11.420
76206W        W40414  29.623  17.100  14.448
76207W        W40415  24.219  38.874  13.512
76208W        W40416  41.298  42.315  11.589
76209W        W40417  44.774   6.276   1.864
76210W        W40418  15.710  31.931  13.868
76211W        W40419  36.898  18.695   0.298
76212W        W40420  27.189   3.218  11.432
76213W        W40421  25.650   3.264   4.180
76214W        W40422  40.025  44.440   0.276
76215W        W40423  43.462  38.462   3.203
76216W        W40424  40.361  13.694   3.295
76217W        W40425  36.881  16.285   3.708
76218W        W40426  32.618  32.636   0.266
76219W        W40427  10.151   0.477   4.143
76220W        W40428  40.447   0.763  12.055
76221W        W40429   2.942  41.337   4.692
76222W        W40430  32.499  32.407   4.134
76223W        W40431  36.037   5.925  13.799
76224W        W40432  41.903  33.024   0.438
76225W        W40433  13.805  34.994  14.796
76226W        W40434  29.079  32.595   4.709
76227W        W40435  18.264  30.463   3.727
76228W        W40436   6.708  16.189  11.520
76229W        W40437  35.908  10.806   1.329
76230W        W40438   9.663  34.984   4.216
76231W        W40439  25.998   4.776   1.928
76232W        W40440  33.407  23.185   0.888
76233W        W40441  28.604  40.344  12.487
76234W        W40442  35.102  15.629  13.842
76235W        W40443  35.426   6.676  11.386
76236W        W40444  19.203  32.500  10.526
76237W        W40445  17.756  20.551   4.619
76238W        W40446  33.915  38.072  14.811
76239W        W40447  37.847  11.643  11.870
76240W        W40448  27.516   8.817   0.355
76241W        W40449  15.789   1.839  13.807
76242W        W40450  16.235  44.899   1.345
76243W        W40451  44.788  35.858   2.789
76244W        W40452   9.732  42.459  12.030
76245W        W40453  43.455  34.612  13.519
76246W        W40454  18.659  12.772  14.456
76247W        W40455   0.299   4.728   4.289
76248W        W40456  30.490  30.635  12.452
76249W        W40457  33.035  13.836  10.978
76250W        W40458   1.791  24.484   3.661
76251W        W40459   4.724  12.816  13.839
76252W        W40460  15.148  13.733   4.223
76253W        W40461  44.821  15.696  11.911
76254W        W40462   4.879  22.215   2.188
76255W        W40463   3.321  26.494  14.479
76256W        W40464   0.301  41.470   3.688
76257W        W40465  42.807  11.729   1.281
76258W        W40466  33.080   9.385   1.863
76259W        W40467  25.085  17.064   3.370
76260W        W40468   2.854  22.609   4.693
76261W        W40469   6.393  18.547  14.283
76262W        W40470  12.131  30.926   2.370
76263W        W40471   7.803  15.809   1.288
76264W        W40472   8.738  17.748  12.047
76265W        W40473  36.952  16.797  13.480
76266W        W40474  11.230  32.017   3.837
76267W        W40475   0.854  41.531   5.179
76268W        W40476  42.776  15.250  11.422
76269W        W40477  40.871  31.094  11.943
76270W        W40478  15.658   7.251   2.693
76271W        W40479  31.468  35.874   2.314
76272W        W40480  28.532  20.742   0.378
76273W        W40481  37.342  36.436  13.964
76274W        W40482  37.926  43.998   4.691
76275W        W40483   1.392  28.122  14.780
76276W        W40484  29.175  18.770  14.346
76277W        W40485   0.873  40.392   3.686
76278W        W40486  28.947  37.497   4.768
76279W        W40487  43.021  38.387   0.731
76280W        W40488  14.314   4.327  11.020
76281W        W40489  26.571  18.756  10.584
76282W        W40490  30.502  44.947  14.804
76283W        W40491  19.106  30.636   5.267
76284W        W40492  21.671   4.944   4.716
76285W        W40493  44.405  12.636  12.930
76286W        W40494   9.335  21.096   4.605
76287W        W40495  29.611  34.492  10.494
76288W        W40496  36.480  25.149   4.835
76289W        W40497  41.307  41.518  11.037
76290W        W40498  33.986  21.153   2.686
76291W        W40499  43.017   3.936  10.406
76292W        W40500   3.354  31.902   0.940
76293W        W40501  10.138  10.856  14.869
76294W        W40502  33.398   7.696  11.514
76295W        W40503  38.409  39.816  11.428
76296W        W40504  35.445  15.623  11.460
76297W        W40505   1.356  11.170  14.487
76298W        W40506  22.744  22.679   2.220
76299W        W40507  31.629  29.512   3.645
76300W        W40508   8.892  21.247  12.948
76301W        W40509  37.346  12.349  13.057
76302W        W40510   0.821  38.341  10.014
76303W        W40511  43.343  12.158  10.888
76304W        W40512  42.426  38.977  11.876
76305W        W40513   9.873  30.030   4.310
76306W        W40514  29.455  18.742   4.267
76307W        W40515  32.897  16.782   4.704
76308W        W40516  12.796  44.343   3.331
76309W        W40517  44.913  42.796   2.202
76310W        W40518   4.326  13.276  12.939
76311W        W40519  18.074  40.992   0.883
76312W        W40520  37.400  30.005  10.544
76313W        W40521   9.280  29.999  12.921
76314W        W40522   0.424  42.007   3.250
76315W        W40523  41.469  21.034  11.900
76316W        W40524  15.271  27.489  12.855
76317W        W40525  26.989  30.633  14.342
76318W        W40526  34.934  36.585   3.296
76319W        W40527   6.420  26.636  10.103
76320W        W40528  41.989  38.955   9.992
76321W        W40529  33.992  38.513  10.906
76322W        W40530  37.956   8.343   3.372
76323W        W40531   4.736  30.106   3.308
76324W        W40532  19.736   3.844   0.286
76325W        W40533  24.514   6.230   3.328
76326W        W40534  26.525  44.347   2.873
76327W        W40535  11.809   2.392   2.227
76328W        W40536  13.815   5.273  10.926
76329W        W40537  13.176  19.700  14.340
76330W        W40538   3.268  27.046  12.097
76331W        W40539   6.340  23.987  12.985
76332W        W40540  13.154   2.367  14.825
76333W        W40541  16.752  13.202  13.935
76334W        W40542  35.601  18.236   3.818
76335W        W40543  35.575   1.851  11.978
76336W        W40544  19.067   7.856   2.702
76337W        W40545   3.803   4.261   1.707
76338W        W40546   8.833  36.357  11.559
76339W        W40547  29.047   1.945  13.909
76340W        W40548  10.681  16.181   4.766
76341W        W40549  31.474  19.176   2.319
76342W        W40550  39.507   1.819   5.154
76343W        W40551  40.930  23.236  13.347
76344W        W40552  32.958   7.734   2.369
76345W        W40553  27.559   0.438  12.972
76346W        W40554  18.100  40.322   5.192
76347W        W40555  15.625  38.484   4.639
76348W        W40556  40.863  35.042  10.556
76349W        W40557  32.439  35.004   4.816
76350W        W40558   9.737  17.222  10.923
76351W        W40559   7.852  24.130  12.571
76352W        W40560  29.448   6.859   2.717
76353W        W40561  20.645  22.683   2.699
76354W        W40562  22.032   7.831  12.441
76355W        W40563  12.221  11.366  11.492
76356W        W40564  35.567  38.931   1.414
76357W        W40565  42.784  24.480   3.236
76358W        W40566  24.172  24.626  13.314
76359W        W40567  42.349  25.022   0.863
76360W        W40568   6.413  35.033   5.250
76361W        W40569  28.148  15.700  12.407
76362W        W40570   1.337   2.733  13.988
76363W        W40571  16.739  20.047  12.011
76364W        W40572  31.960   7.337   2.880
76365W        W40573  13.264  36.386  10.503
76366W        W40574  13.143  34.891   1.787
76367W        W40575  44.849  29.513   4.743
76368W        W40576  22.541  41.967   4.679
76369W        W40577  32.897  23.663   0.413
76370W        W40578  10.297  31.573   2.350
76371W        W40579  29.597  33.933   2.371
76372W        W40580  42.394  21.117   3.158
76373W        W40581   5.921  42.960  10.557
76374W        W40582  34.452   4.945   4.257
76375W        W40583   0.761  25.613  12.526
76376W        W40584   6.426  15.156   1.241
76377W        W40585  12.263  26.002   0.739
76378W        W40586  25.548   8.893  14.935
76379W        W40587  29.109  21.068  11.872
76380W        W40588  17.592  20.612   2.734
76381W        W40589  22.562  16.780   4.766
76382W        W40590  16.187  44.931   0.846
76383W        W40591   7.798   4.892  10.994
76384W        W40592  43.330  38.460  13.337
76385W        W40593  30.541  24.538  14.819
76386W        W40594  13.302  10.309  12.866
76387W        W40595  17.202  28.072   4.127
76388W        W40596  21.223  22.207  13.939
76389W        W40597   0.946  19.720  11.061
76390W        W40598  11.757   1.899  11.962
76391W        W40599  40.313  23.067  14.972
76392W        W40600  23.124  33.040  13.426
76393W        W40601  29.036  30.058  11.128
76394NA+    NA+40602  20.759  27.979  13.849
76395NA+    NA+40603   7.350  38.862   4.755
76396NA+    NA+40604  39.393  34.015  13.320
76397NA+    NA+40605  15.231   5.868  14.425
76398NA+    NA+40606  13.227  20.750  12.442
76399NA+    NA+40607  19.095  34.110  12.456
76400NA+    NA+40608  15.245  23.659  14.356
76401NA+    NA+40609   6.735  25.508  14.950
76402NA+    NA+40610  17.213   9.778   3.646
76403NA+    NA+40611   1.786  21.139  12.069
76404NA+    NA+40612  38.511  12.149  13.370
76405NA+    NA+40613  43.009  18.663  11.477
76406NA+    NA+40614   8.173  38.478   1.410
76407NA+    NA+40615  21.521  39.550  11.977
76408NA+    NA+40616  26.994  24.630   1.858
76409NA+    NA+40617  39.851  10.873   0.480
76410NA+    NA+40618  10.233  36.462   3.686
76411NA+    NA+40619  27.084   0.253  10.493
76412NA+    NA+40620   1.474  31.480  11.011
76413NA+    NA+40621   5.405   6.235   4.273
76414NA+    NA+40622   5.421  14.237  11.038
76415NA+    NA+40623  43.944  15.597  13.808
76416NA+    NA+40624  12.212  26.615  12.974
76417NA+    NA+40625  18.215  30.914  13.935
76418NA+    NA+40626  44.432  23.664   0.466
76419NA+    NA+40627  20.232  15.684  12.560
76420NA+    NA+40628  11.220   1.950  11.032
76421NA+    NA+40629  28.935  30.655  12.406
76422NA+    NA+40630  35.951   6.235  10.984
76423NA+    NA+40631  43.010  27.574  14.917
76424NA+    NA+40632  28.179  12.715  12.445
76425NA+    NA+40633  16.169  40.821  12.847
76426NA+    NA+40634  42.895  33.903  10.076
76427NA+    NA+40635  44.351  27.468   4.820
76428NA+    NA+40636  23.678  10.280   0.404
76429NA+    NA+40637  11.129  36.420   1.425
76430NA+    NA+40638  40.428  39.510  14.295
76431NA+    NA+40639  16.302   4.375  12.489
76432NA+    NA+40640  20.646   5.420   2.190
76433NA+    NA+40641   8.845  14.830   1.451
76434NA+    NA+40642  34.864  15.709  14.430
76435NA+    NA+40643  18.611  28.588  11.386
76436NA+    NA+40644  30.916  11.171  10.611
76437NA+    NA+40645  17.747  26.482   1.392
76438NA+    NA+40646  13.188  31.914   4.733
76439NA+    NA+40647   0.408  10.180  10.609
76440NA+    NA+40648   1.388  33.575  12.054
76441NA+    NA+40649  30.605  21.082   2.901
76442NA+    NA+40650   7.871  35.977   0.448
76443NA+    NA+40651  16.614  35.442  13.519
76444NA+    NA+40652   3.906  38.922   4.116
76445NA+    NA+40653  21.731  39.425   4.729
76446NA+    NA+40654  41.852  30.127   1.301
76447NA+    NA+40655  42.784  43.349   1.808
76448NA+    NA+40656  15.710  31.446   4.252
76449NA+    NA+40657  19.641  25.622  13.924
76450NA+    NA+40658  38.518  36.545  14.840
76451NA+    NA+40659  20.585  29.571   0.750
76452NA+    NA+40660  43.387  39.470   2.833
76453NA+    NA+40661   0.319  29.489   0.822
76454NA+    NA+40662   0.777  39.968   4.751
76455NA+    NA+40663  20.136   8.822   3.284
76456NA+    NA+40664  33.972  44.811  13.010
76457NA+    NA+40665  17.168  12.358   4.233
76458NA+    NA+40666  28.489  23.061  10.939
76459NA+    NA+40667  20.698  27.574  11.067
76460NA+    NA+40668  22.652  15.247   3.206
76461NA+    NA+40669  17.215  33.456  13.490
76462NA+    NA+40670  37.981  13.209  10.981
76463NA+    NA+40671  17.777  25.681   3.650
76464NA+    NA+40672   2.892  37.442  12.414
76465NA+    NA+40673  29.101  38.941  10.641
76466NA+    NA+40674  34.586   6.216  11.910
76467NA+    NA+40675  40.869  32.050  12.524
76468NA+    NA+40676  41.923  26.067  13.367
76469NA+    NA+40677  28.941  18.133   0.326
76470NA+    NA+40678  31.008   7.411  11.925
76471NA+    NA+40679  26.544  37.491  12.564
76472NA+    NA+40680  23.077  34.967   1.374
76473NA+    NA+40681  25.471  42.788  10.016
76474NA+    NA+40682  44.457  34.612   2.834
76475NA+    NA+40683  22.114  28.965  12.558
76476NA+    NA+40684  36.530   8.759  14.844
76477NA+    NA+40685  38.385  25.645  13.952
76478NA+    NA+40686  22.091  15.823   0.953
76479NA+    NA+40687  40.832   4.308  11.417
76480NA+    NA+40688  10.264   3.770  11.418
76481NA+    NA+40689  41.413   7.181  11.448
76482NA+    NA+40690  13.227  26.013   0.376
76483NA+    NA+40691  31.969  21.055   5.299
76484NA+    NA+40692  32.477  15.748   0.326
76485NA+    NA+40693  33.408   4.342   3.683
76486NA+    NA+40694   4.256   6.743  13.429
76487NA+    NA+40695   4.347   3.734  11.469
76488NA+    NA+40696  35.368  35.914  11.411
76489NA+    NA+40697   4.272  13.347   1.317
76490NA+    NA+40698  35.375  42.352   0.779
76491NA+    NA+40699  14.599   7.878   2.705
76492NA+    NA+40700  16.178  26.110  14.461
76493NA+    NA+40701   9.822  27.012  13.952
76494NA+    NA+40702  22.533   9.750  13.492
76495NA+    NA+40703  37.987   8.232  12.914
76496NA+    NA+40704  44.834  14.098  11.115
76497NA+    NA+40705   1.889  28.157   0.308
76498NA+    NA+40706  39.881  16.292  11.610
76499NA+    NA+40707  39.426  24.055  14.399
76500NA+    NA+40708  20.536  27.498   1.255
76501NA+    NA+40709  24.178  34.407   1.388
76502NA+    NA+40710  34.970  34.513  14.902
76503NA+    NA+40711  41.921   4.276  11.954
76504NA+    NA+40712  27.046  16.096   4.726
76505NA+    NA+40713  36.096  15.683   1.450
76506NA+    NA+40714  24.502   0.490   1.740
76507NA+    NA+40715  15.638   4.860  11.568
76508NA+    NA+40716  24.634   1.452  14.841
76509NA+    NA+40717   2.780  30.924   0.478
76510NA+    NA+40718   4.224   4.807  11.590
76511NA+    NA+40719  21.115  42.955   5.200
76512NA+    NA+40720  14.627   5.929  10.018
76513NA+    NA+40721  18.290   6.731  13.438
76514NA+    NA+40722  33.565  42.896   3.801
76515NA+    NA+40723  16.585   4.761   4.337
76516NA+    NA+40724  33.491  12.256   2.334
76517NA+    NA+40725   8.303  41.371  11.503
76518NA+    NA+40726  37.490  19.167   1.705
76519NA+    NA+40727   2.409  36.372   1.749
76520NA+    NA+40728   5.320  35.582  14.300
76521NA+    NA+40729  14.241  39.884  12.096
76522NA+    NA+40730   8.795  31.632   4.113
76523NA+    NA+40731  40.054  44.999  11.462
76524NA+    NA+40732  43.835  28.070  12.368
76525NA+    NA+40733  24.063  21.632  12.445
76526NA+    NA+40734   1.337   8.312   4.317
76527NA+    NA+40735  19.257  14.283   0.888
76528NA+    NA+40736  13.733  20.048   1.436
76529NA+    NA+40737   6.218  19.765  11.942
76530NA+    NA+40738  26.544  20.594   4.279
76531NA+    NA+40739  30.568  23.571  10.582
76532NA+    NA+40740  29.483  38.393  13.471
76533NA+    NA+40741  35.045   2.322   3.788
76534NA+    NA+40742  24.134   7.266   2.761
76535NA+    NA+40743  25.565   0.420  10.973
76536NA+    NA+40744  18.172  36.583  14.841
76537NA+    NA+40745  38.901  27.583   4.116
76538NA+    NA+40746  25.619  40.960   1.755
76539NA+    NA+40747  35.083  30.040  13.957
76540NA+    NA+40748  14.296  18.662   2.228
76541NA+    NA+40749  21.706  41.853   1.873
76542NA+    NA+40750  35.590  26.133  13.971
76543NA+    NA+40751   1.390  33.414   1.778
76544NA+    NA+40752   2.464  34.602   3.774
76545NA+    NA+40753  27.656  19.669  12.872
76546NA+    NA+40754   9.734  34.539   1.418
76547NA+    NA+40755  39.949  22.068   1.419
76548NA+    NA+40756   3.255   0.326  13.466
76549NA+    NA+40757   1.877  29.630   4.615
76550NA+    NA+40758  38.861  26.999  12.019
76551NA+    NA+40759  17.281  29.057   3.253
76552NA+    NA+40760  34.574  11.797  11.073
76553NA+    NA+40761   1.454  17.638  10.912
76554NA+    NA+40762  39.852  40.823   4.277
76555NA+    NA+40763  32.007  29.025   0.853
76556NA+    NA+40764  11.674   7.895   4.259
76557NA+    NA+40765  27.612   2.753  14.919
76558NA+    NA+40766  17.682   7.342   5.143
76559NA+    NA+40767  39.380   0.407   3.244
76560NA+    NA+40768  43.367  37.834   4.326
76561NA+    NA+40769   4.851  31.926  12.353
76562NA+    NA+40770  12.821  24.982  14.951
76563NA+    NA+40771  32.619  37.479   5.137
76564NA+    NA+40772  24.636  29.453  10.941
76565NA+    NA+40773  39.337  27.527  10.408
76566NA+    NA+40774   9.395  33.054  13.007
76567NA+    NA+40775  15.279  33.480   1.397
76568NA+    NA+40776  32.100  12.722   3.676
76569NA+    NA+40777  35.088  27.992   0.436
76570NA+    NA+40778  25.578  10.635  10.607
76571NA+    NA+40779  35.532  24.043  14.946
76572NA+    NA+40780   4.705  39.869  12.446
76573NA+    NA+40781  12.341   8.893  13.941
76574NA+    NA+40782  18.060  13.307   1.353
76575NA+    NA+40783   3.273  24.091   0.906
76576NA+    NA+40784  40.522   4.408  13.310
76577NA+    NA+40785   8.228  24.992   0.257
76578NA+    NA+40786  19.280  34.064   3.820
76579NA+    NA+40787  25.516  31.511  14.918
76580NA+    NA+40788   6.825  36.414  13.354
76581NA+    NA+40789  22.150  13.155  13.522
76582NA+    NA+40790  28.050  44.353  10.929
76583NA+    NA+40791  20.689  19.704   1.233
76584NA+    NA+40792  39.864  37.970  13.911
76585NA+    NA+40793  18.065  16.700  11.095
76586NA+    NA+40794  25.486   1.303  11.030
76587NA+    NA+40795  36.054   8.656  14.857
76588NA+    NA+40796   1.840  17.147   4.618
76589NA+    NA+40797  24.646   1.947  14.008
76590NA+    NA+40798   6.208  10.776  12.396
76591NA+    NA+40799  44.999   0.906  14.027
76592NA+    NA+40800  22.653  34.882  11.915
76593NA+    NA+40801   5.376  44.766   2.892
76594NA+    NA+40802  23.545  18.675  14.427
76595NA+    NA+40803  29.634  43.783  12.996
76596NA+    NA+40804  36.563   6.818   1.327
76597NA+    NA+40805  18.614  25.142   1.741
76598NA+    NA+40806  13.177  11.755   0.458
76599NA+    NA+40807  26.638  17.561   2.343
76600NA+    NA+40808   5.350   1.462   4.801
76601NA+    NA+40809  36.029  38.077   2.702
76602NA+    NA+40810  15.694  10.364   2.186
76603NA+    NA+40811  29.512  20.556   4.645
76604NA+    NA+40812  28.471  16.193  10.614
76605NA+    NA+40813  33.589  19.054   1.397
76606NA+    NA+40814   7.855  12.612  14.309
76607NA+    NA+40815  17.134  36.931  13.879
76608NA+    NA+40816  24.587  21.227   1.877
76609NA+    NA+40817  25.496   7.400  13.548
76610NA+    NA+40818  14.183  32.471  13.499
76611NA+    NA+40819  27.029  42.418   0.871
76612NA+    NA+40820  14.781  43.928   4.343
76613NA+    NA+40821   0.359  32.595  12.438
76614NA+    NA+40822  22.123  17.635  12.911
76615NA+    NA+40823  22.202  10.378   0.351
76616NA+    NA+40824  42.958   6.346   4.739
76617NA+    NA+40825   5.208  31.647   4.669
76618NA+    NA+40826  38.942  30.492  11.441
76619NA+    NA+40827   7.702   5.231  10.937
76620NA+    NA+40828   9.757  26.104   4.178
76621NA+    NA+40829   4.790  17.154   9.960
76622NA+    NA+40830   3.839   0.758  14.966
76623NA+    NA+40831  26.580   9.257  11.437
76624NA+    NA+40832  20.623  24.056   2.716
76625NA+    NA+40833  41.787  29.946  14.800
76626NA+    NA+40834  23.008   8.174   3.330
76627NA+    NA+40835  24.999  37.000   1.862
76628NA+    NA+40836  39.516  33.398  11.127
76629NA+    NA+40837  31.640   2.820   1.247
76630NA+    NA+40838  22.699   2.391   4.652
76631NA+    NA+40839  23.686  37.002   0.880
76632NA+    NA+40840  30.963  22.600   3.776
76633NA+    NA+40841  44.795  29.017  14.436
76634NA+    NA+40842  40.466   3.287  13.056
76635NA+    NA+40843  10.325  44.381  12.048
76636NA+    NA+40844  42.437  40.047  13.815
76637NA+    NA+40845  32.494  27.489  14.880
76638NA+    NA+40846  43.360   9.771  14.480
76639NA+    NA+40847  22.664  44.376  10.430
76640NA+    NA+40848   1.381  33.125   5.198
76641NA+    NA+40849   7.666   3.307  14.452
76642NA+    NA+40850  39.838  27.124   2.844
76643NA+    NA+40851  17.307  10.174  12.943
76644NA+    NA+40852  15.674  25.963  12.021
76645NA+    NA+40853  33.114   9.310  12.892
76646NA+    NA+40854  23.532  39.433   0.371
76647NA+    NA+40855   3.374  16.254  11.598
76648NA+    NA+40856  41.815  34.457  10.627
76649NA+    NA+40857  40.047   2.345   1.799
76650NA+    NA+40858   2.311  13.270   4.268
76651NA+    NA+40859  31.052  11.273   0.249
76652NA+    NA+40860   0.914  10.802   1.416
76653NA+    NA+40861   9.308  42.519   2.367
76654NA+    NA+40862  43.307  29.132  11.074
76655NA+    NA+40863  34.878   9.832  13.394
76656NA+    NA+40864  14.152  14.606  11.601
76657NA+    NA+40865  27.640  22.133   1.445
76658NA+    NA+40866  19.759   8.316  14.496
76659NA+    NA+40867  31.936  19.573   1.909
76660NA+    NA+40868   5.899  13.673   0.367
76661NA+    NA+40869  19.684  38.438  11.386
76662NA+    NA+40870  35.898  18.068   3.766
76663NA+    NA+40871  39.833  30.042   4.308
76664NA+    NA+40872  12.742  18.215   1.765
76665NA+    NA+40873  33.475  26.987  12.395
76666NA+    NA+40874  41.936  40.965  12.470
76667NA+    NA+40875  15.612  31.469  13.472
76668NA+    NA+40876  36.849  15.189   2.749
76669NA+    NA+40877   4.350   6.861   0.307
76670NA+    NA+40878  20.565  41.873  13.916
76671NA+    NA+40879   3.947  18.146  10.502
76672NA+    NA+40880  41.429  36.408  14.454
76673NA+    NA+40881  37.947  28.460   0.331
76674NA+    NA+40882  27.171  33.039   4.299
76675NA+    NA+40883  26.602  30.632   4.613
76676NA+    NA+40884   3.903  26.611  14.363
76677NA+    NA+40885  36.391   6.763   2.710
76678NA+    NA+40886  17.755  30.091  13.848
76679NA+    NA+40887  22.238  19.195   2.241
76680NA+    NA+40888  34.431  14.618   0.432
76681NA+    NA+40889   7.200  15.190   0.479
76682NA+    NA+40890  44.318  16.756  13.802
76683NA+    NA+40891  12.345  18.756   3.750
76684NA+    NA+40892   9.304  36.378  13.023
76685NA+    NA+40893   6.854  42.372   4.820
76686NA+    NA+40894  13.241  10.663   0.332
76687NA+    NA+40895  35.917  33.430   4.139
76688NA+    NA+40896  23.063  11.188  11.103
76689NA+    NA+40897  42.844  43.768  14.510
76690NA+    NA+40898  17.087  33.400  12.343
76691NA+    NA+40899  22.599  35.425  14.929
76692NA+    NA+40900  25.553   8.836   3.709
76693NA+    NA+40901  25.583  43.486  13.792
76694NA+    NA+40902  35.908   1.258   4.308
76695NA+    NA+40903   5.333  44.344   2.842
76696NA+    NA+40904  33.420  32.122   3.671
76697NA+    NA+40905  42.885   9.805   1.338
76698NA+    NA+40906  23.634  19.099   0.928
76699NA+    NA+40907  35.995  31.487   0.743
76700NA+    NA+40908  43.795  12.311   4.821
76701NA+    NA+40909  42.363  18.050  13.891
76702NA+    NA+40910  26.667   2.873  13.946
76703NA+    NA+40911   5.862  11.714  14.871
76704NA+    NA+40912  12.332  17.591  10.428
76705NA+    NA+40913   3.437  29.017   0.436
76706NA+    NA+40914   4.357  41.903  10.954
76707NA+    NA+40915   9.324   8.840   4.613
76708NA+    NA+40916  35.941   5.901   0.441
76709NA+    NA+40917  32.897  25.598   2.413
76710NA+    NA+40918  22.194  31.589   2.234
76711NA+    NA+40919  15.110   9.883   0.785
76712NA+    NA+40920  16.252  33.487   0.876
76713NA+    NA+40921  26.543  27.990   2.761
76714NA+    NA+40922  44.767  13.242  12.061
76715NA+    NA+40923  12.712  34.460  11.104
76716NA+    NA+40924   4.827  36.958  10.618
76717NA+    NA+40925  43.323   7.190  12.023
76718NA+    NA+40926  26.503   5.212   3.760
76719NA+    NA+40927   6.852  36.849   1.430
76720NA+    NA+40928  29.560   5.755   2.215
76721NA+    NA+40929  22.025  42.966  13.975
76722NA+    NA+40930  27.984  44.311   4.710
76723NA+    NA+40931  12.119  36.953  12.424
76724NA+    NA+40932  44.910  26.153   4.344
76725NA+    NA+40933  16.319  15.800   1.392
76726NA+    NA+40934  33.420  41.534  10.484
76727NA+    NA+40935  19.684  23.205  14.338
76728NA+    NA+40936   8.269  22.520   2.264
76729NA+    NA+40937  31.994  11.621   0.355
76730NA+    NA+40938  37.996   0.760   3.811
76731NA+    NA+40939  14.252  28.638   0.393
76732NA+    NA+40940  22.215   1.828   4.618
76733NA+    NA+40941   7.769  37.839   3.253
76734NA+    NA+40942  22.715  36.912  14.858
76735NA+    NA+40943  35.427  16.176   4.136
76736NA+    NA+40944  15.110  43.778   0.455
76737NA+    NA+40945   3.280  27.983  10.921
76738NA+    NA+40946  44.376  11.787  11.506
76739NA+    NA+40947   7.313  19.667  11.393
76740NA+    NA+40948  31.049  29.640   1.266
76741NA+    NA+40949  42.436  27.483  13.410
76742NA+    NA+40950  17.764   2.452   1.711
76743NA+    NA+40951  11.784  14.692  13.009
76744NA+    NA+40952   7.676  16.666   4.227
76745NA+    NA+40953   8.817  11.213   4.623
76746NA+    NA+40954   2.943  44.437   0.454
76747NA+    NA+40955   0.791   9.205   1.796
76748NA+    NA+40956   6.778  33.507   3.376
76749NA+    NA+40957  41.836   1.335  10.026
76750NA+    NA+40958  25.584   7.284  12.412
76751NA+    NA+40959  34.948  38.908   2.417
76752NA+    NA+40960  37.575  44.780   2.825
76753NA+    NA+40961  37.060  13.693   3.634
76754NA+    NA+40962  25.690   0.322  10.585
76755NA+    NA+40963  39.043  36.988   1.326
76756NA+    NA+40964  25.207   3.283  10.981
76757NA+    NA+40965  16.739   9.679  12.525
76758NA+    NA+40966  44.469  30.508   1.835
76759NA+    NA+40967   5.849  33.591   0.465
76760NA+    NA+40968  40.431  14.772   1.836
76761NA+    NA+40969   0.420  36.535  13.044
76762NA+    NA+40970   6.419  29.041   5.085
76763NA+    NA+40971  28.992  28.679   2.858
76764NA+    NA+40972  16.612  17.288  13.051
76765NA+    NA+40973  20.615  32.901  11.041
76766NA+    NA+40974  37.341   5.734   3.202
76767NA+    NA+40975  19.199  39.003  10.913
76768NA+    NA+40976  38.450  27.164   3.774
76769NA+    NA+40977   3.832  39.926  12.013
76770NA+    NA+40978  15.278  35.574  12.419
76771NA+    NA+40979  25.194  21.086   4.760
76772NA+    NA+40980  13.612  34.612   0.457
76773NA+    NA+40981  31.445   0.408  14.940
76774NA+    NA+40982  39.502  33.459  10.408
76775NA+    NA+40983   7.859  26.572  13.846
76776NA+    NA+40984  44.320   3.264  11.053
76777NA+    NA+40985  41.902  15.219  10.639
76778NA+    NA+40986  34.583  17.739  11.085
76779NA+    NA+40987  27.681  32.922  11.493
76780NA+    NA+40988   7.776  39.473  13.327
76781NA+    NA+40989  20.255  27.560   4.670
76782NA+    NA+40990  44.299  39.025  11.606
76783NA+    NA+40991  12.208  15.700  10.531
76784NA+    NA+40992  41.430  26.554  13.999
76785NA+    NA+40993  16.128  16.222  13.901
76786NA+    NA+40994  18.242  44.969  10.479
76787NA+    NA+40995  39.472  30.433   0.427
76788NA+    NA+40996  44.002  22.709  14.822
76789NA+    NA+40997  27.610  32.975  12.404
76790NA+    NA+40998   9.208  41.344   2.811
76791NA+    NA+40999  36.948  42.786  11.028
76792NA+    NA+41000   6.265   4.701   1.223
76793NA+    NA+41001   4.750   6.795  11.404
76794NA+    NA+41002   6.216  28.182  11.439
76795NA+    NA+41003  42.299   7.869  11.093
76796NA+    NA+41004  42.344  14.623  14.512
76797NA+    NA+41005   8.776  38.972  13.903
76798NA+    NA+41006  19.076  27.456   1.841
76799NA+    NA+41007  36.500   2.898  12.504
76800NA+    NA+41008  41.034  38.867  11.021
76801NA+    NA+41009  19.244  24.665   3.196
76802NA+    NA+41010  14.639  40.511   0.349
76803NA+    NA+41011  18.256   3.224  14.305
76804NA+    NA+41012  42.944  38.470  11.965
76805NA+    NA+41013  28.183  29.036   0.734
76806NA+    NA+41014  23.631  26.462   1.263
76807NA+    NA+41015  40.384   2.934  12.901
76808NA+    NA+41016  44.471  37.079   2.668
76809NA+    NA+41017  35.470   9.872   4.752
76810NA+    NA+41018  44.838   2.262  12.955
76811NA+    NA+41019  14.717   5.334   0.354
76812NA+    NA+41020  36.401  18.574   0.945
76813NA+    NA+41021  21.694  18.100   1.846
76814NA+    NA+41022  42.422   7.262  12.074
76815NA+    NA+41023  23.621  40.042  10.924
76816NA+    NA+41024   5.780  21.755   3.735
76817NA+    NA+41025   6.824   6.287  11.013
76818NA+    NA+41026  38.883   7.376  12.392
76819NA+    NA+41027  37.875   3.274  13.385
76820NA+    NA+41028  34.913  41.532  12.984
76821NA+    NA+41029  34.578  14.803   1.425
76822NA+    NA+41030   4.775  29.487  14.864
76823NA+    NA+41031  11.716  26.659  10.532
76824NA+    NA+41032  18.682   5.915   2.752
76825NA+    NA+41033  35.464  17.662  13.837
76826NA+    NA+41034   7.261  37.442   0.419
76827NA+    NA+41035  41.883   9.689   3.682
76828NA+    NA+41036  39.990  26.658   4.174
76829NA+    NA+41037  32.491  13.630   4.136
76830NA+    NA+41038  25.998  24.070  11.872
76831NA+    NA+41039   8.679   4.850  13.406
76832NA+    NA+41040  41.844   0.280   1.772
76833NA+    NA+41041   9.656  22.671  12.828
76834NA+    NA+41042  41.535  29.642   1.700
76835NA+    NA+41043  43.509  21.712   2.735
76836NA+    NA+41044  26.485  32.064  10.637
76837NA+    NA+41045  24.152  18.703  14.432
76838NA+    NA+41046  38.530  31.107   1.728
76839NA+    NA+41047   9.886  12.736   2.806
76840NA+    NA+41048  12.648  21.069  11.078
76841NA+    NA+41049  36.444  15.288  13.462
76842NA+    NA+41050  30.020  11.731  13.041
76843NA+    NA+41051  42.862  14.813  14.934
76844NA+    NA+41052  13.326   2.721   4.304
76845NA+    NA+41053  31.596  23.664  11.102
76846NA+    NA+41054  44.831   9.364   0.378
76847NA+    NA+41055  12.850   9.792  14.386
76848NA+    NA+41056  37.516   5.764   0.765
76849NA+    NA+41057   4.745  17.742   4.339
76850NA+    NA+41058  18.682  36.013   3.794
76851NA+    NA+41059   8.396  35.025   4.608
76852NA+    NA+41060  33.501  10.275  13.334
76853NA+    NA+41061  36.508  12.802  10.925
76854NA+    NA+41062  12.285  18.295  14.424
76855NA+    NA+41063  17.619  40.462   5.155
76856NA+    NA+41064  34.593  20.526  13.978
76857NA+    NA+41065  20.729  33.481  12.536
76858NA+    NA+41066  20.075  14.735   2.847
76859NA+    NA+41067  23.713  12.788   0.906
76860NA+    NA+41068   6.288  14.593   1.428
76861NA+    NA+41069  33.594  24.115   9.980
76862NA+    NA+41070   4.940  26.170  10.607
76863NA+    NA+41071  34.420   4.296   0.337
76864NA+    NA+41072  10.356   1.886   2.353
76865NA+    NA+41073  22.724  41.332   2.849
76866NA+    NA+41074  35.451  43.871   2.331
76867NA+    NA+41075  18.623  43.808  13.982
76868NA+    NA+41076  23.627  20.628  12.941
76869NA+    NA+41077  19.191  31.008  13.371
76870NA+    NA+41078  16.602   7.865   1.434
76871NA+    NA+41079  28.053   8.726   1.310
76872NA+    NA+41080  29.042  28.025  12.501
76873NA+    NA+41081  21.172   1.878   3.147
76874NA+    NA+41082  19.606  27.061  14.890
76875NA+    NA+41083  31.470  43.330  13.854
76876NA+    NA+41084   4.222  38.339  10.484
76877NA+    NA+41085   3.240  13.702   1.695
76878NA+    NA+41086  32.959   8.232  14.871
76879NA+    NA+41087  23.542  35.420  14.423
76880NA+    NA+41088  15.732  36.932   1.390
76881NA+    NA+41089   7.250  22.238   0.471
76882NA+    NA+41090  24.697   5.918  14.311
76883NA+    NA+41091  43.866  17.682  14.776
76884NA+    NA+41092  27.678   3.450   1.352
76885NA+    NA+41093   9.783  26.690  14.803
76886NA+    NA+41094  36.534   4.861  13.998
76887NA+    NA+41095  44.756  24.191  14.777
76888NA+    NA+41096  30.558   3.285   4.629
76889NA+    NA+41097  14.761   1.873   0.437
76890NA+    NA+41098   0.829  13.681  10.585
76891NA+    NA+41099  12.272  23.651  13.450
76892NA+    NA+41100  32.971   5.426  11.969
76893NA+    NA+41101  38.904  30.547   1.277
76894NA+    NA+41102  10.304   9.877  11.425
76895NA+    NA+41103  38.539   9.683  12.382
76896NA+    NA+41104  18.566  39.336  11.576
76897NA+    NA+41105  41.307   4.403   4.315
76898NA+    NA+41106  24.509   9.875   2.370
76899NA+    NA+41107  38.997   8.849   1.296
76900NA+    NA+41108  37.980  35.532  14.941
76901NA+    NA+41109  40.915  17.728   0.783
76902NA+    NA+41110  22.501  22.225   4.724
76903NA+    NA+41111  41.950  13.210   2.268
76904NA+    NA+41112  10.842  21.697   2.739
76905NA+    NA+41113   8.704  33.878  14.308
76906NA+    NA+41114  26.140  33.403  13.858
76907NA+    NA+41115  44.289   1.972   2.683
76908NA+    NA+41116   2.324  19.072  12.401
76909NA+    NA+41117   0.357  38.867   0.745
76910NA+    NA+41118  34.441   9.844  11.947
76911NA+    NA+41119  13.320  33.021  12.363
76912NA+    NA+41120   6.244  39.993   3.314
76913NA+    NA+41121  17.300  43.278   4.813
76914NA+    NA+41122  34.941  30.618  10.989
76915NA+    NA+41123   7.857   5.216   4.677
76916NA+    NA+41124  15.175  35.970   4.255
76917NA+    NA+41125  41.963  20.576   0.915
76918NA+    NA+41126  16.637  22.147   2.774
76919NA+    NA+41127  25.036  29.044   1.697
76920NA+    NA+41128   6.872  22.596  13.389
76921NA+    NA+41129  17.562  39.840  12.064
76922NA+    NA+41130   3.227  33.533  10.546
76923NA+    NA+41131  31.971  27.947  13.012
76924NA+    NA+41132  20.126  42.958  12.379
76925NA+    NA+41133  14.676   9.359  12.432
76926NA+    NA+41134   1.937  19.147   4.759
76927NA+    NA+41135  44.777  27.054   2.264
76928NA+    NA+41136  25.151  37.426  14.386
76929NA+    NA+41137  15.251  25.085   1.380
76930NA+    NA+41138   2.928  12.839  13.015
76931NA+    NA+41139  13.750  14.259   4.256
76932NA+    NA+41140  40.920  11.250   4.827
76933NA+    NA+41141  15.735   6.700  12.389
76934NA+    NA+41142  15.797  11.151  11.073
76935NA+    NA+41143   8.321   1.241  11.087
76936NA+    NA+41144   9.722  28.511  11.979
76937NA+    NA+41145  34.065  31.489   3.811
76938NA+    NA+41146  18.280  26.184  14.809
76939NA+    NA+41147   9.677   9.656  13.022
76940NA+    NA+41148  43.869  16.627  13.526
76941NA+    NA+41149  21.228  34.898   5.255
76942NA+    NA+41150   1.459  28.450   5.608
76943NA+    NA+41151  39.389  11.844   2.884
76944NA+    NA+41152  43.397   1.817   3.827
76945NA+    NA+41153  27.178  18.560   4.126
76946NA+    NA+41154  34.496  20.538   0.861
76947NA+    NA+41155  14.795  35.971   0.766
76948NA+    NA+41156  40.936  40.463   2.276
76949NA+    NA+41157  14.157  26.640   3.381
76950NA+    NA+41158  26.607   0.467   0.734
76951NA+    NA+41159  26.958   8.678  12.011
76952NA+    NA+41160  37.351  36.542   0.331
76953NA+    NA+41161  43.451  40.986   1.714
76954NA+    NA+41162  22.527  40.999   2.246
76955NA+    NA+41163   2.265   9.330  10.941
76956NA+    NA+41164  39.927  10.327   0.750
76957NA+    NA+41165   2.943  42.396  14.374
76958NA+    NA+41166  35.442  10.304   3.338
76959NA+    NA+41167  38.051  44.917   1.730
76960NA+    NA+41168  36.546  27.071  14.938
76961NA+    NA+41169  32.421  18.151   4.160
76962NA+    NA+41170  21.602   4.707   3.317
76963NA+    NA+41171  39.985   5.324   5.263
76964NA+    NA+41172  37.421  27.043  14.027
76965NA+    NA+41173  16.583   7.888  13.960
76966NA+    NA+41174  15.228  28.539   2.858
76967NA+    NA+41175   7.294  36.430   0.870
76968NA+    NA+41176  22.707  42.441  10.573
76969NA+    NA+41177  23.640  15.623   4.189
76970NA+    NA+41178  30.640   2.907   1.277
76971NA+    NA+41179  40.350   6.365   1.778
76972NA+    NA+41180  41.399  38.461  14.871
76973NA+    NA+41181  30.632  11.228  11.548
76974NA+    NA+41182  28.053  32.564  12.558
76975NA+    NA+41183  30.645  28.516  10.938
76976NA+    NA+41184   8.248   7.244  13.415
76977NA+    NA+41185  39.811  27.659   2.805
76978NA+    NA+41186  30.637  43.771   2.367
76979NA+    NA+41187   7.802  41.902  10.991
76980NA+    NA+41188   0.489   8.810   4.351
76981NA+    NA+41189  43.386  11.164  14.464
76982NA+    NA+41190   5.310  22.731   4.727
76983NA+    NA+41191  32.497  19.084  12.079
76984NA+    NA+41192   9.714   4.343  11.886
76985NA+    NA+41193  28.653  27.960  12.350
76986NA+    NA+41194  33.425  17.640  12.437
76987NA+    NA+41195  39.023   6.222  12.394
76988NA+    NA+41196   8.810  31.516   4.602
76989NA+    NA+41197  40.334  11.630   3.338
76990NA+    NA+41198  26.556   9.153   4.351
76991NA+    NA+41199  42.495  30.924  13.055
76992NA+    NA+41200  22.130  17.743   1.737
76993NA+    NA+41201   6.684  14.214  14.291
76994NA+    NA+41202   4.222   7.196   3.298
76995NA+    NA+41203  40.523  32.392  13.802
76996NA+    NA+41204  13.249  31.958   1.737
76997NA+    NA+41205   0.933   4.767  13.478
76998NA+    NA+41206  32.035  39.843   0.863
76999NA+    NA+41207  24.223  35.496   4.769
77000NA+    NA+41208  23.993   1.295   4.213
77001NA+    NA+41209  10.785  26.984   3.286
77002NA+    NA+41210  32.080  37.460   5.157
77003NA+    NA+41211  12.668  18.149   1.309
77004NA+    NA+41212  28.081   9.374   2.671
77005NA+    NA+41213   4.330  34.917   0.430
77006NA+    NA+41214  16.721   5.239  13.912
77007NA+    NA+41215  24.165  11.706  13.357
77008NA+    NA+41216  39.046  30.949  14.373
77009NA+    NA+41217   9.366  25.470  11.964
77010NA+    NA+41218  11.295  22.526   0.779
77011NA+    NA+41219  14.704  24.068  12.346
77012NA+    NA+41220  43.295  36.945   9.609
77013NA+    NA+41221   5.811  12.746   1.718
77014NA+    NA+41222   8.382  30.427  10.927
77015NA+    NA+41223  21.232  29.009  10.590
77016NA+    NA+41224   0.896   0.806   1.270
77017NA+    NA+41225   1.281  30.944   3.152
77018NA+    NA+41226  26.518  37.887  13.036
77019NA+    NA+41227  16.594  33.963   4.284
77020NA+    NA+41228  29.151  32.522   2.695
77021NA+    NA+41229  22.176  28.112   2.866
77022NA+    NA+41230  40.452  39.816  10.912
77023NA+    NA+41231  37.342  19.648   9.926
77024NA+    NA+41232   0.922  42.452  11.584
77025NA+    NA+41233   4.721  12.827   9.985
77026NA+    NA+41234  20.547   6.271   3.289
77027NA+    NA+41235  25.188  24.112   3.343
77028NA+    NA+41236   0.884  24.089  11.925
77029NA+    NA+41237  13.633  14.235  14.303
77030NA+    NA+41238  21.046  13.137   3.324
77031NA+    NA+41239  39.894   1.964  12.442
77032NA+    NA+41240  42.981   9.302   3.269
77033NA+    NA+41241  21.146  32.021   5.224
77034NA+    NA+41242  38.974  39.522   0.367
77035NA+    NA+41243  11.277  23.576   2.708
77036NA+    NA+41244  34.899   5.372  11.107
77037NA+    NA+41245  35.985  17.594  11.397
77038NA+    NA+41246  38.358  17.182  13.975
77039NA+    NA+41247   5.420  41.519  14.298
77040NA+    NA+41248  22.730   3.930   0.411
77041NA+    NA+41249  36.592  43.853  10.531
77042NA+    NA+41250  25.678  29.630  13.388
77043NA+    NA+41251  19.536   4.809   4.647
77044NA+    NA+41252  17.131  18.283   1.427
77045NA+    NA+41253  26.638  36.459   5.164
77046NA+    NA+41254   1.387  31.418  13.454
77047NA+    NA+41255  28.680   7.887  13.365
77048NA+    NA+41256  39.932  34.988   4.178
77049NA+    NA+41257  41.392  13.343   2.257
77050NA+    NA+41258  20.728  38.896  14.427
77051NA+    NA+41259   3.286  19.060   1.803
77052NA+    NA+41260   9.197  20.044  13.358
77053NA+    NA+41261  38.882  26.059   3.760
77054NA+    NA+41262   8.783  39.833  12.409
77055NA+    NA+41263  35.374  21.146   2.875
77056NA+    NA+41264  11.274   2.748  12.910
77057NA+    NA+41265  23.531  17.274   3.742
77058NA+    NA+41266  33.932   8.376   0.383
77059NA+    NA+41267  10.244  37.378  12.877
77060NA+    NA+41268  14.624  15.103   3.680
77061NA+    NA+41269   4.784   1.292   4.316
77062NA+    NA+41270   9.797  19.648   0.321
77063NA+    NA+41271  24.573   2.385   4.673
77064NA+    NA+41272  37.039  19.581  10.465
77065NA+    NA+41273   3.360   5.373   0.852
77066NA+    NA+41274  35.086  41.811  14.770
77067NA+    NA+41275  43.018   4.818  11.597
77068NA+    NA+41276   5.217  34.533  14.286
77069NA+    NA+41277  38.434  22.659  12.946
77070NA+    NA+41278   5.394  16.618   4.708
77071NA+    NA+41279  30.520  44.402  14.480
77072NA+    NA+41280  40.413  15.180   1.777
77073NA+    NA+41281  11.248  13.317  14.477
77074NA+    NA+41282  21.031   2.360   3.665
77075NA+    NA+41283  13.154  39.492   4.257
77076NA+    NA+41284  33.617  40.397  13.021
77077NA+    NA+41285  13.780  12.352  14.509
77078NA+    NA+41286  22.621  39.467  14.460
77079NA+    NA+41287  15.722   0.282   2.306
77080NA+    NA+41288  38.050  16.755   2.715
77081NA+    NA+41289  39.475  15.717   4.703
77082NA+    NA+41290  23.223  19.270   5.190
77083NA+    NA+41291  10.159  11.834   4.208
77084NA+    NA+41292  10.876   0.838  14.862
77085NA+    NA+41293  14.212   0.409  10.545
77086NA+    NA+41294   0.888  44.341   4.760
77087NA+    NA+41295   6.243  43.898  10.941
77088NA+    NA+41296  34.912   6.906  10.452
77089NA+    NA+41297  34.485  19.171   4.298
77090NA+    NA+41298  15.647  26.153  11.468
77091NA+    NA+41299  43.974  15.196   1.756
77092NA+    NA+41300  17.610  29.990  13.344
77093NA+    NA+41301  42.904  29.571  14.890
77094NA+    NA+41302  28.015  15.638  13.966
77095NA+    NA+41303  25.690  26.570   2.331
77096NA+    NA+41304  31.117  16.635   0.961
77097NA+    NA+41305  17.736  31.959  10.011
77098NA+    NA+41306  38.909  22.207  10.898
77099NA+    NA+41307  24.099  24.030   1.256
77100NA+    NA+41308  16.311   1.832   0.813
77101NA+    NA+41309  29.028  25.574   4.287
77102NA+    NA+41310  23.121  27.455  11.384
77103NA+    NA+41311  15.201   5.426   2.724
77104NA+    NA+41312  31.424  21.037  14.342
77105NA+    NA+41313  22.573  37.556   5.141
77106NA+    NA+41314  15.599  10.163  13.471
77107NA+    NA+41315  18.241  26.517   0.348
77108NA+    NA+41316  39.888  36.061  11.469
77109NA+    NA+41317  15.241  44.951  10.543
77110NA+    NA+41318  25.154   1.337   2.400
77111NA+    NA+41319  17.688   6.871   0.316
77112NA+    NA+41320  44.378  24.145  10.932
77113NA+    NA+41321   6.702  16.614  11.611
77114NA+    NA+41322  30.938  40.930  13.024
77115NA+    NA+41323   5.328  14.680  12.961
77116NA+    NA+41324  16.122  10.656   1.791
77117NA+    NA+41325  33.916  17.592  14.427
77118NA+    NA+41326  16.141   5.430  14.305
77119NA+    NA+41327  27.580  30.015   1.873
77120NA+    NA+41328  11.196  34.398  13.474
77121NA+    NA+41329  36.881   7.790  14.841
77122NA+    NA+41330  38.010  15.179  14.301
77123NA+    NA+41331  39.341   1.972   0.781
77124NA+    NA+41332  23.663  33.003   0.286
77125NA+    NA+41333  28.953   3.240   4.257
77126NA+    NA+41334  12.189  14.731   5.242
77127NA+    NA+41335   1.310  38.940  14.769
77128NA+    NA+41336  38.864   7.412   5.271
77129NA+    NA+41337  12.140  14.680   1.707
77130NA+    NA+41338  31.091  34.002  12.386
77131NA+    NA+41339  24.584  24.629  14.918
77132NA+    NA+41340  14.707  39.932  13.417
77133NA+    NA+41341   0.483  41.383  11.955
77134NA+    NA+41342  41.395  18.196  14.504
77135NA+    NA+41343  40.847   4.869  14.317
77136NA+    NA+41344  12.622   1.971  11.971
77137NA+    NA+41345   1.350  22.534   3.345
77138NA+    NA+41346  30.455  36.904   1.915
77139NA+    NA+41347   6.241  17.254   1.348
77140NA+    NA+41348  28.963  25.616  14.318
77141NA+    NA+41349  10.198  28.494  12.371
77142NA+    NA+41350  43.784  24.613  12.424
77143NA+    NA+41351  37.375  17.102   0.847
77144NA+    NA+41352  28.481  31.020  14.913
77145NA+    NA+41353  12.680   3.215   2.340
77146NA+    NA+41354  17.119  13.295   4.171
77147NA+    NA+41355  28.527  10.358   3.172
77148NA+    NA+41356   0.287  17.681  12.941
77149NA+    NA+41357  17.220  41.890  12.358
77150NA+    NA+41358  20.587   9.703   9.636
77151NA+    NA+41359  31.488   0.907  12.092
77152NA+    NA+41360  20.611   0.814  12.531
77153NA+    NA+41361  18.157   8.319  12.045
77154NA+    NA+41362   7.264  42.318   2.375
77155NA+    NA+41363   6.760  17.253  10.989
77156NA+    NA+41364  30.124  12.131   4.133
77157NA+    NA+41365   4.235  43.855   4.268
77158NA+    NA+41366   7.773  15.648   4.281
77159NA+    NA+41367  21.083  11.825   4.625
77160NA+    NA+41368  13.207  17.291   4.612
77161NA+    NA+41369  23.133  23.988  12.887
77162NA+    NA+41370  27.071   7.689  10.906
77163NA+    NA+41371  22.125  40.023  14.998
77164NA+    NA+41372  34.512   7.859  13.947
77165NA+    NA+41373  12.284  37.083  10.483
77166NA+    NA+41374  42.846  17.685  11.525
77167NA+    NA+41375  10.772  23.132   2.819
77168NA+    NA+41376  26.687  18.140  10.003
77169NA+    NA+41377  32.888   6.413  13.497
77170NA+    NA+41378  37.468   8.189   2.704
77171NA+    NA+41379  39.463   4.316   2.841
77172NA+    NA+41380  30.584  31.986   0.931
77173NA+    NA+41381  13.110   4.892   2.829
77174NA+    NA+41382  21.652  31.958   0.321
77175NA+    NA+41383   9.361  32.546   1.746
77176NA+    NA+41384   4.240  42.396   2.791
77177NA+    NA+41385  35.994  40.333  14.815
77178NA+    NA+41386   8.391  16.588   0.807
77179NA+    NA+41387  43.819  44.849   0.765
77180NA+    NA+41388  30.571   9.869  13.443
77181NA+    NA+41389   5.896  20.098  13.337
77182NA+    NA+41390   7.318  18.621  11.013
77183NA+    NA+41391  36.997   0.935  11.911
77184NA+    NA+41392  44.320  10.238  13.329
77185NA+    NA+41393  19.190  38.350   2.198
77186NA+    NA+41394   1.418  38.545  10.520
77187NA+    NA+41395  35.413  39.027  13.327
77188NA+    NA+41396  39.552  11.693  10.547
77189NA+    NA+41397  35.427  26.634  10.988
77190NA+    NA+41398  18.610  35.982   2.680
77191NA+    NA+41399  41.017  11.838  13.321
77192NA+    NA+41400  20.137  18.626   4.798
77193NA+    NA+41401  35.972  43.869  12.895
77194NA+    NA+41402  18.293  34.044  13.948
77195NA+    NA+41403   4.302   3.363   2.180
77196NA+    NA+41404  43.290  12.182  11.576
77197NA+    NA+41405   4.300   5.784   0.775
77198NA+    NA+41406   1.754  43.457   4.722
77199NA+    NA+41407  28.491  14.248  13.932
77200NA+    NA+41408  27.670  36.457   3.285
77201NA+    NA+41409  39.455  32.605   1.269
77202NA+    NA+41410  40.492  40.310   5.243
77203NA+    NA+41411  20.087  21.216   3.291
77204NA+    NA+41412  12.615  41.470  13.401
77205NA+    NA+41413  13.327   8.171   0.393
77206NA+    NA+41414  20.119  41.031  10.987
77207NA+    NA+41415  20.185   1.907   2.317
77208NA+    NA+41416  30.530  19.659   3.768
77209NA+    NA+41417  24.102   3.880   3.270
77210NA+    NA+41418   2.841  14.746   0.827
77211NA+    NA+41419   5.390  44.976  11.563
77212NA+    NA+41420  18.688   9.377  10.418
77213NA+    NA+41421  30.933  21.520   0.332
77214NA+    NA+41422  30.063  15.626   2.881
77215NA+    NA+41423  34.989  26.016  14.767
77216NA+    NA+41424  11.257   6.421   1.743
77217NA+    NA+41425  15.296   1.410   4.623
77218NA+    NA+41426  44.282  37.433   0.778
77219NA+    NA+41427  12.717   9.214  13.389
77220NA+    NA+41428  11.205  32.032   1.730
77221NA+    NA+41429  23.104   0.439   1.862
77222NA+    NA+41430  25.710  11.215   3.350
77223NA+    NA+41431  44.295   8.791  11.543
77224NA+    NA+41432  36.361  16.658  13.057
77225NA+    NA+41433  20.076   7.859  10.640
77226NA+    NA+41434  26.037  43.331  13.972
77227NA+    NA+41435  30.041  20.590   0.901
77228NA+    NA+41436   2.746  16.687   2.685
77229NA+    NA+41437  25.138   3.328   3.203
77230NA+    NA+41438  10.707  10.685   0.732
77231NA+    NA+41439  33.548   8.743   2.893
77232NA+    NA+41440  44.001  33.506   1.792
77233NA+    NA+41441   9.753  31.002  10.990
77234NA+    NA+41442  35.377  41.395   2.832
77235NA+    NA+41443  18.619  42.508  13.490
77236NA+    NA+41444  10.812  27.587  10.587
77237NA+    NA+41445  23.657  23.629  13.857
77238NA+    NA+41446  38.546  13.821  13.878
77239NA+    NA+41447   8.168  25.522  13.912
77240NA+    NA+41448  14.714  41.311  10.461
77241NA+    NA+41449  19.653  25.529  14.362
77242NA+    NA+41450   1.291   7.851   2.237
77243NA+    NA+41451  32.958  12.267  11.372
77244NA+    NA+41452  10.638  31.618  14.315
77245NA+    NA+41453   4.741  20.751   5.122
77246NA+    NA+41454   5.351  19.123   3.870
77247NA+    NA+41455  41.809  35.049  10.012
77248NA+    NA+41456  22.024  22.222   1.243
77249NA+    NA+41457  44.289  16.627   2.305
77250NA+    NA+41458  29.943  38.842   3.782
77251NA+    NA+41459  29.425   0.892   2.760
77252NA+    NA+41460  24.976  32.023  12.906
77253NA+    NA+41461  12.624  42.806   4.182
77254NA+    NA+41462  19.698  26.102  12.920
77255NA+    NA+41463  17.234  16.776   0.266
77256NA+    NA+41464   9.798  26.964  12.906
77257NA+    NA+41465  28.464  38.368  12.481
77258NA+    NA+41466   2.353  33.475   4.123
77259NA+    NA+41467   2.256   7.222  10.993
77260NA+    NA+41468   9.793   6.364   1.266
77261NA+    NA+41469   1.969  11.714  13.439
77262NA+    NA+41470  41.924   5.915  11.113
77263NA+    NA+41471  13.659   5.362   0.943
77264NA+    NA+41472  38.437  39.849  10.641
77265NA+    NA+41473   1.748  14.207  13.009
77266NA+    NA+41474  39.383   1.387  11.984
77267NA+    NA+41475  41.399  25.087  14.764
77268NA+    NA+41476  33.016  27.451  13.862
77269NA+    NA+41477  13.229  10.658  12.545
77270NA+    NA+41478   0.436  23.584   2.879
77271NA+    NA+41479  33.485  32.444   2.821
77272NA+    NA+41480   9.212  20.572   3.191
77273NA+    NA+41481  21.756  22.607  10.470
77274NA+    NA+41482  12.361  36.933   1.740
77275NA+    NA+41483  22.555  32.079   3.256
77276NA+    NA+41484   1.756  37.348  13.540
77277NA+    NA+41485  18.662  23.565   2.827
77278NA+    NA+41486  15.626  33.516   4.199
77279NA+    NA+41487  18.186  15.774   4.265
77280NA+    NA+41488  23.130   7.232   2.354
77281NA+    NA+41489  32.591  31.561  13.063
77282NA+    NA+41490  25.203  29.959   4.287
77283NA+    NA+41491  22.025  38.945  11.955
77284NA+    NA+41492  17.732   4.445  10.440
77285NA+    NA+41493  28.100  37.402  12.907
77286NA+    NA+41494   6.868  37.578   1.217
77287NA+    NA+41495  33.384  27.958   0.478
77288NA+    NA+41496   2.747  22.997  14.446
77289NA+    NA+41497  16.733  30.152  12.377
77290NA+    NA+41498  17.656   0.791  12.017
77291NA+    NA+41499  27.464   2.225   4.774
77292NA+    NA+41500   0.869   4.836  14.430
77293NA+    NA+41501  10.290   0.484   3.280
77294NA+    NA+41502  42.318  42.775   0.336
77295NA+    NA+41503   6.314  41.942  13.506
77296NA+    NA+41504   1.779  38.909   0.368
77297NA+    NA+41505   6.309   2.960  10.486
77298NA+    NA+41506   0.321  18.695   0.336
77299NA+    NA+41507  43.510  27.007   1.827
77300NA+    NA+41508  17.787  22.998   2.718
77301NA+    NA+41509  10.280   2.442   2.756
77302NA+    NA+41510  31.577  41.798  12.832
77303NA+    NA+41511  30.161  17.555   4.729
77304NA+    NA+41512  36.005  23.720   3.769
77305NA+    NA+41513  39.833   2.921  13.962
77306NA+    NA+41514  25.061   3.379   2.759
77307NA+    NA+41515  25.594  10.141  12.941
77308NA+    NA+41516  30.017  37.844  12.910
77309NA+    NA+41517  30.646  11.680   0.258
77310NA+    NA+41518  13.188  38.426  10.439
77311NA+    NA+41519  29.540  40.862   0.828
77312NA+    NA+41520   1.878   8.222  14.780
77313NA+    NA+41521  15.773  18.243  13.008
77314NA+    NA+41522  11.743  12.244  12.961
77315NA+    NA+41523  24.208   1.767  13.372
77316NA+    NA+41524  24.094  31.635  12.500
77317NA+    NA+41525  15.241   2.821   4.793
77318NA+    NA+41526  30.529  40.918   1.255
77319NA+    NA+41527  30.136  14.330   9.440
77320NA+    NA+41528  23.153   4.323   2.854
77321NA+    NA+41529  31.486  27.601   2.683
77322NA+    NA+41530  15.670  10.672   0.274
77323NA+    NA+41531   4.920  22.214   0.815
77324NA+    NA+41532  20.683   9.811  13.016
77325NA+    NA+41533  15.666  31.410   4.601
77326NA+    NA+41534  33.435  23.538  12.532
77327NA+    NA+41535   8.813  27.482  13.486
77328NA+    NA+41536  21.241   3.915   0.939
77329NA+    NA+41537   9.815  17.678  13.890
77330NA+    NA+41538   9.234  35.905  14.773
77331NA+    NA+41539   5.851   2.838  11.976
77332NA+    NA+41540  41.921   0.931  14.414
77333NA+    NA+41541  42.336  24.578  13.406
77334NA+    NA+41542   5.709  32.116   2.345
77335NA+    NA+41543  38.536  15.725  12.526
77336NA+    NA+41544  32.132  21.033  11.056
77337NA+    NA+41545  15.704  39.825  12.836
77338NA+    NA+41546  22.523  14.716  10.493
77339NA+    NA+41547  20.089  10.287   2.676
77340NA+    NA+41548  40.465  36.416  12.382
77341NA+    NA+41549  17.782  18.168  11.026
77342NA+    NA+41550  18.634  23.518   0.411
77343NA+    NA+41551  41.006   5.747   5.784
77344NA+    NA+41552  27.032   6.854   4.775
77345NA+    NA+41553  40.469  21.702   5.614
77346NA+    NA+41554  36.934  23.040   4.309
77347NA+    NA+41555  10.801  11.314  10.028
77348NA+    NA+41556  44.297  28.543  12.093
77349NA+    NA+41557  19.054  18.222  12.919
77350NA+    NA+41558   4.749   9.757   4.314
77351NA+    NA+41559   7.380   5.304  13.399
77352NA+    NA+41560  27.523  21.580   0.856
77353NA+    NA+41561  30.107  40.953   4.226
77354NA+    NA+41562  26.962   9.661   1.716
77355NA+    NA+41563   5.250  14.136  12.494
77356NA+    NA+41564  40.469  24.192   0.472
77357NA+    NA+41565  28.982  29.647  10.629
77358NA+    NA+41566  20.235   4.315  14.341
77359NA+    NA+41567  17.232   5.257  13.047
77360NA+    NA+41568  21.747   9.314   4.349
77361NA+    NA+41569  29.536  18.666  10.496
77362NA+    NA+41570  28.174  24.222   3.324
77363NA+    NA+41571  42.835  31.017   1.277
77364NA+    NA+41572  32.955  12.676  14.018
77365NA+    NA+41573   4.370   0.954   2.312
77366NA+    NA+41574   0.332   8.322   4.113
77367NA+    NA+41575  27.080  41.315  13.939
77368NA+    NA+41576   8.180   4.809   0.361
77369NA+    NA+41577   5.763   6.215  11.606
77370NA+    NA+41578  37.976  21.259  12.918
77371NA+    NA+41579  14.207  36.063  13.880
77372NA+    NA+41580  38.521  43.344   1.852
77373NA+    NA+41581  43.964  42.516  14.981
77374NA+    NA+41582   8.211  41.939   2.242
77375NA+    NA+41583   2.269  11.680  12.374
77376NA+    NA+41584  20.075  11.748  10.628
77377NA+    NA+41585   4.391  43.955   2.260
77378NA+    NA+41586  11.244   5.798  13.853
77379NA+    NA+41587   5.277  14.673   1.322
77380NA+    NA+41588   5.271  30.555  13.313
77381NA+    NA+41589  31.932   8.894  13.837
77382NA+    NA+41590  18.753  21.670  12.070
77383NA+    NA+41591  26.199  27.561  12.894
77384NA+    NA+41592  38.956   6.284   1.697
77385NA+    NA+41593  38.335   6.829   0.869
77386NA+    NA+41594  23.063   8.208   1.269
77387NA+    NA+41595  37.396  15.223   2.188
77388NA+    NA+41596  24.674  26.675  11.442
77389NA+    NA+41597  27.193   3.844  12.377
77390NA+    NA+41598  26.124  12.640   2.412
77391NA+    NA+41599  31.896  18.081   0.919
77392NA+    NA+41600  36.461   3.407   3.722
77393NA+    NA+41601  18.758  29.596   3.341
77394NA+    NA+41602  40.937  11.135   0.376
77395NA+    NA+41603  23.108  15.628   2.762
77396NA+    NA+41604  30.543  16.600  14.026
77397NA+    NA+41605   7.366  24.106  11.064
77398NA+    NA+41606  32.897  24.161  12.420
77399NA+    NA+41607  16.311  31.433  13.012
77400NA+    NA+41608  19.705  20.713  13.047
77401NA+    NA+41609   2.962  19.123  12.529
77402NA+    NA+41610  29.611  22.664  13.350
77403NA+    NA+41611   6.734   7.173   1.909
77404NA+    NA+41612  14.208  35.390   0.835
77405NA+    NA+41613  42.368   3.412  11.969
77406NA+    NA+41614  10.674  25.998   2.236
77407NA+    NA+41615  11.279  35.464  11.089
77408NA+    NA+41616   0.298   3.914   0.783
77409NA+    NA+41617  43.816   5.211   1.845
77410NA+    NA+41618   6.860   8.228  11.480
77411NA+    NA+41619  40.906  37.917  14.803
77412NA+    NA+41620   4.902  14.167   2.839
77413NA+    NA+41621  10.796  21.714   3.312
77414NA+    NA+41622  11.676  22.574   2.678
77415NA+    NA+41623  11.825  31.533   2.764
77416NA+    NA+41624  44.292   1.256  11.917
77417NA+    NA+41625   8.797   7.415  10.471
77418NA+    NA+41626   2.879  35.985   9.951
77419NA+    NA+41627  18.707   1.885  14.478
77420NA+    NA+41628   0.364  41.330  13.509
77421NA+    NA+41629   9.273  19.625   3.331
77422NA+    NA+41630  18.216  22.245  11.983
77423NA+    NA+41631  38.923   5.840   0.341
77424NA+    NA+41632  42.808  13.349  11.483
77425NA+    NA+41633   9.326   0.254  14.993
77426NA+    NA+41634  14.710  40.533  10.455
77427NA+    NA+41635  30.646  11.667  13.791
77428NA+    NA+41636  28.644   3.362  11.963
77429NA+    NA+41637  41.302  39.990  12.345
77430NA+    NA+41638   3.316  28.975   1.907
77431NA+    NA+41639   4.227  12.163   1.402
77432NA+    NA+41640  38.844  29.168  12.347
77433NA+    NA+41641  14.799  36.431   1.370
77434NA+    NA+41642  23.042   7.829   0.333
77435NA+    NA+41643  11.168   4.857  10.460
77436NA+    NA+41644  18.186   4.261  12.020
77437NA+    NA+41645  35.042  23.072   4.354
77438NA+    NA+41646   1.434   9.368   2.260
77439NA+    NA+41647   8.187   2.838   4.188
77440NA+    NA+41648  25.157  27.628  13.896
77441NA+    NA+41649  21.667  40.404  14.457
77442NA+    NA+41650  19.726  14.336   4.268
77443NA+    NA+41651  36.459  35.381   2.244
77444NA+    NA+41652   2.906  31.916   3.649
77445NA+    NA+41653  18.694  29.063  14.010
77446NA+    NA+41654  40.486   7.291  10.022
77447NA+    NA+41655   4.738  19.693  10.416
77448NA+    NA+41656   1.447  39.952   0.808
77449NA+    NA+41657  11.734  12.745  11.869
77450NA+    NA+41658   6.229   9.372  14.297
77451NA+    NA+41659  40.925  36.541   1.300
77452NA+    NA+41660  38.068  40.913   4.173
77453NA+    NA+41661  23.699  38.381  12.860
77454NA+    NA+41662   7.387  27.632   4.146
77455NA+    NA+41663  22.713  39.821  11.124
77456NA+    NA+41664   8.756  27.548  13.026
77457NA+    NA+41665  13.836  44.787   4.807
77458NA+    NA+41666   4.895   0.908  13.929
77459NA+    NA+41667  29.946  17.105   4.180
77460NA+    NA+41668  32.505  33.423  13.791
77461NA+    NA+41669  13.164  12.312  11.061
77462NA+    NA+41670  22.578  17.100  14.401
77463NA+    NA+41671  28.674   4.747  14.345
77464NA+    NA+41672  29.097  38.999   0.797
77465NA+    NA+41673  27.504  10.287   0.481
77466NA+    NA+41674  38.340  33.904  12.520
77467NA+    NA+41675  19.116  40.339  14.425
77468NA+    NA+41676  39.339  39.876   0.339
77469NA+    NA+41677   0.333   3.781   4.695
77470NA+    NA+41678  10.645   3.759   2.349
77471NA+    NA+41679  21.674  11.312  14.838
77472NA+    NA+41680  13.290  40.400   1.410
77473NA+    NA+41681  39.820  14.178   4.298
77474NA+    NA+41682  40.354  29.978   3.291
77475NA+    NA+41683  40.001  33.415  14.303
77476NA+    NA+41684  17.698  12.355   0.893
77477NA+    NA+41685  27.659  42.469   1.893
77478NA+    NA+41686  23.106  28.502   3.842
77479NA+    NA+41687  30.636  41.025  11.035
77480NA+    NA+41688  42.484  43.508   4.709
77481NA+    NA+41689  26.475   7.725   2.255
77482NA+    NA+41690  21.757  37.448   1.390
77483NA+    NA+41691   9.689  42.387  13.406
77484NA+    NA+41692  14.727  42.295  14.296
77485NA+    NA+41693  15.204   3.947  14.024
77486NA+    NA+41694   4.879  18.153   1.253
77487NA+    NA+41695  39.490   6.182  10.146
77488NA+    NA+41696  13.657  12.250   4.657
77489NA+    NA+41697  38.561   2.312   3.190
77490NA+    NA+41698  32.035  26.142   4.716
77491NA+    NA+41699  43.936  26.092   2.222
77492NA+    NA+41700  21.736  39.002  13.875
77493NA+    NA+41701  14.170   1.366  15.000
77494NA+    NA+41702  21.699  10.704   3.168
77495NA+    NA+41703  41.911  40.926   3.290
77496NA+    NA+41704   0.378   6.771  11.910
77497NA+    NA+41705  41.474   6.803  11.375
77498NA+    NA+41706  13.182   9.796  13.385
77499NA+    NA+41707   4.903  10.823  10.999
77500NA+    NA+41708  35.488   0.853   0.848
77501NA+    NA+41709   6.286  41.935   4.768
77502NA+    NA+41710  42.842  13.141  14.995
77503NA+    NA+41711  36.497  30.979  12.554
77504NA+    NA+41712  12.684  34.592   1.429
77505NA+    NA+41713   6.757  13.186  10.422
77506NA+    NA+41714  14.643  27.194   0.782
77507NA+    NA+41715  39.555  34.065   2.364
77508NA+    NA+41716  24.590  38.986   4.742
77509NA+    NA+41717   9.368  16.728   3.742
77510NA+    NA+41718  29.980   8.362  14.976
77511NA+    NA+41719   8.754  41.437  11.056
77512NA+    NA+41720  15.326  20.087   1.217
77513NA+    NA+41721  33.532   3.793   0.373
77514NA+    NA+41722  14.633  37.512   4.671
77515NA+    NA+41723   6.193  40.023  13.870
77516NA+    NA+41724  12.290   0.757   2.833
77517NA+    NA+41725  19.088   7.876   4.604
77518NA+    NA+41726  28.439  44.472   1.775
77519NA+    NA+41727  44.850   4.340   4.244
77520NA+    NA+41728  38.928  25.033   2.891
77521NA+    NA+41729   2.801  35.593   4.280
77522NA+    NA+41730  11.806   4.929  10.049
77523NA+    NA+41731  32.415  15.745   1.765
77524NA+    NA+41732   4.261  18.245  12.846
77525NA+    NA+41733   9.214  25.184   0.426
77526NA+    NA+41734   9.838  13.682   3.278
77527NA+    NA+41735   1.929   5.833  13.826
77528NA+    NA+41736  13.708  28.144  10.957
77529NA+    NA+41737   5.250  24.557  14.881
77530NA+    NA+41738  22.625   0.342  11.120
77531NA+    NA+41739  14.799  15.098  12.416
77532NA+    NA+41740   3.888   4.841  10.421
77533NA+    NA+41741  32.419   1.422  13.837
77534NA+    NA+41742  39.894   4.899  11.513
77535NA+    NA+41743  38.480  43.826  10.620
77536NA+    NA+41744  23.693  20.107   2.670
77537NA+    NA+41745  27.160  14.794  13.540
77538NA+    NA+41746  14.731  15.120  11.029
77539NA+    NA+41747   6.236  33.543  14.891
77540NA+    NA+41748  24.495  19.534   2.221
77541NA+    NA+41749  20.577   5.696   1.879
77542NA+    NA+41750  32.114  32.459  12.349
77543NA+    NA+41751  27.009  28.082   3.857
77544NA+    NA+41752   6.264   5.786  13.485
77545NA+    NA+41753  15.095  43.324   3.294
77546NA+    NA+41754   8.862  37.546   0.845
77547NA+    NA+41755  16.587  29.929   1.744
77548NA+    NA+41756  28.100  15.779  11.872
77549NA+    NA+41757   7.247   9.812   0.405
77550NA+    NA+41758  40.866  28.640   0.253
77551NA+    NA+41759   6.293  15.667  12.832
77552NA+    NA+41760  16.779   4.703  13.860
77553NA+    NA+41761  13.201  12.221  14.785
77554NA+    NA+41762  14.212   0.471   0.451
77555NA+    NA+41763  29.651  19.754   4.346
77556NA+    NA+41764   4.419   1.815  12.884
77557NA+    NA+41765  42.396   4.440  10.581
77558NA+    NA+41766  29.012   6.282   3.868
77559NA+    NA+41767  22.188  18.193   3.350
77560NA+    NA+41768   7.329  33.108   4.240
77561NA+    NA+41769   5.924   4.292   1.919
77562NA+    NA+41770  40.975   5.815   5.177
77563NA+    NA+41771  41.918  25.090  14.761
77564NA+    NA+41772  31.593  35.599  10.465
77565NA+    NA+41773  31.960   7.202  12.856
77566NA+    NA+41774  42.487  40.914  10.911
77567NA+    NA+41775  25.585  12.788   4.825
77568NA+    NA+41776  30.552  31.531  13.380
77569NA+    NA+41777  24.168  23.716   5.089
77570NA+    NA+41778  37.537   5.769   1.718
77571NA+    NA+41779  27.014  35.905   2.894
77572NA+    NA+41780  32.492   2.966   3.812
77573NA+    NA+41781  18.109  29.926  13.917
77574NA+    NA+41782  36.447  36.940   1.422
77575NA+    NA+41783  10.250  42.468  14.329
77576NA+    NA+41784  35.506  17.257  14.499
77577NA+    NA+41785  13.782  40.454  14.772
77578NA+    NA+41786  33.393  11.625  10.569
77579NA+    NA+41787  34.600   9.342   4.599
77580NA+    NA+41788  10.253   0.379   1.820
77581NA+    NA+41789  17.297  35.551  11.983
77582NA+    NA+41790  17.691   5.345   0.965
77583NA+    NA+41791  36.396  26.131   0.262
77584NA+    NA+41792  42.954   1.328  13.351
77585NA+    NA+41793  33.483  34.975   1.716
77586NA+    NA+41794  40.904  24.044   0.812
77587NA+    NA+41795  33.616  37.056  14.319
77588NA+    NA+41796  28.042  39.038   0.759
77589NA+    NA+41797  14.101  37.409  13.020
77590NA+    NA+41798  11.355  17.160   2.229
77591NA+    NA+41799  25.059   1.295   3.259
77592NA+    NA+41800  34.583  38.498   3.156
77593NA+    NA+41801  11.740  24.551  12.048
77594NA+    NA+41802  22.095  40.852   4.132
77595NA+    NA+41803   5.201  29.629   4.715
77596NA+    NA+41804  21.601  26.978   0.731
77597NA+    NA+41805  17.120  22.089  13.832
77598NA+    NA+41806  37.057   8.257  14.416
77599NA+    NA+41807  17.591   3.799   1.443
77600NA+    NA+41808  33.619  25.028  13.472
77601NA+    NA+41809  32.963  43.504   4.640
77602NA+    NA+41810   6.331  21.600   2.887
77603NA+    NA+41811  43.385  20.203   1.872
77604NA+    NA+41812  40.811  44.390   4.614
77605NA+    NA+41813  28.629  22.067   2.861
77606NA+    NA+41814   7.177  26.542  11.123
77607NA+    NA+41815  33.934  31.972  14.343
77608NA+    NA+41816  22.645   8.171  14.786
77609NA+    NA+41817  30.152  19.763  11.600
77610NA+    NA+41818   0.747  43.459   3.685
77611NA+    NA+41819  12.216   1.424  10.608
77612NA+    NA+41820  40.020   5.720  10.502
77613NA+    NA+41821   9.839  11.633   2.898
77614NA+    NA+41822  36.577  35.567   4.149
77615NA+    NA+41823  22.158  39.330  12.986
77616NA+    NA+41824   0.922  13.245  14.921
77617NA+    NA+41825  11.722  36.886   3.860
77618NA+    NA+41826  28.443  25.520  11.605
77619NA+    NA+41827  11.785  18.556  14.806
77620NA+    NA+41828   4.267   1.752  10.925
77621NA+    NA+41829  23.169  18.201   2.700
77622NA+    NA+41830   6.692   0.846   3.307
77623NA+    NA+41831  35.887  36.563   3.297
77624NA+    NA+41832  33.988  44.976  14.866
77625NA+    NA+41833  38.830  26.492  11.501
77626NA+    NA+41834  43.995  17.233   3.739
77627NA+    NA+41835  21.209  37.489   0.390
77628NA+    NA+41836   9.289  32.998   4.257
77629NA+    NA+41837  40.388  17.148   5.094
77630NA+    NA+41838  24.525  41.294   4.278
77631NA+    NA+41839  37.546  25.574  14.793
77632NA+    NA+41840  29.108  39.510  10.623
77633NA+    NA+41841  35.465  39.850  12.969
77634NA+    NA+41842  29.496  41.309  13.431
77635NA+    NA+41843  19.600   0.857  10.491
77636NA+    NA+41844  21.635   6.839  12.052
77637NA+    NA+41845  24.540  27.610  12.887
77638NA+    NA+41846  17.097  31.562   1.345
77639NA+    NA+41847  18.684  10.298   1.851
77640NA+    NA+41848  31.002   1.266  13.450
77641NA+    NA+41849  22.084  36.589  11.964
77642NA+    NA+41850   6.306  23.199   0.740
77643NA+    NA+41851  40.360  32.543   3.286
77644NA+    NA+41852  41.339  38.373   0.454
77645NA+    NA+41853  36.016  39.053  12.052
77646NA+    NA+41854  30.023  15.093   3.240
77647NA+    NA+41855   9.744  24.724   0.731
77648NA+    NA+41856  39.061  13.307   3.636
77649NA+    NA+41857  37.384  20.756   1.368
77650NA+    NA+41858  41.857  21.209  14.032
77651NA+    NA+41859  41.441   7.365   2.206
77652NA+    NA+41860  17.104  17.185  12.473
77653NA+    NA+41861  24.114  32.998  10.433
77654NA+    NA+41862   7.881  26.465   0.420
77655NA+    NA+41863   7.375  24.148  11.453
77656NA+    NA+41864  25.686  29.080   2.748
77657NA+    NA+41865  12.731  26.160  10.423
77658NA+    NA+41866   2.315  17.292  12.482
77659NA+    NA+41867  28.148   9.686  11.571
77660NA+    NA+41868  11.800  28.488   4.676
77661NA+    NA+41869  36.551  15.723  12.537
77662NA+    NA+41870  10.350  35.423   3.162
77663NA+    NA+41871   2.892  36.538  11.005
77664NA+    NA+41872  16.154  37.396   2.188
77665NA+    NA+41873  38.497  42.844   2.382
77666NA+    NA+41874   9.375  10.711   4.795
77667NA+    NA+41875  18.633  17.134  10.934
77668NA+    NA+41876  18.589  34.066  10.916
77669NA+    NA+41877  20.751  13.194   4.292
77670NA+    NA+41878  31.451  38.362  11.402
77671NA+    NA+41879   2.888  20.164   3.739
77672NA+    NA+41880  41.331  16.216  13.060
77673NA+    NA+41881  25.097  32.544   1.342
77674NA+    NA+41882  44.829   7.780  14.994
77675NA+    NA+41883   9.195   0.257   4.720
77676NA+    NA+41884  13.142   8.712   2.781
77677NA+    NA+41885  37.049  14.115   0.262
77678NA+    NA+41886  43.900  15.085   3.228
77679NA+    NA+41887  13.269  32.492  12.944
77680NA+    NA+41888  20.092  31.440  12.074
77681NA+    NA+41889  35.598  28.612  11.969
77682NA+    NA+41890  37.537  39.444  10.930
77683NA+    NA+41891   7.391  21.051  11.016
77684NA+    NA+41892   8.174   5.261   2.708
77685NA+    NA+41893   6.908  18.156  13.842
77686NA+    NA+41894   9.853  34.895   2.867
77687NA+    NA+41895  32.994  29.480  12.836
77688NA+    NA+41896   2.866  14.671  13.397
77689NA+    NA+41897  44.441  16.583  14.312
77690NA+    NA+41898   2.854  36.360   1.280
77691NA+    NA+41899  38.530  24.565  10.904
77692NA+    NA+41900   3.755  11.698   3.313
77693NA+    NA+41901  19.617  28.154   0.785
77694NA+    NA+41902  20.611  32.501  13.458
77695NA+    NA+41903  38.453  41.963   4.602
77696NA+    NA+41904  41.494  27.041  13.064
77697NA+    NA+41905  25.972   2.867  11.056
77698NA+    NA+41906  21.618  19.677  11.860
77699NA+    NA+41907  41.520  14.198   2.302
77700NA+    NA+41908  39.845  25.985  14.768
77701NA+    NA+41909   0.869   2.267  10.974
77702NA+    NA+41910  19.110  14.638  14.020
77703NA+    NA+41911   5.740  20.719   3.376
77704NA+    NA+41912  25.562   9.262  14.331
77705NA+    NA+41913  10.372  41.013   4.680
77706NA+    NA+41914  17.137  20.767   2.249
77707NA+    NA+41915   9.252  38.841   0.866
77708NA+    NA+41916  27.183   8.900  11.583
77709NA+    NA+41917  33.550   4.707   4.759
77710NA+    NA+41918  28.656  29.611   1.237
77711NA+    NA+41919  20.640  29.044   2.200
77712NA+    NA+41920  17.636   9.741   3.269
77713NA+    NA+41921   4.406   0.776   1.230
77714NA+    NA+41922  17.703  13.238  14.011
77715NA+    NA+41923  41.937  40.512  11.898
77716NA+    NA+41924   4.773  13.705   3.736
77717NA+    NA+41925  15.327  26.579  12.075
77718NA+    NA+41926  10.165  10.213   2.272
77719NA+    NA+41927   1.421   0.884  13.457
77720NA+    NA+41928   5.422  38.076  12.363
77721NA+    NA+41929   9.659   3.738   1.372
77722NA+    NA+41930  28.651  11.629  13.511
77723NA+    NA+41931   8.202  15.085  14.028
77724NA+    NA+41932  19.157  32.119   1.733
77725NA+    NA+41933  10.692  39.849  10.432
77726NA+    NA+41934  38.037   3.945   4.260
77727NA+    NA+41935   0.854  15.300   1.395
77728NA+    NA+41936  30.639  25.039   0.733
77729NA+    NA+41937  31.485   6.749   1.409
77730NA+    NA+41938  18.288  32.018   2.790
77731NA+    NA+41939  11.141  24.079   3.300
77732NA+    NA+41940  16.590  13.307   3.732
77733NA+    NA+41941  17.150  39.898   1.717
77734NA+    NA+41942  41.863  23.574   1.438
77735NA+    NA+41943   9.675  32.920   4.834
77736NA+    NA+41944  23.000  10.756  12.546
77737NA+    NA+41945  35.109  16.597   0.850
77738NA+    NA+41946   5.250  43.454  12.995
77739NA+    NA+41947  12.691   9.698   1.801
77740NA+    NA+41948  36.495   1.839  10.060
77741NA+    NA+41949  34.480  34.584   4.324
77742NA+    NA+41950  22.562  36.519  14.296
77743NA+    NA+41951  44.462   1.416  13.480
77744NA+    NA+41952  39.050  37.938  11.512
77745NA+    NA+41953  17.284  22.225   2.834
77746NA+    NA+41954  10.289  40.538  14.430
77747NA+    NA+41955  31.111  23.037   4.254
77748NA+    NA+41956   1.919  39.944   3.802
77749NA+    NA+41957   2.239  38.025   0.463
77750NA+    NA+41958   1.765  36.030  11.116
77751NA+    NA+41959  40.440  24.494  12.990
77752NA+    NA+41960  15.123   0.407   4.248
77753NA+    NA+41961  22.034  35.431   3.221
77754NA+    NA+41962  16.602  24.592  11.498
77755NA+    NA+41963  21.691  12.342  12.454
77756NA+    NA+41964   1.338  35.944  11.055
77757NA+    NA+41965  20.569  21.173   2.726
77758NA+    NA+41966   7.711  39.862   3.870
77759NA+    NA+41967   9.836  35.928   2.349
77760NA+    NA+41968  40.997   8.844   0.804
77761NA+    NA+41969  30.658  38.012  10.444
77762NA+    NA+41970  36.076  30.952   4.177
77763NA+    NA+41971  43.365   3.735  14.473
77764NA+    NA+41972  33.424  39.937  12.867
77765NA+    NA+41973  33.421  43.473  10.622
77766NA+    NA+41974  20.530  30.983   3.345
77767NA+    NA+41975  42.826  24.670  14.287
77768NA+    NA+41976  20.754  10.781   0.359
77769NA+    NA+41977  16.627  26.202   1.756
77770NA+    NA+41978  15.782  37.388   4.830
77771NA+    NA+41979  30.492  44.334  10.639
77772NA+    NA+41980  34.916  41.460  11.950
77773NA+    NA+41981  13.645  26.028   2.418
77774NA+    NA+41982  22.243  37.363  14.798
77775NA+    NA+41983  26.469  23.183   0.890
77776NA+    NA+41984  30.544  32.533   3.367
77777NA+    NA+41985  39.397  20.709   4.673
77778NA+    NA+41986  12.713  32.887   2.274
77779NA+    NA+41987  11.648  18.278   1.398
77780NA+    NA+41988  40.885  16.600  14.450
77781NA+    NA+41989   0.310  44.909   4.323
77782NA+    NA+41990  29.507   5.752   4.270
77783NA+    NA+41991  19.163  32.572  14.932
77784NA+    NA+41992  33.492  23.716  14.426
77785NA+    NA+41993  11.793  22.542   2.220
77786NA+    NA+41994  20.732   3.747   5.716
77787NA+    NA+41995   8.776  37.427   2.801
77788NA+    NA+41996  12.634  13.336   0.903
77789NA+    NA+41997   3.252  40.404   1.447
77790NA+    NA+41998  34.091  37.846  13.820
77791NA+    NA+41999  22.207  30.603   1.920
77792NA+    NA+42000  17.303  33.416   0.262
77793NA+    NA+42001  34.441   0.978   4.282
77794NA+    NA+42002  11.828   7.695  13.896
77795NA+    NA+42003  27.660  25.695   0.754
77796NA+    NA+42004  15.132  25.176  12.339
77797NA+    NA+42005   3.803  36.485   2.754
77798NA+    NA+42006  44.262  20.165  13.934
77799NA+    NA+42007   0.492  41.313   0.731
77800NA+    NA+42008  34.110   3.855  14.973
77801NA+    NA+42009   9.253   0.437   3.375
77802NA+    NA+42010  30.153  19.653  13.369
77803NA+    NA+42011   1.343  31.563  11.880
77804NA+    NA+42012  26.041  40.916  10.921
77805NA+    NA+42013   2.283  25.696  12.967
77806NA+    NA+42014  26.627   1.920   4.311
77807NA+    NA+42015  19.146  43.460   0.302
77808NA+    NA+42016  20.545  16.143  13.324
77809NA+    NA+42017  16.203  37.484   4.617
77810NA+    NA+42018  36.965  10.327  10.892
77811NA+    NA+42019   9.234  30.123  11.907
77812NA+    NA+42020  14.206  35.012  11.889
77813NA+    NA+42021  36.409   6.792  10.496
77814NA+    NA+42022  42.928  33.427   0.913
77815NA+    NA+42023  20.227   6.747   2.280
77816NA+    NA+42024  26.500  20.073  11.493
77817NA+    NA+42025  31.066  37.970   0.333
77818NA+    NA+42026   2.316   6.752  12.483
77819NA+    NA+42027  32.954   5.914  14.761
77820NA+    NA+42028  11.630  27.063  13.986
77821NA+    NA+42029  44.446   9.374   0.863
77822NA+    NA+42030  37.383  22.094   0.776
77823NA+    NA+42031  23.160  41.319  14.966
77824NA+    NA+42032  13.707  18.186  13.421
77825NA+    NA+42033  38.946  40.342   2.701
77826NA+    NA+42034  25.569  27.538  11.525
77827NA+    NA+42035   6.200  31.538   0.872
77828NA+    NA+42036  38.055   3.728  10.147
77829NA+    NA+42037  22.598  39.950   1.363
77830NA+    NA+42038  16.755  22.702  14.500
77831NA+    NA+42039  41.971  15.672  14.020
77832NA+    NA+42040  13.322  19.764  13.313
77833NA+    NA+42041   4.259   9.172   0.370
77834NA+    NA+42042  43.343  12.640  14.288
77835NA+    NA+42043  20.178  21.605  14.352
77836NA+    NA+42044  44.776  25.056  11.488
77837NA+    NA+42045  17.181  18.100  13.879
77838NA+    NA+42046  39.855  23.653  14.847
77839NA+    NA+42047  21.572  27.654   1.834
77840NA+    NA+42048  18.203   3.335  11.921
77841NA+    NA+42049  13.790  17.800  13.488
77842NA+    NA+42050  32.509  15.202  13.338
77843NA+    NA+42051  12.132  29.494   4.705
77844NA+    NA+42052   1.248  34.016   4.280
77845NA+    NA+42053   4.311  25.164   0.330
77846NA+    NA+42054  33.497  37.444  11.463
77847NA+    NA+42055   1.244  21.721  14.774
77848NA+    NA+42056   2.466  29.630   2.341
77849NA+    NA+42057   2.416  16.283  11.938
77850NA+    NA+42058  39.812  18.081   2.345
77851NA+    NA+42059  36.526  31.405   1.236
77852NA+    NA+42060  15.591  39.024  11.052
77853NA+    NA+42061  35.370  21.696  10.530
77854NA+    NA+42062   0.849  10.141  10.035
77855NA+    NA+42063  43.311   4.401  13.957
77856NA+    NA+42064   1.320  18.125   4.174
77857NA+    NA+42065  12.658  22.096  11.076
77858NA+    NA+42066   1.740  27.087  13.451
77859NA+    NA+42067  19.592   5.788  13.440
77860NA+    NA+42068  21.043  11.372   2.820
77861NA+    NA+42069  23.077  31.487  11.460
77862NA+    NA+42070  33.081   4.726  13.930
77863NA+    NA+42071  37.445   0.886   4.264
77864NA+    NA+42072  30.008  24.703  11.379
77865NA+    NA+42073   1.790  20.555   0.743
77866NA+    NA+42074  32.583  21.147  10.970
77867NA+    NA+42075   2.371  36.405  10.046
77868NA+    NA+42076  11.666  23.067   3.803
77869NA+    NA+42077  37.361  41.407   4.657
77870NA+    NA+42078  14.301   1.444  13.895
77871NA+    NA+42079  29.937   4.219  13.842
77872NA+    NA+42080  31.972  40.884  12.379
77873NA+    NA+42081  32.938   7.881  14.432
77874NA+    NA+42082  38.844  33.511  12.509
77875NA+    NA+42083   7.301  35.590   2.751
77876NA+    NA+42084  32.939  29.126  11.878
77877NA+    NA+42085  44.935  14.225   2.873
77878NA+    NA+42086   5.428  19.591  11.864
77879NA+    NA+42087  44.348  22.706   4.178
77880NA+    NA+42088  26.486  19.263  12.846
77881NA+    NA+42089  23.694   5.418   0.922
77882NA+    NA+42090  11.673  18.236  11.973
77883NA+    NA+42091  35.996  10.721   2.832
77884NA+    NA+42092  15.122   1.459   2.818
77885NA+    NA+42093  36.463  30.522   2.212
77886NA+    NA+42094  23.136  18.589   1.851
77887NA+    NA+42095  20.524  41.431   4.699
77888NA+    NA+42096   8.244  44.919   4.224
77889NA+    NA+42097  11.777  20.066  11.023
77890NA+    NA+42098  36.559   4.854  14.352
77891NA+    NA+42099   4.725   8.815  13.404
77892NA+    NA+42100  28.455   2.240  14.516
77893NA+    NA+42101   9.396  33.536   4.244
77894NA+    NA+42102   1.781  30.020   9.970
77895NA+    NA+42103  15.797  21.155   1.291
77896NA+    NA+42104  14.648  42.985  14.762
77897NA+    NA+42105  42.497  31.026   2.260
77898NA+    NA+42106  21.261   4.937   3.189
77899NA+    NA+42107  14.184  19.040   0.848
77900NA+    NA+42108  39.933  27.999  10.539
77901NA+    NA+42109  41.982   5.880  11.575
77902NA+    NA+42110  16.790  35.004  10.577
77903NA+    NA+42111  11.682  42.316   4.352
77904NA+    NA+42112  10.834  41.978  12.536
77905NA+    NA+42113  16.608  11.661   2.321
77906NA+    NA+42114   2.935  17.090   0.322
77907NA+    NA+42115  12.230  42.503   1.397
77908NA+    NA+42116  10.690  22.105  10.987
77909NA+    NA+42117  39.955  36.407  11.437
77910NA+    NA+42118  16.111  30.076  14.293
77911NA+    NA+42119   8.843   6.771   4.810
77912NA+    NA+42120   7.762  16.306   2.223
77913NA+    NA+42121  21.163  20.031   1.862
77914NA+    NA+42122   5.704  15.177   2.222
77915NA+    NA+42123  33.002   9.861  13.521
77916NA+    NA+42124  27.582  11.624  11.422
77917NA+    NA+42125  41.307  14.227  12.455
77918NA+    NA+42126  42.415  11.657  14.287
77919NA+    NA+42127   4.722  24.224  12.877
77920NA+    NA+42128  20.578  16.167   9.608
77921NA+    NA+42129  11.286  25.553  12.017
77922NA+    NA+42130  31.423  44.497  14.014
77923NA+    NA+42131   0.782  10.814  14.024
77924NA+    NA+42132  32.006  35.930  12.842
77925NA+    NA+42133  12.339  22.740  12.352
77926NA+    NA+42134  42.920  17.744  14.509
77927NA+    NA+42135  19.082  23.512  13.909
77928NA+    NA+42136   3.718  12.675  13.466
77929NA+    NA+42137  21.208   8.217  12.452
77930NA+    NA+42138   0.888  35.065   2.752
77931NA+    NA+42139  21.633  17.628   0.963
77932NA+    NA+42140  13.771  20.569   4.290
77933NA+    NA+42141  44.805   5.761   1.932
77934NA+    NA+42142  33.521  15.190  11.101
77935NA+    NA+42143  17.223  18.069   4.741
77936NA+    NA+42144  26.100  35.396   1.761
77937NA+    NA+42145  29.659   5.249   1.211
77938NA+    NA+42146  14.661  17.141   2.755
77939NA+    NA+42147  40.357  29.503   1.927
77940NA+    NA+42148   4.294  19.207   1.280
77941NA+    NA+42149  23.649  42.923  12.529
77942NA+    NA+42150  19.677  34.905   4.762
77943NA+    NA+42151  23.026  16.087   0.431
77944NA+    NA+42152  28.933  23.503  11.479
77945NA+    NA+42153  22.516  28.511  13.989
77946NA+    NA+42154  21.260  41.432  10.918
77947NA+    NA+42155  11.178  37.373  11.059
77948NA+    NA+42156   0.824   6.210  11.936
77949NA+    NA+42157  21.254  28.060  12.002
77950NA+    NA+42158  21.757  14.599   0.889
77951NA+    NA+42159  36.869  40.806   0.251
77952NA+    NA+42160  19.174  23.102  13.485
77953NA+    NA+42161  27.597   7.812  10.932
77954NA+    NA+42162  17.221  30.944   9.974
77955NA+    NA+42163  38.846  20.667  14.858
77956NA+    NA+42164  30.911  19.659   3.821
77957NA+    NA+42165  15.168   7.907  10.584
77958NA+    NA+42166   1.296  18.193  12.860
77959NA+    NA+42167  40.821  27.083  11.037
77960NA+    NA+42168   0.798  38.930  13.858
77961NA+    NA+42169   0.946  37.351  12.941
77962NA+    NA+42170   9.182  20.740  13.380
77963NA+    NA+42171  25.600  29.162  11.605
77964NA+    NA+42172  17.154  44.839   2.233
77965NA+    NA+42173  39.438  30.937   4.232
77966NA+    NA+42174  24.513  15.189   0.816
77967NA+    NA+42175   9.346  36.541   4.835
77968NA+    NA+42176  21.213  14.136   4.221
77969NA+    NA+42177  35.412  30.538  12.067
77970NA+    NA+42178  17.673  24.623  11.934
77971NA+    NA+42179   6.821  39.970  11.043
77972NA+    NA+42180  29.153   2.285   2.185
77973NA+    NA+42181  13.209   7.679  12.548
77974NA+    NA+42182  13.606  44.967   0.736
77975NA+    NA+42183  25.136  27.978   0.762
77976NA+    NA+42184  37.552  19.668  14.369
77977NA+    NA+42185  28.970   6.256   3.246
77978NA+    NA+42186  13.765  16.779   3.798
77979NA+    NA+42187  37.535  18.631   4.121
77980NA+    NA+42188   8.354  29.573   1.755
77981NA+    NA+42189  10.372  25.588   4.173
77982NA+    NA+42190  15.800  38.522   1.222
77983NA+    NA+42191  34.374  41.339  14.285
77984NA+    NA+42192   0.838   5.222   2.824
77985NA+    NA+42193  20.052  40.395   3.299
77986NA+    NA+42194  40.831  32.574  14.422
77987NA+    NA+42195  39.449  40.890  10.973
77988NA+    NA+42196  37.341  11.217   0.756
77989NA+    NA+42197   3.806   5.196   2.386
77990NA+    NA+42198  26.598  40.484  13.868
77991NA+    NA+42199   3.807  35.979  12.036
77992NA+    NA+42200  36.490   5.764   3.281
77993NA+    NA+42201  42.367  36.890   1.226
77994NA+    NA+42202  31.500  43.945  11.447
77995NA+    NA+42203  20.126  22.534   1.879
77996NA+    NA+42204  33.488   6.423  11.005
77997NA+    NA+42205  43.272  43.953   4.755
77998NA+    NA+42206  12.346  21.569  14.775
77999NA+    NA+42207  38.851  33.972  12.886
78000NA+    NA+42208  37.887   6.291   0.315
78001NA+    NA+42209  42.982  18.091  12.383
78002NA+    NA+42210  39.949   3.224   4.707
78003NA+    NA+42211  37.504  25.652   4.602
78004NA+    NA+42212  16.660  38.938  11.424
78005NA+    NA+42213   0.477  43.473   3.148
78006NA+    NA+42214  23.129  15.668   0.741
78007NA+    NA+42215  16.271  38.994  11.392
78008NA+    NA+42216  28.030  17.677  10.481
78009NA+    NA+42217   8.674  30.612  14.931
78010NA+    NA+42218  35.996   7.755  12.042
78011NA+    NA+42219  19.256  11.240   1.786
78012NA+    NA+42220   6.250   0.972  14.469
78013NA+    NA+42221  17.280  43.307   0.358
78014NA+    NA+42222  35.925  12.816  11.906
78015NA+    NA+42223  23.610   8.242   3.165
78016NA+    NA+42224  18.576  42.826  13.814
78017NA+    NA+42225  32.901  35.003  12.501
78018NA+    NA+42226  35.096  26.537   2.248
78019NA+    NA+42227  19.671  31.531  11.923
78020NA+    NA+42228  12.127  27.560  13.501
78021NA+    NA+42229  44.803  27.087  14.845
78022NA+    NA+42230  10.706  17.668   0.909
78023NA+    NA+42231  36.917  17.171   1.750
78024NA+    NA+42232   2.331  39.453   4.775
78025NA+    NA+42233   7.744  24.519  12.847
78026NA+    NA+42234  31.904  15.666  11.859
78027NA+    NA+42235   2.404   9.802   4.189
78028NA+    NA+42236   3.840  40.827  10.607
78029NA+    NA+42237  21.699  19.059   2.218
78030NA+    NA+42238  26.952  12.714  11.917
78031NA+    NA+42239  42.856  32.523  14.007
78032NA+    NA+42240  19.135  22.615  13.947
78033NA+    NA+42241  17.067   3.432  12.838
78034NA+    NA+42242  30.475  14.103   1.806
78035NA+    NA+42243   1.440   0.247   5.198
78036NA+    NA+42244  33.089  31.921   4.196
78037NA+    NA+42245  32.616   0.823  10.061
78038NA+    NA+42246  25.104  23.562   0.751
78039NA+    NA+42247  21.019  35.503   2.833
78040NA+    NA+42248  43.001   2.726   2.259
78041NA+    NA+42249  29.637  19.229  11.079
78042NA+    NA+42250   7.671   2.329  11.006
78043NA+    NA+42251  16.667  43.331   2.256
78044NA+    NA+42252  13.213  44.316   5.092
78045NA+    NA+42253  37.422   1.783  11.117
78046NA+    NA+42254   3.379  39.032  11.436
78047NA+    NA+42255  14.690   4.318   4.780
78048NA+    NA+42256  28.153  42.870  14.011
78049NA+    NA+42257  25.556  39.476   3.224
78050NA+    NA+42258  18.565  14.685   1.407
78051NA+    NA+42259  33.062  22.134   1.932
78052NA+    NA+42260  42.350  29.955  12.580
78053NA+    NA+42261   4.754   6.359   5.231
78054NA+    NA+42262  24.607   6.679   2.736
78055NA+    NA+42263  36.963   2.249   4.117
78056NA+    NA+42264  38.365  17.699  12.961
78057NA+    NA+42265  22.659   6.845   2.277
78058NA+    NA+42266  19.628  39.411  11.522
78059NA+    NA+42267  37.907   7.403  12.518
78060NA+    NA+42268   1.453   5.833   4.784
78061NA+    NA+42269  39.910  15.765   2.706
78062NA+    NA+42270  11.322   1.775  11.526
78063NA+    NA+42271   5.195  23.099  13.469
78064NA+    NA+42272  32.116   8.768  14.917
78065NA+    NA+42273  18.271  16.182   1.914
78066NA+    NA+42274  30.143  26.015   3.219
78067NA+    NA+42275   7.359   3.859  11.587
78068NA+    NA+42276  19.601  20.160   3.307
78069NA+    NA+42277  35.088  36.422  11.382
78070NA+    NA+42278  17.703  24.218  11.078
78071NA+    NA+42279   4.219  15.092  10.991
78072NA+    NA+42280  30.620   0.944  10.936
78073NA+    NA+42281  22.730  17.693   2.402
78074NA+    NA+42282  43.871  30.462   0.375
78075NA+    NA+42283  24.030  33.558   4.618
78076NA+    NA+42284   2.721  14.324   4.266
78077NA+    NA+42285  11.702  17.670  14.927
78078NA+    NA+42286  24.071  16.583   3.854
78079NA+    NA+42287   6.228  25.203  11.392
78080NA+    NA+42288  15.696   0.921   1.922
78081NA+    NA+42289   1.885  26.040  10.940
78082NA+    NA+42290  10.640  34.043   2.804
78083NA+    NA+42291  27.076   7.899   0.779
78084NA+    NA+42292  23.527   5.200   0.308
78085NA+    NA+42293   7.295  37.912   4.226
78086NA+    NA+42294  28.062  35.102   2.856
78087NA+    NA+42295  17.706   9.713   2.185
78088NA+    NA+42296  16.214  35.433   4.163
78089NA+    NA+42297   3.930  17.687  11.989
78090NA+    NA+42298  11.239   8.208   4.298
78091NA+    NA+42299  43.906  18.566   2.833
78092NA+    NA+42300  21.052  17.730   0.464
78093NA+    NA+42301  31.936  24.500  11.997
78094NA+    NA+42302  29.943  21.626   0.874
78095NA+    NA+42303  33.039  14.833   3.690
78096NA+    NA+42304  21.749   0.836  12.360
78097NA+    NA+42305  29.937  31.108  14.943
78098NA+    NA+42306   4.760  37.883  12.534
78099NA+    NA+42307   7.236   6.350   4.245
78100NA+    NA+42308  19.111   7.271  11.427
78101NA+    NA+42309   7.269  35.366  12.446
78102NA+    NA+42310  24.591  30.125   3.711
78103NA+    NA+42311  20.653  23.144   3.299
78104NA+    NA+42312  44.293  35.567  11.955
78105NA+    NA+42313  19.104  43.883   1.792
78106NA+    NA+42314  12.279  35.510  12.354
78107NA+    NA+42315  17.559  22.222   0.247
78108NA+    NA+42316   5.420  12.733  11.549
78109NA+    NA+42317  17.246   1.834  11.931
78110NA+    NA+42318  18.569  20.568  14.447
78111NA+    NA+42319  36.946  11.261   3.336
78112NA+    NA+42320   7.896  24.064   3.810
78113NA+    NA+42321   4.401  21.068  14.777
78114NA+    NA+42322  23.662  18.650   4.246
78115NA+    NA+42323   6.875  40.954   4.764
78116NA+    NA+42324  15.775  28.662  10.917
78117NA+    NA+42325   4.759   4.884  13.910
78118NA+    NA+42326  44.775  13.163   1.411
78119NA+    NA+42327  42.506   5.776   3.250
78120NA+    NA+42328  30.122  43.985  13.366
78121NA+    NA+42329   3.929  35.373  11.915
78122NA+    NA+42330  14.239  35.462   2.399
78123NA+    NA+42331   8.711  34.516   4.324
78124NA+    NA+42332  18.789  34.092   2.257
78125NA+    NA+42333  32.552  34.452   0.373
78126NA+    NA+42334  44.984  19.202  12.006
78127NA+    NA+42335  35.036  43.345   1.805
78128NA+    NA+42336  40.883  30.446   2.282
78129NA+    NA+42337  31.998  42.372  11.013
78130NA+    NA+42338  33.485  26.626  14.374
78131NA+    NA+42339  23.219  34.119   0.816
78132NA+    NA+42340   7.221  31.989   2.793
78133NA+    NA+42341  22.103   3.388  13.015
78134NA+    NA+42342  21.691  44.917   0.887
78135NA+    NA+42343  22.014  41.311   3.255
78136NA+    NA+42344   3.388  44.965  13.804
78137NA+    NA+42345   1.777  39.433  10.621
78138NA+    NA+42346  10.344  14.104  14.803
78139NA+    NA+42347  25.608  34.089  10.550
78140NA+    NA+42348   1.420  20.529   1.450
78141NA+    NA+42349  29.118  19.671  13.383
78142NA+    NA+42350  10.850  36.928  12.022
78143NA+    NA+42351  37.475  10.290  13.962
78144NA+    NA+42352  12.779  10.157  13.524
78145NA+    NA+42353  13.780  17.268   2.810
78146NA+    NA+42354  24.031  25.106  13.005
78147NA+    NA+42355  22.241  37.581  13.963
78148NA+    NA+42356  37.438  44.375  10.027
78149NA+    NA+42357  37.571  19.562  10.516
78150NA+    NA+42358  16.233  18.594  14.340
78151NA+    NA+42359   2.353  24.222   0.771
78152NA+    NA+42360  22.189  33.398   2.847
78153NA+    NA+42361  22.995  24.706   4.767
78154NA+    NA+42362  19.614  35.055   3.271
78155NA+    NA+42363  27.047  32.077   3.318
78156NA+    NA+42364   4.271   3.397   4.686
78157NA+    NA+42365  19.643  18.593  12.019
78158NA+    NA+42366  21.105  35.418   2.419
78159NA+    NA+42367  23.095   1.922  12.890
78160NA+    NA+42368  15.253  40.023   4.212
78161NA+    NA+42369  39.515   9.855  10.574
78162NA+    NA+42370  13.245  37.474   4.736
78163NA+    NA+42371  12.694  26.507  12.871
78164NA+    NA+42372   0.855   7.875  14.416
78165NA+    NA+42373  20.632   4.337   1.386
78166NA+    NA+42374  29.482  40.329  13.486
78167NA+    NA+42375  37.435  18.182  14.366
78168NA+    NA+42376  41.443  37.471  11.870
78169NA+    NA+42377  32.492   1.950  11.952
78170NA+    NA+42378  23.644  18.087   4.127
78171NA+    NA+42379   1.414  22.010  14.426
78172NA+    NA+42380  25.709  25.963   0.247
78173NA+    NA+42381   6.210   7.780  11.606
78174NA+    NA+42382  16.311  22.588   0.288
78175NA+    NA+42383  42.414  14.659  11.420
78176NA+    NA+42384  18.145   4.211   2.716
78177NA+    NA+42385  14.196  40.929  12.550
78178NA+    NA+42386  24.051   9.290  12.958
78179NA+    NA+42387  15.177  32.072   4.655
78180NA+    NA+42388   5.820  15.315   3.810
78181NA+    NA+42389  23.074  33.981   3.711
78182NA+    NA+42390  43.320  16.735  12.952
78183NA+    NA+42391  24.640   2.954   1.236
78184NA+    NA+42392  11.749  20.663  10.888
78185NA+    NA+42393  29.997  43.340  12.952
78186NA+    NA+42394   3.744  22.231  11.094
78187NA+    NA+42395  15.629  25.063   0.317
78188NA+    NA+42396  34.972   0.856   4.353
78189NA+    NA+42397  11.178  18.572  12.041
78190NA+    NA+42398  14.206  21.605   3.713
78191NA+    NA+42399  33.413  13.799   4.700
78192NA+    NA+42400  32.542   1.824  13.923
78193NA+    NA+42401  28.015  20.647   3.219
78194NA+    NA+42402  27.638  31.963   3.779
78195NA+    NA+42403   4.900   4.810   3.330
78196NA+    NA+42404   7.411   7.870   1.368
78197NA+    NA+42405  21.059   7.238   3.689
78198NA+    NA+42406  30.909  34.420   0.472
78199NA+    NA+42407  30.956  30.605   3.843
78200NA+    NA+42408  44.937  20.554  14.341
78201NA+    NA+42409  40.443  14.339  10.565
78202NA+    NA+42410   6.867   1.392   2.186
78203NA+    NA+42411  36.528  26.492   4.250
78204NA+    NA+42412  15.582  25.631   3.740
78205NA+    NA+42413  18.156  33.382   0.259
78206NA+    NA+42414  22.043  20.243  12.568
78207NA+    NA+42415  14.671   7.199  11.450
78208NA+    NA+42416  16.190  35.962  14.807
78209NA+    NA+42417  13.173  25.133  12.563
78210NA+    NA+42418  33.500  35.897   0.727
78211NA+    NA+42419  39.973  44.787   0.264
78212NA+    NA+42420  25.480  35.561  14.835
78213NA+    NA+42421  19.735  29.051  13.052
78214NA+    NA+42422  40.822  43.281  14.428
78215NA+    NA+42423  40.041  44.900  10.571
78216NA+    NA+42424  21.515   8.662   1.874
78217NA+    NA+42425   8.344   8.196  12.955
78218NA+    NA+42426  30.477  28.470  13.016
78219NA+    NA+42427   3.899   2.939  12.955
78220NA+    NA+42428  42.922  34.993  14.801
78221NA+    NA+42429  42.330  21.124   0.806
78222CL-    CL-42430   8.680  30.530   0.862
78223CL-    CL-42431  22.593  41.814  11.487
78224CL-    CL-42432  39.384  20.059  11.598
78225CL-    CL-42433  24.021   7.346  12.393
78226CL-    CL-42434   9.870  26.571   3.689
78227CL-    CL-42435  43.937  18.052  11.005
78228CL-    CL-42436  22.510  23.059  14.922
78229CL-    CL-42437   2.816  22.184  12.484
78230CL-    CL-42438  38.963  30.442  13.910
78231CL-    CL-42439  18.627  14.314  13.977
78232CL-    CL-42440  28.560  19.055  12.504
78233CL-    CL-42441  20.715  17.642   1.882
78234CL-    CL-42442  36.546  40.434   5.266
78235CL-    CL-42443  23.576  33.040   3.841
78236CL-    CL-42444  43.312   3.842  10.557
78237CL-    CL-42445  42.465  34.959   3.806
78238CL-    CL-42446  34.545   3.770   4.217
78239CL-    CL-42447  36.384  12.217  14.995
78240CL-    CL-42448  21.715   2.760   2.683
78241CL-    CL-42449  31.589  14.137   5.197
78242CL-    CL-42450  25.611  13.160  11.922
78243CL-    CL-42451  40.022   5.327  14.776
78244CL-    CL-42452  19.634   0.437   2.274
78245CL-    CL-42453  31.946  10.281   3.747
78246CL-    CL-42454  15.149  38.038  13.835
78247CL-    CL-42455  25.145  16.735   2.794
78248CL-    CL-42456  43.275  44.976  13.529
78249CL-    CL-42457  42.980  13.662   4.707
78250CL-    CL-42458  43.451  36.923  14.421
78251CL-    CL-42459  31.045  42.310  12.538
78252CL-    CL-42460   8.200  40.487   0.295
78253CL-    CL-42461  10.260  29.175   2.795
78254CL-    CL-42462  29.044  33.079  14.793
78255CL-    CL-42463   7.866  29.078   0.742
78256CL-    CL-42464  27.657  13.251   3.648
78257CL-    CL-42465  25.020  38.433  10.451
78258CL-    CL-42466  13.119  28.092  11.895
78259CL-    CL-42467  13.623  10.208  12.474
78260CL-    CL-42468  27.677  15.208  12.567
78261CL-    CL-42469  43.325  40.907  13.897
78262CL-    CL-42470  21.554  41.999   0.415
78263CL-    CL-42471  29.598  34.508  11.979
78264CL-    CL-42472  43.924  36.498   2.244
78265CL-    CL-42473  15.791  36.861   0.935
78266CL-    CL-42474  12.701   0.824  12.034
78267CL-    CL-42475  31.153  23.636   4.683
78268CL-    CL-42476   4.397  23.234   0.852
78269CL-    CL-42477  32.587   5.386  12.862
78270CL-    CL-42478   7.321   3.884  14.304
78271CL-    CL-42479  37.947  22.070   1.781
78272CL-    CL-42480  25.063   5.421   0.846
78273CL-    CL-42481  32.617  29.556  13.855
78274CL-    CL-42482  26.120  20.205  13.886
78275CL-    CL-42483  24.672  39.949   0.261
78276CL-    CL-42484  18.579   1.941   1.765
78277CL-    CL-42485  22.147  10.657  13.794
78278CL-    CL-42486   0.349  15.097  12.918
78279CL-    CL-42487  25.160   3.728  12.044
78280CL-    CL-42488  38.003  31.608   2.754
78281CL-    CL-42489  40.001  43.285  11.859
78282CL-    CL-42490  16.308  21.150   9.950
78283CL-    CL-42491  43.498  19.218   0.382
78284CL-    CL-42492   2.448  33.910  11.560
78285CL-    CL-42493  10.325   1.367  13.026
78286CL-    CL-42494  26.061  14.752   1.838
78287CL-    CL-42495  16.710  21.022   1.840
78288CL-    CL-42496   0.875  35.982  13.488
78289CL-    CL-42497  24.488  42.412   1.272
78290CL-    CL-42498  36.908  24.518  12.388
78291CL-    CL-42499   4.869  24.510  13.520
78292CL-    CL-42500   7.698  25.158   9.925
78293CL-    CL-42501  38.404  35.969  11.982
78294CL-    CL-42502  27.624  38.389  13.867
78295CL-    CL-42503  13.821  43.962   2.773
78296CL-    CL-42504  32.542  26.971   4.337
78297CL-    CL-42505  10.828  19.665  10.543
78298CL-    CL-42506  35.989  25.197  11.410
78299CL-    CL-42507   0.451   5.752  11.030
78300CL-    CL-42508  31.566  27.112   2.314
78301CL-    CL-42509  36.894  12.666  14.957
78302CL-    CL-42510   6.368  35.384  10.479
78303CL-    CL-42511  14.748  24.084  13.828
78304CL-    CL-42512  30.931  40.304   1.302
78305CL-    CL-42513  30.521  22.159  12.538
78306CL-    CL-42514  23.069  26.579   3.702
78307CL-    CL-42515  22.548  36.537   1.317
78308CL-    CL-42516  42.425  22.573   4.177
78309CL-    CL-42517   4.269  39.462   2.826
78310CL-    CL-42518  38.900  17.630  14.760
78311CL-    CL-42519  21.240  19.591   3.802
78312CL-    CL-42520  44.446  16.806  11.507
78313CL-    CL-42521   6.263  35.853   3.245
78314CL-    CL-42522  26.205  33.118   0.249
78315CL-    CL-42523  27.609  21.032   0.789
78316CL-    CL-42524   9.190  21.691   0.289
78317CL-    CL-42525  21.537  27.940  14.916
78318CL-    CL-42526  26.530   1.913  11.476
78319CL-    CL-42527  11.203  13.618  11.582
78320CL-    CL-42528  38.002  17.559  10.059
78321CL-    CL-42529  29.641  37.499   5.104
78322CL-    CL-42530  28.002  32.960   1.297
78323CL-    CL-42531   3.250  18.283  13.822
78324CL-    CL-42532  27.102  10.335   4.135
78325CL-    CL-42533  10.380  15.705   9.945
78326CL-    CL-42534   2.285  29.535  10.121
78327CL-    CL-42535   6.837  37.451  12.486
78328CL-    CL-42536  12.218  36.575   4.267
78329CL-    CL-42537  14.109  44.805  10.994
78330CL-    CL-42538  21.064  32.635   2.371
78331CL-    CL-42539  25.648  26.017  13.509
78332CL-    CL-42540  39.046  21.718  11.380
78333CL-    CL-42541  31.147  14.214   1.832
78334CL-    CL-42542  33.953   9.383  14.375
78335CL-    CL-42543  25.134  19.186  13.980
78336CL-    CL-42544  39.837   7.823  13.417
78337CL-    CL-42545  10.196  24.624  12.347
78338CL-    CL-42546  33.557  19.171   2.841
78339CL-    CL-42547   4.845  31.596  13.880
78340CL-    CL-42548  15.185  23.503  12.531
78341CL-    CL-42549  12.273  40.534  11.600
78342CL-    CL-42550  21.242  40.527  14.841
78343CL-    CL-42551   8.716  11.359  14.405
78344CL-    CL-42552  41.787  33.391  13.473
78345CL-    CL-42553  31.608  21.160   3.719
78346CL-    CL-42554  19.731  26.508  13.952
78347CL-    CL-42555  36.920   2.462   1.700
78348CL-    CL-42556  41.499  40.943  14.998
78349CL-    CL-42557  44.277  21.719   0.452
78350CL-    CL-42558  37.903  34.025  11.599
78351CL-    CL-42559  12.303  14.735   2.812
78352CL-    CL-42560  30.994  42.402   0.728
78353CL-    CL-42561  31.942  42.409   1.442
78354CL-    CL-42562  24.054  37.865  11.581
78355CL-    CL-42563   5.363  41.002  11.555
78356CL-    CL-42564  33.449  14.779   0.882
78357CL-    CL-42565   7.870  38.391   4.351
78358CL-    CL-42566  17.648  38.438  14.988
78359CL-    CL-42567  36.878  37.895  11.012
78360CL-    CL-42568  23.018   1.798  12.052
78361CL-    CL-42569  24.129  14.223   5.250
78362CL-    CL-42570  18.752  43.433   3.795
78363CL-    CL-42571  22.089   9.884   0.434
78364CL-    CL-42572   7.284  24.677  12.011
78365CL-    CL-42573  13.297  30.993   2.715
78366CL-    CL-42574  34.445  37.410  10.445
78367CL-    CL-42575  20.570  35.073  12.824
78368CL-    CL-42576  32.086  26.469   2.768
78369CL-    CL-42577  14.622   0.926  13.513
78370CL-    CL-42578  27.610  38.068   4.816
78371CL-    CL-42579  22.708  41.342  12.467
78372CL-    CL-42580  39.369  30.065   4.341
78373CL-    CL-42581  28.676   7.287   3.863
78374CL-    CL-42582   1.915  17.624   1.251
78375CL-    CL-42583   5.836  40.376  12.421
78376CL-    CL-42584  30.092  17.203  12.983
78377CL-    CL-42585  26.499  16.686  13.805
78378CL-    CL-42586  12.632  37.081  12.473
78379CL-    CL-42587  17.218   8.747  10.429
78380CL-    CL-42588  24.104  12.798  11.055
78381CL-    CL-42589  25.970   9.693  10.925
78382CL-    CL-42590  39.315  35.960  12.385
78383CL-    CL-42591  26.469  32.930  12.410
78384CL-    CL-42592  33.111  17.193  11.533
78385CL-    CL-42593   4.845  26.607   4.152
78386CL-    CL-42594  44.967   6.740  13.802
78387CL-    CL-42595   4.818  33.460   0.902
78388CL-    CL-42596  29.594  10.747   0.769
78389CL-    CL-42597  41.869   3.289   3.841
78390CL-    CL-42598  39.969  27.192   0.956
78391CL-    CL-42599  18.141  16.261   3.642
78392CL-    CL-42600  30.138  30.033  12.012
78393CL-    CL-42601  31.103   8.848  12.076
78394CL-    CL-42602  31.096  21.246   0.956
78395CL-    CL-42603  38.550  24.571   1.885
78396CL-    CL-42604  17.236  17.262  11.002
78397CL-    CL-42605   1.938   9.185   3.179
78398CL-    CL-42606  14.685  32.500   4.608
78399CL-    CL-42607  30.984   7.393  14.282
78400CL-    CL-42608  14.710  25.577   2.397
78401CL-    CL-42609  32.505   6.326  11.050
78402CL-    CL-42610   1.894  34.995  12.422
78403CL-    CL-42611  32.030  31.640   2.336
78404CL-    CL-42612  44.501  16.242  14.762
78405CL-    CL-42613  11.694   3.888   1.797
78406CL-    CL-42614  29.136  18.713  11.124
78407CL-    CL-42615  40.034  31.637   4.240
78408CL-    CL-42616  19.046  15.270  10.126
78409CL-    CL-42617   5.852  39.934  13.805
78410CL-    CL-42618   9.313   2.378   2.835
78411CL-    CL-42619  12.258  41.851  13.883
78412CL-    CL-42620  18.734  19.051  12.073
78413CL-    CL-42621  20.156  26.672   5.121
78414CL-    CL-42622  20.061  34.088   4.119
78415CL-    CL-42623   7.821  21.218   4.834
78416CL-    CL-42624  26.678  30.143  13.434
78417CL-    CL-42625   5.385  25.187   4.302
78418CL-    CL-42626  23.630  29.022   1.861
78419CL-    CL-42627  17.198  16.797  13.941
78420CL-    CL-42628  24.535  37.576  11.405
78421CL-    CL-42629  11.740  11.336   3.713
78422CL-    CL-42630  44.010   4.300   3.712
78423CL-    CL-42631  21.756   3.944   4.330
78424CL-    CL-42632  34.926  40.549  12.456
78425CL-    CL-42633  15.620  21.533  12.056
78426CL-    CL-42634  11.141  18.134  10.897
78427CL-    CL-42635  43.298  22.163   0.441
78428CL-    CL-42636  14.741  30.474  11.518
78429CL-    CL-42637  28.148  40.355   3.273
78430CL-    CL-42638  24.027   4.815  13.009
78431CL-    CL-42639  18.678   6.254   1.811
78432CL-    CL-42640  14.731  27.955   0.268
78433CL-    CL-42641  28.464  32.436   2.295
78434CL-    CL-42642  24.144  37.850   1.438
78435CL-    CL-42643  34.510  41.537   4.633
78436CL-    CL-42644  34.432  19.650  11.958
78437CL-    CL-42645  25.994   7.686  12.952
78438CL-    CL-42646  18.719  19.675   0.322
78439CL-    CL-42647  18.147  24.516   4.656
78440CL-    CL-42648  37.042  12.639  13.964
78441CL-    CL-42649   5.232  28.443  13.364
78442CL-    CL-42650  13.651  38.930   3.760
78443CL-    CL-42651  15.813  36.891   0.448
78444CL-    CL-42652  34.889   8.823  14.802
78445CL-    CL-42653  18.156  12.210  10.410
78446CL-    CL-42654   0.366  38.557  14.866
78447CL-    CL-42655  20.590  33.989   1.867
78448CL-    CL-42656   4.448  36.522   4.725
78449CL-    CL-42657   3.362   6.297  13.968
78450CL-    CL-42658  20.099  24.182   1.842
78451CL-    CL-42659   1.467  42.818  11.539
78452CL-    CL-42660   5.274  17.238   3.314
78453CL-    CL-42661  44.920  14.270  14.032
78454CL-    CL-42662  20.166  31.980   0.904
78455CL-    CL-42663  15.140   6.296   2.818
78456CL-    CL-42664  36.448  18.258   3.360
78457CL-    CL-42665  27.100  43.907   4.203
78458CL-    CL-42666  29.961  35.567   1.223
78459CL-    CL-42667  13.300  37.445   4.147
78460CL-    CL-42668  15.197  37.536  13.929
78461CL-    CL-42669  28.024   8.385  12.394
78462CL-    CL-42670  42.379  43.889   3.288
78463CL-    CL-42671  13.617  10.299   3.755
78464CL-    CL-42672  25.486  42.959   2.411
78465CL-    CL-42673   1.428  23.097   0.885
78466CL-    CL-42674  40.465  19.096  13.361
78467CL-    CL-42675  26.494  14.652   2.320
78468CL-    CL-42676  19.044  44.910   0.801
78469CL-    CL-42677  30.938   2.413   4.342
78470CL-    CL-42678  44.495  30.582  13.460
78471CL-    CL-42679   1.887  42.793   0.782
78472CL-    CL-42680  16.168  10.355  11.101
78473CL-    CL-42681  34.588  35.977   2.209
78474CL-    CL-42682  42.858  15.286   2.253
78475CL-    CL-42683  20.270  22.547   4.296
78476CL-    CL-42684  32.511  36.562  14.821
78477CL-    CL-42685  37.354  33.558  14.310
78478CL-    CL-42686  12.811   1.793  13.961
78479CL-    CL-42687  32.123  25.047  11.008
78480CL-    CL-42688  23.071  30.541  11.086
78481CL-    CL-42689  14.798  31.006   4.770
78482CL-    CL-42690  25.083  17.582   3.707
78483CL-    CL-42691   0.874  33.098   0.424
78484CL-    CL-42692  32.028  25.018  13.976
78485CL-    CL-42693  33.481  31.460  10.414
78486CL-    CL-42694  26.531  35.396  13.980
78487CL-    CL-42695  10.866  34.553   4.328
78488CL-    CL-42696  37.964  10.786   4.606
78489CL-    CL-42697  23.711  23.021   3.713
78490CL-    CL-42698  22.664  37.937   4.241
78491CL-    CL-42699  25.692  34.469   0.262
78492CL-    CL-42700   4.270  34.557  11.118
78493CL-    CL-42701  10.347  17.069   2.693
78494CL-    CL-42702  10.236  42.799  12.340
78495CL-    CL-42703  43.959   3.276  13.440
78496CL-    CL-42704   2.243  13.208  13.061
78497CL-    CL-42705  44.398   1.450  14.427
78498CL-    CL-42706   5.209  16.177  14.316
78499CL-    CL-42707   3.323  14.220  14.356
78500CL-    CL-42708   9.234  27.028  14.974
78501CL-    CL-42709  34.955  12.734  10.001
78502CL-    CL-42710   7.671  13.755   1.767
78503CL-    CL-42711  16.756  33.571   0.337
78504CL-    CL-42712  10.668  37.489   0.368
78505CL-    CL-42713  42.523   9.189   3.813
78506CL-    CL-42714   4.372  23.024  11.540
78507CL-    CL-42715  33.433  36.551   1.388
78508CL-    CL-42716  41.387  23.097  13.439
78509CL-    CL-42717  19.166  18.719   3.828
78510CL-    CL-42718  44.834  27.140  12.501
78511CL-    CL-42719  19.040  35.995  12.956
78512CL-    CL-42720  11.687  36.385  13.497
78513CL-    CL-42721  11.833   1.475  10.910
78514CL-    CL-42722  12.339  31.493   1.747
78515CL-    CL-42723  37.511  12.733  12.426
78516CL-    CL-42724  43.882  21.106   1.777
78517CL-    CL-42725  17.783   5.897  14.806
78518CL-    CL-42726  29.078  28.015  13.955
78519CL-    CL-42727  41.412  34.087   3.147
78520CL-    CL-42728   4.295  29.052  11.589
78521CL-    CL-42729   2.925  30.489  11.532
78522CL-    CL-42730   3.313  18.197   3.218
78523CL-    CL-42731   6.715  23.595   3.221
78524CL-    CL-42732  19.248   9.751   2.680
78525CL-    CL-42733  33.415  25.523   2.786
78526CL-    CL-42734   4.361   9.214  12.889
78527CL-    CL-42735  30.451  37.913  12.007
78528CL-    CL-42736  43.404  11.172  10.977
78529CL-    CL-42737  14.140  13.200  14.013
78530CL-    CL-42738  22.177  21.587  11.907
78531CL-    CL-42739   3.383  26.002   2.296
78532CL-    CL-42740   2.852  19.560   3.821
78533CL-    CL-42741   8.286  13.795  13.950
78534CL-    CL-42742  17.216   7.264  11.047
78535CL-    CL-42743  42.368   0.964  11.927
78536CL-    CL-42744  12.695  32.106   2.350
78537CL-    CL-42745   1.734   5.752   0.774
78538CL-    CL-42746  23.518  31.505  11.990
78539CL-    CL-42747  18.756  29.971   3.203
78540CL-    CL-42748  22.552  42.823   1.923
78541CL-    CL-42749   1.390  39.357  13.307
78542CL-    CL-42750   8.785  22.684   2.892
78543CL-    CL-42751  25.476   2.952   0.388
78544CL-    CL-42752  11.686  39.982   4.651
78545CL-    CL-42753  30.546   5.321  10.488
78546CL-    CL-42754  25.677  15.785   4.266
78547CL-    CL-42755   4.724  20.118   2.886
78548CL-    CL-42756  15.299  15.721   0.898
78549CL-    CL-42757   3.456  20.157   5.243
78550CL-    CL-42758  13.768  38.032   1.921
78551CL-    CL-42759  14.116  17.165   1.387
78552CL-    CL-42760  40.355   3.263   1.820
78553CL-    CL-42761  27.140  15.674  11.871
78554CL-    CL-42762   1.238  10.313   2.337
78555CL-    CL-42763  21.593  30.599   2.807
78556CL-    CL-42764   4.289  37.408  14.325
78557CL-    CL-42765  41.906  22.223   4.746
78558CL-    CL-42766  35.954   0.262   0.341
78559CL-    CL-42767  16.593  31.075   0.838
78560CL-    CL-42768  41.342  26.091  12.062
78561CL-    CL-42769   2.342  34.073   0.962
78562CL-    CL-42770   0.777  33.584   2.732
78563CL-    CL-42771  20.179  25.121   2.668
78564CL-    CL-42772   6.311  11.252  11.947
78565CL-    CL-42773  21.517  42.871   2.365
78566CL-    CL-42774  18.169   8.272  11.400
78567CL-    CL-42775  17.080  20.737  12.096
78568CL-    CL-42776  10.274   2.855  13.047
78569CL-    CL-42777  35.000   7.324  14.892
78570CL-    CL-42778  19.241  20.171   4.599
78571CL-    CL-42779  33.608  20.766  13.428
78572CL-    CL-42780  11.820  15.169  10.537
78573CL-    CL-42781  17.777  24.708  13.401
78574CL-    CL-42782  33.594  42.778  13.926
78575CL-    CL-42783  19.084  19.077   4.331
78576CL-    CL-42784  11.824   9.196  14.402
78577CL-    CL-42785  31.564  12.248   2.801
78578CL-    CL-42786  22.702  13.281   4.618
78579CL-    CL-42787  17.743   4.396  11.552
78580CL-    CL-42788  31.619  11.257  14.500
78581CL-    CL-42789  33.496  38.569  14.376
78582CL-    CL-42790  44.779  25.661   0.829
78583CL-    CL-42791  29.563   1.278  11.534
78584CL-    CL-42792   5.854  12.621   2.395
78585CL-    CL-42793   6.384   6.880  11.929
78586CL-    CL-42794   4.835  20.263   3.805
78587CL-    CL-42795  31.053  13.604   9.673
78588CL-    CL-42796  28.129   6.897   0.916
78589CL-    CL-42797   1.806  11.857   4.722
78590CL-    CL-42798  38.531  12.162   4.730
78591CL-    CL-42799  21.623  19.549  14.443
78592CL-    CL-42800   0.415  31.458   3.311
78593CL-    CL-42801  18.223  28.105   1.764
78594CL-    CL-42802  29.533  24.003   2.735
78595CL-    CL-42803  25.144  11.239   1.701
78596CL-    CL-42804   7.199   2.960  11.510
78597CL-    CL-42805  35.380  21.739  12.073
78598CL-    CL-42806  16.274   6.781  14.409
78599CL-    CL-42807   8.251   7.260  14.342
78600CL-    CL-42808  22.532  14.725  12.038
78601CL-    CL-42809  23.656   4.370  10.535
78602CL-    CL-42810  20.540   2.372   0.471
78603CL-    CL-42811  20.555   4.937   4.297
78604CL-    CL-42812   7.735  32.489   3.375
78605CL-    CL-42813   2.358   5.776   3.264
78606CL-    CL-42814  26.616   2.450  11.375
78607CL-    CL-42815  10.648  27.063  14.401
78608CL-    CL-42816  12.626  26.008   2.337
78609CL-    CL-42817   8.164  33.590   0.932
78610CL-    CL-42818   3.757  13.127  12.966
78611CL-    CL-42819  38.570   1.806  13.358
78612CL-    CL-42820  44.810   6.295   2.225
78613CL-    CL-42821  40.413  25.137   2.370
78614CL-    CL-42822  36.485  34.894  10.973
78615CL-    CL-42823  32.447   0.982  12.046
78616CL-    CL-42824   3.292  13.643   3.349
78617CL-    CL-42825  44.493  33.551   4.792
78618CL-    CL-42826  41.801  13.752  14.924
78619CL-    CL-42827  10.280  38.517  14.915
78620CL-    CL-42828  43.388  28.502  12.906
78621CL-    CL-42829   6.369  34.969   4.605
78622CL-    CL-42830   2.913   6.384  12.996
78623CL-    CL-42831  17.174  26.555   0.472
78624CL-    CL-42832   4.910  18.722   1.857
78625CL-    CL-42833   1.463  12.269  13.489
78626CL-    CL-42834  35.993   2.366  11.456
78627CL-    CL-42835  41.522  35.493  11.014
78628CL-    CL-42836  15.330  35.074  11.560
78629CL-    CL-42837  41.882  32.424  12.572
78630CL-    CL-42838  39.420   8.817   3.844
78631CL-    CL-42839  11.689  22.685   1.774
78632CL-    CL-42840  27.518  23.698  12.002
78633CL-    CL-42841  10.756  21.744   1.269
78634CL-    CL-42842  14.132  38.329  12.967
78635CL-    CL-42843  44.352  13.347   3.192
78636CL-    CL-42844  32.024  35.893   2.764
78637CL-    CL-42845  32.979   2.303  11.527
78638CL-    CL-42846  31.141  16.261   4.297
78639CL-    CL-42847  35.906  29.099   3.382
78640CL-    CL-42848  33.528  21.737   4.252
78641CL-    CL-42849   9.649   0.922   4.775
78642CL-    CL-42850  29.040  35.045   1.219
78643CL-    CL-42851  39.390  28.970   4.717
78644CL-    CL-42852   4.251   3.459  14.900
78645CL-    CL-42853  24.115  44.404  13.394
78646CL-    CL-42854  13.818  26.624   1.748
78647CL-    CL-42855   8.281  39.003   0.946
78648CL-    CL-42856  25.167  24.098   4.163
78649CL-    CL-42857   0.884  17.265   4.640
78650CL-    CL-42858  10.289  37.929   1.785
78651CL-    CL-42859   5.866  14.150   2.839
78652CL-    CL-42860  18.641  23.573   2.276
78653CL-    CL-42861  18.213  19.247   1.779
78654CL-    CL-42862  43.330  17.212   1.933
78655CL-    CL-42863  39.326  34.989  14.456
78656CL-    CL-42864   9.766  42.791  12.465
78657CL-    CL-42865  39.931   8.727  12.927
78658CL-    CL-42866   3.901  16.256  13.430
78659CL-    CL-42867  39.524   4.241   3.333
78660CL-    CL-42868  31.525  42.382  13.841
78661CL-    CL-42869  18.707   8.317   4.167
78662CL-    CL-42870   7.885  15.655   4.714
78663CL-    CL-42871  32.479  11.295   1.378
78664CL-    CL-42872   5.769  39.418  12.393
78665CL-    CL-42873  29.029  24.533  13.505
78666CL-    CL-42874  13.325   9.843   2.182
78667CL-    CL-42875   1.748  12.260  11.394
78668CL-    CL-42876  12.688  32.405  13.990
78669CL-    CL-42877  18.147   7.303   4.718
78670CL-    CL-42878   0.749   7.894   0.914
78671CL-    CL-42879  16.079  37.375   5.084
78672CL-    CL-42880  36.424  12.722   3.836
78673CL-    CL-42881  33.948  33.088   2.276
78674CL-    CL-42882   2.769  27.659   3.322
78675CL-    CL-42883  20.583   9.270  11.585
78676CL-    CL-42884  34.507  21.234   0.831
78677CL-    CL-42885  32.484  41.975   2.270
78678CL-    CL-42886  25.043  10.208  10.562
78679CL-    CL-42887  13.166  39.984   3.341
78680CL-    CL-42888  39.058  10.368   4.704
78681CL-    CL-42889   3.416  10.858   0.301
78682CL-    CL-42890  16.648  17.289   1.912
78683CL-    CL-42891  20.715   0.396   4.346
78684CL-    CL-42892  16.808  26.491   2.321
78685CL-    CL-42893  24.158  24.207  12.964
78686CL-    CL-42894  15.307  12.327  14.028
78687CL-    CL-42895  10.785  28.183  14.336
78688CL-    CL-42896  16.290   4.366  12.861
78689CL-    CL-42897  43.364  14.261  13.058
78690CL-    CL-42898  34.030  22.166   1.714
78691CL-    CL-42899  33.526  21.067  13.895
78692CL-    CL-42900  17.152  28.668   3.817
78693CL-    CL-42901   9.265  15.125  12.971
78694CL-    CL-42902   6.855  20.212  14.892
78695CL-    CL-42903  28.588   0.868   1.928
78696CL-    CL-42904  34.371  14.599   3.691
78697CL-    CL-42905  43.846  20.591  12.348
78698CL-    CL-42906  14.194   9.870  14.318
78699CL-    CL-42907  21.584  42.821   0.740
78700CL-    CL-42908  10.705  12.322  13.920
78701CL-    CL-42909  38.072  29.432  14.008
78702CL-    CL-42910  32.535  40.459   3.340
78703CL-    CL-42911  42.440  26.975  14.342
78704CL-    CL-42912  37.944  44.377  14.940
78705CL-    CL-42913  28.603  19.197  14.878
78706CL-    CL-42914   8.801  31.099   0.296
78707CL-    CL-42915  26.467  22.680   4.756
78708CL-    CL-42916  19.122  31.047   0.929
78709CL-    CL-42917  22.062  24.113   0.351
78710CL-    CL-42918  19.669  28.632   2.817
78711CL-    CL-42919  12.264  43.505   3.848
78712CL-    CL-42920  16.132   8.246   2.757
78713CL-    CL-42921  25.174  33.062   4.687
78714CL-    CL-42922  29.988  37.573   4.750
78715CL-    CL-42923  24.679  27.595   3.634
78716CL-    CL-42924  28.628  11.632   3.749
78717CL-    CL-42925  41.480  10.252  14.843
78718CL-    CL-42926  28.573  19.649  11.879
78719CL-    CL-42927  22.572  16.300  14.957
78720CL-    CL-42928   0.397  27.025  13.799
78721CL-    CL-42929  24.588   3.224  14.512
78722CL-    CL-42930   8.808  12.697  10.987
78723CL-    CL-42931  37.841  19.240   1.274
78724CL-    CL-42932  43.858  43.021   1.351
78725CL-    CL-42933   3.270  37.892  11.488
78726CL-    CL-42934  13.199   6.326  11.990
78727CL-    CL-42935  17.608  42.840   0.841
78728CL-    CL-42936  44.828  39.983   2.692
78729CL-    CL-42937  41.395  18.567   0.877
78730CL-    CL-42938  19.275  41.018   2.356
78731CL-    CL-42939   4.385  25.492   2.256
78732CL-    CL-42940  23.228  43.855  14.476
78733CL-    CL-42941  19.274  11.705  14.824
78734CL-    CL-42942  11.636  11.850  12.423
78735CL-    CL-42943  23.034  11.317  11.516
78736CL-    CL-42944  15.124  37.437  11.930
78737CL-    CL-42945  40.904  25.639   3.710
78738CL-    CL-42946  41.898  31.991   3.795
78739CL-    CL-42947  20.043  14.332   0.862
78740CL-    CL-42948   6.722  37.535   3.800
78741CL-    CL-42949  41.970  44.001  12.503
78742CL-    CL-42950   8.290  16.186  14.762
78743CL-    CL-42951   9.644  37.019   2.723
78744CL-    CL-42952   2.277  18.205   2.212
78745CL-    CL-42953  36.032  25.610   4.767
78746CL-    CL-42954  27.095   2.767  14.381
78747CL-    CL-42955  11.248  41.980   2.408
78748CL-    CL-42956  18.189  12.346   3.638
78749CL-    CL-42957  22.104  33.519   4.686
78750CL-    CL-42958   9.177  33.466  10.585
78751CL-    CL-42959   4.436  11.183   0.250
78752CL-    CL-42960  44.503  19.133   3.236
78753CL-    CL-42961  44.822  16.246   2.698
78754CL-    CL-42962   9.718  44.915   4.742
78755CL-    CL-42963  38.503   5.870   1.718
78756CL-    CL-42964  13.626   1.300  11.589
78757CL-    CL-42965  42.916  10.758  12.400
78758CL-    CL-42966  14.682  41.412  12.003
78759CL-    CL-42967  11.669   0.358  11.983
78760CL-    CL-42968  10.780  18.137   0.447
78761CL-    CL-42969  11.788   8.185   1.351
78762CL-    CL-42970  41.966   3.844   3.708
78763CL-    CL-42971  18.221   6.844  11.955
78764CL-    CL-42972  42.907  44.323  13.877
78765CL-    CL-42973  26.615  39.021  10.407
78766CL-    CL-42974   9.779  40.977   1.805
78767CL-    CL-42975  21.222  43.886   0.864
78768CL-    CL-42976  27.098  25.976   4.264
78769CL-    CL-42977  36.434  32.522   3.273
78770CL-    CL-42978  20.665   4.431  11.883
78771CL-    CL-42979  10.148  39.912  10.602
78772CL-    CL-42980  13.148  21.548   3.203
78773CL-    CL-42981  17.130  34.384  14.952
78774CL-    CL-42982   9.717  29.432   3.191
78775CL-    CL-42983   0.323  21.188   3.250
78776CL-    CL-42984  13.118  43.417  13.356
78777CL-    CL-42985  32.628  41.407   4.220
78778CL-    CL-42986  38.520  21.136   0.370
78779CL-    CL-42987   0.804   6.405   3.232
78780CL-    CL-42988  23.006  42.857  14.482
78781CL-    CL-42989   8.286   9.352   3.689
78782CL-    CL-42990  23.026  35.432   0.428
78783CL-    CL-42991  10.179  27.518   3.651
78784CL-    CL-42992  14.807  37.340   0.443
78785CL-    CL-42993  19.580  29.041   4.291
78786CL-    CL-42994  34.938  28.965  14.983
78787CL-    CL-42995  23.531  22.034   2.773
78788CL-    CL-42996  24.516  41.374  11.099
78789CL-    CL-42997  38.357  34.607   0.371
78790CL-    CL-42998   5.299  32.560   0.739
78791CL-    CL-42999   4.387   8.331  11.523
78792CL-    CL-43000   1.875   5.253  13.026
78793CL-    CL-43001  38.364  33.470   2.305
78794CL-    CL-43002  37.856  24.076   1.416
78795CL-    CL-43003   1.771  15.616   5.201
78796CL-    CL-43004  36.969  20.750   2.886
78797CL-    CL-43005  36.020  33.129   1.439
78798CL-    CL-43006  27.039  13.269  10.923
78799CL-    CL-43007  41.388   4.427  14.452
78800CL-    CL-43008   4.835  21.152   4.671
78801CL-    CL-43009  12.241  10.830   3.322
78802CL-    CL-43010  10.830  25.641  12.096
78803CL-    CL-43011  44.811   2.287  11.098
78804CL-    CL-43012   1.837  35.493  14.457
78805CL-    CL-43013  26.996   8.316   1.750
78806CL-    CL-43014  20.739  15.124   9.945
78807CL-    CL-43015  29.428  27.158  12.833
78808CL-    CL-43016  26.560   2.452   2.327
78809CL-    CL-43017  43.979  15.656  11.872
78810CL-    CL-43018   1.769  30.136   9.542
78811CL-    CL-43019   1.289  44.415   4.284
78812CL-    CL-43020   8.894  19.205   3.673
78813CL-    CL-43021  19.700  21.581   1.363
78814CL-    CL-43022  11.297  14.280   3.801
78815CL-    CL-43023  30.473   3.327  11.378
78816CL-    CL-43024   7.743  41.325   0.319
78817CL-    CL-43025  39.984   9.362   1.286
78818CL-    CL-43026  12.250  39.560  10.588
78819CL-    CL-43027  29.539  21.227   2.298
78820CL-    CL-43028  34.019   3.940  11.373
78821CL-    CL-43029  33.460  43.280   1.712
78822CL-    CL-43030  29.430  23.227  14.815
78823CL-    CL-43031  34.527  12.144   2.400
78824CL-    CL-43032  11.212  13.241  11.598
78825CL-    CL-43033  27.089  32.972  14.030
78826CL-    CL-43034  27.568   4.451   3.380
78827CL-    CL-43035  31.601   6.347  13.801
78828CL-    CL-43036  20.172  36.430   1.893
78829CL-    CL-43037  30.442  12.826   1.307
78830CL-    CL-43038  39.853  42.527  13.830
78831CL-    CL-43039   4.913  20.045   3.169
78832CL-    CL-43040  34.542  17.596   3.815
78833CL-    CL-43041  39.499  25.206   2.202
78834CL-    CL-43042  35.406  44.842  14.854
78835CL-    CL-43043   7.314  41.034   2.874
78836CL-    CL-43044  13.123   7.811  12.893
78837CL-    CL-43045  20.135  18.759  13.813
78838CL-    CL-43046  22.201  33.899   4.766
78839CL-    CL-43047  44.933  10.725   1.292
78840CL-    CL-43048  10.355  18.598  13.828
78841CL-    CL-43049  28.455  15.161  13.414
78842CL-    CL-43050   0.802  16.102   2.736
78843CL-    CL-43051  42.850  20.633   2.393
78844CL-    CL-43052   0.446  27.949  10.555
78845CL-    CL-43053  37.537   8.785   1.350
78846CL-    CL-43054   1.910   1.939  11.610
78847CL-    CL-43055  26.182  34.027   2.671
78848CL-    CL-43056  19.203  20.235  11.868
78849CL-    CL-43057   9.274   6.291  14.389
78850CL-    CL-43058  35.107  43.931   4.669
78851CL-    CL-43059  27.943  32.930  13.822
78852CL-    CL-43060  34.915  26.150  12.568
78853CL-    CL-43061   0.885  43.506   0.459
78854CL-    CL-43062  42.821  14.622  10.976
78855CL-    CL-43063  43.507  33.900  13.839
78856CL-    CL-43064   2.853   8.779   2.779
78857CL-    CL-43065   9.193  24.558   1.764
78858CL-    CL-43066   9.304  14.736   0.926
78859CL-    CL-43067  16.175  32.582  14.960
78860CL-    CL-43068  12.734  15.797   2.298
78861CL-    CL-43069  36.455  13.728   2.738
78862CL-    CL-43070  21.111  42.371  12.491
78863CL-    CL-43071  15.611  39.948   2.883
78864CL-    CL-43072  31.412  14.657   3.681
78865CL-    CL-43073  42.521  16.164  10.981
78866CL-    CL-43074  37.962   9.187   0.378
78867CL-    CL-43075   3.336  32.925   2.309
78868CL-    CL-43076   6.239   3.843   3.171
78869CL-    CL-43077  15.795   2.917  11.480
78870CL-    CL-43078  21.042   7.686   1.806
78871CL-    CL-43079  13.252  15.679  14.309
78872CL-    CL-43080   5.918  41.538  11.881
78873CL-    CL-43081  10.193  33.908   4.750
78874CL-    CL-43082   2.784  29.934  13.807
78875CL-    CL-43083  34.981  21.599  14.834
78876CL-    CL-43084  15.163   4.296   0.918
78877CL-    CL-43085  42.960   7.686   5.239
78878CL-    CL-43086  10.143  41.929  13.524
78879CL-    CL-43087  38.050  12.360   1.318
78880CL-    CL-43088  11.783   1.406   3.654
78881CL-    CL-43089  29.097   7.278   4.838
78882CL-    CL-43090  14.687  42.349  11.481
78883CL-    CL-43091   6.250  37.060   2.363
78884CL-    CL-43092  33.572  42.961   1.372
78885CL-    CL-43093  38.330  23.144  12.969
78886CL-    CL-43094  19.540  38.855   2.405
78887CL-    CL-43095  40.924  21.558   2.402
78888CL-    CL-43096  41.921  32.514  12.071
78889CL-    CL-43097   8.316  28.100   3.247
78890CL-    CL-43098   6.804  27.679   0.445
78891CL-    CL-43099  21.581   1.325  10.569
78892CL-    CL-43100  23.668  31.422  13.369
78893CL-    CL-43101  23.111   0.911   3.697
78894CL-    CL-43102  23.136  10.853  10.546
78895CL-    CL-43103  38.551  37.044  12.511
78896CL-    CL-43104  21.106  37.419  10.430
78897CL-    CL-43105   7.319  28.466  13.001
78898CL-    CL-43106  13.839  35.959   2.383
78899CL-    CL-43107   1.751  12.214   4.788
78900CL-    CL-43108  34.034  34.026   1.427
78901CL-    CL-43109  24.076   2.749  10.471
78902CL-    CL-43110  44.878  16.701   1.695
78903CL-    CL-43111  29.097   3.450  10.948
78904CL-    CL-43112  17.575  22.667   0.409
78905CL-    CL-43113  24.033  21.616  14.888
78906CL-    CL-43114  40.481  35.369  13.344
78907CL-    CL-43115  12.768  18.125  10.561
78908CL-    CL-43116  16.271  28.630  12.885
78909CL-    CL-43117  23.678  10.736   0.802
78910CL-    CL-43118   4.218  14.675  10.633
78911CL-    CL-43119  39.337  18.120   4.279
78912CL-    CL-43120   1.416  13.293  12.072
78913CL-    CL-43121   7.389  25.093   4.187
78914CL-    CL-43122  32.601  44.874   4.257
78915CL-    CL-43123  24.010  31.524   2.348
78916CL-    CL-43124   6.237  24.213   2.327
78917CL-    CL-43125   8.171  38.881  10.417
78918CL-    CL-43126  30.969  38.420   3.752
78919CL-    CL-43127  33.578  32.937   0.931
78920CL-    CL-43128  14.171  22.159  12.448
78921CL-    CL-43129   3.354  19.078  11.374
78922CL-    CL-43130  12.699   2.296   2.783
78923CL-    CL-43131  17.726  39.359   5.199
78924CL-    CL-43132   3.769   7.728   3.303
78925CL-    CL-43133  21.225  19.268   5.247
78926CL-    CL-43134   1.414   6.394  11.599
78927CL-    CL-43135  38.066  26.081   0.958
78928CL-    CL-43136  31.987   3.937  14.019
78929CL-    CL-43137  36.909  39.344  14.411
78930CL-    CL-43138  27.667  16.641   3.204
78931CL-    CL-43139   6.291  15.687  10.544
78932CL-    CL-43140  34.529  29.174  14.298
78933CL-    CL-43141  29.578   8.683  12.494
78934CL-    CL-43142  41.939  22.225   2.883
78935CL-    CL-43143  15.156  21.709  14.902
78936CL-    CL-43144  31.086  17.602  14.385
78937CL-    CL-43145   9.736   1.799  12.533
78938CL-    CL-43146  37.859  17.709   1.386
78939CL-    CL-43147  19.678  34.866   5.108
78940CL-    CL-43148  36.417  11.174   4.794
78941CL-    CL-43149  25.633   6.305  12.925
78942CL-    CL-43150  10.804   6.804   1.295
78943CL-    CL-43151  22.237  16.177  14.886
78944CL-    CL-43152   1.910  22.578  12.571
78945CL-    CL-43153  36.430  35.437   0.793
78946CL-    CL-43154  36.581  33.093   1.406
78947CL-    CL-43155  21.571   9.681  13.538
78948CL-    CL-43156  43.937  33.580   4.252
78949CL-    CL-43157  12.258   6.193  14.285
78950CL-    CL-43158  29.963   1.858   0.427
78951CL-    CL-43159  12.838  17.723   2.228
78952CL-    CL-43160  42.993  11.317   0.465
78953CL-    CL-43161  40.849   5.883  12.372
78954CL-    CL-43162  23.647   1.864  13.409
78955CL-    CL-43163   0.358  15.210   0.881
78956CL-    CL-43164  39.406  35.954   4.201
78957CL-    CL-43165   0.787  36.368   3.776
78958CL-    CL-43166  10.218   5.349  12.078
78959CL-    CL-43167  11.756  25.611  10.587
78960CL-    CL-43168   8.876  21.127  13.966
78961CL-    CL-43169  10.289  21.169   2.793
78962CL-    CL-43170  36.955  43.500   2.703
78963CL-    CL-43171   7.317  20.195   2.373
78964CL-    CL-43172  24.046  17.722   1.297
78965CL-    CL-43173   7.211  39.378   4.758
78966CL-    CL-43174  41.034  42.807  11.012
78967CL-    CL-43175  38.557  22.008  12.945
78968CL-    CL-43176  37.365  44.309  10.515
78969CL-    CL-43177  36.354  21.091  13.043
78970CL-    CL-43178  26.011   4.423  10.502
78971CL-    CL-43179  36.027   0.310  14.455
78972CL-    CL-43180  40.049  36.454  11.872
78973CL-    CL-43181  41.524   7.866   0.243
78974CL-    CL-43182   2.450  43.284   4.644
78975CL-    CL-43183  42.815  38.418   1.735
78976CL-    CL-43184  15.601  18.690   5.207
78977CL-    CL-43185  16.704  17.642  14.021
78978CL-    CL-43186  15.158   1.819   0.244
78979CL-    CL-43187  16.245  39.912  11.122
78980CL-    CL-43188  40.807   6.827  10.560
78981CL-    CL-43189  26.040   9.281   4.660
78982CL-    CL-43190  14.283  17.694   4.682
78983CL-    CL-43191  22.212  35.604  10.891
78984CL-    CL-43192  11.337  34.572   4.689
78985CL-    CL-43193  18.213  35.443   1.355
78986CL-    CL-43194  21.532  21.706   3.788
78987CL-    CL-43195  41.825  18.548  11.912
78988CL-    CL-43196  23.513   5.929   0.889
78989CL-    CL-43197  35.857  26.469   0.302
78990CL-    CL-43198  22.134   6.716   0.967
78991CL-    CL-43199  35.050   6.736   1.348
78992CL-    CL-43200  14.188  10.685  13.835
78993CL-    CL-43201  10.835   8.896   3.794
78994CL-    CL-43202  44.431  44.786   2.352
78995CL-    CL-43203  21.547  43.000   3.778
78996CL-    CL-43204   4.859  16.131   0.845
78997CL-    CL-43205  31.614  39.914   4.642
78998CL-    CL-43206  23.131  11.836   4.638
78999CL-    CL-43207  41.875   1.739   5.315
79000CL-    CL-43208  42.371  21.059  12.851
79001CL-    CL-43209  33.571  35.513   0.243
79002CL-    CL-43210   9.310   4.215  13.986
79003CL-    CL-43211  35.508  37.470  12.520
79004CL-    CL-43212  29.953  23.151   0.905
79005CL-    CL-43213  23.650   6.238   1.312
79006CL-    CL-43214   2.277  43.485  12.579
79007CL-    CL-43215  40.488  12.857  12.067
79008CL-    CL-43216  21.534  11.865  13.922
79009CL-    CL-43217  28.520  42.420   4.173
79010CL-    CL-43218  22.710   0.881  11.603
79011CL-    CL-43219  14.277  20.100  13.464
79012CL-    CL-43220  35.426  29.057  14.016
79013CL-    CL-43221   3.247   3.229   2.708
79014CL-    CL-43222  12.180  28.102   4.353
79015CL-    CL-43223  37.899  33.964   0.280
79016CL-    CL-43224  26.643   9.302  13.037
79017CL-    CL-43225  14.780  27.508   0.369
79018CL-    CL-43226  39.491   6.411  14.819
79019CL-    CL-43227  18.286  20.152   0.848
79020CL-    CL-43228  41.988  42.854   2.291
79021CL-    CL-43229  28.526   7.405  12.023
79022CL-    CL-43230  24.527  21.529  11.474
79023CL-    CL-43231  21.686  18.582  13.344
79024CL-    CL-43232   8.824  36.914   0.839
79025CL-    CL-43233  20.645  13.218  10.641
79026CL-    CL-43234  42.975   6.698   2.195
79027CL-    CL-43235  38.385   5.439   4.768
79028CL-    CL-43236  18.545  20.681   2.177
79029CL-    CL-43237  18.124  31.991   0.251
79030CL-    CL-43238  17.772  34.475   3.189
79031CL-    CL-43239   4.741  15.284  13.346
79032CL-    CL-43240  20.195  41.866   0.818
79033CL-    CL-43241   2.770  13.129  12.428
79034CL-    CL-43242  39.061  40.807  12.883
79035CL-    CL-43243  12.283  21.070  10.609
79036CL-    CL-43244  43.961   3.955  10.582
79037CL-    CL-43245  17.691  12.159   0.367
79038CL-    CL-43246   1.935  37.571   3.177
79039CL-    CL-43247  33.533  22.533  14.320
79040CL-    CL-43248  11.757  29.159  10.571
79041CL-    CL-43249   1.821  17.145   4.323
79042CL-    CL-43250  22.195  43.797  11.129
79043CL-    CL-43251  18.644  12.154  13.890
79044CL-    CL-43252   3.351  29.658  12.504
79045CL-    CL-43253  32.625  41.906   1.906
79046CL-    CL-43254  11.265   6.353  11.931
79047CL-    CL-43255  24.041  31.029   0.288
79048CL-    CL-43256  20.100  42.406  11.937
79049CL-    CL-43257   9.282  25.134   3.276
79050CL-    CL-43258  35.096  29.443   5.093
79051CL-    CL-43259  44.445  11.268   2.877
79052CL-    CL-43260  14.673  15.656  11.576
79053CL-    CL-43261  16.705   0.360  14.293
79054CL-    CL-43262   0.753   1.288   1.814
79055CL-    CL-43263  24.513  14.103   4.644
79056CL-    CL-43264  24.567  37.054   1.729
79057CL-    CL-43265  41.336   0.941   3.719
79058CL-    CL-43266   4.290   1.767   4.312
79059CL-    CL-43267  34.933   7.217   1.434
79060CL-    CL-43268  27.072   9.321   3.170
79061CL-    CL-43269  17.275  36.366   3.382
79062CL-    CL-43270  31.427  18.753   4.805
79063CL-    CL-43271  16.718   9.236   0.256
79064CL-    CL-43272  38.967   2.460  13.542
79065CL-    CL-43273  42.863  37.484  14.477
79066CL-    CL-43274   9.807   6.911   4.243
79067CL-    CL-43275  43.440  41.507   3.261
79068CL-    CL-43276   1.414  17.732  13.791
79069CL-    CL-43277  19.205  27.632  12.573
79070CL-    CL-43278  44.504  20.075   0.323
79071CL-    CL-43279  23.137  18.128  12.462
79072CL-    CL-43280  41.980  15.280  14.858
79073CL-    CL-43281  13.241  20.605   4.704
79074CL-    CL-43282   0.888  17.306   4.344
79075CL-    CL-43283  27.485  43.381  11.973
79076CL-    CL-43284  32.137  35.558  11.969
79077CL-    CL-43285  32.997  30.617  14.450
79078CL-    CL-43286  24.226  41.874  11.987
79079CL-    CL-43287  41.479  11.143   2.300
79080CL-    CL-43288  39.953   3.436  14.899
79081CL-    CL-43289  33.560   8.190   1.813
79082CL-    CL-43290  25.552   7.370   3.235
79083CL-    CL-43291  28.091  33.433  12.856
79084CL-    CL-43292  21.627  10.685   4.331
79085CL-    CL-43293   5.429   6.284   1.808
79086CL-    CL-43294  25.555  13.618  14.418
79087CL-    CL-43295  29.613  25.709  13.921
79088CL-    CL-43296  22.043  26.994   0.310
79089CL-    CL-43297  42.416   4.825  11.076
79090CL-    CL-43298   9.673   7.702   2.224
79091CL-    CL-43299  38.475  20.175   3.360
79092CL-    CL-43300  19.119   4.415   5.232
79093CL-    CL-43301  24.625  18.151   2.744
79094CL-    CL-43302  38.842  35.948  12.374
79095CL-    CL-43303  43.803  42.032  11.399
79096CL-    CL-43304   2.353   5.774   4.125
79097CL-    CL-43305   1.360  26.508   3.711
79098CL-    CL-43306  41.498  11.806   0.446
79099CL-    CL-43307  37.419  42.450   3.807
79100CL-    CL-43308  31.983  25.581  13.448
79101CL-    CL-43309  29.471  29.595   3.259
79102CL-    CL-43310  27.086  18.786  11.078
79103CL-    CL-43311  14.742  30.057  10.618
79104CL-    CL-43312  30.934  31.563  14.979
79105CL-    CL-43313  26.478   6.705   3.838
79106CL-    CL-43314  23.512   4.847  11.100
79107CL-    CL-43315   0.802  18.662  12.923
79108CL-    CL-43316   5.327  27.128   2.695
79109CL-    CL-43317   7.344  15.172   1.434
79110CL-    CL-43318   5.291   8.750  11.097
79111CL-    CL-43319  26.658  26.502  14.368
79112CL-    CL-43320  17.159  36.567   5.082
79113CL-    CL-43321  31.555  18.189  12.073
79114CL-    CL-43322  13.627  40.886   3.643
79115CL-    CL-43323  40.887  22.622   4.721
79116CL-    CL-43324  44.839  30.993   0.397
79117CL-    CL-43325   5.689   4.784  11.048
79118CL-    CL-43326  14.613  15.812  13.483
79119CL-    CL-43327  34.103  29.148   1.291
79120CL-    CL-43328  19.218  27.537   3.849
79121CL-    CL-43329  18.100   5.293   3.301
79122CL-    CL-43330  16.807  34.903   4.199
79123CL-    CL-43331  33.541  32.034   3.337
79124CL-    CL-43332  11.206  14.699  13.881
79125CL-    CL-43333  25.032  30.069  13.025
79126CL-    CL-43334   9.877  40.799  12.006
79127CL-    CL-43335  41.944   9.693   2.324
79128CL-    CL-43336  15.254   8.283  11.583
79129CL-    CL-43337  28.948  30.952  10.430
79130CL-    CL-43338  35.077   4.252   0.775
79131CL-    CL-43339  29.942  31.639  12.373
79132CL-    CL-43340  18.223  17.129   1.444
79133CL-    CL-43341  18.580  22.062   3.271
79134CL-    CL-43342  22.016  23.228   4.657
79135CL-    CL-43343   6.196  13.813  13.824
79136CL-    CL-43344  15.612  44.350  12.882
79137CL-    CL-43345  31.030   2.276   0.769
79138CL-    CL-43346   2.315  20.157   1.757
79139CL-    CL-43347  16.683  37.073   4.728
79140CL-    CL-43348  18.092  15.268  13.877
79141CL-    CL-43349  41.952  10.233   0.955
79142CL-    CL-43350  23.599  38.040   2.417
79143CL-    CL-43351   7.281  12.301  12.392
79144CL-    CL-43352  33.056  40.538  11.987
79145CL-    CL-43353  23.174  13.143   3.150
79146CL-    CL-43354   9.753  13.761  13.987
79147CL-    CL-43355  16.296  28.551   1.222
79148CL-    CL-43356  11.816  10.816   0.923
79149CL-    CL-43357   1.287  17.667   1.303
79150CL-    CL-43358  23.161  36.976  11.595
79151CL-    CL-43359   6.903  41.301  12.426
79152CL-    CL-43360   3.741   4.824   2.793
79153CL-    CL-43361  31.032  13.114  13.887
79154CL-    CL-43362  38.436  36.566   4.704
79155CL-    CL-43363  43.355  16.754  12.472
79156CL-    CL-43364   6.414  16.730   4.149
79157CL-    CL-43365  34.932  12.743   3.218
79158CL-    CL-43366  37.996  38.923  13.881
79159CL-    CL-43367  16.810  21.095  14.359
79160CL-    CL-43368  42.517  40.806  12.041
79161CL-    CL-43369  37.939  12.771   3.315
79162CL-    CL-43370  26.697  14.596   4.235
79163CL-    CL-43371  23.103  31.113  14.025
79164CL-    CL-43372  27.677  22.142   2.300
79165CL-    CL-43373  42.455  18.162   3.328
79166CL-    CL-43374  36.561  34.436  14.366
79167CL-    CL-43375  13.665  42.301  11.124
79168CL-    CL-43376  16.110  25.118  13.523
79169CL-    CL-43377  18.259   5.736   5.166
79170CL-    CL-43378   5.221  35.374   3.713
79171CL-    CL-43379  15.300  30.513   3.276
79172CL-    CL-43380  22.198  20.549   4.141
79173CL-    CL-43381  10.181  12.657  14.449
79174CL-    CL-43382  11.177  40.466  14.304
79175CL-    CL-43383   0.976  27.119  14.786
79176CL-    CL-43384  24.628  12.662   4.215
79177CL-    CL-43385   2.750  38.012   2.900
79178CL-    CL-43386  11.701  31.059  11.548
79179CL-    CL-43387  10.345  42.381   0.951
79180CL-    CL-43388  42.371  42.408   0.926
79181CL-    CL-43389  12.651  18.183  13.846
79182CL-    CL-43390  11.841  33.519   2.821
79183CL-    CL-43391  19.281  12.219  10.432
79184CL-    CL-43392  38.063  17.644  14.434
79185CL-    CL-43393   0.743  22.508  14.301
79186CL-    CL-43394   0.347  20.524   1.393
79187CL-    CL-43395  16.077   2.873   2.403
79188CL-    CL-43396   9.831  34.611   0.927
79189CL-    CL-43397  10.834  25.008  13.426
79190CL-    CL-43398  32.941  44.317  12.049
79191CL-    CL-43399  26.005   6.184   3.826
79192CL-    CL-43400   3.297  35.868  11.045
79193CL-    CL-43401  40.814  34.431   2.398
79194CL-    CL-43402  38.001  43.920  11.082
79195CL-    CL-43403  29.127  38.524  13.546
79196CL-    CL-43404  14.594  10.275  14.326
79197CL-    CL-43405   9.369  25.595   0.760
79198CL-    CL-43406  15.736  31.039  11.413
79199CL-    CL-43407  35.908  11.276   4.656
79200CL-    CL-43408  41.467  19.557  11.474
79201CL-    CL-43409  38.871  28.970   5.191
79202CL-    CL-43410   4.929  13.281   2.874
79203CL-    CL-43411  33.975  36.571  14.436
79204CL-    CL-43412  15.638   4.778  10.430
79205CL-    CL-43413  40.975  19.689   1.703
79206CL-    CL-43414  14.787  36.454  10.540
79207CL-    CL-43415  44.496  23.034  11.542
79208CL-    CL-43416  21.582  39.839  12.041
79209CL-    CL-43417  43.376  15.601  13.888
79210CL-    CL-43418  31.026  20.141   1.396
79211CL-    CL-43419   9.827   9.693   3.656
79212CL-    CL-43420  19.196  13.815  13.808
79213CL-    CL-43421   1.420  28.554   9.544
79214CL-    CL-43422  12.754  25.712   3.820
79215CL-    CL-43423  23.580  29.989  14.298
79216CL-    CL-43424  35.518  35.532   4.315
79217CL-    CL-43425  19.242  21.055   2.696
79218CL-    CL-43426  43.368  29.646  10.089
79219CL-    CL-43427  15.215   3.215   3.331
79220CL-    CL-43428  16.211  11.190   4.139
79221CL-    CL-43429  13.199  19.742  10.410
79222CL-    CL-43430  37.085   0.355  13.904
79223CL-    CL-43431  24.626  32.602   4.760
79224CL-    CL-43432   2.841  22.663  12.927
79225CL-    CL-43433  20.081  37.962  12.400
79226CL-    CL-43434   6.376  44.353  11.042
79227CL-    CL-43435  16.620  23.504  11.926
79228CL-    CL-43436  44.871  15.226   2.410
79229CL-    CL-43437  21.573   1.963   4.660
79230CL-    CL-43438  30.073  15.611  12.359
79231CL-    CL-43439  21.146  17.296  11.463
79232CL-    CL-43440  31.005  39.011  14.467
79233CL-    CL-43441   1.413  40.319  10.558
79234CL-    CL-43442   4.861  23.634   1.276
79235CL-    CL-43443  22.181  28.556   0.447
79236CL-    CL-43444   8.873   7.382   1.862
79237CL-    CL-43445  41.888  36.893  14.411
79238CL-    CL-43446  26.185   2.305   4.764
79239CL-    CL-43447  19.550  38.050  10.907
79240CL-    CL-43448   2.956  19.710  13.361
79241CL-    CL-43449  25.964  38.501   1.419
79242CL-    CL-43450  18.571  37.577  12.919
79243CL-    CL-43451  26.547   3.727   0.456
79244CL-    CL-43452  44.964  41.308   1.318
79245CL-    CL-43453  16.224   1.735   4.206
79246CL-    CL-43454  10.314  22.638  14.989
79247CL-    CL-43455  21.710  38.353   3.735
79248CL-    CL-43456  30.917  10.286   1.818
79249CL-    CL-43457  15.293  30.488   1.843
79250CL-    CL-43458  13.116  29.570   4.671
79251CL-    CL-43459  31.904  39.057  13.951
79252CL-    CL-43460  41.865  35.928  12.950
79253CL-    CL-43461  20.564  36.844  11.078
79254CL-    CL-43462  19.235  30.494   0.467
79255CL-    CL-43463  36.847  19.092   3.174
79256CL-    CL-43464  32.902  22.219   4.707
79257CL-    CL-43465  35.972  36.558  12.576
79258CL-    CL-43466  32.962  28.075   0.957
79259CL-    CL-43467  18.691   8.858  12.398
79260CL-    CL-43468  35.966  43.863  11.917
79261CL-    CL-43469  28.122  27.144  12.470
79262CL-    CL-43470  13.347  41.907   2.691
79263CL-    CL-43471   9.829  10.661   4.774
79264CL-    CL-43472  41.876  27.187  14.505
79265CL-    CL-43473   9.254  32.021   2.674
79266CL-    CL-43474  39.987  16.634  10.072
79267CL-    CL-43475  33.051   0.356   4.299
79268CL-    CL-43476  32.026   4.272   3.365
79269CL-    CL-43477  41.348  38.487   3.730
79270CL-    CL-43478  25.564   0.816  14.454
79271CL-    CL-43479  10.764   2.244  12.520
79272CL-    CL-43480  43.422  20.112   4.785
79273CL-    CL-43481   2.956  43.851   4.741
79274CL-    CL-43482  10.188  35.587   4.354
79275CL-    CL-43483  36.547  25.623   0.473
79276CL-    CL-43484  33.907  36.015  11.607
79277CL-    CL-43485  39.987   8.327  11.969
79278CL-    CL-43486  41.896  16.109   0.851
79279CL-    CL-43487   3.716   4.910  13.863
79280CL-    CL-43488  10.740  38.964   1.909
79281CL-    CL-43489  22.595  10.848   9.937
79282CL-    CL-43490  16.224  41.978   4.264
79283CL-    CL-43491  21.218  14.591  11.432
79284CL-    CL-43492  37.409   0.797  11.889
79285CL-    CL-43493   1.276  40.807  12.017
79286CL-    CL-43494  20.679  23.674  10.914
79287CL-    CL-43495  42.922  26.643   4.201
79288CL-    CL-43496   1.317  29.468  13.930
79289CL-    CL-43497  22.137  10.269   9.999
79290CL-    CL-43498   7.305   9.881  12.342
79291CL-    CL-43499  19.774  10.332  12.522
79292CL-    CL-43500   6.743  23.667  12.863
79293CL-    CL-43501  30.613  20.595   2.179
79294CL-    CL-43502  26.634  11.633   2.277
79295CL-    CL-43503   0.444  16.195   0.342
79296CL-    CL-43504  40.306  35.444   2.835
79297CL-    CL-43505  30.960  21.711  13.833
79298CL-    CL-43506  20.575   5.195   0.406
79299CL-    CL-43507  36.404  32.077  14.965
79300CL-    CL-43508  37.073  18.075  14.436
79301CL-    CL-43509  12.710  19.145  12.570
79302CL-    CL-43510  16.724  10.198  12.495
79303CL-    CL-43511   4.750  10.147  12.862
79304CL-    CL-43512  30.148  15.181   0.281
79305CL-    CL-43513  13.629   0.921   4.144
79306CL-    CL-43514  21.037   6.752   4.326
79307CL-    CL-43515  42.029  39.512  12.080
79308CL-    CL-43516   7.675  32.550   2.257
79309CL-    CL-43517  12.335  40.486  14.430
79310CL-    CL-43518   6.858  41.945   1.745
79311CL-    CL-43519  21.193   4.760   2.183
79312CL-    CL-43520  29.648  35.511  10.619
79313CL-    CL-43521  35.510  29.018   1.910
79314CL-    CL-43522   9.205  26.465  13.444
79315CL-    CL-43523  27.014  32.924   3.304
79316CL-    CL-43524  10.800  33.387  11.504
79317CL-    CL-43525  26.131  28.552   0.860
79318CL-    CL-43526  42.932  25.978  13.477
79319CL-    CL-43527  32.446  29.503  12.825
79320CL-    CL-43528   5.791  17.768  11.585
79321CL-    CL-43529  19.080  17.237   0.729
79322CL-    CL-43530   6.749  39.403   0.447
79323CL-    CL-43531  43.955  28.662   3.309
79324CL-    CL-43532  20.178  25.142  14.380
79325CL-    CL-43533   3.458  35.081   4.193
79326CL-    CL-43534  41.380  11.842  12.416
79327CL-    CL-43535   0.893  20.217   1.426
79328CL-    CL-43536  29.484  32.008   0.327
79329CL-    CL-43537  36.848  28.038   2.699
79330CL-    CL-43538  27.691  44.855  14.495
79331CL-    CL-43539  26.045  43.429   2.272
79332CL-    CL-43540  13.219   5.799  14.470
79333CL-    CL-43541  10.752  22.243   3.308
79334CL-    CL-43542   9.262  37.026   4.117
79335CL-    CL-43543  19.535  19.054   4.746
79336CL-    CL-43544   1.929  37.012   3.731
79337CL-    CL-43545  39.913   2.272  12.577
79338CL-    CL-43546   2.346  13.700   2.835
79339CL-    CL-43547   2.745  38.349  13.792
79340CL-    CL-43548   9.645  11.324  13.330
79341CL-    CL-43549   7.676  36.996   4.175
79342CL-    CL-43550   3.753  34.083  12.044
79343CL-    CL-43551  11.738  29.587   2.384
79344CL-    CL-43552  32.987  27.166  14.291
79345CL-    CL-43553  22.618  30.527  11.990
79346CL-    CL-43554  27.031  24.617  10.617
79347CL-    CL-43555  20.030  29.172   4.786
79348CL-    CL-43556   1.385  11.145   2.241
79349CL-    CL-43557   5.347  22.651  11.584
79350CL-    CL-43558  30.469   5.750   2.808
79351CL-    CL-43559  13.134  19.117  14.435
79352CL-    CL-43560  22.188   7.266  13.356
79353CL-    CL-43561  18.575   4.320  12.013
79354CL-    CL-43562   3.871  28.016  10.937
79355CL-    CL-43563  31.442  16.590  13.814
79356CL-    CL-43564  36.093  26.131   0.858
79357CL-    CL-43565  43.784  14.679   4.275
79358CL-    CL-43566  23.059  10.848  13.542
79359CL-    CL-43567  13.729   2.958   4.345
79360CL-    CL-43568  38.360   2.898  13.337
79361CL-    CL-43569  25.649  38.507  11.429
79362CL-    CL-43570  41.921   9.685  11.924
79363CL-    CL-43571  42.481  35.937   0.297
79364CL-    CL-43572  15.783  17.593   2.895
79365CL-    CL-43573  18.137  28.974  11.931
79366CL-    CL-43574   1.476  35.942   4.120
79367CL-    CL-43575  39.994  27.446  12.413
79368CL-    CL-43576  25.713   0.957   0.344
79369CL-    CL-43577   7.796  38.407  11.577
79370CL-    CL-43578  12.747  27.632   0.839
79371CL-    CL-43579  27.056   4.748   3.175
79372CL-    CL-43580   2.289   7.381   4.812
79373CL-    CL-43581  43.302  15.084  11.385
79374CL-    CL-43582  26.951  39.355  13.882
79375CL-    CL-43583  41.893  19.119  13.479
79376CL-    CL-43584  26.046   5.203   2.739
79377CL-    CL-43585  30.583  27.470   1.798
79378CL-    CL-43586  23.535   0.408  14.944
79379CL-    CL-43587  30.145  43.831   1.306
79380CL-    CL-43588  29.029  19.271  14.968
79381CL-    CL-43589  44.885  37.080   3.664
79382CL-    CL-43590   8.743   5.859  11.490
79383CL-    CL-43591  30.938  30.584  11.879
79384CL-    CL-43592  19.214  24.508  12.032
79385CL-    CL-43593  11.832  34.456   3.268
79386CL-    CL-43594  35.405  33.100  10.466
79387CL-    CL-43595  39.333  20.674   0.432
79388CL-    CL-43596  11.747  21.712   3.235
79389CL-    CL-43597  43.386  35.483  13.966
79390CL-    CL-43598  12.801  11.203  10.627
79391CL-    CL-43599  40.797  43.860   3.203
79392CL-    CL-43600  38.051   6.759  13.807
79393CL-    CL-43601  31.907   2.257  12.397
79394CL-    CL-43602  32.078  26.125  13.990
79395CL-    CL-43603  35.456  31.977   0.885
79396CL-    CL-43604  34.877  40.313  14.765
79397CL-    CL-43605  38.026  22.514  11.028
79398CL-    CL-43606  22.553  32.054  12.069
79399CL-    CL-43607   7.727   1.866   2.280
79400CL-    CL-43608  34.892  22.694   2.696
79401CL-    CL-43609   2.271  33.070  13.927
79402CL-    CL-43610  39.418   4.286  11.931
79403CL-    CL-43611  32.448  19.630   4.207
79404CL-    CL-43612  27.121   2.380   3.742
79405CL-    CL-43613  18.093   9.304  14.328
79406CL-    CL-43614  22.665   5.408  10.531
79407CL-    CL-43615   2.324  36.404  11.118
79408CL-    CL-43616   4.886  16.740  12.990
79409CL-    CL-43617  18.554  12.174   3.248
79410CL-    CL-43618  27.143  17.241   0.809
79411CL-    CL-43619  11.198  18.217  13.348
79412CL-    CL-43620   4.736  33.015   2.303
79413CL-    CL-43621  12.157   9.170   2.380
79414CL-    CL-43622  27.636  37.002   4.632
79415CL-    CL-43623  33.036  37.531   5.098
79416CL-    CL-43624   0.282  38.942  14.348
79417CL-    CL-43625  44.349  19.254  13.528
79418CL-    CL-43626  11.621  13.345  12.537
79419CL-    CL-43627  39.962  28.967   1.250
79420CL-    CL-43628  39.390  21.201   4.824
79421CL-    CL-43629  43.482  28.636  12.567
79422CL-    CL-43630  19.049  30.643   4.604
79423CL-    CL-43631  44.006  40.822   2.298
79424CL-    CL-43632  24.992  18.289   1.276
79425CL-    CL-43633  27.174  30.556   4.139
79426CL-    CL-43634  24.612  37.013  14.821
79427CL-    CL-43635  18.199  22.508  12.832
79428CL-    CL-43636  35.950  26.460   4.236
79429CL-    CL-43637  25.644   1.904   2.900
79430CL-    CL-43638  21.190  26.188  13.016
79431CL-    CL-43639  15.775  10.831   4.612
79432CL-    CL-43640  33.900   7.207   5.171
79433CL-    CL-43641  14.651  28.026  10.614
79434CL-    CL-43642  24.209  23.107   4.694
79435CL-    CL-43643   2.296  13.790   3.847
79436CL-    CL-43644  13.801  19.546   4.147
79437CL-    CL-43645  32.626  35.465   3.701
79438CL-    CL-43646  13.228   3.909  12.991
79439CL-    CL-43647   5.750   7.402   2.263
79440CL-    CL-43648   7.310  33.585  13.872
79441CL-    CL-43649   1.735  29.532  14.858
79442CL-    CL-43650  40.366  29.637   1.386
79443CL-    CL-43651  23.714  40.989  13.465
79444CL-    CL-43652   9.345  34.499   4.292
79445CL-    CL-43653  30.521  17.682   1.325
79446CL-    CL-43654  18.571  23.122  11.925
79447CL-    CL-43655  40.357   7.230  14.875
79448CL-    CL-43656  15.752  12.708   4.311
79449CL-    CL-43657  24.110   4.876   3.174
79450CL-    CL-43658   8.281   2.748   1.263
79451CL-    CL-43659  37.391  41.892   1.274
79452CL-    CL-43660  32.451  11.750   4.264
79453CL-    CL-43661  43.470   5.274  13.015
79454CL-    CL-43662  28.497  19.625   2.736
79455CL-    CL-43663  39.843  26.538  13.918
79456CL-    CL-43664  21.648  15.246  14.451
79457CL-    CL-43665   7.173  20.630   1.806
79458CL-    CL-43666  41.390  43.421  14.462
79459CL-    CL-43667  40.353  14.156   0.283
79460CL-    CL-43668  26.990  44.295   1.884
79461CL-    CL-43669  25.206   2.845   3.815
79462CL-    CL-43670  41.384   9.764  14.329
79463CL-    CL-43671  23.589  24.560  14.829
79464CL-    CL-43672  13.279  29.556  11.862
79465CL-    CL-43673  31.129  26.091   4.611
79466CL-    CL-43674  39.423  10.221   3.258
79467CL-    CL-43675  14.606  22.174  11.488
79468CL-    CL-43676  21.597  43.976  13.387
79469CL-    CL-43677   5.271  39.404  11.545
79470CL-    CL-43678  34.455   5.910   1.855
79471CL-    CL-43679  43.341  33.028  10.982
79472CL-    CL-43680  39.461   7.335   0.856
79473CL-    CL-43681  37.920   9.706   2.339
79474CL-    CL-43682  18.180  12.155   3.319
79475CL-    CL-43683  22.654  32.526   4.193
79476CL-    CL-43684  24.019  11.276  11.943
79477CL-    CL-43685  16.141  15.745  14.326
79478CL-    CL-43686   5.332   3.808  11.025
79479CL-    CL-43687  31.501   1.932  14.819
79480CL-    CL-43688  12.755  33.942   4.353
79481CL-    CL-43689  14.629  22.526   2.372
79482CL-    CL-43690  12.839  21.256   0.306
79483CL-    CL-43691  41.007  26.543  12.508
79484CL-    CL-43692  39.826  22.245   0.948
79485CL-    CL-43693  32.111  39.000   2.814
79486CL-    CL-43694  21.590  18.767  11.995
79487CL-    CL-43695  39.373  44.495  13.826
79488CL-    CL-43696  13.766  39.016  12.536
79489CL-    CL-43697  40.977  27.594  13.031
79490CL-    CL-43698   0.300  13.185  14.309
79491CL-    CL-43699  39.501  32.573   4.756
79492CL-    CL-43700  24.527  31.939  11.567
79493CL-    CL-43701  32.525  21.537  12.879
79494CL-    CL-43702  12.202  44.830  12.889
79495CL-    CL-43703  22.062  15.641  14.287
79496CL-    CL-43704   1.867  22.199   4.811
79497CL-    CL-43705  25.091   1.325   0.758
79498CL-    CL-43706  38.469  27.172   1.427
79499CL-    CL-43707  23.650   8.832  13.338
79500CL-    CL-43708  18.223  42.329   2.412
79501CL-    CL-43709  11.650   5.781  12.047
79502CL-    CL-43710  16.150  12.270   3.316
79503CL-    CL-43711  44.407  43.461  12.036
79504CL-    CL-43712  14.152   9.178  13.965
79505CL-    CL-43713  35.873   1.256  12.376
79506CL-    CL-43714  18.643  27.668  14.870
79507CL-    CL-43715  20.620  28.443   1.251
79508CL-    CL-43716  30.413  43.458   3.843
79509CL-    CL-43717  39.364   1.432  10.538
79510CL-    CL-43718  15.167  16.221  10.453
79511CL-    CL-43719  30.121   3.751   4.305
79512CL-    CL-43720  32.407   1.237   1.270
79513CL-    CL-43721   7.770  16.746   2.833
79514CL-    CL-43722   1.268  17.189   0.316
79515CL-    CL-43723  35.913  34.937   3.843
79516CL-    CL-43724  41.855  39.008  13.045
79517CL-    CL-43725  18.717  17.169  12.547
79518CL-    CL-43726  26.634  13.256   4.262
79519CL-    CL-43727   4.798   8.338   2.780
79520CL-    CL-43728  38.840   1.365   2.868
79521CL-    CL-43729  21.140  21.110  11.037
79522CL-    CL-43730  29.965  26.564   1.337
79523CL-    CL-43731  35.415  44.303   0.775
79524CL-    CL-43732  24.507  19.107   2.327
79525CL-    CL-43733  26.630  40.883   0.275
79526CL-    CL-43734  41.365  35.949   4.308
79527CL-    CL-43735  30.149   9.647  11.986
79528CL-    CL-43736  41.975  24.223   0.291
79529CL-    CL-43737   9.203  32.929   1.933
79530CL-    CL-43738   0.392   3.344   2.366
79531CL-    CL-43739  13.696  42.470  13.892
79532CL-    CL-43740  21.163  31.012   3.716
79533CL-    CL-43741  32.088  12.342  10.535
79534CL-    CL-43742  29.038  31.597   4.224
79535CL-    CL-43743  35.482  31.482  14.320
79536CL-    CL-43744  10.298  28.942  14.441
79537CL-    CL-43745  40.992   6.716  13.342
79538CL-    CL-43746  16.129   2.297   4.143
79539CL-    CL-43747  23.229  30.048   0.741
79540CL-    CL-43748  21.523  17.272  13.407
79541CL-    CL-43749  25.666  35.895  11.098
79542CL-    CL-43750  19.045  39.962  12.092
79543CL-    CL-43751  12.236  14.307   3.737
79544CL-    CL-43752   0.903   1.400   2.678
79545CL-    CL-43753  11.317  22.236   1.716
79546CL-    CL-43754  15.692  39.813  10.154
79547CL-    CL-43755  17.749   6.700   4.293
79548CL-    CL-43756   5.200  25.030   3.162
79549CL-    CL-43757   1.809   4.245   2.663
79550CL-    CL-43758  19.055  36.977   5.157
79551CL-    CL-43759  43.430  37.957   1.307
79552CL-    CL-43760  44.854  30.658   1.448
79553CL-    CL-43761  20.050   7.799  14.893
79554CL-    CL-43762  11.194   8.196  10.627
79555CL-    CL-43763  29.925  30.602   0.919
79556CL-    CL-43764  36.041  13.708   3.731
79557CL-    CL-43765  17.260  12.245   0.799
79558CL-    CL-43766  17.163   7.685  11.403
79559CL-    CL-43767   9.800  20.157   0.442
79560CL-    CL-43768  28.671  15.775   2.250
79561CL-    CL-43769  27.495  35.969  12.430
79562CL-    CL-43770  34.979  38.013  11.944
79563CL-    CL-43771  30.092  16.790  10.059
79564CL-    CL-43772  32.542  15.602   9.563
79565CL-    CL-43773  35.007  42.999  14.391
79566CL-    CL-43774  28.952  10.153  12.853
79567CL-    CL-43775  10.312  21.646  13.375
79568CL-    CL-43776  40.033  22.579  12.866
79569CL-    CL-43777  28.970  39.904  11.073
79570CL-    CL-43778  33.910  37.452   1.405
79571CL-    CL-43779  41.970  14.329   4.737
79572CL-    CL-43780  41.981   1.380   1.365
79573CL-    CL-43781  26.484  18.175  11.981
79574CL-    CL-43782  34.569  12.149   0.932
79575CL-    CL-43783  33.389  20.226   1.434
79576CL-    CL-43784   2.244  26.627  12.938
79577CL-    CL-43785   5.896  26.533   4.306
79578CL-    CL-43786  44.283  18.734   5.108
79579CL-    CL-43787  26.541  23.196   3.809
79580CL-    CL-43788   1.292  21.596   3.191
79581CL-    CL-43789   0.908  28.667   2.239
79582CL-    CL-43790  11.300   1.418   1.730
79583CL-    CL-43791  19.130  21.225   3.189
79584CL-    CL-43792  20.194  16.265  14.430
79585CL-    CL-43793  24.053   6.774  11.100
79586CL-    CL-43794   2.436  23.132  12.447
79587CL-    CL-43795   3.446  44.476   2.211
79588CL-    CL-43796  20.189  38.971   3.830
79589CL-    CL-43797  12.206  41.414  11.511
79590CL-    CL-43798   0.819  12.770  13.343
79591CL-    CL-43799  14.200   6.794  12.487
79592CL-    CL-43800  15.095  35.858   3.219
79593CL-    CL-43801  13.652   0.446   3.359
79594CL-    CL-43802  26.199  43.362  11.387
79595CL-    CL-43803  15.261  44.381  11.420
79596CL-    CL-43804  39.945  41.463  12.562
79597CL-    CL-43805  16.617  44.823   0.904
79598CL-    CL-43806  24.002  30.587  10.923
79599CL-    CL-43807  17.098  27.179   1.912
79600CL-    CL-43808  11.327   4.354   3.781
79601CL-    CL-43809   6.218   9.749   3.326
79602CL-    CL-43810   6.869  25.695   1.292
79603CL-    CL-43811  18.596  30.561   0.353
79604CL-    CL-43812  36.506  23.559   2.280
79605CL-    CL-43813  34.560   7.722  12.863
79606CL-    CL-43814   7.881  37.466   9.971
79607CL-    CL-43815  37.495   2.823  13.369
79608CL-    CL-43816   7.303  22.080  13.511
79609CL-    CL-43817  29.523  35.536  10.983
79610CL-    CL-43818  22.729  23.108   4.748
79611CL-    CL-43819  14.677  11.191  10.545
79612CL-    CL-43820   1.469  24.484   3.779
79613CL-    CL-43821  32.524  29.160   4.736
79614CL-    CL-43822   8.826  12.794   0.413
79615CL-    CL-43823  29.623   4.231  12.930
79616CL-    CL-43824  25.182  19.222   2.389
79617CL-    CL-43825  41.322   9.214   0.817
79618CL-    CL-43826  30.638  10.157   1.302
79619CL-    CL-43827  25.092  43.360   1.451
79620CL-    CL-43828   5.434   7.788  14.311
79621CL-    CL-43829   2.777   7.719  11.009
79622CL-    CL-43830  23.641  42.368  14.288
79623CL-    CL-43831  26.990   3.933  11.043
79624CL-    CL-43832  38.030  26.986   0.751
79625CL-    CL-43833   3.409   8.297  13.868
79626CL-    CL-43834  17.589  40.359   3.365
79627CL-    CL-43835  16.118  25.159  14.426
79628CL-    CL-43836  40.037  24.124   1.387
79629CL-    CL-43837  36.523   4.357   4.130
79630CL-    CL-43838  11.262  39.375  11.973
79631CL-    CL-43839   2.464  36.012   9.656
79632CL-    CL-43840  35.452   3.738  14.400
79633CL-    CL-43841  16.776  29.547  12.037
79634CL-    CL-43842   9.300  43.939   3.346
79635CL-    CL-43843  27.582   2.393   3.658
79636CL-    CL-43844  35.557   3.827   2.340
79637CL-    CL-43845  10.259  40.370   1.216
79638CL-    CL-43846  23.568  30.415   1.313
79639CL-    CL-43847  15.723  44.956   3.250
79640CL-    CL-43848  21.644  32.983  13.388
79641CL-    CL-43849  23.648  16.812   3.378
79642CL-    CL-43850   6.408  41.936  14.866
79643CL-    CL-43851  33.404  20.704   3.792
79644CL-    CL-43852   0.796  41.944  12.928
79645CL-    CL-43853  13.600   2.470  12.537
79646CL-    CL-43854  29.012   4.772   1.306
79647CL-    CL-43855  13.123  23.093   4.703
79648CL-    CL-43856  41.836   8.222  10.486
79649CL-    CL-43857  30.913  25.113  11.885
79650CL-    CL-43858  16.186   6.282  11.877
79651CL-    CL-43859  33.045  21.112   4.799
79652CL-    CL-43860  44.002  42.387  10.620
79653CL-    CL-43861  14.702  17.646   0.426
79654CL-    CL-43862  13.341  21.057  10.930
79655CL-    CL-43863  15.627  41.845   0.421
79656CL-    CL-43864   2.371  19.129  13.349
79657CL-    CL-43865  33.083   2.374  13.004
79658CL-    CL-43866  35.045  19.248  13.324
79659CL-    CL-43867  28.030   5.349  12.951
79660CL-    CL-43868  43.829  18.767  11.112
79661CL-    CL-43869  17.630  15.797   4.792
79662CL-    CL-43870  37.966  34.532  12.353
79663CL-    CL-43871   8.677   5.352  12.386
79664CL-    CL-43872   3.391  23.100   4.181
79665CL-    CL-43873  26.548  10.184  12.364
79666CL-    CL-43874  29.929  29.144   1.365
79667CL-    CL-43875  10.765  10.166  10.475
79668CL-    CL-43876  14.231  10.179   4.137
79669CL-    CL-43877  12.674  32.065  11.994
79670CL-    CL-43878  28.509  18.568  12.481
79671CL-    CL-43879  32.020   0.387  11.924
79672CL-    CL-43880  14.236  14.657  14.431
79673CL-    CL-43881   9.152  37.443   3.751
79674CL-    CL-43882  13.125   7.707   3.753
79675CL-    CL-43883  20.530  25.006  14.845
79676CL-    CL-43884  21.523  41.950   2.862
79677CL-    CL-43885  35.050  44.323   4.766
79678CL-    CL-43886  17.717   1.439   3.779
79679CL-    CL-43887  25.986  30.010  12.579
79680CL-    CL-43888  41.358   4.420  12.425
79681CL-    CL-43889  41.893  20.209   3.378
79682CL-    CL-43890  18.096   5.386   5.092
79683CL-    CL-43891  18.154  27.668   1.781
79684CL-    CL-43892  17.231  19.658   2.276
79685CL-    CL-43893  22.561  32.898   1.272
79686CL-    CL-43894  33.996  44.471   4.237
79687CL-    CL-43895   5.259  41.476   3.317
79688CL-    CL-43896   6.403  27.583   3.223
79689CL-    CL-43897  30.624   2.937   1.911
79690CL-    CL-43898  26.078   8.820   0.742
79691CL-    CL-43899  41.841  30.593   1.779
79692CL-    CL-43900  11.785  16.157  12.957
79693CL-    CL-43901  40.485  14.657   3.305
79694CL-    CL-43902  35.985  11.787   1.286
79695CL-    CL-43903  35.464  31.940   3.289
79696CL-    CL-43904  18.177  18.268   1.908
79697CL-    CL-43905  43.993   1.849   0.926
79698CL-    CL-43906   1.812  25.027   1.441
79699CL-    CL-43907   3.247  27.093  14.948
79700CL-    CL-43908  41.896  20.045  11.463
79701CL-    CL-43909  31.520  26.609  13.944
79702CL-    CL-43910  37.543  14.130  14.323
79703CL-    CL-43911  21.071   3.790   4.264
79704CL-    CL-43912  24.649  21.671  13.802
79705CL-    CL-43913  22.189  10.244  12.011
79706CL-    CL-43914   6.420  11.835   0.403
79707CL-    CL-43915  22.145  15.632  12.015
79708CL-    CL-43916  36.929  33.924   0.384
79709CL-    CL-43917  35.393  31.578  13.904
79710CL-    CL-43918  35.379  16.141   3.248
79711CL-    CL-43919  42.776  12.705   4.313
79712CL-    CL-43920  11.307  43.482   2.254
79713CL-    CL-43921   8.705  22.210  11.900
79714CL-    CL-43922  23.152  31.132   1.694
79715CL-    CL-43923  24.009   8.744  14.905
79716CL-    CL-43924  36.350  29.576   3.671
79717CL-    CL-43925  29.550  41.027   1.323
79718CL-    CL-43926  17.710  21.658   4.615
79719CL-    CL-43927  31.105  20.589   0.476
79720CL-    CL-43928   9.232   1.884  13.363
79721CL-    CL-43929  25.985  43.377   1.753
79722CL-    CL-43930  21.078  13.269   4.801
79723CL-    CL-43931   5.381   1.245  13.934
79724CL-    CL-43932  31.906  13.197   3.192
79725CL-    CL-43933   2.832  25.048  13.461
79726CL-    CL-43934   8.340  26.180   0.260
79727CL-    CL-43935  27.447  39.431   1.304
79728CL-    CL-43936   9.200  13.831   3.787
79729CL-    CL-43937  23.095  34.963  12.476
79730CL-    CL-43938  37.439  29.606   2.696
79731CL-    CL-43939  24.486  14.591  13.008
79732CL-    CL-43940  14.775  10.307   2.362
79733CL-    CL-43941  10.763  17.169  11.892
79734CL-    CL-43942   3.304  30.593   1.210
79735CL-    CL-43943   2.735  43.437  13.926
79736CL-    CL-43944   2.755  14.281  11.568
79737CL-    CL-43945   6.791  27.134  12.532
79738CL-    CL-43946   7.342  15.245   2.680
79739CL-    CL-43947   3.955  26.569   4.766
79740CL-    CL-43948  25.032  38.341  14.822
79741CL-    CL-43949  43.441  23.150  10.554
79742CL-    CL-43950  32.480  26.183  13.483
79743CL-    CL-43951  17.748  39.373   1.277
79744CL-    CL-43952   3.349   1.755  13.932
79745CL-    CL-43953  10.836  21.631   0.289
79746CL-    CL-43954   9.832  39.530  13.803
79747CL-    CL-43955  18.695  21.236  13.993
79748CL-    CL-43956  38.876   7.280   3.682
79749CL-    CL-43957  44.941  22.194  11.390
79750CL-    CL-43958  21.172  41.787   4.332
79751CL-    CL-43959  33.597   2.268   4.617
79752CL-    CL-43960   5.722  15.778  12.044
79753CL-    CL-43961   2.900  20.117  10.945
79754CL-    CL-43962  40.308  15.728  13.989
79755CL-    CL-43963  18.196   5.425  13.814
79756CL-    CL-43964  26.463  18.781  12.067
79757CL-    CL-43965  40.511   7.759   1.927
79758CL-    CL-43966   5.439  10.700   0.475
79759CL-    CL-43967  32.939  20.040  11.522
79760CL-    CL-43968  14.810  25.664   3.637
79761CL-    CL-43969  32.978  39.880  11.965
79762CL-    CL-43970  13.225   3.825   4.270
79763CL-    CL-43971  16.149  25.138   2.838
79764CL-    CL-43972   2.365  17.215   3.682
79765CL-    CL-43973  18.545  14.198   4.168
79766CL-    CL-43974  30.097  22.200  12.056
79767CL-    CL-43975  19.546  38.982  13.987
79768CL-    CL-43976  38.471  40.880   4.335
79769CL-    CL-43977  36.012  39.974  11.399
79770CL-    CL-43978  16.786  19.054   0.780
79771CL-    CL-43979  23.151   7.406  10.909
79772CL-    CL-43980  44.484  32.102  13.052
79773CL-    CL-43981  16.668  41.923  13.360
79774CL-    CL-43982  39.444   5.739   1.752
79775CL-    CL-43983  40.446  20.178  14.283
79776CL-    CL-43984  20.688   8.224   3.245
79777CL-    CL-43985  22.716  18.592   4.718
79778CL-    CL-43986  36.868  38.432  13.469
79779CL-    CL-43987  29.594  42.461  10.406
79780CL-    CL-43988   9.277  22.230   2.235
79781CL-    CL-43989  44.858  12.727  10.478
79782CL-    CL-43990  41.312  31.467  12.077
79783CL-    CL-43991   2.936  11.310   0.424
79784CL-    CL-43992  32.564   0.371   3.241
79785CL-    CL-43993   3.408   3.849   0.776
79786CL-    CL-43994  29.563  42.484   1.879
79787CL-    CL-43995  29.059  34.098   3.835
79788CL-    CL-43996  35.603  41.871  14.418
79789CL-    CL-43997  39.898  13.109   3.833
79790CL-    CL-43998   7.765  14.623  14.957
79791CL-    CL-43999  40.420   4.227  13.026
79792CL-    CL-44000  20.204  33.890  12.067
79793CL-    CL-44001   3.244  24.997  11.591
79794CL-    CL-44002  18.073  33.931  11.098
79795CL-    CL-44003   4.872  41.419  13.025
79796CL-    CL-44004  19.041  41.393  12.835
79797CL-    CL-44005  36.042  17.701   2.416
79798CL-    CL-44006  28.494  37.038  13.367
79799CL-    CL-44007   6.864   9.829   2.781
79800CL-    CL-44008  39.906  32.122  13.492
79801CL-    CL-44009  38.822  40.502   1.294
79802CL-    CL-44010  27.532   3.939  11.475
79803CL-    CL-44011  15.604  18.237   4.747
79804CL-    CL-44012  18.227   8.395   3.228
79805CL-    CL-44013  36.382   4.450  11.500
79806CL-    CL-44014  17.760   6.850   1.798
79807CL-    CL-44015  26.575  44.983   1.215
79808CL-    CL-44016   7.705  31.937  14.483
79809CL-    CL-44017  41.816  33.568  10.611
79810CL-    CL-44018  37.490  14.702  12.375
79811CL-    CL-44019  20.605  10.686  12.429
79812CL-    CL-44020  11.355   2.808   1.396
79813CL-    CL-44021  39.452  14.280  11.392
79814CL-    CL-44022  34.115  24.657  14.916
79815CL-    CL-44023  28.558  27.609   2.223
79816CL-    CL-44024  11.246  28.063   4.278
79817CL-    CL-44025  23.659   3.806   4.203
79818CL-    CL-44026  36.520  16.692  13.870
79819CL-    CL-44027   5.894  11.840   4.196
79820CL-    CL-44028  23.018  30.488   4.324
79821CL-    CL-44029  28.993   6.693  13.812
79822CL-    CL-44030   2.291  24.652   3.778
79823CL-    CL-44031  27.680  17.256  12.085
79824CL-    CL-44032  21.020  12.163  13.359
79825CL-    CL-44033  12.229   4.807  14.876
79826CL-    CL-44034  39.875  21.227   1.772
79827CL-    CL-44035  27.159   1.334   0.454
79828CL-    CL-44036  16.261  11.850   0.355
79829CL-    CL-44037  23.056   1.845   2.215
79830CL-    CL-44038  39.811  43.500   2.825
79831CL-    CL-44039  25.103  35.420  14.469
79832CL-    CL-44040  40.362  36.923   0.374
79833CL-    CL-44041  17.767  44.274  11.999
79834CL-    CL-44042  10.180  18.544   2.271
79835CL-    CL-44043  33.504   5.430   4.298
79836CL-    CL-44044  18.651  15.747   4.684
79837CL-    CL-44045  37.086  23.619   3.222
79838CL-    CL-44046  30.928  28.988  12.961
79839CL-    CL-44047  43.438  39.942  14.934
79840CL-    CL-44048  30.157  32.525  13.426
79841CL-    CL-44049   2.728  16.111  14.770
79842CL-    CL-44050  28.501  30.584  12.504
79843CL-    CL-44051  33.962   4.343   0.786
79844CL-    CL-44052  27.691   0.814  14.960
79845CL-    CL-44053   9.382  14.833  14.005
79846CL-    CL-44054  29.635   3.831   0.932
79847CL-    CL-44055  37.074  37.538  13.474
79848CL-    CL-44056   6.399  21.080  12.873
79849CL-    CL-44057  17.298  14.775   4.635
79850CL-    CL-44058  42.510  32.086   0.890
79851CL-    CL-44059  33.003  14.232   4.708
79852CL-    CL-44060   2.753  43.350  13.042
79853CL-    CL-44061   2.444  40.924   3.804
79854CL-    CL-44062  28.042  41.450  12.875
79855CL-    CL-44063  44.288  43.773  14.501
79856CL-    CL-44064   4.351  28.480  13.425
79857CL-    CL-44065  31.032   0.480   1.356
79858CL-    CL-44066  30.652  24.609  11.054
79859CL-    CL-44067  26.610   3.356   4.720
79860CL-    CL-44068  11.331   4.232  11.564
79861CL-    CL-44069  20.036  42.006  12.003
79862CL-    CL-44070  41.495   3.763  10.518
79863CL-    CL-44071  27.468  42.520   0.370
79864CL-    CL-44072   7.313   2.745   4.644
79865CL-    CL-44073  17.753  32.951   2.803
79866CL-    CL-44074  30.644  16.197  11.945
79867CL-    CL-44075   7.712  40.443   2.417
79868CL-    CL-44076  38.449  30.656  14.502
79869CL-    CL-44077  28.009  19.736  12.069
79870CL-    CL-44078  30.027  36.412   4.727
79871CL-    CL-44079  14.339  10.316  12.356
79872CL-    CL-44080  33.420  40.329  11.394
79873CL-    CL-44081  40.529   4.887   9.595
79874CL-    CL-44082  11.824  10.878   2.392
79875CL-    CL-44083  14.248  22.064  11.501
79876CL-    CL-44084  27.018  24.113   3.668
79877CL-    CL-44085  23.985  33.964  13.464
79878CL-    CL-44086  22.686  34.937   1.727
79879CL-    CL-44087  43.501  22.545   0.338
79880CL-    CL-44088  35.502   2.424   1.710
79881CL-    CL-44089  41.034  28.979  12.093
79882CL-    CL-44090  21.619  31.641   4.618
79883CL-    CL-44091  30.919  18.778   4.656
79884CL-    CL-44092  39.471  18.112  14.014
79885CL-    CL-44093  26.538   8.229  13.016
79886CL-    CL-44094  40.029  26.549  11.083
79887CL-    CL-44095  23.624  17.102   2.785
79888CL-    CL-44096  31.510  38.062   4.717
79889CL-    CL-44097  41.930  19.179   3.630
79890CL-    CL-44098   7.875  11.293  14.800
79891CL-    CL-44099  33.391  42.971   3.332
79892CL-    CL-44100  37.970   7.305   2.818
79893CL-    CL-44101  43.828   8.808  13.967
79894CL-    CL-44102  25.183  40.859  13.414
79895CL-    CL-44103  14.309  42.995   4.223
79896CL-    CL-44104  32.024  10.304  10.461
79897CL-    CL-44105  30.939   1.972  11.400
79898CL-    CL-44106   6.311  24.196   1.777
79899CL-    CL-44107  32.944  14.720  11.996
79900CL-    CL-44108  34.615  19.135   3.329
79901CL-    CL-44109  18.588  39.336   1.929
79902CL-    CL-44110  43.823  16.665   2.788
79903CL-    CL-44111  17.597  40.374   4.347
79904CL-    CL-44112  18.138  20.203   3.738
79905CL-    CL-44113  28.551  13.635   0.345
79906CL-    CL-44114  33.511  42.975  10.556
79907CL-    CL-44115  22.997  41.900  12.994
79908CL-    CL-44116  17.193  22.711   1.778
79909CL-    CL-44117  15.148   0.765  10.515
79910CL-    CL-44118   2.936  12.815  14.375
79911CL-    CL-44119  39.559  20.073  10.904
79912CL-    CL-44120   1.334  16.665  13.881
79913CL-    CL-44121  28.075  22.194  14.429
79914CL-    CL-44122  15.191  17.588   4.798
79915CL-    CL-44123  27.045  16.270   1.806
79916CL-    CL-44124  26.053   1.907  11.909
79917CL-    CL-44125  35.861  27.949   0.754
79918CL-    CL-44126  14.305  29.643  12.447
79919CL-    CL-44127  10.848   0.492   3.176
79920CL-    CL-44128   6.246   9.784   4.601
79921CL-    CL-44129  16.158  40.002   3.736
79922CL-    CL-44130  40.380  43.818  11.612
79923CL-    CL-44131   7.834  40.391   4.730
79924CL-    CL-44132  12.296   4.727   1.424
79925CL-    CL-44133   6.280   7.404  12.007
79926CL-    CL-44134   1.830   6.317  14.855
79927CL-    CL-44135   9.184  42.519   4.630
79928CL-    CL-44136  26.048   6.329  10.415
79929CL-    CL-44137  39.919  15.806   0.308
79930CL-    CL-44138   5.771   5.195  10.901
79931CL-    CL-44139  25.104  16.688  11.518
79932CL-    CL-44140  43.386  30.484   0.428
79933CL-    CL-44141  13.165  33.584   3.166
79934CL-    CL-44142  19.241  22.740  10.981
79935CL-    CL-44143  32.545  41.809  12.074
79936CL-    CL-44144  11.307  11.146   3.247
79937CL-    CL-44145  34.975  36.576  14.838
79938CL-    CL-44146  13.288  24.110  14.483
79939CL-    CL-44147  38.427  31.507   1.845
79940CL-    CL-44148  13.115  39.843   0.907
79941CL-    CL-44149   3.449  17.645  10.929
79942CL-    CL-44150  12.689   0.289  11.425
79943CL-    CL-44151  11.624  12.141   2.410
79944CL-    CL-44152  24.627  16.299   0.286
79945CL-    CL-44153  22.618   8.363  10.128
79946CL-    CL-44154  32.115   1.466  13.520
79947CL-    CL-44155  36.049  18.632  12.934
79948CL-    CL-44156  14.308  27.192   2.852
79949CL-    CL-44157  32.943  21.041   1.217
79950CL-    CL-44158   8.680  32.905   4.117
79951CL-    CL-44159  20.241  17.772   1.867
79952CL-    CL-44160  29.433  40.833  11.471
79953CL-    CL-44161   1.964  23.708   4.601
79954CL-    CL-44162   6.789  28.158   2.667
79955CL-    CL-44163  32.517  34.495  12.552
79956CL-    CL-44164  36.961   9.185   4.262
79957CL-    CL-44165  21.541  15.098  11.118
79958CL-    CL-44166  26.484  28.523   0.280
79959CL-    CL-44167   2.822  41.028   0.833
79960CL-    CL-44168  10.760  23.569   4.660
79961CL-    CL-44169  17.116  12.259  14.880
79962CL-    CL-44170  25.214  21.198  14.486
79963CL-    CL-44171  27.594  26.056   2.717
79964CL-    CL-44172  39.460   4.698   3.302
79965CL-    CL-44173  11.805   0.321  13.811
79966CL-    CL-44174  10.252  16.578  12.482
79967CL-    CL-44175   8.729  44.384  14.821
79968CL-    CL-44176  27.107  14.184  12.874
79969CL-    CL-44177  22.154  31.555  12.340
79970CL-    CL-44178   1.773   6.841   4.753
79971CL-    CL-44179   0.410  32.910   3.212
79972CL-    CL-44180  16.668  31.077   2.741
79973CL-    CL-44181   5.716   4.751  11.972
79974CL-    CL-44182  15.641  31.641   2.671
79975CL-    CL-44183  21.242  44.976  12.514
79976CL-    CL-44184  27.601  31.497   0.460
79977CL-    CL-44185   0.790  12.197  13.058
79978CL-    CL-44186   3.782  20.238  13.315
79979CL-    CL-44187  41.986  22.199  11.598
79980CL-    CL-44188  21.172   8.736   0.347
79981CL-    CL-44189  43.000  28.461   2.385
79982CL-    CL-44190   8.734  31.019   4.320
79983CL-    CL-44191  42.427  34.446   3.807
79984CL-    CL-44192  11.206   7.774   4.145
79985CL-    CL-44193   3.932  21.532  14.017
79986CL-    CL-44194  19.704  25.069   3.314
79987CL-    CL-44195  33.922   0.885   3.192
79988CL-    CL-44196  17.651  33.474   1.739
79989CL-    CL-44197  26.482  28.649  12.383
79990CL-    CL-44198  10.206  26.647  14.305
79991CL-    CL-44199  17.556  30.988   0.855
79992CL-    CL-44200  21.665  37.426  13.923
79993CL-    CL-44201   0.284  37.938   5.196
79994CL-    CL-44202  44.466  36.074   1.270
79995CL-    CL-44203  36.022  42.347   4.262
79996CL-    CL-44204  34.589  28.096   0.738
79997CL-    CL-44205  26.971   9.700  14.998
79998CL-    CL-44206   0.303  33.481   3.828
79999CL-    CL-44207  19.731  10.228   0.818
80000CL-    CL-44208  25.113  39.976   3.202
80001CL-    CL-44209  38.326  43.329  12.381
80002CL-    CL-44210  39.553  42.346  10.595
80003CL-    CL-44211  37.561  18.554   2.870
80004CL-    CL-44212  40.893  15.596  14.987
80005CL-    CL-44213  40.525  37.557  12.549
80006CL-    CL-44214  30.088  20.748  14.975
80007CL-    CL-44215   1.828  29.506  12.497
80008CL-    CL-44216  32.405   5.221   0.416
80009CL-    CL-44217  36.488   9.731  14.280
80010CL-    CL-44218   7.717   9.281   2.717
80011CL-    CL-44219  18.289  19.114   0.308
80012CL-    CL-44220   3.805   8.891  10.568
80013CL-    CL-44221  22.699  20.557  11.906
80014CL-    CL-44222  10.171  33.985  11.502
80015CL-    CL-44223   3.789  31.112   1.280
80016CL-    CL-44224  19.177  28.153  11.502
80017CL-    CL-44225   7.360  40.980  13.370
80018CL-    CL-44226  36.963  43.343  12.035
80019CL-    CL-44227  43.962  40.316   4.260
80020CL-    CL-44228  11.356  18.734  10.504
80021CL-    CL-44229  22.562  27.519  14.284
80022CL-    CL-44230   9.280   5.286   0.953
80023CL-    CL-44231  38.339  10.265   1.325
80024CL-    CL-44232  13.771  42.465  10.493
80025CL-    CL-44233  27.103  37.564  12.503
80026CL-    CL-44234  28.989  28.022   3.813
80027CL-    CL-44235   9.872  25.498   0.424
80028CL-    CL-44236   4.907  33.076   1.438
80029CL-    CL-44237  10.877  11.646  14.002
80030CL-    CL-44238  20.558   3.796   2.399
80031CL-    CL-44239  27.998  16.768   0.862
80032CL-    CL-44240  37.971  42.883  10.930
80033CL-    CL-44241  18.716   5.744   2.220
80034CL-    CL-44242  29.496  10.139  14.462
80035CL-    CL-44243  37.988  17.119   1.426
80036CL-    CL-44244  20.593  40.895  14.815
80037CL-    CL-44245  20.191  11.315   1.769
80038CL-    CL-44246  35.426  39.353   0.737
80039CL-    CL-44247  34.546  30.648  10.471
80040CL-    CL-44248   5.748   4.834   3.227
80041CL-    CL-44249  38.851  13.607  12.882
80042CL-    CL-44250  15.148   3.283   2.308
80043CL-    CL-44251  44.375   5.218  13.501
80044CL-    CL-44252   7.814  38.424   4.631
80045CL-    CL-44253  37.980  41.507  10.460
80046CL-    CL-44254  43.851  37.388   5.263
80047CL-    CL-44255  27.572   8.747   2.796
80048CL-    CL-44256  41.836  32.006  12.428
80049CL-    CL-44257   6.742  36.030  11.073
  45.00000  45.00000  15.00000   0.00000   0.00000   0.00000   0.00000   0.00000   0.00000

